FOO
138240
    1MOL0     O    1   5.970   3.249   4.741  0.5649 -0.2293 -0.1396
    1MOL0     C    2   6.058   3.309   4.808 -0.8404 -0.0300 -1.3715
    1MOL0     O    3   6.160   3.398   4.767 -0.2204  0.2913  0.2901
    1MOL0     C    4   6.146   3.436   4.637  0.2406 -0.3114 -0.3423
    1MOL0     C    5   6.124   3.354   4.525 -0.2357  0.3138  0.2418
    1MOL0     C    6   6.154   3.393   4.391 -0.0262 -0.8254 -0.9499
    1MOL0     C    7   6.203   3.531   4.375  0.1826  0.2952  0.0061
    1MOL0     O    8   6.216   3.586   4.256 -0.5498  0.6062  0.3460
    1MOL0     C    9   6.137   3.533   4.141  0.3283 -0.5349  0.0314
    1MOL0     C   10   6.109   3.639   4.031  0.4056  0.0255  0.8206
    1MOL0     C   11   6.236   3.730   4.022  0.5336  0.5265 -0.1943
    1MOL0     C   12   6.247   3.834   3.911  0.4964  0.1183  0.2011
    1MOL0     C   13   6.376   3.919   3.916  0.5351 -0.3108  0.2559
    1MOL0     C   14   6.348   4.012   4.036  0.2202 -0.1085  0.1979
    1MOL0     C   15   6.465   4.114   4.041  1.2406  0.1612  0.1976
    1MOL0     C   16   6.463   4.215   4.156  0.6011  0.1070  0.1967
    1MOL0     N   17   6.339   4.295   4.147  1.0827  0.0893 -0.2253
    1MOL0     C   18   6.264   4.317   4.032 -0.3838  0.0777  0.2257
    1MOL0     C   19   6.159   4.393   4.068 -1.0824  0.7363  0.2390
    1MOL0     C   20   6.048   4.429   3.976  0.0116 -0.9219  0.4991
    1MOL0     C   21   6.089   4.555   3.906  0.5628 -0.9593  0.4957
    1MOL0     C   22   5.982   4.629   3.827  0.7606  0.5189 -0.0701
    1MOL0     C   23   5.943   4.564   3.699 -0.5640 -0.1325 -0.1056
    1MOL0     O   24   5.856   4.456   3.713  0.0292  0.4819 -0.6012
    1MOL0     C   25   5.719   4.465   3.701 -0.4827  0.3738 -0.0327
    1MOL0     C   26   5.648   4.349   3.728  0.2714 -0.0904  0.7792
    1MOL0     C   27   5.512   4.336   3.711  0.7483 -0.5689 -0.7015
    1MOL0     C   28   5.438   4.219   3.776 -0.3818 -0.9897 -0.1728
    1MOL0     C   29   5.446   4.438   3.643  0.1736 -0.1515 -0.1876
    1MOL0     C   30   5.307   4.420   3.608 -0.6329 -0.6333 -0.4223
    1MOL0     O   31   5.275   4.302   3.553  0.5426 -0.5806  0.3175
    1MOL0     C   32   5.146   4.284   3.511 -0.0650 -0.1828 -0.5271
    1MOL0     C   33   5.036   4.271   3.603 -0.1522  0.7911 -0.4548
    1MOL0     C   34   4.910   4.264   3.558  1.0332 -0.1347  0.5010
    1MOL0     C   35   4.878   4.270   3.425 -0.2030  1.1063  0.5590
    1MOL0     O   36   4.743   4.276   3.389 -0.5567 -0.2605  0.5031
    1MOL0     C   37   4.653   4.183   3.445 -0.1353 -0.1667 -1.0113
    1MOL0     C   38   4.530   4.168   3.364 -0.3404 -0.0646  0.0629
    1MOL0     C   39   4.428   4.288   3.359 -0.1336 -0.7199  0.0664
    1MOL0     C   40   4.293   4.250   3.281  0.7773  0.6982 -0.0385
    1MOL0     C   41   4.218   4.376   3.228  0.4022 -0.1509 -0.2696
    1MOL0     C   42   4.181   4.475   3.339 -0.2482 -0.0956 -0.8310
    1MOL0     C   43   4.159   4.612   3.273 -0.0883  0.2929 -0.2315
    1MOL0     C   44   4.162   4.719   3.380  0.6966 -0.3802  0.1091
    1MOL0    Cl   45   4.039   4.679   3.501 -0.0724 -0.4393 -0.0189
    1MOL0     C   46   4.980   4.278   3.329  0.4453 -0.1571 -0.2599
    1MOL0     C   47   5.113   4.285   3.372 -0.4229  0.8316 -0.6518
    1MOL0     O   48   5.235   4.516   3.638  0.1709 -0.1844  0.0549
    1MOL0     C   49   5.509   4.557   3.603  0.3945 -0.3524 -0.4292
    1MOL0     C   50   5.646   4.571   3.644  1.2302  0.1901  0.1511
    1MOL0     N   51   6.172   4.421   4.206  0.6844  0.9692 -0.6816
    1MOL0     N   52   6.282   4.361   4.251  0.2202  0.5898 -0.0034
    1MOL0     C   53   6.228   3.610   4.489  0.4516  0.1459  1.2292
    1MOL0     C   54   6.199   3.557   4.610 -0.0340  0.2450 -0.3613
    1MOL0     C   55   6.074   3.268   4.953 -0.6218 -0.3587 -0.3363
    1MOL0     C   56   5.997   3.171   5.013  0.1781 -0.4144 -0.2336
    1MOL0     C   57   6.029   3.136   5.138 -0.3061 -0.2384 -0.8816
    1MOL0     C   58   6.121   3.197   5.219  0.4509  0.4229 -0.2540
    1MOL0     O   59   6.156   3.139   5.342 -0.2069  0.0985  0.2525
    1MOL0     C   60   6.186   3.232   5.446  0.2168  0.5204 -0.3849
    1MOL0     C   61   6.113   3.190   5.579  0.1910 -0.0030 -0.5968
    1MOL0     C   62   5.966   3.154   5.549 -0.0448  0.2398  0.4100
    1MOL0     C   63   5.916   3.042   5.633 -0.2648  0.3071  0.6469
    1MOL0     C   64   5.947   2.909   5.583 -0.0022  0.5202 -0.9643
    1MOL0     C   65   5.967   2.801   5.536 -0.3030 -0.9660 -0.2670
    1MOL0     C   66   6.179   3.313   5.168 -0.3549  0.8883  0.0724
    1MOL0     C   67   6.165   3.342   5.038  0.0176 -0.1421  0.3006
    1MOL0     H   68   6.099   3.251   4.547  1.6644  0.0703  1.6085
    1MOL0     H   69   6.147   3.320   4.311 -1.1379 -0.4792 -1.1886
    1MOL0     H   70   6.192   3.447   4.101 -1.2356 -2.1599  1.2023
    1MOL0     H   71   6.039   3.494   4.168 -1.1325 -0.4623 -4.3967
    1MOL0     H   72   6.072   3.598   3.936 -0.6574 -0.5708  1.4863
    1MOL0     H   73   6.029   3.703   4.069 -0.4228 -0.0780 -0.6787
    1MOL0     H   74   6.224   3.786   4.115  2.9203  0.6582  0.1137
    1MOL0     H   75   6.326   3.667   4.018 -1.0150 -2.0058  2.0843
    1MOL0     H   76   6.241   3.770   3.823  2.8174 -2.5669  1.7994
    1MOL0     H   77   6.153   3.889   3.916 -0.2976 -1.2406  0.5746
    1MOL0     H   78   6.470   3.865   3.927  0.4013 -0.6551 -0.2478
    1MOL0     H   79   6.374   3.975   3.822 -0.8455 -2.7013 -1.2455
    1MOL0     H   80   6.253   4.065   4.022  0.8693  1.4017  1.1633
    1MOL0     H   81   6.344   3.958   4.131 -1.9429  0.5255  0.5232
    1MOL0     H   82   6.561   4.063   4.052  1.8696  1.6438  2.1064
    1MOL0     H   83   6.467   4.174   3.949 -1.0633  2.1511  1.3069
    1MOL0     H   84   6.552   4.278   4.145 -0.4700  1.6898  0.3361
    1MOL0     H   85   6.464   4.161   4.251 -0.3542  2.5165  1.6392
    1MOL0     H   86   6.277   4.280   3.931 -0.2646  0.5325  0.0690
    1MOL0     H   87   6.020   4.362   3.895  2.0301 -0.7244 -0.4353
    1MOL0     H   88   5.957   4.446   4.034 -0.7857 -2.1882 -0.3307
    1MOL0     H   89   6.166   4.523   3.835  2.0945 -0.4292  1.8535
    1MOL0     H   90   6.139   4.625   3.973  1.5611 -0.5891 -0.6214
    1MOL0     H   91   6.031   4.723   3.798  0.5098  0.9305  0.7959
    1MOL0     H   92   5.895   4.650   3.889  2.6982  1.1195  2.6576
    1MOL0     H   93   6.029   4.528   3.642  0.1565 -0.3113  1.0514
    1MOL0     H   94   5.899   4.641   3.635  1.3851  2.1227  1.1092
    1MOL0     H   95   5.708   4.276   3.780 -1.0534 -0.4874  1.8079
    1MOL0     H   96   5.337   4.251   3.803 -0.1918 -0.7443  0.2641
    1MOL0     H   97   5.434   4.123   3.723 -0.1049 -1.9687  1.5059
    1MOL0     H   98   5.479   4.218   3.877  0.0254  0.3537 -0.3091
    1MOL0     H   99   5.067   4.253   3.706 -0.9538  0.4870 -0.2634
    1MOL0     H  100   4.829   4.258   3.630 -0.2061  0.9917 -0.7136
    1MOL0     H  101   4.707   4.089   3.459  3.0468  1.1377 -3.3303
    1MOL0     H  102   4.618   4.219   3.543 -4.9442  1.2932 -2.9846
    1MOL0     H  103   4.559   4.125   3.268 -0.7433 -0.9924  0.3455
    1MOL0     H  104   4.487   4.077   3.406  2.6939 -0.9828  1.4302
    1MOL0     H  105   4.474   4.379   3.321 -0.9520  0.3014  1.4171
    1MOL0     H  106   4.394   4.304   3.462  0.5746 -1.4181  0.4182
    1MOL0     H  107   4.320   4.176   3.205  3.3594  0.4209  1.0437
    1MOL0     H  108   4.226   4.197   3.350  2.5401 -0.6722  0.6986
    1MOL0     H  109   4.125   4.345   3.179 -1.4859 -2.0867  3.9797
    1MOL0     H  110   4.279   4.425   3.152 -0.7894  0.5677 -0.7884
    1MOL0     H  111   4.087   4.445   3.387  0.4067 -1.6624 -0.4507
    1MOL0     H  112   4.262   4.490   3.411 -1.1172  1.2210 -0.0996
    1MOL0     H  113   4.059   4.607   3.227  0.0466 -1.7405 -0.3662
    1MOL0     H  114   4.238   4.633   3.201  1.3934 -2.9998  0.2575
    1MOL0     H  115   4.147   4.816   3.333 -1.8647 -2.0663 -2.9078
    1MOL0     H  116   4.262   4.731   3.424  0.5207  4.6887 -0.3463
    1MOL0     H  117   4.959   4.288   3.223 -0.7206  1.3579  0.0877
    1MOL0     H  118   5.194   4.298   3.301 -2.1400 -0.0059 -2.8693
    1MOL0     H  119   5.454   4.625   3.539 -0.0426 -1.6095 -1.4292
    1MOL0     H  120   5.691   4.663   3.606 -3.1147  1.7018 -2.0913
    1MOL0     H  121   6.272   3.707   4.466 -0.4042 -0.4560 -4.2882
    1MOL0     H  122   6.220   3.611   4.702  0.9829 -2.0370  0.8108
    1MOL0     H  123   5.922   3.113   4.962 -1.8766  2.5630 -0.8845
    1MOL0     H  124   5.990   3.047   5.185  0.0786 -0.8915 -1.7694
    1MOL0     H  125   6.295   3.229   5.455  0.1258 -2.4955  0.8570
    1MOL0     H  126   6.155   3.332   5.417 -1.4839 -0.5318 -2.5277
    1MOL0     H  127   6.108   3.273   5.651 -1.8687 -2.9197  2.9874
    1MOL0     H  128   6.165   3.104   5.621 -2.4105 -2.1337 -1.4308
    1MOL0     H  129   5.946   3.147   5.442  0.9560 -1.7293  0.3079
    1MOL0     H  130   5.914   3.246   5.579 -0.2499  0.6342 -1.0924
    1MOL0     H  131   5.808   3.052   5.624 -0.1566  0.5252 -0.5208
    1MOL0     H  132   5.945   3.044   5.738  2.2634  2.1723  0.0046
    1MOL0     H  133   5.995   2.700   5.514 -2.4432 -1.5454 -0.5142
    1MOL0     H  134   6.241   3.376   5.230  0.4595 -0.3185  0.5121
    1MOL0     H  135   6.214   3.426   4.991  0.9821 -1.5242 -1.2771
    2MOL0     O  136   4.935   4.688   5.273  0.7170 -0.2707 -0.0271
    2MOL0     C  137   4.854   4.600   5.308 -0.4610  1.4121 -0.4638
    2MOL0     O  138   4.748   4.622   5.389  0.5544  0.2287 -0.1155
    2MOL0     C  139   4.730   4.743   5.432  0.0535 -0.1714 -0.3882
    2MOL0     C  140   4.670   4.841   5.353 -0.1341  0.0575 -0.6527
    2MOL0     C  141   4.634   4.964   5.415 -0.4626 -0.3808 -0.4098
    2MOL0     C  142   4.662   4.987   5.556 -1.1801 -0.4748  0.4644
    2MOL0     O  143   4.622   5.111   5.611  0.3706 -0.1409  0.6169
    2MOL0     C  144   4.678   5.151   5.737 -0.5592  0.0242 -0.1942
    2MOL0     C  145   4.639   5.293   5.779 -0.3305  0.2628  0.3011
    2MOL0     C  146   4.516   5.301   5.870  0.5808 -0.2912 -0.3957
    2MOL0     C  147   4.399   5.369   5.800  0.0656 -0.3083  0.6330
    2MOL0     C  148   4.274   5.337   5.879  1.1562 -0.5388  0.1796
    2MOL0     C  149   4.172   5.450   5.855  0.1467  0.1272  0.8481
    2MOL0     C  150   4.130   5.466   5.704 -0.0935 -0.7753  0.3468
    2MOL0     C  151   4.072   5.590   5.664 -0.6530 -1.4205  0.6282
    2MOL0     N  152   3.993   5.585   5.545 -0.3465 -0.2988 -0.2149
    2MOL0     C  153   3.856   5.595   5.540  1.0082  0.3574  0.3307
    2MOL0     C  154   3.825   5.615   5.411 -0.2502  0.1954  0.5572
    2MOL0     C  155   3.680   5.611   5.373 -0.0269 -0.5297  0.4152
    2MOL0     C  156   3.661   5.664   5.233 -0.3348 -0.5917 -0.8738
    2MOL0     C  157   3.521   5.649   5.183 -0.1458  0.0029  0.2123
    2MOL0     C  158   3.420   5.736   5.260 -0.5811 -0.8244 -0.4044
    2MOL0     O  159   3.303   5.744   5.177 -0.2511 -0.2914 -0.0910
    2MOL0     C  160   3.178   5.708   5.221 -0.0150 -0.4653 -0.5398
    2MOL0     C  161   3.066   5.731   5.139 -1.1627  0.3637  0.0747
    2MOL0     C  162   2.930   5.699   5.173  0.0196 -0.6471 -0.7245
    2MOL0     C  163   2.839   5.728   5.059 -0.0758 -0.4188  0.8354
    2MOL0     C  164   2.905   5.624   5.296  0.0709  0.0777  0.1892
    2MOL0     C  165   2.776   5.566   5.330 -0.2252  0.0577  0.5164
    2MOL0     O  166   2.779   5.452   5.402 -0.1449 -0.1036  0.8797
    2MOL0     C  167   2.655   5.410   5.438  0.1713 -0.2425  0.0987
    2MOL0     C  168   2.589   5.310   5.361  0.0288 -0.1221  0.6706
    2MOL0     C  169   2.463   5.275   5.386  0.6200  0.1618  0.5001
    2MOL0     C  170   2.389   5.332   5.487 -0.6873 -1.1622 -0.8765
    2MOL0     O  171   2.263   5.289   5.511  0.3419 -0.6784 -1.0373
    2MOL0     C  172   2.236   5.148   5.514 -0.2219 -0.2418 -0.2642
    2MOL0     C  173   2.094   5.122   5.568  0.0989 -0.1511 -0.3173
    2MOL0     C  174   2.077   5.167   5.714  0.0426 -0.8118 -0.5833
    2MOL0     C  175   1.936   5.178   5.758  0.7081  0.4914 -0.4030
    2MOL0     C  176   1.857   5.043   5.731 -0.0223 -0.5328 -0.1517
    2MOL0     C  177   1.725   5.040   5.821 -0.3298 -0.2561  0.1628
    2MOL0     C  178   1.642   4.913   5.796 -0.6083  0.5649  0.3669
    2MOL0     C  179   1.602   4.892   5.647  0.2694 -0.3918 -0.1775
    2MOL0    Cl  180   1.523   5.049   5.584 -0.2497  0.1399 -0.3071
    2MOL0     C  181   2.448   5.429   5.575  0.7116  0.6208  0.4835
    2MOL0     C  182   2.578   5.469   5.543 -0.4869 -0.6334 -0.1747
    2MOL0     O  183   2.679   5.626   5.294 -0.5895  0.0902  0.1557
    2MOL0     C  184   3.020   5.598   5.374 -0.3881 -0.0366  0.3877
    2MOL0     C  185   3.151   5.642   5.344  0.2507 -0.1996 -0.8800
    2MOL0     N  186   3.944   5.609   5.334 -0.0090  0.2142  0.1285
    2MOL0     N  187   4.040   5.592   5.416  0.5622  0.3243 -0.7860
    2MOL0     C  188   4.716   4.880   5.624  0.2835  0.4490 -0.3474
    2MOL0     C  189   4.752   4.755   5.573 -0.1092  0.7148  0.5619
    2MOL0     C  190   4.884   4.459   5.259 -0.0671  0.0325  0.0248
    2MOL0     C  191   4.996   4.415   5.175 -0.0660 -0.8350 -1.2001
    2MOL0     C  192   5.008   4.290   5.129  1.0807  0.2095 -0.2769
    2MOL0     C  193   4.917   4.190   5.169  0.5645  0.5674  0.2158
    2MOL0     O  194   4.940   4.062   5.128 -0.0310 -0.2453 -0.3568
    2MOL0     C  195   4.931   3.956   5.217  0.4365  0.4742  0.4633
    2MOL0     C  196   4.982   3.839   5.145  0.5649  0.5789 -0.1090
    2MOL0     C  197   5.133   3.844   5.106 -1.0772 -0.1582 -0.8044
    2MOL0     C  198   5.167   3.730   5.013  0.0494 -0.3205  0.2825
    2MOL0     C  199   5.305   3.752   4.974 -0.4299 -0.6776  0.1403
    2MOL0     C  200   5.424   3.794   4.956  0.1121  0.5321  0.2320
    2MOL0     C  201   4.809   4.223   5.250  0.8625  0.2349 -0.3811
    2MOL0     C  202   4.801   4.356   5.303  0.5645  0.1471 -0.5105
    2MOL0     H  203   4.647   4.827   5.248  2.7848  4.1349 -2.0959
    2MOL0     H  204   4.585   5.044   5.361  2.1174  1.1983 -0.5993
    2MOL0     H  205   4.655   5.083   5.819  4.5602  2.0402  3.4492
    2MOL0     H  206   4.786   5.150   5.721 -0.7256 -2.7530 -1.7055
    2MOL0     H  207   4.729   5.335   5.825 -0.4249 -2.1643  2.9809
    2MOL0     H  208   4.612   5.351   5.690  0.0162 -4.0990 -2.9582
    2MOL0     H  209   4.483   5.203   5.906  1.4128 -0.9889 -1.4669
    2MOL0     H  210   4.548   5.357   5.958  1.3288  3.3683 -2.7695
    2MOL0     H  211   4.415   5.474   5.775 -2.3212 -0.4268 -1.9380
    2MOL0     H  212   4.381   5.327   5.700 -2.0033  3.3248 -0.7239
    2MOL0     H  213   4.237   5.240   5.846 -2.4586  0.4780  0.8038
    2MOL0     H  214   4.293   5.326   5.987  0.8409 -1.2334  0.1668
    2MOL0     H  215   4.079   5.430   5.908 -2.8311  0.0350 -3.8066
    2MOL0     H  216   4.209   5.545   5.894  0.3919  1.1906 -1.7367
    2MOL0     H  217   4.212   5.440   5.637 -0.5367  1.5292 -1.2114
    2MOL0     H  218   4.049   5.394   5.686  0.7821 -1.3462 -1.4440
    2MOL0     H  219   4.153   5.658   5.637 -0.6545 -1.2259  1.1219
    2MOL0     H  220   3.998   5.626   5.736  0.7357  4.5224 -0.3715
    2MOL0     H  221   3.784   5.576   5.620  1.6759 -0.4962  0.7480
    2MOL0     H  222   3.656   5.504   5.372  0.2930 -0.6013 -1.2416
    2MOL0     H  223   3.613   5.665   5.441 -0.6803 -0.4549 -0.2721
    2MOL0     H  224   3.728   5.603   5.171 -0.6929 -0.0118 -1.8524
    2MOL0     H  225   3.694   5.767   5.225 -2.3087 -0.0576 -3.6108
    2MOL0     H  226   3.492   5.543   5.188  1.8198 -0.5112  3.7764
    2MOL0     H  227   3.519   5.670   5.076 -1.4190 -1.4548 -0.0855
    2MOL0     H  228   3.463   5.834   5.281 -0.1284 -1.3653  1.3327
    2MOL0     H  229   3.400   5.685   5.354  0.1312 -2.8101 -1.2712
    2MOL0     H  230   3.091   5.779   5.045 -0.6386 -0.0482 -0.0073
    2MOL0     H  231   2.864   5.702   4.956  2.2462  1.5934  0.8089
    2MOL0     H  232   2.740   5.683   5.076  0.8957 -2.6926  0.8424
    2MOL0     H  233   2.823   5.836   5.064  0.3568 -0.0778 -2.7873
    2MOL0     H  234   2.644   5.272   5.275 -0.2299  1.9948 -0.4970
    2MOL0     H  235   2.419   5.208   5.313  2.0125  0.2959 -0.4886
    2MOL0     H  236   2.234   5.090   5.421  0.2023 -0.9959  0.1964
    2MOL0     H  237   2.305   5.103   5.585 -2.3131 -1.2487  1.2478
    2MOL0     H  238   2.012   5.173   5.517 -1.0066 -0.3629  1.1765
    2MOL0     H  239   2.077   5.015   5.548  1.6205 -0.2096 -1.5592
    2MOL0     H  240   2.116   5.264   5.744 -2.8143 -0.3854  2.4266
    2MOL0     H  241   2.129   5.097   5.781  1.2275  0.0204 -0.6102
    2MOL0     H  242   1.939   5.187   5.867  1.0273 -0.9968 -0.2574
    2MOL0     H  243   1.884   5.251   5.697 -0.1350  0.6917  0.5180
    2MOL0     H  244   1.917   4.952   5.741  1.7715  0.7715  1.8849
    2MOL0     H  245   1.834   5.056   5.625  3.6290 -0.8048 -1.1028
    2MOL0     H  246   1.756   5.040   5.926 -0.0201 -0.2808  0.0714
    2MOL0     H  247   1.664   5.129   5.802 -0.6898 -0.9416 -2.3082
    2MOL0     H  248   1.550   4.922   5.855 -0.1232  0.3927  1.1593
    2MOL0     H  249   1.699   4.824   5.823  0.4571  0.5824 -1.6361
    2MOL0     H  250   1.549   4.798   5.629  1.3877 -0.8571 -1.1861
    2MOL0     H  251   1.692   4.870   5.589  0.2001  0.8387 -0.7724
    2MOL0     H  252   2.387   5.475   5.653  0.5766 -0.3108  0.9494
    2MOL0     H  253   2.619   5.548   5.605 -1.2804 -0.6279  0.3563
    2MOL0     H  254   3.003   5.534   5.460 -4.5025 -1.5976 -1.2990
    2MOL0     H  255   3.229   5.610   5.412 -1.1242  1.3773  1.5769
    2MOL0     H  256   4.729   4.888   5.732 -1.6637  2.5117 -0.1943
    2MOL0     H  257   4.785   4.666   5.625 -0.8573  0.0888 -0.0081
    2MOL0     H  258   5.064   4.495   5.149 -1.6628 -0.6846 -5.7874
    2MOL0     H  259   5.099   4.261   5.079 -0.7657 -3.1829 -1.9763
    2MOL0     H  260   5.003   3.981   5.296  1.6783 -0.4140 -0.3413
    2MOL0     H  261   4.833   3.930   5.257  0.2919 -1.9005 -1.2224
    2MOL0     H  262   4.915   3.829   5.059 -0.3823 -1.6586  0.8253
    2MOL0     H  263   4.972   3.750   5.208  0.7724  0.9285  0.4277
    2MOL0     H  264   5.197   3.837   5.195 -2.1584 -1.9128 -0.1240
    2MOL0     H  265   5.153   3.944   5.066  0.2867  0.7689  1.9427
    2MOL0     H  266   5.090   3.728   4.936 -0.0227 -0.9347  0.3648
    2MOL0     H  267   5.158   3.631   5.059 -1.6758 -0.8411 -1.0567
    2MOL0     H  268   5.514   3.841   4.924 -0.1287  0.2388 -0.9320
    2MOL0     H  269   4.738   4.147   5.282  1.9844 -0.9420 -0.6047
    2MOL0     H  270   4.734   4.385   5.383  1.3729 -0.5028  0.4218
    3MOL0     O  271   2.734   9.422   2.651 -0.0876 -0.2127  0.2145
    3MOL0     C  272   2.837   9.413   2.715 -0.2353  0.1021 -0.4374
    3MOL0     O  273   2.963   9.377   2.674 -0.0483 -0.1161 -0.2806
    3MOL0     C  274   2.975   9.324   2.549 -0.1165 -0.1953 -0.1482
    3MOL0     C  275   3.036   9.399   2.447  0.0510 -0.3236 -1.1446
    3MOL0     C  276   3.033   9.345   2.316  0.0354 -0.3438  0.5693
    3MOL0     C  277   2.966   9.232   2.277 -0.4245 -0.9407 -0.5614
    3MOL0     O  278   2.960   9.188   2.154 -0.6076  0.1942  0.1773
    3MOL0     C  279   2.916   9.050   2.129  0.7458 -0.2715 -0.6133
    3MOL0     C  280   2.941   9.018   1.986 -0.0528 -0.4013 -0.1929
    3MOL0     C  281   2.899   8.874   1.962 -0.6536 -0.0127  0.6458
    3MOL0     C  282   2.947   8.834   1.823 -0.2803 -0.8244 -0.0862
    3MOL0     C  283   2.905   8.703   1.766  0.6003  0.2915 -0.4883
    3MOL0     C  284   2.847   8.716   1.629  0.5429  0.5662 -0.1925
    3MOL0     C  285   2.810   8.585   1.571  0.0769  0.3580 -0.6117
    3MOL0     C  286   2.703   8.582   1.457  0.6486  0.5950  0.0583
    3MOL0     N  287   2.727   8.672   1.349  0.3453 -0.3371 -0.5782
    3MOL0     C  288   2.672   8.796   1.333 -0.7987 -0.3657  0.2389
    3MOL0     C  289   2.726   8.850   1.226  0.8405 -0.1580  0.0020
    3MOL0     C  290   2.692   8.988   1.186  0.1239 -0.0919 -0.5923
    3MOL0     C  291   2.548   9.023   1.129 -0.1715  0.1508 -0.2163
    3MOL0     C  292   2.560   9.024   0.978  0.7258 -0.0776 -0.1112
    3MOL0     C  293   2.426   9.082   0.918  0.6504  0.5395  0.3619
    3MOL0     O  294   2.327   8.988   0.947 -0.5843  0.8740 -0.0019
    3MOL0     C  295   2.201   9.026   0.951 -0.0153 -1.1858  0.2631
    3MOL0     C  296   2.152   9.143   0.895 -1.0729  0.2395  0.6380
    3MOL0     C  297   2.015   9.176   0.896  0.4704 -0.2326 -0.0993
    3MOL0     C  298   1.962   9.311   0.850  0.9738 -0.1493 -0.3118
    3MOL0     C  299   1.932   9.078   0.958  0.0681 -0.2797  0.1591
    3MOL0     C  300   1.789   9.100   0.972 -0.8995  1.0315  0.4269
    3MOL0     O  301   1.729   9.029   1.077 -0.6126 -0.0064  0.3282
    3MOL0     C  302   1.607   9.057   1.107  0.0615  0.1779  0.4575
    3MOL0     C  303   1.532   9.179   1.086 -0.2314  0.0008  0.5262
    3MOL0     C  304   1.395   9.184   1.109  0.2765 -0.6635 -0.8953
    3MOL0     C  305   1.326   9.078   1.162  0.0588  0.9712  0.2080
    3MOL0     O  306   1.191   9.104   1.183  0.6033  0.6153 -0.2827
    3MOL0     C  307   1.113   9.000   1.246  0.9154  1.0125 -0.6661
    3MOL0     C  308   0.966   9.048   1.243 -0.6106  0.5857 -0.1634
    3MOL0     C  309   0.875   8.973   1.352 -0.0658  0.5445  0.4238
    3MOL0     C  310   0.733   9.019   1.333 -0.2062  0.4012 -0.7031
    3MOL0     C  311   0.629   8.911   1.309  0.4249 -0.0733  0.0965
    3MOL0     C  312   0.615   8.815   1.431  0.3872 -0.3943 -0.5938
    3MOL0     C  313   0.554   8.878   1.562  0.5485 -0.0353 -0.5075
    3MOL0     C  314   0.408   8.910   1.556 -0.6388 -0.3473 -0.5934
    3MOL0    Cl  315   0.384   9.031   1.687 -0.1455  0.2028 -0.6221
    3MOL0     C  316   1.403   8.965   1.182  0.4486  0.6128  0.9381
    3MOL0     C  317   1.539   8.952   1.162  0.4942  0.2914  0.1471
    3MOL0     O  318   1.734   9.143   0.869 -1.1800  0.4152  0.2528
    3MOL0     C  319   1.981   8.965   1.025 -1.5176 -0.2058 -0.4192
    3MOL0     C  320   2.121   8.939   1.013 -0.2343  0.3593  0.1013
    3MOL0     N  321   2.810   8.761   1.163 -0.4249  0.1445 -0.1571
    3MOL0     N  322   2.794   8.647   1.230 -0.7429  0.0266  0.0945
    3MOL0     C  323   2.922   9.158   2.389 -0.1080 -0.1689  0.7925
    3MOL0     C  324   2.917   9.209   2.517 -0.1584 -0.4213 -0.8823
    3MOL0     C  325   2.823   9.418   2.859  0.3739  0.4609  0.1677
    3MOL0     C  326   2.705   9.459   2.924 -0.8378  0.1373 -0.5387
    3MOL0     C  327   2.708   9.462   3.062  0.8704 -1.1214  1.0398
    3MOL0     C  328   2.817   9.438   3.146 -0.6663 -0.1218 -0.5231
    3MOL0     O  329   2.797   9.450   3.278 -0.2028  1.4536 -0.4691
    3MOL0     C  330   2.855   9.576   3.326 -0.7172  0.3471  1.0591
    3MOL0     C  331   2.758   9.641   3.424  0.4595  0.1676  0.8889
    3MOL0     C  332   2.787   9.789   3.421 -0.6569  0.0305  0.2062
    3MOL0     C  333   2.711   9.860   3.531 -0.6968 -0.0578 -0.0115
    3MOL0     C  334   2.787   9.849   3.661 -0.5736 -1.2755 -0.2381
    3MOL0     C  335   2.848   9.844   3.771  0.4304  0.7932 -0.1593
    3MOL0     C  336   2.935   9.386   3.085 -0.1711  0.4313  0.6005
    3MOL0     C  337   2.945   9.389   2.943  0.7015  0.1922  0.1783
    3MOL0     H  338   3.068   9.499   2.472 -1.5085 -0.4452  1.8211
    3MOL0     H  339   3.072   9.408   2.237 -2.5213 -0.4371 -0.8804
    3MOL0     H  340   2.989   8.992   2.187  0.0630  2.2125  3.0210
    3MOL0     H  341   2.809   9.047   2.148  0.7030  0.2922 -0.7541
    3MOL0     H  342   2.872   9.071   1.919  0.0573 -0.6970 -0.5431
    3MOL0     H  343   3.046   9.040   1.963 -0.0373 -0.7341 -0.4602
    3MOL0     H  344   2.951   8.812   2.035  1.3275  0.5837 -0.2023
    3MOL0     H  345   2.792   8.854   1.974 -0.6551  1.3625  4.1028
    3MOL0     H  346   2.896   8.906   1.758  0.0970 -2.7824 -2.7064
    3MOL0     H  347   3.055   8.847   1.812 -0.5339 -0.4622 -2.9764
    3MOL0     H  348   2.988   8.632   1.771 -0.4449 -1.1300 -1.9478
    3MOL0     H  349   2.824   8.654   1.821 -2.3559  1.2202 -3.6325
    3MOL0     H  350   2.763   8.786   1.623 -0.7797 -1.0363 -3.0760
    3MOL0     H  351   2.924   8.750   1.560 -1.7924  0.9787 -2.7651
    3MOL0     H  352   2.897   8.527   1.536 -1.9939 -2.9497 -0.7581
    3MOL0     H  353   2.771   8.519   1.649  2.7219  0.7097  1.1609
    3MOL0     H  354   2.603   8.611   1.492  0.3263  0.5449 -0.8026
    3MOL0     H  355   2.701   8.480   1.419  0.0714  0.4348  0.5119
    3MOL0     H  356   2.615   8.851   1.407  1.5409 -0.4828  2.2760
    3MOL0     H  357   2.701   9.042   1.281  0.1436 -1.8174  0.4377
    3MOL0     H  358   2.773   9.031   1.127 -0.4264 -0.7934 -1.8957
    3MOL0     H  359   2.528   9.123   1.168 -1.0948 -0.2756  0.4655
    3MOL0     H  360   2.469   8.955   1.164  0.7731 -1.3539 -0.9395
    3MOL0     H  361   2.574   8.921   0.945  1.9920 -0.2304  0.8272
    3MOL0     H  362   2.642   9.086   0.940 -0.8813  1.0856 -1.8753
    3MOL0     H  363   2.444   9.091   0.810 -0.3782 -2.4471 -0.1548
    3MOL0     H  364   2.407   9.183   0.954  1.3802  0.5839  0.6320
    3MOL0     H  365   2.220   9.216   0.852 -1.3778  2.2826  3.3722
    3MOL0     H  366   1.910   9.307   0.753 -2.3611  1.3310  1.2610
    3MOL0     H  367   1.896   9.358   0.924 -0.6771 -1.7056 -0.7089
    3MOL0     H  368   2.046   9.380   0.842 -0.2966  2.0762  3.4077
    3MOL0     H  369   1.573   9.263   1.031  2.5470 -0.3937  1.8147
    3MOL0     H  370   1.349   9.281   1.089  0.3142 -0.0864  1.4692
    3MOL0     H  371   1.116   8.909   1.185  0.8475  1.2224 -0.9842
    3MOL0     H  372   1.138   8.988   1.352 -1.2043  0.0567 -0.2119
    3MOL0     H  373   0.969   9.155   1.266  2.1070  0.4392  0.5151
    3MOL0     H  374   0.935   9.033   1.139 -0.7613  1.7098 -0.2896
    3MOL0     H  375   0.910   9.002   1.451  2.9377 -2.6191  0.4887
    3MOL0     H  376   0.891   8.864   1.351 -3.2400 -0.0898  2.8621
    3MOL0     H  377   0.708   9.080   1.420 -1.0727 -0.6628 -0.1797
    3MOL0     H  378   0.730   9.087   1.248  1.0040  0.8780 -0.3925
    3MOL0     H  379   0.651   8.859   1.215 -0.8241  2.0444 -1.4569
    3MOL0     H  380   0.529   8.952   1.292 -1.1272 -4.7667 -5.1908
    3MOL0     H  381   0.552   8.731   1.399  0.6951 -0.7435 -0.2895
    3MOL0     H  382   0.717   8.788   1.459  1.1805  2.7713  0.0060
    3MOL0     H  383   0.595   8.977   1.588  0.0370  0.0293  0.0815
    3MOL0     H  384   0.570   8.805   1.642  0.1603  2.3050  1.8826
    3MOL0     H  385   0.346   8.820   1.564 -1.9284  0.5640  0.0859
    3MOL0     H  386   0.377   8.956   1.461  2.6487 -3.6690 -3.5791
    3MOL0     H  387   1.355   8.876   1.220 -2.5082  2.1522  1.0614
    3MOL0     H  388   1.592   8.858   1.175 -0.6572 -0.4825 -0.5433
    3MOL0     H  389   1.925   8.890   1.080 -2.5178  0.2815 -0.7505
    3MOL0     H  390   2.172   8.844   1.026  0.5832  0.7291 -0.3015
    3MOL0     H  391   2.872   9.063   2.375 -1.4096  0.7196 -0.8905
    3MOL0     H  392   2.852   9.151   2.582 -3.2535 -1.3490 -4.4933
    3MOL0     H  393   2.610   9.481   2.876 -0.7369  1.4999 -0.1739
    3MOL0     H  394   2.621   9.507   3.108  1.2879  1.3416 -0.4021
    3MOL0     H  395   2.954   9.553   3.365  1.3010  3.9950 -1.3664
    3MOL0     H  396   2.862   9.636   3.235 -2.7036 -2.2354 -0.9726
    3MOL0     H  397   2.772   9.596   3.523  0.7611 -0.8690  0.3884
    3MOL0     H  398   2.651   9.633   3.402  0.6734 -1.1775  0.2517
    3MOL0     H  399   2.768   9.830   3.322  2.1047 -1.2896 -0.9707
    3MOL0     H  400   2.895   9.796   3.437 -0.2545  0.8993 -2.4689
    3MOL0     H  401   2.611   9.817   3.543 -1.5332  2.1744  1.7396
    3MOL0     H  402   2.707   9.967   3.510  0.7107  0.1494  0.6423
    3MOL0     H  403   2.868   9.861   3.875 -0.9085  0.5070  0.1623
    3MOL0     H  404   3.025   9.353   3.136 -0.1484  0.7295  0.7566
    3MOL0     H  405   3.047   9.363   2.916  0.0761  0.0115 -2.1888
    4MOL0     O  406   4.086   0.976   9.037  0.0954  0.6283  0.2066
    4MOL0     C  407   4.026   1.059   8.969 -0.5742  1.1529 -0.3693
    4MOL0     O  408   3.943   1.150   9.011  0.0177 -0.3243  0.1138
    4MOL0     C  409   3.914   1.157   9.147  0.6637 -0.6616 -0.1679
    4MOL0     C  410   3.834   1.075   9.226  0.4593  1.1296 -0.4946
    4MOL0     C  411   3.790   1.100   9.360  0.4459 -0.2932 -0.4631
    4MOL0     C  412   3.850   1.205   9.426 -0.0455  0.1709  0.1744
    4MOL0     O  413   3.840   1.246   9.548  0.7101  0.4770  0.0946
    4MOL0     C  414   3.843   1.126   9.632  0.4357 -1.2564  0.5290
    4MOL0     C  415   3.872   1.156   9.779  0.0657  0.2464  0.3549
    4MOL0     C  416   4.013   1.226   9.790 -0.0151 -0.1341 -0.0850
    4MOL0     C  417   4.051   1.248   9.940 -0.2144  0.7428 -0.1496
    4MOL0     C  418   4.201   1.280   9.962 -0.2536  0.0858  0.5927
    4MOL0     C  419   4.241   1.314  10.101  0.6564  0.6468 -0.6694
    4MOL0     C  420   4.161   1.420  10.183  0.5936  0.1805 -0.5337
    4MOL0     C  421   4.256   1.467  10.300 -0.1995 -0.5608  0.0494
    4MOL0     N  422   4.358   1.562  10.254  0.2045 -0.0376  0.8175
    4MOL0     C  423   4.438   1.640  10.335 -0.2232  0.5516  0.0780
    4MOL0     C  424   4.517   1.712  10.246 -0.2871 -0.0309 -0.3532
    4MOL0     C  425   4.637   1.800  10.271 -0.1074  0.1012  0.3310
    4MOL0     C  426   4.618   1.942  10.206 -0.0379 -0.1630 -1.0417
    4MOL0     C  427   4.751   2.027  10.240 -0.0309 -0.4724  0.3551
    4MOL0     C  428   4.874   1.993  10.152  0.4705 -0.1775  0.5225
    4MOL0     O  429   4.977   2.075  10.197  0.1178 -1.0969  0.2804
    4MOL0     C  430   5.058   2.035  10.302 -0.9099  0.2665 -0.8179
    4MOL0     C  431   5.032   1.921  10.380  0.0778 -0.6583  0.6663
    4MOL0     C  432   5.107   1.885  10.493 -0.2766  0.7757 -0.6925
    4MOL0     C  433   5.059   1.762  10.562  0.0527 -0.0734  0.3190
    4MOL0     C  434   5.229   1.964  10.528  1.0734  0.4366  0.2496
    4MOL0     C  435   5.307   1.935  10.644  0.6035 -0.3015  0.5060
    4MOL0     O  436   5.418   2.019  10.658 -0.7257  0.7424 -0.7800
    4MOL0     C  437   5.492   2.026  10.768  0.3825  0.3254 -1.3583
    4MOL0     C  438   5.455   2.006  10.905  0.3159  0.4191 -0.2615
    4MOL0     C  439   5.537   2.016  11.015  0.0053 -0.1579 -0.2155
    4MOL0     C  440   5.670   2.039  10.990 -0.2363  0.0546  0.0266
    4MOL0     O  441   5.759   2.039  11.096  0.2313  0.4989  0.2612
    4MOL0     C  442   5.900   2.017  11.079 -0.4653  0.0940 -0.9487
    4MOL0     C  443   5.971   1.996  11.221  0.2171  0.7145  1.0672
    4MOL0     C  444   6.124   2.024  11.227  0.1395  0.4742 -0.5463
    4MOL0     C  445   6.158   2.051  11.376  0.2415  0.0584  0.4249
    4MOL0     C  446   6.157   1.928  11.465  0.0788  0.6898  0.1894
    4MOL0     C  447   6.294   1.930  11.539  0.3362  0.2530 -0.0211
    4MOL0     C  448   6.309   1.802  11.626 -0.0859 -0.3609  0.0454
    4MOL0     C  449   6.427   1.718  11.590  0.5117 -0.0171  0.8296
    4MOL0    Cl  450   6.581   1.806  11.609 -0.6025  0.2600 -0.2811
    4MOL0     C  451   5.711   2.063  10.848  1.9092  0.8059 -0.5083
    4MOL0     C  452   5.625   2.057  10.743  0.3965  0.3030  0.1078
    4MOL0     O  453   5.271   1.844  10.717  0.3378  0.1411 -0.0730
    4MOL0     C  454   5.256   2.071  10.438 -0.3751 -0.1336 -0.4979
    4MOL0     C  455   5.173   2.114  10.337  0.3722  0.1716  0.2718
    4MOL0     N  456   4.471   1.692  10.121 -0.3849 -0.0042 -0.3673
    4MOL0     N  457   4.378   1.606  10.127  1.0510 -0.6876 -0.2392
    4MOL0     C  458   3.916   1.293   9.351  0.1560 -0.0416  0.0122
    4MOL0     C  459   3.945   1.278   9.216 -0.1792  0.4699 -0.1750
    4MOL0     C  460   4.043   1.050   8.820 -0.0535 -0.1382  0.7712
    4MOL0     C  461   3.969   1.128   8.727 -1.2064  0.0575 -0.0012
    4MOL0     C  462   3.963   1.095   8.591 -0.2053  0.7126  0.0596
    4MOL0     C  463   4.023   0.975   8.537  0.2148 -0.4564  0.0899
    4MOL0     O  464   4.026   0.954   8.405  0.7186 -0.2632 -1.0115
    4MOL0     C  465   4.087   0.830   8.354 -0.1573  0.3705 -0.1902
    4MOL0     C  466   4.243   0.843   8.336  0.1156  0.0139  0.0115
    4MOL0     C  467   4.287   0.980   8.290 -0.5678 -0.1492 -0.8569
    4MOL0     C  468   4.238   1.019   8.155 -0.3559 -0.1706  0.0515
    4MOL0     C  469   4.291   0.932   8.051  0.2804 -0.1979  0.1202
    4MOL0     C  470   4.327   0.860   7.957 -0.1104 -0.1669  0.0241
    4MOL0     C  471   4.090   0.893   8.630 -0.2472 -0.3470  0.1220
    4MOL0     C  472   4.099   0.928   8.764 -0.2459 -0.4607  0.7844
    4MOL0     H  473   3.799   0.978   9.193  0.9445  0.7106  0.1798
    4MOL0     H  474   3.721   1.034   9.412  1.9125 -1.2785  0.3087
    4MOL0     H  475   3.748   1.072   9.642 -0.8668  0.9962  1.0506
    4MOL0     H  476   3.921   1.059   9.597  0.0981 -2.2744  1.6469
    4MOL0     H  477   3.801   1.229   9.820 -0.2971  1.1588 -1.7177
    4MOL0     H  478   3.863   1.063   9.836 -0.6392  0.4663  0.6128
    4MOL0     H  479   4.091   1.169   9.738  1.8981  1.6303  0.7074
    4MOL0     H  480   4.012   1.321   9.736 -0.5818 -1.3207 -2.2744
    4MOL0     H  481   3.981   1.316   9.990  2.2173  0.8662  3.4860
    4MOL0     H  482   4.032   1.155   9.994  0.4689  1.9777  2.4051
    4MOL0     H  483   4.273   1.206   9.924  2.5341  1.8171  2.1624
    4MOL0     H  484   4.214   1.370   9.900 -0.2483 -0.1295  0.2784
    4MOL0     H  485   4.249   1.218  10.151  2.3452  0.9816 -0.2164
    4MOL0     H  486   4.346   1.344  10.095  0.9911 -0.4074 -0.2053
    4MOL0     H  487   4.119   1.495  10.116  1.4612  1.3383  0.1984
    4MOL0     H  488   4.068   1.381  10.225 -1.5297  2.0238 -3.2162
    4MOL0     H  489   4.307   1.375  10.329  0.0780 -0.6143 -0.5918
    4MOL0     H  490   4.201   1.507  10.386 -1.5534  4.0298 -2.6227
    4MOL0     H  491   4.446   1.631  10.443  0.9162  0.5058 -0.0048
    4MOL0     H  492   4.663   1.808  10.377  1.2855 -2.2132  0.2426
    4MOL0     H  493   4.717   1.748  10.219  1.8962 -1.0939  4.2205
    4MOL0     H  494   4.527   1.987  10.249  0.9048  0.6413  0.1947
    4MOL0     H  495   4.607   1.929  10.098  0.1661  1.8727 -1.3487
    4MOL0     H  496   4.767   2.012  10.347  1.9491  2.9073  0.6818
    4MOL0     H  497   4.718   2.128  10.214  1.3101 -0.5210 -1.7218
    4MOL0     H  498   4.858   2.009  10.045  2.0038 -1.6085  0.0352
    4MOL0     H  499   4.889   1.884  10.149 -2.9458 -0.7994  1.2362
    4MOL0     H  500   4.935   1.874  10.369 -0.3537  0.4810 -0.6719
    4MOL0     H  501   5.037   1.777  10.668  0.3908 -1.3594  0.5924
    4MOL0     H  502   4.967   1.727  10.514 -0.1848  1.7908 -0.6646
    4MOL0     H  503   5.136   1.685  10.556 -0.5618 -0.6434 -0.6195
    4MOL0     H  504   5.349   1.984  10.917  0.6197 -2.1302 -1.5957
    4MOL0     H  505   5.511   2.004  11.119  3.0534 -0.5859  0.6050
    4MOL0     H  506   5.922   1.928  11.018  0.5746  0.4248 -1.0685
    4MOL0     H  507   5.949   2.105  11.037 -2.3957  2.2574  1.0210
    4MOL0     H  508   5.922   2.071  11.285  1.2409  1.3552  1.1258
    4MOL0     H  509   5.950   1.898  11.263 -2.2010 -0.8587 -3.1876
    4MOL0     H  510   6.156   2.107  11.164  3.1763 -3.2305 -4.5452
    4MOL0     H  511   6.195   1.946  11.198  0.8012  1.8265 -2.7189
    4MOL0     H  512   6.255   2.101  11.376  0.4810  0.4227 -5.9437
    4MOL0     H  513   6.092   2.125  11.424  1.3467  2.9782 -2.2044
    4MOL0     H  514   6.156   1.840  11.400  0.9834  2.7066 -2.7824
    4MOL0     H  515   6.068   1.922  11.528  1.6573 -1.6051  2.3681
    4MOL0     H  516   6.363   1.922  11.455 -3.3579 -0.0787 -3.2908
    4MOL0     H  517   6.311   2.021  11.597  0.3516  1.7532 -2.2769
    4MOL0     H  518   6.213   1.748  11.628 -1.1233  1.2665  3.9874
    4MOL0     H  519   6.315   1.826  11.733  1.9591 -1.6284  0.2536
    4MOL0     H  520   6.414   1.683  11.487  0.2436  0.4466  0.7037
    4MOL0     H  521   6.434   1.630  11.656 -0.3742 -0.7839 -0.0716
    4MOL0     H  522   5.812   2.089  10.819  1.7768  1.0266 -0.7757
    4MOL0     H  523   5.658   2.066  10.640 -0.9186  0.6581 -0.3036
    4MOL0     H  524   5.336   2.139  10.463 -0.0999 -1.0234  1.2635
    4MOL0     H  525   5.204   2.199  10.276 -0.9635  0.1131 -0.5337
    4MOL0     H  526   3.936   1.390   9.396 -2.6539 -0.1184  1.7037
    4MOL0     H  527   3.988   1.361   9.161 -0.6690  0.4911 -0.5387
    4MOL0     H  528   3.909   1.205   8.774  0.4764  0.6451  1.2823
    4MOL0     H  529   3.888   1.142   8.528 -3.1433 -0.3814  2.4457
    4MOL0     H  530   4.066   0.749   8.424 -1.4555  2.0508  1.4844
    4MOL0     H  531   4.039   0.813   8.258 -1.5371  3.6367 -0.2218
    4MOL0     H  532   4.274   0.762   8.270  0.4778 -0.1160  0.3380
    4MOL0     H  533   4.291   0.829   8.434  0.0290  2.3602  0.4433
    4MOL0     H  534   4.396   0.985   8.293 -0.6147  1.5657 -1.1969
    4MOL0     H  535   4.260   1.055   8.364  3.0677 -1.6995  2.3890
    4MOL0     H  536   4.261   1.121   8.123 -0.6770 -0.4201 -1.0168
    4MOL0     H  537   4.130   1.009   8.169 -0.2761  1.9704  3.0505
    4MOL0     H  538   4.350   0.784   7.885  1.4455 -1.1418  1.4833
    4MOL0     H  539   4.153   0.807   8.614  0.8297  0.6441 -1.1983
    4MOL0     H  540   4.158   0.862   8.827 -0.0271 -1.8986 -0.8587
    5MOL0     O  541  10.691   6.717   6.855  0.5810 -0.1620  0.4337
    5MOL0     C  542  10.574   6.702   6.888 -0.3720  0.6650 -0.5087
    5MOL0     O  543  10.524   6.592   6.959 -0.1220 -0.4726  0.3265
    5MOL0     C  544  10.611   6.499   7.014  0.8268 -0.5950 -0.4531
    5MOL0     C  545  10.607   6.474   7.155 -0.0153  0.2405  0.2009
    5MOL0     C  546  10.673   6.366   7.206 -1.1409  0.2639 -1.4040
    5MOL0     C  547  10.762   6.293   7.121  0.1602 -0.6961 -0.0324
    5MOL0     O  548  10.840   6.190   7.170 -0.2637  0.0702  0.1037
    5MOL0     C  549  10.888   6.176   7.304  0.8328 -0.1962 -0.0923
    5MOL0     C  550  10.852   6.052   7.370 -0.1656  0.3801  0.3141
    5MOL0     C  551  10.701   6.037   7.392  1.0224  0.2455 -0.5656
    5MOL0     C  552  10.652   5.892   7.414  0.9017 -0.2374  0.4469
    5MOL0     C  553  10.504   5.889   7.413  0.0274 -0.5318  0.1494
    5MOL0     C  554  10.442   5.762   7.464  0.0223  0.5960  0.2982
    5MOL0     C  555  10.475   5.722   7.599  0.2884  0.1150  0.0762
    5MOL0     C  556  10.358   5.633   7.662 -0.6723  0.6225 -0.5642
    5MOL0     N  557  10.381   5.600   7.802  0.1326  0.4174  0.5374
    5MOL0     C  558  10.422   5.476   7.849  0.4177  0.5775 -0.2743
    5MOL0     C  559  10.424   5.499   7.983 -0.5062 -0.4056  0.0309
    5MOL0     C  560  10.464   5.390   8.077 -0.6052 -0.0281 -0.6849
    5MOL0     C  561  10.607   5.372   8.074 -0.2786  0.6401 -0.0411
    5MOL0     C  562  10.653   5.276   8.182 -0.8189 -0.0074  0.5698
    5MOL0     C  563  10.802   5.263   8.189 -0.8689 -0.2390 -0.7353
    5MOL0     O  564  10.855   5.217   8.063  0.1057  0.3027 -1.0228
    5MOL0     C  565  10.961   5.131   8.069  0.1881 -0.2783 -0.0965
    5MOL0     C  566  10.970   5.041   7.967 -0.6890 -0.5592  0.0232
    5MOL0     C  567  11.079   4.951   7.968  0.3882  0.5776  0.0533
    5MOL0     C  568  11.083   4.846   7.856 -0.5465  0.8469 -0.1424
    5MOL0     C  569  11.182   4.952   8.069 -0.4681 -1.3780  0.2974
    5MOL0     C  570  11.305   4.879   8.064 -0.6317  0.2468  0.0200
    5MOL0     O  571  11.383   4.869   8.176 -0.1123 -0.6478  0.8377
    5MOL0     C  572  11.454   4.750   8.199  0.3363  0.0605  0.3525
    5MOL0     C  573  11.408   4.673   8.306  0.3477  0.2133  0.5672
    5MOL0     C  574  11.474   4.550   8.337 -0.2201  0.4086 -0.1141
    5MOL0     C  575  11.593   4.517   8.273  0.4264  0.4650 -0.1362
    5MOL0     O  576  11.663   4.411   8.309  0.4148  0.1303 -0.4705
    5MOL0     C  577  11.688   4.397   8.447 -1.3543 -0.1513  0.1846
    5MOL0     C  578  11.807   4.300   8.471 -0.0186  0.1424 -0.3411
    5MOL0     C  579  11.788   4.165   8.392  0.0290 -0.1474  0.0233
    5MOL0     C  580  11.923   4.085   8.391 -0.0503  0.1442 -0.3758
    5MOL0     C  581  11.945   3.985   8.274  0.6524  0.0142  0.0771
    5MOL0     C  582  12.090   3.928   8.265 -0.4348 -0.1016 -0.0387
    5MOL0     C  583  12.121   3.827   8.149  0.0642  0.0698 -0.5581
    5MOL0     C  584  12.041   3.701   8.139 -0.2016  0.0282 -0.4632
    5MOL0    Cl  585  12.075   3.605   8.294  0.1508  0.1189 -0.4594
    5MOL0     C  586  11.647   4.596   8.168 -0.7285 -0.2609 -1.3347
    5MOL0     C  587  11.569   4.706   8.127 -0.8127 -0.2585 -0.5108
    5MOL0     O  588  11.331   4.816   7.963  0.5072 -0.3510  0.2915
    5MOL0     C  589  11.166   5.052   8.173  0.6479  0.1502  0.4223
    5MOL0     C  590  11.062   5.141   8.170  0.0278 -0.0821  0.3194
    5MOL0     N  591  10.381   5.623   8.014  0.0158 -0.7242 -0.3320
    5MOL0     N  592  10.342   5.684   7.904 -0.6283 -0.6243 -0.2909
    5MOL0     C  593  10.776   6.315   6.986 -0.1315 -1.3781 -0.7649
    5MOL0     C  594  10.703   6.424   6.931  0.3421 -0.6821 -0.4163
    5MOL0     C  595  10.490   6.818   6.853 -0.4707  0.1777  0.7394
    5MOL0     C  596  10.363   6.816   6.890  0.4174  0.1998  0.6542
    5MOL0     C  597  10.282   6.932   6.866  0.2387 -0.0254 -1.0322
    5MOL0     C  598  10.332   7.046   6.806 -0.4461 -0.8927  0.2997
    5MOL0     O  599  10.238   7.153   6.782  0.6024  0.2620 -0.4465
    5MOL0     C  600  10.261   7.215   6.652  0.3347  0.1018 -0.5799
    5MOL0     C  601  10.136   7.288   6.599  0.3251  0.7625  0.6743
    5MOL0     C  602  10.172   7.352   6.450  0.0625  0.2142  0.0451
    5MOL0     C  603  10.218   7.258   6.346 -0.1412 -0.9414 -0.0103
    5MOL0     C  604  10.128   7.145   6.333 -0.4040 -0.2914 -0.8626
    5MOL0     C  605  10.068   7.050   6.322 -1.3011 -0.2452  0.0885
    5MOL0     C  606  10.463   7.042   6.767  0.1786  0.4513 -0.1008
    5MOL0     C  607  10.543   6.935   6.798 -0.3047 -0.3056 -0.2556
    5MOL0     H  608  10.543   6.536   7.218 -0.2387  1.5026 -1.1991
    5MOL0     H  609  10.673   6.340   7.312 -0.5467 -1.2349 -1.7511
    5MOL0     H  610  10.995   6.196   7.304  1.1285 -1.6516  1.2480
    5MOL0     H  611  10.846   6.249   7.374  0.0060  0.4507 -1.2145
    5MOL0     H  612  10.891   5.967   7.314  1.5522  1.4842 -0.2469
    5MOL0     H  613  10.899   6.044   7.468 -0.1863 -1.5358  0.1878
    5MOL0     H  614  10.671   6.099   7.477  0.6965 -0.1148 -0.4129
    5MOL0     H  615  10.633   6.075   7.315 -0.0254 -2.7245 -1.2501
    5MOL0     H  616  10.666   5.829   7.326 -0.9060 -0.5884  0.3775
    5MOL0     H  617  10.700   5.838   7.496  2.8667 -1.8292 -1.6138
    5MOL0     H  618  10.476   5.968   7.483  1.1601 -0.6305  0.7416
    5MOL0     H  619  10.459   5.921   7.319 -0.5631  0.9621  0.9024
    5MOL0     H  620  10.333   5.772   7.457  0.1411  4.7916  1.8178
    5MOL0     H  621  10.474   5.679   7.401  3.2181  1.1869  0.9835
    5MOL0     H  622  10.568   5.666   7.598  0.6082  0.4893  2.7445
    5MOL0     H  623  10.482   5.810   7.664  0.5361 -1.5996  2.4913
    5MOL0     H  624  10.352   5.534   7.615 -1.4542  0.8466 -0.9677
    5MOL0     H  625  10.270   5.697   7.652  0.7348  2.5978 -0.7788
    5MOL0     H  626  10.460   5.397   7.785  3.3816  1.9322 -0.3575
    5MOL0     H  627  10.433   5.420   8.178 -4.2578 -1.9129 -1.0753
    5MOL0     H  628  10.407   5.299   8.055 -1.8633  0.4194  0.5678
    5MOL0     H  629  10.663   5.465   8.090 -3.6988  3.0170 -0.6928
    5MOL0     H  630  10.625   5.321   7.979 -1.8003  0.2387 -0.1494
    5MOL0     H  631  10.611   5.177   8.162  1.2839 -0.9686  0.6042
    5MOL0     H  632  10.606   5.308   8.275 -0.5332  5.7206 -0.8912
    5MOL0     H  633  10.816   5.187   8.267 -0.6582  1.8856  1.4372
    5MOL0     H  634  10.854   5.356   8.213 -0.2012 -0.4214 -1.4344
    5MOL0     H  635  10.891   5.036   7.893 -0.8822  2.3681 -0.0925
    5MOL0     H  636  11.119   4.750   7.892  1.4106  2.1153  1.4631
    5MOL0     H  637  10.979   4.826   7.826 -0.7859  0.7754  0.6950
    5MOL0     H  638  11.146   4.877   7.773 -2.6945  3.0403 -1.0851
    5MOL0     H  639  11.325   4.704   8.368 -1.5282 -1.4529 -1.0001
    5MOL0     H  640  11.432   4.488   8.416 -1.4384 -1.4556 -2.1342
    5MOL0     H  641  11.712   4.494   8.491 -2.6349  0.0076  0.5708
    5MOL0     H  642  11.608   4.349   8.503 -1.9396 -0.4864 -0.9051
    5MOL0     H  643  11.900   4.349   8.440 -0.8590  0.5434 -2.4440
    5MOL0     H  644  11.813   4.290   8.579  0.8076 -0.1795 -0.4101
    5MOL0     H  645  11.766   4.181   8.286  1.5899  0.0923 -0.2822
    5MOL0     H  646  11.700   4.116   8.436 -0.0004 -2.9531 -2.7834
    5MOL0     H  647  12.004   4.158   8.384  1.0944 -0.9632  0.7939
    5MOL0     H  648  11.944   4.027   8.482  1.3158 -2.6602 -2.3014
    5MOL0     H  649  11.917   4.038   8.182  1.3598  1.9896  0.9419
    5MOL0     H  650  11.879   3.903   8.302 -1.3683  1.5262  0.0107
    5MOL0     H  651  12.156   4.013   8.244 -0.5325  0.0310  0.1831
    5MOL0     H  652  12.124   3.896   8.363  0.7523 -0.2797 -0.4905
    5MOL0     H  653  12.223   3.788   8.148 -0.4365 -1.2937 -0.5561
    5MOL0     H  654  12.102   3.880   8.055  0.9043 -0.7689 -1.2142
    5MOL0     H  655  12.055   3.641   8.049  1.8129  0.6640 -0.6366
    5MOL0     H  656  11.939   3.741   8.139  0.3471  2.1310 -5.6005
    5MOL0     H  657  11.736   4.569   8.112  0.1356 -4.7126  1.6948
    5MOL0     H  658  11.600   4.769   8.044 -2.9370  0.6209 -0.6985
    5MOL0     H  659  11.243   5.067   8.248 -0.3454  0.3203  1.4298
    5MOL0     H  660  11.062   5.220   8.246 -2.6944 -2.1394  2.6726
    5MOL0     H  661  10.842   6.252   6.927  1.2365 -1.2240  0.5311
    5MOL0     H  662  10.719   6.447   6.827 -0.5754  1.3930 -0.1532
    5MOL0     H  663  10.330   6.724   6.938  0.5769  0.5194  1.3898
    5MOL0     H  664  10.179   6.938   6.899  1.1902  0.0416  2.3420
    5MOL0     H  665  10.341   7.287   6.670 -2.2162  2.9687  0.1998
    5MOL0     H  666  10.315   7.144   6.589  0.2321 -2.3818  1.9545
    5MOL0     H  667  10.114   7.369   6.670 -1.5383 -1.3294  2.6303
    5MOL0     H  668  10.053   7.218   6.600 -0.8814  1.8662 -3.4368
    5MOL0     H  669  10.243   7.435   6.456 -0.3930  0.5223  4.3950
    5MOL0     H  670  10.078   7.398   6.415 -1.9045 -3.5929 -0.1601
    5MOL0     H  671  10.321   7.224   6.362 -0.0734 -1.2533 -1.0768
    5MOL0     H  672  10.218   7.312   6.251  0.9746 -0.6480  0.1436
    5MOL0     H  673  10.006   6.963   6.314 -2.3829  0.6321 -1.5505
    5MOL0     H  674  10.504   7.122   6.707 -0.1976  0.5984 -0.1644
    5MOL0     H  675  10.645   6.936   6.761 -0.4302  3.7928 -0.9385
    6MOL0     O  676   6.393   0.789   0.594 -0.3113  0.7166 -0.1707
    6MOL0     C  677   6.388   0.761   0.719 -0.2517 -1.2357  0.1823
    6MOL0     O  678   6.353   0.842   0.815  0.1118  0.5077 -0.2023
    6MOL0     C  679   6.303   0.975   0.786  0.2613  0.1194 -0.6643
    6MOL0     C  680   6.358   1.068   0.707 -0.1249 -0.0245  0.6974
    6MOL0     C  681   6.309   1.202   0.702 -0.3630 -0.1587  0.3831
    6MOL0     C  682   6.196   1.236   0.783  0.2072 -0.3160  0.3203
    6MOL0     O  683   6.160   1.371   0.781 -0.5650 -0.7014 -0.4920
    6MOL0     C  684   6.073   1.406   0.884 -0.9909 -0.4293  0.3910
    6MOL0     C  685   6.051   1.560   0.864  0.1955  0.2248  0.5509
    6MOL0     C  686   5.991   1.636   0.980  0.3393 -0.4980 -0.5162
    6MOL0     C  687   5.971   1.790   0.949  0.7673 -0.3357  0.9016
    6MOL0     C  688   5.903   1.861   1.065  0.2363 -1.0107  0.3565
    6MOL0     C  689   5.757   1.844   1.073  0.8464  0.4936  0.4042
    6MOL0     C  690   5.702   1.930   1.196 -0.5917 -0.3007  0.2153
    6MOL0     C  691   5.546   1.928   1.192  0.1828  0.3198  0.2772
    6MOL0     N  692   5.500   1.994   1.321 -0.9902  1.2123  0.3844
    6MOL0     C  693   5.511   2.115   1.365  1.0098  1.0271 -0.0717
    6MOL0     C  694   5.443   2.119   1.489  0.3971  0.3753  0.2532
    6MOL0     C  695   5.415   2.242   1.573  0.2228 -0.6511  0.1450
    6MOL0     C  696   5.328   2.220   1.697 -0.0487  0.7228  0.7206
    6MOL0     C  697   5.349   2.348   1.776 -0.0995 -0.4625  0.6880
    6MOL0     C  698   5.255   2.347   1.895 -0.8568 -0.1014 -0.4338
    6MOL0     O  699   5.125   2.351   1.839 -0.3306 -0.8703  0.1647
    6MOL0     C  700   5.021   2.339   1.929  0.1380  0.5704  0.8251
    6MOL0     C  701   5.034   2.332   2.070  0.5384 -0.6870 -0.0159
    6MOL0     C  702   4.914   2.329   2.148  0.3833 -0.9092 -1.3399
    6MOL0     C  703   4.927   2.336   2.305 -0.3877 -0.8410  0.1354
    6MOL0     C  704   4.786   2.328   2.093 -0.0582  0.3980 -0.1452
    6MOL0     C  705   4.650   2.341   2.166 -0.3589  0.5876  0.1757
    6MOL0     O  706   4.541   2.287   2.101  0.1260  0.2612  0.2147
    6MOL0     C  707   4.424   2.274   2.173 -0.2157  0.3164 -0.3307
    6MOL0     C  708   4.305   2.340   2.148 -0.0837  0.3463 -0.0543
    6MOL0     C  709   4.193   2.319   2.236 -0.5944 -0.9063  0.2060
    6MOL0     C  710   4.209   2.256   2.352  0.6687 -0.7282 -0.6781
    6MOL0     O  711   4.099   2.258   2.442  0.4395  0.1026  0.4090
    6MOL0     C  712   4.021   2.135   2.433 -0.0379 -1.0495  0.3684
    6MOL0     C  713   3.890   2.148   2.513 -0.0799  0.0566  0.1532
    6MOL0     C  714   3.806   2.258   2.444 -1.1483  0.0204  0.1031
    6MOL0     C  715   3.666   2.242   2.497  0.3758  0.2565  0.5390
    6MOL0     C  716   3.565   2.330   2.432  0.0718 -0.5937 -0.1942
    6MOL0     C  717   3.428   2.276   2.455  0.5792 -0.5093 -0.6408
    6MOL0     C  718   3.327   2.392   2.430 -0.2511  0.2846 -0.6803
    6MOL0     C  719   3.313   2.497   2.545  0.5174 -0.7752  0.7070
    6MOL0    Cl  720   3.157   2.583   2.520  0.6428  0.2481 -0.2956
    6MOL0     C  721   4.319   2.184   2.373 -0.5889  0.3076  0.3899
    6MOL0     C  722   4.430   2.193   2.292  0.5310  0.6717 -0.2103
    6MOL0     O  723   4.647   2.408   2.268  0.6747 -0.3698 -0.3590
    6MOL0     C  724   4.782   2.320   1.955  0.4682  0.2732  0.0696
    6MOL0     C  725   4.897   2.332   1.874 -0.0275 -0.3500  0.5540
    6MOL0     N  726   5.393   1.993   1.509  0.3063 -0.3883  0.4055
    6MOL0     N  727   5.431   1.923   1.411  0.2905  0.9471 -0.2682
    6MOL0     C  728   6.138   1.141   0.861 -0.5993 -0.0534  0.1852
    6MOL0     C  729   6.193   1.016   0.868 -0.2100  0.9757 -0.1378
    6MOL0     C  730   6.445   0.635   0.753  0.3340  0.4045  0.5343
    6MOL0     C  731   6.447   0.592   0.887  0.4145 -0.2289  0.5738
    6MOL0     C  732   6.503   0.467   0.921 -0.0395  0.3261  0.7015
    6MOL0     C  733   6.569   0.384   0.826  0.0146  0.6140  0.1493
    6MOL0     O  734   6.644   0.268   0.856  0.9386  1.1844 -0.3700
    6MOL0     C  735   6.597   0.182   0.966  1.0552 -0.5153 -0.0340
    6MOL0     C  736   6.687   0.056   0.972 -0.1634  0.2644  0.1733
    6MOL0     C  737   6.679  -0.035   0.842 -0.1191 -0.5005  0.4393
    6MOL0     C  738   6.772  -0.156   0.820 -0.0674  1.1418 -0.3527
    6MOL0     C  739   6.892  -0.117   0.756 -0.1310  0.8172  0.2633
    6MOL0     C  740   6.981  -0.072   0.690  0.4128 -0.2240 -0.2366
    6MOL0     C  741   6.580   0.436   0.701 -0.7444  0.6106 -0.9179
    6MOL0     C  742   6.510   0.553   0.659  0.3411  0.7147 -0.3729
    6MOL0     H  743   6.436   1.047   0.634 -0.1850 -1.8584  1.1093
    6MOL0     H  744   6.365   1.272   0.642 -0.9265  1.6260  1.8375
    6MOL0     H  745   5.977   1.355   0.869 -1.0372  0.0246 -1.0407
    6MOL0     H  746   6.124   1.391   0.979  0.0611  2.4823  0.3885
    6MOL0     H  747   6.152   1.598   0.852  0.4748 -0.8197 -0.6899
    6MOL0     H  748   5.994   1.587   0.774  0.6827  0.2410  0.2423
    6MOL0     H  749   5.898   1.589   1.013  0.4308  0.4808  1.2955
    6MOL0     H  750   6.052   1.620   1.070  0.3111 -0.6515 -0.5240
    6MOL0     H  751   6.071   1.832   0.937  1.7230 -2.8668 -0.5957
    6MOL0     H  752   5.916   1.806   0.855  2.0126  0.1051  0.2274
    6MOL0     H  753   5.949   1.800   1.143  0.6354 -3.9562 -2.0346
    6MOL0     H  754   5.933   1.967   1.060  1.7772 -1.4510 -0.3220
    6MOL0     H  755   5.705   1.876   0.982 -2.4865  0.8590  2.2926
    6MOL0     H  756   5.736   1.739   1.093  0.2556  0.9609  2.4109
    6MOL0     H  757   5.726   1.880   1.290 -1.4304 -3.2022 -1.0174
    6MOL0     H  758   5.739   2.033   1.190  1.0043 -0.7904  1.1074
    6MOL0     H  759   5.510   1.826   1.208  2.2561 -0.3610  0.8646
    6MOL0     H  760   5.501   1.980   1.107 -0.3513  1.3997  1.1873
    6MOL0     H  761   5.563   2.190   1.307 -0.0769 -0.3007 -2.9336
    6MOL0     H  762   5.516   2.274   1.599  0.1232  0.1607 -0.4480
    6MOL0     H  763   5.369   2.323   1.516  0.9114  0.9481  1.7512
    6MOL0     H  764   5.346   2.136   1.765 -3.6745 -0.2581  0.6717
    6MOL0     H  765   5.226   2.221   1.659  0.5667  0.2463 -1.0763
    6MOL0     H  766   5.340   2.441   1.719 -0.5797 -0.0922  1.3515
    6MOL0     H  767   5.452   2.343   1.812 -0.0172  0.9133  0.6682
    6MOL0     H  768   5.282   2.433   1.956 -0.4568 -0.1975 -0.4707
    6MOL0     H  769   5.286   2.255   1.946  2.8372  1.2093 -0.0117
    6MOL0     H  770   5.130   2.335   2.119 -0.7815  0.2563  2.7500
    6MOL0     H  771   4.906   2.434   2.349  4.0464  0.0194  0.8327
    6MOL0     H  772   4.864   2.252   2.338 -1.3019  0.4746  1.8850
    6MOL0     H  773   5.032   2.313   2.323  0.3741  1.8134 -0.5899
    6MOL0     H  774   4.298   2.401   2.059 -1.4262  1.0634  0.4966
    6MOL0     H  775   4.099   2.367   2.211 -0.3432 -1.8200 -2.9121
    6MOL0     H  776   4.002   2.108   2.329  1.3127 -0.8755  0.0637
    6MOL0     H  777   4.075   2.056   2.485 -0.1237  0.9387  3.8494
    6MOL0     H  778   3.829   2.057   2.519 -1.1921  0.8662  2.7603
    6MOL0     H  779   3.916   2.174   2.616  0.6046 -1.6685  0.4452
    6MOL0     H  780   3.818   2.247   2.336 -0.9639  2.2330 -0.1320
    6MOL0     H  781   3.828   2.361   2.471 -3.3815  0.7878 -0.7905
    6MOL0     H  782   3.636   2.138   2.481  1.8688 -0.1110 -0.1406
    6MOL0     H  783   3.667   2.264   2.604 -0.6278 -0.5565  0.7307
    6MOL0     H  784   3.578   2.338   2.323  4.0850  1.3175  0.2396
    6MOL0     H  785   3.582   2.430   2.474  2.3693 -0.6138 -0.9440
    6MOL0     H  786   3.404   2.205   2.375  2.1687 -0.1142 -1.5240
    6MOL0     H  787   3.419   2.230   2.553  0.0247 -0.5653 -0.7174
    6MOL0     H  788   3.230   2.340   2.426  0.2944 -1.0786  2.1009
    6MOL0     H  789   3.360   2.431   2.333 -0.0054  1.3912 -0.1670
    6MOL0     H  790   3.399   2.566   2.542  0.6274 -0.8297  2.0804
    6MOL0     H  791   3.309   2.439   2.637  1.0118  0.0082  1.2353
    6MOL0     H  792   4.326   2.119   2.460 -0.3061 -1.8067 -1.1328
    6MOL0     H  793   4.517   2.138   2.324  0.8978  1.0506 -0.5434
    6MOL0     H  794   4.689   2.326   1.900  1.6890  1.1614 -2.0611
    6MOL0     H  795   4.880   2.327   1.767 -1.3876  1.7505  0.6064
    6MOL0     H  796   6.060   1.158   0.934  1.0160 -0.0204  1.9812
    6MOL0     H  797   6.161   0.942   0.940  0.8900 -1.6529 -2.1575
    6MOL0     H  798   6.400   0.648   0.966 -0.2250  2.2538 -1.4413
    6MOL0     H  799   6.510   0.441   1.026 -1.2620  2.1844  1.2833
    6MOL0     H  800   6.619   0.232   1.061  2.3412 -0.2311 -0.4594
    6MOL0     H  801   6.494   0.150   0.947  0.2593  1.7592  0.1825
    6MOL0     H  802   6.652   0.002   1.060  1.3689 -0.6250  0.2804
    6MOL0     H  803   6.790   0.083   0.999 -0.1707 -0.7525  1.3302
    6MOL0     H  804   6.670   0.023   0.750 -1.3283  1.3375  1.6557
    6MOL0     H  805   6.576  -0.072   0.853 -0.3285  0.2335  0.9870
    6MOL0     H  806   6.722  -0.235   0.763 -1.6073  1.8443 -0.0085
    6MOL0     H  807   6.797  -0.206   0.914 -1.4328 -0.4624 -0.7892
    6MOL0     H  808   7.071  -0.055   0.635  0.0820 -0.1300 -0.7591
    6MOL0     H  809   6.636   0.376   0.630 -0.3472 -2.7307  1.8965
    6MOL0     H  810   6.521   0.573   0.553  0.5463  0.9729 -0.3038
    7MOL0     O  811   0.405   0.944   5.946 -0.5794 -0.4106  0.3803
    7MOL0     C  812   0.510   1.004   5.960 -0.5375 -0.4548 -0.4194
    7MOL0     O  813   0.515   1.142   5.949 -0.2072 -0.6474 -0.9420
    7MOL0     C  814   0.407   1.211   5.921 -0.1244  1.5000  0.5597
    7MOL0     C  815   0.360   1.223   5.779  0.4698  0.6909 -0.2580
    7MOL0     C  816   0.250   1.302   5.750 -0.4434 -0.3267 -0.2619
    7MOL0     C  817   0.172   1.354   5.846  1.0828 -0.5920  0.1506
    7MOL0     O  818   0.049   1.412   5.809 -0.2935  0.3418 -0.1657
    7MOL0     C  819  -0.030   1.459   5.915  0.1671 -0.1824  0.3429
    7MOL0     C  820  -0.160   1.523   5.859 -0.1560 -0.4688  1.3285
    7MOL0     C  821  -0.252   1.419   5.790 -0.2551  0.5094 -0.9188
    7MOL0     C  822  -0.397   1.457   5.818  0.0826  0.4619 -0.1172
    7MOL0     C  823  -0.512   1.346   5.779 -0.4061  0.2076 -0.1618
    7MOL0     C  824  -0.640   1.424   5.791 -0.0230  0.7439 -0.0766
    7MOL0     C  825  -0.744   1.326   5.750  0.2401  0.5008 -0.2073
    7MOL0     C  826  -0.799   1.245   5.868  0.5393  0.4533 -0.3368
    7MOL0     N  827  -0.712   1.123   5.891 -0.3950  0.0938  0.4942
    7MOL0     C  828  -0.631   1.087   6.000 -0.2345 -0.0455 -0.7777
    7MOL0     C  829  -0.583   0.963   5.981 -0.8121 -0.5998 -0.3977
    7MOL0     C  830  -0.486   0.891   6.067  0.9131 -0.5124  0.3422
    7MOL0     C  831  -0.354   0.964   6.091 -0.1195 -0.4533  0.1089
    7MOL0     C  832  -0.293   0.999   5.951 -0.0594 -0.7428  1.1605
    7MOL0     C  833  -0.147   1.023   5.959 -0.3533 -0.5836  0.2588
    7MOL0     O  834  -0.108   1.109   6.065 -0.8195  0.1538  0.6176
    7MOL0     C  835  -0.024   1.057   6.155  1.2374  0.9364 -0.0278
    7MOL0     C  836  -0.073   1.040   6.290 -0.5055 -0.6119 -0.4610
    7MOL0     C  837   0.012   0.987   6.397  0.2973 -0.9408  0.1225
    7MOL0     C  838  -0.066   0.957   6.525 -0.3765  0.9791  0.0044
    7MOL0     C  839   0.138   0.942   6.353 -0.9285  0.2215  0.0858
    7MOL0     C  840   0.239   0.890   6.449  0.1617  0.1953 -0.8589
    7MOL0     O  841   0.377   0.884   6.417 -0.8898  0.0481  0.2917
    7MOL0     C  842   0.459   0.860   6.523  0.1118  0.8501  0.4948
    7MOL0     C  843   0.469   0.946   6.630  0.0616 -0.4418  0.1549
    7MOL0     C  844   0.573   0.927   6.722 -0.1322 -0.6536 -0.0959
    7MOL0     C  845   0.648   0.812   6.718 -0.1562  0.4185  0.3047
    7MOL0     O  846   0.756   0.806   6.803  1.0630  0.5355  0.6727
    7MOL0     C  847   0.763   0.687   6.874  0.6098  0.0807 -0.0997
    7MOL0     C  848   0.797   0.714   7.014 -0.9031 -0.3913 -0.8325
    7MOL0     C  849   0.938   0.790   7.031  0.8902 -0.0300  0.1760
    7MOL0     C  850   1.033   0.734   7.140  0.0430  0.4424  0.2222
    7MOL0     C  851   1.173   0.803   7.153  0.1783  1.3906  0.1602
    7MOL0     C  852   1.243   0.738   7.271  1.0144  0.2869 -0.0642
    7MOL0     C  853   1.388   0.709   7.262  0.2310 -0.1290 -0.7011
    7MOL0     C  854   1.476   0.829   7.287 -0.3621  0.1661 -0.2914
    7MOL0    Cl  855   1.466   0.896   7.455  0.2045 -0.0557 -0.3950
    7MOL0     C  856   0.633   0.712   6.613 -0.1661 -1.2796  1.1453
    7MOL0     C  857   0.534   0.741   6.513  1.0520  0.9090 -0.1654
    7MOL0     O  858   0.196   0.857   6.559 -0.7876 -1.1760  0.3184
    7MOL0     C  859   0.192   0.968   6.226  0.1441  0.2215 -0.6082
    7MOL0     C  860   0.113   1.031   6.128 -0.5201  0.6696 -0.6267
    7MOL0     N  861  -0.629   0.928   5.853 -0.3984 -0.0561 -0.5264
    7MOL0     N  862  -0.700   1.024   5.796  0.6292  0.3659 -0.2241
    7MOL0     C  863   0.223   1.353   5.981  1.5970  1.0868 -0.0950
    7MOL0     C  864   0.329   1.278   6.017 -0.0933  0.1901 -0.2521
    7MOL0     C  865   0.633   0.923   5.965  0.0931  0.8303 -0.1434
    7MOL0     C  866   0.629   0.780   5.957  0.2897  0.1571 -0.0965
    7MOL0     C  867   0.745   0.703   5.946 -0.3974  0.0475  0.2181
    7MOL0     C  868   0.872   0.774   5.948  0.7903 -0.5499 -0.2989
    7MOL0     O  869   0.981   0.688   5.965 -0.1700 -0.4246 -0.2684
    7MOL0     C  870   1.111   0.739   5.968 -0.0512 -0.1886 -0.2572
    7MOL0     C  871   1.218   0.632   5.939  1.2066  0.9626 -0.2928
    7MOL0     C  872   1.200   0.522   6.043 -0.2799  0.1450 -0.3934
    7MOL0     C  873   1.272   0.391   6.012 -0.2150  0.5037 -0.6545
    7MOL0     C  874   1.176   0.301   5.951 -0.3854  0.2468 -0.1320
    7MOL0     C  875   1.099   0.214   5.928 -0.7090 -0.0444 -0.5974
    7MOL0     C  876   0.880   0.912   5.956  0.0301  0.0620 -0.2084
    7MOL0     C  877   0.762   0.986   5.968  0.6907 -0.2628  0.4665
    7MOL0     H  878   0.416   1.169   5.704 -0.3368  0.4813 -0.7295
    7MOL0     H  879   0.209   1.299   5.649 -0.5783  0.0483 -0.2177
    7MOL0     H  880  -0.058   1.380   5.985 -0.3169  1.0177  1.5559
    7MOL0     H  881   0.018   1.536   5.976  1.0216 -1.4489  1.3303
    7MOL0     H  882  -0.205   1.585   5.936  1.1496 -0.7274  2.3274
    7MOL0     H  883  -0.131   1.597   5.784  1.6936 -0.6881  1.7817
    7MOL0     H  884  -0.226   1.404   5.685 -1.3561 -1.1697 -0.9949
    7MOL0     H  885  -0.250   1.328   5.852 -3.3141  0.9704  0.0324
    7MOL0     H  886  -0.416   1.472   5.924  0.5935  0.3752 -0.0092
    7MOL0     H  887  -0.430   1.545   5.763 -1.2896 -0.7783 -1.3604
    7MOL0     H  888  -0.481   1.315   5.680  0.9229 -3.0733  1.1519
    7MOL0     H  889  -0.498   1.268   5.855 -0.9387 -0.0996 -0.3722
    7MOL0     H  890  -0.648   1.477   5.887  4.0953  2.3996 -0.4762
    7MOL0     H  891  -0.644   1.494   5.707 -4.1566  0.1130 -0.6492
    7MOL0     H  892  -0.834   1.376   5.714 -0.8918  0.2456  2.0858
    7MOL0     H  893  -0.709   1.258   5.671  1.8563  1.3453 -0.2560
    7MOL0     H  894  -0.900   1.207   5.851 -0.8358  2.3724  2.5856
    7MOL0     H  895  -0.807   1.314   5.953  0.0749  0.5657 -0.4692
    7MOL0     H  896  -0.618   1.138   6.095  1.5619 -0.2500 -0.8918
    7MOL0     H  897  -0.534   0.882   6.165 -0.5427  0.7534 -0.2096
    7MOL0     H  898  -0.468   0.789   6.032  1.4475  0.0433 -1.0892
    7MOL0     H  899  -0.281   0.902   6.143  0.5092  0.6332  0.5715
    7MOL0     H  900  -0.373   1.052   6.154  0.5045 -1.4166  1.6859
    7MOL0     H  901  -0.334   1.092   5.910  0.0259 -1.3324 -0.3268
    7MOL0     H  902  -0.303   0.923   5.873  2.5646  0.2230 -0.2554
    7MOL0     H  903  -0.117   1.075   5.867 -1.5174  1.1176  0.7847
    7MOL0     H  904  -0.107   0.922   5.965 -0.2130 -0.5830 -0.4938
    7MOL0     H  905  -0.172   1.073   6.320  0.7738  0.9484  2.5940
    7MOL0     H  906  -0.171   0.982   6.511  0.0103  2.7373 -0.0385
    7MOL0     H  907  -0.058   0.851   6.553 -0.4206  0.6969 -1.0061
    7MOL0     H  908  -0.020   1.012   6.608  2.0170 -2.1764  0.9786
    7MOL0     H  909   0.419   1.041   6.639  1.5344  0.2078  2.1877
    7MOL0     H  910   0.589   1.003   6.797  2.6598 -0.4140 -0.8360
    7MOL0     H  911   0.664   0.640   6.872  0.4792  0.2411  1.4584
    7MOL0     H  912   0.836   0.619   6.830  0.0371 -1.9822  1.9732
    7MOL0     H  913   0.720   0.782   7.051  0.5774  1.4997 -1.0629
    7MOL0     H  914   0.787   0.620   7.070  2.6847 -0.4357 -0.0041
    7MOL0     H  915   0.920   0.896   7.049 -0.2020  0.3137 -2.5125
    7MOL0     H  916   0.988   0.799   6.934 -0.0840 -3.4987 -0.8184
    7MOL0     H  917   0.975   0.752   7.232 -2.3938  1.7870 -1.4528
    7MOL0     H  918   1.056   0.629   7.118  1.2995  0.6267  0.5882
    7MOL0     H  919   1.166   0.910   7.175  2.1570  1.1191  2.4492
    7MOL0     H  920   1.226   0.789   7.059 -2.3724  0.0464 -1.1847
    7MOL0     H  921   1.227   0.804   7.357 -0.7925 -2.5356  1.9552
    7MOL0     H  922   1.202   0.640   7.296  2.2208  0.1708  1.6577
    7MOL0     H  923   1.408   0.683   7.158  0.0609 -1.9230 -0.3193
    7MOL0     H  924   1.414   0.619   7.319 -0.7371  0.3694  0.5710
    7MOL0     H  925   1.471   0.910   7.215 -1.2759  1.4307  1.1483
    7MOL0     H  926   1.576   0.789   7.265 -0.8337 -0.3974 -1.4805
    7MOL0     H  927   0.696   0.624   6.601  0.0793 -0.9535 -0.0700
    7MOL0     H  928   0.513   0.676   6.428  0.7423 -1.8976  1.9365
    7MOL0     H  929   0.298   0.953   6.211  0.5252  1.7698  0.3447
    7MOL0     H  930   0.171   1.045   6.038 -0.1851  2.0384 -0.2312
    7MOL0     H  931   0.165   1.391   6.064 -1.1852 -0.5006 -1.1839
    7MOL0     H  932   0.361   1.273   6.120 -0.5736 -1.7927 -0.1588
    7MOL0     H  933   0.535   0.727   5.959  0.9192 -0.9943  2.4602
    7MOL0     H  934   0.735   0.595   5.948  0.0298  0.0003 -0.0020
    7MOL0     H  935   1.114   0.825   5.901 -1.3059 -0.9924 -1.4132
    7MOL0     H  936   1.135   0.789   6.062 -2.3158 -0.1661  0.3762
    7MOL0     H  937   1.318   0.675   5.943  1.3087  1.0521 -2.5749
    7MOL0     H  938   1.199   0.586   5.842  1.2764 -1.0815  0.5988
    7MOL0     H  939   1.094   0.498   6.055  0.1588 -2.3255 -1.0288
    7MOL0     H  940   1.224   0.581   6.132 -0.6783 -2.6129  1.6484
    7MOL0     H  941   1.318   0.356   6.105  4.8972  1.7544 -2.3694
    7MOL0     H  942   1.363   0.405   5.953 -0.3695  0.5077 -0.8918
    7MOL0     H  943   1.026   0.136   5.920  0.6288 -1.4505  0.2954
    7MOL0     H  944   0.978   0.959   5.952  0.2424 -0.2410  1.1561
    7MOL0     H  945   0.768   1.093   5.984 -3.0282  0.3472 -1.0554
    8MOL0     O  946   3.488  11.201   9.521 -0.5336  0.2223 -0.6572
    8MOL0     C  947   3.578  11.199   9.444  0.2229 -1.5655  0.4924
    8MOL0     O  948   3.697  11.131   9.449 -0.0803 -0.8377 -0.2229
    8MOL0     C  949   3.718  11.070   9.570  0.5727 -0.6799  0.3108
    8MOL0     C  950   3.651  10.948   9.609 -0.7107  1.1089  0.9425
    8MOL0     C  951   3.669  10.895   9.733 -0.1561  0.8269 -0.2536
    8MOL0     C  952   3.750  10.958   9.822 -0.3880 -0.2254 -0.1900
    8MOL0     O  953   3.777  10.920   9.953  0.4452 -0.1349  0.1183
    8MOL0     C  954   3.703  10.802   9.996  0.1580  0.1491 -1.1051
    8MOL0     C  955   3.755  10.779  10.143  0.0434 -0.3797 -0.5333
    8MOL0     C  956   3.712  10.639  10.186 -0.2320  0.5517 -0.0689
    8MOL0     C  957   3.700  10.632  10.335 -0.7766  0.0186 -1.4675
    8MOL0     C  958   3.628  10.505  10.370  0.2695  0.4080 -0.1166
    8MOL0     C  959   3.644  10.483  10.518  0.9046 -0.7996 -0.1871
    8MOL0     C  960   3.556  10.377  10.582  0.0159 -0.6457 -0.6092
    8MOL0     C  961   3.525  10.259  10.494  0.2848  0.2926  1.0861
    8MOL0     N  962   3.394  10.280  10.415 -0.2042  0.4927 -1.1930
    8MOL0     C  963   3.272  10.325  10.467 -0.4732  0.1254  0.7414
    8MOL0     C  964   3.198  10.345  10.360  0.6449  0.2545 -0.6032
    8MOL0     C  965   3.063  10.411  10.345 -0.4702 -0.8205  0.4433
    8MOL0     C  966   2.946  10.321  10.364 -0.8215 -0.2157  0.3717
    8MOL0     C  967   2.829  10.364  10.279  0.1628 -0.7175 -0.2999
    8MOL0     C  968   2.717  10.406  10.367  0.6946  0.1543 -1.0807
    8MOL0     O  969   2.594  10.399  10.294 -0.9060  0.6420  0.2650
    8MOL0     C  970   2.488  10.461  10.353  0.4878  0.0439  0.1433
    8MOL0     C  971   2.431  10.563  10.281  0.0221  0.1546  0.1695
    8MOL0     C  972   2.309  10.618  10.325  0.1607  0.0742  0.6151
    8MOL0     C  973   2.231  10.713  10.239 -0.9381  0.1364  0.5501
    8MOL0     C  974   2.255  10.569  10.452  0.2862  0.6688  1.3698
    8MOL0     C  975   2.119  10.613  10.498 -0.8890  0.3965 -0.7326
    8MOL0     O  976   2.108  10.630  10.639 -0.5248 -0.3992  0.8198
    8MOL0     C  977   1.988  10.677  10.682 -0.0919 -0.0272 -0.4549
    8MOL0     C  978   1.978  10.797  10.759  0.0970 -0.3088 -0.7540
    8MOL0     C  979   1.863  10.852  10.811  0.6418 -0.2546  0.4766
    8MOL0     C  980   1.743  10.777  10.796  0.6877  0.2380  0.2078
    8MOL0     O  981   1.623  10.831  10.841 -0.1820 -0.3278 -0.7985
    8MOL0     C  982   1.522  10.844  10.744  0.6325 -0.1818  0.2377
    8MOL0     C  983   1.401  10.788  10.816  0.1783 -0.4715 -0.0498
    8MOL0     C  984   1.395  10.635  10.803 -0.3190 -0.6144 -0.0807
    8MOL0     C  985   1.258  10.583  10.767 -0.1062 -0.3009 -0.9526
    8MOL0     C  986   1.163  10.587  10.891 -0.0344 -0.4829  0.1324
    8MOL0     C  987   1.029  10.514  10.844  0.7309 -0.3723 -0.1963
    8MOL0     C  988   0.921  10.514  10.962  0.0711 -0.1383  0.6669
    8MOL0     C  989   0.968  10.491  11.106  0.0968  0.5302  0.3535
    8MOL0    Cl  990   1.078  10.351  11.085  0.3395 -0.0561 -0.2609
    8MOL0     C  991   1.752  10.655  10.723 -0.3066  0.4562 -0.1569
    8MOL0     C  992   1.870  10.603  10.668 -0.4087 -1.2114 -1.1944
    8MOL0     O  993   2.020  10.619  10.421 -0.7645 -0.1326  0.4825
    8MOL0     C  994   2.317  10.463  10.519 -0.8139 -0.6619 -0.1723
    8MOL0     C  995   2.441  10.416  10.478  0.4520  0.6435 -1.2006
    8MOL0     N  996   3.270  10.313  10.249 -0.4546  0.3992  0.4645
    8MOL0     N  997   3.391  10.275  10.282  0.4930 -0.2319  0.2172
    8MOL0     C  998   3.818  11.077   9.788  0.4136 -0.2484  0.1404
    8MOL0     C  999   3.809  11.132   9.655  0.5026 -0.5486 -0.7713
    8MOL0     C 1000   3.567  11.298   9.330 -0.2991 -0.2172  0.4029
    8MOL0     C 1001   3.688  11.362   9.290 -0.5874 -0.1324  0.1903
    8MOL0     C 1002   3.683  11.471   9.193  0.4772 -0.8777 -0.2552
    8MOL0     C 1003   3.565  11.499   9.127 -0.4917 -0.2201 -0.6798
    8MOL0     O 1004   3.573  11.608   9.039  0.1411  0.0293  0.7327
    8MOL0     C 1005   3.474  11.622   8.943 -0.4964 -0.4005  0.1808
    8MOL0     C 1006   3.521  11.717   8.845  0.4541 -0.6385 -0.4103
    8MOL0     C 1007   3.417  11.756   8.736 -0.3758 -0.3461  0.4626
    8MOL0     C 1008   3.470  11.858   8.633 -0.5693  0.9486 -0.2241
    8MOL0     C 1009   3.378  11.858   8.524  0.7884  0.0890  0.6828
    8MOL0     C 1010   3.280  11.898   8.460 -0.4223  0.6950  0.0732
    8MOL0     C 1011   3.452  11.425   9.156 -0.6859 -0.0805 -0.8067
    8MOL0     C 1012   3.451  11.331   9.263 -0.3344 -0.1290  0.6104
    8MOL0     H 1013   3.590  10.907   9.529  0.6698 -1.6639  1.1867
    8MOL0     H 1014   3.627  10.801   9.766  0.2853  1.1552  1.3502
    8MOL0     H 1015   3.597  10.823   9.981  0.2200  0.7829 -0.7374
    8MOL0     H 1016   3.734  10.714   9.940 -0.3241 -0.7269 -0.0227
    8MOL0     H 1017   3.865  10.779  10.146  0.0848  2.1113  2.0486
    8MOL0     H 1018   3.716  10.854  10.211  0.9968 -0.7354  0.4442
    8MOL0     H 1019   3.613  10.616  10.144 -0.8425 -1.1191  2.0510
    8MOL0     H 1020   3.791  10.571  10.153 -0.0914  0.2106  0.9399
    8MOL0     H 1021   3.799  10.642  10.379 -0.6538  0.2659 -1.8005
    8MOL0     H 1022   3.646  10.721  10.370 -1.3469 -1.2495  1.1607
    8MOL0     H 1023   3.521  10.509  10.349  0.4178  3.0533 -0.8361
    8MOL0     H 1024   3.676  10.423  10.315 -0.0475 -0.8328  1.3923
    8MOL0     H 1025   3.747  10.460  10.549  0.6070  1.6018  3.0353
    8MOL0     H 1026   3.622  10.574  10.574  4.0411 -1.1274  1.8213
    8MOL0     H 1027   3.612  10.339  10.668 -3.7107 -1.2862  1.7640
    8MOL0     H 1028   3.466  10.410  10.634  1.0319 -2.3634  2.4828
    8MOL0     H 1029   3.512  10.166  10.551  1.3908 -0.5244  0.0569
    8MOL0     H 1030   3.608  10.238  10.425  0.9223  1.9440  1.3241
    8MOL0     H 1031   3.250  10.336  10.572 -1.0219  0.6406  0.5796
    8MOL0     H 1032   3.060  10.500  10.409 -0.9895  0.7559 -1.6813
    8MOL0     H 1033   3.057  10.437  10.239 -2.4495 -1.8471  0.2397
    8MOL0     H 1034   2.911  10.328  10.468 -0.2500  2.1761  0.4628
    8MOL0     H 1035   2.967  10.219  10.333  0.5906 -0.0784  0.8247
    8MOL0     H 1036   2.780  10.282  10.225 -3.1260  0.9169 -0.0756
    8MOL0     H 1037   2.852  10.446  10.211  0.2184 -0.7465 -0.3159
    8MOL0     H 1038   2.724  10.511  10.398  1.1991 -0.4834  1.1202
    8MOL0     H 1039   2.701  10.347  10.457 -1.2523  2.0310 -0.0786
    8MOL0     H 1040   2.469  10.589  10.183  1.2485  2.9878  1.2815
    8MOL0     H 1041   2.300  10.792  10.207 -1.7862  0.8681  0.5050
    8MOL0     H 1042   2.181  10.670  10.151  0.9258  2.1410 -1.6276
    8MOL0     H 1043   2.150  10.772  10.283 -1.8720  1.5613 -2.7961
    8MOL0     H 1044   2.070  10.848  10.785 -1.9224  2.4498  1.7292
    8MOL0     H 1045   1.865  10.949  10.860 -0.1097  1.6273 -2.8884
    8MOL0     H 1046   1.500  10.951  10.738 -0.1847 -0.2437  1.6835
    8MOL0     H 1047   1.537  10.798  10.646 -0.5113  0.1925 -0.1218
    8MOL0     H 1048   1.401  10.827  10.918  1.5850  1.8374 -0.8630
    8MOL0     H 1049   1.307  10.822  10.770  0.1684 -1.1302 -0.5391
    8MOL0     H 1050   1.412  10.591  10.901  1.5969  0.4699  0.1229
    8MOL0     H 1051   1.466  10.592  10.732  1.3159 -1.6806  2.1257
    8MOL0     H 1052   1.216  10.635  10.681 -2.0358 -0.1209  0.0546
    8MOL0     H 1053   1.269  10.476  10.744  1.1238 -0.8046  1.6439
    8MOL0     H 1054   1.133  10.689  10.918 -2.4068 -1.3679  1.1086
    8MOL0     H 1055   1.205  10.543  10.982 -0.8272  0.9060  1.2237
    8MOL0     H 1056   0.971  10.558  10.763 -0.5230 -0.7064  0.4938
    8MOL0     H 1057   1.050  10.410  10.818  1.8352 -0.2071 -0.0242
    8MOL0     H 1058   0.842  10.443  10.936  2.2926 -2.2153 -0.8910
    8MOL0     H 1059   0.870  10.611  10.970  1.8552  0.8280  0.8566
    8MOL0     H 1060   0.890  10.460  11.176 -0.7254  0.8430 -0.4070
    8MOL0     H 1061   1.019  10.575  11.153 -0.5122  2.2710 -1.9053
    8MOL0     H 1062   1.660  10.597  10.730  0.5032 -0.7734  0.7974
    8MOL0     H 1063   1.868  10.505  10.620  1.4531 -0.8976 -2.0095
    8MOL0     H 1064   2.272  10.429  10.612  0.0209  0.3901  0.6490
    8MOL0     H 1065   2.484  10.340  10.542  0.1192  0.9130 -0.6533
    8MOL0     H 1066   3.873  11.125   9.868  1.4969 -1.9959  0.5083
    8MOL0     H 1067   3.857  11.226   9.627 -1.3973  0.0941 -2.0364
    8MOL0     H 1068   3.778  11.327   9.340 -1.3279 -1.6315  0.5144
    8MOL0     H 1069   3.772  11.531   9.181  0.5356 -1.0982 -0.9790
    8MOL0     H 1070   3.448  11.529   8.891  0.0140 -1.0081  0.9810
    8MOL0     H 1071   3.382  11.659   8.991  0.9481  0.1086  2.7290
    8MOL0     H 1072   3.610  11.677   8.796 -1.9819 -2.0429 -4.0793
    8MOL0     H 1073   3.564  11.805   8.895 -0.0758 -1.5349  1.7733
    8MOL0     H 1074   3.333  11.793   8.796  1.2964 -1.0212  3.4105
    8MOL0     H 1075   3.370  11.667   8.692 -0.0928 -0.2429 -0.0630
    8MOL0     H 1076   3.571  11.826   8.607 -0.1925  0.7734  1.3144
    8MOL0     H 1077   3.474  11.958   8.677 -3.2938  1.0678 -0.0650
    8MOL0     H 1078   3.188  11.920   8.409  0.1957  1.5995 -0.7002
    8MOL0     H 1079   3.363  11.433   9.094 -0.9402 -0.4622 -0.4982
    8MOL0     H 1080   3.360  11.276   9.284 -0.5701  0.0229 -0.0191
    9MOL0     O 1081   5.195   7.867   7.202  0.0207 -1.4334  0.7703
    9MOL0     C 1082   5.282   7.954   7.195  0.3992 -0.4464 -0.2092
    9MOL0     O 1083   5.414   7.935   7.162  0.0652 -0.0640  0.2106
    9MOL0     C 1084   5.473   7.811   7.161 -0.8345 -0.7025 -0.2329
    9MOL0     C 1085   5.604   7.815   7.098  0.4671 -0.7196 -0.0462
    9MOL0     C 1086   5.682   7.697   7.090  0.0604  0.2142  0.2838
    9MOL0     C 1087   5.628   7.571   7.136  0.1588 -0.2007  0.9888
    9MOL0     O 1088   5.689   7.447   7.125 -0.6252 -0.1949  0.6358
    9MOL0     C 1089   5.832   7.448   7.136  0.0561 -0.7323 -0.1256
    9MOL0     C 1090   5.884   7.316   7.086  0.1255 -0.0900 -0.1466
    9MOL0     C 1091   6.039   7.288   7.086  0.0224  0.3974  0.7111
    9MOL0     C 1092   6.072   7.160   6.999  0.1682 -0.2135 -0.9143
    9MOL0     C 1093   6.222   7.145   6.988  0.2483  0.2696 -0.4209
    9MOL0     C 1094   6.250   7.017   6.912 -0.2335 -0.4764 -0.9553
    9MOL0     C 1095   6.394   6.988   6.903 -0.3452 -0.3242  0.8830
    9MOL0     C 1096   6.461   7.065   6.794 -0.2531  0.0122 -0.6930
    9MOL0     N 1097   6.599   7.110   6.835  0.5144 -0.7348 -0.3762
    9MOL0     C 1098   6.712   7.083   6.773  0.0321  0.4545 -0.3674
    9MOL0     C 1099   6.805   7.157   6.828 -0.6952  0.1681 -1.1169
    9MOL0     C 1100   6.950   7.167   6.783  0.0197 -0.5527  0.1023
    9MOL0     C 1101   7.022   7.033   6.823 -0.2173 -0.0207  0.1887
    9MOL0     C 1102   7.164   7.030   6.757 -0.5618  0.3936  0.3916
    9MOL0     C 1103   7.249   6.908   6.794  0.0797 -0.7243  1.2480
    9MOL0     O 1104   7.361   6.918   6.706  0.0826  0.2283 -0.3532
    9MOL0     C 1105   7.453   6.815   6.707 -0.3811  0.1554 -0.6721
    9MOL0     C 1106   7.553   6.820   6.609 -0.8766 -0.4853 -0.5249
    9MOL0     C 1107   7.654   6.722   6.592  0.6552  0.4074 -0.5708
    9MOL0     C 1108   7.753   6.751   6.488 -0.9202 -0.9421 -0.8931
    9MOL0     C 1109   7.657   6.610   6.679  0.4534 -0.7359  0.3532
    9MOL0     C 1110   7.763   6.504   6.684  0.5720 -0.0831 -0.5886
    9MOL0     O 1111   7.868   6.510   6.605  0.1009  0.7654  0.3412
    9MOL0     C 1112   7.943   6.392   6.600 -0.0890 -0.6432  0.7988
    9MOL0     C 1113   8.026   6.355   6.703  0.7258 -0.6028 -0.4452
    9MOL0     C 1114   8.117   6.250   6.690  0.3374  0.7258  0.1156
    9MOL0     C 1115   8.124   6.176   6.568 -0.1351  0.7331  0.3137
    9MOL0     O 1116   8.203   6.058   6.546 -0.8409  0.6682  0.2162
    9MOL0     C 1117   8.229   5.974   6.656  0.1473  0.8083 -0.4248
    9MOL0     C 1118   8.276   5.836   6.618 -0.0189 -0.6583  1.1971
    9MOL0     C 1119   8.414   5.837   6.551 -0.3403 -0.3818  0.8386
    9MOL0     C 1120   8.490   5.707   6.594  0.6023 -0.1765  0.1357
    9MOL0     C 1121   8.634   5.719   6.570 -0.0511  0.1953  0.0502
    9MOL0     C 1122   8.701   5.586   6.607  0.0641 -0.3476  0.0610
    9MOL0     C 1123   8.844   5.557   6.559  0.8743  0.5910  0.5354
    9MOL0     C 1124   8.934   5.654   6.623  0.8712 -0.5703  0.4245
    9MOL0    Cl 1125   9.099   5.580   6.637  0.2396 -0.0770  0.3772
    9MOL0     C 1126   8.048   6.226   6.463  0.2650  0.0090 -0.4709
    9MOL0     C 1127   7.960   6.326   6.480  0.4585 -0.1938 -0.4123
    9MOL0     O 1128   7.752   6.423   6.771  0.1980  0.2483  0.0099
    9MOL0     C 1129   7.547   6.598   6.781  0.0228 -0.4602  0.2509
    9MOL0     C 1130   7.456   6.700   6.787  0.0438  0.3238 -0.6802
    9MOL0     N 1131   6.751   7.242   6.927 -0.0633 -0.2943  0.7229
    9MOL0     N 1132   6.626   7.217   6.922  0.9011 -0.1338  0.0322
    9MOL0     C 1133   5.510   7.579   7.203  0.3244  0.2062  0.4356
    9MOL0     C 1134   5.426   7.697   7.213 -1.5527 -1.1655  0.3655
    9MOL0     C 1135   5.245   8.095   7.227 -0.0305 -0.4303  0.3853
    9MOL0     C 1136   5.338   8.196   7.216 -0.1123 -0.0919 -0.4910
    9MOL0     C 1137   5.295   8.323   7.238  0.0261  0.3590 -0.0881
    9MOL0     C 1138   5.163   8.353   7.259 -0.8192  0.0148 -0.0315
    9MOL0     O 1139   5.111   8.482   7.288 -0.6452 -0.3048  0.2689
    9MOL0     C 1140   5.196   8.594   7.260  0.6397  0.5482 -0.3803
    9MOL0     C 1141   5.106   8.723   7.264 -1.2760  0.7674 -0.6206
    9MOL0     C 1142   4.972   8.710   7.188  0.4069  1.0712  0.5242
    9MOL0     C 1143   4.904   8.850   7.170  0.6473  0.1645  0.2223
    9MOL0     C 1144   4.841   8.901   7.293  0.1185  0.5967 -0.4571
    9MOL0     C 1145   4.804   8.963   7.396 -0.2546  0.6579  0.6262
    9MOL0     C 1146   5.072   8.253   7.254 -0.2594  0.6634  0.0743
    9MOL0     C 1147   5.115   8.126   7.254 -0.5462 -0.0163  0.3662
    9MOL0     H 1148   5.634   7.905   7.044 -1.8599  1.2618  1.7635
    9MOL0     H 1149   5.778   7.707   7.042  0.7743 -4.5386  0.2030
    9MOL0     H 1150   5.872   7.516   7.060 -0.3223 -2.0258 -1.5438
    9MOL0     H 1151   5.865   7.455   7.240 -3.3790 -1.9953  1.1852
    9MOL0     H 1152   5.835   7.239   7.147 -0.9169 -0.7123 -1.7089
    9MOL0     H 1153   5.835   7.301   6.990 -2.7367 -1.7464  1.4269
    9MOL0     H 1154   6.086   7.369   7.030 -1.6644  1.9614  1.4472
    9MOL0     H 1155   6.087   7.281   7.184 -0.2831 -4.0372  0.7691
    9MOL0     H 1156   6.026   7.065   7.027  2.1100 -0.9942 -0.2025
    9MOL0     H 1157   6.024   7.183   6.903 -2.4349 -2.1030 -0.1907
    9MOL0     H 1158   6.265   7.226   6.928 -1.7325  0.6724 -1.3798
    9MOL0     H 1159   6.274   7.147   7.084  1.3143  3.0795 -0.9679
    9MOL0     H 1160   6.214   6.934   6.973 -0.2702  0.4389  0.3233
    9MOL0     H 1161   6.194   7.007   6.818 -2.9783  0.5308  0.4531
    9MOL0     H 1162   6.445   7.009   6.998 -1.3477  1.5595  1.0628
    9MOL0     H 1163   6.408   6.880   6.899  2.2875  0.0253 -1.5622
    9MOL0     H 1164   6.400   7.153   6.772 -1.8523 -1.2645 -1.5841
    9MOL0     H 1165   6.474   7.014   6.698  0.5912 -2.1504  0.4941
    9MOL0     H 1166   6.715   7.002   6.701 -2.0261  0.3834 -0.4574
    9MOL0     H 1167   6.950   7.187   6.675  1.2661  1.3759  0.4188
    9MOL0     H 1168   7.006   7.252   6.823 -2.0671  0.2475  1.4296
    9MOL0     H 1169   6.965   6.941   6.811  0.4718 -0.4561  0.2044
    9MOL0     H 1170   7.039   7.049   6.930  1.0141  0.6148 -0.0800
    9MOL0     H 1171   7.218   7.122   6.782  0.1464 -0.7641  3.4870
    9MOL0     H 1172   7.161   7.017   6.648  0.4331 -1.0171  0.5173
    9MOL0     H 1173   7.188   6.819   6.772  0.6076 -0.8594  0.2598
    9MOL0     H 1174   7.278   6.900   6.899 -0.6886 -0.9694  1.4515
    9MOL0     H 1175   7.546   6.912   6.553 -0.0900 -0.8054 -1.1726
    9MOL0     H 1176   7.851   6.775   6.532 -0.2026  0.5066 -3.1259
    9MOL0     H 1177   7.773   6.668   6.419 -0.2932 -1.8946  0.3831
    9MOL0     H 1178   7.725   6.840   6.432  0.6947  0.2723  0.1341
    9MOL0     H 1179   8.015   6.413   6.795  2.1955 -2.7697  1.2101
    9MOL0     H 1180   8.178   6.215   6.773  2.5563  1.1244 -1.2980
    9MOL0     H 1181   8.305   6.026   6.715  4.0007  0.1998 -4.3025
    9MOL0     H 1182   8.138   5.954   6.714  0.0698 -0.5633 -0.9780
    9MOL0     H 1183   8.285   5.782   6.713  0.8575  0.5420  1.8129
    9MOL0     H 1184   8.197   5.792   6.556  0.9360  0.0422 -0.5973
    9MOL0     H 1185   8.482   5.919   6.577 -0.5305  0.0012  0.1583
    9MOL0     H 1186   8.394   5.855   6.445  1.4845  1.4514  0.7356
    9MOL0     H 1187   8.473   5.685   6.700  1.4169  2.4038  0.8760
    9MOL0     H 1188   8.445   5.622   6.542 -1.0801 -0.0668  1.3230
    9MOL0     H 1189   8.661   5.800   6.637 -2.4257 -1.5430  3.4171
    9MOL0     H 1190   8.665   5.751   6.470  3.0522  2.2763  1.5302
    9MOL0     H 1191   8.698   5.565   6.714  0.3262  0.0646  0.1505
    9MOL0     H 1192   8.642   5.509   6.556  1.2665 -2.2406  1.3869
    9MOL0     H 1193   8.854   5.544   6.450  2.0644  1.1495  0.5582
    9MOL0     H 1194   8.866   5.455   6.593  1.3399  0.9693  1.4066
    9MOL0     H 1195   8.889   5.679   6.720 -1.1445 -1.3622 -0.2656
    9MOL0     H 1196   8.935   5.745   6.563 -0.7100 -1.0752 -0.4070
    9MOL0     H 1197   8.060   6.169   6.371 -1.1699 -0.3684 -0.4539
    9MOL0     H 1198   7.907   6.338   6.386  0.5983 -4.4698 -1.2472
    9MOL0     H 1199   7.535   6.513   6.847 -0.5150  1.1148  2.2790
    9MOL0     H 1200   7.394   6.683   6.874 -3.3350 -2.9222 -3.4046
    9MOL0     H 1201   5.464   7.490   7.245 -1.1218 -0.1688 -1.7638
    9MOL0     H 1202   5.340   7.705   7.278 -1.8798  0.6818 -0.2239
    9MOL0     H 1203   5.441   8.173   7.192  0.4903  0.7821  1.0935
    9MOL0     H 1204   5.367   8.403   7.232 -1.8714  2.0527 -5.0859
    9MOL0     H 1205   5.276   8.595   7.334  0.0537  0.9427  0.2581
    9MOL0     H 1206   5.247   8.587   7.163  1.6321  1.4151  0.0619
    9MOL0     H 1207   5.174   8.801   7.227 -1.4116  0.6730 -1.0831
    9MOL0     H 1208   5.090   8.745   7.370  0.8242  2.4231 -0.5872
    9MOL0     H 1209   4.911   8.629   7.228 -0.4560  0.7755 -1.2677
    9MOL0     H 1210   5.005   8.668   7.092 -1.1131  1.7746 -0.3411
    9MOL0     H 1211   4.829   8.843   7.091 -1.7660  5.3644  1.6097
    9MOL0     H 1212   4.978   8.925   7.142  0.7755  1.8605  4.3947
    9MOL0     H 1213   4.784   9.014   7.488  1.6266  0.7333  1.0430
    9MOL0     H 1214   4.969   8.286   7.268 -0.7285 -1.2799  1.6428
    9MOL0     H 1215   5.045   8.043   7.259 -1.8651  0.7564 -2.7113
   10MOL0     O 1216   0.798   0.581  10.698 -0.7535 -1.1100 -0.5796
   10MOL0     C 1217   0.765   0.482  10.757 -0.0979 -0.6646  0.1731
   10MOL0     O 1218   0.836   0.417  10.859  0.3472  0.5839  0.2158
   10MOL0     C 1219   0.972   0.434  10.864  0.6837  0.0067  0.7913
   10MOL0     C 1220   1.035   0.434  10.989 -0.6701  0.8166  0.2949
   10MOL0     C 1221   1.170   0.439  11.001 -0.0685  0.4870  0.2161
   10MOL0     C 1222   1.253   0.449  10.889 -0.0545  0.0711  0.7751
   10MOL0     O 1223   1.387   0.436  10.892  0.2289 -0.7193 -0.0097
   10MOL0     C 1224   1.449   0.540  10.969  0.0401 -0.1884  0.1660
   10MOL0     C 1225   1.557   0.478  11.059  0.3804 -0.1218  0.1725
   10MOL0     C 1226   1.492   0.364  11.149  0.7578 -0.3689  0.1858
   10MOL0     C 1227   1.601   0.308  11.240  0.2150  0.0772 -1.1804
   10MOL0     C 1228   1.547   0.258  11.371 -0.2367 -0.0501 -0.8827
   10MOL0     C 1229   1.459   0.130  11.353 -0.5414 -0.6745  0.3610
   10MOL0     C 1230   1.423   0.086  11.499  0.7191 -0.0859  0.7192
   10MOL0     C 1231   1.319  -0.029  11.466  0.5970  0.8993 -0.2626
   10MOL0     N 1232   1.258  -0.057  11.599 -0.7096  0.3455  0.1080
   10MOL0     C 1233   1.142  -0.027  11.657 -0.3423  0.6762 -0.5877
   10MOL0     C 1234   1.156  -0.064  11.787  0.4347 -0.0194 -0.1957
   10MOL0     C 1235   1.049  -0.049  11.893 -0.3577 -1.7495 -0.4913
   10MOL0     C 1236   1.000  -0.176  11.955  0.5765  0.0120 -0.3065
   10MOL0     C 1237   0.919  -0.261  11.851  0.3255  0.1079 -0.5586
   10MOL0     C 1238   0.876  -0.378  11.922 -0.0982  0.6968  0.5863
   10MOL0     O 1239   0.797  -0.450  11.823 -0.5640 -0.0526 -0.4162
   10MOL0     C 1240   0.673  -0.469  11.866 -0.0323 -0.1691 -0.0890
   10MOL0     C 1241   0.624  -0.580  11.920  1.3975  0.3293  0.8029
   10MOL0     C 1242   0.494  -0.595  11.946  0.1993 -0.5095  0.0260
   10MOL0     C 1243   0.456  -0.725  12.016  0.3238 -0.2248 -0.8211
   10MOL0     C 1244   0.403  -0.484  11.934 -0.2471  0.2603 -0.1384
   10MOL0     C 1245   0.255  -0.492  11.963 -0.2404 -0.3129  0.1900
   10MOL0     O 1246   0.186  -0.369  11.948 -0.1176 -0.3298  0.1036
   10MOL0     C 1247   0.058  -0.372  11.899  0.3679  0.5416  0.1128
   10MOL0     C 1248   0.021  -0.270  11.812  0.9244 -0.7540 -0.8649
   10MOL0     C 1249  -0.114  -0.240  11.778 -0.0950 -0.5879  0.5884
   10MOL0     C 1250  -0.217  -0.322  11.831 -0.6785 -0.6448  0.4485
   10MOL0     O 1251  -0.345  -0.284  11.813 -0.0608  0.3901 -0.6087
   10MOL0     C 1252  -0.434  -0.390  11.765  0.3579  0.8808 -0.0242
   10MOL0     C 1253  -0.559  -0.337  11.707  0.4204 -0.3140  0.1209
   10MOL0     C 1254  -0.657  -0.453  11.665  0.4346  0.6623 -0.3269
   10MOL0     C 1255  -0.646  -0.474  11.510 -0.5474 -0.3947 -0.5610
   10MOL0     C 1256  -0.744  -0.567  11.444  0.9917  0.4881 -0.1877
   10MOL0     C 1257  -0.718  -0.597  11.292 -0.3604 -0.6890 -0.9430
   10MOL0     C 1258  -0.687  -0.468  11.224 -0.7124 -1.0956 -0.8289
   10MOL0     C 1259  -0.709  -0.500  11.073 -0.0834  0.0839 -0.1150
   10MOL0    Cl 1260  -0.695  -0.358  10.970 -0.0584 -0.4102 -0.2039
   10MOL0     C 1261  -0.187  -0.417  11.922 -0.0239  0.7131 -0.0258
   10MOL0     C 1262  -0.061  -0.439  11.964 -0.6510  0.3370 -0.1298
   10MOL0     O 1263   0.202  -0.601  11.985  0.5975 -0.6608 -0.1934
   10MOL0     C 1264   0.453  -0.363  11.877  0.2997  0.5734 -0.0294
   10MOL0     C 1265   0.589  -0.363  11.839  0.3898  0.6756  0.9715
   10MOL0     N 1266   1.276  -0.132  11.802 -1.0491 -0.0252 -0.3562
   10MOL0     N 1267   1.336  -0.120  11.694 -0.1729 -0.5088  0.2781
   10MOL0     C 1268   1.197   0.446  10.768 -0.3329 -0.4479  0.3805
   10MOL0     C 1269   1.058   0.442  10.751 -0.1434  0.4453 -0.6584
   10MOL0     C 1270   0.631   0.434  10.716 -0.5992 -0.1035  0.3808
   10MOL0     C 1271   0.583   0.328  10.801  0.3583  0.3144 -0.2817
   10MOL0     C 1272   0.459   0.276  10.778 -0.1328  0.3338 -0.1607
   10MOL0     C 1273   0.370   0.315  10.668  0.0987 -0.1985 -1.1902
   10MOL0     O 1274   0.242   0.260  10.654  0.0617 -0.2112 -0.2017
   10MOL0     C 1275   0.140   0.302  10.564  0.0684  0.7354 -0.0763
   10MOL0     C 1276   0.140   0.211  10.448 -0.1089  0.0067  0.9578
   10MOL0     C 1277   0.108   0.293  10.322 -0.2985 -0.1850  0.0151
   10MOL0     C 1278   0.222   0.397  10.291  0.0302 -0.1135 -0.5427
   10MOL0     C 1279   0.227   0.444  10.156  1.3907 -0.0212 -0.0616
   10MOL0     C 1280   0.205   0.491  10.040  0.0271 -0.2163  0.1738
   10MOL0     C 1281   0.424   0.420  10.598 -0.2194  0.0983  0.1016
   10MOL0     C 1282   0.551   0.478  10.615 -0.0127 -0.2011 -0.0845
   10MOL0     H 1283   0.984   0.415  11.082 -0.6332 -0.7806  0.0085
   10MOL0     H 1284   1.209   0.437  11.102  0.5514  3.0437  0.0804
   10MOL0     H 1285   1.482   0.621  10.903 -1.3435 -0.2341 -0.6100
   10MOL0     H 1286   1.374   0.589  11.032 -2.4485 -0.5399 -2.3823
   10MOL0     H 1287   1.630   0.441  10.986 -1.6055 -1.0413 -1.4623
   10MOL0     H 1288   1.597   0.555  11.125 -3.6399  4.8490 -2.4651
   10MOL0     H 1289   1.402   0.398  11.199  1.6397 -0.9963  2.2979
   10MOL0     H 1290   1.451   0.283  11.087  1.1839  0.2691 -0.9721
   10MOL0     H 1291   1.666   0.232  11.195 -0.0124 -0.4225 -0.6862
   10MOL0     H 1292   1.675   0.384  11.265  0.1276 -0.3931  0.6603
   10MOL0     H 1293   1.640   0.240  11.426 -1.6817 -2.5540  0.9244
   10MOL0     H 1294   1.499   0.338  11.428 -0.4959 -0.5379 -0.4098
   10MOL0     H 1295   1.371   0.148  11.292 -0.2823  0.9728  0.4361
   10MOL0     H 1296   1.522   0.064  11.292 -1.1914 -0.6606 -0.3402
   10MOL0     H 1297   1.507   0.050  11.559 -0.2393  1.5211  3.1832
   10MOL0     H 1298   1.380   0.169  11.556  3.2846  1.0352  1.1711
   10MOL0     H 1299   1.360  -0.119  11.419 -1.3190  0.0541 -0.3888
   10MOL0     H 1300   1.250   0.015  11.393  3.6941  2.9754 -2.1945
   10MOL0     H 1301   1.046   0.010  11.622 -0.8138 -0.7844 -0.9467
   10MOL0     H 1302   1.092   0.013  11.972 -2.2927  2.3582 -2.3786
   10MOL0     H 1303   0.981   0.018  11.841  0.8592 -3.0677 -4.1169
   10MOL0     H 1304   0.930  -0.156  12.037  0.3331 -1.8395 -0.0255
   10MOL0     H 1305   1.085  -0.236  11.987  1.5492 -0.1450 -2.9282
   10MOL0     H 1306   0.988  -0.268  11.767 -0.4913  2.1528 -1.4880
   10MOL0     H 1307   0.831  -0.209  11.811 -1.1698 -1.2886  0.7578
   10MOL0     H 1308   0.826  -0.358  12.017  1.5218  0.1922  1.5860
   10MOL0     H 1309   0.962  -0.440  11.950 -0.7118  0.6630  2.5751
   10MOL0     H 1310   0.692  -0.657  11.955 -0.4663 -1.9656 -0.2741
   10MOL0     H 1311   0.384  -0.719  12.099 -1.6977 -2.4189 -2.2759
   10MOL0     H 1312   0.397  -0.793  11.953 -0.5190 -0.4981  0.2113
   10MOL0     H 1313   0.549  -0.770  12.052 -0.1004 -0.8340 -0.4533
   10MOL0     H 1314   0.102  -0.213  11.767  1.2845  0.8828  1.6950
   10MOL0     H 1315  -0.135  -0.173  11.695  0.9712 -2.0792 -0.9823
   10MOL0     H 1316  -0.389  -0.450  11.685 -1.1894 -1.1652  0.5620
   10MOL0     H 1317  -0.453  -0.448  11.856 -1.5435 -3.0701 -2.6883
   10MOL0     H 1318  -0.602  -0.285  11.794 -0.4968 -2.7659  1.2319
   10MOL0     H 1319  -0.547  -0.260  11.630  1.4843 -0.1822  0.3977
   10MOL0     H 1320  -0.759  -0.414  11.673 -0.0315 -0.5024 -0.3290
   10MOL0     H 1321  -0.651  -0.549  11.718 -4.2677 -0.1071 -0.7589
   10MOL0     H 1322  -0.656  -0.375  11.463  5.2937  0.6862 -0.2848
   10MOL0     H 1323  -0.544  -0.511  11.500  0.7323  2.9560 -1.0839
   10MOL0     H 1324  -0.841  -0.517  11.455  1.7813  2.3071 -1.0680
   10MOL0     H 1325  -0.750  -0.665  11.493 -1.6703 -0.0681 -1.4390
   10MOL0     H 1326  -0.629  -0.661  11.286 -0.6841 -1.5563  1.9514
   10MOL0     H 1327  -0.808  -0.643  11.251 -1.6624  0.5844  0.3964
   10MOL0     H 1328  -0.586  -0.439  11.256 -0.7785 -1.4043 -0.3177
   10MOL0     H 1329  -0.755  -0.389  11.256 -0.6372 -1.0268 -0.8381
   10MOL0     H 1330  -0.811  -0.536  11.064  0.5414 -1.8199  0.0862
   10MOL0     H 1331  -0.639  -0.576  11.037  0.7817  0.1473  1.3537
   10MOL0     H 1332  -0.261  -0.476  11.974  0.7068  0.1855  0.4244
   10MOL0     H 1333  -0.043  -0.498  12.053 -0.6698 -1.4099 -1.2469
   10MOL0     H 1334   0.394  -0.272  11.863  0.1903  0.2009 -2.3401
   10MOL0     H 1335   0.620  -0.273  11.788  3.0636 -0.5352  0.3008
   10MOL0     H 1336   1.257   0.441  10.678 -1.5167  1.1964 -0.5745
   10MOL0     H 1337   1.013   0.440  10.652  0.3338  0.4137 -0.8749
   10MOL0     H 1338   0.636   0.288  10.887 -2.4123 -0.9356  0.9856
   10MOL0     H 1339   0.420   0.200  10.845 -0.0738 -0.7664 -1.3300
   10MOL0     H 1340   0.043   0.276  10.607  1.6182 -0.4721  2.9407
   10MOL0     H 1341   0.135   0.408  10.539 -0.5440  0.0929 -3.1189
   10MOL0     H 1342   0.068   0.128  10.456 -1.0802  0.4984 -1.6801
   10MOL0     H 1343   0.239   0.167  10.432 -0.5115  0.1930 -3.4717
   10MOL0     H 1344   0.014   0.346  10.336  0.6593  0.8422  3.5310
   10MOL0     H 1345   0.091   0.216  10.246  0.0962 -0.9533  0.6874
   10MOL0     H 1346   0.323   0.357  10.305 -0.6391 -1.1189  1.9449
   10MOL0     H 1347   0.212   0.477  10.365  2.0868 -0.9647  0.7346
   10MOL0     H 1348   0.190   0.534   9.943 -1.3808 -2.5047 -0.6943
   10MOL0     H 1349   0.376   0.454  10.507  0.6746 -1.0817 -0.8433
   10MOL0     H 1350   0.603   0.547  10.549  3.2238 -1.9575  0.4075
   11MOL0     O 1351   0.721   4.520   7.158 -0.2618 -0.2413  0.7006
   11MOL0     C 1352   0.698   4.550   7.273 -0.9244  0.5296  0.2831
   11MOL0     O 1353   0.572   4.557   7.337 -0.4542 -0.1952 -0.0381
   11MOL0     C 1354   0.451   4.546   7.264  0.0671  0.0854 -0.6188
   11MOL0     C 1355   0.372   4.656   7.286  0.3211 -1.0679 -0.0296
   11MOL0     C 1356   0.246   4.668   7.217  0.1977  0.1968 -0.2990
   11MOL0     C 1357   0.202   4.564   7.132  0.8236 -0.3738 -0.8142
   11MOL0     O 1358   0.074   4.580   7.081  0.2176 -0.4305 -0.1222
   11MOL0     C 1359   0.021   4.472   7.000 -0.8745 -0.4865  1.0864
   11MOL0     C 1360  -0.092   4.521   6.913 -0.1474 -0.3683  0.5344
   11MOL0     C 1361  -0.181   4.392   6.868  0.3150 -0.2717 -0.2693
   11MOL0     C 1362  -0.096   4.285   6.803 -0.4821  0.4603 -0.1825
   11MOL0     C 1363  -0.171   4.180   6.722 -0.1691 -0.1911  0.1562
   11MOL0     C 1364  -0.058   4.086   6.672 -0.5072  0.0805  0.0059
   11MOL0     C 1365  -0.102   3.952   6.601  0.4904  0.4584 -0.5181
   11MOL0     C 1366  -0.207   3.965   6.493  0.6093  0.1308  0.3018
   11MOL0     N 1367  -0.158   4.032   6.377  0.2440 -0.3056 -0.4526
   11MOL0     C 1368  -0.163   4.169   6.355 -0.5983  0.1416 -1.0061
   11MOL0     C 1369  -0.131   4.191   6.227 -0.3832  0.6616  0.5045
   11MOL0     C 1370  -0.133   4.327   6.159 -0.0612  0.3107  0.5303
   11MOL0     C 1371  -0.011   4.411   6.183  0.4713 -0.0397 -0.7396
   11MOL0     C 1372  -0.001   4.484   6.316 -0.2243 -0.8824  0.9624
   11MOL0     C 1373   0.131   4.565   6.312  0.2111 -0.4594  0.3145
   11MOL0     O 1374   0.160   4.643   6.193 -0.7716 -0.0077  0.4384
   11MOL0     C 1375   0.163   4.777   6.219  0.0036 -1.3491 -0.0437
   11MOL0     C 1376   0.279   4.854   6.249  0.4460  0.4479 -0.4377
   11MOL0     C 1377   0.267   4.985   6.291  1.1521 -0.2641  0.1822
   11MOL0     C 1378   0.399   5.041   6.338 -0.1004 -0.7160 -1.1812
   11MOL0     C 1379   0.142   5.045   6.309  0.5612  0.9198  0.1947
   11MOL0     C 1380   0.133   5.187   6.356 -0.2151  0.9010  0.1967
   11MOL0     O 1381   0.006   5.229   6.386 -0.1249 -0.3870 -0.1819
   11MOL0     C 1382  -0.013   5.358   6.424 -0.1295  0.3081 -1.0323
   11MOL0     C 1383   0.023   5.469   6.349  0.1806  0.0384 -0.3248
   11MOL0     C 1384   0.020   5.598   6.392  0.3622 -0.4485 -0.7091
   11MOL0     C 1385  -0.030   5.618   6.527 -0.0851 -0.1824 -0.0351
   11MOL0     O 1386  -0.053   5.742   6.580 -0.2433  0.0447  0.6369
   11MOL0     C 1387   0.029   5.855   6.552  0.1379  0.2925  0.4839
   11MOL0     C 1388   0.174   5.823   6.598 -0.2137 -0.6458 -0.9232
   11MOL0     C 1389   0.268   5.896   6.503 -0.6471 -0.2080 -0.5436
   11MOL0     C 1390   0.283   5.841   6.361 -0.3686  0.1420  0.0684
   11MOL0     C 1391   0.353   5.705   6.361 -0.1934 -0.1462 -0.3666
   11MOL0     C 1392   0.345   5.631   6.220 -0.2211  0.1077 -0.7926
   11MOL0     C 1393   0.406   5.486   6.234  0.2590  0.3238 -1.4817
   11MOL0     C 1394   0.361   5.402   6.112  0.4162  0.8763  0.5273
   11MOL0    Cl 1395   0.435   5.464   5.957  0.2424 -0.2934  0.1595
   11MOL0     C 1396  -0.062   5.513   6.611 -0.1317  0.4498  0.5457
   11MOL0     C 1397  -0.052   5.379   6.561 -0.4479  0.3750  0.4741
   11MOL0     O 1398   0.230   5.260   6.349  0.6053  0.0577  0.6042
   11MOL0     C 1399   0.022   4.974   6.270 -0.4512 -0.0807  0.1783
   11MOL0     C 1400   0.040   4.846   6.225  0.3993  0.9235 -0.8998
   11MOL0     N 1401  -0.096   4.065   6.170 -0.3848 -0.0854  0.1939
   11MOL0     N 1402  -0.118   3.974   6.263 -0.4674 -0.2040  0.1019
   11MOL0     C 1403   0.279   4.446   7.120  0.3258 -0.1716 -0.0030
   11MOL0     C 1404   0.412   4.446   7.180 -0.4844  1.1207 -1.0573
   11MOL0     C 1405   0.812   4.604   7.351  0.0561  0.5612  0.4292
   11MOL0     C 1406   0.808   4.687   7.469 -1.0231 -0.4297  0.9351
   11MOL0     C 1407   0.919   4.730   7.542 -0.6056 -0.0478 -0.1988
   11MOL0     C 1408   1.047   4.685   7.509 -0.5508  0.5096  0.5170
   11MOL0     O 1409   1.167   4.721   7.563 -0.1007 -0.0580  0.2729
   11MOL0     C 1410   1.184   4.830   7.661 -0.0618  0.3640  0.5663
   11MOL0     C 1411   1.272   4.769   7.776 -0.5637 -0.1599 -0.5715
   11MOL0     C 1412   1.362   4.876   7.829 -0.2683 -0.7621 -0.1099
   11MOL0     C 1413   1.461   4.838   7.935  1.2132  0.1179 -0.4089
   11MOL0     C 1414   1.555   4.744   7.876 -0.3449  0.1614 -0.7502
   11MOL0     C 1415   1.644   4.675   7.835 -0.0029  0.1907  0.5253
   11MOL0     C 1416   1.060   4.606   7.392  0.7768  1.1569  0.1937
   11MOL0     C 1417   0.947   4.560   7.324  0.5163 -0.0971 -0.0275
   11MOL0     H 1418   0.402   4.727   7.363 -3.5689 -0.7528  1.4517
   11MOL0     H 1419   0.186   4.759   7.214 -1.2014 -0.6342 -4.8354
   11MOL0     H 1420   0.091   4.427   6.928 -3.4541  1.3682 -2.9755
   11MOL0     H 1421  -0.017   4.392   7.065  1.3143 -1.6924  0.9849
   11MOL0     H 1422  -0.159   4.590   6.965 -2.7794 -3.7503  2.0017
   11MOL0     H 1423  -0.064   4.567   6.818 -0.2445  0.3202  0.8338
   11MOL0     H 1424  -0.242   4.362   6.954  1.2513 -1.6965 -0.0807
   11MOL0     H 1425  -0.258   4.415   6.794 -1.0236 -0.8690  0.8831
   11MOL0     H 1426  -0.018   4.339   6.747 -0.5245  0.9545  0.2255
   11MOL0     H 1427  -0.045   4.229   6.882  0.3441  1.1799 -0.1819
   11MOL0     H 1428  -0.243   4.130   6.787 -1.8457 -0.0853 -1.5306
   11MOL0     H 1429  -0.228   4.224   6.640 -0.7091  0.7135  0.9924
   11MOL0     H 1430   0.003   4.145   6.603  0.8754 -0.2293  0.9286
   11MOL0     H 1431  -0.004   4.057   6.762 -2.0881 -2.1012  0.3246
   11MOL0     H 1432  -0.009   3.911   6.562  0.0613 -1.8981  0.7427
   11MOL0     H 1433  -0.134   3.881   6.678  1.1420 -0.5532 -1.1689
   11MOL0     H 1434  -0.292   4.016   6.540  2.0920  1.5712  1.5635
   11MOL0     H 1435  -0.250   3.868   6.467  0.1270  0.5648 -0.5527
   11MOL0     H 1436  -0.184   4.250   6.425 -1.3165 -0.7161 -0.1906
   11MOL0     H 1437  -0.133   4.313   6.050 -2.5293  0.9333  0.3921
   11MOL0     H 1438  -0.225   4.385   6.164  0.1582  0.8489 -1.0259
   11MOL0     H 1439  -0.002   4.477   6.096 -3.8049  3.3042  0.9974
   11MOL0     H 1440   0.083   4.355   6.173  2.2595  1.7445  3.7407
   11MOL0     H 1441   0.011   4.424   6.407  0.6017  1.3809  2.4298
   11MOL0     H 1442  -0.089   4.546   6.337 -0.9752 -1.5874  0.0090
   11MOL0     H 1443   0.211   4.491   6.313 -0.2816 -1.0369  2.4273
   11MOL0     H 1444   0.134   4.635   6.396  0.2027 -0.8661  0.6596
   11MOL0     H 1445   0.381   4.816   6.240  0.4120 -0.0368  0.9001
   11MOL0     H 1446   0.397   5.086   6.438 -1.1318 -0.8416 -1.1327
   11MOL0     H 1447   0.472   4.961   6.354 -1.0848 -1.6189 -1.0405
   11MOL0     H 1448   0.428   5.112   6.261  1.2735  1.3515  1.0941
   11MOL0     H 1449   0.059   5.440   6.251  0.6415 -5.4897  1.1503
   11MOL0     H 1450   0.042   5.677   6.321 -1.0374 -0.3787 -1.0943
   11MOL0     H 1451   0.027   5.876   6.444 -1.6055  1.4440  0.6883
   11MOL0     H 1452  -0.021   5.941   6.599 -2.6485 -0.8800 -0.1666
   11MOL0     H 1453   0.171   5.853   6.703 -0.6116 -2.0697 -0.5094
   11MOL0     H 1454   0.210   5.720   6.604 -1.0150 -0.8765  0.0743
   11MOL0     H 1455   0.363   5.897   6.556 -0.1680 -1.8136 -1.3148
   11MOL0     H 1456   0.226   5.997   6.495 -0.2202 -0.1165 -1.9623
   11MOL0     H 1457   0.182   5.823   6.323 -0.9916 -0.2566  1.8190
   11MOL0     H 1458   0.333   5.918   6.302 -0.7552  1.0379  0.8646
   11MOL0     H 1459   0.302   5.639   6.432 -3.0917 -2.6280 -4.3282
   11MOL0     H 1460   0.453   5.711   6.406 -0.9074  2.4336  1.0835
   11MOL0     H 1461   0.242   5.617   6.187  0.0277 -1.5112 -0.9501
   11MOL0     H 1462   0.397   5.688   6.142  0.7377  0.7219  0.2553
   11MOL0     H 1463   0.350   5.457   6.323 -1.1555  2.8963 -1.4443
   11MOL0     H 1464   0.512   5.482   6.261 -0.7179 -2.6593  2.8398
   11MOL0     H 1465   0.253   5.383   6.109  0.9373 -2.9838  0.9663
   11MOL0     H 1466   0.391   5.297   6.119 -2.6122 -0.3533 -2.2314
   11MOL0     H 1467  -0.102   5.535   6.710 -0.2055  1.9082  0.2114
   11MOL0     H 1468  -0.073   5.293   6.624  0.1388 -2.1335 -2.4827
   11MOL0     H 1469  -0.072   5.027   6.282 -0.2969 -0.2329  2.6561
   11MOL0     H 1470  -0.042   4.777   6.210  1.6886 -1.4200  1.6976
   11MOL0     H 1471   0.240   4.359   7.069 -3.0693  1.1654  0.0620
   11MOL0     H 1472   0.470   4.355   7.171 -1.7977  0.2227 -0.7792
   11MOL0     H 1473   0.717   4.734   7.505 -0.4120  2.1073 -0.6444
   11MOL0     H 1474   0.909   4.787   7.634  1.7504  1.4849 -0.8142
   11MOL0     H 1475   1.239   4.909   7.609  1.1090  0.3842  1.7618
   11MOL0     H 1476   1.091   4.874   7.697 -1.5382 -2.1192 -0.0293
   11MOL0     H 1477   1.334   4.690   7.733 -1.4805 -0.5071 -1.2982
   11MOL0     H 1478   1.211   4.736   7.860 -2.0479 -0.5585 -1.7674
   11MOL0     H 1479   1.301   4.960   7.865  1.6178  1.1747 -1.1984
   11MOL0     H 1480   1.415   4.918   7.743 -1.6786  2.3033  0.3596
   11MOL0     H 1481   1.405   4.787   8.014  3.4974 -2.2538 -0.1735
   11MOL0     H 1482   1.520   4.920   7.978 -0.2660 -0.6182  3.4367
   11MOL0     H 1483   1.715   4.607   7.794 -0.8325 -0.6451  0.4426
   11MOL0     H 1484   1.158   4.575   7.359 -0.4994 -3.1960 -0.0616
   11MOL0     H 1485   0.955   4.488   7.244 -3.5028 -0.7438 -0.1034
   12MOL0     O 1486   2.202  11.324   1.269 -0.3577 -0.4652 -0.3083
   12MOL0     C 1487   2.209  11.337   1.147  0.6438 -0.2592 -0.3308
   12MOL0     O 1488   2.110  11.386   1.074  0.1032 -0.2990  0.1502
   12MOL0     C 1489   1.981  11.387   1.125  0.2766  0.7812 -0.5333
   12MOL0     C 1490   1.934  11.503   1.195  0.0146 -1.3913  0.7797
   12MOL0     C 1491   1.802  11.528   1.229 -0.0559  1.3325 -0.8682
   12MOL0     C 1492   1.717  11.417   1.214 -0.5848 -0.2434 -0.4405
   12MOL0     O 1493   1.600  11.432   1.279 -0.3005  0.1761 -0.7137
   12MOL0     C 1494   1.496  11.438   1.188 -0.1255  0.2229  0.0457
   12MOL0     C 1495   1.456  11.289   1.142  0.1632 -0.0865 -0.7368
   12MOL0     C 1496   1.429  11.193   1.262 -0.5782 -0.0749 -0.0152
   12MOL0     C 1497   1.290  11.227   1.335  0.6535  0.9026  0.6088
   12MOL0     C 1498   1.287  11.161   1.477 -0.3002  0.5265 -0.6095
   12MOL0     C 1499   1.244  11.011   1.483 -0.8639  0.1342  0.1284
   12MOL0     C 1500   1.237  10.975   1.633 -0.0318  0.0779 -0.1271
   12MOL0     C 1501   1.125  11.032   1.726 -0.1324 -0.6354  1.1134
   12MOL0     N 1502   0.989  10.991   1.687 -0.2811 -0.6923  0.1716
   12MOL0     C 1503   0.940  10.866   1.704 -0.3409  0.0881  0.1724
   12MOL0     C 1504   0.829  10.865   1.623  0.7100 -0.7607  0.1117
   12MOL0     C 1505   0.719  10.766   1.622  0.5456 -0.0882 -0.6036
   12MOL0     C 1506   0.632  10.778   1.744 -0.1547  0.2133  0.0222
   12MOL0     C 1507   0.558  10.907   1.761 -1.1042  0.0649  1.0898
   12MOL0     C 1508   0.504  10.928   1.895  0.7074  0.4530 -0.5664
   12MOL0     O 1509   0.412  11.037   1.903  0.6138  0.4011  0.1465
   12MOL0     C 1510   0.275  11.012   1.902 -0.2991  0.1446  0.7970
   12MOL0     C 1511   0.213  10.885   1.878 -1.0111 -0.3604  0.7243
   12MOL0     C 1512   0.079  10.876   1.869 -0.7151  0.2240 -0.1191
   12MOL0     C 1513   0.028  10.754   1.794 -0.1056 -0.5482 -0.0113
   12MOL0     C 1514  -0.004  10.976   1.920  0.3199 -1.1894  0.6199
   12MOL0     C 1515  -0.150  10.972   1.924 -0.0025 -0.7133  0.3589
   12MOL0     O 1516  -0.218  11.091   1.958 -0.1976 -0.8326 -0.4122
   12MOL0     C 1517  -0.348  11.119   1.938  0.1346 -0.8365  0.2814
   12MOL0     C 1518  -0.447  11.021   1.955  0.6967  0.2169 -0.3925
   12MOL0     C 1519  -0.583  11.055   1.926  0.2939  0.1223 -0.2000
   12MOL0     C 1520  -0.619  11.183   1.887  0.1621 -0.5491 -0.4133
   12MOL0     O 1521  -0.753  11.200   1.854 -0.0922 -0.2262  0.8520
   12MOL0     C 1522  -0.795  11.327   1.791 -0.5319  0.1361 -0.9142
   12MOL0     C 1523  -0.944  11.307   1.737  0.1147  0.4457 -0.6758
   12MOL0     C 1524  -0.944  11.169   1.651 -0.9436 -0.1052 -0.4735
   12MOL0     C 1525  -1.061  11.164   1.547 -0.2249  0.1060 -1.0288
   12MOL0     C 1526  -1.059  11.265   1.437  0.0632 -0.6558 -0.5641
   12MOL0     C 1527  -1.154  11.244   1.322  0.2148  0.3676 -0.4742
   12MOL0     C 1528  -1.125  11.358   1.222  0.0073  0.2855  0.0202
   12MOL0     C 1529  -1.257  11.359   1.129  0.1707 -0.5942 -0.1630
   12MOL0    Cl 1530  -1.238  11.491   1.009 -0.0001 -0.1683  0.3018
   12MOL0     C 1531  -0.520  11.278   1.874 -0.1774  0.4855  0.2166
   12MOL0     C 1532  -0.385  11.252   1.902  0.6941  0.1700  0.1496
   12MOL0     O 1533  -0.209  10.863   1.905 -0.4903  0.6994 -0.0974
   12MOL0     C 1534   0.063  11.097   1.957  0.1994  0.2401  0.6111
   12MOL0     C 1535   0.199  11.114   1.948  0.0374  0.0387 -0.7311
   12MOL0     N 1536   0.817  10.986   1.555  0.4548 -0.7087  0.2352
   12MOL0     N 1537   0.923  11.051   1.587  0.0282  0.5948  1.5412
   12MOL0     C 1538   1.762  11.302   1.156  0.3570 -0.2088  0.8604
   12MOL0     C 1539   1.890  11.282   1.104 -0.2801  0.0188  0.1656
   12MOL0     C 1540   2.341  11.333   1.105 -0.4144 -0.1237 -0.2728
   12MOL0     C 1541   2.379  11.376   0.974  0.1003  0.5927 -0.3317
   12MOL0     C 1542   2.506  11.339   0.920 -0.1693 -0.0900  0.3930
   12MOL0     C 1543   2.608  11.291   0.997 -0.7772 -0.1196 -1.3266
   12MOL0     O 1544   2.734  11.278   0.958  0.0670  0.6404  0.0499
   12MOL0     C 1545   2.772  11.199   0.844 -0.3213  0.1985 -0.4029
   12MOL0     C 1546   2.731  11.046   0.849 -0.4134 -0.6039 -1.1758
   12MOL0     C 1547   2.814  10.955   0.759  0.5095 -0.8381  0.4006
   12MOL0     C 1548   2.783  10.980   0.617  0.1711 -0.1059 -0.5030
   12MOL0     C 1549   2.644  10.944   0.593 -0.4129  0.4930 -0.1447
   12MOL0     C 1550   2.523  10.921   0.579  0.2319 -0.0071  0.4260
   12MOL0     C 1551   2.570  11.253   1.133  0.3594 -0.4181 -0.5185
   12MOL0     C 1552   2.443  11.270   1.179 -0.1052 -0.6458  0.1598
   12MOL0     H 1553   2.015  11.575   1.198 -0.7873 -0.4726  0.7934
   12MOL0     H 1554   1.769  11.611   1.291 -3.5600 -0.7697  0.3981
   12MOL0     H 1555   1.422  11.493   1.246 -0.7701 -0.9577  0.3853
   12MOL0     H 1556   1.528  11.497   1.101 -0.0872  0.5166  0.2602
   12MOL0     H 1557   1.363  11.308   1.087 -1.0373  1.7299  1.7506
   12MOL0     H 1558   1.522  11.254   1.063  0.8277  1.2091 -0.7748
   12MOL0     H 1559   1.422  11.098   1.209 -1.3374  0.3283 -0.6566
   12MOL0     H 1560   1.508  11.207   1.337 -1.2585  3.2343  0.2512
   12MOL0     H 1561   1.287  11.335   1.346  0.6264  0.7540  2.1922
   12MOL0     H 1562   1.195  11.202   1.286  0.3530  0.0985  1.5729
   12MOL0     H 1563   1.379  11.181   1.533  0.6267 -1.8951 -1.1511
   12MOL0     H 1564   1.205  11.211   1.530 -0.1933  0.2143 -0.1474
   12MOL0     H 1565   1.155  10.988   1.422  1.4623 -4.6779 -2.0043
   12MOL0     H 1566   1.324  10.946   1.447  0.4664  1.0978  1.2728
   12MOL0     H 1567   1.233  10.866   1.640  1.2712  0.0763  0.8407
   12MOL0     H 1568   1.336  10.994   1.676  0.1820 -1.1064 -0.0535
   12MOL0     H 1569   1.129  11.141   1.718  0.9560 -0.6869  0.6673
   12MOL0     H 1570   1.153  10.991   1.824  0.4604 -0.6828  0.9311
   12MOL0     H 1571   0.967  10.791   1.777  1.1260  1.2938  0.9302
   12MOL0     H 1572   0.652  10.782   1.537 -1.5213 -1.6943  0.6035
   12MOL0     H 1573   0.763  10.666   1.611 -0.6370 -0.6324 -0.6165
   12MOL0     H 1574   0.700  10.759   1.827 -1.0271 -0.3491  0.6252
   12MOL0     H 1575   0.566  10.691   1.743  0.4038 -0.2657  1.6892
   12MOL0     H 1576   0.477  10.915   1.689 -0.5129  1.8367  0.5821
   12MOL0     H 1577   0.627  10.990   1.743 -0.7647 -0.6161 -1.0132
   12MOL0     H 1578   0.597  10.951   1.949  0.3233  2.0165 -0.5148
   12MOL0     H 1579   0.465  10.832   1.929 -0.6404  1.4686  0.9042
   12MOL0     H 1580   0.283  10.807   1.849  0.5858  1.1223  0.4206
   12MOL0     H 1581   0.091  10.713   1.715 -1.9127 -1.7435 -0.9044
   12MOL0     H 1582   0.002  10.673   1.863  1.7903 -0.6209  0.6673
   12MOL0     H 1583  -0.066  10.772   1.741 -0.3223  1.3368  0.9060
   12MOL0     H 1584  -0.425  10.919   1.984  0.9535 -0.0880 -1.5781
   12MOL0     H 1585  -0.660  10.979   1.917  0.4968 -0.1149  0.0406
   12MOL0     H 1586  -0.805  11.411   1.861 -1.0805 -1.8126  1.5123
   12MOL0     H 1587  -0.720  11.352   1.716 -0.1281  0.8887 -0.2725
   12MOL0     H 1588  -1.010  11.293   1.823 -1.3215  2.8686 -1.2997
   12MOL0     H 1589  -0.980  11.391   1.677  2.7599 -0.0820 -3.2389
   12MOL0     H 1590  -0.961  11.092   1.727  0.1850  0.6989  0.6482
   12MOL0     H 1591  -0.852  11.148   1.597 -0.3054 -1.7942  1.1411
   12MOL0     H 1592  -1.055  11.061   1.510 -0.2622 -1.2133  2.2332
   12MOL0     H 1593  -1.151  11.179   1.607  0.8253 -3.4798  1.8380
   12MOL0     H 1594  -0.954  11.263   1.406  0.2752  0.2921  0.0256
   12MOL0     H 1595  -1.081  11.366   1.473  0.9128  0.0117 -1.8281
   12MOL0     H 1596  -1.146  11.139   1.293 -0.8247 -1.0725  3.7139
   12MOL0     H 1597  -1.258  11.255   1.355 -1.2503 -4.8285 -2.4025
   12MOL0     H 1598  -1.040  11.343   1.155 -1.9292  3.3882 -3.5259
   12MOL0     H 1599  -1.123  11.454   1.274  1.3854  0.1491  0.2602
   12MOL0     H 1600  -1.349  11.388   1.182  0.2156  2.0127 -1.3255
   12MOL0     H 1601  -1.269  11.265   1.076 -1.6840  0.6434 -2.0857
   12MOL0     H 1602  -0.535  11.380   1.841 -2.1750 -0.4981 -2.3039
   12MOL0     H 1603  -0.302  11.320   1.890  0.8976 -0.4142 -2.2609
   12MOL0     H 1604   0.012  11.187   1.989  1.2685  1.6198 -1.3365
   12MOL0     H 1605   0.241  11.215   1.950  0.6460 -0.1814 -1.7209
   12MOL0     H 1606   1.707  11.210   1.173 -0.3506  0.0786  0.1813
   12MOL0     H 1607   1.924  11.188   1.061  1.8895  0.1231  1.4958
   12MOL0     H 1608   2.312  11.424   0.903  0.5129 -0.5836 -1.5623
   12MOL0     H 1609   2.534  11.358   0.817  2.9714 -1.7819  0.8209
   12MOL0     H 1610   2.741  11.252   0.754 -1.4651  1.1831  0.5337
   12MOL0     H 1611   2.881  11.196   0.846 -0.3322 -2.5912  0.4813
   12MOL0     H 1612   2.623  11.043   0.834 -0.5748 -0.0169 -0.2108
   12MOL0     H 1613   2.742  11.005   0.950  0.8144 -2.0616 -1.8681
   12MOL0     H 1614   2.802  10.850   0.790 -0.4110 -0.7368  0.4278
   12MOL0     H 1615   2.920  10.972   0.777 -0.1528  4.9949  0.4592
   12MOL0     H 1616   2.850  10.916   0.559  0.6009  0.1644 -0.3006
   12MOL0     H 1617   2.796  11.086   0.591  1.2647 -0.1607 -0.1854
   12MOL0     H 1618   2.419  10.898   0.562  0.2403  2.0959 -3.4554
   12MOL0     H 1619   2.638  11.218   1.211 -0.2636  2.0504  1.2528
   12MOL0     H 1620   2.419  11.233   1.278 -1.1037  0.2586  0.2844
   13MOL0     O 1621   5.581   5.247   3.934  0.4436  0.2716  0.4196
   13MOL0     C 1622   5.686   5.258   3.864 -0.0555 -0.0288  0.0106
   13MOL0     O 1623   5.769   5.158   3.833 -0.3873 -0.2213 -0.6902
   13MOL0     C 1624   5.728   5.037   3.881  1.2189 -0.8254 -0.1332
   13MOL0     C 1625   5.646   4.952   3.804  0.9099  0.2021 -0.8634
   13MOL0     C 1626   5.626   4.816   3.853  0.1258  0.2213 -0.0001
   13MOL0     C 1627   5.676   4.770   3.977  0.2856  1.1102 -0.2868
   13MOL0     O 1628   5.657   4.640   4.005  0.0166  0.7476  0.5658
   13MOL0     C 1629   5.710   4.594   4.130  0.2722 -0.6202  0.5693
   13MOL0     C 1630   5.663   4.451   4.150  0.8618  0.5210  0.0949
   13MOL0     C 1631   5.508   4.462   4.152  0.1371  0.3918  0.9428
   13MOL0     C 1632   5.432   4.330   4.202  0.0521 -0.6363 -0.0668
   13MOL0     C 1633   5.280   4.355   4.213  0.3698  0.1136 -0.0412
   13MOL0     C 1634   5.198   4.262   4.308 -0.6198  0.7115  0.7112
   13MOL0     C 1635   5.057   4.307   4.329  0.5514 -0.8792  0.0588
   13MOL0     C 1636   4.976   4.187   4.375 -0.1520  0.2453  0.9272
   13MOL0     N 1637   4.838   4.205   4.373  0.6337 -0.4061  0.2968
   13MOL0     C 1638   4.751   4.202   4.272 -0.6397 -0.6489  0.0697
   13MOL0     C 1639   4.633   4.242   4.327 -0.0339 -0.2926  0.4022
   13MOL0     C 1640   4.515   4.293   4.238 -0.0662  0.4904  0.2852
   13MOL0     C 1641   4.412   4.190   4.189 -1.1434 -0.5907  0.7774
   13MOL0     C 1642   4.301   4.240   4.107  0.9703 -0.1171  0.0640
   13MOL0     C 1643   4.172   4.280   4.199  0.0833  0.0745 -0.1382
   13MOL0     O 1644   4.107   4.154   4.250  0.1385  0.1216  0.6134
   13MOL0     C 1645   3.992   4.102   4.193  0.3285  0.1941 -0.1076
   13MOL0     C 1646   3.917   4.020   4.278 -0.5601  0.2773  0.1159
   13MOL0     C 1647   3.815   3.943   4.236 -0.0583  0.8135  0.1326
   13MOL0     C 1648   3.742   3.853   4.346 -0.3953 -0.2840 -0.3079
   13MOL0     C 1649   3.774   3.944   4.094 -0.1276  0.3762 -0.2782
   13MOL0     C 1650   3.666   3.868   4.023  0.8519 -0.1089 -0.4091
   13MOL0     O 1651   3.630   3.902   3.898  0.2542 -0.3366 -0.7536
   13MOL0     C 1652   3.548   3.827   3.818 -1.3318 -0.4341  0.8599
   13MOL0     C 1653   3.419   3.795   3.862 -0.1618  0.1294  0.5289
   13MOL0     C 1654   3.321   3.736   3.775 -1.4938 -0.0958  0.2472
   13MOL0     C 1655   3.357   3.719   3.639 -0.2509 -0.2262 -0.2220
   13MOL0     O 1656   3.273   3.659   3.543  0.2576 -0.2142 -0.1261
   13MOL0     C 1657   3.185   3.556   3.590  0.7166 -0.3656  0.3019
   13MOL0     C 1658   3.128   3.478   3.477 -0.7504  0.7317 -0.2498
   13MOL0     C 1659   3.005   3.386   3.523 -0.3117  1.0111  0.1110
   13MOL0     C 1660   2.949   3.294   3.412  0.3438  0.4070 -0.1378
   13MOL0     C 1661   2.813   3.236   3.458  0.6942 -0.0258 -0.0776
   13MOL0     C 1662   2.720   3.204   3.345  0.3135  0.3566  0.3215
   13MOL0     C 1663   2.590   3.132   3.393  0.1770 -0.0492 -0.5286
   13MOL0     C 1664   2.601   3.001   3.460  0.3510  0.3557 -0.4517
   13MOL0    Cl 1665   2.445   2.931   3.512  0.2498 -0.8852  0.1185
   13MOL0     C 1666   3.475   3.768   3.591 -0.1601 -1.0048 -0.8359
   13MOL0     C 1667   3.573   3.830   3.680  0.2902  0.1654 -0.6450
   13MOL0     O 1668   3.629   3.767   4.076  0.6484  0.4716 -0.2512
   13MOL0     C 1669   3.842   4.035   4.015 -0.0891 -0.1403  0.0679
   13MOL0     C 1670   3.950   4.118   4.063 -0.1044 -0.1339 -0.2008
   13MOL0     N 1671   4.650   4.266   4.457  0.1418  0.6535  0.4664
   13MOL0     N 1672   4.776   4.251   4.483  0.2449  0.7846 -0.2911
   13MOL0     C 1673   5.759   4.860   4.046  0.1398 -0.0122  0.3212
   13MOL0     C 1674   5.785   4.989   3.999  0.4823 -0.7396 -0.6419
   13MOL0     C 1675   5.742   5.393   3.833  0.5444 -0.9087 -0.9872
   13MOL0     C 1676   5.666   5.502   3.869  0.7345 -0.6360  0.2005
   13MOL0     C 1677   5.710   5.634   3.841 -0.9716 -0.1260  0.1896
   13MOL0     C 1678   5.838   5.662   3.789  0.0083  0.1609 -0.0820
   13MOL0     O 1679   5.875   5.789   3.762  0.2383 -0.0263 -0.6188
   13MOL0     C 1680   5.946   5.807   3.644  0.5328 -0.0907  0.0886
   13MOL0     C 1681   5.870   5.774   3.513 -0.3220 -0.2541  1.0600
   13MOL0     C 1682   5.939   5.818   3.376 -0.3082  0.3016  0.3400
   13MOL0     C 1683   6.053   5.726   3.331  0.2645  0.1013  0.5230
   13MOL0     C 1684   6.038   5.580   3.344  1.0000  0.2457 -0.7413
   13MOL0     C 1685   6.010   5.465   3.365 -0.7725 -0.1357 -0.3983
   13MOL0     C 1686   5.923   5.544   3.760 -0.6052 -0.2673  0.7207
   13MOL0     C 1687   5.873   5.418   3.780  0.0123  1.0147  0.1740
   13MOL0     H 1688   5.619   4.991   3.706  0.6191 -0.9673 -1.2637
   13MOL0     H 1689   5.560   4.754   3.792  1.1901 -0.2454 -0.6957
   13MOL0     H 1690   5.818   4.601   4.145  0.6328  1.6426 -2.3125
   13MOL0     H 1691   5.670   4.657   4.211 -2.6227 -2.4314  0.6951
   13MOL0     H 1692   5.693   4.380   4.072  0.5478 -1.9535  2.0755
   13MOL0     H 1693   5.707   4.406   4.240 -0.3617 -1.2712 -0.1277
   13MOL0     H 1694   5.467   4.537   4.221 -5.8248  0.5508 -2.0782
   13MOL0     H 1695   5.475   4.475   4.049  0.0530 -3.0675  0.4178
   13MOL0     H 1696   5.450   4.241   4.141  0.2554 -0.5392 -0.1483
   13MOL0     H 1697   5.482   4.298   4.294  0.2951 -0.7387 -0.2361
   13MOL0     H 1698   5.256   4.454   4.254 -1.3355 -1.0793  2.0441
   13MOL0     H 1699   5.241   4.347   4.111  2.0794  1.0704 -0.8186
   13MOL0     H 1700   5.204   4.164   4.260 -0.0984  1.6962 -1.3027
   13MOL0     H 1701   5.261   4.269   4.398 -0.5444 -0.1509  0.7347
   13MOL0     H 1702   5.065   4.392   4.397 -0.2997 -1.5037  0.9621
   13MOL0     H 1703   5.026   4.352   4.234 -0.2742  0.1535  0.7886
   13MOL0     H 1704   5.013   4.149   4.470 -2.9176  0.4388  2.1651
   13MOL0     H 1705   5.006   4.103   4.311  0.4755  0.8863  0.3627
   13MOL0     H 1706   4.776   4.189   4.168  2.3532 -1.7673  0.8386
   13MOL0     H 1707   4.462   4.375   4.288  1.1854  1.0547  0.7254
   13MOL0     H 1708   4.562   4.335   4.148 -3.2378  1.9203 -0.8841
   13MOL0     H 1709   4.375   4.139   4.278 -2.2931  0.5544  0.9846
   13MOL0     H 1710   4.469   4.110   4.140 -0.2302 -0.7034  1.9926
   13MOL0     H 1711   4.272   4.164   4.034 -1.5921  1.4793 -0.7083
   13MOL0     H 1712   4.331   4.330   4.052  3.0738  0.3068  1.7700
   13MOL0     H 1713   4.101   4.348   4.152 -2.9360 -0.8554  2.7111
   13MOL0     H 1714   4.204   4.338   4.286 -3.9625 -0.1924  1.7788
   13MOL0     H 1715   3.952   4.034   4.379  0.1777 -0.3947 -0.0347
   13MOL0     H 1716   3.634   3.848   4.330 -0.6870  0.7086  1.1038
   13MOL0     H 1717   3.776   3.750   4.337  4.8489  1.0688  0.5615
   13MOL0     H 1718   3.774   3.887   4.445  3.3674  3.7654 -2.5226
   13MOL0     H 1719   3.382   3.813   3.962 -3.4593  3.9512 -1.0815
   13MOL0     H 1720   3.220   3.716   3.809 -1.3107 -2.8075 -0.6170
   13MOL0     H 1721   3.237   3.487   3.657 -3.6409 -4.4890 -0.0512
   13MOL0     H 1722   3.110   3.606   3.653  2.0281  2.8005 -0.4411
   13MOL0     H 1723   3.079   3.555   3.416  0.9653  0.5384 -1.9319
   13MOL0     H 1724   3.214   3.428   3.432  1.3062  1.9059  2.1237
   13MOL0     H 1725   2.923   3.452   3.552 -0.2295  1.0391  0.2846
   13MOL0     H 1726   3.041   3.340   3.615 -0.4225 -0.0059 -0.3441
   13MOL0     H 1727   2.924   3.350   3.322 -2.9022  0.6010  0.7640
   13MOL0     H 1728   3.026   3.218   3.396 -0.0218  0.2148 -1.0305
   13MOL0     H 1729   2.768   3.311   3.525  3.8217  0.6569  1.4410
   13MOL0     H 1730   2.828   3.146   3.518 -1.1082 -1.3500 -1.5041
   13MOL0     H 1731   2.685   3.292   3.291 -1.0440  1.3424  2.6598
   13MOL0     H 1732   2.776   3.141   3.274  0.0122 -2.1796  2.1820
   13MOL0     H 1733   2.512   3.116   3.318 -1.8259 -1.0609  1.6362
   13MOL0     H 1734   2.556   3.199   3.473  4.7247  0.2348  1.4615
   13MOL0     H 1735   2.671   3.004   3.544  0.3710 -1.0385 -0.3960
   13MOL0     H 1736   2.637   2.929   3.387  2.2928 -2.8882  3.3189
   13MOL0     H 1737   3.498   3.765   3.485 -0.1452  1.3788 -0.9573
   13MOL0     H 1738   3.664   3.875   3.642  1.3678 -0.8332  0.6740
   13MOL0     H 1739   3.815   4.051   3.911  2.2095 -4.1609 -1.3355
   13MOL0     H 1740   3.997   4.192   3.999 -1.3867  0.1213 -0.8756
   13MOL0     H 1741   5.796   4.844   4.146  0.4090  1.3592  0.4570
   13MOL0     H 1742   5.849   5.062   4.047 -0.6102  0.9997 -1.6833
   13MOL0     H 1743   5.562   5.494   3.900  0.1053  0.6878 -1.4087
   13MOL0     H 1744   5.635   5.710   3.860  1.2387  2.0573  0.7346
   13MOL0     H 1745   5.967   5.914   3.643  0.5492 -0.0734  1.2488
   13MOL0     H 1746   6.038   5.750   3.632 -1.2834 -2.8970 -2.0143
   13MOL0     H 1747   5.781   5.836   3.524  0.1672  1.4217 -2.8515
   13MOL0     H 1748   5.850   5.667   3.518 -1.6022 -0.0818  0.2059
   13MOL0     H 1749   5.980   5.917   3.395  2.9364 -0.9895  0.5783
   13MOL0     H 1750   5.862   5.825   3.298 -1.3331 -3.5286  0.8106
   13MOL0     H 1751   6.133   5.768   3.394 -0.7389  2.2064  0.4805
   13MOL0     H 1752   6.070   5.747   3.225 -1.9038  0.8689  0.2777
   13MOL0     H 1753   6.007   5.358   3.370  0.4860 -0.1203  2.0024
   13MOL0     H 1754   6.018   5.553   3.709 -0.8811  2.2825  0.5516
   13MOL0     H 1755   5.939   5.339   3.744  0.8642  0.5344  2.5681
   14MOL0     O 1756   4.168   6.061   3.751 -0.6737 -0.2515  0.2020
   14MOL0     C 1757   4.118   5.949   3.755 -1.1917 -0.6497  0.7359
   14MOL0     O 1758   4.004   5.913   3.693  0.5048 -0.2685 -0.1433
   14MOL0     C 1759   3.954   6.004   3.593  0.3920  0.3475  0.1490
   14MOL0     C 1760   3.907   6.129   3.632 -0.9998  0.6380  0.7216
   14MOL0     C 1761   3.847   6.213   3.540  0.7351 -0.0105 -0.6024
   14MOL0     C 1762   3.827   6.181   3.411 -0.5746 -0.4855  0.0031
   14MOL0     O 1763   3.772   6.282   3.336 -0.4488  0.2824  0.2779
   14MOL0     C 1764   3.720   6.259   3.205  0.7957 -0.3972 -0.3020
   14MOL0     C 1765   3.594   6.175   3.197 -0.3894  0.7914  0.3085
   14MOL0     C 1766   3.472   6.230   3.272  0.4822  0.0693 -0.7891
   14MOL0     C 1767   3.345   6.150   3.260 -0.7074 -0.4216 -0.1452
   14MOL0     C 1768   3.302   6.134   3.108 -0.1708 -0.6038  0.0836
   14MOL0     C 1769   3.151   6.101   3.098  0.1252  0.5451 -0.3024
   14MOL0     C 1770   3.109   5.984   3.184 -0.2039 -0.5469  0.1597
   14MOL0     C 1771   2.970   5.921   3.147  0.1476  0.7478 -0.3168
   14MOL0     N 1772   2.914   5.825   3.249  0.1313  0.2510  0.4458
   14MOL0     C 1773   2.941   5.691   3.245  0.8804 -0.6223  0.6008
   14MOL0     C 1774   2.903   5.648   3.366 -0.2989  0.0870 -0.6909
   14MOL0     C 1775   2.906   5.508   3.421  0.5009 -0.4557  0.3399
   14MOL0     C 1776   3.047   5.471   3.477  0.1818  0.9717  0.3636
   14MOL0     C 1777   3.068   5.311   3.494  0.5587 -0.7696  0.1052
   14MOL0     C 1778   2.944   5.234   3.543 -0.1309 -0.4193  1.3584
   14MOL0     O 1779   2.903   5.288   3.670 -0.4286  0.3562 -0.2999
   14MOL0     C 1780   2.782   5.250   3.717  0.3305 -0.4069 -0.3252
   14MOL0     C 1781   2.725   5.339   3.805  0.3360  0.1533  0.3649
   14MOL0     C 1782   2.598   5.318   3.865 -0.1678  0.4334 -0.5337
   14MOL0     C 1783   2.552   5.425   3.959 -0.1465 -0.5057  0.5940
   14MOL0     C 1784   2.526   5.201   3.837  0.3831 -0.5061  0.3190
   14MOL0     C 1785   2.388   5.178   3.884  0.2664  1.4216  0.5094
   14MOL0     O 1786   2.310   5.276   3.912 -0.0560 -1.1277  0.3883
   14MOL0     C 1787   2.173   5.274   3.927  0.2817  0.6901  0.0971
   14MOL0     C 1788   2.084   5.168   3.887  1.5078  1.6042 -0.4267
   14MOL0     C 1789   1.945   5.179   3.896  0.0087  0.8097 -0.5400
   14MOL0     C 1790   1.890   5.297   3.940  0.8450 -0.2491 -0.8820
   14MOL0     O 1791   1.753   5.323   3.933  0.9972 -0.0752 -1.1818
   14MOL0     C 1792   1.679   5.229   3.859 -0.2470  0.2971  0.5946
   14MOL0     C 1793   1.523   5.272   3.848 -0.7786  0.4792 -1.1747
   14MOL0     C 1794   1.457   5.274   3.980 -0.2900 -0.4514  0.6622
   14MOL0     C 1795   1.426   5.139   4.037  0.2421  0.3643  0.1233
   14MOL0     C 1796   1.353   5.151   4.171  0.7060  0.6642  0.0717
   14MOL0     C 1797   1.220   5.230   4.170 -0.2004  0.0347 -0.0742
   14MOL0     C 1798   1.150   5.229   4.307 -0.3066 -0.5326 -0.3204
   14MOL0     C 1799   1.026   5.307   4.298 -0.5181  0.0462  0.0856
   14MOL0    Cl 1800   0.898   5.215   4.221  0.6285  0.3491 -0.0057
   14MOL0     C 1801   1.973   5.409   3.967 -0.3243  0.8230  0.7777
   14MOL0     C 1802   2.115   5.392   3.967 -0.2953 -0.0312 -0.5854
   14MOL0     O 1803   2.368   5.059   3.907 -0.1517  0.4426 -0.4901
   14MOL0     C 1804   2.592   5.109   3.753 -0.5458  1.2223  0.1493
   14MOL0     C 1805   2.715   5.131   3.687  0.9455 -0.6761  0.1907
   14MOL0     N 1806   2.847   5.749   3.439  0.4370 -0.6247  0.5777
   14MOL0     N 1807   2.870   5.862   3.375 -0.4366  0.1111  0.2148
   14MOL0     C 1808   3.874   6.060   3.368  1.0620  0.0087  0.6961
   14MOL0     C 1809   3.937   5.972   3.459  0.1064 -0.0569 -0.8615
   14MOL0     C 1810   4.203   5.840   3.800  0.6016  0.4562  0.1034
   14MOL0     C 1811   4.156   5.729   3.873  0.0184  0.0959  0.5046
   14MOL0     C 1812   4.228   5.613   3.886 -0.6408 -0.1111 -0.3485
   14MOL0     C 1813   4.353   5.593   3.819  0.1337  0.1659  0.2532
   14MOL0     O 1814   4.418   5.473   3.817  0.0837  0.5110  0.3144
   14MOL0     C 1815   4.337   5.366   3.837  0.7240  0.2793 -0.1943
   14MOL0     C 1816   4.413   5.240   3.804 -0.4844  0.7239 -0.3088
   14MOL0     C 1817   4.547   5.225   3.881 -0.0243 -0.3352  0.0539
   14MOL0     C 1818   4.526   5.126   4.003 -0.2279 -0.3910  0.1565
   14MOL0     C 1819   4.651   5.121   4.073  0.8953 -0.4257 -0.2092
   14MOL0     C 1820   4.756   5.113   4.134  0.4564 -0.7506 -0.5152
   14MOL0     C 1821   4.400   5.698   3.749  0.1295  0.2983 -1.1771
   14MOL0     C 1822   4.332   5.822   3.752  0.0254  0.6003 -0.0119
   14MOL0     H 1823   3.924   6.167   3.733 -0.7452  1.3837  0.4078
   14MOL0     H 1824   3.798   6.307   3.566  0.7926  0.4652 -2.0958
   14MOL0     H 1825   3.708   6.352   3.149  2.1518  0.6436  1.0420
   14MOL0     H 1826   3.803   6.219   3.145  0.7234 -0.6915 -0.2093
   14MOL0     H 1827   3.569   6.171   3.091 -0.0393 -3.1056  0.2310
   14MOL0     H 1828   3.618   6.072   3.227  0.4768  1.2732  1.3192
   14MOL0     H 1829   3.502   6.227   3.377  1.7435 -3.2909 -1.1113
   14MOL0     H 1830   3.457   6.335   3.246  0.3760  0.9071  2.2536
   14MOL0     H 1831   3.347   6.054   3.312 -2.4984 -1.2943 -1.5660
   14MOL0     H 1832   3.272   6.218   3.305  0.7559 -0.0507  1.7831
   14MOL0     H 1833   3.326   6.222   3.048  1.9686 -1.9020 -1.0921
   14MOL0     H 1834   3.362   6.053   3.063  0.1376  0.3621 -1.2859
   14MOL0     H 1835   3.090   6.189   3.124 -0.7461 -0.7620  2.3807
   14MOL0     H 1836   3.130   6.071   2.995 -1.8682  1.3393 -0.1879
   14MOL0     H 1837   3.192   5.913   3.189  0.9659  0.8055  0.6808
   14MOL0     H 1838   3.094   6.006   3.290  0.6333 -2.1367  0.6422
   14MOL0     H 1839   2.979   5.872   3.050 -1.8843 -1.1871  0.3790
   14MOL0     H 1840   2.895   6.000   3.132  0.6788  1.2261 -0.5033
   14MOL0     H 1841   2.976   5.627   3.165 -1.9979 -1.0046 -0.4443
   14MOL0     H 1842   2.826   5.496   3.494  1.6352  1.5444  2.0198
   14MOL0     H 1843   2.882   5.443   3.336 -2.7507  1.7377 -0.5782
   14MOL0     H 1844   3.055   5.517   3.576  1.2350  0.2707  0.6299
   14MOL0     H 1845   3.125   5.516   3.414  0.7866  0.0530  0.4390
   14MOL0     H 1846   3.158   5.289   3.553  0.4667  0.7502  0.8493
   14MOL0     H 1847   3.082   5.262   3.397  1.1504 -5.9548  2.4461
   14MOL0     H 1848   2.978   5.131   3.557  0.6464 -0.0663  2.1748
   14MOL0     H 1849   2.861   5.238   3.472 -0.7591  1.5009  2.1132
   14MOL0     H 1850   2.767   5.438   3.808  3.1561 -0.9605  0.2194
   14MOL0     H 1851   2.620   5.511   3.956  2.8670 -2.7165 -1.8411
   14MOL0     H 1852   2.455   5.464   3.927 -0.0756  0.6878  1.7656
   14MOL0     H 1853   2.554   5.384   4.061 -0.4671  0.4177  0.9782
   14MOL0     H 1854   2.123   5.076   3.844 -0.9994 -0.5131  1.4994
   14MOL0     H 1855   1.895   5.083   3.890  0.3768  0.5706  0.0995
   14MOL0     H 1856   1.725   5.210   3.762  1.7993  1.1942  1.3380
   14MOL0     H 1857   1.676   5.133   3.912 -0.9356 -0.4466 -0.7652
   14MOL0     H 1858   1.542   5.372   3.809  4.6027 -1.0327 -3.2587
   14MOL0     H 1859   1.455   5.220   3.780 -3.8436  2.9123 -0.2128
   14MOL0     H 1860   1.363   5.331   3.971  1.5138  2.3954 -3.9145
   14MOL0     H 1861   1.518   5.329   4.053  0.1789 -1.8085  1.3121
   14MOL0     H 1862   1.364   5.080   3.969 -0.7710  1.2895  0.2167
   14MOL0     H 1863   1.516   5.082   4.061  1.7582  2.4285 -0.3977
   14MOL0     H 1864   1.425   5.188   4.245  2.6327 -2.5694 -0.0216
   14MOL0     H 1865   1.326   5.048   4.193 -1.2775  0.7703 -1.5638
   14MOL0     H 1866   1.238   5.334   4.139 -0.0842 -0.8298 -3.2841
   14MOL0     H 1867   1.153   5.181   4.099  0.0749 -1.3423  0.5870
   14MOL0     H 1868   1.209   5.280   4.383  0.3504  2.4293 -2.5989
   14MOL0     H 1869   1.138   5.123   4.331 -0.2281 -0.6122 -0.6180
   14MOL0     H 1870   1.042   5.398   4.240 -1.8731  0.7145  0.7151
   14MOL0     H 1871   0.988   5.334   4.397 -1.2489 -1.2249  0.1697
   14MOL0     H 1872   1.919   5.494   4.006  0.1028  1.4072  0.1136
   14MOL0     H 1873   2.179   5.471   4.002  1.3406 -1.7071  0.3600
   14MOL0     H 1874   2.537   5.018   3.729  1.6459  0.2816 -1.6696
   14MOL0     H 1875   2.752   5.065   3.610  1.4387 -2.1439  1.6378
   14MOL0     H 1876   3.857   6.041   3.263 -1.3781  2.3916  0.5453
   14MOL0     H 1877   3.965   5.870   3.433 -1.2464 -1.0165  1.1190
   14MOL0     H 1878   4.056   5.735   3.916 -0.7485  1.4305 -1.3454
   14MOL0     H 1879   4.188   5.537   3.952 -1.6221  0.9119  0.2863
   14MOL0     H 1880   4.309   5.372   3.942  0.6720 -1.2442 -0.0949
   14MOL0     H 1881   4.247   5.362   3.774 -0.9997 -2.0026  2.2183
   14MOL0     H 1882   4.425   5.234   3.696 -0.3300  0.3036 -0.2704
   14MOL0     H 1883   4.344   5.162   3.836  1.4547  0.2231  3.1541
   14MOL0     H 1884   4.582   5.322   3.918  1.4341  0.9716 -4.1557
   14MOL0     H 1885   4.633   5.201   3.818  0.6840  3.6051 -0.7205
   14MOL0     H 1886   4.493   5.033   3.956 -2.1634 -0.4036  1.4371
   14MOL0     H 1887   4.454   5.163   4.077  0.9691  0.0718  1.1261
   14MOL0     H 1888   4.850   5.119   4.184 -0.3472  0.4501  0.9248
   14MOL0     H 1889   4.481   5.694   3.677 -1.0543  0.2621 -2.5600
   14MOL0     H 1890   4.381   5.895   3.687  3.1601  0.5144  2.0399
   15MOL0     O 1891   5.713   0.553   0.255 -0.8496 -0.1617 -0.0028
   15MOL0     C 1892   5.702   0.672   0.267  0.9735 -0.1497  0.2840
   15MOL0     O 1893   5.756   0.773   0.186  0.2780  0.0327  0.6789
   15MOL0     C 1894   5.787   0.741   0.052  0.5543  0.6430 -0.3420
   15MOL0     C 1895   5.887   0.812  -0.002  0.4147 -0.8986  0.1097
   15MOL0     C 1896   5.932   0.788  -0.137 -0.2684 -0.0224 -0.1026
   15MOL0     C 1897   5.865   0.690  -0.215 -0.0981  0.2765 -0.2069
   15MOL0     O 1898   5.896   0.641  -0.336 -0.2086 -0.2200  0.2611
   15MOL0     C 1899   6.005   0.686  -0.405 -0.3985  0.8197 -0.6393
   15MOL0     C 1900   5.965   0.690  -0.547  0.3520  0.1195 -0.0372
   15MOL0     C 1901   6.089   0.708  -0.638  0.2601 -0.4993 -0.6550
   15MOL0     C 1902   6.040   0.742  -0.777 -0.1040  0.5904  0.0844
   15MOL0     C 1903   5.975   0.618  -0.840  0.4652 -0.5449  0.2860
   15MOL0     C 1904   5.959   0.628  -0.995  0.0427 -0.2715  0.3158
   15MOL0     C 1905   5.862   0.751  -1.030 -0.9578  0.2588  0.2458
   15MOL0     C 1906   5.916   0.848  -1.140  0.6914 -0.6515 -0.9420
   15MOL0     N 1907   6.016   0.936  -1.079  0.0434 -0.0275 -0.0753
   15MOL0     C 1908   6.004   1.046  -0.996  0.0322 -0.2618  0.7827
   15MOL0     C 1909   6.125   1.086  -0.971 -0.3276  0.2123 -0.3279
   15MOL0     C 1910   6.177   1.196  -0.889  0.4164 -0.4623  0.6532
   15MOL0     C 1911   6.133   1.166  -0.744 -0.6600 -0.7990 -0.0690
   15MOL0     C 1912   6.220   1.271  -0.657  0.8859 -0.4572  0.7943
   15MOL0     C 1913   6.183   1.277  -0.511 -0.0614 -0.4134  0.7213
   15MOL0     O 1914   6.039   1.266  -0.497 -0.0026 -0.0100 -0.4166
   15MOL0     C 1915   5.995   1.340  -0.393  0.1295 -0.2685  0.8946
   15MOL0     C 1916   5.989   1.288  -0.271  0.7571 -0.0263 -0.3019
   15MOL0     C 1917   5.946   1.374  -0.169 -0.5928 -1.2066  0.5797
   15MOL0     C 1918   5.935   1.330  -0.031 -0.2765 -0.0954 -0.8153
   15MOL0     C 1919   5.930   1.520  -0.193  0.5996  0.8601  0.1474
   15MOL0     C 1920   5.892   1.613  -0.088  0.3069 -0.2064 -0.3575
   15MOL0     O 1921   5.760   1.656  -0.090  0.1945  0.0309  0.4535
   15MOL0     C 1922   5.721   1.738   0.011 -0.2422  0.2362  0.0042
   15MOL0     C 1923   5.679   1.873   0.000  0.7573  0.8368 -0.0748
   15MOL0     C 1924   5.630   1.954   0.107 -0.7238 -0.6212  0.1169
   15MOL0     C 1925   5.619   1.896   0.232 -0.4896  0.6139  1.3909
   15MOL0     O 1926   5.564   1.972   0.329 -0.6425  0.2395  0.4169
   15MOL0     C 1927   5.631   1.974   0.461 -0.7483  0.3113 -0.5147
   15MOL0     C 1928   5.610   2.116   0.525 -0.5802  1.3277 -0.6538
   15MOL0     C 1929   5.725   2.210   0.496 -0.4865 -0.3977 -0.2834
   15MOL0     C 1930   5.760   2.265   0.359  1.4580  0.3762  0.0867
   15MOL0     C 1931   5.893   2.343   0.371  0.1133  0.3432 -0.0554
   15MOL0     C 1932   5.941   2.421   0.245 -0.0867  0.9565  0.2205
   15MOL0     C 1933   6.050   2.521   0.263  0.4124  0.2362  0.5615
   15MOL0     C 1934   6.182   2.468   0.304 -0.6307 -0.0372  0.1810
   15MOL0    Cl 1935   6.237   2.360   0.177 -0.2739  0.5695 -0.1208
   15MOL0     C 1936   5.645   1.759   0.241 -0.8002 -1.1090  0.1378
   15MOL0     C 1937   5.702   1.679   0.139 -0.0656  0.0680  0.2019
   15MOL0     O 1938   5.979   1.649  -0.009 -0.1019 -0.0554  0.8213
   15MOL0     C 1939   5.938   1.568  -0.326  0.0501 -0.5198 -0.2927
   15MOL0     C 1940   5.957   1.471  -0.427 -0.8170  0.1711 -0.5798
   15MOL0     N 1941   6.204   0.997  -1.041  0.8145 -0.6044  0.1272
   15MOL0     N 1942   6.140   0.918  -1.114 -0.8205 -0.2616  0.1458
   15MOL0     C 1943   5.768   0.612  -0.157 -0.1449 -1.2768 -0.1731
   15MOL0     C 1944   5.725   0.647  -0.026  1.3108  0.1856  0.2834
   15MOL0     C 1945   5.638   0.715   0.384 -0.1146 -0.5582  0.0273
   15MOL0     C 1946   5.592   0.625   0.479  0.4018  0.0467 -0.1059
   15MOL0     C 1947   5.512   0.660   0.587 -0.3015 -1.1099 -0.6648
   15MOL0     C 1948   5.472   0.795   0.604  0.0730  0.5099 -0.4247
   15MOL0     O 1949   5.398   0.857   0.698  0.3231  0.2931  0.2048
   15MOL0     C 1950   5.342   0.774   0.801 -0.3575  0.6803 -0.4141
   15MOL0     C 1951   5.452   0.739   0.906  0.0117  0.3007 -0.1382
   15MOL0     C 1952   5.395   0.661   1.022 -0.9114 -0.4694 -0.6524
   15MOL0     C 1953   5.498   0.550   1.069 -0.0706  0.4356  0.2711
   15MOL0     C 1954   5.454   0.513   1.205  0.2077  0.0196 -0.5249
   15MOL0     C 1955   5.423   0.493   1.325  0.7834 -0.0474  0.9513
   15MOL0     C 1956   5.520   0.887   0.514 -0.1193 -1.0422  0.4734
   15MOL0     C 1957   5.608   0.852   0.407 -1.2937  0.6666 -0.3129
   15MOL0     H 1958   5.939   0.882   0.062  0.2499 -0.8693  0.2105
   15MOL0     H 1959   6.022   0.832  -0.179 -0.7522  0.6823 -0.4370
   15MOL0     H 1960   6.034   0.787  -0.378 -4.1560  1.4312  1.9115
   15MOL0     H 1961   6.086   0.614  -0.391  0.2090  1.9758  2.3586
   15MOL0     H 1962   5.927   0.590  -0.570  0.3190  0.0601  0.2796
   15MOL0     H 1963   5.879   0.758  -0.549 -0.6688 -1.0981  0.8140
   15MOL0     H 1964   6.140   0.797  -0.600  0.8696 -0.5436 -1.3433
   15MOL0     H 1965   6.152   0.619  -0.627 -2.1517 -2.1013  1.3461
   15MOL0     H 1966   5.981   0.834  -0.773 -0.8775  0.1289 -0.4856
   15MOL0     H 1967   6.131   0.758  -0.836  0.9265 -3.1203  0.4166
   15MOL0     H 1968   6.033   0.529  -0.818 -0.4460 -1.9405 -2.4394
   15MOL0     H 1969   5.878   0.617  -0.790 -0.2748  1.5057 -0.9498
   15MOL0     H 1970   6.054   0.646  -1.045  1.0720  0.2293  2.3486
   15MOL0     H 1971   5.926   0.528  -1.024  0.9453 -1.5845  3.4532
   15MOL0     H 1972   5.777   0.696  -1.072 -0.0496 -0.5964 -0.5250
   15MOL0     H 1973   5.832   0.801  -0.937 -2.6809 -1.4866  0.6900
   15MOL0     H 1974   5.832   0.907  -1.176  1.6920  0.9139 -0.7933
   15MOL0     H 1975   5.970   0.807  -1.226  0.9338  0.8569 -1.5344
   15MOL0     H 1976   5.905   1.079  -0.964 -0.9109 -2.9244  0.9077
   15MOL0     H 1977   6.286   1.196  -0.897  0.2704  0.0370 -2.0090
   15MOL0     H 1978   6.129   1.287  -0.926  1.9860 -0.2853 -1.0274
   15MOL0     H 1979   6.145   1.062  -0.713  2.1233 -0.7213 -0.6401
   15MOL0     H 1980   6.030   1.197  -0.725 -1.3237 -1.8849 -1.6583
   15MOL0     H 1981   6.206   1.374  -0.690  1.1796 -0.3338  1.0460
   15MOL0     H 1982   6.328   1.254  -0.670  0.6845 -1.6796  0.6184
   15MOL0     H 1983   6.217   1.371  -0.466 -0.1703 -1.3681  2.9076
   15MOL0     H 1984   6.233   1.193  -0.461 -1.9760 -0.9837  1.7558
   15MOL0     H 1985   6.015   1.187  -0.242  0.8870  0.8372  2.9966
   15MOL0     H 1986   5.991   1.394   0.038  2.0976 -0.8832 -1.9171
   15MOL0     H 1987   5.836   1.308   0.011 -0.4104 -0.7828 -1.4659
   15MOL0     H 1988   5.986   1.234  -0.031 -1.5758 -0.8104 -1.0412
   15MOL0     H 1989   5.680   1.939  -0.087 -1.6399  1.8865  0.6090
   15MOL0     H 1990   5.595   2.056   0.104  0.7719  0.1091  3.1202
   15MOL0     H 1991   5.596   1.893   0.525  1.0129 -0.9683 -1.0835
   15MOL0     H 1992   5.739   1.960   0.447 -0.9848 -2.5902 -0.0714
   15MOL0     H 1993   5.512   2.161   0.504 -0.1634  2.8060  0.4316
   15MOL0     H 1994   5.597   2.107   0.634  1.6935  0.6161 -0.3908
   15MOL0     H 1995   5.817   2.166   0.538 -0.3194 -0.1354 -0.3738
   15MOL0     H 1996   5.710   2.293   0.566 -2.5318 -1.9611  1.2405
   15MOL0     H 1997   5.777   2.181   0.290  1.7804  1.3370 -1.0265
   15MOL0     H 1998   5.685   2.334   0.320 -0.0318 -1.2292 -0.0467
   15MOL0     H 1999   5.962   2.263   0.400 -1.0118  0.2267  2.5647
   15MOL0     H 2000   5.891   2.409   0.458 -0.5808 -0.6140  0.6794
   15MOL0     H 2001   5.968   2.359   0.159 -3.1429  0.4940 -0.5347
   15MOL0     H 2002   5.858   2.482   0.208 -0.1190  2.3519  2.4275
   15MOL0     H 2003   6.006   2.596   0.329  0.6023  1.3426 -0.5201
   15MOL0     H 2004   6.065   2.578   0.171 -0.4526 -0.9217 -0.3281
   15MOL0     H 2005   6.168   2.413   0.398  0.7561  2.1637  1.7762
   15MOL0     H 2006   6.245   2.556   0.322  2.3999 -1.3481 -2.9053
   15MOL0     H 2007   5.621   1.722   0.341  2.4631 -1.3169  0.9396
   15MOL0     H 2008   5.723   1.573   0.151 -3.1226 -0.8805 -1.6242
   15MOL0     H 2009   5.924   1.667  -0.367  2.8864 -1.0172 -2.8370
   15MOL0     H 2010   5.949   1.491  -0.533  0.2697 -1.7494 -1.0618
   15MOL0     H 2011   5.718   0.534  -0.214 -0.5530 -0.3031 -1.2049
   15MOL0     H 2012   5.645   0.586   0.016  2.4596 -0.9162  0.9240
   15MOL0     H 2013   5.630   0.523   0.477  0.6482  0.1068  0.8823
   15MOL0     H 2014   5.483   0.575   0.649 -0.1202  0.1271  1.1945
   15MOL0     H 2015   5.264   0.832   0.851  2.1480  3.1845  0.8375
   15MOL0     H 2016   5.293   0.687   0.755 -0.1541  1.5319 -2.3177
   15MOL0     H 2017   5.494   0.832   0.945  0.7894 -0.6511  1.4571
   15MOL0     H 2018   5.536   0.695   0.852  1.3675  2.0080  0.4974
   15MOL0     H 2019   5.297   0.625   0.990 -0.7157  0.3467 -2.2697
   15MOL0     H 2020   5.372   0.727   1.106 -2.3984 -0.9378 -0.6706
   15MOL0     H 2021   5.601   0.587   1.061 -0.1195  0.4964 -0.0962
   15MOL0     H 2022   5.487   0.464   1.002 -1.6844  2.7272 -2.6840
   15MOL0     H 2023   5.380   0.463   1.418 -1.4963 -2.6299 -0.7935
   15MOL0     H 2024   5.488   0.991   0.513  0.4102 -0.8717  0.9025
   15MOL0     H 2025   5.649   0.930   0.344  1.9214 -1.0797 -0.5455
   16MOL0     O 2026   5.288   1.307   4.557  0.8402  0.0178 -0.0760
   16MOL0     C 2027   5.327   1.196   4.595 -0.0816 -0.3094  0.4528
   16MOL0     O 2028   5.247   1.101   4.646  0.1199  0.7368  0.6380
   16MOL0     C 2029   5.111   1.100   4.651  0.0451 -0.2637  0.3785
   16MOL0     C 2030   5.038   1.036   4.754 -0.3246 -0.9681  0.6173
   16MOL0     C 2031   4.902   1.041   4.752 -0.1835  1.3103  0.3190
   16MOL0     C 2032   4.838   1.094   4.641  0.7881  0.5213 -0.3890
   16MOL0     O 2033   4.694   1.116   4.626 -0.0658  0.3494 -0.0967
   16MOL0     C 2034   4.610   1.036   4.713  0.3445  0.8544  0.2342
   16MOL0     C 2035   4.464   1.038   4.657  0.0197 -0.1986 -0.6882
   16MOL0     C 2036   4.417   1.177   4.641  0.6750  0.0646 -0.3067
   16MOL0     C 2037   4.264   1.163   4.605  0.4325 -0.3205  1.0352
   16MOL0     C 2038   4.181   1.285   4.620 -0.1707  0.6332  0.3618
   16MOL0     C 2039   4.224   1.398   4.538  0.5058 -1.6155  1.0202
   16MOL0     C 2040   4.154   1.397   4.401 -0.3734 -0.2136  0.4721
   16MOL0     C 2041   4.208   1.507   4.307 -1.1781 -0.5818 -0.2939
   16MOL0     N 2042   4.180   1.652   4.332  0.7638 -0.2086  0.5832
   16MOL0     C 2043   4.118   1.731   4.244  0.1339 -0.1520 -0.8166
   16MOL0     C 2044   4.127   1.854   4.306  0.1331 -0.2992 -0.4170
   16MOL0     C 2045   4.100   1.987   4.238  0.7549 -0.3450  0.3449
   16MOL0     C 2046   4.228   2.031   4.150  0.0779 -1.0804  0.1360
   16MOL0     C 2047   4.362   2.085   4.218 -0.2145  0.2417  0.2508
   16MOL0     C 2048   4.351   2.225   4.269  0.2615 -0.6875  0.3438
   16MOL0     O 2049   4.460   2.307   4.225  0.2335 -0.2187 -0.0708
   16MOL0     C 2050   4.578   2.293   4.283  0.3790 -0.4004  0.1763
   16MOL0     C 2051   4.591   2.342   4.410 -0.8305 -0.5880  0.7096
   16MOL0     C 2052   4.708   2.329   4.481 -0.6508  0.0868  0.8441
   16MOL0     C 2053   4.703   2.394   4.623  0.7687 -0.2907  0.1994
   16MOL0     C 2054   4.826   2.275   4.428 -0.6307  0.5700 -0.2233
   16MOL0     C 2055   4.968   2.269   4.493  0.3597 -0.0209  0.7158
   16MOL0     O 2056   4.967   2.280   4.629 -0.9624 -0.5490  0.4211
   16MOL0     C 2057   5.091   2.301   4.688  0.8081 -0.5226  0.2892
   16MOL0     C 2058   5.146   2.203   4.766 -0.1297 -0.2791 -0.3345
   16MOL0     C 2059   5.251   2.233   4.839 -0.2141  0.1070  0.0903
   16MOL0     C 2060   5.312   2.362   4.849  0.5147 -0.0274 -0.5912
   16MOL0     O 2061   5.418   2.395   4.930  0.5759  0.4262 -0.2984
   16MOL0     C 2062   5.423   2.337   5.056 -0.0148 -0.3239 -0.2292
   16MOL0     C 2063   5.542   2.399   5.122 -1.1905 -0.5639 -0.7359
   16MOL0     C 2064   5.571   2.343   5.266 -0.4562 -0.7773  1.7531
   16MOL0     C 2065   5.678   2.419   5.342 -0.3287 -0.3279  0.0924
   16MOL0     C 2066   5.715   2.367   5.478  0.6194 -0.5543 -0.3386
   16MOL0     C 2067   5.816   2.469   5.539  0.0732 -0.2145 -0.3691
   16MOL0     C 2068   5.868   2.426   5.677 -0.5443  0.5908 -0.3381
   16MOL0     C 2069   5.943   2.297   5.674 -0.5979 -0.5090  0.2883
   16MOL0    Cl 2070   6.101   2.321   5.581  0.4792  0.3418  0.2089
   16MOL0     C 2071   5.258   2.462   4.767  0.2480  0.3380 -0.1986
   16MOL0     C 2072   5.145   2.428   4.691  0.4716  0.1455 -0.1692
   16MOL0     O 2073   5.064   2.241   4.421 -1.1847 -0.1941  0.3012
   16MOL0     C 2074   4.814   2.222   4.290 -1.0212  0.6622 -0.1593
   16MOL0     C 2075   4.688   2.230   4.226  0.1526  0.4206 -0.4574
   16MOL0     N 2076   4.188   1.847   4.424 -0.9124  0.7135 -0.1596
   16MOL0     N 2077   4.216   1.723   4.442 -0.0256 -0.2660  0.8152
   16MOL0     C 2078   4.907   1.147   4.536  0.4610 -0.0889 -0.3967
   16MOL0     C 2079   5.043   1.148   4.546 -0.0465  0.2613  1.0574
   16MOL0     C 2080   5.471   1.162   4.617  0.3809  0.5892  0.6052
   16MOL0     C 2081   5.526   1.028   4.636  0.1895 -0.0046  0.0284
   16MOL0     C 2082   5.657   1.011   4.650 -0.0979  0.2926 -0.0527
   16MOL0     C 2083   5.755   1.119   4.658  0.5846  0.0393 -0.1253
   16MOL0     O 2084   5.895   1.115   4.681 -0.0325  0.0548 -0.1917
   16MOL0     C 2085   5.951   0.987   4.732  0.2528  0.1992  0.1100
   16MOL0     C 2086   5.987   0.889   4.615 -0.1139 -0.1511  0.5275
   16MOL0     C 2087   6.078   0.954   4.502 -0.3248  0.4855  0.2796
   16MOL0     C 2088   6.225   0.938   4.526 -0.8614  0.1646  0.1820
   16MOL0     C 2089   6.282   1.054   4.585 -0.1980  0.2639 -0.7877
   16MOL0     C 2090   6.341   1.151   4.606 -0.5535 -0.8869 -0.6656
   16MOL0     C 2091   5.703   1.247   4.637 -0.4421 -0.1743  0.4986
   16MOL0     C 2092   5.573   1.270   4.596 -0.1437  0.6054  0.0117
   16MOL0     H 2093   5.088   0.994   4.841 -3.5835  0.8167  3.6255
   16MOL0     H 2094   4.854   1.002   4.841 -0.3434 -2.1554 -1.1223
   16MOL0     H 2095   4.640   0.931   4.710  1.1627  1.0265  1.7232
   16MOL0     H 2096   4.593   1.065   4.817 -2.3412 -2.5096  0.9251
   16MOL0     H 2097   4.451   0.991   4.560 -0.6800  1.3036 -1.3505
   16MOL0     H 2098   4.401   0.989   4.732  0.1743  0.4479 -0.1242
   16MOL0     H 2099   4.425   1.234   4.734 -1.1957 -0.6352  0.3410
   16MOL0     H 2100   4.467   1.225   4.557 -2.5447  1.9981 -1.2909
   16MOL0     H 2101   4.256   1.131   4.501  0.2189  0.7969  0.6915
   16MOL0     H 2102   4.218   1.092   4.674 -3.7423  1.0274 -0.0792
   16MOL0     H 2103   4.076   1.259   4.601 -0.2811  1.1971  0.1920
   16MOL0     H 2104   4.186   1.309   4.727  0.2277 -0.5663  0.6353
   16MOL0     H 2105   4.183   1.488   4.585  2.5084  0.1759 -0.3880
   16MOL0     H 2106   4.332   1.406   4.519 -0.2276  0.5016 -3.5225
   16MOL0     H 2107   4.181   1.297   4.366  1.5741 -0.1240  1.5743
   16MOL0     H 2108   4.046   1.403   4.419 -0.4718  0.8569 -0.3723
   16MOL0     H 2109   4.190   1.488   4.201  0.1851  0.0594 -0.6734
   16MOL0     H 2110   4.318   1.509   4.306 -1.0728 -0.1893  2.5913
   16MOL0     H 2111   4.102   1.708   4.139  0.0455 -0.3737 -0.7559
   16MOL0     H 2112   4.016   1.975   4.169  0.4692  1.3273  0.3541
   16MOL0     H 2113   4.081   2.075   4.300 -0.0290 -0.6808  0.5889
   16MOL0     H 2114   4.199   2.109   4.079  1.4137  0.4318  1.1745
   16MOL0     H 2115   4.246   1.937   4.098 -1.0613 -1.6467  0.7171
   16MOL0     H 2116   4.439   2.082   4.141 -0.1029 -0.0044  0.3715
   16MOL0     H 2117   4.394   2.015   4.295 -0.9191 -0.6526 -0.2572
   16MOL0     H 2118   4.339   2.240   4.377  0.2348  2.2777  0.0263
   16MOL0     H 2119   4.268   2.284   4.230  0.9337  0.1313  0.0988
   16MOL0     H 2120   4.502   2.381   4.459 -0.4870 -0.1514  1.0015
   16MOL0     H 2121   4.709   2.313   4.697 -2.2934 -2.5897 -1.8331
   16MOL0     H 2122   4.782   2.470   4.625 -1.0692  2.6896 -7.1207
   16MOL0     H 2123   4.613   2.452   4.644  0.2505 -1.3133  0.8369
   16MOL0     H 2124   5.117   2.098   4.762 -0.1549 -0.2583 -0.6734
   16MOL0     H 2125   5.301   2.150   4.889  1.3155 -1.5925 -3.8628
   16MOL0     H 2126   5.333   2.365   5.112 -0.4369 -1.0574 -0.5202
   16MOL0     H 2127   5.428   2.228   5.049  3.1742 -0.3971  1.5026
   16MOL0     H 2128   5.628   2.374   5.060 -0.5264  0.8253 -0.4139
   16MOL0     H 2129   5.528   2.507   5.130 -1.9646 -0.7572  1.2966
   16MOL0     H 2130   5.601   2.238   5.262  2.5444 -0.2087  4.7849
   16MOL0     H 2131   5.474   2.340   5.318 -0.5600 -0.4028  1.5844
   16MOL0     H 2132   5.765   2.424   5.275  0.8467 -2.5874  1.3589
   16MOL0     H 2133   5.638   2.521   5.344 -0.1279  0.0029 -4.1065
   16MOL0     H 2134   5.766   2.270   5.478 -2.6002 -2.3875  1.2505
   16MOL0     H 2135   5.623   2.374   5.536 -0.0531  2.8822 -1.5597
   16MOL0     H 2136   5.898   2.481   5.469 -1.6692 -3.3979 -3.2623
   16MOL0     H 2137   5.759   2.562   5.548  1.6042  0.6426  1.1581
   16MOL0     H 2138   5.791   2.417   5.755  1.1609  2.3558  1.6704
   16MOL0     H 2139   5.927   2.509   5.716 -0.5716 -0.8038  2.9744
   16MOL0     H 2140   5.883   2.216   5.631  0.4198 -0.5352 -1.1602
   16MOL0     H 2141   5.966   2.276   5.778  1.0902 -4.8197 -0.7708
   16MOL0     H 2142   5.277   2.569   4.767 -1.0213  0.5860 -0.6941
   16MOL0     H 2143   5.104   2.510   4.633 -2.8000 -1.9719 -1.1721
   16MOL0     H 2144   4.894   2.166   4.242  0.0711  1.0451  1.1206
   16MOL0     H 2145   4.689   2.180   4.130  0.8136  2.5059 -1.6018
   16MOL0     H 2146   4.854   1.184   4.449 -3.4352  0.4128  1.9814
   16MOL0     H 2147   5.096   1.193   4.462 -1.6134 -0.5565 -0.4192
   16MOL0     H 2148   5.458   0.943   4.644  1.2894 -0.7682  1.8895
   16MOL0     H 2149   5.683   0.907   4.667 -1.6292 -0.4891 -2.0650
   16MOL0     H 2150   6.048   1.024   4.766  1.8325 -2.1433 -1.5346
   16MOL0     H 2151   5.883   0.932   4.797  0.1876  0.1975  0.0409
   16MOL0     H 2152   5.891   0.861   4.572 -0.4346  0.7399  0.6376
   16MOL0     H 2153   6.026   0.792   4.647  2.7392  1.3320  1.9187
   16MOL0     H 2154   6.055   1.061   4.491 -0.1522  0.4958  0.0074
   16MOL0     H 2155   6.059   0.916   4.401  0.0458  3.4736 -1.0166
   16MOL0     H 2156   6.272   0.913   4.430 -2.1520 -2.0711  0.0823
   16MOL0     H 2157   6.249   0.857   4.596 -0.4184 -1.7690 -2.1087
   16MOL0     H 2158   6.396   1.241   4.622  0.0089 -1.2550 -0.5205
   16MOL0     H 2159   5.781   1.322   4.635  0.4562 -1.0971 -0.5045
   16MOL0     H 2160   5.544   1.371   4.570 -0.6172 -0.2744 -3.2070
   17MOL0     O 2161   3.517  10.914   4.726 -0.8078  0.2001  0.8352
   17MOL0     C 2162   3.453  10.951   4.631  0.4037  0.5265  1.0647
   17MOL0     O 2163   3.371  11.059   4.630 -0.8334  0.1836 -0.2411
   17MOL0     C 2164   3.366  11.151   4.731 -0.5301  0.4944 -0.9419
   17MOL0     C 2165   3.279  11.252   4.701 -0.6918 -0.3978  0.8277
   17MOL0     C 2166   3.244  11.348   4.789  0.2082 -0.5599 -0.6623
   17MOL0     C 2167   3.284  11.355   4.919 -0.5920 -0.1780  0.3649
   17MOL0     O 2168   3.256  11.459   5.013  0.6429  1.0358 -0.0117
   17MOL0     C 2169   3.157  11.548   4.979 -0.4851 -1.1277 -0.2112
   17MOL0     C 2170   3.021  11.502   4.949  0.5071 -0.1015  0.7073
   17MOL0     C 2171   2.978  11.385   5.042 -0.2606  0.0878  0.5003
   17MOL0     C 2172   2.828  11.356   5.028  0.0483 -0.3905  0.6855
   17MOL0     C 2173   2.797  11.264   5.147 -0.3385 -0.1823  0.0547
   17MOL0     C 2174   2.649  11.206   5.111 -0.1431 -1.2044 -0.7091
   17MOL0     C 2175   2.596  11.095   5.202 -0.6471  0.8769 -0.0179
   17MOL0     C 2176   2.638  10.951   5.165  0.3834 -0.3786  0.4190
   17MOL0     N 2177   2.569  10.848   5.246  0.5887 -0.1203  0.7473
   17MOL0     C 2178   2.466  10.870   5.330  0.4341  0.4375 -0.1885
   17MOL0     C 2179   2.422  10.750   5.375 -0.5595 -0.6579  0.1978
   17MOL0     C 2180   2.304  10.741   5.468 -0.1148  0.1462 -0.1780
   17MOL0     C 2181   2.181  10.822   5.423  1.2884  1.3150 -0.4979
   17MOL0     C 2182   2.076  10.786   5.533  0.1443  0.7319  1.0817
   17MOL0     C 2183   1.952  10.881   5.532 -0.5103 -0.2362  0.0895
   17MOL0     O 2184   1.839  10.834   5.451  0.1686 -0.4940 -0.0332
   17MOL0     C 2185   1.724  10.892   5.492  0.1268  0.2626  0.3236
   17MOL0     C 2186   1.707  10.994   5.584  0.4189 -0.7633 -0.4577
   17MOL0     C 2187   1.583  11.046   5.618  0.7037 -0.7625 -0.1910
   17MOL0     C 2188   1.568  11.170   5.708  1.1207  0.5082 -0.0487
   17MOL0     C 2189   1.469  10.984   5.555  0.1101  0.0498 -0.2460
   17MOL0     C 2190   1.329  11.033   5.582  0.3393 -0.1956 -0.1758
   17MOL0     O 2191   1.253  11.036   5.472  0.3127 -0.7705 -0.2320
   17MOL0     C 2192   1.116  11.033   5.488 -0.4700 -0.0667  0.0079
   17MOL0     C 2193   1.053  10.914   5.535  0.4407 -0.1331  0.4728
   17MOL0     C 2194   0.907  10.911   5.516 -0.7392 -0.2154  0.7056
   17MOL0     C 2195   0.834  11.020   5.461  0.5068  0.5342  0.0239
   17MOL0     O 2196   0.696  11.003   5.465 -0.7725 -0.5550  0.4913
   17MOL0     C 2197   0.621  11.058   5.357 -0.1061  0.2669  0.3283
   17MOL0     C 2198   0.472  11.030   5.392  0.1436  0.5881  0.1979
   17MOL0     C 2199   0.378  11.060   5.278 -0.4000 -0.3563 -0.5289
   17MOL0     C 2200   0.235  11.015   5.299 -1.4377 -0.2445  0.6397
   17MOL0     C 2201   0.161  11.084   5.411 -0.1979  0.8957  0.2220
   17MOL0     C 2202   0.012  11.056   5.378  0.0414 -0.1924 -0.0496
   17MOL0     C 2203  -0.079  11.126   5.475 -0.6813  0.2200  0.1401
   17MOL0     C 2204  -0.218  11.141   5.415  0.1216 -1.6563  0.3951
   17MOL0    Cl 2205  -0.321  11.186   5.549  0.6251 -0.1060  0.2889
   17MOL0     C 2206   0.904  11.134   5.420  0.9585  0.3883 -0.1169
   17MOL0     C 2207   1.043  11.136   5.425 -0.1314 -0.4399  0.9658
   17MOL0     O 2208   1.289  11.041   5.700  0.4763  0.3439  0.4077
   17MOL0     C 2209   1.488  10.887   5.455 -0.5682  0.1142  0.6404
   17MOL0     C 2210   1.613  10.833   5.428 -0.0393  0.0963 -0.2954
   17MOL0     N 2211   2.502  10.654   5.316  1.2312  0.3866 -0.7679
   17MOL0     N 2212   2.585  10.708   5.238 -0.0982 -0.3498 -0.5359
   17MOL0     C 2213   3.372  11.247   4.957  0.7227 -0.5958 -0.2397
   17MOL0     C 2214   3.407  11.146   4.869 -1.2488  0.4887 -0.9166
   17MOL0     C 2215   3.436  10.871   4.510  0.0172 -0.3880 -1.0511
   17MOL0     C 2216   3.483  10.743   4.501  0.1524  0.7011 -0.4689
   17MOL0     C 2217   3.466  10.658   4.384  0.4044 -1.3037 -0.3717
   17MOL0     C 2218   3.372  10.694   4.286 -1.2353 -0.1303 -0.4220
   17MOL0     O 2219   3.329  10.618   4.182 -0.4709  0.1515  0.5376
   17MOL0     C 2220   3.383  10.488   4.150  0.4659 -0.1921  0.0163
   17MOL0     C 2221   3.281  10.385   4.199  0.5392  0.1092  0.0580
   17MOL0     C 2222   3.312  10.232   4.184 -0.8415 -0.4905 -0.9895
   17MOL0     C 2223   3.208  10.133   4.247  0.3514 -1.2704  0.5408
   17MOL0     C 2224   3.188  10.015   4.159 -1.0123 -0.2081 -0.2920
   17MOL0     C 2225   3.153   9.930   4.083 -0.2923 -0.9491  0.7495
   17MOL0     C 2226   3.317  10.829   4.298 -0.4246  0.0477  0.3806
   17MOL0     C 2227   3.351  10.916   4.402  0.8153 -0.0688  0.1074
   17MOL0     H 2228   3.237  11.271   4.603  3.7582  0.3336 -1.2063
   17MOL0     H 2229   3.185  11.434   4.760  2.2723  0.3730 -2.4431
   17MOL0     H 2230   3.149  11.618   5.062 -2.4462  2.1223 -2.8572
   17MOL0     H 2231   3.197  11.606   4.895 -1.8442  1.2882  0.7180
   17MOL0     H 2232   2.951  11.585   4.959  0.0144 -0.1744 -1.6983
   17MOL0     H 2233   3.006  11.467   4.847  0.2084  0.8605  0.4146
   17MOL0     H 2234   3.045  11.299   5.034  0.1336  0.5604 -2.1713
   17MOL0     H 2235   2.993  11.428   5.141  0.4023 -0.8094  0.7993
   17MOL0     H 2236   2.754  11.437   5.026 -1.2634 -1.5427  0.2281
   17MOL0     H 2237   2.808  11.288   4.945 -1.4825 -0.7902  1.3438
   17MOL0     H 2238   2.869  11.183   5.155 -1.0152 -0.6778  1.4320
   17MOL0     H 2239   2.788  11.307   5.247 -3.3632 -2.9114  1.1660
   17MOL0     H 2240   2.578  11.288   5.122  1.8619  0.5931 -0.3263
   17MOL0     H 2241   2.646  11.167   5.009  2.0271  0.9933 -1.7336
   17MOL0     H 2242   2.632  11.116   5.303 -2.1086  0.2776  0.6561
   17MOL0     H 2243   2.488  11.098   5.189 -0.7466  0.6376  0.7401
   17MOL0     H 2244   2.747  10.945   5.174  0.4546 -1.8813 -1.0076
   17MOL0     H 2245   2.605  10.937   5.062 -0.2128 -1.8812  0.7793
   17MOL0     H 2246   2.419  10.964   5.357  1.8229  0.3866  2.7639
   17MOL0     H 2247   2.268  10.637   5.472 -0.0571  0.1398  0.3570
   17MOL0     H 2248   2.335  10.773   5.568 -0.0472 -0.0696 -0.1288
   17MOL0     H 2249   2.146  10.795   5.323  0.0293  1.7226 -0.1824
   17MOL0     H 2250   2.198  10.927   5.447 -3.4130  1.8481  1.6467
   17MOL0     H 2251   2.120  10.787   5.633 -0.5507 -1.3282  1.4674
   17MOL0     H 2252   2.044  10.682   5.520 -1.2402  0.9084  2.7892
   17MOL0     H 2253   1.979  10.985   5.509 -0.3122 -0.0719  0.9986
   17MOL0     H 2254   1.935  10.878   5.640  0.9781 -0.6345  0.3390
   17MOL0     H 2255   1.788  11.055   5.621 -1.3687  1.0166  0.7692
   17MOL0     H 2256   1.664  11.191   5.755  2.0012  0.8437 -1.8954
   17MOL0     H 2257   1.525  11.247   5.643  0.0478  0.1660  0.2322
   17MOL0     H 2258   1.512  11.156   5.801  0.8623  1.4107 -0.0604
   17MOL0     H 2259   1.114  10.836   5.580  3.7889  2.0161  0.0518
   17MOL0     H 2260   0.855  10.819   5.541  0.5021 -1.4406 -0.9809
   17MOL0     H 2261   0.632  11.167   5.355 -3.1487  0.7112  2.2848
   17MOL0     H 2262   0.660  11.015   5.264 -1.2142 -2.2037  0.9217
   17MOL0     H 2263   0.460  10.923   5.413 -1.0374  0.6651 -0.0332
   17MOL0     H 2264   0.457  11.092   5.482  0.0247  0.7248  0.0849
   17MOL0     H 2265   0.411  11.013   5.185  1.0939  2.1494 -1.3786
   17MOL0     H 2266   0.379  11.168   5.260 -0.4811 -0.4534 -1.1279
   17MOL0     H 2267   0.186  11.038   5.204 -0.4444 -1.6501 -0.2529
   17MOL0     H 2268   0.233  10.906   5.311  3.4072 -0.6602 -0.4197
   17MOL0     H 2269   0.188  11.190   5.400 -0.4491  0.7523 -2.2681
   17MOL0     H 2270   0.191  11.044   5.509 -1.4308 -1.1961 -0.1907
   17MOL0     H 2271  -0.006  11.094   5.276 -0.8100  1.6725  0.7478
   17MOL0     H 2272  -0.012  10.950   5.391  3.7927 -1.0511  1.0540
   17MOL0     H 2273  -0.033  11.222   5.499  0.9152 -0.4099 -0.2791
   17MOL0     H 2274  -0.088  11.053   5.557  0.5498  0.5837  0.6203
   17MOL0     H 2275  -0.257  11.057   5.357 -2.8123 -0.0365 -0.2097
   17MOL0     H 2276  -0.217  11.230   5.351 -0.9834 -1.7750  0.1779
   17MOL0     H 2277   0.848  11.220   5.385  1.6499 -0.3828 -3.3976
   17MOL0     H 2278   1.100  11.221   5.389 -2.5001  0.5786 -0.6431
   17MOL0     H 2279   1.410  10.842   5.394 -1.0974  0.6362  0.9147
   17MOL0     H 2280   1.624  10.775   5.337  1.4135  1.3608 -0.9532
   17MOL0     H 2281   3.430  11.267   5.047  0.0766  1.4664 -0.2438
   17MOL0     H 2282   3.485  11.075   4.895 -0.6629  0.8886 -1.5264
   17MOL0     H 2283   3.543  10.702   4.582  2.3105  1.0178 -1.8201
   17MOL0     H 2284   3.528  10.569   4.393  0.2747 -1.6751 -2.7530
   17MOL0     H 2285   3.385  10.489   4.040  4.5291  0.7404 -0.0431
   17MOL0     H 2286   3.483  10.468   4.188  0.7048  1.2308  0.1992
   17MOL0     H 2287   3.184  10.404   4.153  0.1285 -2.7158 -0.4697
   17MOL0     H 2288   3.269  10.417   4.303 -0.1573  4.0505 -1.0752
   17MOL0     H 2289   3.413  10.216   4.222  1.3096  3.6705 -4.0363
   17MOL0     H 2290   3.307  10.224   4.075 -2.7399 -0.2467 -0.9547
   17MOL0     H 2291   3.114  10.182   4.272  0.4371  0.1236 -1.6372
   17MOL0     H 2292   3.240  10.079   4.337  1.3408  0.5268  1.3244
   17MOL0     H 2293   3.127   9.862   4.005  0.2380  0.3084 -0.5671
   17MOL0     H 2294   3.238  10.847   4.226  0.5282 -1.6682 -1.1710
   17MOL0     H 2295   3.310  11.017   4.401 -1.1556 -0.8315 -1.2000
   18MOL0     O 2296   4.053  10.285   6.003 -0.2799  0.3746  0.1762
   18MOL0     C 2297   4.094  10.270   5.891 -0.5766  0.0167 -1.6139
   18MOL0     O 2298   4.058  10.172   5.811  0.1605 -0.8398  1.1548
   18MOL0     C 2299   3.968  10.072   5.838  0.7243 -0.6233 -0.0349
   18MOL0     C 2300   3.998   9.933   5.827 -0.7207 -0.5219  0.4025
   18MOL0     C 2301   3.899   9.836   5.854  0.1213 -0.2513  0.3929
   18MOL0     C 2302   3.766   9.872   5.886  0.0985 -0.2171 -0.3880
   18MOL0     O 2303   3.664   9.775   5.877 -0.7779  0.2600  0.2872
   18MOL0     C 2304   3.603   9.797   5.746 -1.4366  0.8486  1.2583
   18MOL0     C 2305   3.466   9.732   5.735  0.0644  0.8991  0.0443
   18MOL0     C 2306   3.474   9.579   5.761 -0.2090 -0.3387  0.1062
   18MOL0     C 2307   3.341   9.516   5.739 -0.0228 -0.7827 -0.2414
   18MOL0     C 2308   3.353   9.365   5.708 -1.0421 -0.0757  0.9767
   18MOL0     C 2309   3.216   9.301   5.689 -0.2751 -0.9626 -0.4870
   18MOL0     C 2310   3.222   9.155   5.639  0.2166 -1.0809 -0.4494
   18MOL0     C 2311   3.082   9.088   5.627  0.3883  0.3412  0.0417
   18MOL0     N 2312   2.995   9.156   5.527 -0.0426 -0.9811 -0.5245
   18MOL0     C 2313   2.898   9.260   5.548 -0.6120  0.3332  0.0280
   18MOL0     C 2314   2.849   9.298   5.430  0.5176  0.6739 -0.5408
   18MOL0     C 2315   2.744   9.403   5.411 -0.4315 -0.4080  0.3433
   18MOL0     C 2316   2.602   9.343   5.422 -0.8327  0.1660  0.0987
   18MOL0     C 2317   2.585   9.303   5.565 -0.1045 -0.0835 -0.2404
   18MOL0     C 2318   2.440   9.276   5.614 -0.4784  0.2429 -0.4205
   18MOL0     O 2319   2.358   9.385   5.581 -0.6605  0.4695 -0.6524
   18MOL0     C 2320   2.223   9.380   5.598 -0.1345 -0.1746  0.2944
   18MOL0     C 2321   2.156   9.503   5.564 -0.0333 -0.8247 -0.0245
   18MOL0     C 2322   2.021   9.523   5.609  0.1080 -0.2670 -0.5167
   18MOL0     C 2323   1.970   9.664   5.585  0.2788 -0.1845 -0.2652
   18MOL0     C 2324   1.939   9.412   5.650 -0.6456  0.1126  0.7208
   18MOL0     C 2325   1.799   9.417   5.687  0.7366  0.0384  0.0115
   18MOL0     O 2326   1.745   9.300   5.720 -1.2352 -0.3435  0.2208
   18MOL0     C 2327   1.627   9.298   5.777 -0.0569  0.2967  0.3143
   18MOL0     C 2328   1.518   9.337   5.709 -0.3672  0.1769 -0.2510
   18MOL0     C 2329   1.393   9.351   5.772  0.2420  0.2084 -0.1099
   18MOL0     C 2330   1.375   9.325   5.910 -1.2518  0.2904  0.6552
   18MOL0     O 2331   1.246   9.347   5.964  0.2351  0.1070 -0.1388
   18MOL0     C 2332   1.210   9.249   6.059  0.0653 -0.3767  0.4896
   18MOL0     C 2333   1.090   9.274   6.153 -0.2805 -0.0568  0.2188
   18MOL0     C 2334   0.992   9.163   6.138  0.4130 -1.4711  0.3093
   18MOL0     C 2335   0.860   9.205   6.211  0.3729  0.7735 -0.3284
   18MOL0     C 2336   0.759   9.086   6.230 -0.7854 -0.1101  0.2502
   18MOL0     C 2337   0.644   9.117   6.321 -0.3316  0.6097 -0.1020
   18MOL0     C 2338   0.550   8.996   6.330 -0.1668  0.5875  0.0813
   18MOL0     C 2339   0.468   8.977   6.460 -0.8229  0.2558 -0.6448
   18MOL0    Cl 2340   0.353   9.107   6.468 -0.1450  0.2804 -0.1342
   18MOL0     C 2341   1.491   9.266   5.973 -0.1607 -0.4673 -0.9612
   18MOL0     C 2342   1.618   9.259   5.911 -0.6382  1.0361 -0.8378
   18MOL0     O 2343   1.747   9.526   5.719 -0.0076 -0.0966 -0.2288
   18MOL0     C 2344   2.005   9.288   5.666  0.0014 -0.2600  0.3701
   18MOL0     C 2345   2.142   9.274   5.648 -0.3233  0.2683  0.3738
   18MOL0     N 2346   2.896   9.208   5.340 -1.0143  0.5111  0.1699
   18MOL0     N 2347   2.983   9.121   5.396  0.2792 -0.4265  0.1243
   18MOL0     C 2348   3.741  10.007   5.906  0.1303  0.1130  0.6922
   18MOL0     C 2349   3.836  10.101   5.877  0.2496 -0.3606  0.9824
   18MOL0     C 2350   4.199  10.366   5.839 -1.2791 -0.9722  0.2875
   18MOL0     C 2351   4.291  10.336   5.734  0.4239 -0.0131 -0.1590
   18MOL0     C 2352   4.376  10.439   5.696  0.3446 -0.1381 -0.9746
   18MOL0     C 2353   4.379  10.566   5.754  0.3773 -0.1106  0.3101
   18MOL0     O 2354   4.476  10.641   5.688 -0.1857  0.0170 -0.0640
   18MOL0     C 2355   4.511  10.764   5.748  1.1340  1.0009 -0.0822
   18MOL0     C 2356   4.649  10.802   5.709 -0.0525 -0.6797 -0.3979
   18MOL0     C 2357   4.653  10.893   5.586 -0.7123 -0.0129  0.1121
   18MOL0     C 2358   4.783  10.942   5.534 -0.0364 -0.1497  0.4165
   18MOL0     C 2359   4.762  11.046   5.423  0.3047  0.3991 -0.3963
   18MOL0     C 2360   4.726  11.110   5.327 -0.1040  0.3156  0.4630
   18MOL0     C 2361   4.287  10.596   5.854  0.2143  0.0080 -0.6438
   18MOL0     C 2362   4.208  10.495   5.904  0.0743  0.3950  0.1489
   18MOL0     H 2363   4.101   9.905   5.807 -1.3245 -1.4167 -1.7455
   18MOL0     H 2364   3.928   9.732   5.838  1.3455  0.0726  0.3945
   18MOL0     H 2365   3.584   9.905   5.737 -1.1856  0.8805  1.1040
   18MOL0     H 2366   3.668   9.767   5.663 -1.2352  1.7991  1.0494
   18MOL0     H 2367   3.395   9.774   5.808 -1.5314  1.6885 -1.8652
   18MOL0     H 2368   3.430   9.745   5.633  1.0544 -1.2365 -0.6317
   18MOL0     H 2369   3.550   9.540   5.692 -0.3747  0.5728 -0.6148
   18MOL0     H 2370   3.525   9.547   5.852 -0.5162 -0.1534  0.3444
   18MOL0     H 2371   3.282   9.539   5.827 -0.2056  0.6708 -0.7255
   18MOL0     H 2372   3.292   9.566   5.655 -0.0878  0.3844  0.4828
   18MOL0     H 2373   3.418   9.344   5.623  0.3596 -1.0084  2.2213
   18MOL0     H 2374   3.404   9.327   5.796  3.0159  0.2952 -0.9953
   18MOL0     H 2375   3.162   9.305   5.784  1.9121 -0.7204  0.8279
   18MOL0     H 2376   3.159   9.361   5.618  2.9635 -0.7364 -3.1763
   18MOL0     H 2377   3.262   9.163   5.537  1.0825 -0.0197 -0.0539
   18MOL0     H 2378   3.287   9.098   5.706  4.0242 -0.1844 -2.9915
   18MOL0     H 2379   3.047   9.079   5.731  2.0310  0.6073  0.6596
   18MOL0     H 2380   3.093   8.983   5.598  0.2874  0.6221 -1.0406
   18MOL0     H 2381   2.865   9.293   5.646 -3.8490  0.5645 -1.0223
   18MOL0     H 2382   2.763   9.474   5.492 -1.2329 -0.7376  0.8306
   18MOL0     H 2383   2.757   9.442   5.309 -0.3900 -2.6778 -0.5675
   18MOL0     H 2384   2.596   9.253   5.359 -2.0278  1.9255 -2.4436
   18MOL0     H 2385   2.522   9.412   5.396 -1.9498 -1.1367 -0.0736
   18MOL0     H 2386   2.628   9.381   5.628 -0.4869 -0.5182  0.5817
   18MOL0     H 2387   2.643   9.213   5.589 -0.9993  0.0045  2.6841
   18MOL0     H 2388   2.431   9.264   5.723 -1.7637 -0.4460 -0.5782
   18MOL0     H 2389   2.405   9.184   5.566 -0.9207  0.0794  0.1966
   18MOL0     H 2390   2.212   9.591   5.537  0.8422 -1.5277 -0.5566
   18MOL0     H 2391   1.867   9.667   5.549 -0.0508  1.5158  0.7373
   18MOL0     H 2392   1.964   9.728   5.674  1.8252  0.2773 -0.4773
   18MOL0     H 2393   2.035   9.723   5.520  2.2355 -1.6123  0.2928
   18MOL0     H 2394   1.537   9.352   5.603  0.5598 -1.7952 -0.4097
   18MOL0     H 2395   1.305   9.387   5.719 -1.0523  0.4803  2.1059
   18MOL0     H 2396   1.196   9.152   6.010 -1.4071 -1.8200  3.5076
   18MOL0     H 2397   1.286   9.229   6.134 -1.6861 -3.6394  1.6239
   18MOL0     H 2398   1.131   9.282   6.254  2.3448 -0.4259 -0.7374
   18MOL0     H 2399   1.049   9.375   6.141  0.2611  0.4821  2.5265
   18MOL0     H 2400   1.036   9.071   6.177 -0.0499 -0.6307  3.0241
   18MOL0     H 2401   0.957   9.143   6.036 -2.1565  0.3592  0.7017
   18MOL0     H 2402   0.891   9.231   6.313  0.1621 -3.6973  1.0861
   18MOL0     H 2403   0.802   9.283   6.162 -0.5189  0.6088  0.4378
   18MOL0     H 2404   0.816   9.005   6.276 -0.7811  0.9937  2.3283
   18MOL0     H 2405   0.713   9.060   6.135 -2.5020  0.8789  0.7729
   18MOL0     H 2406   0.685   9.133   6.421 -0.8496  1.2962  0.0110
   18MOL0     H 2407   0.600   9.212   6.289  2.2382  2.2761  0.9550
   18MOL0     H 2408   0.602   8.901   6.317 -1.2219  0.1664 -1.2611
   18MOL0     H 2409   0.480   9.000   6.246 -0.3313  0.2492  0.2000
   18MOL0     H 2410   0.526   8.957   6.550 -0.6140 -2.5743 -1.3182
   18MOL0     H 2411   0.411   8.884   6.450 -3.7655  1.7264  1.1113
   18MOL0     H 2412   1.481   9.233   6.076  1.0703  2.6304  0.2685
   18MOL0     H 2413   1.695   9.211   5.972 -1.5154  1.2103  0.4584
   18MOL0     H 2414   1.952   9.201   5.702  0.9486 -1.4136 -0.9397
   18MOL0     H 2415   2.179   9.179   5.687 -2.2687 -0.6087  0.2179
   18MOL0     H 2416   3.647  10.044   5.947 -0.4093 -1.1798  0.6675
   18MOL0     H 2417   3.816  10.207   5.881 -0.3888 -0.4397  0.2387
   18MOL0     H 2418   4.281  10.241   5.682  3.7202 -2.4897  3.2022
   18MOL0     H 2419   4.443  10.413   5.614 -1.6150 -1.7230 -2.1525
   18MOL0     H 2420   4.436  10.840   5.724 -0.5916 -0.0470  1.7377
   18MOL0     H 2421   4.508  10.744   5.855  1.4725  2.4676  0.2229
   18MOL0     H 2422   4.711  10.715   5.685 -1.0086 -1.5076  0.0141
   18MOL0     H 2423   4.688  10.846   5.801  0.2767 -3.0925  0.6935
   18MOL0     H 2424   4.594  10.982   5.606  1.6286  2.0857 -1.7245
   18MOL0     H 2425   4.608  10.840   5.501  1.1821 -1.0154 -0.3171
   18MOL0     H 2426   4.830  10.856   5.485 -0.9828 -0.9712  0.9142
   18MOL0     H 2427   4.847  10.970   5.618 -3.3161  0.0832  3.0656
   18MOL0     H 2428   4.681  11.168   5.249  0.0751  0.8557  0.7558
   18MOL0     H 2429   4.288  10.700   5.887  0.7279 -0.3799  0.6623
   18MOL0     H 2430   4.136  10.514   5.983 -1.3451  0.4540 -1.1045
   19MOL0     O 2431   0.491   9.757   0.733  0.4652 -0.0154 -0.0698
   19MOL0     C 2432   0.465   9.703   0.836  0.8624 -0.7724 -0.6502
   19MOL0     O 2433   0.551   9.622   0.903 -0.0025 -0.3765  0.7064
   19MOL0     C 2434   0.683   9.615   0.863  0.8566  0.5927 -0.4600
   19MOL0     C 2435   0.774   9.689   0.935 -0.2473 -0.0900  0.1096
   19MOL0     C 2436   0.903   9.689   0.899 -0.0055 -0.6235  0.6998
   19MOL0     C 2437   0.947   9.603   0.798 -0.4991  0.0759  0.7424
   19MOL0     O 2438   1.083   9.615   0.778  0.2954  0.8689 -0.4426
   19MOL0     C 2439   1.155   9.503   0.718 -0.0360 -0.4850 -0.2149
   19MOL0     C 2440   1.301   9.528   0.743 -0.8042  0.7901  0.8385
   19MOL0     C 2441   1.335   9.582   0.885 -0.5683  0.1119 -0.0516
   19MOL0     C 2442   1.491   9.583   0.891 -0.8211 -0.0341 -0.0224
   19MOL0     C 2443   1.538   9.671   1.019 -0.1518  1.1159  0.2410
   19MOL0     C 2444   1.683   9.646   1.060  0.7294 -0.4326 -0.3950
   19MOL0     C 2445   1.785   9.687   0.955 -0.2576 -0.2277  0.3297
   19MOL0     C 2446   1.927   9.660   0.999  0.2059  0.4176 -0.0749
   19MOL0     N 2447   1.967   9.738   1.118  0.6123 -0.7417 -0.1718
   19MOL0     C 2448   1.973   9.875   1.116  0.6206  0.6241  0.2950
   19MOL0     C 2449   1.994   9.911   1.242 -0.1341 -1.2731  0.3976
   19MOL0     C 2450   2.016  10.051   1.287 -0.5194 -0.1414  0.7241
   19MOL0     C 2451   2.167  10.098   1.285 -0.9080 -0.2864 -0.2243
   19MOL0     C 2452   2.252  10.036   1.397  0.3876 -0.1528 -0.5121
   19MOL0     C 2453   2.364   9.940   1.356 -0.5398 -0.0897 -0.8694
   19MOL0     O 2454   2.447   9.898   1.467 -0.5306 -0.5528  0.4839
   19MOL0     C 2455   2.403   9.785   1.546  0.3137  0.0613 -0.1120
   19MOL0     C 2456   2.480   9.744   1.657  0.3458  0.5769 -1.0967
   19MOL0     C 2457   2.456   9.630   1.740 -0.1459 -0.1377  0.5173
   19MOL0     C 2458   2.564   9.597   1.836 -1.0254 -0.1107 -0.0178
   19MOL0     C 2459   2.337   9.566   1.726 -0.1576  0.9761  1.0469
   19MOL0     C 2460   2.312   9.443   1.802  0.0993 -0.2076  0.2092
   19MOL0     O 2461   2.219   9.368   1.732 -0.2384  0.1136 -0.7779
   19MOL0     C 2462   2.125   9.288   1.790  0.3877 -0.8911  0.6800
   19MOL0     C 2463   2.074   9.293   1.922 -0.5967 -0.7688  0.5860
   19MOL0     C 2464   1.988   9.193   1.959 -0.0137 -0.6917 -0.2441
   19MOL0     C 2465   1.937   9.093   1.867  0.8501  1.1522  0.1169
   19MOL0     O 2466   1.852   8.994   1.916 -0.6920 -0.3951 -0.0949
   19MOL0     C 2467   1.826   8.876   1.838 -0.2448  0.0214 -0.3258
   19MOL0     C 2468   1.765   8.779   1.934  1.1453  0.0245  0.1665
   19MOL0     C 2469   1.610   8.804   1.971  0.5856 -0.2777 -0.4297
   19MOL0     C 2470   1.514   8.792   1.849 -1.0268 -0.6606  0.3056
   19MOL0     C 2471   1.371   8.802   1.880  0.0169 -0.0016  0.4040
   19MOL0     C 2472   1.274   8.786   1.758 -0.3025  0.6493  0.4854
   19MOL0     C 2473   1.132   8.835   1.784 -1.0555  0.3182 -0.2634
   19MOL0     C 2474   1.041   8.797   1.662  0.1970  0.1191 -0.6261
   19MOL0    Cl 2475   0.875   8.778   1.727 -0.4796 -0.9209 -0.2811
   19MOL0     C 2476   1.975   9.098   1.737  0.0907 -0.3680 -0.5753
   19MOL0     C 2477   2.056   9.205   1.695 -0.5219  0.3735  0.4592
   19MOL0     O 2478   2.357   9.426   1.914  0.2375 -0.3717  0.1512
   19MOL0     C 2479   2.250   9.610   1.627 -0.4923 -1.0704 -0.0841
   19MOL0     C 2480   2.285   9.710   1.532  0.1427  1.0603 -0.1907
   19MOL0     N 2481   2.003   9.796   1.320 -0.6241  0.0118 -0.1656
   19MOL0     N 2482   2.008   9.692   1.240  1.0694 -0.0867  0.4360
   19MOL0     C 2483   0.856   9.512   0.728 -0.8885 -0.3954 -0.0464
   19MOL0     C 2484   0.723   9.529   0.760 -0.2012  0.3527  0.7809
   19MOL0     C 2485   0.326   9.719   0.888 -0.8808  0.0287  0.2805
   19MOL0     C 2486   0.266   9.630   0.975  0.0818  0.3137 -0.3153
   19MOL0     C 2487   0.134   9.650   1.022 -0.2566 -0.1333 -0.6122
   19MOL0     C 2488   0.059   9.759   0.969  0.0105  1.1952 -0.5501
   19MOL0     O 2489  -0.070   9.795   1.001  0.4860  0.9020 -0.0020
   19MOL0     C 2490  -0.150   9.704   1.068  0.5529 -0.5593 -1.0779
   19MOL0     C 2491  -0.284   9.772   1.104 -0.0586  0.1174 -0.3772
   19MOL0     C 2492  -0.383   9.763   0.989  0.1739  0.5431 -0.4639
   19MOL0     C 2493  -0.524   9.805   1.026 -0.1955 -1.0130 -0.2953
   19MOL0     C 2494  -0.529   9.937   1.088 -0.1084  0.1767 -0.8365
   19MOL0     C 2495  -0.536  10.055   1.123  0.3787 -0.3611  0.7620
   19MOL0     C 2496   0.118   9.851   0.890 -1.0474  0.8879 -0.4364
   19MOL0     C 2497   0.249   9.831   0.846 -0.8865 -0.5161  0.4971
   19MOL0     H 2498   0.739   9.753   1.016 -1.2691 -0.2838 -0.1683
   19MOL0     H 2499   0.972   9.747   0.961 -0.9534 -1.2170  2.3819
   19MOL0     H 2500   1.114   9.412   0.764 -2.7246  0.5244 -0.4687
   19MOL0     H 2501   1.144   9.509   0.609 -1.8988  0.1006 -0.0163
   19MOL0     H 2502   1.355   9.432   0.739 -1.7072  0.2925  0.2544
   19MOL0     H 2503   1.352   9.584   0.664 -0.0035 -0.3611  0.5005
   19MOL0     H 2504   1.297   9.681   0.911  0.1674  0.2401  0.5951
   19MOL0     H 2505   1.296   9.512   0.959 -1.8363 -0.0275 -0.8163
   19MOL0     H 2506   1.519   9.478   0.906 -1.3424 -0.1225  0.3734
   19MOL0     H 2507   1.543   9.621   0.803  0.8736  0.0251  0.9519
   19MOL0     H 2508   1.518   9.776   0.997  1.8369  1.3896 -0.4614
   19MOL0     H 2509   1.470   9.637   1.098 -1.5764  4.2365  0.4983
   19MOL0     H 2510   1.700   9.707   1.150  0.7945  1.9087 -1.9152
   19MOL0     H 2511   1.694   9.542   1.091  1.3109  0.0443  1.1017
   19MOL0     H 2512   1.762   9.634   0.862  0.0338 -1.2533  0.8288
   19MOL0     H 2513   1.778   9.795   0.936  1.1496 -0.7659 -4.4613
   19MOL0     H 2514   1.996   9.691   0.920 -1.7737 -2.6663 -3.2841
   19MOL0     H 2515   1.948   9.554   1.011  0.2653  0.3794 -0.5002
   19MOL0     H 2516   1.959   9.937   1.028  3.0222  0.0784 -0.5552
   19MOL0     H 2517   1.961  10.112   1.213 -0.3849 -1.6135 -0.6384
   19MOL0     H 2518   1.979  10.071   1.388  1.2071  1.8711  1.0313
   19MOL0     H 2519   2.175  10.207   1.291  2.2608 -0.4780  0.4099
   19MOL0     H 2520   2.213  10.073   1.189 -1.4940 -0.8270 -0.3775
   19MOL0     H 2521   2.185   9.981   1.465 -0.3988 -1.1853 -2.0477
   19MOL0     H 2522   2.289  10.122   1.452 -0.4593  1.4145 -2.3024
   19MOL0     H 2523   2.426   9.998   1.287 -0.6355  0.0753 -0.8175
   19MOL0     H 2524   2.342   9.847   1.303  1.3441  0.1220 -2.1411
   19MOL0     H 2525   2.558   9.816   1.681  0.1689  0.0454  1.3651
   19MOL0     H 2526   2.530   9.611   1.939  1.0107  0.5116  0.6019
   19MOL0     H 2527   2.599   9.495   1.819 -0.0124  0.2233  0.0038
   19MOL0     H 2528   2.649   9.663   1.817 -1.8122  1.1185  0.5956
   19MOL0     H 2529   2.119   9.363   1.991 -1.8115  3.6211 -2.6197
   19MOL0     H 2530   1.958   9.205   2.062  0.7142 -0.4486 -0.0579
   19MOL0     H 2531   1.759   8.893   1.752  0.5224  2.4388 -0.5278
   19MOL0     H 2532   1.915   8.827   1.799  1.8528  1.8791  1.8225
   19MOL0     H 2533   1.774   8.673   1.909 -1.2049 -0.3726  0.8182
   19MOL0     H 2534   1.825   8.791   2.025 -0.8594 -0.5747  1.6216
   19MOL0     H 2535   1.594   8.900   2.020 -0.5376 -0.8574  0.3782
   19MOL0     H 2536   1.583   8.727   2.044  2.7140 -0.1872  0.5157
   19MOL0     H 2537   1.521   8.878   1.783 -1.0649 -0.0912  1.0270
   19MOL0     H 2538   1.533   8.704   1.787  1.3866 -1.4281  1.9664
   19MOL0     H 2539   1.352   8.890   1.942 -2.9947 -2.2322  2.9820
   19MOL0     H 2540   1.359   8.717   1.948 -0.0129 -1.2181 -1.0687
   19MOL0     H 2541   1.312   8.839   1.671 -0.4777 -0.9214 -0.5862
   19MOL0     H 2542   1.264   8.683   1.723  0.6941  1.5404 -2.7184
   19MOL0     H 2543   1.124   8.941   1.808 -0.1320  0.6513 -1.3061
   19MOL0     H 2544   1.083   8.774   1.860  0.6460 -0.3617  0.3364
   19MOL0     H 2545   1.074   8.702   1.619  0.4064  0.3198 -0.9122
   19MOL0     H 2546   1.054   8.872   1.583 -0.9030  2.2082  1.0814
   19MOL0     H 2547   1.943   9.019   1.670 -0.8475 -0.9807  0.5740
   19MOL0     H 2548   2.060   9.218   1.587  1.7501 -1.3922  0.2290
   19MOL0     H 2549   2.162   9.554   1.596 -0.3472 -0.0986 -2.4712
   19MOL0     H 2550   2.211   9.726   1.454 -2.3073  3.7716  2.4250
   19MOL0     H 2551   0.890   9.431   0.664 -0.9479 -2.5797  2.5069
   19MOL0     H 2552   0.658   9.462   0.704  2.8781  0.1469 -3.0097
   19MOL0     H 2553   0.325   9.546   1.013  0.1054  0.9636  1.1402
   19MOL0     H 2554   0.080   9.585   1.090  2.0835 -0.1215  1.4081
   19MOL0     H 2555  -0.173   9.617   1.006 -1.4413 -1.9860  1.4704
   19MOL0     H 2556  -0.108   9.684   1.167  0.8703  1.5009 -0.7438
   19MOL0     H 2557  -0.279   9.875   1.140  0.5589  1.0451 -2.8777
   19MOL0     H 2558  -0.324   9.709   1.184  2.1205 -0.0136  0.6809
   19MOL0     H 2559  -0.379   9.660   0.951  0.3405  1.1777 -2.2496
   19MOL0     H 2560  -0.352   9.823   0.903  1.6236  0.5928  0.0526
   19MOL0     H 2561  -0.564   9.724   1.087  0.9198 -1.8617 -0.6602
   19MOL0     H 2562  -0.584   9.807   0.935  1.6138  2.5084 -1.5809
   19MOL0     H 2563  -0.540  10.158   1.151 -2.8067 -0.8160  2.5420
   19MOL0     H 2564   0.058   9.942   0.881  0.8878  2.2898  0.2211
   19MOL0     H 2565   0.290   9.902   0.775  0.5064 -0.3792  1.4152
   20MOL0     O 2566   3.790   0.238  10.089  0.2029 -0.3009 -0.3730
   20MOL0     C 2567   3.788   0.343  10.150  1.0575  0.4216  0.3020
   20MOL0     O 2568   3.857   0.454  10.114  0.1554  0.0612  0.7487
   20MOL0     C 2569   3.939   0.456  10.006  1.3964 -1.0731  0.1909
   20MOL0     C 2570   3.895   0.499   9.877 -1.2572 -1.1211 -0.3974
   20MOL0     C 2571   3.988   0.507   9.764 -0.2557  0.3653 -0.5205
   20MOL0     C 2572   4.125   0.482   9.792 -0.8694  0.5528  0.7801
   20MOL0     O 2573   4.212   0.516   9.694 -0.3717 -0.4160  0.0654
   20MOL0     C 2574   4.346   0.531   9.719 -0.1425 -0.6412 -0.6707
   20MOL0     C 2575   4.417   0.624   9.619 -0.1976  0.2825 -0.7095
   20MOL0     C 2576   4.439   0.563   9.489 -1.2310 -0.0274 -0.1502
   20MOL0     C 2577   4.539   0.638   9.420 -1.2951  0.4103  0.1178
   20MOL0     C 2578   4.562   0.612   9.270  1.1086 -0.4791 -0.9458
   20MOL0     C 2579   4.430   0.653   9.195 -0.8652 -0.0566  0.3346
   20MOL0     C 2580   4.471   0.682   9.046  0.0660 -0.2698 -0.5085
   20MOL0     C 2581   4.366   0.757   8.954  1.0181 -0.2439  0.4098
   20MOL0     N 2582   4.421   0.777   8.813 -0.4782 -0.1031 -0.5638
   20MOL0     C 2583   4.546   0.833   8.791 -0.2451 -0.4634  0.2472
   20MOL0     C 2584   4.566   0.809   8.667  0.3029 -0.0878  0.2820
   20MOL0     C 2585   4.702   0.823   8.615 -0.0106  0.3366  0.3916
   20MOL0     C 2586   4.748   0.700   8.537 -0.5972 -0.2590  0.1894
   20MOL0     C 2587   4.895   0.695   8.496  1.3604 -0.6844 -0.5662
   20MOL0     C 2588   4.931   0.823   8.426 -0.6484  0.4232  0.1371
   20MOL0     O 2589   4.875   0.812   8.296  1.1962  0.6283 -0.1732
   20MOL0     C 2590   4.949   0.758   8.193 -0.5122  1.4223 -1.6284
   20MOL0     C 2591   5.077   0.694   8.208 -0.3424  0.4208  0.1355
   20MOL0     C 2592   5.140   0.637   8.098 -0.4550  0.3533 -0.6761
   20MOL0     C 2593   5.264   0.554   8.124 -0.2552 -0.6665  0.1780
   20MOL0     C 2594   5.101   0.671   7.966 -0.1904 -0.4529 -0.0393
   20MOL0     C 2595   5.177   0.624   7.848 -0.0760  0.6010  0.6251
   20MOL0     O 2596   5.136   0.521   7.766 -0.8199 -0.1576  0.5411
   20MOL0     C 2597   5.021   0.453   7.792 -0.3175 -0.1896 -0.6115
   20MOL0     C 2598   4.888   0.504   7.791 -0.1999  0.8539  0.2232
   20MOL0     C 2599   4.778   0.438   7.846  0.4335  0.7704  0.0867
   20MOL0     C 2600   4.800   0.299   7.885  0.6333 -0.9502 -0.0387
   20MOL0     O 2601   4.691   0.227   7.938  0.0325  0.1933  0.1018
   20MOL0     C 2602   4.711   0.096   7.985  0.9025  0.8269 -0.2947
   20MOL0     C 2603   4.582   0.042   8.045  0.3386 -0.3350  0.4893
   20MOL0     C 2604   4.460   0.056   7.958 -0.1887  0.1974 -0.0271
   20MOL0     C 2605   4.327   0.012   8.026  0.4938 -0.0284  0.1770
   20MOL0     C 2606   4.222   0.026   7.916 -0.1001  0.9105  0.7489
   20MOL0     C 2607   4.086  -0.037   7.940 -0.0771  0.4239 -0.3567
   20MOL0     C 2608   3.962   0.049   7.960 -0.6005 -0.7857 -0.2225
   20MOL0     C 2609   3.912   0.101   7.831 -0.3498  0.6094 -0.6281
   20MOL0    Cl 2610   3.808   0.250   7.857 -0.1029  0.3049 -0.8712
   20MOL0     C 2611   4.930   0.250   7.891 -1.0615 -0.1647 -0.4213
   20MOL0     C 2612   5.042   0.331   7.847 -0.0424  1.0333 -0.8373
   20MOL0     O 2613   5.275   0.695   7.826  0.3282 -0.4111 -0.4502
   20MOL0     C 2614   4.985   0.740   7.949  0.2643  0.2563 -0.4779
   20MOL0     C 2615   4.903   0.775   8.066  0.0547 -0.0649  0.0522
   20MOL0     N 2616   4.457   0.746   8.611 -0.1081  0.8854  0.0458
   20MOL0     N 2617   4.380   0.713   8.707  0.5125  0.3547  0.4847
   20MOL0     C 2618   4.167   0.451   9.926 -0.9495  0.1343  0.4322
   20MOL0     C 2619   4.073   0.423  10.027 -0.4019 -0.1141  0.3454
   20MOL0     C 2620   3.714   0.349  10.273  0.2439  0.3014  0.2123
   20MOL0     C 2621   3.654   0.240  10.337  0.2200  0.1224  0.7845
   20MOL0     C 2622   3.584   0.258  10.458 -0.0257  0.4354 -0.6484
   20MOL0     C 2623   3.593   0.385  10.529 -0.0890 -0.1831  0.6263
   20MOL0     O 2624   3.527   0.419  10.644 -0.7189  0.5635  0.4723
   20MOL0     C 2625   3.429   0.319  10.684 -0.2410 -0.6972  0.3191
   20MOL0     C 2626   3.353   0.367  10.794  1.1094 -0.3955  0.6820
   20MOL0     C 2627   3.425   0.402  10.927  0.5561 -0.5765  0.0329
   20MOL0     C 2628   3.328   0.456  11.039 -0.0184  0.0521  1.2363
   20MOL0     C 2629   3.397   0.458  11.169 -0.0886 -0.5784 -0.5670
   20MOL0     C 2630   3.438   0.466  11.281  0.8170  0.0638 -1.1082
   20MOL0     C 2631   3.669   0.488  10.468  0.6484 -0.4642 -0.0808
   20MOL0     C 2632   3.710   0.473  10.340 -0.0031  0.3528  0.2637
   20MOL0     H 2633   3.787   0.514   9.876 -1.0663  1.3096  2.3165
   20MOL0     H 2634   3.949   0.548   9.672  2.3445  1.5352 -1.1905
   20MOL0     H 2635   4.358   0.577   9.817 -0.6674 -2.3699  0.2545
   20MOL0     H 2636   4.403   0.438   9.723  0.6129 -0.1398  0.7798
   20MOL0     H 2637   4.365   0.720   9.612 -0.8498  0.4188  3.6843
   20MOL0     H 2638   4.510   0.651   9.670 -0.6641 -0.1967  0.4165
   20MOL0     H 2639   4.481   0.463   9.504  1.3300  1.3357  2.9834
   20MOL0     H 2640   4.342   0.564   9.439 -0.6216  1.3391 -1.3733
   20MOL0     H 2641   4.529   0.746   9.432 -0.1630  0.4309  1.1566
   20MOL0     H 2642   4.637   0.606   9.458 -0.3105 -2.1089 -3.9199
   20MOL0     H 2643   4.649   0.671   9.240  0.3654 -0.0226 -2.3186
   20MOL0     H 2644   4.572   0.503   9.263  0.8888 -0.8959  2.9889
   20MOL0     H 2645   4.366   0.564   9.190  1.4839 -1.7934 -3.3684
   20MOL0     H 2646   4.390   0.748   9.230 -1.2979  1.3440 -3.4626
   20MOL0     H 2647   4.556   0.751   9.043 -1.4103  1.7144  0.7568
   20MOL0     H 2648   4.508   0.595   8.991  1.9921  1.4320 -2.0861
   20MOL0     H 2649   4.346   0.855   8.998  0.1057  0.4932 -1.5523
   20MOL0     H 2650   4.280   0.689   8.958  0.2924  0.6124 -0.3819
   20MOL0     H 2651   4.613   0.884   8.860  2.6631  0.2563 -2.8608
   20MOL0     H 2652   4.703   0.910   8.549 -1.6183 -0.2836 -0.5100
   20MOL0     H 2653   4.773   0.832   8.698 -1.6807 -0.2306  1.9304
   20MOL0     H 2654   4.685   0.703   8.448  1.2750  0.7642 -1.1627
   20MOL0     H 2655   4.728   0.607   8.593  0.6597 -0.4375  0.3713
   20MOL0     H 2656   4.904   0.604   8.437 -0.9270 -1.5464  0.3214
   20MOL0     H 2657   4.957   0.687   8.586  1.6675 -1.5086 -0.8436
   20MOL0     H 2658   5.039   0.836   8.424 -0.2186 -2.5118  0.0089
   20MOL0     H 2659   4.893   0.912   8.477 -2.7636 -1.5195  2.1982
   20MOL0     H 2660   5.114   0.688   8.310 -2.3194  1.8280  0.9948
   20MOL0     H 2661   5.306   0.570   8.224  0.6796  0.7667 -0.4143
   20MOL0     H 2662   5.243   0.448   8.112  0.1640 -1.0821  2.5540
   20MOL0     H 2663   5.346   0.588   8.060  0.5099 -0.0706  1.4329
   20MOL0     H 2664   4.875   0.598   7.740 -1.1771 -0.5195 -2.2694
   20MOL0     H 2665   4.692   0.503   7.854  0.2894  0.5898  0.0355
   20MOL0     H 2666   4.725   0.025   7.902 -0.7425  0.8398 -0.6099
   20MOL0     H 2667   4.791   0.094   8.059  1.6216 -4.5552 -0.8102
   20MOL0     H 2668   4.592  -0.065   8.070 -1.8503 -0.1135  2.6978
   20MOL0     H 2669   4.573   0.101   8.137  2.3826  2.2939 -0.8618
   20MOL0     H 2670   4.471  -0.009   7.871 -0.5841  0.4589 -0.2798
   20MOL0     H 2671   4.456   0.160   7.924  0.9946  0.3304  0.2098
   20MOL0     H 2672   4.331  -0.090   8.065 -0.8195  0.8950  2.9423
   20MOL0     H 2673   4.293   0.084   8.101  5.5234  2.0020  0.9024
   20MOL0     H 2674   4.267  -0.017   7.826  3.4257  0.4485  2.5220
   20MOL0     H 2675   4.196   0.132   7.908 -1.7650  0.4470 -0.2794
   20MOL0     H 2676   4.060  -0.107   7.860  0.1018 -1.3223  1.0338
   20MOL0     H 2677   4.094  -0.102   8.028  1.5128  1.1894  0.1019
   20MOL0     H 2678   3.989   0.135   8.023  1.9582 -1.1603 -0.6931
   20MOL0     H 2679   3.883   0.002   8.019  1.1519 -0.6916  2.3831
   20MOL0     H 2680   3.866   0.019   7.775  2.7752 -0.2037 -2.2420
   20MOL0     H 2681   4.002   0.135   7.779  0.9798 -2.4263 -0.4627
   20MOL0     H 2682   4.956   0.146   7.911 -3.5100 -0.6258  0.7180
   20MOL0     H 2683   5.142   0.287   7.844  0.9855  2.8547  2.2549
   20MOL0     H 2684   4.947   0.764   7.850  2.4282 -0.3131 -1.5076
   20MOL0     H 2685   4.803   0.812   8.050  0.1994  0.6354  0.7424
   20MOL0     H 2686   4.268   0.424   9.958 -0.6963 -1.4772 -1.5509
   20MOL0     H 2687   4.119   0.391  10.119 -0.4817 -0.0819  0.3973
   20MOL0     H 2688   3.652   0.141  10.292  0.1618 -0.4594  1.9980
   20MOL0     H 2689   3.531   0.183  10.516  1.0807  1.2688  1.5484
   20MOL0     H 2690   3.361   0.302  10.600  0.6183 -0.6480 -0.3931
   20MOL0     H 2691   3.473   0.222  10.706  0.9104 -0.3783 -0.4981
   20MOL0     H 2692   3.283   0.286  10.817 -0.4951  0.0389 -2.1582
   20MOL0     H 2693   3.301   0.453  10.750  0.0650 -1.3129  0.0660
   20MOL0     H 2694   3.502   0.477  10.907  1.5399 -1.4748  0.3709
   20MOL0     H 2695   3.480   0.315  10.963  1.3570 -0.1147 -0.0608
   20MOL0     H 2696   3.239   0.393  11.037  1.1099 -1.6015 -0.6942
   20MOL0     H 2697   3.300   0.556  11.004 -1.2062 -1.7579 -3.9417
   20MOL0     H 2698   3.468   0.508  11.375  2.1085 -0.7106 -1.1535
   20MOL0     H 2699   3.690   0.578  10.525 -0.3016  0.4023 -1.0503
   20MOL0     H 2700   3.751   0.560  10.291 -2.2794  0.8196 -0.9746
   21MOL0     O 2701   3.143   3.635   7.853  0.2493 -0.0601 -0.6084
   21MOL0     C 2702   3.179   3.519   7.849  0.2304 -0.5145  1.5575
   21MOL0     O 2703   3.094   3.415   7.828 -1.0908 -0.4242  0.2010
   21MOL0     C 2704   2.963   3.434   7.787 -0.4596 -0.3465  0.5238
   21MOL0     C 2705   2.920   3.389   7.666 -0.2339 -0.3287 -0.6209
   21MOL0     C 2706   2.784   3.385   7.628  0.6358 -0.3190  0.3081
   21MOL0     C 2707   2.680   3.424   7.715 -0.7512  0.2425  0.2204
   21MOL0     O 2708   2.554   3.438   7.665  0.2966 -0.2309  0.2596
   21MOL0     C 2709   2.537   3.548   7.575 -0.5003 -0.0968 -0.4618
   21MOL0     C 2710   2.408   3.525   7.490 -0.2737 -0.8096  0.5006
   21MOL0     C 2711   2.378   3.656   7.402  0.7687 -0.4218 -0.0981
   21MOL0     C 2712   2.431   3.636   7.257 -0.4384  0.0009 -0.4571
   21MOL0     C 2713   2.439   3.763   7.177 -0.5435 -0.9070  0.3590
   21MOL0     C 2714   2.479   3.739   7.035 -0.4351 -0.4643 -0.2232
   21MOL0     C 2715   2.637   3.721   7.018 -0.7285  0.2974  1.5142
   21MOL0     C 2716   2.649   3.700   6.856 -0.6539 -1.1108 -0.9903
   21MOL0     N 2717   2.791   3.684   6.827  0.1034 -0.0968 -0.6022
   21MOL0     C 2718   2.891   3.779   6.831  0.2580 -0.0080 -0.7914
   21MOL0     C 2719   3.002   3.701   6.810 -0.5339 -0.5511 -0.8019
   21MOL0     C 2720   3.142   3.769   6.783 -0.1530  0.1437  0.0211
   21MOL0     C 2721   3.222   3.811   6.910 -0.1196  0.6342  0.8114
   21MOL0     C 2722   3.330   3.894   6.850  0.0697  0.5627 -0.3597
   21MOL0     C 2723   3.406   3.967   6.960 -1.0781  0.3491  0.4426
   21MOL0     O 2724   3.482   4.069   6.894 -0.0826 -0.8018  0.1011
   21MOL0     C 2725   3.616   4.069   6.919  0.3059 -0.4942 -0.0440
   21MOL0     C 2726   3.679   4.190   6.955 -0.3040 -0.1924 -0.2215
   21MOL0     C 2727   3.814   4.184   6.988 -0.1049 -0.4562  0.8644
   21MOL0     C 2728   3.869   4.311   7.044 -0.7682 -0.1808 -0.1947
   21MOL0     C 2729   3.895   4.072   6.966  1.0273 -0.2685 -0.0633
   21MOL0     C 2730   4.043   4.066   7.004  0.7079 -0.6430  1.0865
   21MOL0     O 2731   4.118   4.175   7.038  0.0878 -0.4673  0.8986
   21MOL0     C 2732   4.245   4.157   7.097  0.1070 -0.3770  0.7666
   21MOL0     C 2733   4.336   4.256   7.058  0.8530 -0.8058 -0.8388
   21MOL0     C 2734   4.469   4.248   7.096 -0.5188 -0.5339  0.0991
   21MOL0     C 2735   4.504   4.161   7.198 -0.3570 -0.0266  0.0651
   21MOL0     O 2736   4.632   4.165   7.253 -0.3758 -0.1072 -0.2214
   21MOL0     C 2737   4.710   4.275   7.226 -0.1141  0.0925 -0.5026
   21MOL0     C 2738   4.831   4.292   7.320 -0.1834 -0.1789 -0.1532
   21MOL0     C 2739   4.919   4.168   7.298  0.2009  0.6006 -1.1460
   21MOL0     C 2740   5.022   4.166   7.193 -0.3460 -0.1194  1.1390
   21MOL0     C 2741   5.075   4.036   7.142  0.7387  0.6524  0.1670
   21MOL0     C 2742   4.975   3.937   7.073  0.0876  0.5661  0.7104
   21MOL0     C 2743   5.048   3.803   7.061  0.0341  0.6827  1.0047
   21MOL0     C 2744   5.148   3.779   6.949  0.1870 -0.2684  0.4803
   21MOL0    Cl 2745   5.302   3.861   6.973 -0.0289  0.1369  0.2844
   21MOL0     C 2746   4.411   4.071   7.244 -0.8397 -0.8853 -1.1918
   21MOL0     C 2747   4.282   4.069   7.195 -0.9340  0.0985  0.0767
   21MOL0     O 2748   4.085   3.952   7.005 -0.3128  0.0817 -0.2016
   21MOL0     C 2749   3.827   3.954   6.930  0.0068  0.2982  0.4446
   21MOL0     C 2750   3.689   3.951   6.901  0.5515 -0.1251 -0.4166
   21MOL0     N 2751   2.979   3.567   6.825  0.3326 -0.2915 -0.2890
   21MOL0     N 2752   2.857   3.562   6.832  0.6085 -0.2017 -1.0127
   21MOL0     C 2753   2.720   3.477   7.834  0.0186  0.4380 -0.3924
   21MOL0     C 2754   2.860   3.476   7.874  0.5975 -0.4270 -0.3244
   21MOL0     C 2755   3.321   3.489   7.854 -0.0278 -1.2905  0.7440
   21MOL0     C 2756   3.374   3.358   7.858  0.0086  0.1714 -0.5978
   21MOL0     C 2757   3.513   3.337   7.853  0.9624 -1.4461  0.0911
   21MOL0     C 2758   3.608   3.438   7.869 -0.4731 -0.2323 -1.1144
   21MOL0     O 2759   3.747   3.414   7.856  0.5396  0.0395 -0.1563
   21MOL0     C 2760   3.796   3.293   7.792  0.0745  0.2054  0.0437
   21MOL0     C 2761   3.944   3.285   7.775  0.2081  0.5472 -0.9269
   21MOL0     C 2762   4.036   3.268   7.904  0.1327  0.2852  0.2104
   21MOL0     C 2763   4.168   3.338   7.890  0.1978 -0.2855 -0.0004
   21MOL0     C 2764   4.264   3.261   7.808  0.0804  0.0837  0.0965
   21MOL0     C 2765   4.340   3.185   7.739  0.2053 -1.3247 -0.1589
   21MOL0     C 2766   3.560   3.569   7.883  0.3494  0.2796  1.0243
   21MOL0     C 2767   3.414   3.598   7.867 -0.1961 -0.6483  0.7627
   21MOL0     H 2768   2.989   3.366   7.586 -0.6599  1.3260 -1.5030
   21MOL0     H 2769   2.765   3.351   7.527  1.2052  1.0868 -0.3021
   21MOL0     H 2770   2.518   3.643   7.627 -2.5083  0.1959 -1.6242
   21MOL0     H 2771   2.618   3.561   7.503 -2.4033 -1.5724 -3.0214
   21MOL0     H 2772   2.429   3.446   7.416  1.2610  0.2302 -0.2148
   21MOL0     H 2773   2.324   3.496   7.554 -3.5473  1.0527 -2.6016
   21MOL0     H 2774   2.273   3.686   7.401  0.9587  0.2751 -0.5836
   21MOL0     H 2775   2.434   3.738   7.449 -1.3796  0.9832  0.1615
   21MOL0     H 2776   2.529   3.590   7.270 -1.8959 -2.4326  3.7302
   21MOL0     H 2777   2.361   3.565   7.211 -2.3388  1.9454 -0.7767
   21MOL0     H 2778   2.337   3.802   7.173 -0.8121 -1.6732 -2.4923
   21MOL0     H 2779   2.507   3.834   7.226  0.1837 -1.2176 -0.1763
   21MOL0     H 2780   2.426   3.651   7.000 -0.5147 -0.2491 -0.6442
   21MOL0     H 2781   2.440   3.825   6.980 -3.5780  0.0843  2.5543
   21MOL0     H 2782   2.701   3.802   7.055 -0.0907 -1.2660  4.0849
   21MOL0     H 2783   2.671   3.627   7.061 -0.7449 -1.4853 -2.0250
   21MOL0     H 2784   2.629   3.792   6.801  2.8053 -0.5380 -1.4971
   21MOL0     H 2785   2.594   3.614   6.816 -1.1489 -1.0912 -0.3820
   21MOL0     H 2786   2.879   3.887   6.827  1.3242  0.1937  0.6872
   21MOL0     H 2787   3.196   3.699   6.719 -2.1294 -2.7613  1.3132
   21MOL0     H 2788   3.135   3.859   6.721 -1.1661 -0.1268 -0.2864
   21MOL0     H 2789   3.262   3.733   6.975 -2.8321 -1.3318  0.3081
   21MOL0     H 2790   3.152   3.874   6.966 -2.0410  0.9433 -1.7756
   21MOL0     H 2791   3.285   3.981   6.802 -0.5921  1.2585  1.4227
   21MOL0     H 2792   3.379   3.840   6.769 -2.0169 -0.2481 -1.1279
   21MOL0     H 2793   3.452   3.888   7.020 -1.5403  0.1441  0.5305
   21MOL0     H 2794   3.345   4.004   7.042 -0.9001 -0.0649  0.7651
   21MOL0     H 2795   3.630   4.285   6.971  0.7859  0.3124  0.2352
   21MOL0     H 2796   3.936   4.355   6.969  0.7838  0.0007  1.2510
   21MOL0     H 2797   3.787   4.380   7.066 -1.5720 -0.3415 -2.3789
   21MOL0     H 2798   3.921   4.295   7.139 -0.7651  0.7843 -0.0182
   21MOL0     H 2799   4.298   4.317   6.977 -0.3513 -3.2383 -2.2256
   21MOL0     H 2800   4.532   4.314   7.037  0.4157 -0.7851  0.7897
   21MOL0     H 2801   4.742   4.286   7.122  0.1647  0.8314 -0.3462
   21MOL0     H 2802   4.651   4.364   7.248  3.9605  3.1011 -0.5914
   21MOL0     H 2803   4.883   4.382   7.288 -0.7198 -1.0782 -4.2191
   21MOL0     H 2804   4.792   4.303   7.421 -1.1403  1.5441 -0.6723
   21MOL0     H 2805   4.850   4.084   7.285  1.0091 -0.1356 -0.7638
   21MOL0     H 2806   4.976   4.156   7.390 -0.9155  0.8841 -0.4051
   21MOL0     H 2807   4.998   4.226   7.105  2.9782  0.5771  0.5793
   21MOL0     H 2808   5.112   4.214   7.233 -0.7537  3.9310 -2.1087
   21MOL0     H 2809   5.114   3.995   7.235  0.7683  0.1685 -0.0570
   21MOL0     H 2810   5.155   4.059   7.071 -0.1920  1.6341 -0.6178
   21MOL0     H 2811   4.883   3.925   7.132 -0.4330  1.1680  0.0355
   21MOL0     H 2812   4.942   3.973   6.975 -2.1974 -3.2123 -0.1590
   21MOL0     H 2813   4.971   3.727   7.045  1.5155 -0.6062 -0.2276
   21MOL0     H 2814   5.087   3.778   7.160 -0.7303  1.0378  1.4035
   21MOL0     H 2815   5.119   3.794   6.844  1.0115 -0.9070  0.1504
   21MOL0     H 2816   5.174   3.673   6.956 -0.5381 -0.4492  0.5366
   21MOL0     H 2817   4.429   3.998   7.321  1.8884  1.4739  0.5980
   21MOL0     H 2818   4.216   3.994   7.236 -1.1457  1.2490  1.9487
   21MOL0     H 2819   3.888   3.865   6.917  1.7057  1.4990 -0.1090
   21MOL0     H 2820   3.646   3.867   6.846  1.1353  0.6187 -2.0966
   21MOL0     H 2821   2.651   3.515   7.909 -0.7449  0.3626 -1.0317
   21MOL0     H 2822   2.901   3.508   7.969  1.0657  0.4030 -0.7976
   21MOL0     H 2823   3.303   3.277   7.856  0.0564  0.1400 -0.9925
   21MOL0     H 2824   3.533   3.230   7.844 -1.4540 -1.8936 -0.5877
   21MOL0     H 2825   3.755   3.204   7.842 -1.9945  0.9256 -0.2704
   21MOL0     H 2826   3.763   3.298   7.688  5.3709  0.0514 -1.9242
   21MOL0     H 2827   3.988   3.361   7.711 -0.1537  0.1363 -1.6727
   21MOL0     H 2828   3.942   3.198   7.709 -1.0870 -1.0047  1.0293
   21MOL0     H 2829   4.048   3.165   7.939 -0.1863  0.5661  1.1476
   21MOL0     H 2830   3.992   3.331   7.981  1.7204  1.3439  0.2972
   21MOL0     H 2831   4.215   3.344   7.989 -1.5554  0.5696  0.8401
   21MOL0     H 2832   4.149   3.441   7.856 -1.8505 -1.5175 -2.9333
   21MOL0     H 2833   4.412   3.140   7.675 -1.2833 -2.1749 -1.2838
   21MOL0     H 2834   3.630   3.651   7.892 -0.2958  0.6715  2.8437
   21MOL0     H 2835   3.366   3.696   7.872 -4.7865 -2.5644 -0.3823
   22MOL0     O 2836   0.283   2.650   6.191  0.1508  0.4818  0.2680
   22MOL0     C 2837   0.399   2.668   6.182 -0.6684 -0.6288  0.5067
   22MOL0     O 2838   0.491   2.594   6.113  0.9614  0.6577 -0.1320
   22MOL0     C 2839   0.458   2.482   6.035 -0.0330 -0.4713 -0.0501
   22MOL0     C 2840   0.342   2.404   6.047 -0.5851 -0.2491 -0.5880
   22MOL0     C 2841   0.323   2.290   5.976  0.7227 -0.0681  0.2430
   22MOL0     C 2842   0.423   2.246   5.892  0.0609  0.4060 -0.3707
   22MOL0     O 2843   0.382   2.146   5.801 -0.5347 -0.3003  0.4351
   22MOL0     C 2844   0.474   2.087   5.705 -0.1585  0.0322 -0.8231
   22MOL0     C 2845   0.554   1.975   5.780  0.2834  0.0526 -0.1804
   22MOL0     C 2846   0.698   1.956   5.737  0.8700 -0.5222 -0.2550
   22MOL0     C 2847   0.711   1.924   5.583 -0.0909  0.6987 -0.6458
   22MOL0     C 2848   0.836   1.857   5.530 -0.5354  0.4651  0.3726
   22MOL0     C 2849   0.975   1.923   5.568 -0.2950 -1.0815 -0.0751
   22MOL0     C 2850   0.988   2.072   5.542  0.0439 -0.5982  1.0924
   22MOL0     C 2851   0.967   2.091   5.380  0.9082  0.5044 -0.9060
   22MOL0     N 2852   1.056   2.201   5.338  0.7294 -0.3369 -0.4014
   22MOL0     C 2853   1.082   2.322   5.410 -1.1907  0.4538  0.3747
   22MOL0     C 2854   1.142   2.404   5.318  0.1497  0.7461  0.2228
   22MOL0     C 2855   1.192   2.533   5.342 -0.1815 -0.3978 -0.8230
   22MOL0     C 2856   1.339   2.545   5.296 -0.4230 -0.7192  0.2803
   22MOL0     C 2857   1.399   2.679   5.344 -0.0945  0.0893 -0.0127
   22MOL0     C 2858   1.547   2.693   5.322 -0.5107  0.1348  0.3857
   22MOL0     O 2859   1.636   2.686   5.443  0.3487 -0.2217 -0.0204
   22MOL0     C 2860   1.767   2.707   5.444 -0.1735  0.1706 -0.0742
   22MOL0     C 2861   1.824   2.753   5.562  0.1487 -1.5115 -0.3950
   22MOL0     C 2862   1.956   2.792   5.570 -0.0808  0.5676  0.4916
   22MOL0     C 2863   1.987   2.866   5.697  0.1627 -0.3620  0.1942
   22MOL0     C 2864   2.049   2.763   5.461  0.2759 -1.5033  0.8680
   22MOL0     C 2865   2.190   2.816   5.447 -0.4789  0.7149  0.7461
   22MOL0     O 2866   2.280   2.758   5.350  0.2863 -0.1988  0.2162
   22MOL0     C 2867   2.392   2.830   5.327  0.0133  0.2167  0.5544
   22MOL0     C 2868   2.516   2.781   5.377 -0.2808 -0.1496 -0.2671
   22MOL0     C 2869   2.636   2.854   5.353 -0.3605  0.5989 -0.6763
   22MOL0     C 2870   2.630   2.979   5.292  0.3951  1.0810  0.6354
   22MOL0     O 2871   2.756   3.033   5.256  0.2205  0.7660 -0.7774
   22MOL0     C 2872   2.773   3.172   5.221  0.6588 -0.1453 -0.5219
   22MOL0     C 2873   2.919   3.194   5.203  0.6211  0.0274  0.2326
   22MOL0     C 2874   2.964   3.330   5.154 -0.5150 -0.3170  0.0728
   22MOL0     C 2875   3.112   3.325   5.097 -0.6863 -0.8262 -0.7183
   22MOL0     C 2876   3.157   3.462   5.055 -0.1527 -0.4584 -0.2237
   22MOL0     C 2877   3.077   3.497   4.923 -0.5811  0.1831  0.0196
   22MOL0     C 2878   3.133   3.627   4.856  0.0673 -0.3304 -0.6046
   22MOL0     C 2879   3.029   3.742   4.820  0.1825 -1.3357  0.4228
   22MOL0    Cl 2880   2.901   3.674   4.702  0.4236 -0.1929  0.1924
   22MOL0     C 2881   2.506   3.028   5.247  0.2730 -0.0419  0.1709
   22MOL0     C 2882   2.388   2.954   5.259  0.8435  0.2126 -0.9681
   22MOL0     O 2883   2.212   2.914   5.517 -0.0992 -0.1122 -0.2454
   22MOL0     C 2884   1.987   2.699   5.350 -0.0722 -0.6211 -0.4023
   22MOL0     C 2885   1.856   2.681   5.339 -0.2325  0.8680  0.8103
   22MOL0     N 2886   1.140   2.330   5.198 -0.4947 -0.1927  0.0630
   22MOL0     N 2887   1.094   2.209   5.215  0.0038  0.4633 -0.1703
   22MOL0     C 2888   0.539   2.315   5.874  0.0309 -0.3810  0.4706
   22MOL0     C 2889   0.555   2.432   5.944  0.8668 -0.2644 -0.4404
   22MOL0     C 2890   0.449   2.773   6.267  0.0949 -0.6615  0.5630
   22MOL0     C 2891   0.372   2.872   6.325  0.1852  0.1526  0.3719
   22MOL0     C 2892   0.419   2.969   6.417 -0.4117  0.3988 -0.1842
   22MOL0     C 2893   0.558   2.968   6.443  0.6747  0.7000 -0.1399
   22MOL0     O 2894   0.614   3.067   6.522 -0.0104 -0.3222  0.0477
   22MOL0     C 2895   0.752   3.111   6.500  0.5851  0.6722  0.5267
   22MOL0     C 2896   0.778   3.255   6.544  0.6536  0.4869  0.7916
   22MOL0     C 2897   0.728   3.363   6.440 -0.1523 -0.2909  0.3243
   22MOL0     C 2898   0.572   3.381   6.433 -0.5905  1.2257 -0.4213
   22MOL0     C 2899   0.504   3.357   6.307 -0.3243  1.3312 -0.0194
   22MOL0     C 2900   0.467   3.357   6.191 -0.1990  0.1791 -0.3295
   22MOL0     C 2901   0.636   2.866   6.387 -0.5399  0.3725  0.1581
   22MOL0     C 2902   0.588   2.772   6.295  0.1456 -0.9003 -0.9890
   22MOL0     H 2903   0.262   2.435   6.115 -1.2941 -0.6970 -1.2047
   22MOL0     H 2904   0.230   2.235   5.969 -0.5704  2.0104  0.2073
   22MOL0     H 2905   0.429   2.049   5.613 -2.5084  0.8848 -0.1172
   22MOL0     H 2906   0.546   2.166   5.681 -1.5988  2.8173  2.9510
   22MOL0     H 2907   0.564   1.986   5.888  1.4360  2.5192 -0.4698
   22MOL0     H 2908   0.490   1.888   5.762 -0.2632  0.1900  1.0343
   22MOL0     H 2909   0.760   2.042   5.764 -1.8198  2.8725 -3.7081
   22MOL0     H 2910   0.728   1.863   5.786  0.5667 -3.0243 -4.4031
   22MOL0     H 2911   0.633   1.851   5.559  0.8608 -0.6695  0.2606
   22MOL0     H 2912   0.692   2.014   5.523  1.0147 -0.1640 -2.3605
   22MOL0     H 2913   0.838   1.756   5.571 -0.6161  1.9496  4.4420
   22MOL0     H 2914   0.833   1.857   5.420 -0.1347  1.9770  0.3438
   22MOL0     H 2915   0.981   1.908   5.676 -0.9605  1.1758  0.3417
   22MOL0     H 2916   1.048   1.864   5.512  0.2359  0.2456 -0.8363
   22MOL0     H 2917   0.926   2.141   5.601 -0.0164  0.7903 -0.5274
   22MOL0     H 2918   1.095   2.088   5.557  0.4937  0.0493 -2.0404
   22MOL0     H 2919   0.858   2.102   5.372  0.9259 -0.0129 -1.9668
   22MOL0     H 2920   0.985   1.996   5.328 -2.4379  0.3237 -1.9822
   22MOL0     H 2921   1.073   2.353   5.514  1.1878  1.1579  0.4231
   22MOL0     H 2922   1.130   2.613   5.299 -0.2305 -0.2281 -0.4456
   22MOL0     H 2923   1.187   2.553   5.450  3.4108  0.1488 -0.6588
   22MOL0     H 2924   1.341   2.547   5.186 -0.3585 -1.8733  0.2478
   22MOL0     H 2925   1.404   2.462   5.325  3.9130  1.4750 -2.1044
   22MOL0     H 2926   1.378   2.713   5.446 -1.1306  0.7089 -0.4096
   22MOL0     H 2927   1.353   2.752   5.276 -2.3616  2.7410  3.9946
   22MOL0     H 2928   1.563   2.796   5.288  2.2390 -0.1931  0.4589
   22MOL0     H 2929   1.591   2.631   5.243 -1.3505 -0.9478  0.7451
   22MOL0     H 2930   1.756   2.764   5.645  0.4714 -0.7807 -0.2216
   22MOL0     H 2931   2.027   2.964   5.670  1.4864 -1.3442 -1.6358
   22MOL0     H 2932   1.896   2.877   5.757  0.4780  1.9167  0.3652
   22MOL0     H 2933   2.060   2.819   5.764 -0.3872 -1.1079  0.2817
   22MOL0     H 2934   2.511   2.686   5.428 -0.9773 -0.7719 -1.4658
   22MOL0     H 2935   2.731   2.812   5.384 -1.2266  0.2034  1.6827
   22MOL0     H 2936   2.716   3.182   5.128 -2.0450  1.6189  1.1893
   22MOL0     H 2937   2.734   3.248   5.288  0.6538 -0.2666 -0.3863
   22MOL0     H 2938   2.958   3.187   5.305  1.6064  0.1675 -0.1197
   22MOL0     H 2939   2.971   3.122   5.139 -0.6843 -1.7330  1.0407
   22MOL0     H 2940   2.951   3.403   5.235  0.3942  0.2125 -0.2388
   22MOL0     H 2941   2.891   3.358   5.078 -1.9350 -1.9120  0.7848
   22MOL0     H 2942   3.166   3.291   5.185 -2.7608 -2.7167 -0.1102
   22MOL0     H 2943   3.127   3.253   5.015 -1.2399 -0.8405 -0.8056
   22MOL0     H 2944   3.265   3.464   5.034 -0.1058  0.3087  0.0538
   22MOL0     H 2945   3.145   3.526   5.143 -0.0981 -1.0765  0.2365
   22MOL0     H 2946   3.107   3.423   4.848  2.4408  1.0133  0.2564
   22MOL0     H 2947   2.969   3.503   4.938 -0.6241  0.5283 -0.4225
   22MOL0     H 2948   3.188   3.586   4.771  0.9550  0.2102 -0.3058
   22MOL0     H 2949   3.201   3.671   4.929 -4.1321  1.3975  2.6989
   22MOL0     H 2950   3.086   3.819   4.766  0.4536 -1.8669 -0.0598
   22MOL0     H 2951   2.981   3.785   4.909  0.9824  1.5493 -0.4218
   22MOL0     H 2952   2.501   3.124   5.197  1.7716 -0.1031 -0.1468
   22MOL0     H 2953   2.299   2.994   5.213  1.8074  0.0481 -3.0941
   22MOL0     H 2954   2.040   2.666   5.262 -3.9557 -3.0803 -2.1016
   22MOL0     H 2955   1.828   2.633   5.245  2.3174  1.9963 -0.6361
   22MOL0     H 2956   0.620   2.263   5.825  1.1839  1.2774  0.5515
   22MOL0     H 2957   0.647   2.490   5.952 -1.0328  2.7159  2.0866
   22MOL0     H 2958   0.271   2.896   6.293  0.9262  1.7162 -0.9634
   22MOL0     H 2959   0.358   3.057   6.436 -1.5176  0.5704 -3.8436
   22MOL0     H 2960   0.816   3.044   6.559 -0.3686  2.6528  4.0587
   22MOL0     H 2961   0.791   3.103   6.398 -0.4721  3.0486 -0.1350
   22MOL0     H 2962   0.886   3.272   6.557  0.5744  1.5493  0.1620
   22MOL0     H 2963   0.733   3.254   6.643  0.7855 -2.2929  0.8923
   22MOL0     H 2964   0.758   3.336   6.338 -4.9261 -0.5721 -1.2329
   22MOL0     H 2965   0.778   3.458   6.461  3.0511 -2.0401  1.3075
   22MOL0     H 2966   0.555   3.481   6.475 -0.0994  1.9493 -1.8737
   22MOL0     H 2967   0.530   3.320   6.514  2.1217 -0.3405 -0.0646
   22MOL0     H 2968   0.415   3.363   6.097 -0.2626 -0.0538 -0.3105
   22MOL0     H 2969   0.737   2.856   6.426  0.4379  0.0699 -2.2410
   22MOL0     H 2970   0.659   2.702   6.252  1.9697 -0.7523  1.5938
   23MOL0     O 2971  10.531   8.486   3.085 -0.5779  0.4302 -0.5499
   23MOL0     C 2972  10.408   8.486   3.092  0.6956  0.4173 -0.1964
   23MOL0     O 2973  10.330   8.482   3.207  1.0821 -0.3967  0.2980
   23MOL0     C 2974  10.393   8.460   3.327  0.0841 -0.2079  0.1221
   23MOL0     C 2975  10.323   8.509   3.430 -0.3367  0.0613  0.3146
   23MOL0     C 2976  10.348   8.482   3.561 -0.9920  0.1422 -0.1266
   23MOL0     C 2977  10.458   8.390   3.592 -0.5836 -1.0995  0.6915
   23MOL0     O 2978  10.484   8.346   3.718  0.1447  0.6258  0.1772
   23MOL0     C 2979  10.371   8.327   3.812  0.2815 -0.6282  0.2517
   23MOL0     C 2980  10.420   8.197   3.888  0.2221 -0.1434 -0.4686
   23MOL0     C 2981  10.559   8.208   3.956  0.0436 -0.6427  0.4078
   23MOL0     C 2982  10.553   8.296   4.085  0.1385  1.3371  0.9167
   23MOL0     C 2983  10.680   8.296   4.160  0.3810 -0.2884 -0.1577
   23MOL0     C 2984  10.772   8.410   4.117 -0.9072 -0.3103 -0.0180
   23MOL0     C 2985  10.913   8.393   4.173  0.8733 -0.3043  0.3877
   23MOL0     C 2986  11.020   8.467   4.087  0.2739 -0.1175  0.3891
   23MOL0     N 2987  11.142   8.383   4.067  0.7012 -0.1183  0.2937
   23MOL0     C 2988  11.245   8.357   4.155  0.5096  0.5478 -0.3427
   23MOL0     C 2989  11.351   8.315   4.090  1.0951  0.0889  0.1944
   23MOL0     C 2990  11.488   8.269   4.133 -0.4870  0.4037  0.5014
   23MOL0     C 2991  11.595   8.390   4.118 -0.0604 -0.2939 -0.1484
   23MOL0     C 2992  11.601   8.435   3.973 -0.6161  0.1904 -0.4508
   23MOL0     C 2993  11.693   8.560   3.960 -0.1961  0.0796 -0.3701
   23MOL0     O 2994  11.638   8.662   4.043 -0.3184  0.1885  0.8222
   23MOL0     C 2995  11.516   8.733   4.016 -1.2205  0.5708  1.0416
   23MOL0     C 2996  11.429   8.770   4.118  0.5000 -0.7675 -0.0012
   23MOL0     C 2997  11.317   8.851   4.084  0.2770 -0.4301 -0.1102
   23MOL0     C 2998  11.217   8.879   4.195  0.3645 -1.1399  0.1065
   23MOL0     C 2999  11.295   8.896   3.947 -0.6984 -0.8237  0.1965
   23MOL0     C 3000  11.172   8.971   3.905 -0.7183  0.8415 -0.7198
   23MOL0     O 3001  11.161   8.991   3.775  0.0991  0.4464  0.6295
   23MOL0     C 3002  11.057   9.057   3.710 -0.8107  1.0074 -0.9175
   23MOL0     C 3003  10.974   9.149   3.760  0.0481 -0.8332 -0.4058
   23MOL0     C 3004  10.874   9.214   3.676 -0.7192 -0.3917  0.7759
   23MOL0     C 3005  10.867   9.182   3.545 -0.1232 -0.0597 -0.2980
   23MOL0     O 3006  10.778   9.240   3.453 -0.4441 -0.0400 -0.2251
   23MOL0     C 3007  10.679   9.326   3.498  0.5267  0.0537  0.3443
   23MOL0     C 3008  10.742   9.473   3.512  1.2887 -0.3229  0.8971
   23MOL0     C 3009  10.649   9.575   3.431  0.8414  0.1301  0.4363
   23MOL0     C 3010  10.671   9.718   3.485  0.1649 -0.8582  0.4064
   23MOL0     C 3011  10.584   9.807   3.392  1.2667 -0.8279 -0.5337
   23MOL0     C 3012  10.607   9.955   3.421 -0.2434 -0.8809  0.7699
   23MOL0     C 3013  10.530  10.018   3.539 -1.0629  0.2820  0.9317
   23MOL0     C 3014  10.586  10.153   3.578 -0.3524 -0.5582  0.3970
   23MOL0    Cl 3015  10.502  10.301   3.510 -0.6382 -0.0058 -0.1596
   23MOL0     C 3016  10.956   9.083   3.493 -0.7277  0.4976  0.5781
   23MOL0     C 3017  11.051   9.020   3.575 -0.0630  0.2132  0.4144
   23MOL0     O 3018  11.083   8.997   3.991 -0.4667  0.4024 -0.0984
   23MOL0     C 3019  11.392   8.855   3.845  0.4801 -0.8008 -0.0895
   23MOL0     C 3020  11.494   8.778   3.884  0.4768  0.5460 -0.2841
   23MOL0     N 3021  11.305   8.312   3.956  0.9020 -0.2865 -0.4912
   23MOL0     N 3022  11.181   8.351   3.941 -0.1614 -0.2103  0.1622
   23MOL0     C 3023  10.542   8.352   3.482 -0.3194 -0.5323 -0.3075
   23MOL0     C 3024  10.510   8.385   3.353 -0.0061 -0.2476  0.6613
   23MOL0     C 3025  10.332   8.474   2.969  0.2486 -0.7450  0.1152
   23MOL0     C 3026  10.258   8.359   2.946  0.2261 -0.6181 -0.4966
   23MOL0     C 3027  10.177   8.346   2.826  0.2853  0.3582  0.0436
   23MOL0     C 3028  10.166   8.458   2.740  0.1683  0.0643 -0.5273
   23MOL0     O 3029  10.083   8.470   2.630  0.5259  0.3561 -0.6347
   23MOL0     C 3030  10.064   8.354   2.555  0.0300  0.9389 -0.1477
   23MOL0     C 3031   9.975   8.371   2.429  0.7461  0.8939  0.0977
   23MOL0     C 3032  10.026   8.496   2.343  0.4247  0.3667 -0.1398
   23MOL0     C 3033  10.179   8.486   2.314 -0.1276 -0.3747 -0.0973
   23MOL0     C 3034  10.221   8.355   2.248 -0.5874 -0.7555 -0.6747
   23MOL0     C 3035  10.275   8.262   2.199  0.0213  0.0930  0.3496
   23MOL0     C 3036  10.240   8.571   2.771 -0.4166 -0.2288  0.1515
   23MOL0     C 3037  10.323   8.579   2.879 -0.2656 -0.1191 -0.3090
   23MOL0     H 3038  10.232   8.565   3.413  0.3098  1.0082 -0.0811
   23MOL0     H 3039  10.286   8.501   3.648 -2.9455  2.4389 -1.8717
   23MOL0     H 3040  10.350   8.413   3.875  2.4007  0.9573 -1.0741
   23MOL0     H 3041  10.280   8.301   3.757  0.4006  0.8860 -0.7209
   23MOL0     H 3042  10.345   8.174   3.963 -0.0430  0.0642 -0.6663
   23MOL0     H 3043  10.427   8.119   3.812 -0.1952  0.1095 -0.7718
   23MOL0     H 3044  10.591   8.106   3.981  0.0476 -1.3847 -2.2900
   23MOL0     H 3045  10.629   8.229   3.875 -1.7507 -0.3550 -1.1380
   23MOL0     H 3046  10.508   8.395   4.078 -0.1376  1.1075 -1.0084
   23MOL0     H 3047  10.479   8.247   4.150  0.8315  2.2974  2.4905
   23MOL0     H 3048  10.655   8.303   4.267 -1.1740  1.8593 -0.5920
   23MOL0     H 3049  10.715   8.193   4.156 -1.6343 -1.0813  0.9475
   23MOL0     H 3050  10.757   8.409   4.008 -1.1188 -2.9241 -0.0464
   23MOL0     H 3051  10.733   8.505   4.154  4.1480  1.0929  2.6492
   23MOL0     H 3052  10.924   8.423   4.277  2.4108  0.0633  0.1493
   23MOL0     H 3053  10.937   8.287   4.158 -0.6171 -0.6066 -0.0264
   23MOL0     H 3054  11.050   8.557   4.142 -3.6739  2.0455 -0.6597
   23MOL0     H 3055  10.985   8.496   3.988  2.7307 -1.6165 -1.0342
   23MOL0     H 3056  11.237   8.388   4.258 -0.3986  0.3767 -0.3579
   23MOL0     H 3057  11.492   8.223   4.233 -0.8040 -1.1433 -0.1608
   23MOL0     H 3058  11.515   8.185   4.067 -3.4180 -0.2732  0.0417
   23MOL0     H 3059  11.693   8.369   4.163  0.6011  0.8035 -1.0302
   23MOL0     H 3060  11.555   8.468   4.184  0.7344 -1.5500  1.9232
   23MOL0     H 3061  11.502   8.452   3.930 -1.5399  1.1049  1.8926
   23MOL0     H 3062  11.643   8.353   3.914 -1.3771 -1.7138  1.5182
   23MOL0     H 3063  11.675   8.598   3.859 -1.2165 -2.6550 -1.3077
   23MOL0     H 3064  11.801   8.548   3.977 -0.7732 -0.8120  3.4455
   23MOL0     H 3065  11.456   8.728   4.214 -1.5064  1.6279  1.7682
   23MOL0     H 3066  11.236   8.828   4.290 -2.6766  1.8299  2.5741
   23MOL0     H 3067  11.215   8.987   4.212  2.5328 -0.8702 -1.0045
   23MOL0     H 3068  11.121   8.839   4.161 -0.6916  0.0980  1.4716
   23MOL0     H 3069  10.987   9.169   3.866 -2.0487 -2.3315  0.2249
   23MOL0     H 3070  10.812   9.291   3.720 -0.4096  3.2049 -4.2421
   23MOL0     H 3071  10.600   9.341   3.423 -0.6214  2.2531  1.8919
   23MOL0     H 3072  10.619   9.293   3.583  2.4864  0.9208  2.1691
   23MOL0     H 3073  10.744   9.504   3.617 -0.1729  0.8572  0.6258
   23MOL0     H 3074  10.845   9.483   3.478  0.7580 -0.6831 -0.9685
   23MOL0     H 3075  10.545   9.541   3.437  0.4970  0.5731 -1.9782
   23MOL0     H 3076  10.677   9.576   3.325 -1.4132  1.9103 -0.2073
   23MOL0     H 3077  10.643   9.726   3.591  1.2043  1.1459  0.5813
   23MOL0     H 3078  10.777   9.740   3.466 -0.0551 -0.7646 -0.7535
   23MOL0     H 3079  10.476   9.786   3.393  1.2308 -0.6961 -1.1330
   23MOL0     H 3080  10.621   9.794   3.289 -1.4913  0.6577 -1.8158
   23MOL0     H 3081  10.714   9.966   3.436 -0.5331  1.5749  1.4540
   23MOL0     H 3082  10.584  10.011   3.330  3.4973 -1.0303 -0.4031
   23MOL0     H 3083  10.549   9.958   3.628  0.2808  1.5475  1.5629
   23MOL0     H 3084  10.423  10.034   3.525 -1.3666 -3.6336 -3.7524
   23MOL0     H 3085  10.693  10.165   3.558 -0.5221 -0.6013 -0.6137
   23MOL0     H 3086  10.570  10.157   3.686 -2.5372 -1.6027  0.1771
   23MOL0     H 3087  10.956   9.059   3.387 -1.2142  2.1117  0.1850
   23MOL0     H 3088  11.119   8.944   3.538  0.0652  1.2626 -1.6691
   23MOL0     H 3089  11.374   8.890   3.744 -0.9747  0.4940  0.5789
   23MOL0     H 3090  11.564   8.756   3.804 -0.1934 -4.6665  0.2132
   23MOL0     H 3091  10.630   8.288   3.484  1.8419  2.1946 -1.3279
   23MOL0     H 3092  10.574   8.343   3.275  4.4999  0.2200  3.7649
   23MOL0     H 3093  10.254   8.289   3.029 -4.0681  1.0330  0.9661
   23MOL0     H 3094  10.103   8.268   2.810 -2.1090  2.6554 -0.8133
   23MOL0     H 3095  10.157   8.314   2.514  0.4571  0.4671  1.2544
   23MOL0     H 3096  10.027   8.273   2.619 -1.3384 -0.0317 -2.0534
   23MOL0     H 3097   9.871   8.385   2.461  0.5363  0.7880 -0.5359
   23MOL0     H 3098   9.966   8.288   2.359 -1.1157  2.8040 -2.1102
   23MOL0     H 3099  10.003   8.587   2.399  0.9573  0.7076 -0.4660
   23MOL0     H 3100   9.984   8.506   2.242  1.4967 -1.2868 -0.7911
   23MOL0     H 3101  10.231   8.480   2.410 -1.1112 -3.8998  0.3361
   23MOL0     H 3102  10.208   8.577   2.260 -1.5881  0.5557  0.6113
   23MOL0     H 3103  10.307   8.170   2.155 -0.2468 -1.5387  3.2607
   23MOL0     H 3104  10.244   8.656   2.703  1.7566 -2.4788 -2.8227
   23MOL0     H 3105  10.373   8.675   2.887  0.1242 -0.0287 -3.1278
   24MOL0     O 3106   5.430   1.374   9.014 -0.4585  0.2974 -0.2556
   24MOL0     C 3107   5.493   1.483   9.032 -0.0314  0.1563  0.2834
   24MOL0     O 3108   5.619   1.496   9.084 -0.0051 -0.1333 -0.0547
   24MOL0     C 3109   5.695   1.380   9.121  0.3658 -0.4447  0.2883
   24MOL0     C 3110   5.832   1.383   9.095  0.7635 -0.2655  0.1027
   24MOL0     C 3111   5.923   1.293   9.149 -0.0871  1.0461  0.8483
   24MOL0     C 3112   5.866   1.185   9.219  0.0991 -0.3371  0.6542
   24MOL0     O 3113   5.951   1.087   9.265 -0.6875 -0.6265  0.4489
   24MOL0     C 3114   5.896   0.954   9.271  0.2554 -0.7138  0.4039
   24MOL0     C 3115   6.008   0.858   9.286 -0.1658 -1.0893 -0.2888
   24MOL0     C 3116   6.124   0.876   9.194 -0.0191 -0.2178 -0.1093
   24MOL0     C 3117   6.237   0.769   9.217  0.7068  0.4599  0.3595
   24MOL0     C 3118   6.361   0.808   9.124 -0.3265 -0.8706  0.0057
   24MOL0     C 3119   6.471   0.709   9.157  0.2561 -0.5710  0.8951
   24MOL0     C 3120   6.602   0.782   9.092 -0.7444 -0.5276 -0.4390
   24MOL0     C 3121   6.720   0.691   9.090  0.2117  0.2478 -0.0545
   24MOL0     N 3122   6.790   0.684   9.219  0.6198 -0.1509  1.0630
   24MOL0     C 3123   6.803   0.573   9.292 -0.0648  0.2338 -1.0418
   24MOL0     C 3124   6.913   0.592   9.364 -0.5810  0.8176 -0.6252
   24MOL0     C 3125   6.988   0.495   9.447  0.6703  0.7376 -0.5569
   24MOL0     C 3126   6.894   0.424   9.543 -0.1372 -0.2817  0.2571
   24MOL0     C 3127   6.962   0.333   9.640 -0.1659  0.0241 -1.2252
   24MOL0     C 3128   6.852   0.281   9.751 -0.5872 -0.1363 -0.3602
   24MOL0     O 3129   6.910   0.169   9.825 -0.0495  0.8908 -0.2648
   24MOL0     C 3130   6.911   0.171   9.963  0.5535  0.5303 -0.0164
   24MOL0     C 3131   6.884   0.280  10.051  0.0595 -0.3356 -0.6672
   24MOL0     C 3132   6.871   0.254  10.190 -0.6492 -0.5534  0.1924
   24MOL0     C 3133   6.831   0.357  10.282  0.1591 -0.4708 -0.0411
   24MOL0     C 3134   6.883   0.116  10.242  0.6514 -0.3306 -0.5055
   24MOL0     C 3135   6.869   0.087  10.390  0.4114  0.0212  0.5031
   24MOL0     O 3136   6.769   0.140  10.457 -0.6876 -0.6307 -0.1757
   24MOL0     C 3137   6.732   0.113  10.584 -0.8689  0.2578 -0.3068
   24MOL0     C 3138   6.652   0.210  10.645 -0.2153 -0.3758  0.3078
   24MOL0     C 3139   6.618   0.197  10.780 -0.1570  0.2740 -0.5686
   24MOL0     C 3140   6.651   0.086  10.854 -0.2805  0.2606  0.1065
   24MOL0     O 3141   6.610   0.082  10.988 -0.1554  0.5607 -0.2217
   24MOL0     C 3142   6.660  -0.021  11.073 -0.1903 -0.7756 -0.3573
   24MOL0     C 3143   6.620   0.008  11.222  0.4023  0.2770  0.2032
   24MOL0     C 3144   6.467   0.042  11.230 -0.1286 -0.0355 -0.2127
   24MOL0     C 3145   6.412   0.044  11.378  1.3205  0.1588 -0.1493
   24MOL0     C 3146   6.364  -0.094  11.429 -0.1055 -0.2085 -0.0191
   24MOL0     C 3147   6.280  -0.085  11.553  0.7861  0.1683  0.3222
   24MOL0     C 3148   6.216  -0.214  11.609 -0.7203 -0.2207  0.3402
   24MOL0     C 3149   6.086  -0.187  11.678  0.7951  0.1460 -0.9049
   24MOL0    Cl 3150   6.013  -0.352  11.730 -0.2163  0.0198  0.0209
   24MOL0     C 3151   6.725  -0.020  10.787  0.7100  0.4497 -0.2603
   24MOL0     C 3152   6.764  -0.007  10.655  0.0580 -0.8062 -0.2399
   24MOL0     O 3153   6.950   0.010  10.441 -0.6776 -0.7434 -0.2791
   24MOL0     C 3154   6.914   0.013  10.153  0.1294 -0.0539  0.1046
   24MOL0     C 3155   6.937   0.045  10.018 -0.8962  0.5526 -0.1321
   24MOL0     N 3156   6.966   0.715   9.340  0.2838  0.0903  1.2368
   24MOL0     N 3157   6.892   0.762   9.247 -0.9487 -0.9563 -0.3132
   24MOL0     C 3158   5.723   1.169   9.226  0.3323  0.6532  0.2051
   24MOL0     C 3159   5.640   1.270   9.185 -0.2655 -0.2990 -0.5013
   24MOL0     C 3160   5.443   1.612   8.964  0.5152 -0.0158 -0.9266
   24MOL0     C 3161   5.327   1.607   8.885  0.1659 -0.3260  0.0108
   24MOL0     C 3162   5.269   1.726   8.840  0.5172  0.3076  0.3052
   24MOL0     C 3163   5.334   1.849   8.867  0.1523  0.9202  0.5478
   24MOL0     O 3164   5.279   1.969   8.842  0.1366 -0.2732  0.1194
   24MOL0     C 3165   5.242   1.988   8.708  0.2132 -0.0721  0.0799
   24MOL0     C 3166   5.135   2.100   8.682 -0.6578  0.6391 -0.0713
   24MOL0     C 3167   4.985   2.041   8.671  0.4025  0.8333 -0.2870
   24MOL0     C 3168   4.923   1.996   8.811 -0.0996  0.0109  0.8149
   24MOL0     C 3169   4.894   1.849   8.800 -0.5878  0.7404  0.1028
   24MOL0     C 3170   4.874   1.729   8.816  0.8927 -0.8287 -0.0231
   24MOL0     C 3171   5.448   1.859   8.957  0.6573 -0.3401  0.1489
   24MOL0     C 3172   5.505   1.741   8.996  0.3201 -0.2599 -0.2544
   24MOL0     H 3173   5.874   1.464   9.035  0.0153 -0.9266 -1.3820
   24MOL0     H 3174   6.029   1.314   9.146  0.6375 -1.9511  1.9834
   24MOL0     H 3175   5.833   0.937   9.359  0.2240  0.2626  0.5818
   24MOL0     H 3176   5.828   0.931   9.189  0.6353 -0.8879  0.1332
   24MOL0     H 3177   6.038   0.855   9.391 -2.1190  1.1278  0.4210
   24MOL0     H 3178   5.974   0.757   9.261  1.8311 -2.4595  2.0130
   24MOL0     H 3179   6.093   0.861   9.090  1.3937  0.8199 -0.7138
   24MOL0     H 3180   6.164   0.976   9.212 -1.5327  0.1287  1.6242
   24MOL0     H 3181   6.266   0.775   9.322  2.5969  1.0059 -0.1596
   24MOL0     H 3182   6.194   0.672   9.191  2.8218 -1.1605  2.4564
   24MOL0     H 3183   6.340   0.808   9.017  1.8957  0.6327 -0.5016
   24MOL0     H 3184   6.384   0.912   9.149 -0.5429 -0.2391 -2.1856
   24MOL0     H 3185   6.486   0.695   9.264 -0.8068 -3.7884  0.7307
   24MOL0     H 3186   6.459   0.607   9.118  0.3646 -0.2550  0.0040
   24MOL0     H 3187   6.584   0.824   8.993  2.1087 -1.0074 -1.2726
   24MOL0     H 3188   6.621   0.862   9.163  0.5445 -1.7159  0.6331
   24MOL0     H 3189   6.787   0.745   9.022  0.4240  0.3144  0.2099
   24MOL0     H 3190   6.696   0.589   9.057  0.4993  0.7179 -1.8612
   24MOL0     H 3191   6.754   0.476   9.283  2.4252 -1.2016  0.0418
   24MOL0     H 3192   7.012   0.417   9.374 -0.8021 -1.0066  0.7359
   24MOL0     H 3193   7.071   0.531   9.510  1.7022 -3.0494  0.5143
   24MOL0     H 3194   6.824   0.358   9.491  1.3385 -0.9837 -0.9150
   24MOL0     H 3195   6.847   0.501   9.606  0.7013 -2.6345  4.0540
   24MOL0     H 3196   7.035   0.392   9.697 -2.3767  1.1070  0.6779
   24MOL0     H 3197   7.006   0.247   9.589 -2.5154 -1.5378 -0.7532
   24MOL0     H 3198   6.782   0.235   9.681  0.4756 -0.8057 -1.0147
   24MOL0     H 3199   6.802   0.350   9.819 -4.3208 -4.3375  1.7057
   24MOL0     H 3200   6.859   0.382  10.022  0.8361 -0.3430 -1.4133
   24MOL0     H 3201   6.732   0.346  10.327 -0.0570  2.3442  0.3452
   24MOL0     H 3202   6.903   0.361  10.365 -0.0832 -0.7650  0.1867
   24MOL0     H 3203   6.828   0.454  10.232  0.0064 -0.3389  0.2194
   24MOL0     H 3204   6.618   0.297  10.591  3.6084  0.2450 -1.3908
   24MOL0     H 3205   6.554   0.269  10.830  0.4486  0.8164 -0.5627
   24MOL0     H 3206   6.618  -0.115  11.038  3.2041 -2.5652 -0.1448
   24MOL0     H 3207   6.769  -0.038  11.073  0.1785  1.2831  0.2183
   24MOL0     H 3208   6.647  -0.075  11.288  1.1254  0.4257  0.1000
   24MOL0     H 3209   6.667   0.096  11.267 -1.8968  0.5663  2.2929
   24MOL0     H 3210   6.416  -0.037  11.174  2.3496 -1.1954 -0.9390
   24MOL0     H 3211   6.458   0.138  11.179  4.5086  0.2782 -0.8765
   24MOL0     H 3212   6.479   0.087  11.453  2.7780 -0.3334 -1.1359
   24MOL0     H 3213   6.329   0.114  11.369 -1.0409 -2.6618 -3.0366
   24MOL0     H 3214   6.443  -0.168  11.446 -1.6247 -1.9441 -0.1272
   24MOL0     H 3215   6.291  -0.123  11.353 -0.2084 -0.0820  0.0326
   24MOL0     H 3216   6.341  -0.054  11.638 -0.0839  0.9653  0.6833
   24MOL0     H 3217   6.210  -0.003  11.534  1.1497  0.4777  0.3041
   24MOL0     H 3218   6.276  -0.270  11.681 -2.8141 -1.4246  1.2473
   24MOL0     H 3219   6.207  -0.287  11.528 -2.3109  1.7181 -1.3170
   24MOL0     H 3220   6.024  -0.132  11.606 -0.9983 -2.6519 -1.6392
   24MOL0     H 3221   6.112  -0.126  11.765  3.6971  1.8898 -2.8195
   24MOL0     H 3222   6.759  -0.112  10.832 -2.2698 -1.1768 -1.1242
   24MOL0     H 3223   6.816  -0.090  10.609  1.6702 -0.7079  1.2808
   24MOL0     H 3224   6.924  -0.088  10.193  2.2620  0.5408  1.2590
   24MOL0     H 3225   6.956  -0.040   9.953  2.4737  0.8543  0.3189
   24MOL0     H 3226   5.677   1.078   9.263 -1.9556  1.5210 -0.2751
   24MOL0     H 3227   5.533   1.267   9.201  0.0143 -2.2938  1.5579
   24MOL0     H 3228   5.294   1.506   8.864  2.7036 -1.0025 -1.0325
   24MOL0     H 3229   5.181   1.733   8.778 -0.0502 -0.0148  1.0633
   24MOL0     H 3230   5.331   2.011   8.648  0.6400 -1.1388  0.2927
   24MOL0     H 3231   5.195   1.897   8.671 -0.3351  0.2224  0.0444
   24MOL0     H 3232   5.156   2.154   8.589  1.3243  2.4274  1.3432
   24MOL0     H 3233   5.130   2.170   8.765 -2.1710 -0.0440  0.4518
   24MOL0     H 3234   4.985   1.954   8.605 -2.4337  1.1889 -0.8800
   24MOL0     H 3235   4.916   2.108   8.619  1.7297  2.9194  0.5321
   24MOL0     H 3236   4.835   2.060   8.826 -0.3086  0.1575 -0.9220
   24MOL0     H 3237   4.985   2.024   8.897  1.9004 -1.4172 -0.1028
   24MOL0     H 3238   4.849   1.635   8.861  2.7415 -0.6678  1.4838
   24MOL0     H 3239   5.480   1.960   8.981  1.6701  0.1731 -2.8612
   24MOL0     H 3240   5.579   1.746   9.076  2.3035 -0.4669 -1.9972
   25MOL0     O 3241   4.106   1.540   6.910 -1.0665  0.2844  0.4859
   25MOL0     C 3242   4.116   1.502   6.791 -0.2457  0.3821  0.2033
   25MOL0     O 3243   4.038   1.414   6.725 -0.6798  0.0005 -0.2134
   25MOL0     C 3244   3.919   1.364   6.776 -0.2462  0.5655 -0.5174
   25MOL0     C 3245   3.823   1.444   6.830  0.4413 -0.3010  0.6214
   25MOL0     C 3246   3.697   1.384   6.868  0.6992 -1.0793  0.8258
   25MOL0     C 3247   3.684   1.246   6.865 -0.3368 -0.9377  0.8471
   25MOL0     O 3248   3.567   1.189   6.918 -0.0563  0.5004 -0.4840
   25MOL0     C 3249   3.514   1.058   6.890 -0.6625  0.3268  0.9598
   25MOL0     C 3250   3.439   1.064   6.750 -0.7646  0.2151  0.4191
   25MOL0     C 3251   3.389   0.927   6.687  1.1663 -0.7166 -0.4310
   25MOL0     C 3252   3.272   0.957   6.590  0.8541 -0.1480 -0.1598
   25MOL0     C 3253   3.273   0.839   6.492 -0.1788  0.1823  0.2583
   25MOL0     C 3254   3.212   0.872   6.363 -0.0083  0.5003  0.3047
   25MOL0     C 3255   3.161   0.741   6.301 -0.0173  0.8376  0.0515
   25MOL0     C 3256   3.064   0.784   6.190 -0.3645 -0.1201  0.6335
   25MOL0     N 3257   3.049   0.670   6.103 -0.6291 -0.3766  0.0947
   25MOL0     C 3258   2.939   0.595   6.103 -1.0373  0.7239  0.7864
   25MOL0     C 3259   2.964   0.492   6.019  0.3830  0.5553 -0.3704
   25MOL0     C 3260   2.878   0.370   5.989 -0.3280 -0.9131  0.1634
   25MOL0     C 3261   2.802   0.310   6.103  0.6673 -0.5278 -0.4488
   25MOL0     C 3262   2.759   0.168   6.054 -0.8029 -0.3330 -0.3120
   25MOL0     C 3263   2.623   0.142   5.977  0.3439 -0.2268 -0.7611
   25MOL0     O 3264   2.656   0.153   5.834 -0.1758 -0.1914 -0.5299
   25MOL0     C 3265   2.550   0.121   5.749  0.4527 -0.5821  0.3714
   25MOL0     C 3266   2.576   0.093   5.610 -0.3854  0.6764  0.4901
   25MOL0     C 3267   2.477   0.051   5.518 -0.6810  1.1349 -0.4632
   25MOL0     C 3268   2.515  -0.008   5.384  0.2203  0.4290 -0.3754
   25MOL0     C 3269   2.344   0.056   5.563 -0.3963 -0.0198  0.2985
   25MOL0     C 3270   2.227   0.006   5.472  0.9823 -0.0985 -0.3393
   25MOL0     O 3271   2.132  -0.078   5.527 -0.0669 -0.3783  0.0282
   25MOL0     C 3272   2.006  -0.098   5.465 -0.4401 -0.1135 -0.5848
   25MOL0     C 3273   1.897  -0.016   5.494  0.5441  0.1951 -0.2687
   25MOL0     C 3274   1.767  -0.044   5.448 -0.4936 -0.2198 -0.3678
   25MOL0     C 3275   1.734  -0.150   5.376  0.1371  0.1313 -0.8282
   25MOL0     O 3276   1.604  -0.192   5.340  0.6240 -0.6665  0.1593
   25MOL0     C 3277   1.509  -0.084   5.326 -0.7306 -0.2239 -0.0384
   25MOL0     C 3278   1.382  -0.128   5.251  0.6867 -0.2628 -0.2543
   25MOL0     C 3279   1.405  -0.174   5.105 -0.1189  0.5495  0.2758
   25MOL0     C 3280   1.291  -0.254   5.039  0.1244  0.2541 -0.5796
   25MOL0     C 3281   1.348  -0.355   4.949  0.6042  0.9075  0.6752
   25MOL0     C 3282   1.254  -0.429   4.864  0.1769 -0.1092  0.3076
   25MOL0     C 3283   1.172  -0.345   4.753  0.2369  0.2901 -0.4155
   25MOL0     C 3284   1.221  -0.351   4.613 -0.0063 -0.0561  0.7383
   25MOL0    Cl 3285   1.393  -0.276   4.607  0.8404 -0.0805 -0.2081
   25MOL0     C 3286   1.838  -0.236   5.348 -0.1858 -1.0828 -0.3301
   25MOL0     C 3287   1.968  -0.211   5.393 -0.2421  0.4403  0.3526
   25MOL0     O 3288   2.220   0.041   5.357  0.2603  0.5100 -0.7168
   25MOL0     C 3289   2.316   0.084   5.692 -1.0937  0.0197  0.3133
   25MOL0     C 3290   2.413   0.127   5.786  0.2896 -0.3649 -1.0777
   25MOL0     N 3291   3.085   0.520   5.959  0.0639  0.0220 -0.4479
   25MOL0     N 3292   3.132   0.626   6.002  0.3090 -0.4356 -0.5959
   25MOL0     C 3293   3.788   1.173   6.797 -0.3719 -0.4566 -0.7361
   25MOL0     C 3294   3.898   1.237   6.739 -0.1983  0.9613 -0.1527
   25MOL0     C 3295   4.217   1.577   6.712  0.0002  0.4455 -0.8919
   25MOL0     C 3296   4.251   1.540   6.581  0.3528 -0.2378  0.1944
   25MOL0     C 3297   4.359   1.599   6.499  0.7757  0.1295 -0.3278
   25MOL0     C 3298   4.435   1.700   6.553 -0.5322  0.1847 -0.2822
   25MOL0     O 3299   4.520   1.762   6.469  0.0015  0.6785 -1.1287
   25MOL0     C 3300   4.661   1.721   6.464  0.8987 -0.3958 -1.1215
   25MOL0     C 3301   4.733   1.748   6.596  0.4632 -0.2623  1.2355
   25MOL0     C 3302   4.737   1.892   6.627 -0.1016 -0.2465  1.8440
   25MOL0     C 3303   4.800   1.924   6.759  0.2081  0.1485  0.4622
   25MOL0     C 3304   4.737   1.851   6.871 -0.3874 -1.2927 -0.4171
   25MOL0     C 3305   4.672   1.794   6.949  0.1925 -0.2655  0.1028
   25MOL0     C 3306   4.406   1.742   6.684 -0.3713 -0.7229 -0.1227
   25MOL0     C 3307   4.308   1.676   6.761 -0.4340 -0.1299  0.4976
   25MOL0     H 3308   3.852   1.548   6.836  0.6794 -0.2669 -0.7385
   25MOL0     H 3309   3.626   1.451   6.914  2.0882  0.5515  0.6809
   25MOL0     H 3310   3.593   0.985   6.874 -1.1200  0.0985 -0.3838
   25MOL0     H 3311   3.461   1.000   6.966  2.2659 -4.4073 -0.2236
   25MOL0     H 3312   3.356   1.133   6.765 -1.5616 -1.0679  2.2419
   25MOL0     H 3313   3.504   1.111   6.676 -3.0677  0.3944 -1.6442
   25MOL0     H 3314   3.477   0.879   6.643  1.7127  1.0901 -1.4249
   25MOL0     H 3315   3.348   0.859   6.761 -0.4705  0.4855 -0.1831
   25MOL0     H 3316   3.179   0.957   6.647 -0.6942 -4.1267 -2.2623
   25MOL0     H 3317   3.285   1.053   6.539  1.8165  0.3697  1.0219
   25MOL0     H 3318   3.374   0.805   6.468 -1.1037 -1.2336 -1.9112
   25MOL0     H 3319   3.213   0.762   6.541 -2.4604  1.9473  0.4030
   25MOL0     H 3320   3.134   0.947   6.377  2.0306  2.6522  0.6481
   25MOL0     H 3321   3.287   0.924   6.304 -0.4003  1.8928  0.9954
   25MOL0     H 3322   3.247   0.683   6.265  0.8363 -0.8059  4.2115
   25MOL0     H 3323   3.106   0.673   6.367 -1.0689 -0.2417 -1.8373
   25MOL0     H 3324   3.105   0.868   6.133 -0.8430 -0.6339 -0.5073
   25MOL0     H 3325   2.966   0.818   6.224 -1.8540 -0.9879 -2.3715
   25MOL0     H 3326   2.849   0.611   6.161 -1.7907 -4.2050  1.4525
   25MOL0     H 3327   2.807   0.387   5.908 -2.5278  1.6323  2.4263
   25MOL0     H 3328   2.961   0.308   5.952  1.8656  0.8082  1.8927
   25MOL0     H 3329   2.711   0.363   6.134  0.9365 -0.6716  0.6382
   25MOL0     H 3330   2.869   0.281   6.184 -2.0723  0.3999  2.3794
   25MOL0     H 3331   2.736   0.124   6.151  1.0534  0.3599  0.4786
   25MOL0     H 3332   2.847   0.126   6.004 -0.7186  1.1039 -1.4348
   25MOL0     H 3333   2.553   0.221   6.005  0.1282 -1.5441  2.9955
   25MOL0     H 3334   2.598   0.042   6.015  0.7313  0.5077  1.5835
   25MOL0     H 3335   2.682   0.082   5.590 -0.5458 -1.2587  0.4931
   25MOL0     H 3336   2.622  -0.031   5.384  0.3169  0.3383 -3.5931
   25MOL0     H 3337   2.464  -0.103   5.363 -1.1557  1.0760 -0.0788
   25MOL0     H 3338   2.486   0.066   5.308  2.6333  1.4087 -0.4240
   25MOL0     H 3339   1.893   0.059   5.572 -1.2958 -1.1940  1.0568
   25MOL0     H 3340   1.692   0.026   5.483 -1.2634 -1.7987  1.3220
   25MOL0     H 3341   1.479  -0.026   5.414 -1.8159 -0.3369 -0.3154
   25MOL0     H 3342   1.562  -0.014   5.260 -0.6116  1.7867  2.0345
   25MOL0     H 3343   1.336  -0.208   5.310 -2.9609  1.2031 -0.8256
   25MOL0     H 3344   1.313  -0.043   5.247  2.0454  0.8272 -1.3068
   25MOL0     H 3345   1.495  -0.236   5.105 -1.4477 -1.4862  1.6698
   25MOL0     H 3346   1.435  -0.081   5.055  4.1651  0.2065  1.8441
   25MOL0     H 3347   1.234  -0.302   5.119  2.3992 -0.2008  0.8788
   25MOL0     H 3348   1.212  -0.192   4.996 -1.5312 -0.9020  0.6588
   25MOL0     H 3349   1.398  -0.431   5.011  1.2917  1.5066  0.8629
   25MOL0     H 3350   1.425  -0.308   4.888  0.9152  0.5394  0.7810
   25MOL0     H 3351   1.310  -0.507   4.810  1.7396  0.1643  1.4780
   25MOL0     H 3352   1.185  -0.475   4.935  1.1006  0.2913  1.4981
   25MOL0     H 3353   1.171  -0.239   4.782  1.0205  0.4692 -1.0063
   25MOL0     H 3354   1.074  -0.390   4.766 -0.6106  1.6718 -1.7440
   25MOL0     H 3355   1.150  -0.304   4.545 -1.9947 -1.8208  1.5060
   25MOL0     H 3356   1.244  -0.452   4.580 -1.1410  0.3728 -1.6041
   25MOL0     H 3357   1.800  -0.325   5.300  1.2750 -1.9092 -0.0054
   25MOL0     H 3358   2.052  -0.274   5.366 -0.2097  0.7832 -0.3627
   25MOL0     H 3359   2.215   0.090   5.733 -0.9616  2.0685  0.4571
   25MOL0     H 3360   2.379   0.151   5.886  2.1563 -1.0843 -0.2186
   25MOL0     H 3361   3.772   1.066   6.789  0.2235 -0.4356 -2.9677
   25MOL0     H 3362   3.968   1.166   6.697 -0.7118  0.2742  0.1274
   25MOL0     H 3363   4.191   1.462   6.534 -0.4506  0.6985 -0.3654
   25MOL0     H 3364   4.373   1.571   6.395 -1.5974  3.1739 -1.6050
   25MOL0     H 3365   4.663   1.615   6.434  1.2603  0.1148 -3.0249
   25MOL0     H 3366   4.714   1.778   6.387  0.8225 -0.5885 -1.3184
   25MOL0     H 3367   4.839   1.725   6.578  0.0924  0.6718 -3.0817
   25MOL0     H 3368   4.687   1.694   6.678  1.4692  1.5204  3.0923
   25MOL0     H 3369   4.643   1.946   6.620 -0.4646 -1.0807 -1.1314
   25MOL0     H 3370   4.799   1.938   6.549 -0.8213 -1.9151  0.2181
   25MOL0     H 3371   4.803   2.032   6.778  7.0527  0.7007 -1.1420
   25MOL0     H 3372   4.902   1.885   6.757 -0.0488 -0.5337  0.5898
   25MOL0     H 3373   4.613   1.721   7.000  0.2947 -1.0088 -0.8198
   25MOL0     H 3374   4.465   1.827   6.718 -0.0541 -0.3569 -1.5002
   25MOL0     H 3375   4.309   1.695   6.867  0.0165 -1.0264  0.6654
   26MOL0     O 3376   2.647   6.084   8.708  0.4678 -0.1508 -0.2646
   26MOL0     C 3377   2.544   6.061   8.768  1.2619  0.7091 -0.5340
   26MOL0     O 3378   2.533   6.020   8.903 -1.2638 -1.0226 -0.1658
   26MOL0     C 3379   2.644   6.050   8.979 -0.9749  0.5413  0.8996
   26MOL0     C 3380   2.692   5.939   9.054  0.1955 -0.8852 -0.4764
   26MOL0     C 3381   2.812   5.951   9.124 -0.3838  0.0370  0.0276
   26MOL0     C 3382   2.884   6.065   9.113 -0.1618 -0.6588  0.1498
   26MOL0     O 3383   3.012   6.082   9.176  0.5770  0.2710 -0.3263
   26MOL0     C 3384   3.068   5.962   9.249  0.2947 -0.2331  0.5181
   26MOL0     C 3385   3.210   5.975   9.305 -1.1270  0.0344  0.7534
   26MOL0     C 3386   3.311   6.002   9.186  0.6686  0.3289  0.3926
   26MOL0     C 3387   3.445   5.953   9.216  0.9696 -0.1585 -0.5408
   26MOL0     C 3388   3.532   5.962   9.091  0.1027 -0.2348 -0.5756
   26MOL0     C 3389   3.662   5.913   9.124  0.2980  0.2249  1.5681
   26MOL0     C 3390   3.740   5.919   8.989 -0.9668  0.0414 -0.0437
   26MOL0     C 3391   3.831   6.041   9.002 -0.8598  0.1896  0.8543
   26MOL0     N 3392   3.919   6.038   8.875 -0.0171  0.3488 -0.3936
   26MOL0     C 3393   3.993   5.934   8.825  0.4455  0.9357 -0.1176
   26MOL0     C 3394   4.039   5.965   8.704  0.2452 -0.4457  0.5067
   26MOL0     C 3395   4.131   5.885   8.620 -0.3099  0.0017  0.5526
   26MOL0     C 3396   4.167   5.737   8.655  0.3695  0.6885 -0.4741
   26MOL0     C 3397   4.243   5.682   8.542  0.2200 -0.0058  0.6486
   26MOL0     C 3398   4.315   5.546   8.563  0.4619  0.2363  0.2951
   26MOL0     O 3399   4.423   5.574   8.652  0.4283  0.8218 -0.1329
   26MOL0     C 3400   4.498   5.469   8.697  1.2700 -0.1754 -0.4507
   26MOL0     C 3401   4.605   5.505   8.787 -1.0180  0.1887  0.5707
   26MOL0     C 3402   4.687   5.402   8.835 -0.0978 -0.7747 -0.4611
   26MOL0     C 3403   4.774   5.449   8.954 -0.0849 -0.4286 -0.1990
   26MOL0     C 3404   4.668   5.269   8.793 -0.6275  0.0553 -0.4430
   26MOL0     C 3405   4.759   5.154   8.844  0.5563 -0.1953  0.1768
   26MOL0     O 3406   4.893   5.180   8.851  0.0105  1.0168 -0.0730
   26MOL0     C 3407   4.983   5.097   8.921 -0.3724  0.1545  0.1170
   26MOL0     C 3408   5.090   5.050   8.849  0.2034  0.3140 -0.1544
   26MOL0     C 3409   5.178   4.960   8.913 -0.7772  0.0633  0.8392
   26MOL0     C 3410   5.168   4.930   9.044 -0.3748  1.3145  0.4648
   26MOL0     O 3411   5.268   4.855   9.097  0.0979 -0.2459  0.5221
   26MOL0     C 3412   5.289   4.874   9.236 -0.3834  0.1220  1.7393
   26MOL0     C 3413   5.398   4.784   9.284  0.0600 -0.5713  0.2877
   26MOL0     C 3414   5.532   4.798   9.209  0.5499 -0.5975  0.0113
   26MOL0     C 3415   5.629   4.676   9.232 -1.0505 -0.5994 -0.0170
   26MOL0     C 3416   5.774   4.715   9.197 -0.2258  0.2325  0.0043
   26MOL0     C 3417   5.884   4.608   9.229  0.9487  0.0178  0.3188
   26MOL0     C 3418   5.865   4.485   9.130 -0.3701  0.2397 -0.0307
   26MOL0     C 3419   5.949   4.365   9.186 -0.0590  0.2794  0.0167
   26MOL0    Cl 3420   6.121   4.402   9.151 -0.3575  0.1199 -0.4488
   26MOL0     C 3421   5.056   4.977   9.111  0.1272  1.0070  0.5253
   26MOL0     C 3422   4.966   5.061   9.050  0.9858 -0.5523 -0.4012
   26MOL0     O 3423   4.702   5.049   8.867 -0.1400 -0.2322 -0.2229
   26MOL0     C 3424   4.554   5.226   8.721 -0.0977 -0.7449  0.1410
   26MOL0     C 3425   4.469   5.331   8.668 -0.0277 -0.5523 -0.3233
   26MOL0     N 3426   3.979   6.091   8.672 -0.1832  0.0996 -0.5585
   26MOL0     N 3427   3.899   6.125   8.774  0.2048  0.2064  0.1957
   26MOL0     C 3428   2.838   6.179   9.046  0.3460  0.2206 -0.7367
   26MOL0     C 3429   2.711   6.174   8.979 -1.4325  1.2034  0.2499
   26MOL0     C 3430   2.414   6.056   8.694  0.1438 -0.2317  0.0790
   26MOL0     C 3431   2.301   6.087   8.764  0.7529  0.6457  0.0244
   26MOL0     C 3432   2.175   6.089   8.695 -1.2440  0.5517 -0.7009
   26MOL0     C 3433   2.163   6.075   8.556 -0.0357  0.7055 -0.6621
   26MOL0     O 3434   2.034   6.053   8.514  0.2639  0.0334 -0.1079
   26MOL0     C 3435   2.008   6.000   8.381  0.0136  0.2008 -0.7176
   26MOL0     C 3436   1.871   6.043   8.346  1.1463 -0.3841 -0.0437
   26MOL0     C 3437   1.827   5.954   8.222 -0.8972 -0.4667 -0.1890
   26MOL0     C 3438   1.678   5.975   8.183 -0.5747  0.1961  0.4698
   26MOL0     C 3439   1.665   5.894   8.066  0.7619  0.0527 -0.4363
   26MOL0     C 3440   1.642   5.844   7.957 -0.6430  0.3468 -0.3005
   26MOL0     C 3441   2.279   6.036   8.490  0.5380 -0.0920  0.0255
   26MOL0     C 3442   2.403   6.026   8.557 -0.4642  0.7927  0.0630
   26MOL0     H 3443   2.629   5.851   9.065 -0.3904 -0.1606  3.2624
   26MOL0     H 3444   2.841   5.863   9.181  0.5631  1.0056  1.1041
   26MOL0     H 3445   2.994   5.928   9.322 -1.3857  1.7046 -0.1718
   26MOL0     H 3446   3.080   5.889   9.169 -1.2680  1.2654 -1.2017
   26MOL0     H 3447   3.227   6.060   9.371  3.8105  0.0404 -0.0911
   26MOL0     H 3448   3.234   5.883   9.360  2.2696  1.4683  2.0027
   26MOL0     H 3449   3.267   5.952   9.100 -1.0263  1.8217  0.3087
   26MOL0     H 3450   3.316   6.107   9.155 -2.9152 -0.5016 -3.9694
   26MOL0     H 3451   3.480   6.008   9.304 -2.8331  0.5763  0.7010
   26MOL0     H 3452   3.439   5.845   9.233  5.1027 -0.8499 -2.2893
   26MOL0     H 3453   3.484   5.903   9.012 -0.1774 -0.3295 -0.3345
   26MOL0     H 3454   3.540   6.069   9.070  1.3483  0.4941  2.9629
   26MOL0     H 3455   3.708   5.976   9.200  0.8167  2.1186 -0.2040
   26MOL0     H 3456   3.653   5.808   9.153 -1.7868 -0.8069 -2.1156
   26MOL0     H 3457   3.786   5.823   8.964  0.0358  0.4383  0.2445
   26MOL0     H 3458   3.666   5.927   8.909 -0.6680  0.9453 -0.2367
   26MOL0     H 3459   3.892   6.035   9.092  0.5864  0.6157 -0.0615
   26MOL0     H 3460   3.778   6.136   8.996  1.7541  1.6946 -0.2920
   26MOL0     H 3461   4.011   5.836   8.868  0.9868  0.7407 -0.7860
   26MOL0     H 3462   4.095   5.884   8.516  1.7872 -0.7724 -0.2163
   26MOL0     H 3463   4.222   5.945   8.620 -0.3032  0.0461  2.3394
   26MOL0     H 3464   4.076   5.678   8.666  0.7812 -0.2411 -1.9043
   26MOL0     H 3465   4.224   5.727   8.748  0.2461 -0.4215 -0.5142
   26MOL0     H 3466   4.318   5.755   8.508 -0.7856  0.7354 -0.0403
   26MOL0     H 3467   4.174   5.662   8.460  0.8889 -0.9529  0.3057
   26MOL0     H 3468   4.356   5.505   8.470  1.1049  1.6554 -0.0735
   26MOL0     H 3469   4.247   5.470   8.601  1.0560  0.0736  1.0502
   26MOL0     H 3470   4.613   5.608   8.820 -0.5588  0.1362  0.6367
   26MOL0     H 3471   4.734   5.521   9.025 -1.0494 -0.4756 -0.6796
   26MOL0     H 3472   4.806   5.360   9.010 -2.5853 -0.8432  0.7285
   26MOL0     H 3473   4.858   5.499   8.906  2.0270 -2.5040  1.1284
   26MOL0     H 3474   5.111   5.079   8.746  2.2088  3.7084  1.0307
   26MOL0     H 3475   5.268   4.930   8.861 -1.5153  1.6214 -1.4668
   26MOL0     H 3476   5.322   4.978   9.247  2.4057 -0.4937  0.1183
   26MOL0     H 3477   5.201   4.833   9.287 -0.7987 -4.1588 -1.8574
   26MOL0     H 3478   5.407   4.797   9.392 -1.4461  3.8558  0.0660
   26MOL0     H 3479   5.362   4.685   9.253 -0.5430  0.2648 -1.8709
   26MOL0     H 3480   5.584   4.886   9.248  2.0453 -0.3194 -2.4114
   26MOL0     H 3481   5.505   4.827   9.107  0.3481  3.2101  0.9684
   26MOL0     H 3482   5.629   4.645   9.337 -0.9298  2.2008  0.8720
   26MOL0     H 3483   5.596   4.591   9.171  1.5530 -3.0049  1.6279
   26MOL0     H 3484   5.801   4.799   9.261  0.5267 -0.8970  1.2287
   26MOL0     H 3485   5.780   4.757   9.097  5.1755  0.3979  0.1433
   26MOL0     H 3486   5.984   4.652   9.218  0.8022  0.3091  0.1179
   26MOL0     H 3487   5.868   4.567   9.329 -1.8275 -0.7339 -0.3450
   26MOL0     H 3488   5.889   4.513   9.027  0.1540 -1.4241 -0.3864
   26MOL0     H 3489   5.757   4.468   9.132 -0.6504  0.9091 -3.6173
   26MOL0     H 3490   5.927   4.277   9.126 -2.9199 -0.7344  2.3317
   26MOL0     H 3491   5.928   4.329   9.287  0.6383 -1.9144 -0.5611
   26MOL0     H 3492   5.053   4.952   9.216  0.5698  1.9995  0.7873
   26MOL0     H 3493   4.880   5.100   9.104  0.8839 -5.8773  4.0828
   26MOL0     H 3494   4.534   5.120   8.715  3.1045 -1.9875  5.2287
   26MOL0     H 3495   4.379   5.309   8.611 -0.7407 -0.4313  0.7259
   26MOL0     H 3496   2.882   6.278   9.046  0.3955  0.2136  0.3683
   26MOL0     H 3497   2.671   6.263   8.930 -0.7331  2.2578  1.5436
   26MOL0     H 3498   2.293   6.115   8.869  1.4868  1.2968 -0.0810
   26MOL0     H 3499   2.088   6.100   8.759 -0.6196 -1.4837  0.6003
   26MOL0     H 3500   2.084   6.033   8.309  0.5717 -1.2993 -0.8462
   26MOL0     H 3501   1.994   5.892   8.388 -3.4478  0.6395  1.5499
   26MOL0     H 3502   1.886   6.148   8.321  4.4081 -0.9448 -0.8197
   26MOL0     H 3503   1.801   6.019   8.427  0.9490 -2.7459 -0.8502
   26MOL0     H 3504   1.852   5.852   8.255 -1.6874 -0.4608  0.4494
   26MOL0     H 3505   1.891   5.979   8.137  0.6818  1.3055  1.4012
   26MOL0     H 3506   1.662   6.077   8.146 -1.0673 -0.3380 -0.8387
   26MOL0     H 3507   1.603   5.952   8.260 -0.6434 -1.1478  0.0240
   26MOL0     H 3508   1.635   5.795   7.862 -1.7895  2.7105 -1.5395
   26MOL0     H 3509   2.272   6.020   8.383  0.2548 -0.9062  0.1564
   26MOL0     H 3510   2.493   6.001   8.501 -0.8843 -0.1327 -0.2240
   27MOL0     O 3511   5.300   0.185   5.068  0.2345  0.3412  0.2006
   27MOL0     C 3512   5.235   0.151   4.964  0.9320 -0.5499 -1.1163
   27MOL0     O 3513   5.111   0.101   4.957  0.1740 -0.2337  0.4593
   27MOL0     C 3514   5.025   0.083   5.064  0.2526  0.2771 -1.0845
   27MOL0     C 3515   5.037   0.156   5.190 -0.0172 -0.1608  0.2058
   27MOL0     C 3516   4.933   0.131   5.291 -0.9094 -0.4881 -0.6536
   27MOL0     C 3517   4.819   0.046   5.266 -0.6673  0.8701 -0.1165
   27MOL0     O 3518   4.710   0.023   5.355 -0.6753 -0.0744 -1.1012
   27MOL0     C 3519   4.734   0.040   5.492  0.3695 -0.6557  0.5481
   27MOL0     C 3520   4.608   0.038   5.571  0.1325 -0.0719 -0.5266
   27MOL0     C 3521   4.537  -0.099   5.564  0.6676 -0.9390  0.1503
   27MOL0     C 3522   4.401  -0.094   5.636  0.5223 -0.1012  1.1494
   27MOL0     C 3523   4.345  -0.239   5.635  0.4412  0.4949 -0.2767
   27MOL0     C 3524   4.232  -0.251   5.519  1.0370  0.0276 -0.3195
   27MOL0     C 3525   4.131  -0.339   5.565  0.0974  0.2092  0.8329
   27MOL0     C 3526   4.014  -0.320   5.463 -0.3575  0.2482 -0.3513
   27MOL0     N 3527   3.901  -0.413   5.478 -0.3149 -0.2661 -0.3452
   27MOL0     C 3528   3.779  -0.371   5.524 -0.1836 -0.6219 -0.4363
   27MOL0     C 3529   3.707  -0.489   5.518 -1.1372 -0.9925  0.5281
   27MOL0     C 3530   3.561  -0.513   5.543  0.7245 -0.6051  0.0851
   27MOL0     C 3531   3.474  -0.518   5.409  0.0828 -0.2453  0.4376
   27MOL0     C 3532   3.480  -0.655   5.339 -0.0395 -0.0035  0.7961
   27MOL0     C 3533   3.377  -0.646   5.227 -0.4115 -0.0923 -0.1864
   27MOL0     O 3534   3.245  -0.610   5.259  0.4879  0.3366 -0.7985
   27MOL0     C 3535   3.149  -0.623   5.159 -0.6403  0.0974  0.5613
   27MOL0     C 3536   3.060  -0.732   5.145  0.2446 -0.0966  0.4955
   27MOL0     C 3537   2.946  -0.717   5.058 -1.0987  0.2079 -0.5874
   27MOL0     C 3538   2.838  -0.815   5.070 -1.1572  0.3397  0.6778
   27MOL0     C 3539   2.937  -0.604   4.973  0.8536  0.4418 -0.7431
   27MOL0     C 3540   2.836  -0.591   4.868  0.2024 -0.2075  0.2560
   27MOL0     O 3541   2.787  -0.695   4.802 -0.6373 -1.0499 -0.3236
   27MOL0     C 3542   2.670  -0.683   4.734 -0.0693  0.1701  0.5395
   27MOL0     C 3543   2.667  -0.623   4.603 -0.8587  0.1198  0.2784
   27MOL0     C 3544   2.553  -0.600   4.533 -0.9694  0.1289  0.5149
   27MOL0     C 3545   2.444  -0.659   4.587 -0.2104  0.2583  0.6265
   27MOL0     O 3546   2.333  -0.656   4.510  0.3109 -0.3125 -0.3552
   27MOL0     C 3547   2.210  -0.598   4.562 -0.7434 -0.3970 -0.1553
   27MOL0     C 3548   2.094  -0.641   4.474 -0.0769  0.0466 -0.0242
   27MOL0     C 3549   1.956  -0.568   4.496 -0.5851  0.0909  0.9550
   27MOL0     C 3550   1.893  -0.599   4.629 -0.3260 -0.5185 -0.0151
   27MOL0     C 3551   1.749  -0.559   4.634 -1.0748  0.7483  0.4659
   27MOL0     C 3552   1.676  -0.581   4.770  0.5719  0.2762  0.2104
   27MOL0     C 3553   1.747  -0.495   4.877  0.0227  0.7674  0.0595
   27MOL0     C 3554   1.700  -0.530   5.017 -0.1602  0.6976  0.4525
   27MOL0    Cl 3555   1.573  -0.653   5.048  0.0712 -0.3202  0.1947
   27MOL0     C 3556   2.437  -0.731   4.712  0.1486 -0.7413  0.6246
   27MOL0     C 3557   2.552  -0.739   4.786  0.2374  0.5510  0.0782
   27MOL0     O 3558   2.791  -0.479   4.853  0.9347  1.0250 -0.5702
   27MOL0     C 3559   3.028  -0.498   4.988  0.3390 -1.0934 -0.7006
   27MOL0     C 3560   3.136  -0.505   5.083  1.1066  0.0410  0.2963
   27MOL0     N 3561   3.792  -0.593   5.475  0.1302 -0.0312 -0.4055
   27MOL0     N 3562   3.910  -0.550   5.456 -0.2523 -0.2296  0.5145
   27MOL0     C 3563   4.813  -0.007   5.139  0.1859  0.1239  1.0143
   27MOL0     C 3564   4.905   0.012   5.042 -0.3514 -1.1969 -0.4669
   27MOL0     C 3565   5.293   0.176   4.834  0.6927  0.1563  0.9678
   27MOL0     C 3566   5.215   0.209   4.717  0.1506  0.8039 -0.5563
   27MOL0     C 3567   5.279   0.218   4.592  0.0381 -0.1587  0.1547
   27MOL0     C 3568   5.421   0.212   4.576 -0.4640  0.2680 -0.0619
   27MOL0     O 3569   5.497   0.232   4.462  0.4947  0.3680  0.3925
   27MOL0     C 3570   5.417   0.269   4.341 -0.9467  0.5455 -0.7576
   27MOL0     C 3571   5.412   0.419   4.336 -0.5934 -0.4801  0.0693
   27MOL0     C 3572   5.308   0.489   4.431  0.3129  0.6268 -0.0606
   27MOL0     C 3573   5.292   0.636   4.377 -0.4135  0.6063 -0.8337
   27MOL0     C 3574   5.196   0.701   4.470 -0.8231 -0.5989  0.8869
   27MOL0     C 3575   5.128   0.766   4.545  0.6583 -0.0652  0.2830
   27MOL0     C 3576   5.494   0.198   4.690 -0.9660  0.0188  0.6044
   27MOL0     C 3577   5.432   0.181   4.810  0.5364 -0.0190 -1.4838
   27MOL0     H 3578   5.122   0.219   5.213 -0.0179 -0.3318  0.6745
   27MOL0     H 3579   4.942   0.185   5.384 -0.9667 -1.4595 -0.0739
   27MOL0     H 3580   4.797  -0.047   5.515  0.9249 -0.8951 -1.6266
   27MOL0     H 3581   4.787   0.135   5.510 -0.5122  0.4343 -2.0155
   27MOL0     H 3582   4.629   0.058   5.677 -0.8942 -3.0469  0.3197
   27MOL0     H 3583   4.547   0.120   5.530  1.2919  1.4430  0.6284
   27MOL0     H 3584   4.520  -0.132   5.462 -1.6957  2.9872 -0.9245
   27MOL0     H 3585   4.603  -0.161   5.625  2.5721  1.9231  1.2519
   27MOL0     H 3586   4.415  -0.052   5.736 -1.3705  0.1847  1.3337
   27MOL0     H 3587   4.337  -0.018   5.591  3.0797  1.4787 -0.0424
   27MOL0     H 3588   4.426  -0.308   5.612  3.4714  4.0079 -1.1256
   27MOL0     H 3589   4.296  -0.267   5.729 -1.6973  0.5895 -1.3016
   27MOL0     H 3590   4.183  -0.156   5.495  0.5195 -0.6571 -2.0972
   27MOL0     H 3591   4.271  -0.289   5.424 -0.0295  3.4815 -2.3172
   27MOL0     H 3592   4.166  -0.442   5.572  1.6644  0.6219 -0.3895
   27MOL0     H 3593   4.099  -0.297   5.661 -1.8260  2.0823 -0.5149
   27MOL0     H 3594   4.061  -0.343   5.367 -0.0635  0.3753 -0.2418
   27MOL0     H 3595   3.980  -0.216   5.458  0.8982  0.6061 -2.9450
   27MOL0     H 3596   3.758  -0.268   5.552  2.4908  0.4787 -2.1486
   27MOL0     H 3597   3.548  -0.610   5.593  1.0831 -2.0096 -2.3719
   27MOL0     H 3598   3.518  -0.437   5.609  1.5410 -0.3267  0.3021
   27MOL0     H 3599   3.508  -0.440   5.340  2.8748 -1.0605  0.7643
   27MOL0     H 3600   3.372  -0.500   5.443  0.7905  2.7395  1.3076
   27MOL0     H 3601   3.443  -0.728   5.411 -0.1978  1.2652  2.0607
   27MOL0     H 3602   3.578  -0.694   5.308 -0.5064  0.0405 -0.8566
   27MOL0     H 3603   3.355  -0.744   5.183 -3.1016 -0.0011  0.7800
   27MOL0     H 3604   3.416  -0.582   5.147  0.0069  0.0128  0.0991
   27MOL0     H 3605   3.067  -0.823   5.203  1.2469 -0.9634 -0.9197
   27MOL0     H 3606   2.862  -0.912   5.024 -0.5116  0.9267 -0.2632
   27MOL0     H 3607   2.830  -0.836   5.177  1.2384 -1.7235  0.5393
   27MOL0     H 3608   2.740  -0.781   5.034 -1.5676  0.2317  1.6644
   27MOL0     H 3609   2.753  -0.569   4.565 -2.2048  0.0888 -3.1875
   27MOL0     H 3610   2.545  -0.547   4.439  3.5878  0.6218  0.1633
   27MOL0     H 3611   2.190  -0.624   4.667 -1.7975  1.9222  0.2711
   27MOL0     H 3612   2.232  -0.491   4.562  2.9416 -1.0235 -1.5786
   27MOL0     H 3613   2.112  -0.635   4.366  2.5199 -1.3671  0.2490
   27MOL0     H 3614   2.084  -0.749   4.468  1.0110 -0.0568 -0.2178
   27MOL0     H 3615   1.887  -0.599   4.417 -0.9681 -2.0448  2.0461
   27MOL0     H 3616   1.972  -0.460   4.486 -2.5210  0.3049 -0.4935
   27MOL0     H 3617   1.901  -0.707   4.646  1.5068 -0.3084  0.7087
   27MOL0     H 3618   1.949  -0.545   4.706 -1.9835 -0.0349  0.9078
   27MOL0     H 3619   1.690  -0.627   4.571 -0.5523 -0.3533  1.1291
   27MOL0     H 3620   1.738  -0.453   4.609  0.6116  0.6885 -0.7190
   27MOL0     H 3621   1.572  -0.547   4.777  0.4068 -0.4930  2.0690
   27MOL0     H 3622   1.673  -0.689   4.788  0.7162  0.2704  0.1987
   27MOL0     H 3623   1.729  -0.390   4.852  1.4424  1.7130  2.6419
   27MOL0     H 3624   1.852  -0.523   4.871 -0.7622 -2.2514 -2.8617
   27MOL0     H 3625   1.671  -0.443   5.077 -0.3636 -0.4295  2.0551
   27MOL0     H 3626   1.782  -0.577   5.073 -2.9614 -1.4675  3.0704
   27MOL0     H 3627   2.342  -0.754   4.758 -0.4269  0.8413  0.3022
   27MOL0     H 3628   2.553  -0.787   4.883  3.9005 -1.0886 -0.6039
   27MOL0     H 3629   2.999  -0.406   4.939 -0.4910 -0.3696  1.0661
   27MOL0     H 3630   3.200  -0.417   5.085  0.3681  0.6932 -1.8052
   27MOL0     H 3631   4.726  -0.058   5.100 -1.8952  2.1414  2.7926
   27MOL0     H 3632   4.881  -0.029   4.944  0.4415 -0.5276 -0.9563
   27MOL0     H 3633   5.106   0.207   4.721  0.1312  1.1578 -0.7792
   27MOL0     H 3634   5.215   0.243   4.508 -1.1243  0.8436  1.2909
   27MOL0     H 3635   5.463   0.240   4.246 -1.5838  1.6988 -1.4530
   27MOL0     H 3636   5.320   0.222   4.352 -0.9748  0.9499  1.1130
   27MOL0     H 3637   5.393   0.444   4.232  2.4977 -1.3165 -0.8108
   27MOL0     H 3638   5.513   0.443   4.371 -0.1952 -1.8888 -0.0315
   27MOL0     H 3639   5.352   0.490   4.531  0.4926  1.4609 -0.1404
   27MOL0     H 3640   5.216   0.431   4.427  0.8615 -0.4549  1.9174
   27MOL0     H 3641   5.236   0.637   4.283 -4.5997 -0.6855  1.3948
   27MOL0     H 3642   5.390   0.685   4.374  0.4380 -1.0433 -1.1636
   27MOL0     H 3643   5.061   0.791   4.625 -0.0909 -1.1956  0.0348
   27MOL0     H 3644   5.602   0.208   4.685 -0.4760 -2.5886  3.3483
   27MOL0     H 3645   5.488   0.167   4.902  0.2458  2.7544 -0.7727
   28MOL0     O 3646   9.849   1.007   9.088  0.0094 -0.4415  0.0337
   28MOL0     C 3647   9.782   0.923   9.023  0.5416 -0.3853 -0.4301
   28MOL0     O 3648   9.649   0.926   9.001  0.1350 -0.7910 -0.1842
   28MOL0     C 3649   9.571   1.007   9.081  0.0821 -0.5584  0.1475
   28MOL0     C 3650   9.454   1.050   9.018  0.7111 -0.0276 -0.0737
   28MOL0     C 3651   9.360   1.133   9.080 -0.4454  0.7152 -0.0262
   28MOL0     C 3652   9.388   1.183   9.212 -0.6866  0.1768 -0.3469
   28MOL0     O 3653   9.296   1.264   9.277 -0.5604 -0.2765 -1.3865
   28MOL0     C 3654   9.181   1.183   9.309  0.3268 -0.3797 -0.4633
   28MOL0     C 3655   9.128   1.213   9.449  0.0741 -0.4361  0.2521
   28MOL0     C 3656   9.219   1.182   9.559  0.6101 -0.5499 -0.2647
   28MOL0     C 3657   9.128   1.171   9.687  0.4054  1.2563 -0.0470
   28MOL0     C 3658   9.192   1.090   9.804 -0.0529  0.9276  0.0939
   28MOL0     C 3659   9.131   1.134   9.938 -1.1601  0.9321 -0.4177
   28MOL0     C 3660   9.213   1.078  10.057  0.5549  1.0630 -0.7500
   28MOL0     C 3661   9.147   1.106  10.197 -0.8410  0.5635 -0.4281
   28MOL0     N 3662   9.012   1.058  10.217  0.0029 -0.1652 -0.2658
   28MOL0     C 3663   8.984   0.921  10.214 -0.1557 -1.2169  0.5179
   28MOL0     C 3664   8.849   0.921  10.213 -0.2047 -0.5107  1.2226
   28MOL0     C 3665   8.760   0.803  10.209  0.1214 -0.2255  1.0191
   28MOL0     C 3666   8.609   0.817  10.214  0.0262 -1.1804 -0.3102
   28MOL0     C 3667   8.562   0.832  10.369 -0.3077  1.1059  0.5091
   28MOL0     C 3668   8.415   0.876  10.396  0.8014  0.5049  0.5733
   28MOL0     O 3669   8.399   0.876  10.542 -0.1750  0.5150 -0.1334
   28MOL0     C 3670   8.344   0.756  10.595  0.2202  0.6749  0.0005
   28MOL0     C 3671   8.366   0.764  10.733  1.0682 -0.5844 -0.3555
   28MOL0     C 3672   8.327   0.658  10.815 -0.5208  0.1643  0.8899
   28MOL0     C 3673   8.402   0.648  10.947 -0.6486 -0.4051 -0.1639
   28MOL0     C 3674   8.276   0.532  10.755  0.0381  0.1711  0.4050
   28MOL0     C 3675   8.241   0.408  10.831 -1.0432  0.4422  0.6007
   28MOL0     O 3676   8.254   0.299  10.748  0.1041  0.1913 -0.6595
   28MOL0     C 3677   8.185   0.181  10.785  0.4540  0.6720  0.5841
   28MOL0     C 3678   8.038   0.193  10.768 -0.3948  0.3168  0.0680
   28MOL0     C 3679   7.963   0.085  10.813  0.3374  0.4028 -0.1466
   28MOL0     C 3680   8.013  -0.027  10.880 -0.3249  0.3959  0.7047
   28MOL0     O 3681   7.916  -0.120  10.931 -0.5972 -0.9741 -0.0814
   28MOL0     C 3682   7.949  -0.159  11.067 -0.0579 -0.9362  0.0075
   28MOL0     C 3683   7.817  -0.154  11.149  0.1377  0.0760 -0.2886
   28MOL0     C 3684   7.713  -0.258  11.117 -0.2403 -0.4340  0.5285
   28MOL0     C 3685   7.583  -0.248  11.202 -0.8525 -0.5381  0.0211
   28MOL0     C 3686   7.494  -0.371  11.175 -0.2281 -0.8682 -0.5512
   28MOL0     C 3687   7.471  -0.404  11.020  0.2572 -0.5259 -0.4752
   28MOL0     C 3688   7.364  -0.514  11.007 -0.3274  0.0117  0.4342
   28MOL0     C 3689   7.323  -0.559  10.868  0.2956 -0.0801  0.2187
   28MOL0    Cl 3690   7.395  -0.717  10.808 -0.0383 -0.1732 -0.1845
   28MOL0     C 3691   8.155  -0.041  10.891 -0.9827  0.4497 -0.2641
   28MOL0     C 3692   8.244   0.063  10.849  0.9590 -0.0695  0.5828
   28MOL0     O 3693   8.225   0.405  10.953  1.0378 -0.3393 -0.1479
   28MOL0     C 3694   8.258   0.534  10.615 -0.1265 -0.3704  0.6947
   28MOL0     C 3695   8.286   0.644  10.537  0.4647  0.1298 -0.2157
   28MOL0     N 3696   8.792   1.046  10.212 -0.6563 -0.2231 -0.4768
   28MOL0     N 3697   8.898   1.134  10.218  0.7763  0.3294  0.1841
   28MOL0     C 3698   9.517   1.152   9.270  0.8798  0.7787  1.2315
   28MOL0     C 3699   9.594   1.049   9.212 -0.2450  0.2380 -0.2070
   28MOL0     C 3700   9.870   0.824   8.954 -0.8295  0.4968  0.8525
   28MOL0     C 3701  10.009   0.837   8.948  0.0204  0.2986 -0.4050
   28MOL0     C 3702  10.078   0.729   8.883 -0.0300  0.0822  0.0299
   28MOL0     C 3703  10.010   0.629   8.810  0.7103  0.0489 -0.3562
   28MOL0     O 3704  10.072   0.534   8.733  0.1439  0.4575  0.5547
   28MOL0     C 3705  10.212   0.520   8.720  0.2689 -0.3294 -0.3286
   28MOL0     C 3706  10.254   0.613   8.603 -0.8675 -0.5648 -0.2586
   28MOL0     C 3707  10.408   0.595   8.562  0.4041  0.0691 -0.8286
   28MOL0     C 3708  10.437   0.501   8.445 -0.3048  0.2558 -0.2898
   28MOL0     C 3709  10.585   0.494   8.426  0.0692 -0.5856  0.3627
   28MOL0     C 3710  10.704   0.475   8.397  0.2427  0.2343  0.1488
   28MOL0     C 3711   9.870   0.625   8.813  0.1432 -0.4983  1.0080
   28MOL0     C 3712   9.801   0.719   8.892  0.0233 -0.4476  0.4497
   28MOL0     H 3713   9.440   1.015   8.916  1.0000  2.6978 -1.1261
   28MOL0     H 3714   9.265   1.153   9.031 -1.1767  1.1759  1.5089
   28MOL0     H 3715   9.106   1.198   9.231  0.4266 -0.3998 -0.5629
   28MOL0     H 3716   9.213   1.078   9.313  4.5865  0.6443 -2.3454
   28MOL0     H 3717   9.114   1.321   9.451 -0.5413 -0.4700 -1.1019
   28MOL0     H 3718   9.025   1.180   9.460  0.1415 -1.0330 -0.7225
   28MOL0     H 3719   9.271   1.086   9.548  1.1037 -0.0621 -3.2533
   28MOL0     H 3720   9.296   1.259   9.571  1.0752 -1.0927  0.2502
   28MOL0     H 3721   9.108   1.272   9.724 -0.6223  0.1246  2.7777
   28MOL0     H 3722   9.031   1.126   9.663 -0.2106  4.0620 -3.7987
   28MOL0     H 3723   9.171   0.983   9.800 -0.5324  0.9153  2.0941
   28MOL0     H 3724   9.301   1.090   9.813 -0.0974 -2.9014  2.9980
   28MOL0     H 3725   9.130   1.243   9.949  1.2045  0.8631  1.0796
   28MOL0     H 3726   9.028   1.099   9.949 -0.4476 -0.5046  4.1687
   28MOL0     H 3727   9.214   0.970  10.041 -2.6187  0.9912 -1.1953
   28MOL0     H 3728   9.313   1.121  10.056  0.5556  1.0775 -0.1422
   28MOL0     H 3729   9.139   1.215  10.211  0.3275  0.7170 -0.8344
   28MOL0     H 3730   9.213   1.062  10.272 -1.9134 -1.5708 -0.6602
   28MOL0     H 3731   9.045   0.832  10.216  0.4290 -0.9472 -2.0644
   28MOL0     H 3732   8.784   0.746  10.119 -1.0775 -0.3768  0.7821
   28MOL0     H 3733   8.774   0.735  10.293 -1.9922 -1.8893  0.1128
   28MOL0     H 3734   8.575   0.726  10.164 -3.3943 -0.5110  0.5596
   28MOL0     H 3735   8.580   0.900  10.150  0.3912 -0.0858  0.8973
   28MOL0     H 3736   8.629   0.905  10.415  0.4229 -0.8399  2.7831
   28MOL0     H 3737   8.584   0.735  10.416  3.6255  1.6481  0.1569
   28MOL0     H 3738   8.339   0.814  10.350  0.5407 -2.6912  4.6788
   28MOL0     H 3739   8.416   0.977  10.354 -2.1565 -1.0371 -3.9450
   28MOL0     H 3740   8.418   0.848  10.777  1.2660 -0.2124 -1.2834
   28MOL0     H 3741   8.481   0.575  10.929  0.5309 -0.0402  2.8352
   28MOL0     H 3742   8.447   0.745  10.972 -2.6751  0.2091  1.4262
   28MOL0     H 3743   8.346   0.611  11.034  0.4381  1.8988  1.6306
   28MOL0     H 3744   7.982   0.277  10.728 -0.1866  0.4503  0.0571
   28MOL0     H 3745   7.855   0.085  10.801  0.4562  0.1596 -1.2748
   28MOL0     H 3746   8.012  -0.249  11.069  2.7796  0.9194  0.7150
   28MOL0     H 3747   8.011  -0.081  11.110  0.6389 -1.7017  0.4213
   28MOL0     H 3748   7.856  -0.167  11.250  2.4785 -1.0321 -1.2463
   28MOL0     H 3749   7.771  -0.055  11.147  2.3920  1.2210  0.4834
   28MOL0     H 3750   7.760  -0.357  11.126  0.2842 -0.0887  1.7882
   28MOL0     H 3751   7.681  -0.252  11.012 -0.1931  0.0531  0.5394
   28MOL0     H 3752   7.598  -0.234  11.310  1.1669  2.5329 -0.5446
   28MOL0     H 3753   7.541  -0.153  11.167  2.3166  0.8819 -0.3353
   28MOL0     H 3754   7.397  -0.371  11.224 -0.2705 -0.3155 -0.6217
   28MOL0     H 3755   7.541  -0.449  11.235 -1.3152  1.3637  3.5796
   28MOL0     H 3756   7.454  -0.311  10.964  3.1327  0.7740  0.6089
   28MOL0     H 3757   7.567  -0.446  10.988  1.0390  1.2473 -0.5668
   28MOL0     H 3758   7.270  -0.479  11.052  0.8810  0.7646  2.5099
   28MOL0     H 3759   7.392  -0.605  11.062  1.7602  0.3051 -0.0750
   28MOL0     H 3760   7.334  -0.478  10.796  2.4331  0.0423  0.5990
   28MOL0     H 3761   7.219  -0.591  10.878  0.8711 -2.0294  0.4364
   28MOL0     H 3762   8.192  -0.126  10.947  0.8749  3.3572  3.4164
   28MOL0     H 3763   8.350   0.054  10.868  0.9141 -1.1611  0.4187
   28MOL0     H 3764   8.227   0.450  10.553  0.0478  0.1928 -0.1785
   28MOL0     H 3765   8.273   0.627  10.431 -3.3178  0.3001  0.0766
   28MOL0     H 3766   9.535   1.185   9.372 -0.1908  0.5770  1.5047
   28MOL0     H 3767   9.672   0.993   9.264  1.0364 -2.3130 -4.4502
   28MOL0     H 3768  10.056   0.920   9.000  0.2255  1.0856 -1.7973
   28MOL0     H 3769  10.186   0.732   8.874 -0.0335  0.5769  0.0991
   28MOL0     H 3770  10.260   0.538   8.817  0.0771 -0.8462 -0.1346
   28MOL0     H 3771  10.230   0.417   8.690  2.1449  0.4183 -2.0233
   28MOL0     H 3772  10.242   0.717   8.634 -3.7195 -0.5321 -1.2540
   28MOL0     H 3773  10.183   0.610   8.520 -2.8093  2.0679  1.1756
   28MOL0     H 3774  10.462   0.568   8.654 -2.0819 -0.8757  0.4308
   28MOL0     H 3775  10.454   0.692   8.542  0.5859  0.1570 -0.0205
   28MOL0     H 3776  10.388   0.522   8.350 -0.3680 -0.8493 -0.5076
   28MOL0     H 3777  10.412   0.397   8.467  3.9583 -0.3514  3.0619
   28MOL0     H 3778  10.804   0.447   8.370 -0.3992 -2.3680  0.1995
   28MOL0     H 3779   9.806   0.553   8.762  0.4504 -0.9700  1.2762
   28MOL0     H 3780   9.692   0.719   8.890 -0.0899  2.0234 -2.6905
   29MOL0     O 3781  10.425   1.751   7.495  0.2680  0.1872 -0.4470
   29MOL0     C 3782  10.502   1.660   7.541 -0.7890 -0.0544 -0.3286
   29MOL0     O 3783  10.462   1.542   7.603 -0.7461 -0.4239  0.0616
   29MOL0     C 3784  10.331   1.512   7.606 -0.2728 -0.9268 -0.6126
   29MOL0     C 3785  10.253   1.543   7.710 -0.3880 -0.2175  0.2256
   29MOL0     C 3786  10.118   1.497   7.719 -0.7188  0.2110 -0.4620
   29MOL0     C 3787  10.053   1.428   7.616 -0.6355  0.0753  0.4437
   29MOL0     O 3788   9.926   1.376   7.630  0.1161 -1.0639  0.4763
   29MOL0     C 3789   9.829   1.478   7.674  0.0047 -0.4990 -0.1666
   29MOL0     C 3790   9.691   1.449   7.609  0.3061 -0.3441 -1.5612
   29MOL0     C 3791   9.627   1.322   7.663  0.2307  0.4968  0.1962
   29MOL0     C 3792   9.523   1.257   7.570  0.0254  0.1610  0.7260
   29MOL0     C 3793   9.471   1.114   7.612 -0.4885 -0.9414 -0.8715
   29MOL0     C 3794   9.429   1.100   7.755 -0.0233 -0.4829  0.5216
   29MOL0     C 3795   9.301   1.184   7.796  0.6124 -0.1217 -0.9868
   29MOL0     C 3796   9.252   1.139   7.936 -0.0612 -0.2578 -0.0716
   29MOL0     N 3797   9.118   1.188   7.980 -0.0918  0.4271 -0.7646
   29MOL0     C 3798   9.005   1.221   7.917 -0.0200 -0.3207  0.1528
   29MOL0     C 3799   8.915   1.272   8.003 -0.2249  0.0874  0.5343
   29MOL0     C 3800   8.771   1.324   7.986  0.4916  0.1160  0.2482
   29MOL0     C 3801   8.743   1.440   7.887 -1.0541 -0.3256 -0.2020
   29MOL0     C 3802   8.595   1.483   7.908 -0.5008 -0.4156  0.6370
   29MOL0     C 3803   8.556   1.596   7.816 -0.0216 -0.1460  0.6199
   29MOL0     O 3804   8.426   1.640   7.848  0.1114 -0.0450 -0.1899
   29MOL0     C 3805   8.328   1.569   7.803  1.0346  0.2731 -0.1252
   29MOL0     C 3806   8.323   1.494   7.687 -0.1583  0.2679 -0.4895
   29MOL0     C 3807   8.210   1.424   7.653 -0.9117  0.8542 -0.3866
   29MOL0     C 3808   8.227   1.342   7.532 -0.7462 -0.1816 -0.1343
   29MOL0     C 3809   8.092   1.427   7.726 -0.3170 -0.6107 -0.0318
   29MOL0     C 3810   7.970   1.341   7.706 -0.4669  0.0885  0.4428
   29MOL0     O 3811   7.850   1.391   7.754 -0.6430 -0.2066 -0.1814
   29MOL0     C 3812   7.755   1.304   7.798  0.2442  0.0084  0.4055
   29MOL0     C 3813   7.621   1.336   7.787 -1.3465  0.2040  0.1410
   29MOL0     C 3814   7.517   1.257   7.831  1.4145 -0.5576 -0.5372
   29MOL0     C 3815   7.540   1.131   7.887 -0.0069 -0.1101  0.0948
   29MOL0     O 3816   7.443   1.048   7.927  0.0029 -0.8007  0.3337
   29MOL0     C 3817   7.442   1.023   8.071 -0.9526 -0.1265  0.2593
   29MOL0     C 3818   7.456   1.148   8.166 -0.0319 -0.1850  0.2133
   29MOL0     C 3819   7.337   1.248   8.162  0.1404 -0.9753  0.1263
   29MOL0     C 3820   7.372   1.381   8.246 -0.0283  1.0334  1.1398
   29MOL0     C 3821   7.256   1.474   8.253 -0.2354 -0.2697 -0.3062
   29MOL0     C 3822   7.293   1.589   8.341  0.1614 -0.1710  0.2726
   29MOL0     C 3823   7.203   1.722   8.311 -0.0273  0.1567 -0.3854
   29MOL0     C 3824   7.071   1.704   8.388 -0.3312  0.6418  0.2543
   29MOL0    Cl 3825   6.955   1.829   8.338  0.0837 -0.1171  0.0741
   29MOL0     C 3826   7.670   1.096   7.906  0.0238  0.7397 -0.5183
   29MOL0     C 3827   7.781   1.183   7.865  0.4391  0.0888 -0.2676
   29MOL0     O 3828   7.979   1.225   7.659 -0.4523  0.1315 -0.5398
   29MOL0     C 3829   8.092   1.517   7.828  1.1656 -0.4145 -1.1711
   29MOL0     C 3830   8.210   1.585   7.865  0.3878  0.1350 -0.6493
   29MOL0     N 3831   8.984   1.269   8.130  0.6446  0.0407 -0.1605
   29MOL0     N 3832   9.101   1.216   8.107  1.0479  0.1913 -0.6891
   29MOL0     C 3833  10.129   1.416   7.502  0.0661  0.0752  0.8223
   29MOL0     C 3834  10.263   1.464   7.501  0.4628  0.3979  0.0287
   29MOL0     C 3835  10.651   1.685   7.511 -0.0416  0.0084 -0.0687
   29MOL0     C 3836  10.755   1.597   7.559  0.7365 -0.4383 -0.2849
   29MOL0     C 3837  10.887   1.629   7.534  0.2472 -0.4591  0.3442
   29MOL0     C 3838  10.927   1.748   7.480  0.1696  0.0278 -0.3133
   29MOL0     O 3839  11.060   1.783   7.476 -0.2318  0.1548  0.1858
   29MOL0     C 3840  11.095   1.915   7.439 -0.7031  0.2234  1.0883
   29MOL0     C 3841  11.245   1.939   7.456  0.5902 -0.3724 -0.1697
   29MOL0     C 3842  11.319   1.826   7.382 -0.2366  0.6236 -0.8783
   29MOL0     C 3843  11.467   1.856   7.408 -0.0769 -0.4006  0.2979
   29MOL0     C 3844  11.525   1.967   7.333 -0.3836 -0.1563 -0.3641
   29MOL0     C 3845  11.596   2.051   7.286 -0.4294  0.1568  0.0657
   29MOL0     C 3846  10.823   1.832   7.437 -0.1374 -0.2829  0.4119
   29MOL0     C 3847  10.687   1.802   7.441  0.1879 -0.3582  0.0171
   29MOL0     H 3848  10.301   1.585   7.798  2.0887  0.6935 -1.4417
   29MOL0     H 3849  10.078   1.502   7.819  0.4739 -0.8443  0.0910
   29MOL0     H 3850   9.823   1.479   7.784 -1.4173 -1.8110 -0.2045
   29MOL0     H 3851   9.864   1.577   7.642 -0.1911 -0.5039 -0.3975
   29MOL0     H 3852   9.629   1.535   7.636 -0.0786 -1.8489  3.5076
   29MOL0     H 3853   9.721   1.440   7.504  2.8108  0.3935 -0.9601
   29MOL0     H 3854   9.707   1.254   7.693 -1.9814 -1.7596  1.3612
   29MOL0     H 3855   9.583   1.349   7.759 -1.3361 -1.9950  0.2509
   29MOL0     H 3856   9.440   1.327   7.558  0.1667  0.5232  1.7800
   29MOL0     H 3857   9.573   1.245   7.473  0.2678  0.5170  0.8036
   29MOL0     H 3858   9.384   1.087   7.551 -2.7645 -1.4647  2.3632
   29MOL0     H 3859   9.554   1.047   7.587 -0.3870 -0.8975 -0.6543
   29MOL0     H 3860   9.423   0.993   7.774  2.7420 -0.8350 -0.2220
   29MOL0     H 3861   9.515   1.141   7.809  0.9074 -0.8271 -0.6513
   29MOL0     H 3862   9.331   1.289   7.794 -2.5427  0.8782 -1.3976
   29MOL0     H 3863   9.221   1.165   7.723 -0.1028 -1.1679  0.0198
   29MOL0     H 3864   9.337   1.161   8.001 -1.3777 -0.6979  1.8489
   29MOL0     H 3865   9.250   1.030   7.934  3.4376 -0.4740 -2.9359
   29MOL0     H 3866   8.985   1.219   7.810  1.2147  1.5260 -0.1717
   29MOL0     H 3867   8.714   1.232   7.974 -0.2497 -0.0729  4.1048
   29MOL0     H 3868   8.743   1.365   8.083 -0.9366 -1.4407  0.5350
   29MOL0     H 3869   8.769   1.416   7.784 -0.6683 -0.2697 -0.1176
   29MOL0     H 3870   8.803   1.529   7.910  0.6523 -1.4166 -0.2929
   29MOL0     H 3871   8.591   1.508   8.014  0.0646 -3.9505  1.6176
   29MOL0     H 3872   8.535   1.392   7.897  2.0703 -2.4624  2.3483
   29MOL0     H 3873   8.569   1.560   7.714 -0.1441  1.3338  0.0682
   29MOL0     H 3874   8.625   1.680   7.829 -1.2302  0.5612  3.2784
   29MOL0     H 3875   8.403   1.500   7.614  2.2999 -0.8402  1.9094
   29MOL0     H 3876   8.319   1.284   7.541  0.3539  1.5793  0.3201
   29MOL0     H 3877   8.147   1.270   7.513 -1.7693  0.6505  0.8864
   29MOL0     H 3878   8.240   1.405   7.443  0.8733 -0.5250 -0.1727
   29MOL0     H 3879   7.600   1.432   7.741 -0.5661 -0.0745 -0.8337
   29MOL0     H 3880   7.415   1.283   7.802  1.7217  1.4395  0.0467
   29MOL0     H 3881   7.348   0.981   8.107  0.3849  0.0857  4.5312
   29MOL0     H 3882   7.520   0.952   8.101 -0.6833  0.6855  1.5861
   29MOL0     H 3883   7.459   1.104   8.266  3.2018 -1.5671 -0.3590
   29MOL0     H 3884   7.545   1.207   8.144  0.0342  0.8309  2.8655
   29MOL0     H 3885   7.252   1.209   8.219  0.6060  0.4989  1.9369
   29MOL0     H 3886   7.304   1.268   8.060 -2.0923  1.4047  1.2087
   29MOL0     H 3887   7.405   1.348   8.345 -2.0820 -0.3416  1.4221
   29MOL0     H 3888   7.458   1.428   8.199  0.8012  0.8027  2.3727
   29MOL0     H 3889   7.173   1.422   8.300  0.0429 -0.2785  0.1862
   29MOL0     H 3890   7.220   1.506   8.154 -1.1602 -1.6180 -0.4344
   29MOL0     H 3891   7.290   1.564   8.448  0.0782  1.1814  0.6067
   29MOL0     H 3892   7.397   1.615   8.321  0.0396  0.9939  1.0081
   29MOL0     H 3893   7.171   1.725   8.207 -0.6065  1.2855 -0.1930
   29MOL0     H 3894   7.254   1.818   8.329 -0.1786  0.6228 -2.2370
   29MOL0     H 3895   7.083   1.693   8.496 -1.0460 -0.9698  0.1938
   29MOL0     H 3896   7.033   1.604   8.365  0.3870 -0.2336  2.5524
   29MOL0     H 3897   7.701   0.997   7.938  1.9725 -0.6335 -5.6084
   29MOL0     H 3898   7.886   1.159   7.880  0.5840  0.8126 -0.1175
   29MOL0     H 3899   8.001   1.536   7.883  2.5276  0.7015  0.8659
   29MOL0     H 3900   8.205   1.667   7.936  1.1214  0.3860 -0.8800
   29MOL0     H 3901  10.079   1.369   7.417 -1.0791  0.9345  0.9956
   29MOL0     H 3902  10.335   1.442   7.422 -0.8511  1.7693 -1.6485
   29MOL0     H 3903  10.728   1.506   7.612 -0.4224  0.7673  1.3064
   29MOL0     H 3904  10.964   1.571   7.585 -0.0215 -1.0616  0.0769
   29MOL0     H 3905  11.081   1.939   7.333  1.2332  1.7036  1.1049
   29MOL0     H 3906  11.045   1.991   7.501  0.8770  1.1791  1.2575
   29MOL0     H 3907  11.252   1.936   7.565 -4.5775 -1.8262  0.3608
   29MOL0     H 3908  11.269   2.035   7.410 -0.3789  0.5171  1.1193
   29MOL0     H 3909  11.276   1.822   7.282 -1.2877 -2.0134 -0.4111
   29MOL0     H 3910  11.289   1.736   7.437 -2.2637  1.4529 -0.5545
   29MOL0     H 3911  11.525   1.765   7.390 -2.3192 -2.0879  1.1997
   29MOL0     H 3912  11.483   1.875   7.514 -0.4518 -0.9274  0.4516
   29MOL0     H 3913  11.648   2.123   7.226 -1.1675  0.7162  0.0816
   29MOL0     H 3914  10.844   1.930   7.394 -1.0553  0.1903  0.9951
   29MOL0     H 3915  10.621   1.879   7.403  0.4240  1.1975  2.4781
   30MOL0     O 3916   3.003   2.817   8.811  0.3112 -0.7936  0.0438
   30MOL0     C 3917   3.037   2.928   8.769  0.1216 -0.5629 -0.1248
   30MOL0     O 3918   2.955   3.035   8.740  0.5955 -0.6273  0.6091
   30MOL0     C 3919   2.825   3.021   8.770  0.0636 -0.3889 -0.5056
   30MOL0     C 3920   2.793   3.074   8.901  0.1296  0.4198  1.0846
   30MOL0     C 3921   2.665   3.040   8.951 -0.5935  0.0956 -1.1992
   30MOL0     C 3922   2.566   2.973   8.875  0.5116 -0.0960 -0.0879
   30MOL0     O 3923   2.443   2.982   8.925  0.0864 -0.0813  0.3496
   30MOL0     C 3924   2.341   2.935   8.842  1.1799  1.3172  0.6399
   30MOL0     C 3925   2.210   2.931   8.920  0.6132 -0.3887 -0.4581
   30MOL0     C 3926   2.097   2.843   8.857 -0.8803  0.4033  0.3484
   30MOL0     C 3927   1.962   2.843   8.927 -0.1893 -0.2275 -0.6039
   30MOL0     C 3928   1.955   2.860   9.077 -0.7832  0.5635 -0.4665
   30MOL0     C 3929   1.811   2.855   9.145 -0.4021 -0.3975  0.4521
   30MOL0     C 3930   1.809   2.874   9.298 -0.0340 -0.0194  0.2615
   30MOL0     C 3931   1.681   2.947   9.347  0.1082  0.0069  0.2584
   30MOL0     N 3932   1.649   2.923   9.489  0.3846  0.0896 -0.2016
   30MOL0     C 3933   1.725   2.971   9.594  0.8101  0.2236  0.1599
   30MOL0     C 3934   1.708   2.880   9.696  0.7564  0.5147  0.7795
   30MOL0     C 3935   1.743   2.881   9.843  0.3659  0.1438 -0.2323
   30MOL0     C 3936   1.896   2.903   9.863  0.3459 -0.6319 -0.1889
   30MOL0     C 3937   1.935   2.913  10.007  0.2957  0.0984 -0.8311
   30MOL0     C 3938   2.078   2.969  10.015  0.5713 -0.2518 -0.1906
   30MOL0     O 3939   2.084   3.039  10.135 -0.0548  0.1658  0.1225
   30MOL0     C 3940   2.207   3.101  10.171 -0.1265  0.8024  0.8704
   30MOL0     C 3941   2.319   3.100  10.081  0.3415  0.2992  0.0932
   30MOL0     C 3942   2.442   3.162  10.110 -0.1831 -0.3068  0.3208
   30MOL0     C 3943   2.551   3.166  10.007  0.6288 -0.2095 -0.2293
   30MOL0     C 3944   2.453   3.223  10.232  0.9477 -0.5564  0.8791
   30MOL0     C 3945   2.568   3.313  10.278 -0.0239  0.4853 -1.2546
   30MOL0     O 3946   2.614   3.400  10.191  0.0674  0.3801 -0.0961
   30MOL0     C 3947   2.740   3.458  10.215  0.1740 -0.1667  0.8526
   30MOL0     C 3948   2.859   3.403  10.274 -0.3014  0.1744 -0.8898
   30MOL0     C 3949   2.975   3.486  10.284  0.4795  0.1832  0.3813
   30MOL0     C 3950   2.970   3.617  10.249  0.0927 -0.4774  0.4820
   30MOL0     O 3951   3.085   3.684  10.280 -0.3284 -0.8767  0.4490
   30MOL0     C 3952   3.077   3.827  10.273  1.6380  0.1723  0.0123
   30MOL0     C 3953   3.195   3.887  10.356  0.0213 -0.7158 -0.4581
   30MOL0     C 3954   3.337   3.840  10.316  0.4546  0.0661 -0.3573
   30MOL0     C 3955   3.436   3.902  10.414 -0.2877  0.3619 -0.1946
   30MOL0     C 3956   3.577   3.881  10.348  0.4312 -0.3365 -1.1649
   30MOL0     C 3957   3.684   3.929  10.445  0.2699  0.2477 -0.0751
   30MOL0     C 3958   3.688   4.080  10.453 -0.8797 -1.2215  0.7184
   30MOL0     C 3959   3.819   4.140  10.496 -0.6539 -0.0734  0.0158
   30MOL0    Cl 3960   3.788   4.317  10.520  0.1852 -0.1445 -0.1547
   30MOL0     C 3961   2.850   3.679  10.194 -0.4766  0.2087 -0.5764
   30MOL0     C 3962   2.742   3.593  10.172 -0.2224 -1.1403 -0.3417
   30MOL0     O 3963   2.605   3.311  10.397 -0.0336  0.4886  0.7975
   30MOL0     C 3964   2.335   3.231  10.320 -0.5773 -0.1933  0.0681
   30MOL0     C 3965   2.219   3.173  10.287 -0.2942 -0.1951 -0.1978
   30MOL0     N 3966   1.612   2.789   9.655  0.1745 -0.4103  0.3046
   30MOL0     N 3967   1.579   2.812   9.533  0.1217 -0.1167  0.6360
   30MOL0     C 3968   2.602   2.915   8.759 -0.9760 -0.3134  0.2792
   30MOL0     C 3969   2.733   2.927   8.712  0.6017  0.1440  1.1750
   30MOL0     C 3970   3.182   2.956   8.743 -0.2261  0.6510 -0.9100
   30MOL0     C 3971   3.271   2.848   8.771 -0.5170 -0.3834 -0.8513
   30MOL0     C 3972   3.400   2.852   8.732 -1.0680  0.4316  0.2023
   30MOL0     C 3973   3.452   2.964   8.670  0.0430  0.6618  0.4016
   30MOL0     O 3974   3.577   2.969   8.617 -0.4170  0.3122 -0.0587
   30MOL0     C 3975   3.667   2.851   8.612 -0.1819 -1.0928  0.2006
   30MOL0     C 3976   3.773   2.871   8.723 -0.7922 -0.4684 -0.1843
   30MOL0     C 3977   3.875   2.983   8.708 -0.4928  0.0496 -0.5251
   30MOL0     C 3978   3.989   2.972   8.817 -0.2795 -0.7827 -0.1218
   30MOL0     C 3979   4.094   3.075   8.792  0.2765 -0.0590 -0.4794
   30MOL0     C 3980   4.178   3.163   8.754  0.1330  0.0729 -1.0058
   30MOL0     C 3981   3.374   3.075   8.650 -0.0256  0.2581  0.1778
   30MOL0     C 3982   3.240   3.070   8.687  0.3046 -0.8746 -0.3613
   30MOL0     H 3983   2.866   3.138   8.950  0.3033  1.7651 -0.8092
   30MOL0     H 3984   2.620   3.097   9.031 -2.0881 -2.9983  0.3269
   30MOL0     H 3985   2.328   2.998   8.753 -0.2662  3.3416  2.2041
   30MOL0     H 3986   2.361   2.832   8.810  2.5519  1.6848  0.1985
   30MOL0     H 3987   2.231   2.894   9.020 -1.0827 -3.6093 -1.1793
   30MOL0     H 3988   2.161   3.029   8.929 -0.2026 -0.7959 -0.3707
   30MOL0     H 3989   2.087   2.862   8.750  2.1487 -2.5315 -0.5956
   30MOL0     H 3990   2.138   2.742   8.863 -1.3611  0.2060  0.3942
   30MOL0     H 3991   1.893   2.922   8.896 -4.1111 -0.3022  6.1282
   30MOL0     H 3992   1.901   2.752   8.917 -1.4827  0.1944  2.4072
   30MOL0     H 3993   2.022   2.778   9.104 -0.3048  0.3703 -2.1254
   30MOL0     H 3994   2.002   2.950   9.117  3.3419 -0.7077 -1.9384
   30MOL0     H 3995   1.758   2.936   9.094  0.3462 -0.8388 -1.1010
   30MOL0     H 3996   1.756   2.770   9.104 -1.4833  1.3326 -1.9600
   30MOL0     H 3997   1.820   2.773   9.338 -1.2304 -0.1164  0.3854
   30MOL0     H 3998   1.896   2.929   9.332 -0.2503 -0.6947  2.0036
   30MOL0     H 3999   1.598   2.922   9.280  1.6017  0.0692 -1.6797
   30MOL0     H 4000   1.702   3.054   9.337 -1.0446  0.1413 -1.0961
   30MOL0     H 4001   1.791   3.056   9.579  0.1649  1.0352  1.7185
   30MOL0     H 4002   1.685   2.957   9.895  2.9436  0.8049  1.8758
   30MOL0     H 4003   1.728   2.787   9.897  3.6455  0.0608  0.7102
   30MOL0     H 4004   1.907   3.004   9.821 -0.7210 -0.4563 -0.0724
   30MOL0     H 4005   1.963   2.829   9.819 -0.1345 -2.1876  1.5792
   30MOL0     H 4006   1.920   2.813  10.049 -2.8548  0.2821 -1.3311
   30MOL0     H 4007   1.873   2.983  10.064 -0.8983 -2.5199  1.2886
   30MOL0     H 4008   2.093   3.042   9.935  1.2507 -0.1949 -0.0156
   30MOL0     H 4009   2.153   2.890  10.007 -0.9365 -1.7333 -0.4679
   30MOL0     H 4010   2.327   3.034   9.995 -0.7828  0.2213  0.0311
   30MOL0     H 4011   2.535   3.085   9.935 -2.8133 -0.9562  1.1545
   30MOL0     H 4012   2.553   3.257   9.947 -0.0342 -0.3448 -0.4618
   30MOL0     H 4013   2.650   3.139  10.045 -0.0225 -2.0104  0.3223
   30MOL0     H 4014   2.854   3.304  10.318 -0.1510 -0.8525 -3.0723
   30MOL0     H 4015   3.065   3.448  10.332 -0.0892 -2.7147 -0.6667
   30MOL0     H 4016   3.076   3.856  10.168  1.5805  1.6331  0.3935
   30MOL0     H 4017   2.980   3.849  10.318  1.4694 -0.6747  0.0893
   30MOL0     H 4018   3.188   3.996  10.355 -0.1128 -0.7252 -0.5746
   30MOL0     H 4019   3.178   3.855  10.459  0.7193  1.2197  0.2886
   30MOL0     H 4020   3.367   3.872  10.216  0.1376 -0.4953 -0.6340
   30MOL0     H 4021   3.341   3.732  10.331 -3.3925 -0.4440 -2.0046
   30MOL0     H 4022   3.407   4.006  10.430 -3.0351  0.1920 -3.0200
   30MOL0     H 4023   3.435   3.848  10.509  2.2657 -2.2613 -1.4656
   30MOL0     H 4024   3.574   3.914  10.243  1.2589 -1.8009 -1.6800
   30MOL0     H 4025   3.588   3.772  10.341  1.9525 -0.6027  2.8134
   30MOL0     H 4026   3.667   3.891  10.546  0.3478 -2.0847 -0.8766
   30MOL0     H 4027   3.774   3.881  10.404  0.6229  0.9810 -0.1779
   30MOL0     H 4028   3.615   4.115  10.526 -2.7229 -0.1029 -1.5084
   30MOL0     H 4029   3.665   4.122  10.355  1.4444 -0.6396  0.3693
   30MOL0     H 4030   3.906   4.106  10.438  0.8258  0.7102  1.6706
   30MOL0     H 4031   3.841   4.106  10.598 -0.9831 -1.0589 -0.2341
   30MOL0     H 4032   2.832   3.777  10.151  0.9626 -0.3497 -2.6034
   30MOL0     H 4033   2.646   3.631  10.139  0.1476 -3.0275 -4.2320
   30MOL0     H 4034   2.349   3.279  10.416 -0.2173 -0.5300  0.1836
   30MOL0     H 4035   2.144   3.177  10.365  0.2949 -1.2169  0.4342
   30MOL0     H 4036   2.540   2.858   8.690  1.5497 -2.3696 -0.4127
   30MOL0     H 4037   2.761   2.881   8.617  2.8774 -1.5779  2.5671
   30MOL0     H 4038   3.238   2.750   8.806 -0.4842 -0.9814 -2.4284
   30MOL0     H 4039   3.463   2.765   8.747  1.4026  2.3008  1.3743
   30MOL0     H 4040   3.612   2.758   8.628 -2.9206  0.3051 -0.5393
   30MOL0     H 4041   3.705   2.848   8.509  1.3061  1.2479  0.6064
   30MOL0     H 4042   3.828   2.779   8.742  0.9696  0.9624  2.2569
   30MOL0     H 4043   3.711   2.888   8.811  1.1861  0.2945  1.1346
   30MOL0     H 4044   3.820   3.077   8.716  2.7056  2.1990 -1.6326
   30MOL0     H 4045   3.930   2.989   8.614  0.5193  2.7232  0.1293
   30MOL0     H 4046   4.038   2.875   8.808 -0.1418 -0.7759  0.5581
   30MOL0     H 4047   3.946   2.984   8.917 -0.2506  0.2146 -0.2155
   30MOL0     H 4048   4.249   3.241   8.737 -1.2518  1.8152  0.8627
   30MOL0     H 4049   3.419   3.164   8.606  1.8552  0.3221  2.0358
   30MOL0     H 4050   3.173   3.153   8.662  0.8198 -0.3145  0.1113
   31MOL0     O 4051   8.198   5.571  10.971 -0.0030  0.0847  0.5227
   31MOL0     C 4052   8.148   5.474  10.920 -0.3974 -0.4017  0.1188
   31MOL0     O 4053   8.207   5.341  10.931  0.1352 -0.3741 -0.0202
   31MOL0     C 4054   8.343   5.329  10.953 -0.0322 -0.1653 -0.0798
   31MOL0     C 4055   8.381   5.202  11.001 -0.2003 -0.4436  0.5512
   31MOL0     C 4056   8.511   5.167  11.032 -0.4410 -0.1767 -0.0208
   31MOL0     C 4057   8.616   5.267  11.012  0.5682 -0.1898 -0.1695
   31MOL0     O 4058   8.747   5.249  11.026  0.2444 -0.6911 -1.2355
   31MOL0     C 4059   8.787   5.125  11.091 -0.0040 -0.7280 -0.5712
   31MOL0     C 4060   8.905   5.146  11.184  0.4070  0.0480  0.6182
   31MOL0     C 4061   8.858   5.232  11.297 -0.0478 -0.0895  0.8380
   31MOL0     C 4062   8.977   5.246  11.390  0.4715 -0.3736 -0.8006
   31MOL0     C 4063   8.927   5.321  11.512 -0.1643  0.2095 -0.4668
   31MOL0     C 4064   9.044   5.328  11.607 -0.2658 -0.1112 -1.5336
   31MOL0     C 4065   8.994   5.372  11.749  0.4347  1.1729 -0.1811
   31MOL0     C 4066   8.928   5.513  11.758 -0.2836  0.4886  0.1798
   31MOL0     N 4067   8.875   5.556  11.895  0.1173  0.9611  0.2468
   31MOL0     C 4068   8.953   5.604  12.002 -0.0926  0.3025 -1.2654
   31MOL0     C 4069   8.861   5.618  12.102  0.6517 -0.6729 -0.4295
   31MOL0     C 4070   8.899   5.660  12.242 -0.3520  0.4898  1.0093
   31MOL0     C 4071   8.838   5.798  12.268 -0.2797 -0.0187  0.0883
   31MOL0     C 4072   8.914   5.860  12.391  0.3521 -0.1745 -0.9148
   31MOL0     C 4073   8.869   6.003  12.418  0.0780  0.4632 -0.2725
   31MOL0     O 4074   8.912   6.045  12.547 -0.0481  0.1498 -0.4165
   31MOL0     C 4075   8.837   6.153  12.592  0.2262  0.5335  0.7759
   31MOL0     C 4076   8.867   6.203  12.722  0.9776  0.9880  0.2592
   31MOL0     C 4077   8.807   6.320  12.769 -0.0552 -0.3313 -0.1226
   31MOL0     C 4078   8.857   6.367  12.904  0.6932  0.1566 -0.3029
   31MOL0     C 4079   8.718   6.395  12.695 -0.1531  0.4854 -0.4992
   31MOL0     C 4080   8.661   6.524  12.739 -0.3170 -0.3284  0.7734
   31MOL0     O 4081   8.523   6.545  12.718 -0.4468 -0.6488  0.5321
   31MOL0     C 4082   8.478   6.675  12.690 -0.6157  0.9127 -0.2921
   31MOL0     C 4083   8.539   6.745  12.589 -0.2921  0.4275  0.3075
   31MOL0     C 4084   8.481   6.860  12.536 -0.9211 -0.7389 -0.2900
   31MOL0     C 4085   8.367   6.916  12.591 -0.2002 -0.4367  1.0832
   31MOL0     O 4086   8.310   7.034  12.540 -0.3207  0.5216 -0.1435
   31MOL0     C 4087   8.243   7.025  12.413 -0.0011  0.5353  0.9784
   31MOL0     C 4088   8.113   7.108  12.404 -0.1766  0.4525 -0.6194
   31MOL0     C 4089   8.006   7.060  12.509 -0.4632 -1.3477 -0.0754
   31MOL0     C 4090   7.935   6.935  12.471  1.2452  0.3901 -0.2345
   31MOL0     C 4091   7.808   6.921  12.561 -0.7590  0.7151  0.5870
   31MOL0     C 4092   7.842   6.927  12.710  0.5912  0.3218 -0.0103
   31MOL0     C 4093   7.943   6.830  12.778 -0.0840  0.7682  0.0061
   31MOL0     C 4094   7.883   6.694  12.774  0.0094 -0.3415  0.6197
   31MOL0    Cl 4095   7.964   6.599  12.914  0.3426  0.0092 -0.1509
   31MOL0     C 4096   8.315   6.859  12.702  0.1236 -0.3062 -0.2848
   31MOL0     C 4097   8.375   6.735  12.749  0.6877 -0.1932 -0.2337
   31MOL0     O 4098   8.744   6.615  12.768  0.5896  0.2003  0.0394
   31MOL0     C 4099   8.684   6.342  12.571  0.0175 -0.2019  1.2211
   31MOL0     C 4100   8.736   6.221  12.519  0.1113 -0.4981  0.0684
   31MOL0     N 4101   8.736   5.570  12.058  0.4170  0.1178  0.1378
   31MOL0     N 4102   8.746   5.551  11.927 -0.3764 -0.7024 -0.0333
   31MOL0     C 4103   8.586   5.397  10.971  0.8937 -0.2787 -0.0844
   31MOL0     C 4104   8.444   5.428  10.942  0.2982  1.5944 -0.2356
   31MOL0     C 4105   8.014   5.482  10.840 -0.1998 -0.9178  0.5081
   31MOL0     C 4106   7.927   5.592  10.832  0.5887 -0.2311 -0.2456
   31MOL0     C 4107   7.802   5.576  10.766  0.3422  0.2632 -0.4540
   31MOL0     C 4108   7.775   5.456  10.708  0.3782  0.0158 -0.1841
   31MOL0     O 4109   7.659   5.440  10.637  0.2352  0.6494 -0.0147
   31MOL0     C 4110   7.645   5.538  10.534  0.3724 -0.3794  0.0527
   31MOL0     C 4111   7.514   5.513  10.451  0.5022 -0.0977 -0.1974
   31MOL0     C 4112   7.488   5.617  10.339 -0.2658 -1.0463 -0.2217
   31MOL0     C 4113   7.550   5.562  10.204 -0.0316  0.4636 -0.4453
   31MOL0     C 4114   7.519   5.638  10.084  0.2975  0.5355  0.1327
   31MOL0     C 4115   7.495   5.691   9.972  0.1373  1.6566  0.0252
   31MOL0     C 4116   7.870   5.352  10.696  0.3838  0.1412  0.2147
   31MOL0     C 4117   7.984   5.364  10.776 -0.4369  0.0628 -0.3908
   31MOL0     H 4118   8.295   5.136  11.012  1.2051 -2.1468  1.7872
   31MOL0     H 4119   8.522   5.063  11.061 -0.4311 -0.3349 -0.5783
   31MOL0     H 4120   8.714   5.072  11.154 -0.3998  1.0882  0.5590
   31MOL0     H 4121   8.814   5.057  11.010  0.4292 -1.2570  0.0137
   31MOL0     H 4122   8.933   5.048  11.222  3.2891  0.9678  1.1026
   31MOL0     H 4123   8.992   5.187  11.131 -1.0357 -0.7015 -2.6044
   31MOL0     H 4124   8.820   5.328  11.261  1.1472 -0.5822 -1.9450
   31MOL0     H 4125   8.772   5.193  11.352 -1.6475  2.0007 -0.0722
   31MOL0     H 4126   9.022   5.151  11.420  3.4415  0.9495 -0.7644
   31MOL0     H 4127   9.058   5.305  11.348 -0.3035  1.2227 -0.1625
   31MOL0     H 4128   8.881   5.418  11.493  1.7599  1.4466  0.7398
   31MOL0     H 4129   8.855   5.256  11.563 -0.3543 -1.6512 -2.9191
   31MOL0     H 4130   9.078   5.225  11.616 -1.2892 -0.4940 -1.9733
   31MOL0     H 4131   9.132   5.386  11.578 -1.2808  1.6687 -1.2636
   31MOL0     H 4132   8.923   5.299  11.789  2.2033 -0.5125  0.0606
   31MOL0     H 4133   9.086   5.376  11.809  0.9665  0.8365 -0.9546
   31MOL0     H 4134   8.846   5.510  11.686 -0.5199 -0.7836  0.4671
   31MOL0     H 4135   9.005   5.582  11.723 -1.2216  1.3093 -0.3085
   31MOL0     H 4136   9.058   5.631  12.013  1.2866 -3.9523 -1.7598
   31MOL0     H 4137   8.862   5.579  12.306  0.5539 -0.4353  0.3878
   31MOL0     H 4138   9.007   5.654  12.262 -0.5950 -5.6274  2.4881
   31MOL0     H 4139   8.730   5.789  12.289 -0.5253 -0.4855 -1.2826
   31MOL0     H 4140   8.848   5.867  12.184 -0.4520  1.7146  1.4063
   31MOL0     H 4141   9.022   5.866  12.377  0.7014 -1.7912  0.7026
   31MOL0     H 4142   8.896   5.795  12.476  1.2149 -0.1008 -0.6663
   31MOL0     H 4143   8.761   5.994  12.429  0.0110  0.1455 -1.1797
   31MOL0     H 4144   8.900   6.060  12.330 -0.9821  0.7155 -0.4872
   31MOL0     H 4145   8.943   6.145  12.774  0.7632 -0.5453 -1.0661
   31MOL0     H 4146   8.914   6.290  12.957 -2.0151 -1.2963  0.6905
   31MOL0     H 4147   8.916   6.458  12.891 -1.3619  1.2914 -2.3504
   31MOL0     H 4148   8.771   6.401  12.962 -0.8465  0.0030 -2.3720
   31MOL0     H 4149   8.624   6.695  12.545 -0.9987  0.2528 -0.9253
   31MOL0     H 4150   8.546   6.904  12.461  0.3258 -2.1472 -0.0907
   31MOL0     H 4151   8.323   7.055  12.344 -0.9970  2.2852  0.5384
   31MOL0     H 4152   8.208   6.924  12.392 -1.2395  0.9838  0.8247
   31MOL0     H 4153   8.148   7.206  12.436  2.0918 -0.3094 -0.5840
   31MOL0     H 4154   8.069   7.107  12.304 -1.0582 -1.1838 -0.2506
   31MOL0     H 4155   7.940   7.146  12.526 -1.6467 -2.5845  2.0525
   31MOL0     H 4156   8.059   7.043  12.603  1.5434 -1.4212 -1.1608
   31MOL0     H 4157   7.897   6.950  12.370 -1.3240 -0.0482  0.5910
   31MOL0     H 4158   8.010   6.856  12.484  2.3005  1.7957  4.0393
   31MOL0     H 4159   7.755   6.830  12.533 -1.5520  1.8082 -1.6906
   31MOL0     H 4160   7.733   6.999  12.541 -0.0123  0.8429 -2.0882
   31MOL0     H 4161   7.879   7.029  12.725 -2.6095  1.4679  0.9542
   31MOL0     H 4162   7.750   6.920  12.769  0.2545 -0.5410 -0.6344
   31MOL0     H 4163   7.943   6.858  12.884  2.4365  0.2754  0.2086
   31MOL0     H 4164   8.042   6.842  12.733 -0.8029  0.3246 -1.7631
   31MOL0     H 4165   7.894   6.638  12.680  1.7610  0.4958  0.2768
   31MOL0     H 4166   7.778   6.700  12.804  0.5846  1.1437  2.5037
   31MOL0     H 4167   8.226   6.902  12.748  0.6439 -0.9880  1.4325
   31MOL0     H 4168   8.328   6.675  12.826  0.2938  2.9157  2.1370
   31MOL0     H 4169   8.602   6.391  12.519 -0.4006  0.2878  2.2901
   31MOL0     H 4170   8.701   6.184  12.423  1.3981 -1.6439  0.0112
   31MOL0     H 4171   8.662   5.474  10.963  0.6757 -0.0211  0.2842
   31MOL0     H 4172   8.431   5.530  10.908  0.8074  1.4236 -0.9476
   31MOL0     H 4173   7.957   5.690  10.868  1.8384  0.1517 -2.1611
   31MOL0     H 4174   7.726   5.653  10.772 -1.7285 -1.7792  1.2989
   31MOL0     H 4175   7.643   5.632  10.591 -1.4556 -1.8536  2.6212
   31MOL0     H 4176   7.738   5.526  10.478  1.1314 -0.3882  1.2759
   31MOL0     H 4177   7.429   5.524  10.520 -1.5881 -0.9270 -2.4950
   31MOL0     H 4178   7.503   5.411  10.413 -3.4432 -0.0474  0.3752
   31MOL0     H 4179   7.517   5.719  10.367 -0.3452 -1.4141  1.2933
   31MOL0     H 4180   7.382   5.618  10.313 -0.1425 -2.4416 -0.8997
   31MOL0     H 4181   7.516   5.458  10.196 -3.5419  1.4535 -0.0174
   31MOL0     H 4182   7.656   5.553  10.230 -0.1653 -1.4488 -0.4346
   31MOL0     H 4183   7.486   5.731   9.873 -1.7559  1.7484  0.2036
   31MOL0     H 4184   7.855   5.266  10.632 -1.5115 -1.3378  2.4411
   31MOL0     H 4185   8.044   5.274  10.766 -0.6940  0.0639 -2.2683
   32MOL0     O 4186   9.785   7.458   9.184  0.6023  0.6682  0.2667
   32MOL0     C 4187   9.669   7.432   9.175 -0.1840  0.0049  0.4806
   32MOL0     O 4188   9.571   7.471   9.267 -0.1947 -0.1486  0.1528
   32MOL0     C 4189   9.592   7.534   9.387 -1.5156 -0.1194  0.2553
   32MOL0     C 4190   9.708   7.524   9.464 -0.2797 -0.5453 -0.6123
   32MOL0     C 4191   9.711   7.578   9.589 -0.3754 -0.1504 -0.3416
   32MOL0     C 4192   9.600   7.633   9.649  0.5645  0.8963  0.1174
   32MOL0     O 4193   9.583   7.684   9.777 -0.0728 -0.0528  0.2411
   32MOL0     C 4194   9.685   7.684   9.878  0.2569  0.3440  0.5462
   32MOL0     C 4195   9.629   7.624  10.004 -0.0031  0.2205  0.5988
   32MOL0     C 4196   9.572   7.479   9.986  0.8923  0.0972 -0.5688
   32MOL0     C 4197   9.508   7.423  10.108  0.7251  0.4023 -0.4233
   32MOL0     C 4198   9.559   7.274  10.127  0.1256  0.4372  0.0872
   32MOL0     C 4199   9.478   7.207  10.230  0.4436 -0.2956  0.8336
   32MOL0     C 4200   9.514   7.056  10.245  0.2781  0.2242  0.2688
   32MOL0     C 4201   9.645   7.042  10.324 -0.4371  0.1301  0.0450
   32MOL0     N 4202   9.673   6.914  10.386 -0.0812 -0.6153 -0.3040
   32MOL0     C 4203   9.798   6.877  10.432 -0.3204  0.5572 -0.1315
   32MOL0     C 4204   9.776   6.779  10.525 -0.4843  0.3221 -0.6437
   32MOL0     C 4205   9.885   6.703  10.600 -0.0185 -0.3905  0.2502
   32MOL0     C 4206   9.920   6.770  10.726 -0.6130  0.5193 -0.8118
   32MOL0     C 4207  10.035   6.703  10.805  0.2780 -0.2070 -0.3958
   32MOL0     C 4208  10.178   6.734  10.757  1.2874  0.2498  0.6874
   32MOL0     O 4209  10.273   6.723  10.864  0.5076 -0.1191  0.4234
   32MOL0     C 4210  10.394   6.790  10.854 -0.2348  0.6738  0.4130
   32MOL0     C 4211  10.477   6.768  10.738  0.8124 -0.5268 -0.4947
   32MOL0     C 4212  10.599   6.843  10.736 -0.3428 -0.1895  0.8170
   32MOL0     C 4213  10.683   6.839  10.605 -0.4182 -0.1895  0.2099
   32MOL0     C 4214  10.642   6.920  10.854  0.7463  1.3850 -0.6889
   32MOL0     C 4215  10.769   6.996  10.854 -0.1276  0.1765  0.8982
   32MOL0     O 4216  10.865   6.973  10.950 -0.4110  0.4840 -1.2694
   32MOL0     C 4217  10.967   7.056  10.985  0.2580 -0.1935  0.5910
   32MOL0     C 4218  11.063   6.998  11.064  0.2878 -0.4043 -0.6318
   32MOL0     C 4219  11.171   7.062  11.094  0.0155  0.8312  0.6969
   32MOL0     C 4220  11.196   7.195  11.053  0.3341 -0.0937 -0.2936
   32MOL0     O 4221  11.314   7.248  11.091 -0.1339 -0.2385  0.0957
   32MOL0     C 4222  11.371   7.343  11.014 -0.3822  0.5964 -0.6399
   32MOL0     C 4223  11.516   7.361  11.051 -0.4193 -0.2708 -0.1590
   32MOL0     C 4224  11.605   7.249  10.993  0.0671 -0.7148  0.3164
   32MOL0     C 4225  11.742   7.266  11.056 -0.1660 -0.2525  0.3752
   32MOL0     C 4226  11.837   7.192  10.974 -0.5602  0.3914  0.5519
   32MOL0     C 4227  11.962   7.159  11.063  0.2613 -0.4909  0.6908
   32MOL0     C 4228  12.072   7.102  10.966 -0.3182 -1.0984 -0.0277
   32MOL0     C 4229  12.199   7.174  10.981 -0.3559 -0.1122 -0.3730
   32MOL0    Cl 4230  12.328   7.080  10.890 -0.2423  0.3662  0.1075
   32MOL0     C 4231  11.096   7.257  10.980 -0.5507  1.2679  0.4060
   32MOL0     C 4232  10.976   7.190  10.950  0.1612 -0.6689  0.1220
   32MOL0     O 4233  10.775   7.083  10.765  0.4961 -0.3770  0.0839
   32MOL0     C 4234  10.570   6.927  10.972  0.3082  0.6314 -0.0481
   32MOL0     C 4235  10.439   6.869  10.965  0.2192 -0.6298 -0.1649
   32MOL0     N 4236   9.641   6.759  10.538  0.4499  0.1328 -1.0748
   32MOL0     N 4237   9.589   6.843  10.467  0.2250  0.1682  0.0102
   32MOL0     C 4238   9.483   7.646   9.570  0.2696 -0.0758  0.5965
   32MOL0     C 4239   9.481   7.601   9.438 -0.0441 -0.5450  0.2895
   32MOL0     C 4240   9.616   7.342   9.065  0.5143  0.0613 -0.8608
   32MOL0     C 4241   9.689   7.287   8.969  0.8542 -0.6815  0.6556
   32MOL0     C 4242   9.643   7.185   8.877  0.0031  0.4568 -0.2002
   32MOL0     C 4243   9.506   7.161   8.877  1.1561 -0.5143 -0.3999
   32MOL0     O 4244   9.469   7.059   8.794  0.1394  0.1365 -0.6949
   32MOL0     C 4245   9.337   7.002   8.808  0.0385  0.8410 -0.0886
   32MOL0     C 4246   9.305   6.886   8.716 -0.4283  0.2809 -1.0376
   32MOL0     C 4247   9.314   6.930   8.569  0.4373 -0.5850  0.6228
   32MOL0     C 4248   9.285   6.823   8.473 -0.5892  0.1689  0.3465
   32MOL0     C 4249   9.139   6.784   8.483  0.2354 -0.9966  0.2712
   32MOL0     C 4250   9.021   6.773   8.489 -0.3978  0.0863  0.4707
   32MOL0     C 4251   9.427   7.221   8.971  0.3892  0.6088  0.6416
   32MOL0     C 4252   9.478   7.311   9.061 -0.5225  0.5785  0.0953
   32MOL0     H 4253   9.803   7.487   9.428  1.8519  1.3491  2.5701
   32MOL0     H 4254   9.806   7.593   9.640  0.4379 -2.6807 -0.9623
   32MOL0     H 4255   9.766   7.617   9.846  0.1441  0.7792 -0.7058
   32MOL0     H 4256   9.723   7.786   9.891 -0.3640  0.3606  2.4830
   32MOL0     H 4257   9.719   7.616  10.065  0.6550  3.1120  0.1693
   32MOL0     H 4258   9.568   7.704  10.047 -0.5927  1.4525 -2.2632
   32MOL0     H 4259   9.489   7.493   9.915  0.0830  1.2182  0.5506
   32MOL0     H 4260   9.636   7.411   9.929 -0.3788 -1.1652 -0.5498
   32MOL0     H 4261   9.530   7.485  10.195  1.1739 -0.0845 -0.1887
   32MOL0     H 4262   9.399   7.427  10.101  0.4280  1.7091  3.0403
   32MOL0     H 4263   9.556   7.214  10.036  1.3008  0.0198  0.3058
   32MOL0     H 4264   9.663   7.278  10.159  0.0130 -0.9414  0.7042
   32MOL0     H 4265   9.494   7.261  10.324  0.3301  0.9703  0.1434
   32MOL0     H 4266   9.375   7.210  10.195  0.8405 -1.9188 -0.5987
   32MOL0     H 4267   9.432   7.016  10.306  0.7306  2.0960  2.2353
   32MOL0     H 4268   9.523   7.005  10.148  1.5199  1.8467 -0.5151
   32MOL0     H 4269   9.646   7.115  10.405  0.7188  0.4990 -0.2829
   32MOL0     H 4270   9.735   7.058  10.264 -0.1463 -1.5164  0.0051
   32MOL0     H 4271   9.899   6.903  10.402  1.6898 -1.2478  4.1710
   32MOL0     H 4272   9.835   6.607  10.621  0.5674 -0.6690  0.3980
   32MOL0     H 4273   9.968   6.684  10.532 -0.4559  1.3674 -0.8482
   32MOL0     H 4274   9.829   6.754  10.785 -0.4943  2.1942 -0.0871
   32MOL0     H 4275   9.935   6.876  10.703  1.6490  0.9646  2.1357
   32MOL0     H 4276  10.026   6.594  10.812 -1.0328 -0.0550  0.7815
   32MOL0     H 4277  10.036   6.732  10.911 -1.5055 -1.4984  0.0210
   32MOL0     H 4278  10.199   6.823  10.697 -0.8927  0.9240  0.8104
   32MOL0     H 4279  10.200   6.654  10.685 -1.7297 -1.4820  1.5145
   32MOL0     H 4280  10.437   6.721  10.649 -0.6116  2.6006 -1.6488
   32MOL0     H 4281  10.634   6.763  10.544 -0.9766 -0.9603  1.5797
   32MOL0     H 4282  10.689   6.936  10.554  1.5067  0.7250  1.9777
   32MOL0     H 4283  10.783   6.796  10.617 -0.3404  0.0641  0.5085
   32MOL0     H 4284  11.046   6.893  11.088 -1.3910  0.0109  0.1291
   32MOL0     H 4285  11.248   7.012  11.152 -0.5301 -1.3870 -0.3902
   32MOL0     H 4286  11.374   7.311  10.909 -0.6692  0.3582 -0.5739
   32MOL0     H 4287  11.318   7.436  11.037  3.0578  2.4007  0.8035
   32MOL0     H 4288  11.548   7.460  11.017  1.0709 -0.5474  0.3350
   32MOL0     H 4289  11.524   7.368  11.160  2.7666  0.3556 -0.3136
   32MOL0     H 4290  11.614   7.269  10.886  1.9556 -2.6081  0.0645
   32MOL0     H 4291  11.556   7.153  11.013  1.1554 -1.9144 -2.3076
   32MOL0     H 4292  11.771   7.370  11.044 -1.2275 -0.2458 -3.5560
   32MOL0     H 4293  11.748   7.237  11.162  2.3927  2.1286  1.0087
   32MOL0     H 4294  11.855   7.259  10.889 -0.0007 -0.5554 -0.0992
   32MOL0     H 4295  11.788   7.098  10.947  1.4006 -1.0730  1.7789
   32MOL0     H 4296  12.002   7.254  11.100 -0.0161  1.4160 -3.3742
   32MOL0     H 4297  11.928   7.096  11.146 -2.8849  3.1291  2.4938
   32MOL0     H 4298  12.045   7.103  10.860 -0.4351  0.2497 -0.0034
   32MOL0     H 4299  12.097   7.002  11.004  1.2199 -0.1025  1.7768
   32MOL0     H 4300  12.228   7.189  11.085 -0.9727 -1.2839 -0.0151
   32MOL0     H 4301  12.187   7.274  10.938  1.4662  0.0373 -0.6317
   32MOL0     H 4302  11.098   7.357  10.939 -2.8652  1.3321  0.2943
   32MOL0     H 4303  10.897   7.249  10.905  1.5160  3.1927  2.2975
   32MOL0     H 4304  10.602   6.990  11.053  2.6289 -0.2302 -0.2267
   32MOL0     H 4305  10.371   6.909  11.040 -2.2450  0.5284 -2.8206
   32MOL0     H 4306   9.394   7.696   9.605  0.6283 -1.5844  4.0137
   32MOL0     H 4307   9.393   7.611   9.376  0.3217  0.4078 -0.0885
   32MOL0     H 4308   9.798   7.292   8.971  1.0449 -0.3841 -3.4813
   32MOL0     H 4309   9.713   7.120   8.825  2.3155  0.9345  2.0694
   32MOL0     H 4310   9.329   6.965   8.911  0.6522  2.1526  0.4609
   32MOL0     H 4311   9.267   7.082   8.783  1.5130  1.6623 -1.7986
   32MOL0     H 4312   9.201   6.856   8.733  0.2733 -1.0936  1.1524
   32MOL0     H 4313   9.352   6.789   8.735 -2.4905 -0.3616  1.3504
   32MOL0     H 4314   9.413   6.968   8.543 -0.0890 -0.5221 -1.4955
   32MOL0     H 4315   9.243   7.013   8.559 -1.1792 -1.7746  1.7661
   32MOL0     H 4316   9.348   6.734   8.483  1.0619  0.9232 -2.2678
   32MOL0     H 4317   9.290   6.862   8.371  1.3087 -1.3781 -0.2179
   32MOL0     H 4318   8.921   6.738   8.480  0.4526 -1.9120 -2.3957
   32MOL0     H 4319   9.321   7.200   8.979  0.3551  0.1167 -0.7638
   32MOL0     H 4320   9.407   7.367   9.121 -0.2855  2.7227 -1.5218
   33MOL0     O 4321   9.525   9.591  10.373 -1.2184 -0.1321 -0.2671
   33MOL0     C 4322   9.484   9.512  10.452 -0.1217 -0.6998 -0.6117
   33MOL0     O 4323   9.556   9.406  10.496 -0.1814  0.4574 -0.3749
   33MOL0     C 4324   9.694   9.382  10.475  0.5778 -0.3259 -0.0178
   33MOL0     C 4325   9.784   9.490  10.480  0.0805  0.4562  0.4932
   33MOL0     C 4326   9.918   9.470  10.427  1.3623  0.3866 -0.2403
   33MOL0     C 4327   9.956   9.350  10.371  0.0017  0.1335 -0.1110
   33MOL0     O 4328  10.082   9.351  10.310 -0.0917 -0.8406 -0.5426
   33MOL0     C 4329  10.141   9.219  10.286  0.6424  0.6301  0.7314
   33MOL0     C 4330  10.284   9.242  10.240 -0.9465 -0.2097  0.2196
   33MOL0     C 4331  10.390   9.129  10.228 -0.9290 -0.3839 -0.1661
   33MOL0     C 4332  10.405   9.049  10.363  0.3046  0.1904  0.2327
   33MOL0     C 4333  10.513   8.943  10.356 -0.3105 -0.3801 -0.4857
   33MOL0     C 4334  10.544   8.895  10.498 -0.9251 -0.0505 -0.1578
   33MOL0     C 4335  10.439   8.806  10.557 -0.7901  0.1046 -0.8506
   33MOL0     C 4336  10.474   8.746  10.698 -0.2270 -0.2693  0.0695
   33MOL0     N 4337  10.372   8.660  10.758 -0.1700  0.3903 -0.0160
   33MOL0     C 4338  10.348   8.530  10.731 -0.0775  0.7262 -0.4492
   33MOL0     C 4339  10.249   8.494  10.820  0.8660 -0.2081 -0.5389
   33MOL0     C 4340  10.197   8.357  10.842 -0.2103 -0.0656 -0.1716
   33MOL0     C 4341  10.105   8.308  10.724 -0.7414 -0.4870  0.4031
   33MOL0     C 4342  10.048   8.170  10.771 -0.7560  0.0842  0.4095
   33MOL0     C 4343   9.993   8.099  10.655 -0.5887  0.1988 -0.1830
   33MOL0     O 4344  10.112   8.061  10.588  0.2100  0.0409 -0.0352
   33MOL0     C 4345  10.091   8.000  10.465 -0.1776 -0.6879  0.7381
   33MOL0     C 4346  10.204   7.987  10.374  1.3103 -1.0634 -0.9771
   33MOL0     C 4347  10.192   7.939  10.243 -0.1559 -1.2097  0.4757
   33MOL0     C 4348  10.317   7.939  10.149  0.1842  0.7723  0.0145
   33MOL0     C 4349  10.064   7.884  10.202  0.0089 -0.2884 -0.1621
   33MOL0     C 4350  10.042   7.842  10.063 -0.6571 -0.1828 -0.5967
   33MOL0     O 4351  10.097   7.897   9.957 -0.1493 -0.4234  0.6921
   33MOL0     C 4352  10.049   7.868   9.827  0.6302  0.1707 -0.2906
   33MOL0     C 4353   9.923   7.912   9.779 -0.6340 -0.6110  0.1106
   33MOL0     C 4354   9.879   7.890   9.645 -0.0443 -0.5623 -0.2912
   33MOL0     C 4355   9.961   7.820   9.557 -0.2223  0.5128  0.0987
   33MOL0     O 4356   9.928   7.797   9.423  0.6395 -0.0781 -0.0292
   33MOL0     C 4357   9.850   7.903   9.356 -0.0812  0.5170 -0.3946
   33MOL0     C 4358   9.854   7.869   9.208  0.0307 -0.3017 -0.7083
   33MOL0     C 4359   9.989   7.890   9.138 -1.4882 -0.7948  0.1824
   33MOL0     C 4360   9.997   8.039   9.095 -0.7224  0.2949 -0.2572
   33MOL0     C 4361  10.137   8.069   9.029  0.1956 -0.2112 -0.0184
   33MOL0     C 4362  10.154   8.206   8.973 -0.1864 -0.0820 -0.2006
   33MOL0     C 4363  10.081   8.233   8.838 -0.6996 -0.1809 -0.1398
   33MOL0     C 4364  10.085   8.373   8.783 -0.2974 -0.0588 -0.3670
   33MOL0    Cl 4365  10.015   8.355   8.621  0.3191 -0.6297 -0.1496
   33MOL0     C 4366  10.084   7.770   9.611 -1.2521 -0.0144 -0.3947
   33MOL0     C 4367  10.129   7.794   9.741  0.6823 -0.7450  0.0379
   33MOL0     O 4368   9.952   7.760  10.057  0.5557  0.1803 -0.1168
   33MOL0     C 4369   9.952   7.886  10.293 -0.7737 -0.1665  0.0508
   33MOL0     C 4370   9.970   7.940  10.418  0.3082 -1.1568 -0.1858
   33MOL0     N 4371  10.212   8.599  10.901  0.4974  0.5311 -0.2657
   33MOL0     N 4372  10.293   8.695  10.863  0.0656  0.7453  1.2526
   33MOL0     C 4373   9.872   9.235  10.387 -0.6504  0.6113  0.3043
   33MOL0     C 4374   9.742   9.255  10.429 -0.1421  0.4596  0.2612
   33MOL0     C 4375   9.356   9.538  10.509 -0.3827  0.0950  0.2012
   33MOL0     C 4376   9.320   9.463  10.621 -0.5095 -0.7339 -0.9447
   33MOL0     C 4377   9.205   9.487  10.702  1.0084 -0.9655 -0.8642
   33MOL0     C 4378   9.109   9.581  10.653 -0.3190  0.3874 -0.3551
   33MOL0     O 4379   8.992   9.598  10.719 -0.3638  1.2297  0.5320
   33MOL0     C 4380   8.902   9.699  10.676 -0.1672 -0.2653 -0.3430
   33MOL0     C 4381   8.804   9.713  10.789 -0.0534  0.5829  0.3373
   33MOL0     C 4382   8.681   9.782  10.751 -0.1530  0.5644  0.0888
   33MOL0     C 4383   8.707   9.922  10.718  1.0665 -0.0414 -0.5543
   33MOL0     C 4384   8.573   9.985  10.707  0.1432 -0.5070  0.4744
   33MOL0     C 4385   8.467  10.046  10.698 -0.7399 -0.1161 -1.0078
   33MOL0     C 4386   9.149   9.657  10.542  0.6435 -0.7475 -0.0137
   33MOL0     C 4387   9.266   9.636  10.467  0.9323 -0.6048  0.1428
   33MOL0     H 4388   9.751   9.592  10.502 -0.8493  1.0307 -3.0363
   33MOL0     H 4389   9.989   9.552  10.431  1.7985  0.0068  3.3249
   33MOL0     H 4390  10.143   9.151  10.371  1.5388  0.8776  0.9208
   33MOL0     H 4391  10.087   9.169  10.205  1.0746  1.6305 -0.2010
   33MOL0     H 4392  10.282   9.300  10.147 -1.9118  0.6551  0.7677
   33MOL0     H 4393  10.329   9.309  10.314 -1.8725  0.5034  0.1635
   33MOL0     H 4394  10.363   9.059  10.149  1.6599 -0.3774 -1.1759
   33MOL0     H 4395  10.492   9.168  10.216 -0.6470 -0.7817  0.9090
   33MOL0     H 4396  10.409   9.115  10.450  0.1434  0.8900 -0.2808
   33MOL0     H 4397  10.311   8.994  10.375  0.6599 -0.3496  0.5748
   33MOL0     H 4398  10.481   8.866  10.286  1.3823 -2.2346  0.6575
   33MOL0     H 4399  10.606   8.991  10.326 -0.7845  0.5863 -0.4276
   33MOL0     H 4400  10.638   8.839  10.497  0.1907  1.6572 -3.3049
   33MOL0     H 4401  10.556   8.979  10.567 -1.5635 -0.7895  0.8851
   33MOL0     H 4402  10.343   8.858  10.564  0.1957  1.9065  0.2734
   33MOL0     H 4403  10.420   8.721  10.492 -0.9835 -1.2910  0.9448
   33MOL0     H 4404  10.491   8.830  10.765 -3.9282  2.4683 -2.0769
   33MOL0     H 4405  10.565   8.686  10.690 -3.4042 -5.9209  0.7245
   33MOL0     H 4406  10.405   8.469  10.663  0.8514  1.1901 -0.0972
   33MOL0     H 4407  10.285   8.293  10.854  0.9949  1.9819  3.7814
   33MOL0     H 4408  10.150   8.354  10.941  0.8153 -1.2788  0.3089
   33MOL0     H 4409  10.166   8.307  10.633  1.2229  0.3610  1.6571
   33MOL0     H 4410  10.013   8.364  10.705  0.0751  1.1935  1.2756
   33MOL0     H 4411   9.978   8.182  10.853 -1.5051  1.0761 -0.3564
   33MOL0     H 4412  10.132   8.118  10.818 -1.6033  1.2915  3.4332
   33MOL0     H 4413   9.927   8.158  10.592 -0.7678 -1.0960 -1.2582
   33MOL0     H 4414   9.932   8.014  10.688 -0.2561 -0.8113 -2.0437
   33MOL0     H 4415  10.294   8.032  10.417 -0.7945  1.9379  0.6882
   33MOL0     H 4416  10.330   7.835  10.118  0.3908 -0.4648  3.7537
   33MOL0     H 4417  10.305   8.017  10.073  1.1288 -1.4495 -2.5838
   33MOL0     H 4418  10.403   7.958  10.215 -0.6920 -1.0201  1.7568
   33MOL0     H 4419   9.858   7.968   9.846 -0.9076 -2.7159  1.7029
   33MOL0     H 4420   9.778   7.911   9.609  0.9355 -0.0858 -3.0447
   33MOL0     H 4421   9.746   7.898   9.391  0.0374  0.3413 -0.0713
   33MOL0     H 4422   9.885   8.004   9.375  0.7694  0.0879  0.3557
   33MOL0     H 4423   9.815   7.767   9.199  0.6918 -0.5377 -0.9398
   33MOL0     H 4424   9.782   7.937   9.161 -2.0125 -0.0942  2.4650
   33MOL0     H 4425   9.987   7.819   9.054  2.3700 -0.0971 -0.6752
   33MOL0     H 4426  10.074   7.871   9.204  0.0299  1.4376 -1.0080
   33MOL0     H 4427   9.911   8.064   9.032 -0.8892 -0.4876 -0.3557
   33MOL0     H 4428   9.998   8.107   9.181  5.2912 -2.0107  2.0832
   33MOL0     H 4429  10.156   8.001   8.945 -0.3446 -1.3812  0.7661
   33MOL0     H 4430  10.210   8.048   9.108  0.4799 -1.4730 -0.5914
   33MOL0     H 4431  10.122   8.274   9.052  1.1888 -0.9022  1.1069
   33MOL0     H 4432  10.263   8.218   8.966 -0.1725  0.2715  0.5609
   33MOL0     H 4433   9.976   8.217   8.864 -0.5727 -1.8032 -0.5270
   33MOL0     H 4434  10.114   8.150   8.774 -1.2288  0.7004 -1.6030
   33MOL0     H 4435  10.188   8.407   8.768 -1.4256  3.9246 -0.1590
   33MOL0     H 4436  10.028   8.446   8.841 -0.8013 -0.4582 -0.3615
   33MOL0     H 4437  10.155   7.707   9.558 -0.1035  0.6114  0.3475
   33MOL0     H 4438  10.227   7.758   9.769  1.2969  0.1374 -0.8971
   33MOL0     H 4439   9.859   7.847  10.253  0.1801 -1.4873 -0.9554
   33MOL0     H 4440   9.881   7.946  10.480 -1.1371 -1.0032 -2.1715
   33MOL0     H 4441   9.916   9.136  10.384  2.0494  1.6700  1.5271
   33MOL0     H 4442   9.676   9.169  10.423  0.4175 -0.0229  0.8127
   33MOL0     H 4443   9.377   9.374  10.645 -1.6177 -1.8733 -2.3103
   33MOL0     H 4444   9.180   9.422  10.785 -1.8142 -0.9093 -1.5747
   33MOL0     H 4445   8.954   9.792  10.652 -0.0056 -0.4036 -0.5299
   33MOL0     H 4446   8.853   9.661  10.585 -3.0550  0.9909  0.5690
   33MOL0     H 4447   8.861   9.759  10.870 -0.3237  0.4381  0.6130
   33MOL0     H 4448   8.770   9.617  10.830 -0.2497  0.6529  0.3362
   33MOL0     H 4449   8.615   9.774  10.839  2.5218  0.8791  2.2390
   33MOL0     H 4450   8.622   9.737  10.670 -0.7602 -0.2475  0.9527
   33MOL0     H 4451   8.750   9.924  10.617  1.6513 -0.9280 -0.3311
   33MOL0     H 4452   8.763   9.970  10.799  1.1451  1.7889 -1.6374
   33MOL0     H 4453   8.399  10.122  10.665 -1.1357  1.3893  2.7909
   33MOL0     H 4454   9.079   9.722  10.491 -0.9333 -1.7677  0.7769
   33MOL0     H 4455   9.292   9.709  10.391 -1.1004  1.1962  1.0523
   34MOL0     O 4456   7.347   2.766   8.536 -0.1739  0.3472 -0.0941
   34MOL0     C 4457   7.395   2.739   8.649  0.7575  0.1991 -0.3311
   34MOL0     O 4458   7.326   2.752   8.772  0.3003  0.4322 -0.0986
   34MOL0     C 4459   7.194   2.775   8.777  1.0862 -0.2133  0.7260
   34MOL0     C 4460   7.099   2.706   8.692 -0.5925  0.4499  0.2983
   34MOL0     C 4461   6.961   2.711   8.718  0.4710  0.4032 -0.3409
   34MOL0     C 4462   6.911   2.787   8.825  1.2205  1.1244  0.8656
   34MOL0     O 4463   6.777   2.819   8.841  0.2442  0.5516 -0.1566
   34MOL0     C 4464   6.677   2.716   8.814  0.0128  0.1890  0.3828
   34MOL0     C 4465   6.594   2.784   8.708 -0.3390  0.4307 -1.1995
   34MOL0     C 4466   6.479   2.703   8.664 -0.2076  0.7050  0.7898
   34MOL0     C 4467   6.380   2.770   8.561 -0.4237 -0.7783 -0.3611
   34MOL0     C 4468   6.296   2.679   8.471 -0.4527  0.2268  0.3288
   34MOL0     C 4469   6.194   2.772   8.395  0.1518  0.3276 -0.7292
   34MOL0     C 4470   6.113   2.686   8.302 -0.0115  0.5324 -0.2598
   34MOL0     C 4471   6.034   2.758   8.185 -0.5033  0.0462 -0.6193
   34MOL0     N 4472   5.934   2.852   8.236  0.2097 -1.0210 -0.4329
   34MOL0     C 4473   5.814   2.825   8.307 -0.7650 -0.2358  0.1874
   34MOL0     C 4474   5.746   2.934   8.323  0.0727  0.4384  0.8800
   34MOL0     C 4475   5.610   2.951   8.376 -0.0433  0.0005 -0.3731
   34MOL0     C 4476   5.504   2.883   8.299  0.7646 -0.3259  0.2963
   34MOL0     C 4477   5.370   2.915   8.358 -0.2768 -0.0694 -0.3873
   34MOL0     C 4478   5.255   2.849   8.289 -0.9923  0.3837  0.0774
   34MOL0     O 4479   5.140   2.885   8.367 -0.5338 -0.1270 -0.4614
   34MOL0     C 4480   5.042   2.789   8.369 -0.1378  0.2685  0.4600
   34MOL0     C 4481   5.029   2.680   8.279  0.2873  0.4280 -0.6865
   34MOL0     C 4482   4.928   2.588   8.289 -0.3423  0.6260 -0.6108
   34MOL0     C 4483   4.929   2.490   8.174  0.9237  0.0842 -0.2640
   34MOL0     C 4484   4.837   2.597   8.400  0.0070 -0.1242 -0.0358
   34MOL0     C 4485   4.724   2.496   8.426 -0.1316  0.4675  0.3307
   34MOL0     O 4486   4.733   2.368   8.363  1.2617 -0.8974 -0.1793
   34MOL0     C 4487   4.685   2.249   8.418  0.1053 -0.2733 -1.0684
   34MOL0     C 4488   4.668   2.239   8.561 -1.1146  0.1660 -0.3076
   34MOL0     C 4489   4.614   2.121   8.620 -0.0498  0.5876  1.3916
   34MOL0     C 4490   4.540   2.032   8.544  1.0058 -0.1463  0.7073
   34MOL0     O 4491   4.465   1.922   8.596  0.5288 -0.0928 -0.3024
   34MOL0     C 4492   4.468   1.894   8.737 -0.0587 -0.0490  0.0055
   34MOL0     C 4493   4.378   1.781   8.775 -0.7118 -0.1842 -0.7163
   34MOL0     C 4494   4.273   1.820   8.872  0.7578 -0.6551  0.2695
   34MOL0     C 4495   4.168   1.926   8.831  0.1184  0.1588  0.0005
   34MOL0     C 4496   4.055   1.942   8.931 -0.2656  0.2856 -0.4746
   34MOL0     C 4497   3.947   2.046   8.883 -1.0819 -0.4122 -0.0088
   34MOL0     C 4498   3.835   2.069   8.989 -0.1282 -0.5081 -0.5156
   34MOL0     C 4499   3.735   1.957   8.982 -0.0569 -0.1223  0.6093
   34MOL0    Cl 4500   3.604   2.004   9.102  0.3366  0.0023  0.5619
   34MOL0     C 4501   4.555   2.034   8.403 -0.5492  0.9140  0.2184
   34MOL0     C 4502   4.633   2.138   8.344  0.5726  0.4762 -0.0441
   34MOL0     O 4503   4.662   2.518   8.529  0.7121  0.5742  0.2632
   34MOL0     C 4504   4.843   2.708   8.486 -0.1304 -0.4376 -0.2553
   34MOL0     C 4505   4.946   2.807   8.473 -0.5979  0.2247 -0.2924
   34MOL0     N 4506   5.834   3.033   8.277  0.1668 -0.2799 -0.5827
   34MOL0     N 4507   5.935   2.988   8.219  0.3174 -0.6667 -1.3523
   34MOL0     C 4508   6.999   2.859   8.898 -0.1479  0.1436  0.0887
   34MOL0     C 4509   7.142   2.861   8.877  1.1172  0.6269 -0.0670
   34MOL0     C 4510   7.528   2.693   8.651  0.0059 -0.0622 -1.2247
   34MOL0     C 4511   7.557   2.610   8.764 -0.3287 -0.8055  0.2025
   34MOL0     C 4512   7.686   2.571   8.785  0.0359 -0.3214 -0.5846
   34MOL0     C 4513   7.787   2.618   8.701 -0.5521 -0.3580  0.3226
   34MOL0     O 4514   7.920   2.578   8.697  0.1414  0.5404 -1.0774
   34MOL0     C 4515   7.969   2.494   8.811  0.5070  0.6112 -0.2610
   34MOL0     C 4516   8.077   2.378   8.795 -0.6014 -0.4914  0.3068
   34MOL0     C 4517   8.185   2.419   8.695  0.5335  0.2481  0.0422
   34MOL0     C 4518   8.273   2.518   8.759  0.0626  1.6130 -0.6430
   34MOL0     C 4519   8.393   2.528   8.672  0.3049 -0.9170 -0.3696
   34MOL0     C 4520   8.499   2.522   8.624  0.3322 -0.3816  0.1502
   34MOL0     C 4521   7.754   2.709   8.602 -0.4348  0.2260  0.2038
   34MOL0     C 4522   7.626   2.750   8.577 -0.1794 -0.4032 -0.4689
   34MOL0     H 4523   7.134   2.634   8.618  2.7799  1.8249  0.3533
   34MOL0     H 4524   6.900   2.654   8.649  0.8791 -2.2865  1.4090
   34MOL0     H 4525   6.709   2.618   8.779  0.5911  0.2115  0.8299
   34MOL0     H 4526   6.633   2.692   8.911  0.2596 -3.6847 -0.3190
   34MOL0     H 4527   6.562   2.881   8.746  0.8370  0.9908 -1.5870
   34MOL0     H 4528   6.647   2.815   8.617 -1.3495 -0.5801 -2.1702
   34MOL0     H 4529   6.522   2.631   8.593  2.8333  3.1685 -0.1161
   34MOL0     H 4530   6.427   2.656   8.748 -1.6254  1.8860  0.6223
   34MOL0     H 4531   6.321   2.835   8.627  1.7168  1.9037 -0.9024
   34MOL0     H 4532   6.435   2.839   8.496  0.5735 -1.0040  0.2020
   34MOL0     H 4533   6.349   2.623   8.394 -3.3131 -2.3003  0.0380
   34MOL0     H 4534   6.240   2.611   8.535 -2.6028 -0.7036 -2.3511
   34MOL0     H 4535   6.131   2.812   8.474  1.5235 -3.4962  2.6832
   34MOL0     H 4536   6.253   2.843   8.337 -0.2198  0.1661 -1.3116
   34MOL0     H 4537   6.183   2.615   8.258 -0.7908 -0.4112 -0.0156
   34MOL0     H 4538   6.050   2.624   8.366  4.7854 -3.3985  1.3380
   34MOL0     H 4539   5.991   2.680   8.122  1.1996 -2.9000  1.6123
   34MOL0     H 4540   6.111   2.810   8.128 -1.1461  0.4020 -1.1767
   34MOL0     H 4541   5.790   2.726   8.345 -0.4223 -0.2878  0.2709
   34MOL0     H 4542   5.603   2.920   8.481 -0.5783  0.5468 -0.2390
   34MOL0     H 4543   5.595   3.060   8.373  0.6394  0.0961 -0.4097
   34MOL0     H 4544   5.525   2.775   8.301  1.9843 -0.1539 -0.9529
   34MOL0     H 4545   5.504   2.916   8.195 -0.6841 -0.1459  0.3349
   34MOL0     H 4546   5.353   3.023   8.349 -0.8474  0.1172  2.1280
   34MOL0     H 4547   5.367   2.886   8.463 -3.4451 -0.8904 -0.6032
   34MOL0     H 4548   5.274   2.742   8.278  1.3050  0.9176 -2.0444
   34MOL0     H 4549   5.250   2.887   8.186  0.2413  0.4057  0.0163
   34MOL0     H 4550   5.102   2.659   8.202  1.6109 -0.3038  0.7345
   34MOL0     H 4551   4.961   2.389   8.202  0.0689 -0.7701 -2.1830
   34MOL0     H 4552   4.830   2.474   8.132 -0.1757 -1.1474  2.5453
   34MOL0     H 4553   5.000   2.513   8.095  1.7612 -0.8032  0.1997
   34MOL0     H 4554   4.707   2.317   8.625  0.6465 -1.7710  1.0643
   34MOL0     H 4555   4.628   2.117   8.728  2.3391  2.1965  1.2156
   34MOL0     H 4556   4.570   1.866   8.768  0.8354 -0.7851 -3.2281
   34MOL0     H 4557   4.454   1.983   8.798 -2.1259  1.0670 -1.9553
   34MOL0     H 4558   4.342   1.728   8.686 -2.4080 -0.3628  0.0455
   34MOL0     H 4559   4.436   1.707   8.830  0.8554  1.1947 -0.4209
   34MOL0     H 4560   4.323   1.868   8.957  1.9465 -1.9933  0.3608
   34MOL0     H 4561   4.219   1.736   8.917  0.5357 -1.4691 -1.4534
   34MOL0     H 4562   4.209   2.026   8.812  3.6147 -1.3078 -0.7900
   34MOL0     H 4563   4.125   1.889   8.738 -2.2807  1.3236  0.5657
   34MOL0     H 4564   4.104   1.978   9.022 -1.2062 -1.2022  0.6578
   34MOL0     H 4565   4.008   1.846   8.953 -0.7484  0.6890  0.3221
   34MOL0     H 4566   3.986   2.146   8.861 -2.5814  0.7300  2.1529
   34MOL0     H 4567   3.908   2.006   8.790  0.0997 -0.1423 -0.6486
   34MOL0     H 4568   3.783   2.161   8.962  1.7557  1.2890  1.5441
   34MOL0     H 4569   3.878   2.086   9.088 -3.6585 -1.2514  1.2939
   34MOL0     H 4570   3.773   1.856   8.997 -3.3748 -1.6263 -0.1091
   34MOL0     H 4571   3.693   1.959   8.881 -0.4980 -2.4668  0.6938
   34MOL0     H 4572   4.532   1.950   8.338  2.4560 -0.7206  1.0365
   34MOL0     H 4573   4.633   2.141   8.235 -0.6853  1.6547 -0.0409
   34MOL0     H 4574   4.771   2.724   8.566 -1.7468  2.2196 -2.0694
   34MOL0     H 4575   4.971   2.894   8.534  0.9099  0.2852 -0.9550
   34MOL0     H 4576   6.963   2.933   8.967 -2.8160 -0.1312 -0.9003
   34MOL0     H 4577   7.192   2.915   8.957 -3.7658 -0.4007  4.2796
   34MOL0     H 4578   7.479   2.568   8.826 -0.5019  0.7761  1.1154
   34MOL0     H 4579   7.691   2.493   8.861 -2.8215  0.1552  0.2220
   34MOL0     H 4580   8.019   2.574   8.866  0.7084 -1.0344  2.0991
   34MOL0     H 4581   7.890   2.458   8.878  1.3323  3.1021  2.2456
   34MOL0     H 4582   8.026   2.288   8.759 -1.1537 -0.3895  0.8187
   34MOL0     H 4583   8.112   2.355   8.896 -0.5237  1.4015  0.7529
   34MOL0     H 4584   8.134   2.464   8.609  0.0590 -1.4947 -0.6314
   34MOL0     H 4585   8.227   2.323   8.666 -4.6780 -1.4940 -3.2355
   34MOL0     H 4586   8.288   2.487   8.864  0.6437 -0.6352 -1.3179
   34MOL0     H 4587   8.229   2.618   8.764 -4.5963 -0.2429  2.5209
   34MOL0     H 4588   8.592   2.527   8.572  0.8672 -1.3220  0.9846
   34MOL0     H 4589   7.835   2.747   8.541  1.3422 -0.5528  1.9694
   34MOL0     H 4590   7.613   2.814   8.491  1.4825  0.5315 -0.0639
   35MOL0     O 4591   2.049   6.817   6.776  0.2792  0.4411 -0.3450
   35MOL0     C 4592   2.073   6.917   6.844 -0.7671 -0.9012 -0.8322
   35MOL0     O 4593   1.993   7.033   6.843 -0.0810 -0.4297  0.4821
   35MOL0     C 4594   1.875   7.058   6.774  0.3283  1.4452  0.0979
   35MOL0     C 4595   1.767   7.114   6.841  0.3255 -0.1964 -0.2235
   35MOL0     C 4596   1.655   7.157   6.778  0.6706 -0.4311 -0.3411
   35MOL0     C 4597   1.643   7.142   6.633  0.7672  0.1580 -0.1711
   35MOL0     O 4598   1.523   7.184   6.571 -0.0839  0.9303  0.4951
   35MOL0     C 4599   1.527   7.181   6.424 -0.8090 -0.0763 -0.0039
   35MOL0     C 4600   1.394   7.219   6.349  0.2026  0.7544  0.3619
   35MOL0     C 4601   1.364   7.369   6.331 -0.5319  0.8053 -0.8306
   35MOL0     C 4602   1.211   7.400   6.303  0.0238  0.9038 -0.3581
   35MOL0     C 4603   1.189   7.539   6.251 -0.5321 -1.0364  0.2098
   35MOL0     C 4604   1.045   7.572   6.216 -0.1163  0.5713 -0.2436
   35MOL0     C 4605   1.042   7.717   6.186 -0.3169  0.2680  0.3964
   35MOL0     C 4606   0.921   7.771   6.097 -0.8421 -1.3777  0.0028
   35MOL0     N 4607   0.787   7.756   6.151 -0.3184  0.0232  1.2466
   35MOL0     C 4608   0.717   7.638   6.176 -0.1202 -0.1962 -0.2685
   35MOL0     C 4609   0.598   7.672   6.236 -0.0583 -0.6706  0.4453
   35MOL0     C 4610   0.495   7.577   6.291 -0.1595 -0.1320  0.0137
   35MOL0     C 4611   0.368   7.644   6.355 -0.0708 -0.0095  0.0943
   35MOL0     C 4612   0.301   7.552   6.467 -0.1707 -0.8087 -1.7750
   35MOL0     C 4613   0.351   7.585   6.613 -0.3874  0.6777 -0.7756
   35MOL0     O 4614   0.327   7.484   6.706  0.0071  0.0099  0.0343
   35MOL0     C 4615   0.215   7.486   6.778  0.5540  0.4607  0.2379
   35MOL0     C 4616   0.154   7.369   6.797  0.6387  0.3556 -0.2117
   35MOL0     C 4617   0.036   7.351   6.861  0.7568  0.4038 -0.8497
   35MOL0     C 4618  -0.014   7.206   6.865 -0.6451  0.0152  0.5982
   35MOL0     C 4619  -0.025   7.461   6.923 -0.8135 -0.6117 -0.2835
   35MOL0     C 4620  -0.146   7.452   7.001  0.2933 -0.0089  0.2105
   35MOL0     O 4621  -0.151   7.545   7.101  0.7459 -0.2421  0.1233
   35MOL0     C 4622  -0.256   7.541   7.193  0.0482  0.1234 -0.0962
   35MOL0     C 4623  -0.387   7.541   7.145 -0.4880 -0.1739 -0.1522
   35MOL0     C 4624  -0.485   7.544   7.242 -1.2289  0.3754  0.3228
   35MOL0     C 4625  -0.460   7.541   7.377 -0.3058 -0.0565 -0.0491
   35MOL0     O 4626  -0.575   7.547   7.453 -0.4961 -0.1870  0.2357
   35MOL0     C 4627  -0.569   7.529   7.602  0.3777  0.6237  0.1753
   35MOL0     C 4628  -0.707   7.512   7.658  0.6861 -0.3465 -0.1875
   35MOL0     C 4629  -0.706   7.492   7.817  0.1477 -0.5420  0.5409
   35MOL0     C 4630  -0.847   7.443   7.864 -0.0315 -0.6228 -0.0324
   35MOL0     C 4631  -0.858   7.463   8.020  0.5643  0.4375  0.1237
   35MOL0     C 4632  -0.978   7.399   8.066  0.9784  0.4490  1.0736
   35MOL0     C 4633  -0.996   7.419   8.221 -0.9261  0.2391  0.7678
   35MOL0     C 4634  -1.076   7.313   8.273  1.0262 -0.7830 -0.6976
   35MOL0    Cl 4635  -1.219   7.281   8.180  0.2871 -0.3766  0.1487
   35MOL0     C 4636  -0.331   7.529   7.420  0.8066 -0.2804  0.3702
   35MOL0     C 4637  -0.228   7.531   7.328 -0.2199 -0.2051 -0.0196
   35MOL0     O 4638  -0.228   7.360   6.979 -0.7996 -0.3546  0.2433
   35MOL0     C 4639   0.034   7.582   6.908 -0.0893  0.2298 -0.2621
   35MOL0     C 4640   0.155   7.594   6.833 -0.3190  0.0352  0.0919
   35MOL0     N 4641   0.587   7.817   6.230  0.5876  0.2907  0.0796
   35MOL0     N 4642   0.704   7.853   6.190  0.4380 -0.6839 -0.6101
   35MOL0     C 4643   1.757   7.088   6.569  0.2708 -0.5625  0.3982
   35MOL0     C 4644   1.873   7.049   6.636 -0.4519 -0.1525 -0.4007
   35MOL0     C 4645   2.223   6.926   6.887  0.0226 -1.2878  1.2025
   35MOL0     C 4646   2.295   6.824   6.929 -0.0050  0.2724 -0.4098
   35MOL0     C 4647   2.430   6.832   6.968  0.7081  0.7735  0.4835
   35MOL0     C 4648   2.507   6.947   6.953 -0.1753 -0.1804  0.8902
   35MOL0     O 4649   2.640   6.935   6.997  0.9905 -0.0638 -0.4346
   35MOL0     C 4650   2.700   7.064   7.008  0.3293  0.6613  0.2949
   35MOL0     C 4651   2.801   7.053   7.117 -0.8733 -0.3064 -0.4579
   35MOL0     C 4652   2.917   6.965   7.076 -0.4452 -0.5162  0.9003
   35MOL0     C 4653   3.032   6.957   7.172 -0.1682  0.0479 -0.6388
   35MOL0     C 4654   2.990   6.922   7.311  0.0787  1.8896  0.9282
   35MOL0     C 4655   2.961   6.887   7.423 -0.1660  0.2802  0.0062
   35MOL0     C 4656   2.441   7.055   6.897  0.1386  0.1084 -0.2535
   35MOL0     C 4657   2.301   7.040   6.872  0.2337 -0.7878 -0.3923
   35MOL0     H 4658   1.769   7.120   6.949 -4.2443 -2.2568  0.1961
   35MOL0     H 4659   1.584   7.208   6.843  0.9848  0.9276 -1.0358
   35MOL0     H 4660   1.607   7.247   6.389  0.4992 -1.0943  0.9984
   35MOL0     H 4661   1.557   7.081   6.393  0.8690 -0.1774  1.7730
   35MOL0     H 4662   1.386   7.167   6.253  2.2616 -0.1333  0.6107
   35MOL0     H 4663   1.307   7.170   6.395 -0.5106  0.2976 -1.3897
   35MOL0     H 4664   1.393   7.414   6.426 -2.0699 -1.6395  0.9121
   35MOL0     H 4665   1.439   7.398   6.256  3.1613 -4.2843  0.3625
   35MOL0     H 4666   1.185   7.330   6.222 -0.8604  1.7840 -0.8549
   35MOL0     H 4667   1.150   7.369   6.388  0.0326 -2.8527 -1.4911
   35MOL0     H 4668   1.218   7.613   6.327  0.6815 -0.9960 -0.2704
   35MOL0     H 4669   1.258   7.560   6.168 -1.0387  0.8958  0.2325
   35MOL0     H 4670   1.016   7.504   6.136 -0.1538  1.2067 -0.7841
   35MOL0     H 4671   0.979   7.551   6.300  0.9734  3.4673  1.5061
   35MOL0     H 4672   1.036   7.769   6.282 -0.4709  1.4181 -0.2170
   35MOL0     H 4673   1.135   7.743   6.134 -0.3351 -0.8784 -0.2381
   35MOL0     H 4674   0.933   7.728   5.997 -2.4972  0.0527 -0.8695
   35MOL0     H 4675   0.943   7.878   6.091  2.3176 -1.9396  0.2602
   35MOL0     H 4676   0.750   7.535   6.169  1.4824  0.2901 -0.2370
   35MOL0     H 4677   0.463   7.508   6.212  0.6409 -2.3204  1.4834
   35MOL0     H 4678   0.549   7.520   6.368  0.5622  0.8361  0.2457
   35MOL0     H 4679   0.303   7.657   6.268  0.4480 -1.7492 -0.6103
   35MOL0     H 4680   0.387   7.742   6.399  3.1139 -1.3026  1.9443
   35MOL0     H 4681   0.316   7.444   6.451 -0.9621 -0.8533 -2.2816
   35MOL0     H 4682   0.196   7.583   6.461  0.0523  0.9542  1.1107
   35MOL0     H 4683   0.307   7.681   6.644 -0.1658  0.2396  1.0568
   35MOL0     H 4684   0.459   7.599   6.611 -0.2631 -0.1900 -3.3205
   35MOL0     H 4685   0.193   7.282   6.745  2.5189  2.6494 -2.9507
   35MOL0     H 4686  -0.097   7.197   6.795 -1.1950  1.6187  1.0019
   35MOL0     H 4687   0.063   7.134   6.835  1.8845  3.1438 -1.2131
   35MOL0     H 4688  -0.072   7.182   6.954 -1.8523  1.7024  0.3160
   35MOL0     H 4689  -0.409   7.555   7.040 -1.5570  0.0343  0.0815
   35MOL0     H 4690  -0.586   7.552   7.203 -1.1410  0.0574  0.0161
   35MOL0     H 4691  -0.511   7.437   7.614  1.1576  1.1493  0.5304
   35MOL0     H 4692  -0.518   7.612   7.651  1.0062  2.5207 -3.4130
   35MOL0     H 4693  -0.778   7.588   7.625  0.6959  0.0915  0.7943
   35MOL0     H 4694  -0.742   7.420   7.609  4.5087 -2.2470  0.3146
   35MOL0     H 4695  -0.692   7.589   7.864 -1.3171 -0.2031  0.3332
   35MOL0     H 4696  -0.633   7.413   7.838  0.7269 -0.0499  0.3961
   35MOL0     H 4697  -0.932   7.487   7.811 -1.7271 -2.5445  0.9424
   35MOL0     H 4698  -0.863   7.335   7.853  0.0499 -0.4349 -2.6159
   35MOL0     H 4699  -0.871   7.568   8.045  2.3455  0.7103  0.0326
   35MOL0     H 4700  -0.768   7.414   8.059 -0.8856 -1.9401  0.7219
   35MOL0     H 4701  -1.066   7.444   8.018  0.4732 -0.9288  0.6722
   35MOL0     H 4702  -0.972   7.294   8.038 -1.4717  0.3026  0.8794
   35MOL0     H 4703  -1.032   7.522   8.230  2.5187  1.8474 -1.5755
   35MOL0     H 4704  -0.901   7.416   8.275 -0.9308 -2.2484  0.7633
   35MOL0     H 4705  -1.117   7.337   8.372 -3.2126 -0.6033 -2.2847
   35MOL0     H 4706  -1.023   7.218   8.265 -1.0219 -2.0430 -0.0027
   35MOL0     H 4707  -0.308   7.522   7.526 -0.4869 -1.2347  0.6100
   35MOL0     H 4708  -0.129   7.540   7.373 -1.0122 -0.9720  1.9537
   35MOL0     H 4709  -0.011   7.669   6.954 -2.8395  0.1062 -2.4536
   35MOL0     H 4710   0.187   7.696   6.819  2.5325 -0.3121  2.8770
   35MOL0     H 4711   1.764   7.070   6.462 -1.3335 -2.1767  0.5166
   35MOL0     H 4712   1.952   7.001   6.579 -0.6546 -2.3987  1.0868
   35MOL0     H 4713   2.247   6.726   6.934 -0.8270  0.6636 -0.3637
   35MOL0     H 4714   2.469   6.740   7.009 -0.8550 -0.7211 -1.2325
   35MOL0     H 4715   2.744   7.091   6.912 -1.4445  0.3634 -0.6371
   35MOL0     H 4716   2.624   7.138   7.033 -0.9980 -1.1060  1.7875
   35MOL0     H 4717   2.750   7.019   7.207  0.7651  2.1837  1.5615
   35MOL0     H 4718   2.846   7.150   7.141  0.6151  0.0715 -4.1325
   35MOL0     H 4719   2.963   7.016   6.991  0.9428  0.0717  1.9676
   35MOL0     H 4720   2.890   6.865   7.038 -0.7223  0.2789 -1.1539
   35MOL0     H 4721   3.096   7.045   7.169  2.0646 -1.2988  2.3551
   35MOL0     H 4722   3.100   6.879   7.134  2.5460  0.8302  2.2189
   35MOL0     H 4723   2.939   6.856   7.523  1.2226 -1.1940 -0.0901
   35MOL0     H 4724   2.501   7.141   6.869  0.8544 -0.3817 -0.2578
   35MOL0     H 4725   2.244   7.127   6.841  2.7249 -0.6580 -5.9250
   36MOL0     O 4726   8.819   8.341  10.979 -0.3484  0.3191 -0.3770
   36MOL0     C 4727   8.801   8.368  10.862  0.0917  0.1427 -0.7394
   36MOL0     O 4728   8.677   8.364  10.798 -0.4998  0.5269  0.0746
   36MOL0     C 4729   8.562   8.340  10.862  0.0771 -0.7433  0.5599
   36MOL0     C 4730   8.540   8.361  11.000  0.3221  0.3801 -0.0153
   36MOL0     C 4731   8.420   8.341  11.061  0.2538 -0.0642  0.0965
   36MOL0     C 4732   8.321   8.280  10.978 -0.1577  0.1528  0.5728
   36MOL0     O 4733   8.196   8.265  11.031 -0.1052  0.7087 -0.3569
   36MOL0     C 4734   8.190   8.185  11.150 -1.2002 -1.1654 -0.7600
   36MOL0     C 4735   8.190   8.035  11.116  0.1565 -1.2071 -1.2307
   36MOL0     C 4736   8.329   7.970  11.117 -0.1752  0.0767  0.0818
   36MOL0     C 4737   8.304   7.816  11.103 -0.4393 -0.7410 -0.1385
   36MOL0     C 4738   8.421   7.741  11.062  0.3550  0.1724  0.1785
   36MOL0     C 4739   8.464   7.770  10.919  0.9563 -0.1688  0.6386
   36MOL0     C 4740   8.533   7.648  10.857 -0.7234  1.0180  0.8380
   36MOL0     C 4741   8.615   7.689  10.729 -0.3551  0.2067  0.3389
   36MOL0     N 4742   8.528   7.761  10.629 -0.5803 -0.0492 -0.4035
   36MOL0     C 4743   8.502   7.901  10.621  0.1137 -0.4122  0.0244
   36MOL0     C 4744   8.433   7.908  10.498 -0.4552  0.4409 -0.2272
   36MOL0     C 4745   8.394   8.049  10.445 -0.5489  0.4404  0.0093
   36MOL0     C 4746   8.241   8.085  10.452 -0.4132 -0.2496 -0.3915
   36MOL0     C 4747   8.144   7.992  10.387 -0.3069  0.3284  0.3870
   36MOL0     C 4748   8.012   8.053  10.335  0.0249 -0.0707 -0.2047
   36MOL0     O 4749   8.030   8.157  10.242 -0.2718  0.1450  0.0324
   36MOL0     C 4750   7.931   8.251  10.233 -0.5185 -0.2037 -0.6289
   36MOL0     C 4751   7.800   8.232  10.230  0.2801  1.0746 -0.1796
   36MOL0     C 4752   7.705   8.341  10.224  0.4109  0.8173  0.2697
   36MOL0     C 4753   7.557   8.305  10.213 -0.2980  0.5521 -0.4693
   36MOL0     C 4754   7.754   8.467  10.219 -0.6686 -0.0784  0.4344
   36MOL0     C 4755   7.667   8.587  10.202 -1.0105  0.6037 -0.5172
   36MOL0     O 4756   7.681   8.682  10.303  0.0620  0.3253  0.8166
   36MOL0     C 4757   7.626   8.800  10.285 -0.2602 -0.5481  0.0488
   36MOL0     C 4758   7.693   8.886  10.202  0.0221 -0.0092  0.2241
   36MOL0     C 4759   7.645   9.018  10.171 -0.0521  0.5285  0.4712
   36MOL0     C 4760   7.520   9.056  10.230  0.1123 -0.2025 -0.4024
   36MOL0     O 4761   7.464   9.178  10.225 -0.7864 -0.6774 -0.1105
   36MOL0     C 4762   7.502   9.275  10.131 -0.1853 -0.5997  0.6090
   36MOL0     C 4763   7.399   9.391  10.148  0.1868  0.5970 -0.3646
   36MOL0     C 4764   7.410   9.475  10.269 -0.3423 -0.1157  0.1776
   36MOL0     C 4765   7.317   9.603  10.241  0.2527 -0.0121  0.1566
   36MOL0     C 4766   7.319   9.712  10.350 -0.6631 -0.2231 -0.2043
   36MOL0     C 4767   7.228   9.677  10.473  0.1466  0.7369  0.0572
   36MOL0     C 4768   7.212   9.787  10.574  0.3970 -0.5532 -0.4123
   36MOL0     C 4769   7.340   9.810  10.655  0.9194 -0.6160  0.3455
   36MOL0    Cl 4770   7.327   9.940  10.765  0.1670 -0.0812  0.0610
   36MOL0     C 4771   7.459   8.959  10.315  0.2839 -0.0702  1.0037
   36MOL0     C 4772   7.513   8.836  10.337 -1.0599 -0.0658  0.3105
   36MOL0     O 4773   7.588   8.602  10.103  0.6238 -0.4704 -0.0988
   36MOL0     C 4774   7.886   8.487  10.250 -1.6152  0.2407  0.1581
   36MOL0     C 4775   7.981   8.381  10.232  0.1400  0.2534 -0.2191
   36MOL0     N 4776   8.422   7.787  10.443  0.4623  0.9865 -0.5547
   36MOL0     N 4777   8.471   7.696  10.522  0.2976  0.6479 -0.2297
   36MOL0     C 4778   8.348   8.259  10.839  0.5473 -0.1530  0.0944
   36MOL0     C 4779   8.469   8.285  10.781  0.0688  0.2045  0.1538
   36MOL0     C 4780   8.911   8.381  10.769 -0.8630 -0.3302 -0.0418
   36MOL0     C 4781   8.882   8.423  10.635  0.2738  0.2474 -1.1684
   36MOL0     C 4782   8.986   8.436  10.541  0.6528 -0.1309 -0.5069
   36MOL0     C 4783   9.112   8.419  10.582 -0.9063  0.1540  0.1628
   36MOL0     O 4784   9.195   8.426  10.475  0.2515 -0.2542 -0.0443
   36MOL0     C 4785   9.317   8.496  10.498 -0.0352 -0.1544  0.4037
   36MOL0     C 4786   9.393   8.523  10.363  0.4849 -0.0938  0.6876
   36MOL0     C 4787   9.442   8.384  10.310  0.2868  0.3575  0.4470
   36MOL0     C 4788   9.561   8.334  10.389  0.2773  0.0008  0.8695
   36MOL0     C 4789   9.585   8.193  10.362 -0.4354  0.3326  0.6774
   36MOL0     C 4790   9.618   8.082  10.321  0.0543  0.3032  0.3972
   36MOL0     C 4791   9.142   8.382  10.712 -0.4973 -0.3135  0.3727
   36MOL0     C 4792   9.041   8.367  10.806 -0.5358  0.0812 -0.4225
   36MOL0     H 4793   8.621   8.401  11.061  0.4084  1.4235 -0.7791
   36MOL0     H 4794   8.406   8.373  11.164  2.1979  3.1052 -0.5051
   36MOL0     H 4795   8.276   8.199  11.216 -0.1165 -0.6735 -2.2202
   36MOL0     H 4796   8.099   8.214  11.204 -0.6827  0.0141 -0.5013
   36MOL0     H 4797   8.134   7.988  11.198 -3.1169  1.4664 -1.6811
   36MOL0     H 4798   8.126   8.019  11.029 -0.1640 -1.3106 -0.9779
   36MOL0     H 4799   8.395   8.007  11.038  1.6656  0.1702  1.6045
   36MOL0     H 4800   8.370   7.992  11.216  1.9254 -0.9470 -0.5047
   36MOL0     H 4801   8.272   7.772  11.198 -0.1396  1.8939  1.2597
   36MOL0     H 4802   8.220   7.799  11.035  0.1906 -0.3407 -1.0349
   36MOL0     H 4803   8.516   7.769  11.110  0.4667 -1.7100  1.1235
   36MOL0     H 4804   8.396   7.637  11.084 -0.0702 -0.1967 -1.8967
   36MOL0     H 4805   8.380   7.804  10.858  0.4655 -1.4742  0.5660
   36MOL0     H 4806   8.533   7.854  10.907  0.3849  0.0816 -1.2642
   36MOL0     H 4807   8.597   7.594  10.927 -1.9391 -0.9932  0.4677
   36MOL0     H 4808   8.449   7.580  10.841  0.4795 -1.4064  3.8715
   36MOL0     H 4809   8.641   7.598  10.674  1.3806  0.7573  0.1988
   36MOL0     H 4810   8.704   7.745  10.758  0.3082  0.5224 -2.1326
   36MOL0     H 4811   8.533   7.989  10.678 -4.9037  0.2807  2.1730
   36MOL0     H 4812   8.444   8.130  10.499  0.0439  0.4780 -0.5773
   36MOL0     H 4813   8.420   8.055  10.339  1.9096  1.3184  0.6012
   36MOL0     H 4814   8.234   8.179  10.396  0.6817 -0.1094 -0.3188
   36MOL0     H 4815   8.222   8.097  10.559  1.1944 -1.2809  0.0572
   36MOL0     H 4816   8.124   7.904  10.448 -3.0979  0.6023  0.0185
   36MOL0     H 4817   8.195   7.954  10.297 -0.1479 -1.0251  1.0185
   36MOL0     H 4818   7.961   8.087  10.426  1.0716 -1.1308  0.8156
   36MOL0     H 4819   7.956   7.971  10.290 -0.2140 -0.3585  0.6013
   36MOL0     H 4820   7.754   8.134  10.241  3.0990 -0.0433  3.6740
   36MOL0     H 4821   7.498   8.386  10.258  0.5493 -0.2984  2.3692
   36MOL0     H 4822   7.521   8.285  10.111 -0.2312  0.6968 -0.5232
   36MOL0     H 4823   7.549   8.215  10.274  2.0883  1.4875  1.4061
   36MOL0     H 4824   7.784   8.857  10.150  0.2687  2.0920 -0.6150
   36MOL0     H 4825   7.698   9.085  10.105 -2.8740  2.0754 -0.4063
   36MOL0     H 4826   7.606   9.308  10.128  0.2131 -1.8164  0.4970
   36MOL0     H 4827   7.483   9.246  10.028 -0.0898 -1.5659  0.8518
   36MOL0     H 4828   7.411   9.461  10.065  1.8869  2.6118  1.4607
   36MOL0     H 4829   7.298   9.349  10.149  0.5481 -0.3625  2.2184
   36MOL0     H 4830   7.512   9.514  10.271 -0.3553 -0.0922  0.3993
   36MOL0     H 4831   7.383   9.436  10.368 -0.0930  0.4102  0.4540
   36MOL0     H 4832   7.348   9.662  10.154  3.7304  1.3314  2.0888
   36MOL0     H 4833   7.217   9.562  10.227  0.9486 -0.7989 -3.1641
   36MOL0     H 4834   7.271   9.802  10.309 -0.8830 -0.0892  0.3449
   36MOL0     H 4835   7.422   9.728  10.383 -0.1173 -2.3199 -0.7392
   36MOL0     H 4836   7.127   9.648  10.442  0.4819 -1.5696  0.9369
   36MOL0     H 4837   7.277   9.593  10.522 -1.5157  1.8519  4.0475
   36MOL0     H 4838   7.130   9.763  10.643  1.5873 -1.8957  0.5972
   36MOL0     H 4839   7.171   9.877  10.527 -0.6252  1.3186  3.6134
   36MOL0     H 4840   7.425   9.835  10.589  0.1069 -0.4643 -0.6746
   36MOL0     H 4841   7.358   9.720  10.715 -0.1216 -2.5443 -2.0399
   36MOL0     H 4842   7.357   8.981  10.346  0.0666  1.0227 -0.3869
   36MOL0     H 4843   7.450   8.766  10.391 -0.0601 -1.3318 -0.1247
   36MOL0     H 4844   7.926   8.586  10.267  1.7675 -1.1519  1.2859
   36MOL0     H 4845   8.088   8.382  10.250  0.2510 -2.2728 -0.3708
   36MOL0     H 4846   8.273   8.218  10.773  2.0511  1.0562 -2.5191
   36MOL0     H 4847   8.497   8.251  10.682 -0.2060 -1.4022  0.5951
   36MOL0     H 4848   8.779   8.448  10.609 -0.4221  1.4638  2.1216
   36MOL0     H 4849   8.954   8.467  10.442 -0.8332 -1.2066 -0.3953
   36MOL0     H 4850   9.292   8.598  10.531  1.8292  0.7439 -0.7836
   36MOL0     H 4851   9.381   8.448  10.572 -1.4985 -1.1653  1.0793
   36MOL0     H 4852   9.470   8.599  10.380  0.3742  0.7875 -2.1045
   36MOL0     H 4853   9.316   8.569  10.299  1.2963 -0.2919 -0.4747
   36MOL0     H 4854   9.476   8.389  10.206 -1.9142  3.4088 -0.2676
   36MOL0     H 4855   9.359   8.314  10.323 -0.3253  1.0970  0.6350
   36MOL0     H 4856   9.545   8.332  10.498  0.5219 -0.5082  0.8977
   36MOL0     H 4857   9.642   8.399  10.358  0.7435 -1.3666 -0.9507
   36MOL0     H 4858   9.658   7.996  10.270  1.3478  1.2611 -0.2673
   36MOL0     H 4859   9.242   8.359  10.747 -0.6518  1.2144  1.9510
   36MOL0     H 4860   9.061   8.342  10.909 -2.2709  1.2500  0.2295
   37MOL0     O 4861   5.481   7.690   9.133 -0.1172  0.8793 -0.7481
   37MOL0     C 4862   5.502   7.597   9.056 -0.6275 -0.0200 -0.6083
   37MOL0     O 4863   5.602   7.499   9.083  0.1432 -0.2477 -0.3606
   37MOL0     C 4864   5.679   7.524   9.192 -0.3507  0.2276 -0.2830
   37MOL0     C 4865   5.751   7.646   9.215  0.4799  0.0609 -0.4998
   37MOL0     C 4866   5.844   7.646   9.322 -0.1821  0.6871  0.4826
   37MOL0     C 4867   5.872   7.534   9.396  0.2654 -0.0612 -0.7358
   37MOL0     O 4868   5.943   7.539   9.505 -0.1045  0.5659 -0.7078
   37MOL0     C 4869   6.064   7.615   9.499  0.2051 -0.0964  0.3891
   37MOL0     C 4870   6.152   7.595   9.618  0.7997 -0.2225 -0.6650
   37MOL0     C 4871   6.116   7.698   9.726 -0.4441 -0.5301  0.0358
   37MOL0     C 4872   6.206   7.666   9.846 -0.6706 -0.0722  0.0779
   37MOL0     C 4873   6.177   7.741   9.979  0.1430 -0.8663  0.6298
   37MOL0     C 4874   6.028   7.736  10.028  0.5226  0.9239 -0.3418
   37MOL0     C 4875   5.989   7.589  10.051  0.9337  0.3765 -0.6951
   37MOL0     C 4876   5.848   7.576  10.102  0.9043  0.0682 -0.1943
   37MOL0     N 4877   5.814   7.434  10.119 -0.4758 -0.0516 -0.2336
   37MOL0     C 4878   5.693   7.380  10.078  0.0259  0.9922  0.6857
   37MOL0     C 4879   5.686   7.256  10.142  0.2240 -0.1478 -1.5218
   37MOL0     C 4880   5.561   7.171  10.178 -1.2285  0.3759  0.1623
   37MOL0     C 4881   5.448   7.180  10.073  0.1662 -0.3507  1.5004
   37MOL0     C 4882   5.352   7.068  10.082  0.2240  0.2173 -0.1686
   37MOL0     C 4883   5.217   7.098  10.001  0.1247 -0.0204 -0.0126
   37MOL0     O 4884   5.131   7.183  10.083 -0.0249  0.5098  0.2948
   37MOL0     C 4885   5.024   7.219  10.007  0.3540 -0.2527 -0.0427
   37MOL0     C 4886   5.028   7.297   9.889 -0.4550 -0.0084 -0.6001
   37MOL0     C 4887   4.914   7.337   9.819 -0.1887 -0.8140  0.5479
   37MOL0     C 4888   4.935   7.420   9.693  0.4056  0.1529  0.1861
   37MOL0     C 4889   4.788   7.303   9.879 -0.2341 -0.6689 -0.0144
   37MOL0     C 4890   4.652   7.331   9.810  0.0919  0.2336 -0.1992
   37MOL0     O 4891   4.537   7.307   9.884  0.1898 -0.1331 -0.8384
   37MOL0     C 4892   4.440   7.401   9.872  0.7269  0.0943  0.4546
   37MOL0     C 4893   4.468   7.536   9.894  0.2419 -0.2492  0.4629
   37MOL0     C 4894   4.363   7.630   9.875  0.4656 -0.0803  1.0436
   37MOL0     C 4895   4.230   7.583   9.845 -1.3698 -0.5971 -0.3677
   37MOL0     O 4896   4.134   7.667   9.808 -0.3640  0.1294  0.0722
   37MOL0     C 4897   4.174   7.787   9.740 -0.8623 -0.0771 -0.0769
   37MOL0     C 4898   4.052   7.850   9.691  0.7073 -0.1302  0.6450
   37MOL0     C 4899   4.083   7.982   9.617  0.0961 -0.5361  0.8153
   37MOL0     C 4900   3.960   8.044   9.567  0.5063  0.7086  0.5141
   37MOL0     C 4901   3.965   8.122   9.439  0.0236 -0.3327 -0.0459
   37MOL0     C 4902   3.845   8.217   9.442 -0.6642  0.2615 -1.0582
   37MOL0     C 4903   3.824   8.305   9.322 -0.5038  0.5003  0.0884
   37MOL0     C 4904   3.733   8.422   9.354 -0.3441  0.0105  0.0770
   37MOL0    Cl 4905   3.821   8.545   9.441 -0.1509 -0.2846  0.2070
   37MOL0     C 4906   4.206   7.452   9.826 -0.2000  0.7427 -0.6830
   37MOL0     C 4907   4.310   7.356   9.838 -0.1698 -0.0885 -0.7048
   37MOL0     O 4908   4.648   7.365   9.694 -0.1694 -0.7604  0.0392
   37MOL0     C 4909   4.791   7.252  10.014  0.0928 -0.0422  0.3337
   37MOL0     C 4910   4.906   7.209  10.077 -0.0224 -1.0736  0.1387
   37MOL0     N 4911   5.818   7.233  10.196  0.5108 -0.6354  0.2838
   37MOL0     N 4912   5.893   7.342  10.190  0.9377 -0.5546  0.6244
   37MOL0     C 4913   5.801   7.417   9.372  0.0217  0.3125 -0.9561
   37MOL0     C 4914   5.705   7.404   9.268  0.4478 -0.2873 -0.2734
   37MOL0     C 4915   5.429   7.584   8.929 -1.2096 -0.1981 -0.4519
   37MOL0     C 4916   5.362   7.697   8.874 -0.7518  0.1410  0.5241
   37MOL0     C 4917   5.306   7.693   8.748 -0.7398  0.9241  0.6249
   37MOL0     C 4918   5.317   7.573   8.673  0.5368  0.2755 -0.2548
   37MOL0     O 4919   5.273   7.575   8.538 -0.2450  0.0941  0.2589
   37MOL0     C 4920   5.254   7.453   8.465 -0.2239  0.7754 -0.3925
   37MOL0     C 4921   5.370   7.414   8.371  0.3374 -0.3632 -1.2928
   37MOL0     C 4922   5.396   7.528   8.277 -0.2034 -0.1899  0.3924
   37MOL0     C 4923   5.308   7.514   8.148 -0.2392  0.1265 -0.6199
   37MOL0     C 4924   5.357   7.390   8.077 -0.8711 -0.8228 -0.2479
   37MOL0     C 4925   5.392   7.289   8.020  0.1876  0.3187  0.5120
   37MOL0     C 4926   5.379   7.460   8.734  0.9333  0.3176 -0.2879
   37MOL0     C 4927   5.442   7.467   8.860  0.1165 -0.0273  0.7580
   37MOL0     H 4928   5.728   7.730   9.150 -0.2936  1.5809  1.6425
   37MOL0     H 4929   5.890   7.744   9.329 -1.6850  1.3211  2.2606
   37MOL0     H 4930   6.125   7.588   9.412 -1.8988 -0.4946 -1.0421
   37MOL0     H 4931   6.028   7.718   9.495  0.2859 -0.0682  0.3711
   37MOL0     H 4932   6.140   7.495   9.661 -2.9358  1.0895  1.8582
   37MOL0     H 4933   6.256   7.616   9.591  1.6830 -0.5597  2.1217
   37MOL0     H 4934   6.132   7.799   9.687 -0.8590 -1.0195 -1.4665
   37MOL0     H 4935   6.011   7.699   9.758  0.0061 -1.5718  1.6393
   37MOL0     H 4936   6.187   7.561   9.867  3.2958 -0.9829 -0.0393
   37MOL0     H 4937   6.313   7.665   9.821 -0.5464 -0.6222  0.6222
   37MOL0     H 4938   6.250   7.694  10.047 -1.8497 -0.4151  3.2180
   37MOL0     H 4939   6.206   7.845   9.965  0.8887 -1.2812 -1.2600
   37MOL0     H 4940   6.010   7.794  10.119  0.3911  1.4884 -0.7280
   37MOL0     H 4941   5.961   7.778   9.953  0.2449  2.0603  0.5133
   37MOL0     H 4942   5.988   7.531   9.959 -0.1791  0.2671 -0.6221
   37MOL0     H 4943   6.051   7.544  10.129 -0.4887  0.5027  0.5472
   37MOL0     H 4944   5.777   7.604  10.024 -0.5873  0.3575  1.2213
   37MOL0     H 4945   5.813   7.614  10.198 -0.7810 -3.8153  0.9303
   37MOL0     H 4946   5.611   7.418  10.017 -1.4706 -1.7366  0.8088
   37MOL0     H 4947   5.596   7.068  10.185 -1.0160  0.5272  1.7395
   37MOL0     H 4948   5.516   7.199  10.274 -0.8767 -1.4490  0.8905
   37MOL0     H 4949   5.485   7.193   9.971 -1.6668  1.2664  0.9765
   37MOL0     H 4950   5.402   7.277  10.094  0.3406  0.3868 -1.1335
   37MOL0     H 4951   5.320   7.061  10.187  1.4461  0.1371  0.2120
   37MOL0     H 4952   5.400   6.979  10.040  0.1267 -0.1072  0.3906
   37MOL0     H 4953   5.162   7.003   9.996  0.1549  0.0132 -1.2743
   37MOL0     H 4954   5.232   7.138   9.901 -1.5645 -0.5263 -0.4995
   37MOL0     H 4955   5.120   7.339   9.849 -0.8914  2.0292  0.3770
   37MOL0     H 4956   5.022   7.484   9.711 -0.1913  1.7161 -2.0027
   37MOL0     H 4957   4.949   7.351   9.609  3.2269  1.0043 -0.1559
   37MOL0     H 4958   4.855   7.492   9.674  0.3759  0.2464  0.6687
   37MOL0     H 4959   4.566   7.561   9.935 -0.4198  0.6668  1.5521
   37MOL0     H 4960   4.393   7.734   9.883  2.8806 -0.4479 -1.5677
   37MOL0     H 4961   4.239   7.852   9.799  0.6636 -0.7852 -0.9249
   37MOL0     H 4962   4.233   7.761   9.652  0.6685  1.2477  0.5151
   37MOL0     H 4963   4.007   7.783   9.618  2.4359 -1.6612  0.8967
   37MOL0     H 4964   3.983   7.867   9.775  0.4908  4.0075 -0.1637
   37MOL0     H 4965   4.155   7.973   9.535 -2.9312  4.1085 -2.9549
   37MOL0     H 4966   4.136   8.058   9.675 -0.1972  1.9376 -1.9310
   37MOL0     H 4967   3.886   7.965   9.553 -0.8324  2.1297 -0.8258
   37MOL0     H 4968   3.926   8.108   9.649  3.9071  1.7833  1.2592
   37MOL0     H 4969   3.974   8.057   9.351  3.0094 -1.5691  1.0392
   37MOL0     H 4970   4.050   8.190   9.436  0.6962 -1.1228 -3.1480
   37MOL0     H 4971   3.765   8.142   9.450  1.2197 -2.0791 -2.8920
   37MOL0     H 4972   3.840   8.279   9.533  2.3232 -0.2972 -0.4247
   37MOL0     H 4973   3.771   8.247   9.245 -1.6671 -0.4698  1.5725
   37MOL0     H 4974   3.913   8.338   9.267 -0.8773  0.0053 -0.8348
   37MOL0     H 4975   3.637   8.409   9.405 -0.6571  0.2440 -0.4433
   37MOL0     H 4976   3.713   8.471   9.258 -2.7374  1.1020  1.0641
   37MOL0     H 4977   4.102   7.427   9.809 -0.4935  1.4719 -0.0094
   37MOL0     H 4978   4.298   7.249   9.826  2.4950 -0.0845 -5.8700
   37MOL0     H 4979   4.704   7.236  10.077  1.3043 -2.1218  1.5857
   37MOL0     H 4980   4.904   7.161  10.175  1.2269  0.3014  0.8910
   37MOL0     H 4981   5.811   7.346   9.454  0.6982 -0.2372 -1.5015
   37MOL0     H 4982   5.655   7.307   9.268  0.6053 -0.3728 -1.0996
   37MOL0     H 4983   5.378   7.792   8.924 -2.8123  1.5317 -1.2942
   37MOL0     H 4984   5.251   7.772   8.696 -0.9301  0.1655 -0.3654
   37MOL0     H 4985   5.241   7.368   8.532 -1.2748  0.6188 -0.7758
   37MOL0     H 4986   5.168   7.474   8.400  2.0712  2.0219 -3.3201
   37MOL0     H 4987   5.346   7.318   8.325 -0.8729  0.6742 -2.9213
   37MOL0     H 4988   5.460   7.412   8.433 -0.1043  0.7111 -0.5794
   37MOL0     H 4989   5.500   7.526   8.244 -0.5445 -0.8381 -0.6526
   37MOL0     H 4990   5.373   7.621   8.330  1.4046 -0.3101  1.3884
   37MOL0     H 4991   5.330   7.597   8.080  2.3367 -0.5684 -0.7495
   37MOL0     H 4992   5.201   7.504   8.167  0.2683  0.9501  3.7733
   37MOL0     H 4993   5.429   7.207   7.963  0.9561  3.9640 -4.9780
   37MOL0     H 4994   5.365   7.364   8.684 -1.0504  1.2845 -1.7502
   37MOL0     H 4995   5.501   7.388   8.906  0.0411 -0.2846  0.4210
   38MOL0     O 4996   1.121   1.090   9.047 -0.2637 -0.7036  0.2862
   38MOL0     C 4997   1.149   1.058   8.934 -0.2551 -0.0762  0.2598
   38MOL0     O 4998   1.273   1.051   8.877 -0.0621 -0.7039 -0.5382
   38MOL0     C 4999   1.372   1.082   8.966 -0.7668 -0.2481  0.3490
   38MOL0     C 5000   1.424   1.212   8.960  0.0143  0.1914  0.3111
   38MOL0     C 5001   1.527   1.257   9.034  0.0331 -0.0534 -0.3927
   38MOL0     C 5002   1.573   1.180   9.148 -0.6068 -0.7380  0.7752
   38MOL0     O 5003   1.657   1.243   9.231 -0.1993 -0.8957 -0.2066
   38MOL0     C 5004   1.725   1.179   9.345  0.1511 -0.0903  0.0492
   38MOL0     C 5005   1.622   1.208   9.466 -0.8039  0.4415  0.4576
   38MOL0     C 5006   1.682   1.144   9.589  0.3484 -0.0995 -0.2765
   38MOL0     C 5007   1.613   1.008   9.611  0.9938  0.2627 -0.4584
   38MOL0     C 5008   1.657   0.949   9.754  0.0537 -0.8467 -0.5336
   38MOL0     C 5009   1.807   0.927   9.748  0.8924  0.4921  0.4071
   38MOL0     C 5010   1.862   0.850   9.862  0.3719  0.4074  0.0951
   38MOL0     C 5011   1.881   0.927   9.993  0.4082  0.0570 -0.6933
   38MOL0     N 5012   1.760   0.971  10.059  0.2928 -0.9092 -0.8227
   38MOL0     C 5013   1.644   0.907  10.101  0.6659 -0.3686 -0.3279
   38MOL0     C 5014   1.557   1.006  10.114 -0.5745 -0.0148 -0.0352
   38MOL0     C 5015   1.409   0.990  10.138  0.5487  1.0956 -0.5690
   38MOL0     C 5016   1.383   0.948  10.281 -0.0567 -0.0250  0.4069
   38MOL0     C 5017   1.235   0.939  10.320 -0.1511  1.4596  0.4896
   38MOL0     C 5018   1.207   0.897  10.463  0.4408 -0.7775 -0.6989
   38MOL0     O 5019   1.068   0.914  10.499  0.2088 -0.1288 -0.5531
   38MOL0     C 5020   1.039   0.896  10.630 -0.0144  1.1028 -0.7255
   38MOL0     C 5021   1.121   0.868  10.744 -0.1377  0.2358  0.2682
   38MOL0     C 5022   1.083   0.859  10.875  0.9400 -0.7280 -0.1225
   38MOL0     C 5023   1.188   0.851  10.975  0.2572  0.5646  0.0366
   38MOL0     C 5024   0.951   0.848  10.894  1.3315  0.8687  0.8120
   38MOL0     C 5025   0.884   0.808  11.021  0.3267  0.2428  0.1073
   38MOL0     O 5026   0.756   0.835  11.050  0.2245 -0.6509  0.3671
   38MOL0     C 5027   0.674   0.737  11.098  0.0568  0.7962  0.5985
   38MOL0     C 5028   0.562   0.782  11.162  0.2312 -1.1153 -0.2216
   38MOL0     C 5029   0.461   0.702  11.211 -0.2527 -0.5932  0.1167
   38MOL0     C 5030   0.478   0.567  11.208  0.5374  0.3861  0.4392
   38MOL0     O 5031   0.385   0.495  11.274 -0.2103  0.3737  0.5195
   38MOL0     C 5032   0.421   0.369  11.334  0.0519 -0.0768  0.5879
   38MOL0     C 5033   0.314   0.319  11.422  0.1316  0.3331 -0.7955
   38MOL0     C 5034   0.297   0.387  11.552  0.8565 -0.7930  0.0934
   38MOL0     C 5035   0.231   0.527  11.527 -0.4251 -0.9023 -0.9763
   38MOL0     C 5036   0.210   0.601  11.670 -0.4604 -0.2378  0.2397
   38MOL0     C 5037   0.144   0.740  11.630 -0.2830 -0.0396  1.2448
   38MOL0     C 5038   0.153   0.842  11.743  0.3505  0.5931  0.0625
   38MOL0     C 5039   0.087   0.982  11.715  0.1617 -0.1628 -0.0832
   38MOL0    Cl 5040  -0.087   0.967  11.689 -0.4782  0.1871  0.3062
   38MOL0     C 5041   0.597   0.511  11.152 -0.3764 -0.4595  0.2162
   38MOL0     C 5042   0.681   0.603  11.088  0.3107 -0.3066 -0.1370
   38MOL0     O 5043   0.946   0.727  11.083 -0.4922 -0.5520 -0.1694
   38MOL0     C 5044   0.863   0.862  10.784  0.8130 -0.0583 -0.4829
   38MOL0     C 5045   0.901   0.911  10.660 -0.4481  0.5310 -0.7403
   38MOL0     N 5046   1.608   1.126  10.088 -0.0121 -0.9346 -0.6638
   38MOL0     N 5047   1.729   1.103  10.049 -0.0140  0.7039  0.5846
   38MOL0     C 5048   1.527   1.047   9.154  0.7498  0.4834 -0.1327
   38MOL0     C 5049   1.430   1.000   9.065  0.5325  0.8607 -0.0949
   38MOL0     C 5050   1.047   1.000   8.849  0.1320  0.0939  0.4261
   38MOL0     C 5051   0.916   0.989   8.894  0.2309 -1.1643 -1.1312
   38MOL0     C 5052   0.819   0.921   8.824 -0.5289 -0.4252  0.7663
   38MOL0     C 5053   0.845   0.880   8.691  0.9531  0.6583 -0.3525
   38MOL0     O 5054   0.765   0.807   8.609  0.0542  0.1007  0.2707
   38MOL0     C 5055   0.649   0.747   8.644  0.4334 -0.3178  0.4676
   38MOL0     C 5056   0.663   0.627   8.740 -1.1340 -1.5977 -0.1647
   38MOL0     C 5057   0.789   0.545   8.702  0.0863  0.3834  0.1762
   38MOL0     C 5058   0.787   0.466   8.569  0.4963  1.0037  0.1482
   38MOL0     C 5059   0.663   0.383   8.566  0.2859 -0.6375  0.6990
   38MOL0     C 5060   0.565   0.307   8.569 -0.0429  1.2202  0.6075
   38MOL0     C 5061   0.972   0.902   8.641 -0.0428 -0.2802 -1.0644
   38MOL0     C 5062   1.076   0.958   8.719  0.0279 -0.1154 -0.2945
   38MOL0     H 5063   1.387   1.275   8.880  1.2390 -1.5617 -1.7255
   38MOL0     H 5064   1.572   1.353   9.012  2.6625 -1.6850 -2.7291
   38MOL0     H 5065   1.751   1.076   9.321  1.9301 -0.1016  1.7950
   38MOL0     H 5066   1.823   1.224   9.365  0.5911 -1.2395  0.5080
   38MOL0     H 5067   1.625   1.316   9.483  2.6114  0.4805  0.2181
   38MOL0     H 5068   1.520   1.173   9.446  0.0574 -1.4423 -0.9518
   38MOL0     H 5069   1.787   1.118   9.574  0.3722 -0.1538 -0.0240
   38MOL0     H 5070   1.653   1.214   9.669 -0.9212 -2.2883  1.2874
   38MOL0     H 5071   1.505   1.012   9.594  1.3207  1.3296 -2.5727
   38MOL0     H 5072   1.648   0.941   9.532  0.7037 -0.3241 -0.0994
   38MOL0     H 5073   1.622   1.026   9.822 -5.4131 -1.2801 -2.4047
   38MOL0     H 5074   1.596   0.859   9.764 -0.7696 -0.3787 -1.1794
   38MOL0     H 5075   1.841   0.880   9.656 -2.8803  2.1900 -2.1216
   38MOL0     H 5076   1.855   1.025   9.748  2.5111 -0.2650 -0.7225
   38MOL0     H 5077   1.804   0.760   9.886  0.5173 -0.9234 -3.9139
   38MOL0     H 5078   1.955   0.809   9.823  0.6340 -0.0908  1.1881
   38MOL0     H 5079   1.947   1.012   9.975  1.5217 -1.0348 -2.0723
   38MOL0     H 5080   1.926   0.859  10.066 -0.7697 -0.6933 -0.6381
   38MOL0     H 5081   1.633   0.799  10.108 -0.6789 -0.1213  2.2908
   38MOL0     H 5082   1.343   1.071  10.106 -1.4083 -0.0290  0.4165
   38MOL0     H 5083   1.370   0.907  10.078  2.2753 -0.5385  0.4580
   38MOL0     H 5084   1.421   1.016  10.357  0.9033 -0.7187  0.5585
   38MOL0     H 5085   1.443   0.857  10.283  0.4124  0.2511 -0.3758
   38MOL0     H 5086   1.187   0.862  10.259  0.9025  1.3901 -0.2779
   38MOL0     H 5087   1.185   1.035  10.302 -3.3146 -0.3822 -1.8236
   38MOL0     H 5088   1.267   0.964  10.524 -0.1126 -1.7784  1.0169
   38MOL0     H 5089   1.239   0.793  10.476  0.4097 -1.0282 -2.4432
   38MOL0     H 5090   1.229   0.871  10.729  0.0026 -0.3650  1.1014
   38MOL0     H 5091   1.252   0.762  10.969  0.7429  0.9077  0.1348
   38MOL0     H 5092   1.260   0.931  10.958  2.1330 -1.0227  0.1570
   38MOL0     H 5093   1.151   0.861  11.077 -0.5345  0.9834 -0.2841
   38MOL0     H 5094   0.547   0.889  11.176  1.1835 -0.7721 -1.4846
   38MOL0     H 5095   0.376   0.751  11.257 -0.8624  0.4347 -2.0177
   38MOL0     H 5096   0.427   0.298  11.251 -2.8729  0.4216 -0.1419
   38MOL0     H 5097   0.519   0.366  11.383 -0.6106  1.1021  2.0589
   38MOL0     H 5098   0.221   0.330  11.367 -0.8214  1.8618  0.9973
   38MOL0     H 5099   0.343   0.217  11.450  1.2952  0.6595 -0.7582
   38MOL0     H 5100   0.392   0.385  11.607  1.8041  0.7430 -1.3691
   38MOL0     H 5101   0.219   0.340  11.612 -0.4717  1.1602 -0.0101
   38MOL0     H 5102   0.303   0.591  11.476 -2.0228  1.4787 -0.4404
   38MOL0     H 5103   0.146   0.519  11.458 -0.1763  1.1838 -1.5841
   38MOL0     H 5104   0.311   0.603  11.713 -0.6862 -0.9283  0.8326
   38MOL0     H 5105   0.146   0.549  11.742 -1.7394  1.1654  0.1444
   38MOL0     H 5106   0.201   0.780  11.546  4.0698 -1.4397  3.2858
   38MOL0     H 5107   0.039   0.727  11.599 -0.9652  2.4294  2.2935
   38MOL0     H 5108   0.258   0.865  11.764  0.1045  1.3690  0.4344
   38MOL0     H 5109   0.117   0.791  11.833  4.4593 -2.2932  0.3377
   38MOL0     H 5110   0.132   1.029  11.626 -0.9795  1.2636  0.0595
   38MOL0     H 5111   0.105   1.048  11.800 -2.8172  0.8455 -0.1348
   38MOL0     H 5112   0.610   0.404  11.139 -2.8009 -0.6537 -1.3274
   38MOL0     H 5113   0.767   0.560  11.038  1.2401  0.0607  1.1193
   38MOL0     H 5114   0.761   0.833  10.806  0.8960 -1.8586 -2.1476
   38MOL0     H 5115   0.829   0.922  10.580 -0.4238  0.5941 -0.7532
   38MOL0     H 5116   1.566   0.982   9.232  1.5212  0.0882 -0.8219
   38MOL0     H 5117   1.378   0.909   9.093  0.5674  0.7930 -0.2477
   38MOL0     H 5118   0.895   1.028   8.993  1.4860 -1.4808 -0.7333
   38MOL0     H 5119   0.720   0.910   8.867 -1.7317  2.7036 -0.8559
   38MOL0     H 5120   0.569   0.815   8.677 -1.0379 -3.0728  3.0362
   38MOL0     H 5121   0.608   0.700   8.554  2.8804  0.1561 -0.9923
   38MOL0     H 5122   0.573   0.565   8.736 -0.9692 -1.7612 -2.0501
   38MOL0     H 5123   0.680   0.664   8.842 -1.8306 -2.6261  0.3440
   38MOL0     H 5124   0.800   0.472   8.783  1.8991  0.9061  0.4513
   38MOL0     H 5125   0.881   0.604   8.692  0.7960 -0.8122 -0.5098
   38MOL0     H 5126   0.873   0.399   8.557  0.7130  1.4220 -0.6778
   38MOL0     H 5127   0.790   0.531   8.481 -0.3244  0.2808 -0.4447
   38MOL0     H 5128   0.470   0.256   8.567  0.9529 -0.7509  0.9946
   38MOL0     H 5129   1.002   0.856   8.548 -0.2872 -1.9080 -0.3756
   38MOL0     H 5130   1.175   0.968   8.676  0.6643 -0.3974  1.0638
   39MOL0     O 5131   0.807  10.442   1.865  0.1268  0.0109  0.1195
   39MOL0     C 5132   0.895  10.408   1.937  0.8167 -0.4042 -0.1933
   39MOL0     O 5133   1.019  10.376   1.889  0.3062 -0.1726 -0.3699
   39MOL0     C 5134   1.070  10.410   1.773 -0.3578  1.1504  0.0020
   39MOL0     C 5135   1.039  10.515   1.694  0.0234  1.0538  0.0951
   39MOL0     C 5136   1.101  10.541   1.574 -0.8761 -0.5349  0.1754
   39MOL0     C 5137   1.210  10.461   1.537 -0.8587 -0.5382  0.0145
   39MOL0     O 5138   1.278  10.499   1.423  0.4381  0.4886  0.4150
   39MOL0     C 5139   1.412  10.539   1.444 -0.3669 -0.5393 -0.2379
   39MOL0     C 5140   1.419  10.694   1.461 -0.0463 -1.2850  0.4896
   39MOL0     C 5141   1.548  10.762   1.432 -0.0812 -0.2258 -0.6661
   39MOL0     C 5142   1.585  10.742   1.282 -0.3989  0.0463  0.4784
   39MOL0     C 5143   1.703  10.821   1.233  0.1191 -1.2194  0.3148
   39MOL0     C 5144   1.735  10.802   1.079  0.3717 -0.3571 -0.2645
   39MOL0     C 5145   1.873  10.879   1.050  0.0589 -0.0946  0.2249
   39MOL0     C 5146   1.907  10.871   0.899  1.1605 -0.2994 -0.9715
   39MOL0     N 5147   1.802  10.914   0.806  0.5114 -0.7290  0.9395
   39MOL0     C 5148   1.720  11.028   0.816  0.4629 -0.4854 -0.5164
   39MOL0     C 5149   1.611  11.019   0.732  0.3423 -0.6320 -0.1001
   39MOL0     C 5150   1.504  11.118   0.704 -0.5730 -0.2331 -0.2073
   39MOL0     C 5151   1.558  11.250   0.652 -0.7666  0.6871  0.6751
   39MOL0     C 5152   1.617  11.242   0.510 -0.0388  0.1930  0.0146
   39MOL0     C 5153   1.650  11.369   0.439 -0.6165 -0.2410  0.1475
   39MOL0     O 5154   1.749  11.440   0.513 -0.2873  0.9891 -0.1724
   39MOL0     C 5155   1.771  11.571   0.487 -0.3046 -0.5777 -0.8397
   39MOL0     C 5156   1.673  11.663   0.440  0.3151  0.0799  0.0739
   39MOL0     C 5157   1.696  11.795   0.410 -0.5724  0.2875 -0.5747
   39MOL0     C 5158   1.586  11.867   0.338  0.0943  1.0976 -0.7387
   39MOL0     C 5159   1.828  11.848   0.440  0.2891  0.3986 -0.3673
   39MOL0     C 5160   1.864  11.986   0.404 -0.3166 -0.7354 -0.4284
   39MOL0     O 5161   1.967  12.035   0.479  0.8595 -0.0536  0.3207
   39MOL0     C 5162   1.991  12.170   0.472  0.1312 -0.7025  0.9688
   39MOL0     C 5163   1.903  12.277   0.490 -0.2019  0.5884  0.4291
   39MOL0     C 5164   1.933  12.409   0.454  0.9194 -0.4041 -1.0915
   39MOL0     C 5165   2.059  12.445   0.421  0.5849  0.0554 -1.0169
   39MOL0     O 5166   2.093  12.571   0.388  1.0928  0.0746  0.7328
   39MOL0     C 5167   1.994  12.681   0.407 -0.1159 -0.4066 -0.1511
   39MOL0     C 5168   2.061  12.811   0.367 -0.3229  0.1806 -0.2952
   39MOL0     C 5169   1.981  12.935   0.342 -0.0961  0.1715  1.3931
   39MOL0     C 5170   1.911  12.991   0.460 -0.2613  0.2045 -0.9774
   39MOL0     C 5171   1.802  13.087   0.412  0.0285 -0.8518  0.0023
   39MOL0     C 5172   1.698  13.113   0.528 -0.9676 -0.3939 -1.0865
   39MOL0     C 5173   1.607  13.231   0.510 -0.7247 -0.4783  0.2265
   39MOL0     C 5174   1.630  13.334   0.622  0.3728  0.6737  0.9480
   39MOL0    Cl 5175   1.622  13.262   0.786  0.1103 -0.1065  0.0179
   39MOL0     C 5176   2.157  12.343   0.415  0.4979  0.5162 -0.6956
   39MOL0     C 5177   2.118  12.212   0.431  0.1984 -0.7166 -0.2403
   39MOL0     O 5178   1.809  12.047   0.315 -0.1617 -0.6216  0.4416
   39MOL0     C 5179   1.927  11.764   0.501 -0.1862  0.0975  0.2992
   39MOL0     C 5180   1.894  11.632   0.518  0.1461 -0.4034 -0.4059
   39MOL0     N 5181   1.634  10.905   0.661 -0.0610 -0.2715 -0.8843
   39MOL0     N 5182   1.744  10.847   0.710  0.2090 -0.8518  0.4349
   39MOL0     C 5183   1.248  10.351   1.616 -0.3963  0.4098 -0.3463
   39MOL0     C 5184   1.178  10.319   1.731 -0.3704 -0.4235 -0.1600
   39MOL0     C 5185   0.867  10.395   2.078  0.3089  0.8994  0.5940
   39MOL0     C 5186   0.733  10.391   2.130  0.5723 -0.2886  0.0278
   39MOL0     C 5187   0.715  10.395   2.277 -0.0840 -0.2874  0.0823
   39MOL0     C 5188   0.827  10.411   2.362 -0.1391 -0.0289 -0.7154
   39MOL0     O 5189   0.812  10.421   2.500  0.6387  0.1376 -0.4083
   39MOL0     C 5190   0.845  10.304   2.565 -0.3113  0.1049 -0.2180
   39MOL0     C 5191   0.724  10.212   2.572 -1.0637  0.3515 -0.6255
   39MOL0     C 5192   0.787  10.071   2.625 -0.6045 -0.6256 -0.4137
   39MOL0     C 5193   0.788  10.048   2.774  0.1096  0.4876  0.7171
   39MOL0     C 5194   0.652  10.050   2.837  0.2939 -0.3613 -0.0831
   39MOL0     C 5195   0.540  10.072   2.877  0.9507  0.2711  1.7409
   39MOL0     C 5196   0.957  10.419   2.307  0.2086  0.2214  0.1993
   39MOL0     C 5197   0.975  10.407   2.165 -0.0513  0.6961 -1.2200
   39MOL0     H 5198   0.951  10.570   1.726  0.3607  0.7029  1.7143
   39MOL0     H 5199   1.063  10.614   1.504  0.2034 -1.6884 -1.7116
   39MOL0     H 5200   1.458  10.485   1.527  1.1063 -1.6983 -1.7584
   39MOL0     H 5201   1.466  10.513   1.353  0.7295  4.5722 -1.3818
   39MOL0     H 5202   1.340  10.738   1.400 -0.6118 -0.0530  2.0542
   39MOL0     H 5203   1.397  10.702   1.568  2.9571 -0.6169  1.1480
   39MOL0     H 5204   1.543  10.868   1.459  0.8448 -0.1119 -0.9087
   39MOL0     H 5205   1.625  10.722   1.499  1.3168  2.7205 -0.3296
   39MOL0     H 5206   1.615  10.638   1.265  0.1410  0.6767 -3.0797
   39MOL0     H 5207   1.498  10.770   1.222 -1.2606  1.5788  2.3139
   39MOL0     H 5208   1.687  10.921   1.275  2.0626 -1.2258  1.2360
   39MOL0     H 5209   1.787  10.778   1.289 -0.1786 -0.7487  1.1442
   39MOL0     H 5210   1.725  10.697   1.049 -0.3964  0.3407 -2.7249
   39MOL0     H 5211   1.662  10.857   1.019  2.0575  1.7779 -0.4966
   39MOL0     H 5212   1.863  10.984   1.080  0.4451 -0.7091  2.7869
   39MOL0     H 5213   1.956  10.829   1.101  0.5870 -2.0840 -2.3894
   39MOL0     H 5214   1.937  10.770   0.868 -1.6860 -1.2449 -0.9065
   39MOL0     H 5215   1.992  10.939   0.884 -0.3140  1.5984 -1.1008
   39MOL0     H 5216   1.742  11.110   0.884  0.4065 -0.1315 -0.9234
   39MOL0     H 5217   1.426  11.071   0.645  0.1099 -2.5595  0.6413
   39MOL0     H 5218   1.468  11.142   0.805 -0.4876  3.3805 -0.8687
   39MOL0     H 5219   1.627  11.291   0.726  1.7659 -3.4541  0.9234
   39MOL0     H 5220   1.475  11.321   0.640  1.2316  3.0733  0.1153
   39MOL0     H 5221   1.538  11.199   0.447  1.0962 -0.4721 -1.0075
   39MOL0     H 5222   1.710  11.184   0.507  0.8053  1.5034 -0.0343
   39MOL0     H 5223   1.558  11.427   0.429 -0.1107  0.6599  0.5600
   39MOL0     H 5224   1.691  11.359   0.338  1.7859 -0.8616  1.1051
   39MOL0     H 5225   1.572  11.632   0.417 -0.5940  1.9750  1.2472
   39MOL0     H 5226   1.492  11.812   0.334  0.1437  1.0096 -0.6928
   39MOL0     H 5227   1.566  11.969   0.373  1.3251  2.2026 -3.0323
   39MOL0     H 5228   1.614  11.870   0.232  1.3915  2.1137 -0.4031
   39MOL0     H 5229   1.806  12.240   0.521 -0.3142 -0.9305 -1.4993
   39MOL0     H 5230   1.861  12.489   0.464  0.0730 -1.2364 -0.3602
   39MOL0     H 5231   1.903  12.677   0.347 -0.2061  5.3517 -0.9484
   39MOL0     H 5232   1.957  12.692   0.509  1.8767  0.0543  0.5839
   39MOL0     H 5233   2.129  12.831   0.450 -1.0232 -0.8498  0.5541
   39MOL0     H 5234   2.113  12.785   0.274 -4.2125  0.7493 -2.8681
   39MOL0     H 5235   1.907  12.904   0.267 -3.1493 -0.9389  4.5598
   39MOL0     H 5236   2.044  13.011   0.295 -1.7824 -0.7007 -2.7605
   39MOL0     H 5237   1.873  12.908   0.520  4.3004 -0.3363  1.6264
   39MOL0     H 5238   1.978  13.038   0.533 -2.7800 -0.3987  1.9147
   39MOL0     H 5239   1.746  13.050   0.326 -2.1273  1.8052  0.1182
   39MOL0     H 5240   1.857  13.177   0.385  0.2389 -0.5524  1.3292
   39MOL0     H 5241   1.642  13.019   0.536  1.5770 -1.8791  0.5253
   39MOL0     H 5242   1.764  13.123   0.614 -2.1518 -2.2842  0.1007
   39MOL0     H 5243   1.500  13.207   0.507 -1.0517  0.5827  2.0319
   39MOL0     H 5244   1.622  13.283   0.415  1.1978 -0.3068  0.5737
   39MOL0     H 5245   1.553  13.411   0.612 -2.3591 -1.9640  0.0947
   39MOL0     H 5246   1.724  13.388   0.611  1.5996 -0.7420  3.5070
   39MOL0     H 5247   2.253  12.381   0.382 -0.0128  0.5993 -2.1847
   39MOL0     H 5248   2.193  12.137   0.407  1.9602  0.3720  1.5863
   39MOL0     H 5249   2.023  11.795   0.541  0.7529 -3.9379  1.6947
   39MOL0     H 5250   1.971  11.562   0.549 -2.9909 -3.1483  1.8768
   39MOL0     H 5251   1.336  10.296   1.586  1.0247  1.4731  1.6152
   39MOL0     H 5252   1.203  10.225   1.779  2.9565  1.1665  1.5997
   39MOL0     H 5253   0.644  10.395   2.068  0.6557 -0.9105 -0.1462
   39MOL0     H 5254   0.612  10.395   2.312 -1.1931  0.1833 -2.8518
   39MOL0     H 5255   0.932  10.257   2.519 -1.1468  0.2284 -2.0069
   39MOL0     H 5256   0.881  10.327   2.666  1.8453 -2.2765 -0.3648
   39MOL0     H 5257   0.677  10.192   2.475  0.5925 -2.6860 -0.9094
   39MOL0     H 5258   0.644  10.246   2.638 -1.8371  1.9242 -2.2677
   39MOL0     H 5259   0.886  10.067   2.578 -1.4356 -0.1291 -2.3229
   39MOL0     H 5260   0.725   9.995   2.576  0.8468 -0.9374 -1.8526
   39MOL0     H 5261   0.858  10.110   2.831  0.7657 -0.1843  0.6589
   39MOL0     H 5262   0.832   9.948   2.786  1.5790  0.9579 -0.3640
   39MOL0     H 5263   0.449  10.102   2.924  0.9690  0.0037  1.9499
   39MOL0     H 5264   1.042  10.441   2.371  2.3470  1.3981 -2.8029
   39MOL0     H 5265   1.075  10.419   2.126  0.8328  3.3400  1.5053
   40MOL0     O 5266   1.566   0.152   3.777  0.3053  0.3095 -0.2925
   40MOL0     C 5267   1.513   0.264   3.757  0.8548  0.0957 -1.0560
   40MOL0     O 5268   1.576   0.369   3.693 -0.7450  0.1670  0.1842
   40MOL0     C 5269   1.703   0.338   3.647 -0.2666 -0.2259  0.5319
   40MOL0     C 5270   1.726   0.225   3.564  0.4128  0.2958 -0.6571
   40MOL0     C 5271   1.854   0.188   3.530 -0.1735 -0.4817 -1.2542
   40MOL0     C 5272   1.965   0.266   3.577 -0.5616  0.1462 -0.0303
   40MOL0     O 5273   2.101   0.228   3.558  0.3305 -0.1502 -0.7056
   40MOL0     C 5274   2.139   0.101   3.533 -0.6685  0.2864  0.5471
   40MOL0     C 5275   2.141   0.088   3.382 -0.7246  0.1535  0.7485
   40MOL0     C 5276   2.246   0.176   3.309 -0.0689  0.0013 -0.2431
   40MOL0     C 5277   2.298   0.116   3.171  0.1394 -0.3941 -0.1098
   40MOL0     C 5278   2.409   0.021   3.200 -0.0324  0.2111  0.5594
   40MOL0     C 5279   2.537   0.082   3.238  0.3711 -0.3199 -0.0787
   40MOL0     C 5280   2.651  -0.019   3.251  0.2897  0.1040 -0.3438
   40MOL0     C 5281   2.782   0.052   3.283  0.5841  0.4960  0.5639
   40MOL0     N 5282   2.893  -0.037   3.305  1.1738 -0.6419  1.2373
   40MOL0     C 5283   2.948  -0.122   3.211 -0.4977  0.2058  0.2404
   40MOL0     C 5284   3.056  -0.166   3.278 -0.0296  0.3633  0.1550
   40MOL0     C 5285   3.163  -0.261   3.231  0.0982 -0.2158 -0.3991
   40MOL0     C 5286   3.169  -0.396   3.298  0.2537  0.0070 -0.2854
   40MOL0     C 5287   3.239  -0.393   3.434 -0.0365 -0.3624  0.2684
   40MOL0     C 5288   3.257  -0.531   3.495  0.2563 -0.0688  0.5433
   40MOL0     O 5289   3.351  -0.617   3.424 -0.5777 -0.3406  0.0988
   40MOL0     C 5290   3.480  -0.577   3.397 -0.6549  0.3165  0.1748
   40MOL0     C 5291   3.559  -0.526   3.497  0.3016 -0.8861  0.0579
   40MOL0     C 5292   3.687  -0.476   3.474  1.0492 -0.4740  0.3019
   40MOL0     C 5293   3.750  -0.416   3.604 -0.3876 -0.1877  0.3403
   40MOL0     C 5294   3.753  -0.493   3.351  0.4734  0.6707 -0.1622
   40MOL0     C 5295   3.895  -0.456   3.318 -0.1976  0.4111 -2.0146
   40MOL0     O 5296   3.920  -0.441   3.184 -0.3582 -0.1028 -0.8096
   40MOL0     C 5297   4.049  -0.414   3.149 -0.1970 -0.3320 -1.6628
   40MOL0     C 5298   4.136  -0.515   3.130 -0.4202 -0.0761  0.2834
   40MOL0     C 5299   4.268  -0.500   3.091 -1.3089  0.0067  0.3517
   40MOL0     C 5300   4.312  -0.373   3.057 -0.3780  0.7959  0.0765
   40MOL0     O 5301   4.441  -0.346   3.008 -0.2251  0.1040 -0.0212
   40MOL0     C 5302   4.458  -0.377   2.867  0.1143 -0.2493  0.1219
   40MOL0     C 5303   4.538  -0.262   2.798  1.4852 -0.1772  0.3695
   40MOL0     C 5304   4.663  -0.229   2.881 -0.0589  0.4351 -0.5029
   40MOL0     C 5305   4.785  -0.183   2.797  0.3691  0.1721 -0.2086
   40MOL0     C 5306   4.779  -0.029   2.769  0.5426  0.7712 -1.1538
   40MOL0     C 5307   4.896   0.031   2.695 -0.4895  0.4674  0.0100
   40MOL0     C 5308   4.924  -0.023   2.551  0.6428 -1.1157 -0.5632
   40MOL0     C 5309   5.017   0.069   2.474 -0.3027  0.2027  0.0128
   40MOL0    Cl 5310   5.177   0.032   2.532  0.0571 -0.0094  0.1716
   40MOL0     C 5311   4.217  -0.266   3.063 -0.2294 -0.2047 -0.0437
   40MOL0     C 5312   4.090  -0.286   3.116 -0.6733 -0.2057 -0.0932
   40MOL0     O 5313   3.981  -0.466   3.408  0.7771 -0.0634 -0.9502
   40MOL0     C 5314   3.678  -0.551   3.249  0.1505  0.3629 -0.5730
   40MOL0     C 5315   3.543  -0.584   3.267  0.1317  0.1947  0.3346
   40MOL0     N 5316   3.068  -0.108   3.392 -0.8716 -1.2889 -0.0852
   40MOL0     N 5317   2.970  -0.029   3.411 -0.0523  0.4021 -0.0935
   40MOL0     C 5318   1.944   0.372   3.654  0.1993  0.1132  0.1075
   40MOL0     C 5319   1.810   0.416   3.690  0.1992  0.5878  1.5052
   40MOL0     C 5320   1.384   0.282   3.809 -0.7869  0.3875 -0.0484
   40MOL0     C 5321   1.302   0.383   3.761 -0.1383 -0.3636  1.0415
   40MOL0     C 5322   1.176   0.412   3.818  0.2465 -0.6275  0.4800
   40MOL0     C 5323   1.131   0.340   3.923  0.3423  0.9690 -0.5753
   40MOL0     O 5324   1.017   0.376   3.985  1.3991  0.8456 -0.6697
   40MOL0     C 5325   0.987   0.338   4.116 -0.3498 -0.3038 -0.5291
   40MOL0     C 5326   0.849   0.392   4.161  0.4660  0.3116 -0.0124
   40MOL0     C 5327   0.721   0.356   4.072  0.4644 -0.7030  1.0642
   40MOL0     C 5328   0.620   0.265   4.138 -0.1047  0.3033  0.1272
   40MOL0     C 5329   0.558   0.342   4.251  0.0401  1.3137 -0.1488
   40MOL0     C 5330   0.511   0.395   4.348  1.0467  0.6884  0.0313
   40MOL0     C 5331   1.207   0.237   3.971 -0.2386  1.4757 -0.3334
   40MOL0     C 5332   1.329   0.207   3.917 -1.2522  0.2756 -0.4628
   40MOL0     H 5333   1.644   0.160   3.537 -1.2606  0.3044  3.6251
   40MOL0     H 5334   1.870   0.096   3.475 -1.9757  0.8344 -4.2269
   40MOL0     H 5335   2.235   0.073   3.575  2.3334  2.2008 -4.1731
   40MOL0     H 5336   2.071   0.031   3.582 -0.5310  1.5503  2.6532
   40MOL0     H 5337   2.140  -0.016   3.348  0.7939  0.8458 -1.6590
   40MOL0     H 5338   2.041   0.118   3.350  0.8269  4.2498 -0.9431
   40MOL0     H 5339   2.192   0.269   3.289  1.3604  1.0900  0.7623
   40MOL0     H 5340   2.321   0.217   3.378 -0.1263  1.9695 -1.2774
   40MOL0     H 5341   2.223   0.067   3.108 -1.1978  1.4619 -0.0512
   40MOL0     H 5342   2.343   0.200   3.118  1.0511 -0.7161  0.1423
   40MOL0     H 5343   2.371  -0.038   3.283 -0.6979 -1.2750 -0.7539
   40MOL0     H 5344   2.434  -0.035   3.109 -0.4619  1.4592 -0.3481
   40MOL0     H 5345   2.552   0.153   3.156 -2.1081 -2.3353 -2.4088
   40MOL0     H 5346   2.533   0.132   3.336  0.4628  2.6151 -1.4565
   40MOL0     H 5347   2.625  -0.080   3.338  1.3278  1.0816  0.6910
   40MOL0     H 5348   2.671  -0.081   3.164 -2.4187 -3.6778  1.4821
   40MOL0     H 5349   2.769   0.117   3.371  3.5728  2.2864 -0.1644
   40MOL0     H 5350   2.814   0.111   3.196  0.0115  0.1928  0.1425
   40MOL0     H 5351   2.912  -0.158   3.115 -0.1136  0.2572  0.0749
   40MOL0     H 5352   3.134  -0.268   3.126 -1.2531  1.7049 -0.1913
   40MOL0     H 5353   3.263  -0.217   3.238  0.0156 -0.3019  2.5798
   40MOL0     H 5354   3.232  -0.457   3.233  3.6917  1.9642  0.9387
   40MOL0     H 5355   3.070  -0.441   3.299 -0.8305  2.2493  1.1788
   40MOL0     H 5356   3.174  -0.345   3.508  4.1424  0.8849  3.5599
   40MOL0     H 5357   3.337  -0.344   3.434  0.0417 -0.1537  4.5196
   40MOL0     H 5358   3.162  -0.585   3.493 -0.0152  0.3437  1.5275
   40MOL0     H 5359   3.286  -0.511   3.599 -1.1732  2.7040  0.5055
   40MOL0     H 5360   3.511  -0.510   3.594 -0.1151  0.8619 -0.4043
   40MOL0     H 5361   3.847  -0.367   3.592  0.7586 -2.9166 -2.8312
   40MOL0     H 5362   3.679  -0.342   3.644  0.4036 -0.4215  2.3094
   40MOL0     H 5363   3.759  -0.488   3.685  0.2114  1.5713  1.9220
   40MOL0     H 5364   4.101  -0.616   3.147  1.1878 -0.5490  1.0204
   40MOL0     H 5365   4.341  -0.580   3.079 -1.2914  0.2125 -1.0475
   40MOL0     H 5366   4.510  -0.471   2.848  0.0229 -0.7867  2.2218
   40MOL0     H 5367   4.357  -0.382   2.824 -0.2359  4.1861 -0.0888
   40MOL0     H 5368   4.559  -0.294   2.696 -0.4704 -1.0598  0.1982
   40MOL0     H 5369   4.478  -0.171   2.794  1.8378  0.0407  0.1084
   40MOL0     H 5370   4.688  -0.325   2.927  1.1060  0.3077 -1.3612
   40MOL0     H 5371   4.642  -0.160   2.963 -1.2224 -1.0112  0.4701
   40MOL0     H 5372   4.873  -0.206   2.859 -0.0171  0.6632  0.5434
   40MOL0     H 5373   4.786  -0.244   2.707  1.7012  1.1248 -0.8725
   40MOL0     H 5374   4.749   0.032   2.854  0.4942  2.2038 -2.1664
   40MOL0     H 5375   4.697  -0.017   2.697 -0.9801 -2.4542 -0.1685
   40MOL0     H 5376   4.881   0.140   2.695  2.4300  0.9942 -1.9218
   40MOL0     H 5377   4.986   0.006   2.752  0.3615  1.8088 -0.6620
   40MOL0     H 5378   4.825  -0.026   2.504  0.2204  0.6811  0.1320
   40MOL0     H 5379   4.967  -0.123   2.567 -1.2796 -1.6662  1.7678
   40MOL0     H 5380   4.993   0.174   2.493 -1.7141  0.3254 -2.1960
   40MOL0     H 5381   5.004   0.042   2.369  1.2922  0.9836 -0.4167
   40MOL0     H 5382   4.233  -0.164   3.028 -3.2506 -0.6334 -3.1154
   40MOL0     H 5383   4.027  -0.198   3.127 -2.9466 -1.3949 -2.5164
   40MOL0     H 5384   3.721  -0.567   3.151 -0.2080 -0.7735 -0.5683
   40MOL0     H 5385   3.478  -0.628   3.192  0.8173 -2.1791  1.0572
   40MOL0     H 5386   2.029   0.420   3.702  0.5183 -0.3198 -0.0175
   40MOL0     H 5387   1.779   0.502   3.748 -4.6769  1.1411 -1.3219
   40MOL0     H 5388   1.342   0.444   3.681  1.5951 -1.1768  1.2518
   40MOL0     H 5389   1.114   0.490   3.776  2.3805  0.4825 -0.7778
   40MOL0     H 5390   0.988   0.229   4.118  3.5516 -0.4810 -2.4740
   40MOL0     H 5391   1.070   0.360   4.184  0.5648 -2.4826 -0.8680
   40MOL0     H 5392   0.858   0.500   4.172  0.7743  0.0181  3.7802
   40MOL0     H 5393   0.817   0.352   4.258 -2.6115 -0.4426 -1.2084
   40MOL0     H 5394   0.744   0.304   3.978 -2.1953 -1.3823  0.7051
   40MOL0     H 5395   0.673   0.449   4.039 -0.1823 -0.6943  1.9839
   40MOL0     H 5396   0.664   0.170   4.168  2.0025  0.3779 -2.3265
   40MOL0     H 5397   0.539   0.243   4.068 -0.9746  1.5884  0.6970
   40MOL0     H 5398   0.465   0.439   4.434 -0.8079 -1.8090  0.4111
   40MOL0     H 5399   1.186   0.175   4.058 -0.3056  1.2538 -0.5058
   40MOL0     H 5400   1.379   0.120   3.958  0.2059  1.4446  0.3042
   41MOL0     O 5401   6.101   5.369   7.489 -0.6286 -0.5198  0.1475
   41MOL0     C 5402   6.187   5.313   7.421  0.3713 -0.7214 -0.0894
   41MOL0     O 5403   6.155   5.230   7.310  0.2310  0.2935 -0.2437
   41MOL0     C 5404   6.016   5.197   7.295 -0.9229 -0.0265 -0.3667
   41MOL0     C 5405   5.924   5.290   7.252 -0.4856  0.6541  0.3129
   41MOL0     C 5406   5.787   5.253   7.253 -0.2744  0.3622 -0.0378
   41MOL0     C 5407   5.740   5.129   7.288 -0.6778  0.0850 -0.6744
   41MOL0     O 5408   5.606   5.095   7.277 -0.1248 -0.3921 -0.2468
   41MOL0     C 5409   5.545   5.062   7.411  0.5186 -0.3930  0.1238
   41MOL0     C 5410   5.431   4.971   7.374  0.2551  1.5611  0.5917
   41MOL0     C 5411   5.475   4.827   7.320  0.5401 -1.3460 -0.0732
   41MOL0     C 5412   5.511   4.740   7.440  0.4833 -0.0093 -0.2987
   41MOL0     C 5413   5.520   4.590   7.412  0.0810  0.0154  0.0083
   41MOL0     C 5414   5.658   4.548   7.357  1.1063 -1.1849 -0.2596
   41MOL0     C 5415   5.658   4.407   7.314 -0.1636 -0.6139  0.0185
   41MOL0     C 5416   5.674   4.312   7.433 -0.8301  0.5639  0.5739
   41MOL0     N 5417   5.810   4.272   7.442 -0.1573  0.0088 -0.1495
   41MOL0     C 5418   5.897   4.307   7.544 -0.8718 -0.2174 -0.0511
   41MOL0     C 5419   5.998   4.223   7.536  0.0791  0.1095 -0.5172
   41MOL0     C 5420   6.134   4.230   7.610  0.4269  0.1544 -0.6566
   41MOL0     C 5421   6.252   4.271   7.524  0.6444  0.2769 -0.6800
   41MOL0     C 5422   6.249   4.419   7.491 -0.7852 -0.5391 -0.3786
   41MOL0     C 5423   6.373   4.464   7.418 -0.0502 -0.3648 -0.0128
   41MOL0     O 5424   6.401   4.606   7.424  0.5078 -0.3547 -0.4790
   41MOL0     C 5425   6.494   4.651   7.515  0.4326 -0.0783 -0.0470
   41MOL0     C 5426   6.605   4.718   7.454 -0.0353 -0.4123 -1.2315
   41MOL0     C 5427   6.703   4.768   7.543  0.5403  0.5510 -0.2233
   41MOL0     C 5428   6.834   4.819   7.472  0.2150  0.0224 -0.0656
   41MOL0     C 5429   6.677   4.775   7.682 -0.0740 -0.4147 -1.2338
   41MOL0     C 5430   6.760   4.834   7.790 -0.1514 -0.7364 -0.3616
   41MOL0     O 5431   6.714   4.818   7.915  0.4698 -0.2165 -0.2021
   41MOL0     C 5432   6.797   4.837   8.022  0.2228 -0.3010  0.0453
   41MOL0     C 5433   6.832   4.727   8.107 -0.6167  0.1053  0.0824
   41MOL0     C 5434   6.916   4.750   8.214 -0.0314  0.0384  0.0265
   41MOL0     C 5435   6.970   4.877   8.235  0.9238 -0.2095  0.1300
   41MOL0     O 5436   7.066   4.890   8.328 -0.2038 -0.9176 -0.3304
   41MOL0     C 5437   7.020   4.960   8.445  0.2147 -0.2064 -0.4983
   41MOL0     C 5438   7.130   5.041   8.507  0.5061 -0.5068 -1.0716
   41MOL0     C 5439   7.260   4.964   8.539  0.0803  0.7501  0.0421
   41MOL0     C 5440   7.230   4.847   8.649  0.0104  0.0409  0.0715
   41MOL0     C 5441   7.363   4.784   8.707  0.6579  0.2025  0.2488
   41MOL0     C 5442   7.339   4.688   8.826 -0.3169 -0.7127  0.1022
   41MOL0     C 5443   7.474   4.646   8.890 -0.8534  0.4230 -0.2297
   41MOL0     C 5444   7.571   4.577   8.800 -0.5395  1.0064 -0.1877
   41MOL0    Cl 5445   7.512   4.412   8.758  0.1236 -0.2572 -0.2158
   41MOL0     C 5446   6.927   4.992   8.154 -0.7936  0.4905  0.5009
   41MOL0     C 5447   6.845   4.970   8.047 -0.2796  1.0036  0.0637
   41MOL0     O 5448   6.868   4.878   7.753 -0.1916  0.4898 -1.0406
   41MOL0     C 5449   6.547   4.738   7.734 -0.6427 -0.1169  0.7448
   41MOL0     C 5450   6.457   4.678   7.645 -0.3128 -0.5468  0.7238
   41MOL0     N 5451   5.977   4.147   7.418  0.2805 -0.2690 -0.4122
   41MOL0     N 5452   5.867   4.179   7.370  0.4494  0.1243  0.1941
   41MOL0     C 5453   5.835   5.043   7.320  0.2712  0.0858  0.1920
   41MOL0     C 5454   5.975   5.068   7.326  0.5539 -0.2427  0.5111
   41MOL0     C 5455   6.328   5.316   7.456 -0.1694 -0.1462 -0.3434
   41MOL0     C 5456   6.424   5.211   7.433  0.8030  0.0278 -0.8143
   41MOL0     C 5457   6.556   5.221   7.480 -0.9190 -0.8622  0.2497
   41MOL0     C 5458   6.605   5.336   7.548 -0.5279  0.0998  0.3531
   41MOL0     O 5459   6.737   5.343   7.584 -0.4623  0.9518 -0.3774
   41MOL0     C 5460   6.787   5.469   7.628 -0.3624  0.1479  0.2858
   41MOL0     C 5461   6.944   5.463   7.650  0.0874 -0.3844  0.3302
   41MOL0     C 5462   6.982   5.376   7.775 -0.2861  0.3196 -0.5218
   41MOL0     C 5463   7.125   5.315   7.764 -0.6442  0.4294 -0.3677
   41MOL0     C 5464   7.225   5.427   7.778  0.3040 -0.4626 -0.0065
   41MOL0     C 5465   7.299   5.521   7.798 -0.1414  0.7531  0.0065
   41MOL0     C 5466   6.505   5.443   7.568 -0.4886 -0.1811  0.1402
   41MOL0     C 5467   6.374   5.429   7.525 -0.4062 -0.0436 -0.8382
   41MOL0     H 5468   5.954   5.389   7.217 -3.4173  0.1936 -4.4201
   41MOL0     H 5469   5.705   5.316   7.221 -0.5851 -1.3727 -2.9681
   41MOL0     H 5470   5.617   5.000   7.465 -0.0023 -1.8773 -0.8435
   41MOL0     H 5471   5.513   5.147   7.472  1.4274 -0.8316  1.2583
   41MOL0     H 5472   5.359   4.958   7.456 -0.4655  0.6875 -0.1565
   41MOL0     H 5473   5.366   5.012   7.296 -2.3310 -0.6870  1.4149
   41MOL0     H 5474   5.397   4.793   7.252 -1.7566  1.9198  0.6780
   41MOL0     H 5475   5.568   4.839   7.264 -0.6515  2.0654 -1.5695
   41MOL0     H 5476   5.610   4.769   7.476 -0.4724  3.2357  0.0675
   41MOL0     H 5477   5.446   4.754   7.527  2.3859 -1.8262  1.5338
   41MOL0     H 5478   5.505   4.526   7.500 -0.0580 -1.7773 -1.2605
   41MOL0     H 5479   5.447   4.575   7.332  3.2638 -0.1931 -3.1229
   41MOL0     H 5480   5.675   4.602   7.264  0.8210 -1.6826 -0.6066
   41MOL0     H 5481   5.734   4.570   7.433  0.5735  1.1243 -0.3446
   41MOL0     H 5482   5.569   4.369   7.262 -1.5721  2.4147  0.0270
   41MOL0     H 5483   5.747   4.396   7.253  1.4722  0.1414  2.1429
   41MOL0     H 5484   5.616   4.224   7.403  0.7337 -0.4051  0.2946
   41MOL0     H 5485   5.638   4.360   7.525 -0.2144 -0.5994  1.4524
   41MOL0     H 5486   5.884   4.393   7.609 -0.6970  0.0765 -0.4011
   41MOL0     H 5487   6.124   4.298   7.695 -0.6707  3.2217 -3.0575
   41MOL0     H 5488   6.157   4.143   7.673 -2.6870  1.2673  2.2937
   41MOL0     H 5489   6.255   4.217   7.429  4.4388 -1.4897  0.2519
   41MOL0     H 5490   6.345   4.244   7.575  0.6138 -0.2463 -0.8976
   41MOL0     H 5491   6.247   4.474   7.586 -0.3226  0.7239 -1.0788
   41MOL0     H 5492   6.157   4.449   7.439  0.1736  0.4627 -1.5544
   41MOL0     H 5493   6.346   4.443   7.314 -4.3132  4.3658 -0.2429
   41MOL0     H 5494   6.463   4.412   7.452  0.8023  1.0929  0.0370
   41MOL0     H 5495   6.618   4.711   7.346  0.6243 -4.7328 -1.0879
   41MOL0     H 5496   6.845   4.928   7.483  1.4872  0.1451 -2.0200
   41MOL0     H 5497   6.919   4.766   7.516  0.5985  0.7697  0.1275
   41MOL0     H 5498   6.832   4.811   7.363  0.5423  2.6500 -0.3460
   41MOL0     H 5499   6.788   4.629   8.092 -0.1096 -0.0017 -0.7955
   41MOL0     H 5500   6.948   4.663   8.271  0.1952 -1.5433 -2.3550
   41MOL0     H 5501   6.936   5.029   8.434  0.8083  0.9215  1.4971
   41MOL0     H 5502   6.978   4.884   8.512  3.0731 -1.9351 -0.5020
   41MOL0     H 5503   7.155   5.113   8.428 -0.9677  2.5242  1.0271
   41MOL0     H 5504   7.098   5.104   8.591 -3.2978 -0.4755 -2.3451
   41MOL0     H 5505   7.330   5.038   8.580 -1.1498  0.5831  2.5949
   41MOL0     H 5506   7.301   4.913   8.451 -0.1072  2.2506 -0.9721
   41MOL0     H 5507   7.177   4.887   8.736  0.8059 -0.1052  0.6329
   41MOL0     H 5508   7.173   4.766   8.602  0.8401  0.0329 -0.9651
   41MOL0     H 5509   7.428   4.868   8.732 -1.9375  3.3083 -2.4074
   41MOL0     H 5510   7.413   4.728   8.628 -3.0022 -1.9501 -0.8199
   41MOL0     H 5511   7.291   4.746   8.905  1.6924 -2.4347  2.7644
   41MOL0     H 5512   7.284   4.597   8.801 -1.3778 -0.0628  0.0118
   41MOL0     H 5513   7.449   4.577   8.971  1.5256  0.0780  0.3033
   41MOL0     H 5514   7.525   4.732   8.934 -1.3877  0.8567 -0.4569
   41MOL0     H 5515   7.673   4.571   8.840 -0.4833  1.2096 -0.2942
   41MOL0     H 5516   7.595   4.630   8.707  0.8060 -0.5767 -0.7900
   41MOL0     H 5517   6.964   5.091   8.177  1.4737 -0.5289  1.6081
   41MOL0     H 5518   6.814   5.059   7.994 -1.2928 -0.0223 -1.1425
   41MOL0     H 5519   6.517   4.755   7.837  0.2538 -2.3381  1.4405
   41MOL0     H 5520   6.360   4.665   7.692  0.1655  0.4765  2.0617
   41MOL0     H 5521   5.790   4.944   7.312 -0.5660  0.4535  0.2282
   41MOL0     H 5522   6.052   4.992   7.334  0.1121 -0.9611 -1.6173
   41MOL0     H 5523   6.397   5.116   7.388  1.2049  0.2194 -1.4730
   41MOL0     H 5524   6.629   5.143   7.461 -0.2045 -0.3711  0.8896
   41MOL0     H 5525   6.774   5.544   7.549  0.6182 -1.2559 -1.2883
   41MOL0     H 5526   6.731   5.506   7.713 -4.1510 -0.3511 -1.7773
   41MOL0     H 5527   6.987   5.563   7.663 -0.1279 -0.0703 -1.2007
   41MOL0     H 5528   6.997   5.422   7.564  0.4365 -1.0806  0.8751
   41MOL0     H 5529   6.905   5.304   7.804 -1.0566  1.9054  1.7532
   41MOL0     H 5530   6.994   5.440   7.863 -2.6120  0.0231  0.0779
   41MOL0     H 5531   7.135   5.262   7.669  3.0625  0.9744 -0.4348
   41MOL0     H 5532   7.147   5.244   7.844  1.4792 -0.3880 -1.5808
   41MOL0     H 5533   7.371   5.600   7.811  1.8187 -0.3308 -3.1599
   41MOL0     H 5534   6.532   5.540   7.608  0.3821  0.1080 -1.0742
   41MOL0     H 5535   6.308   5.512   7.548 -0.5911 -0.4880  0.3329
   42MOL0     O 5536   1.872   7.111   7.173 -0.5625 -0.0440 -0.3353
   42MOL0     C 5537   1.841   7.232   7.186 -0.2090 -0.5686 -0.4334
   42MOL0     O 5538   1.926   7.342   7.212 -0.3945  0.6211  0.0664
   42MOL0     C 5539   2.051   7.309   7.264  1.0876  0.0814  0.4621
   42MOL0     C 5540   2.150   7.239   7.189 -0.4570 -0.2180  0.0338
   42MOL0     C 5541   2.286   7.222   7.239  0.4527 -0.0579 -0.4769
   42MOL0     C 5542   2.313   7.264   7.368  0.4206 -0.4893  0.1402
   42MOL0     O 5543   2.431   7.242   7.438  0.0751  0.5822  0.3519
   42MOL0     C 5544   2.444   7.105   7.489 -0.1512 -0.0214  0.2217
   42MOL0     C 5545   2.391   7.093   7.630 -0.3497  0.0299  0.2409
   42MOL0     C 5546   2.359   6.954   7.683  0.1805  0.4107 -0.6785
   42MOL0     C 5547   2.325   6.945   7.836  0.3149  1.0239  0.1474
   42MOL0     C 5548   2.427   7.005   7.922  0.0496  1.4598 -0.5194
   42MOL0     C 5549   2.416   6.972   8.072 -0.4492 -0.3414  0.2579
   42MOL0     C 5550   2.275   7.005   8.137  1.1045 -0.5230  0.0481
   42MOL0     C 5551   2.262   6.979   8.289 -0.4658 -0.3214 -0.6092
   42MOL0     N 5552   2.365   7.039   8.377  0.5564 -0.7189  0.4727
   42MOL0     C 5553   2.481   6.985   8.408 -0.3070  0.6842  0.3531
   42MOL0     C 5554   2.540   7.069   8.501  0.4300 -0.6539 -0.6459
   42MOL0     C 5555   2.674   7.058   8.565 -0.6136  0.5527  1.0897
   42MOL0     C 5556   2.688   6.951   8.675  0.5041 -0.2225  0.5821
   42MOL0     C 5557   2.823   6.976   8.751 -0.1196 -0.0003 -0.2338
   42MOL0     C 5558   2.948   6.938   8.679  0.6180 -0.5052 -0.4650
   42MOL0     O 5559   2.987   6.982   8.552 -0.7773 -0.0896 -0.2418
   42MOL0     C 5560   3.121   6.960   8.505 -0.1077  0.5032  0.5267
   42MOL0     C 5561   3.152   7.004   8.377  0.9962 -0.0823  0.6022
   42MOL0     C 5562   3.281   7.007   8.329  0.1231 -0.1136  0.1267
   42MOL0     C 5563   3.299   7.102   8.208  0.1162  0.1611  0.3341
   42MOL0     C 5564   3.388   6.953   8.408 -0.8195  0.8005 -0.0328
   42MOL0     C 5565   3.525   6.939   8.364  0.2241  0.7704 -0.5048
   42MOL0     O 5566   3.545   6.920   8.232  0.0652 -0.8536  0.2779
   42MOL0     C 5567   3.678   6.879   8.200  0.8662 -0.7991  0.1476
   42MOL0     C 5568   3.728   6.747   8.216 -0.1151  0.0160  0.2584
   42MOL0     C 5569   3.863   6.717   8.192 -0.5207  0.6931  0.6597
   42MOL0     C 5570   3.957   6.809   8.149  0.5679 -0.1664 -0.4916
   42MOL0     O 5571   4.085   6.758   8.143 -0.1068  0.0692 -0.2504
   42MOL0     C 5572   4.184   6.850   8.108 -1.2328 -0.7203 -0.6909
   42MOL0     C 5573   4.332   6.819   8.137  0.4419 -0.5999 -0.7312
   42MOL0     C 5574   4.381   6.692   8.073  0.9167  0.1797  0.8089
   42MOL0     C 5575   4.507   6.630   8.138  0.3630 -0.0098  0.4233
   42MOL0     C 5576   4.558   6.504   8.063  0.9018 -0.2304  0.2396
   42MOL0     C 5577   4.700   6.466   8.104  0.1148 -0.1737 -0.3443
   42MOL0     C 5578   4.759   6.351   8.021  0.3036 -0.2607 -0.9843
   42MOL0     C 5579   4.820   6.381   7.881  0.2059 -0.7082  0.3717
   42MOL0    Cl 5580   4.966   6.481   7.890 -0.1899 -0.0702 -0.2616
   42MOL0     C 5581   3.907   6.941   8.120 -0.0289 -0.1742  0.3013
   42MOL0     C 5582   3.771   6.967   8.147 -0.0938 -0.1707 -0.3992
   42MOL0     O 5583   3.610   6.948   8.456  0.0239 -0.3735 -0.1360
   42MOL0     C 5584   3.361   6.902   8.534 -0.7282  0.5580 -0.1654
   42MOL0     C 5585   3.227   6.901   8.578 -0.3339 -0.4112  0.1504
   42MOL0     N 5586   2.446   7.171   8.528 -0.3384  0.1601  0.7692
   42MOL0     N 5587   2.342   7.150   8.451  0.0925 -0.0308 -0.4088
   42MOL0     C 5588   2.213   7.328   7.438 -0.5843 -0.1534  0.5939
   42MOL0     C 5589   2.086   7.358   7.386 -0.0447 -0.3461  0.3946
   42MOL0     C 5590   1.699   7.275   7.163 -0.4470  0.6633  0.2936
   42MOL0     C 5591   1.598   7.182   7.122 -0.2294  0.2096  0.1170
   42MOL0     C 5592   1.463   7.213   7.134 -0.1289 -0.0287  0.3828
   42MOL0     C 5593   1.418   7.336   7.178 -0.9420 -0.2590  0.8445
   42MOL0     O 5594   1.291   7.385   7.186 -0.5051 -0.1677 -0.7610
   42MOL0     C 5595   1.191   7.292   7.242 -0.7647 -0.1431 -0.7708
   42MOL0     C 5596   1.052   7.328   7.201  0.5625 -0.2686  0.0826
   42MOL0     C 5597   0.979   7.369   7.329  0.0697  0.2503  0.8830
   42MOL0     C 5598   0.830   7.402   7.301  0.9173 -0.0979  0.7330
   42MOL0     C 5599   0.746   7.284   7.257  0.2211 -0.1874 -1.1339
   42MOL0     C 5600   0.657   7.203   7.225  0.6017 -0.1237 -0.1016
   42MOL0     C 5601   1.516   7.432   7.186 -0.7446 -0.0356 -0.4020
   42MOL0     C 5602   1.654   7.403   7.198 -0.5792 -0.9892 -0.2591
   42MOL0     H 5603   2.116   7.206   7.092  1.2793 -1.7791 -0.0882
   42MOL0     H 5604   2.366   7.175   7.183  2.0272  1.9032 -0.0053
   42MOL0     H 5605   2.393   7.031   7.427  0.6034 -0.2005 -0.1949
   42MOL0     H 5606   2.550   7.075   7.489  0.3732  1.2812  4.0073
   42MOL0     H 5607   2.469   7.123   7.701 -1.9910  1.5783  1.4498
   42MOL0     H 5608   2.306   7.160   7.642  1.1632  2.1366 -0.1860
   42MOL0     H 5609   2.263   6.927   7.639 -1.3584  2.4712  1.1886
   42MOL0     H 5610   2.436   6.882   7.654  0.8166 -0.2688  2.3012
   42MOL0     H 5611   2.225   6.988   7.847 -0.2369 -0.7309  2.8816
   42MOL0     H 5612   2.311   6.840   7.860  0.4856  0.6608 -1.2571
   42MOL0     H 5613   2.529   6.976   7.894  1.2863  2.9881  1.9617
   42MOL0     H 5614   2.414   7.114   7.921 -2.3894  1.3918  3.3321
   42MOL0     H 5615   2.436   6.866   8.093  1.0575 -0.3287 -0.9156
   42MOL0     H 5616   2.487   7.030   8.131  1.1796 -2.3824  0.4226
   42MOL0     H 5617   2.247   7.111   8.138 -1.4739 -1.1003 -1.2557
   42MOL0     H 5618   2.189   6.959   8.087 -0.8848  0.6157  2.2290
   42MOL0     H 5619   2.267   6.871   8.307  1.9985 -0.3051 -0.8052
   42MOL0     H 5620   2.162   7.016   8.315 -0.4272  0.4541 -1.5235
   42MOL0     H 5621   2.522   6.891   8.373  0.9512  1.1509  0.4869
   42MOL0     H 5622   2.747   7.044   8.485 -1.7885 -2.8741  0.4493
   42MOL0     H 5623   2.714   7.150   8.608  3.4215 -2.1287  3.8129
   42MOL0     H 5624   2.677   6.851   8.631  2.6083  0.0023 -0.5564
   42MOL0     H 5625   2.601   6.966   8.740 -1.5060 -3.2602 -1.1574
   42MOL0     H 5626   2.826   6.911   8.839 -1.4579  1.1895  0.7348
   42MOL0     H 5627   2.831   7.077   8.793 -1.5098  0.9553 -2.1481
   42MOL0     H 5628   2.940   6.829   8.670 -0.1928 -0.6782  1.6414
   42MOL0     H 5629   3.019   6.960   8.760 -0.6109 -1.8627  1.0500
   42MOL0     H 5630   3.075   7.034   8.307  0.3504 -0.5089  1.1225
   42MOL0     H 5631   3.226   7.181   8.187 -1.7587 -1.2516  1.2086
   42MOL0     H 5632   3.400   7.142   8.215  0.2531 -0.2217  0.5690
   42MOL0     H 5633   3.276   7.034   8.126 -0.5603  0.9303 -0.1296
   42MOL0     H 5634   3.665   6.668   8.256 -0.9669  0.3678 -0.3377
   42MOL0     H 5635   3.890   6.614   8.215 -0.4786 -0.0758 -2.4029
   42MOL0     H 5636   4.176   6.862   7.999  1.3508  1.2865 -0.7848
   42MOL0     H 5637   4.172   6.949   8.154  0.3711 -0.2606 -1.1701
   42MOL0     H 5638   4.405   6.900   8.128 -1.0489  0.7173 -1.3460
   42MOL0     H 5639   4.321   6.802   8.244  1.3109 -1.6181 -0.7841
   42MOL0     H 5640   4.419   6.707   7.971  0.9042 -3.2657  0.1908
   42MOL0     H 5641   4.303   6.615   8.069  1.3563 -0.3222  1.5910
   42MOL0     H 5642   4.590   6.701   8.129  1.4610 -1.5211 -2.3192
   42MOL0     H 5643   4.487   6.606   8.243 -3.7267 -2.9239 -0.7980
   42MOL0     H 5644   4.575   6.527   7.957  5.9684  0.8332  1.0114
   42MOL0     H 5645   4.483   6.427   8.082  1.3780 -0.7542  0.0234
   42MOL0     H 5646   4.766   6.550   8.082 -1.2367  1.1139  0.3062
   42MOL0     H 5647   4.714   6.454   8.212 -1.6700  5.4438  0.8395
   42MOL0     H 5648   4.680   6.281   7.992 -0.2220  0.5396 -1.5147
   42MOL0     H 5649   4.835   6.297   8.079  0.4134 -0.1174 -0.9944
   42MOL0     H 5650   4.745   6.435   7.823  0.8452  0.1414  0.3152
   42MOL0     H 5651   4.855   6.297   7.821  0.1520 -0.3304 -0.1935
   42MOL0     H 5652   3.974   7.013   8.075 -0.4169  0.5025  0.7817
   42MOL0     H 5653   3.733   7.067   8.130  1.3345  0.2690 -1.1825
   42MOL0     H 5654   3.432   6.856   8.602 -1.0052  0.5939  0.1508
   42MOL0     H 5655   3.210   6.861   8.677 -1.9937 -1.6403 -0.5720
   42MOL0     H 5656   2.236   7.344   7.543  0.5010 -1.3414  0.5657
   42MOL0     H 5657   2.015   7.401   7.456  1.6968 -0.3105  2.2257
   42MOL0     H 5658   1.623   7.087   7.077  0.2586 -0.2252  1.2495
   42MOL0     H 5659   1.396   7.130   7.110 -0.6964  0.0485  1.6172
   42MOL0     H 5660   1.217   7.195   7.197  1.0670 -0.1022  0.1164
   42MOL0     H 5661   1.193   7.266   7.348 -2.1212  1.0500 -0.4289
   42MOL0     H 5662   1.022   7.229   7.167  2.0781 -1.0424  0.8716
   42MOL0     H 5663   1.052   7.406   7.124 -0.5395  1.8744  2.1064
   42MOL0     H 5664   1.015   7.461   7.377 -1.7300  1.0049  0.8774
   42MOL0     H 5665   0.976   7.288   7.402  0.1750  1.6828  2.5478
   42MOL0     H 5666   0.823   7.468   7.214 -3.3458 -3.9205 -2.3078
   42MOL0     H 5667   0.785   7.461   7.381  0.8891 -0.3265  0.8874
   42MOL0     H 5668   0.567   7.156   7.191  0.8964 -0.1909 -0.8049
   42MOL0     H 5669   1.481   7.529   7.217 -1.2968 -0.8262  1.5718
   42MOL0     H 5670   1.723   7.475   7.240 -2.8437  1.3492 -0.3262
   43MOL0     O 5671   9.918   0.938   8.260 -0.0107  0.1923  0.4368
   43MOL0     C 5672  10.015   0.943   8.337  0.1285 -0.5664  0.3136
   43MOL0     O 5673  10.010   0.964   8.467  0.5725  0.1843  0.3082
   43MOL0     C 5674   9.893   1.018   8.517 -1.1814  0.8917  0.4498
   43MOL0     C 5675   9.822   0.945   8.612 -0.5027  0.7225 -1.0016
   43MOL0     C 5676   9.710   1.002   8.672 -0.9062 -0.0278 -0.2468
   43MOL0     C 5677   9.661   1.119   8.630  0.8077  0.7045  0.3680
   43MOL0     O 5678   9.553   1.171   8.700  0.4950  0.2373  0.0939
   43MOL0     C 5679   9.527   1.313   8.700  0.3771 -0.7982  0.7293
   43MOL0     C 5680   9.420   1.358   8.796  0.9333 -0.4794 -0.5853
   43MOL0     C 5681   9.403   1.509   8.794 -0.6105  1.3183  0.0227
   43MOL0     C 5682   9.262   1.566   8.830 -1.1998  0.2738 -0.0689
   43MOL0     C 5683   9.202   1.504   8.957  0.1107 -0.8684  0.1648
   43MOL0     C 5684   9.086   1.589   9.003 -0.3274 -0.6399  0.5448
   43MOL0     C 5685   9.011   1.502   9.107  0.0052  0.6369 -0.9965
   43MOL0     C 5686   8.867   1.560   9.137  0.0101  0.5182  0.8579
   43MOL0     N 5687   8.784   1.455   9.185 -0.2880  0.0131  0.0685
   43MOL0     C 5688   8.821   1.368   9.287 -0.4803 -1.0352  0.1524
   43MOL0     C 5689   8.707   1.335   9.349 -0.8454 -1.3390 -0.2999
   43MOL0     C 5690   8.695   1.243   9.465 -0.2889  1.0631  0.2505
   43MOL0     C 5691   8.709   1.298   9.609 -0.4196  0.4302 -0.2338
   43MOL0     C 5692   8.828   1.391   9.628  0.4769  0.8256  0.5464
   43MOL0     C 5693   8.819   1.436   9.771 -0.0028  0.7505 -0.0634
   43MOL0     O 5694   8.928   1.511   9.796 -0.0623 -0.5957  0.0333
   43MOL0     C 5695   8.986   1.518   9.925 -0.2362 -0.6317  0.8901
   43MOL0     C 5696   9.116   1.567   9.938  0.5439 -0.0912 -0.5284
   43MOL0     C 5697   9.179   1.570  10.065 -0.2047 -0.2361 -1.3425
   43MOL0     C 5698   9.308   1.644  10.092  1.1803 -0.2960 -0.3401
   43MOL0     C 5699   9.111   1.505  10.173 -0.9442 -1.3103  0.2204
   43MOL0     C 5700   9.169   1.512  10.303 -0.5127  0.4732 -0.1704
   43MOL0     O 5701   9.226   1.395  10.360  0.3269  0.3418  0.2268
   43MOL0     C 5702   9.309   1.406  10.470  0.3410 -0.3608  1.3654
   43MOL0     C 5703   9.440   1.449  10.465 -0.0727 -0.1663  0.0635
   43MOL0     C 5704   9.522   1.460  10.579  0.7448 -0.2906 -0.3099
   43MOL0     C 5705   9.472   1.448  10.701 -0.2733  0.3449  0.0866
   43MOL0     O 5706   9.548   1.483  10.813 -1.1323  0.0689 -1.1292
   43MOL0     C 5707   9.516   1.616  10.872  0.3389  0.8456  0.2458
   43MOL0     C 5708   9.466   1.593  11.017 -0.0987 -0.4062  0.7916
   43MOL0     C 5709   9.388   1.716  11.066 -0.4991  0.9219 -0.6133
   43MOL0     C 5710   9.356   1.705  11.216 -0.5280  0.4693 -0.4149
   43MOL0     C 5711   9.277   1.585  11.241 -0.5767  0.5288 -0.0270
   43MOL0     C 5712   9.253   1.575  11.391 -0.0214  0.4197 -0.7308
   43MOL0     C 5713   9.156   1.462  11.433 -0.7585 -0.0859 -0.0146
   43MOL0     C 5714   9.195   1.404  11.572 -0.3248 -0.3255 -0.2637
   43MOL0    Cl 5715   9.117   1.508  11.698 -0.3141 -0.2009 -0.0780
   43MOL0     C 5716   9.347   1.382  10.713  0.0207  0.8700  0.9782
   43MOL0     C 5717   9.262   1.369  10.597  0.6843  0.0214 -0.3976
   43MOL0     O 5718   9.165   1.622  10.363  0.7974  0.4849 -0.2749
   43MOL0     C 5719   8.987   1.444  10.159  1.0780 -0.2384  0.4048
   43MOL0     C 5720   8.919   1.462  10.038  0.5659 -0.1267 -0.7192
   43MOL0     N 5721   8.601   1.399   9.288 -0.5330  0.2688 -0.4130
   43MOL0     N 5722   8.645   1.461   9.189  0.1739 -0.5854  0.6675
   43MOL0     C 5723   9.727   1.191   8.529  0.6321  0.2090 -0.1468
   43MOL0     C 5724   9.850   1.143   8.478  0.6300 -0.5407 -0.0148
   43MOL0     C 5725  10.150   0.910   8.284 -0.4359  0.0956 -0.4861
   43MOL0     C 5726  10.160   0.876   8.149 -0.2180  0.3356 -0.1878
   43MOL0     C 5727  10.288   0.836   8.099  0.5183  0.2817 -0.7074
   43MOL0     C 5728  10.399   0.819   8.190  0.1521  0.4188 -0.0345
   43MOL0     O 5729  10.527   0.775   8.164 -0.1413  0.1400  0.3964
   43MOL0     C 5730  10.562   0.770   8.019  0.0629  0.6105 -0.1397
   43MOL0     C 5731  10.709   0.735   7.984 -0.3962  0.6763 -1.1562
   43MOL0     C 5732  10.810   0.816   8.065 -0.0281  0.7909  0.7267
   43MOL0     C 5733  10.952   0.787   8.009  0.0817 -0.2429  0.5380
   43MOL0     C 5734  11.050   0.849   8.103 -0.5250  0.2228  0.7319
   43MOL0     C 5735  11.111   0.903   8.189  0.0604 -0.6090 -0.4383
   43MOL0     C 5736  10.373   0.852   8.325 -0.4204  0.1766 -1.0731
   43MOL0     C 5737  10.255   0.901   8.369  0.0219  0.4721  0.2563
   43MOL0     H 5738   9.865   0.848   8.635 -0.1007  0.1045 -3.9158
   43MOL0     H 5739   9.655   0.945   8.747 -0.7566 -1.6171 -1.2953
   43MOL0     H 5740   9.619   1.362   8.733  0.5581  0.1499 -1.0522
   43MOL0     H 5741   9.496   1.340   8.599  5.3534 -1.7579 -1.3495
   43MOL0     H 5742   9.328   1.300   8.779  2.2668 -2.0981 -2.7499
   43MOL0     H 5743   9.452   1.324   8.895 -0.4686 -2.0093 -0.6099
   43MOL0     H 5744   9.467   1.536   8.879  1.5368  1.4292 -1.5616
   43MOL0     H 5745   9.442   1.542   8.698 -1.7721 -1.7803 -1.6791
   43MOL0     H 5746   9.270   1.674   8.844  1.4875  0.0991  0.2601
   43MOL0     H 5747   9.198   1.545   8.743  2.7817 -0.6305 -3.0679
   43MOL0     H 5748   9.166   1.404   8.932  2.3966 -1.0551 -3.0525
   43MOL0     H 5749   9.281   1.497   9.032  0.9709 -2.4651 -0.8235
   43MOL0     H 5750   9.124   1.680   9.051  3.7768 -2.5122  1.3092
   43MOL0     H 5751   9.028   1.599   8.911  0.3706  0.5347  0.2128
   43MOL0     H 5752   9.008   1.395   9.086  2.7965  0.5275 -1.2646
   43MOL0     H 5753   9.067   1.514   9.201 -1.6052  0.2209  0.0667
   43MOL0     H 5754   8.817   1.603   9.049 -0.2860  2.8368  2.0820
   43MOL0     H 5755   8.870   1.647   9.203  4.4211 -0.2111  1.9442
   43MOL0     H 5756   8.920   1.326   9.305 -0.6140 -0.3597  2.8128
   43MOL0     H 5757   8.593   1.205   9.458 -0.5137  1.8766 -1.7724
   43MOL0     H 5758   8.757   1.153   9.458 -3.0762 -1.4149  3.7385
   43MOL0     H 5759   8.728   1.219   9.682 -1.6256  0.2252 -0.1271
   43MOL0     H 5760   8.623   1.352   9.649  0.7810  0.8384  1.9243
   43MOL0     H 5761   8.824   1.484   9.571 -0.1007  1.7522  2.0548
   43MOL0     H 5762   8.922   1.337   9.612 -0.6369 -0.5844 -1.6602
   43MOL0     H 5763   8.829   1.340   9.823 -0.3595 -0.7935 -2.7106
   43MOL0     H 5764   8.735   1.502   9.797 -3.6017 -1.1467 -5.2783
   43MOL0     H 5765   9.153   1.613   9.847  0.8444 -2.0877 -1.4505
   43MOL0     H 5766   9.382   1.564  10.093 -0.9488 -2.4317 -1.8184
   43MOL0     H 5767   9.350   1.699  10.007  2.4238  0.6986  0.8744
   43MOL0     H 5768   9.299   1.715  10.175 -2.1331 -0.6705 -0.2206
   43MOL0     H 5769   9.487   1.475  10.370  2.7306  1.0248  1.6413
   43MOL0     H 5770   9.623   1.491  10.557  0.7905 -0.6506 -0.6120
   43MOL0     H 5771   9.609   1.673  10.884  0.3743  0.6643  0.8589
   43MOL0     H 5772   9.449   1.672  10.806 -1.9698 -1.1651  0.7639
   43MOL0     H 5773   9.396   1.509  11.016 -0.6477  0.0374  0.4052
   43MOL0     H 5774   9.555   1.568  11.074 -1.6723 -1.9921  2.7156
   43MOL0     H 5775   9.292   1.739  11.019 -0.6392  1.2372 -0.1848
   43MOL0     H 5776   9.439   1.813  11.066  2.1207 -0.2873  2.0057
   43MOL0     H 5777   9.448   1.695  11.275 -0.9619 -1.5040  0.0039
   43MOL0     H 5778   9.300   1.793  11.246 -1.8930 -0.2391 -0.7943
   43MOL0     H 5779   9.320   1.494  11.197  1.1575  0.8208  0.9857
   43MOL0     H 5780   9.174   1.587  11.203 -0.1045 -2.8647 -1.9686
   43MOL0     H 5781   9.349   1.568  11.443 -0.6487 -2.2496  0.2412
   43MOL0     H 5782   9.212   1.668  11.432  2.9579  0.8747  1.5943
   43MOL0     H 5783   9.178   1.384  11.360 -1.0151 -2.3508  2.1923
   43MOL0     H 5784   9.057   1.507  11.425  0.0898  1.9009  0.0039
   43MOL0     H 5785   9.303   1.388  11.571  0.2042  2.5876 -0.1506
   43MOL0     H 5786   9.161   1.301  11.584  1.4212 -1.0232 -1.0095
   43MOL0     H 5787   9.306   1.355  10.809  2.1383  2.5362  2.4492
   43MOL0     H 5788   9.167   1.316  10.603  0.6914 -0.0430 -0.7852
   43MOL0     H 5789   8.945   1.396  10.247 -0.7090 -0.6331 -0.6272
   43MOL0     H 5790   8.812   1.446  10.048 -0.0430  3.5126 -0.2162
   43MOL0     H 5791   9.691   1.290   8.503 -2.3547 -1.0493 -1.3160
   43MOL0     H 5792   9.894   1.206   8.401 -2.4034  0.8465 -0.7752
   43MOL0     H 5793  10.079   0.881   8.078 -0.6649  0.4489  0.3202
   43MOL0     H 5794  10.301   0.816   7.993 -0.0925  0.8687 -0.9055
   43MOL0     H 5795  10.496   0.693   7.976 -2.4845  2.4097  0.2817
   43MOL0     H 5796  10.543   0.869   7.978 -1.6509  1.2670  2.0124
   43MOL0     H 5797  10.747   0.758   7.884  1.6217  2.1512 -0.1174
   43MOL0     H 5798  10.715   0.628   8.008 -2.0212  0.8864  0.3835
   43MOL0     H 5799  10.798   0.790   8.171 -3.0574 -1.3844 -0.0146
   43MOL0     H 5800  10.792   0.924   8.058 -3.0208  0.4701  1.7911
   43MOL0     H 5801  10.973   0.843   7.918 -2.1092  1.8362  1.2196
   43MOL0     H 5802  10.958   0.681   7.981 -1.9736 -0.2075 -0.1944
   43MOL0     H 5803  11.161   0.963   8.262  0.6800  2.6905 -3.2912
   43MOL0     H 5804  10.458   0.843   8.392 -1.8381  3.5213  1.4395
   43MOL0     H 5805  10.240   0.917   8.476  0.8909 -1.5847  0.7405
   44MOL0     O 5806   0.049   8.935   2.807 -0.6773 -0.3566  0.4001
   44MOL0     C 5807   0.022   8.814   2.786  0.5386  0.6085  0.0060
   44MOL0     O 5808   0.120   8.722   2.776 -0.7408 -0.0468 -0.4850
   44MOL0     C 5809   0.261   8.743   2.798  1.0685 -0.0044  0.2266
   44MOL0     C 5810   0.354   8.674   2.710 -0.9543 -0.1964  0.0895
   44MOL0     C 5811   0.498   8.700   2.721  0.5407  0.0507  0.4444
   44MOL0     C 5812   0.550   8.789   2.816 -0.1120 -0.3923 -0.2787
   44MOL0     O 5813   0.687   8.818   2.825  0.2087 -0.3580  0.8640
   44MOL0     C 5814   0.768   8.798   2.704 -0.2369 -0.5409  0.0069
   44MOL0     C 5815   0.885   8.894   2.703 -0.7079 -0.2271 -0.7702
   44MOL0     C 5816   0.853   9.045   2.692 -0.3406 -0.5177 -0.9884
   44MOL0     C 5817   0.992   9.130   2.683  0.1697  0.0250 -0.5603
   44MOL0     C 5818   1.002   9.208   2.548 -0.8654 -0.3798  0.1540
   44MOL0     C 5819   1.015   9.134   2.422  0.0317 -0.3959  0.4379
   44MOL0     C 5820   1.146   9.050   2.402 -0.1926  0.6095  0.7057
   44MOL0     C 5821   1.122   8.971   2.270 -0.7019  0.0480  1.1216
   44MOL0     N 5822   1.239   8.884   2.236 -0.5097  0.3445  0.8017
   44MOL0     C 5823   1.366   8.915   2.262  0.4456 -0.0846  0.1601
   44MOL0     C 5824   1.435   8.801   2.287 -0.9764  0.0855 -0.0010
   44MOL0     C 5825   1.586   8.782   2.318 -0.7204  0.5524 -0.6811
   44MOL0     C 5826   1.622   8.712   2.454 -0.1707 -0.1946 -0.2860
   44MOL0     C 5827   1.772   8.673   2.461  0.3748 -0.4075  0.3402
   44MOL0     C 5828   1.790   8.619   2.605 -0.4227  0.0547  0.6593
   44MOL0     O 5829   1.723   8.492   2.616  0.0604 -0.0864 -0.6215
   44MOL0     C 5830   1.715   8.449   2.751 -0.0014 -1.0320 -0.2209
   44MOL0     C 5831   1.657   8.324   2.760  0.5568  0.1803  0.4004
   44MOL0     C 5832   1.655   8.249   2.881 -0.8399  0.4857  0.8228
   44MOL0     C 5833   1.580   8.120   2.867  0.0171 -0.1240 -0.3836
   44MOL0     C 5834   1.729   8.290   2.990  0.0745 -0.2944  0.5354
   44MOL0     C 5835   1.754   8.216   3.107  0.7839 -0.1826 -0.3237
   44MOL0     O 5836   1.759   8.090   3.094  0.6817  0.1661  0.2356
   44MOL0     C 5837   1.726   8.005   3.198  0.0417 -0.2039 -1.0312
   44MOL0     C 5838   1.615   7.910   3.195  0.1891 -0.4975  0.6329
   44MOL0     C 5839   1.603   7.811   3.296  0.6088 -0.4532 -0.1103
   44MOL0     C 5840   1.704   7.794   3.397 -0.0589 -1.2217 -0.3640
   44MOL0     O 5841   1.694   7.695   3.482  0.2003 -0.0360  0.8444
   44MOL0     C 5842   1.805   7.661   3.556 -0.3945 -0.0206 -0.9074
   44MOL0     C 5843   1.924   7.600   3.481  0.1046  0.2199  0.0417
   44MOL0     C 5844   2.001   7.491   3.554  0.7713 -0.1559 -0.4046
   44MOL0     C 5845   2.136   7.472   3.492  0.2644 -0.1637  0.4314
   44MOL0     C 5846   2.213   7.355   3.547 -0.0065  1.0275  0.3136
   44MOL0     C 5847   2.360   7.342   3.512 -0.8424  0.3360  0.5293
   44MOL0     C 5848   2.397   7.388   3.366  0.1827  0.7211 -0.0583
   44MOL0     C 5849   2.552   7.397   3.352 -1.0642  0.5934  0.2448
   44MOL0    Cl 5850   2.616   7.400   3.176  0.6002  0.1887  0.1223
   44MOL0     C 5851   1.799   7.895   3.398  0.5400 -0.1783 -0.3391
   44MOL0     C 5852   1.812   8.000   3.307  0.4053 -0.3765  0.2578
   44MOL0     O 5853   1.777   8.278   3.210  0.5356  0.6275 -0.4736
   44MOL0     C 5854   1.787   8.421   2.985 -0.2795 -0.2319  0.4711
   44MOL0     C 5855   1.781   8.503   2.871  0.6267  0.3467  0.2234
   44MOL0     N 5856   1.348   8.703   2.258 -0.6585 -0.0683  0.0197
   44MOL0     N 5857   1.227   8.747   2.233 -0.0975  0.2901  0.1630
   44MOL0     C 5858   0.461   8.850   2.906 -0.7101 -0.3995  1.2827
   44MOL0     C 5859   0.322   8.831   2.896  0.3951 -0.2693  0.3376
   44MOL0     C 5860  -0.114   8.769   2.785 -0.0244  0.0624 -0.4303
   44MOL0     C 5861  -0.217   8.862   2.823 -0.1047  1.3458 -0.5545
   44MOL0     C 5862  -0.342   8.818   2.825  0.6872  0.3441  0.5768
   44MOL0     C 5863  -0.374   8.683   2.797  0.0175  0.1467 -0.3497
   44MOL0     O 5864  -0.504   8.648   2.814 -0.1976  0.1876 -0.4051
   44MOL0     C 5865  -0.563   8.517   2.807  0.3009 -0.1357  0.5091
   44MOL0     C 5866  -0.714   8.548   2.814  1.4017 -0.0963  0.2495
   44MOL0     C 5867  -0.787   8.597   2.694  0.0031  0.2730  0.2146
   44MOL0     C 5868  -0.821   8.484   2.590 -0.1218 -0.4838  0.2868
   44MOL0     C 5869  -0.879   8.541   2.468 -0.5931 -0.2224  0.3151
   44MOL0     C 5870  -0.903   8.592   2.361  0.3420  0.0680 -0.6315
   44MOL0     C 5871  -0.280   8.587   2.749  0.2634 -0.9019 -0.0301
   44MOL0     C 5872  -0.149   8.631   2.739 -0.2831  0.6674 -0.5091
   44MOL0     H 5873   0.320   8.604   2.634  1.3910 -3.7800  2.0414
   44MOL0     H 5874   0.566   8.653   2.651  0.9158 -1.0035  1.5058
   44MOL0     H 5875   0.806   8.696   2.707  0.5538 -0.2454  0.2324
   44MOL0     H 5876   0.710   8.811   2.612  0.1521 -0.9614 -0.3019
   44MOL0     H 5877   0.933   8.886   2.801 -1.9429  1.3773  0.0083
   44MOL0     H 5878   0.962   8.866   2.631  0.5078  2.1787 -0.5077
   44MOL0     H 5879   0.782   9.073   2.613  1.0351  0.0331 -2.0708
   44MOL0     H 5880   0.808   9.075   2.787 -0.8966 -2.9670 -0.3888
   44MOL0     H 5881   0.985   9.197   2.769 -0.2056  1.0008 -1.3333
   44MOL0     H 5882   1.085   9.074   2.699  1.3492  2.1168  0.2284
   44MOL0     H 5883   0.914   9.271   2.531  0.4507  1.0289 -2.0147
   44MOL0     H 5884   1.083   9.281   2.550 -2.6967  1.8458 -1.3459
   44MOL0     H 5885   0.923   9.076   2.430 -0.6999  0.8049  1.1232
   44MOL0     H 5886   1.011   9.210   2.343  0.8584 -0.2000  0.5803
   44MOL0     H 5887   1.226   9.123   2.388 -0.0413  0.6327  1.5802
   44MOL0     H 5888   1.185   8.991   2.486 -1.7336  1.8553  2.3848
   44MOL0     H 5889   1.121   9.044   2.189  1.0687  1.2917  2.1347
   44MOL0     H 5890   1.035   8.906   2.268 -1.0577  0.4569 -2.2524
   44MOL0     H 5891   1.395   9.020   2.268 -3.4144  1.3241 -1.8958
   44MOL0     H 5892   1.630   8.720   2.240 -0.0917 -2.3443  1.8052
   44MOL0     H 5893   1.634   8.880   2.315 -3.0379  1.7586 -2.5605
   44MOL0     H 5894   1.555   8.630   2.483 -2.9418  1.1521 -2.5053
   44MOL0     H 5895   1.615   8.770   2.546  0.6721  0.3613 -0.5646
   44MOL0     H 5896   1.838   8.760   2.453  1.4505 -1.0398  1.7885
   44MOL0     H 5897   1.785   8.596   2.384 -0.3598  0.2438 -0.4526
   44MOL0     H 5898   1.732   8.686   2.669 -2.2180  0.9306 -1.7447
   44MOL0     H 5899   1.897   8.618   2.627  0.0818  1.6733 -1.4116
   44MOL0     H 5900   1.621   8.267   2.674  0.2912  0.4038  0.3620
   44MOL0     H 5901   1.525   8.103   2.959  1.9384 -1.0938  0.6643
   44MOL0     H 5902   1.510   8.123   2.783 -0.5914 -1.3997  0.0583
   44MOL0     H 5903   1.646   8.033   2.859  1.4745  0.5964  2.3933
   44MOL0     H 5904   1.552   7.912   3.107  0.0286 -1.2436  0.7249
   44MOL0     H 5905   1.516   7.747   3.286  1.1785 -1.5028  1.3324
   44MOL0     H 5906   1.829   7.756   3.605 -3.3153  0.5207 -0.3442
   44MOL0     H 5907   1.778   7.589   3.633  1.6994 -2.5039 -2.3116
   44MOL0     H 5908   1.881   7.557   3.391 -3.1747 -1.1874  2.0884
   44MOL0     H 5909   1.999   7.674   3.452  1.4065 -1.5262 -1.2245
   44MOL0     H 5910   1.939   7.401   3.561  0.3765  0.1200 -0.3120
   44MOL0     H 5911   2.019   7.518   3.659  3.0095 -2.5097 -0.0768
   44MOL0     H 5912   2.123   7.472   3.383  1.5030 -0.4723  0.2694
   44MOL0     H 5913   2.185   7.568   3.513  0.6918 -0.0646 -0.9107
   44MOL0     H 5914   2.165   7.261   3.520  1.0018  0.2222  1.2427
   44MOL0     H 5915   2.223   7.355   3.655 -1.2660 -3.2037  0.6016
   44MOL0     H 5916   2.409   7.409   3.583  2.2229 -2.0473  0.8746
   44MOL0     H 5917   2.394   7.242   3.540 -1.4117  0.2861  1.0614
   44MOL0     H 5918   2.358   7.489   3.349  0.4120  0.4302 -2.8155
   44MOL0     H 5919   2.345   7.311   3.308 -0.3982  0.1387  1.2014
   44MOL0     H 5920   2.608   7.318   3.402  2.7871  3.4872  0.9002
   44MOL0     H 5921   2.587   7.488   3.402  1.0278  3.2807 -5.2763
   44MOL0     H 5922   1.868   7.902   3.482  1.1284  2.3632 -0.9469
   44MOL0     H 5923   1.882   8.082   3.318 -0.3273  0.9901 -3.5735
   44MOL0     H 5924   1.852   8.453   3.066 -0.7711 -2.6407  1.9027
   44MOL0     H 5925   1.832   8.597   2.887  0.8820  0.4756 -1.2486
   44MOL0     H 5926   0.498   8.926   2.974  0.2703  1.6859 -1.3723
   44MOL0     H 5927   0.261   8.892   2.961  1.5018  0.5619  0.6239
   44MOL0     H 5928  -0.212   8.960   2.869  1.0058  0.1677  1.9582
   44MOL0     H 5929  -0.417   8.889   2.859 -1.9539 -2.9495  2.3462
   44MOL0     H 5930  -0.540   8.466   2.713  1.3160  0.1923  0.5635
   44MOL0     H 5931  -0.533   8.446   2.884 -0.4333 -0.8689  0.1380
   44MOL0     H 5932  -0.733   8.621   2.894 -2.5580 -0.9352  0.2703
   44MOL0     H 5933  -0.767   8.459   2.851 -2.2521  1.7289 -0.1451
   44MOL0     H 5934  -0.720   8.660   2.635  0.8190  0.3436  1.1861
   44MOL0     H 5935  -0.877   8.650   2.728 -0.8719  1.3887 -3.3980
   44MOL0     H 5936  -0.890   8.411   2.634 -2.1008  1.9395  1.4457
   44MOL0     H 5937  -0.726   8.437   2.561  0.4418  1.2817 -0.9049
   44MOL0     H 5938  -0.922   8.637   2.265  4.4850  0.6493 -1.3605
   44MOL0     H 5939  -0.305   8.482   2.736 -0.3385 -0.6092 -1.3279
   44MOL0     H 5940  -0.065   8.567   2.713  1.5054  2.2796  1.0314
   45MOL0     O 5941   9.577   3.829   8.837 -0.2483  0.3690 -0.4717
   45MOL0     C 5942   9.701   3.816   8.840 -0.7987  0.2603  0.1740
   45MOL0     O 5943   9.772   3.706   8.867 -0.1151 -0.2163 -0.0927
   45MOL0     C 5944   9.699   3.593   8.891 -1.1244 -0.2248  0.1178
   45MOL0     C 5945   9.591   3.583   8.975 -0.4175  0.3455 -1.0137
   45MOL0     C 5946   9.537   3.460   8.997  0.3016  0.1860 -1.5522
   45MOL0     C 5947   9.593   3.337   8.948  0.0877 -1.0359  0.4665
   45MOL0     O 5948   9.549   3.213   8.988 -1.1008 -0.0398  0.3845
   45MOL0     C 5949   9.406   3.186   8.978  0.7910  0.7015  0.0149
   45MOL0     C 5950   9.382   3.141   8.834 -0.0910 -0.4260  0.1884
   45MOL0     C 5951   9.398   2.992   8.827  0.1969  0.4988 -0.3899
   45MOL0     C 5952   9.442   2.936   8.693  0.2227 -0.9938 -0.2492
   45MOL0     C 5953   9.457   2.782   8.689  0.1222 -0.8589 -0.4404
   45MOL0     C 5954   9.514   2.725   8.563  0.0649 -0.5456 -0.3373
   45MOL0     C 5955   9.564   2.586   8.578 -1.0455 -0.0008  0.6566
   45MOL0     C 5956   9.594   2.524   8.439 -0.1214  0.5614  1.3134
   45MOL0     N 5957   9.498   2.416   8.402 -0.1844  0.4246 -0.5265
   45MOL0     C 5958   9.517   2.277   8.432  0.6522 -0.0489  0.4352
   45MOL0     C 5959   9.392   2.230   8.404 -0.5415 -0.2897  0.2580
   45MOL0     C 5960   9.366   2.077   8.401  0.1720  0.1882 -0.1958
   45MOL0     C 5961   9.223   2.056   8.431 -0.5652 -0.3038 -0.3237
   45MOL0     C 5962   9.197   1.899   8.453  0.2019  0.7899 -0.0236
   45MOL0     C 5963   9.234   1.837   8.590  1.1665  0.3486 -0.3447
   45MOL0     O 5964   9.169   1.901   8.701 -0.6847  0.5017 -0.2877
   45MOL0     C 5965   9.048   1.853   8.731 -0.4048  0.1974  0.2943
   45MOL0     C 5966   8.986   1.908   8.841  0.1562 -0.2644 -0.1036
   45MOL0     C 5967   8.854   1.888   8.876  0.1102  0.0051 -0.6903
   45MOL0     C 5968   8.783   1.998   8.959  0.1705  0.9177 -0.2342
   45MOL0     C 5969   8.786   1.774   8.815  0.0342 -1.0564 -0.5679
   45MOL0     C 5970   8.640   1.740   8.844 -0.3131 -0.7684  0.0250
   45MOL0     O 5971   8.575   1.685   8.737 -0.4507 -0.1131  0.3909
   45MOL0     C 5972   8.465   1.604   8.759  0.5479 -0.1765  0.3995
   45MOL0     C 5973   8.366   1.621   8.665  1.4005  0.7796 -0.1174
   45MOL0     C 5974   8.242   1.561   8.668 -0.0051  0.0130 -0.3452
   45MOL0     C 5975   8.218   1.480   8.780 -0.0613  0.0082 -0.3973
   45MOL0     O 5976   8.097   1.409   8.771 -0.2439  0.0048 -0.5616
   45MOL0     C 5977   8.057   1.347   8.893 -0.2514  0.8349 -0.0062
   45MOL0     C 5978   7.916   1.296   8.903  0.1425  0.5688  0.0349
   45MOL0     C 5979   7.900   1.179   9.011  0.0874 -0.3304  1.2106
   45MOL0     C 5980   7.943   1.212   9.149 -0.5444 -0.3655  0.7918
   45MOL0     C 5981   7.829   1.277   9.229  0.6802  0.1985  0.0416
   45MOL0     C 5982   7.727   1.165   9.274  0.8050  0.2569  0.9843
   45MOL0     C 5983   7.589   1.225   9.306  0.2213 -0.4498  0.7908
   45MOL0     C 5984   7.505   1.241   9.177  0.4606  0.6239  0.2411
   45MOL0    Cl 5985   7.354   1.321   9.215  0.4480 -0.0190  0.2717
   45MOL0     C 5986   8.320   1.452   8.872  0.0577  0.3922 -0.9320
   45MOL0     C 5987   8.439   1.522   8.871  0.2846 -0.5318 -0.9463
   45MOL0     O 5988   8.601   1.755   8.965  0.7657  0.1427  0.6102
   45MOL0     C 5989   8.848   1.709   8.706 -0.0947  0.7067 -0.1081
   45MOL0     C 5990   8.968   1.756   8.661 -0.4137 -0.2858 -0.8564
   45MOL0     N 5991   9.316   2.334   8.346 -0.9676  0.2501 -0.4755
   45MOL0     N 5992   9.378   2.438   8.352  1.1211  0.1740 -0.5177
   45MOL0     C 5993   9.696   3.353   8.852 -0.9612  0.1031  0.4152
   45MOL0     C 5994   9.755   3.475   8.823  0.1128  0.7064 -0.0963
   45MOL0     C 5995   9.784   3.931   8.803  0.3347  0.4085  0.2214
   45MOL0     C 5996   9.742   4.052   8.749  0.7050 -0.4643 -0.6372
   45MOL0     C 5997   9.832   4.149   8.701  0.5466  0.1430  0.3528
   45MOL0     C 5998   9.973   4.130   8.712  0.3824 -0.6130 -0.1163
   45MOL0     O 5999  10.072   4.220   8.669 -0.0007  0.4067  0.2632
   45MOL0     C 6000  10.213   4.192   8.671 -0.7390  0.3921  0.1415
   45MOL0     C 6001  10.277   4.226   8.816  1.0967  1.2299  0.3013
   45MOL0     C 6002  10.413   4.163   8.827 -0.6417 -0.0885  0.7405
   45MOL0     C 6003  10.511   4.222   8.926  0.7916  1.0799 -0.8150
   45MOL0     C 6004  10.642   4.159   8.928  0.5166  0.2935 -1.4370
   45MOL0     C 6005  10.748   4.094   8.933 -0.5694  0.2554 -0.5969
   45MOL0     C 6006  10.012   4.009   8.762  0.1965 -0.2837  0.0244
   45MOL0     C 6007   9.922   3.909   8.808  0.3777 -0.0752  1.1210
   45MOL0     H 6008   9.576   3.671   9.038 -2.6383  0.1365 -1.1730
   45MOL0     H 6009   9.480   3.451   9.090  0.1505  2.0410 -1.4293
   45MOL0     H 6010   9.364   3.110   9.045  0.0304  0.0855 -1.1104
   45MOL0     H 6011   9.346   3.276   8.995  0.2032  0.0943  1.2670
   45MOL0     H 6012   9.284   3.163   8.791 -0.4299  0.7438  1.5091
   45MOL0     H 6013   9.461   3.182   8.770  2.0868 -2.4884  1.3939
   45MOL0     H 6014   9.459   2.959   8.911  1.1239  2.4836 -0.2185
   45MOL0     H 6015   9.307   2.934   8.847  0.5246 -0.0306 -0.4220
   45MOL0     H 6016   9.364   2.968   8.623  0.6859  0.5300 -0.1010
   45MOL0     H 6017   9.537   2.988   8.679 -0.1455  1.0592  3.5693
   45MOL0     H 6018   9.520   2.757   8.776  0.5123 -0.8643 -0.7249
   45MOL0     H 6019   9.364   2.731   8.716  1.9572 -2.7924  3.0608
   45MOL0     H 6020   9.436   2.725   8.486 -0.5648 -0.3625  0.2792
   45MOL0     H 6021   9.599   2.784   8.528  1.2263 -2.7285 -1.3157
   45MOL0     H 6022   9.658   2.597   8.634 -1.5064  1.5605  1.1644
   45MOL0     H 6023   9.491   2.528   8.635  0.5427 -1.5640  1.2283
   45MOL0     H 6024   9.695   2.484   8.427  0.4420  2.2870 -0.1821
   45MOL0     H 6025   9.604   2.601   8.361  1.8373  1.7822  2.6991
   45MOL0     H 6026   9.609   2.237   8.474  0.3477  0.5359  1.7160
   45MOL0     H 6027   9.375   2.037   8.300 -2.0814  2.1090 -1.2575
   45MOL0     H 6028   9.427   2.026   8.476 -0.2703  1.7894  1.3211
   45MOL0     H 6029   9.164   2.086   8.344 -1.1814  2.2770  0.9034
   45MOL0     H 6030   9.194   2.120   8.515  1.8087  0.1716  0.2079
   45MOL0     H 6031   9.243   1.847   8.368  1.6699  1.8794  0.0610
   45MOL0     H 6032   9.089   1.892   8.438 -0.1787  3.3089  1.0737
   45MOL0     H 6033   9.343   1.837   8.604  1.1015 -0.2723  0.2077
   45MOL0     H 6034   9.211   1.731   8.598 -0.0318  0.7053  1.4682
   45MOL0     H 6035   9.044   1.983   8.892  0.8873 -0.0503 -1.2037
   45MOL0     H 6036   8.821   2.100   8.957 -0.2004  1.0717  0.4706
   45MOL0     H 6037   8.682   2.006   8.918  0.3979 -0.9427 -1.2786
   45MOL0     H 6038   8.770   1.972   9.064  0.1264 -3.2246 -1.0733
   45MOL0     H 6039   8.388   1.679   8.575 -0.7339  0.0952 -1.1534
   45MOL0     H 6040   8.169   1.581   8.589 -0.4871 -0.8712 -0.1391
   45MOL0     H 6041   8.119   1.258   8.909  1.2225  2.0016  0.9316
   45MOL0     H 6042   8.087   1.418   8.971 -2.0970  0.0968  1.4514
   45MOL0     H 6043   7.848   1.376   8.933 -0.0728 -0.2857  1.9873
   45MOL0     H 6044   7.868   1.264   8.810  1.8690 -0.6896 -0.4847
   45MOL0     H 6045   7.959   1.101   8.963 -3.4283 -1.2375 -2.1715
   45MOL0     H 6046   7.800   1.137   8.997 -0.7980  0.4404  4.4701
   45MOL0     H 6047   7.975   1.121   9.201 -2.4580 -0.2647  2.2819
   45MOL0     H 6048   8.025   1.284   9.148 -3.1421  2.8778 -1.2481
   45MOL0     H 6049   7.780   1.348   9.162  1.6429 -0.0916 -1.0178
   45MOL0     H 6050   7.846   1.327   9.324 -0.2818  1.0893 -0.2418
   45MOL0     H 6051   7.712   1.101   9.187 -0.4261  0.8965  0.7139
   45MOL0     H 6052   7.769   1.103   9.355 -0.6658 -1.5827  0.4030
   45MOL0     H 6053   7.604   1.308   9.376 -0.3385 -0.0377  0.4301
   45MOL0     H 6054   7.522   1.156   9.359 -1.3585 -2.2394 -3.1295
   45MOL0     H 6055   7.474   1.142   9.143  0.1286  1.7246 -3.1131
   45MOL0     H 6056   7.554   1.302   9.100  2.3245  2.4066  2.6870
   45MOL0     H 6057   8.305   1.377   8.949 -3.2547  2.2887  0.4385
   45MOL0     H 6058   8.517   1.496   8.941 -0.4739 -0.9047 -0.2143
   45MOL0     H 6059   8.793   1.646   8.637 -1.2020 -0.4929  1.7794
   45MOL0     H 6060   9.002   1.714   8.568  1.0339  1.0418 -0.9626
   45MOL0     H 6061   9.720   3.260   8.802 -1.0159  1.6868 -2.8336
   45MOL0     H 6062   9.842   3.491   8.759 -0.0312 -2.4504 -1.2624
   45MOL0     H 6063   9.634   4.063   8.743  0.6819 -0.8445 -0.9498
   45MOL0     H 6064   9.800   4.249   8.673  4.5662  1.1240 -1.4041
   45MOL0     H 6065  10.228   4.092   8.630  0.4530 -0.2833  2.0604
   45MOL0     H 6066  10.266   4.258   8.602 -1.5230 -0.5454 -1.4217
   45MOL0     H 6067  10.203   4.179   8.882 -0.4536  3.4951  0.3095
   45MOL0     H 6068  10.268   4.333   8.837 -4.2776  1.2531 -0.5048
   45MOL0     H 6069  10.476   4.165   8.738 -1.0674 -0.8122  0.4131
   45MOL0     H 6070  10.398   4.057   8.850  0.2613 -0.5921 -0.8670
   45MOL0     H 6071  10.468   4.209   9.026 -1.5599 -1.4301 -2.0264
   45MOL0     H 6072  10.523   4.326   8.894 -1.2789  0.6863 -3.1485
   45MOL0     H 6073  10.836   4.039   8.958  2.0520  4.6613  0.9342
   45MOL0     H 6074  10.118   3.992   8.777  0.0848 -0.5700  0.5066
   45MOL0     H 6075   9.969   3.817   8.843 -2.3156 -0.4551  4.2224
   46MOL0     O 6076   9.197   5.273   5.577  0.2665 -0.5609  0.1487
   46MOL0     C 6077   9.295   5.288   5.504 -0.4587  0.0640  0.2267
   46MOL0     O 6078   9.429   5.247   5.539 -0.3924 -0.3962  0.0731
   46MOL0     C 6079   9.460   5.199   5.659 -0.3694  0.6934  0.6680
   46MOL0     C 6080   9.452   5.057   5.672 -0.3522 -0.2387  0.2868
   46MOL0     C 6081   9.467   5.002   5.798  1.1295 -0.8027 -0.2744
   46MOL0     C 6082   9.490   5.076   5.912 -0.0106  0.3169 -0.1383
   46MOL0     O 6083   9.498   5.003   6.026 -0.2527 -0.3703 -0.2129
   46MOL0     C 6084   9.593   5.047   6.129  0.3142  0.3137  1.0477
   46MOL0     C 6085   9.638   4.923   6.212 -0.7845 -1.0625 -0.4649
   46MOL0     C 6086   9.711   4.807   6.140 -0.1337 -0.9722  0.6405
   46MOL0     C 6087   9.617   4.688   6.095 -0.5113  0.6968 -0.5147
   46MOL0     C 6088   9.698   4.546   6.077 -0.2167  0.8139  0.4908
   46MOL0     C 6089   9.792   4.550   5.950 -0.0049  0.9271  0.4184
   46MOL0     C 6090   9.852   4.416   5.897 -0.4785  0.5211 -0.1246
   46MOL0     C 6091   9.916   4.319   6.002  0.2955 -0.3586  0.7896
   46MOL0     N 6092  10.010   4.240   5.923  0.2631  0.1575  0.5456
   46MOL0     C 6093  10.137   4.288   5.906 -0.3424 -0.3296  0.6505
   46MOL0     C 6094  10.192   4.206   5.819 -0.8619 -0.1201  0.0408
   46MOL0     C 6095  10.333   4.211   5.770 -0.6615 -0.1094 -0.4519
   46MOL0     C 6096  10.365   4.355   5.722  0.2985  0.5136  0.0640
   46MOL0     C 6097  10.294   4.393   5.599  0.5684 -0.4599  0.3715
   46MOL0     C 6098  10.353   4.520   5.531  0.5907  0.3659  0.2578
   46MOL0     O 6099  10.313   4.525   5.389  0.2547  0.3008  0.0654
   46MOL0     C 6100  10.189   4.562   5.358 -0.0182 -0.8664  0.6072
   46MOL0     C 6101  10.128   4.473   5.277 -0.0638  0.4008 -0.7291
   46MOL0     C 6102   9.988   4.485   5.237  0.6678  0.3596 -0.2503
   46MOL0     C 6103   9.927   4.364   5.164 -0.2643  0.3905 -0.9391
   46MOL0     C 6104   9.912   4.599   5.290  0.4579  0.0661 -0.3315
   46MOL0     C 6105   9.775   4.626   5.244 -0.3836 -0.6783  0.1237
   46MOL0     O 6106   9.691   4.689   5.335  0.1408  0.0240 -0.2842
   46MOL0     C 6107   9.559   4.704   5.318 -0.1685 -0.0051  0.4452
   46MOL0     C 6108   9.486   4.729   5.438  0.3103 -0.4747  0.2258
   46MOL0     C 6109   9.345   4.761   5.447 -0.4715  1.0133  0.0232
   46MOL0     C 6110   9.277   4.759   5.329 -0.1802 -0.8808  0.0969
   46MOL0     O 6111   9.143   4.780   5.348  0.8632  0.3575  0.8512
   46MOL0     C 6112   9.050   4.743   5.240  1.0858  0.2276 -0.3773
   46MOL0     C 6113   8.915   4.804   5.279 -0.8983 -0.1929 -0.4432
   46MOL0     C 6114   8.846   4.731   5.387 -0.9153 -0.9003 -0.9693
   46MOL0     C 6115   8.773   4.607   5.337  1.2447 -0.5483  0.4627
   46MOL0     C 6116   8.686   4.548   5.450 -0.1999  0.6870  0.7129
   46MOL0     C 6117   8.592   4.442   5.389 -0.5919  0.7825  0.4888
   46MOL0     C 6118   8.492   4.380   5.481  0.3029  1.0236 -0.3596
   46MOL0     C 6119   8.384   4.473   5.529  0.4771  0.4705 -0.3263
   46MOL0    Cl 6120   8.229   4.379   5.552 -0.2477  0.1435  0.2412
   46MOL0     C 6121   9.344   4.747   5.208  0.1140 -0.2137  0.5128
   46MOL0     C 6122   9.481   4.732   5.201  0.1704 -0.2356 -0.9032
   46MOL0     O 6123   9.744   4.595   5.127 -0.3350 -0.1572 -0.0592
   46MOL0     C 6124   9.974   4.683   5.388 -0.0408 -0.4350  0.3657
   46MOL0     C 6125  10.110   4.669   5.419 -0.7640  0.6990  0.8642
   46MOL0     N 6126  10.091   4.131   5.764  0.1453 -0.7078  0.0645
   46MOL0     N 6127   9.980   4.144   5.829  0.0136 -0.2719 -0.4863
   46MOL0     C 6128   9.487   5.217   5.897 -0.4862  0.0236 -0.3324
   46MOL0     C 6129   9.471   5.280   5.772  0.3943  0.0035  0.3127
   46MOL0     C 6130   9.288   5.364   5.371 -0.2174  0.2020 -0.2932
   46MOL0     C 6131   9.394   5.364   5.279 -0.3783 -0.1294 -0.6842
   46MOL0     C 6132   9.376   5.442   5.156  0.1826  0.3002  0.3644
   46MOL0     C 6133   9.247   5.499   5.131 -0.0113  0.4460  0.4133
   46MOL0     O 6134   9.222   5.562   5.008  0.2504 -0.8873 -0.3000
   46MOL0     C 6135   9.312   5.538   4.896  0.2594  0.4132 -0.3183
   46MOL0     C 6136   9.230   5.590   4.783 -0.1782  0.1588 -0.5635
   46MOL0     C 6137   9.113   5.501   4.762  0.5691 -0.0594 -0.6599
   46MOL0     C 6138   9.021   5.554   4.645  0.6571 -0.1297 -0.3306
   46MOL0     C 6139   8.882   5.517   4.684  0.6702  0.5887 -0.8490
   46MOL0     C 6140   8.768   5.484   4.705  1.2987 -0.0017  0.3014
   46MOL0     C 6141   9.147   5.503   5.226  0.7749  0.5574  0.5897
   46MOL0     C 6142   9.162   5.433   5.341 -0.8883  0.8187  0.1831
   46MOL0     H 6143   9.441   4.988   5.589  0.6831  0.0802 -0.1301
   46MOL0     H 6144   9.468   4.895   5.811  0.1468 -0.7124  0.6206
   46MOL0     H 6145   9.673   5.113   6.095 -1.1792  0.8587 -1.6763
   46MOL0     H 6146   9.539   5.109   6.201  0.2483  0.1348  1.1537
   46MOL0     H 6147   9.714   4.957   6.284 -2.6835 -1.2481  1.7495
   46MOL0     H 6148   9.553   4.896   6.276  1.1925 -2.7096  1.6528
   46MOL0     H 6149   9.757   4.856   6.054 -0.8424  2.3991  2.0138
   46MOL0     H 6150   9.790   4.771   6.207  1.4241 -2.0435 -1.6372
   46MOL0     H 6151   9.540   4.665   6.168  1.5582 -1.9253  1.0275
   46MOL0     H 6152   9.562   4.706   6.002 -1.4875  2.3915  0.3464
   46MOL0     H 6153   9.755   4.520   6.167  0.6625 -0.1793 -0.3187
   46MOL0     H 6154   9.628   4.464   6.056  1.8643 -0.6701 -1.1862
   46MOL0     H 6155   9.749   4.607   5.867  4.5117  2.9910 -0.8201
   46MOL0     H 6156   9.878   4.614   5.970  0.3135  0.3046  1.0641
   46MOL0     H 6157   9.788   4.351   5.837  0.5805 -2.0947  1.4317
   46MOL0     H 6158   9.928   4.451   5.827 -1.2289  3.2604  0.3124
   46MOL0     H 6159   9.833   4.259   6.040 -2.0712 -0.2511 -3.5376
   46MOL0     H 6160   9.975   4.373   6.077  2.2416 -1.0373 -0.1715
   46MOL0     H 6161  10.184   4.363   5.968  2.4450  0.1071 -1.8061
   46MOL0     H 6162  10.395   4.188   5.857  0.0047  2.0218 -0.2966
   46MOL0     H 6163  10.347   4.142   5.687  1.1191  2.4096 -2.4220
   46MOL0     H 6164  10.470   4.363   5.690  0.2714  1.3740  0.1823
   46MOL0     H 6165  10.338   4.413   5.810 -0.4098  0.1808  0.0774
   46MOL0     H 6166  10.188   4.406   5.624  0.5226 -1.2970  0.6405
   46MOL0     H 6167  10.300   4.311   5.527 -0.0992 -0.6494  0.5266
   46MOL0     H 6168  10.460   4.498   5.527  0.3042 -0.9402 -2.0956
   46MOL0     H 6169  10.328   4.618   5.572 -0.0612  2.0808 -3.8011
   46MOL0     H 6170  10.191   4.399   5.230  0.7721  0.3965  0.3614
   46MOL0     H 6171   9.823   4.359   5.197 -0.8360  5.0344 -1.3581
   46MOL0     H 6172   9.940   4.375   5.056 -1.9968  1.5341 -1.0648
   46MOL0     H 6173   9.963   4.269   5.203 -0.8443  0.2771 -0.6756
   46MOL0     H 6174   9.529   4.732   5.538 -0.6405  1.9284  0.6329
   46MOL0     H 6175   9.286   4.769   5.537  1.0961  0.2154  1.1800
   46MOL0     H 6176   9.078   4.791   5.146  0.7418  2.0547  0.4117
   46MOL0     H 6177   9.040   4.635   5.226  0.2772 -0.0531  1.9893
   46MOL0     H 6178   8.944   4.904   5.314  0.6751 -0.1493 -1.7289
   46MOL0     H 6179   8.846   4.809   5.194  0.5071  0.8970 -1.5809
   46MOL0     H 6180   8.782   4.800   5.442  0.2735 -0.3802 -0.1903
   46MOL0     H 6181   8.919   4.704   5.464  0.7521  1.4745 -1.6269
   46MOL0     H 6182   8.699   4.644   5.265 -0.4207  2.5561  3.4484
   46MOL0     H 6183   8.843   4.546   5.280  0.4117  3.0255 -5.2659
   46MOL0     H 6184   8.621   4.624   5.495 -2.4545 -1.0530  0.5476
   46MOL0     H 6185   8.755   4.512   5.527 -1.3350 -0.1261  1.3874
   46MOL0     H 6186   8.544   4.489   5.303  1.4526  0.5225 -0.8721
   46MOL0     H 6187   8.645   4.360   5.340 -1.1173  0.2429  0.8202
   46MOL0     H 6188   8.535   4.341   5.574 -0.5452 -1.6856 -1.0287
   46MOL0     H 6189   8.440   4.299   5.430  1.8893 -1.4684  1.7473
   46MOL0     H 6190   8.378   4.550   5.451  3.2317 -0.2596 -1.3754
   46MOL0     H 6191   8.411   4.523   5.622  1.1507 -1.4060  0.5357
   46MOL0     H 6192   9.270   4.750   5.129 -0.3357  1.7160  0.9474
   46MOL0     H 6193   9.531   4.712   5.107 -0.5408 -1.0766 -1.1113
   46MOL0     H 6194   9.922   4.770   5.426 -1.5717 -0.8448 -0.7067
   46MOL0     H 6195  10.167   4.728   5.490 -0.7950  2.6003 -0.6239
   46MOL0     H 6196   9.487   5.270   5.992 -2.2337  1.9767 -1.3514
   46MOL0     H 6197   9.453   5.387   5.775 -0.7064 -0.1441 -0.3685
   46MOL0     H 6198   9.490   5.314   5.288  0.0523  0.9536  1.3409
   46MOL0     H 6199   9.452   5.446   5.078 -1.0698  2.2078 -0.8365
   46MOL0     H 6200   9.405   5.596   4.909 -0.2027  0.7615  1.7220
   46MOL0     H 6201   9.332   5.433   4.873  0.8368  0.8123 -1.7715
   46MOL0     H 6202   9.293   5.611   4.696  0.0178 -0.5981 -0.6148
   46MOL0     H 6203   9.196   5.691   4.808 -2.6847 -0.6743 -0.3242
   46MOL0     H 6204   9.057   5.478   4.853  2.1406 -1.7184 -0.0580
   46MOL0     H 6205   9.157   5.402   4.743  0.0665 -0.3606 -0.2931
   46MOL0     H 6206   9.044   5.503   4.551  1.1360 -0.6046  0.0362
   46MOL0     H 6207   9.041   5.662   4.638  0.6032 -0.1333 -0.5328
   46MOL0     H 6208   8.666   5.458   4.726  1.4550 -0.7153  0.2101
   46MOL0     H 6209   9.059   5.564   5.206  1.6713  1.1064 -1.9891
   46MOL0     H 6210   9.082   5.436   5.415  0.2902 -1.8453  1.7118
   47MOL0     O 6211   0.752   0.734   1.049 -0.2939 -0.9056  0.4410
   47MOL0     C 6212   0.870   0.717   1.036  0.0937 -0.6838 -0.4807
   47MOL0     O 6213   0.931   0.683   0.920 -0.4825  0.6029 -0.0315
   47MOL0     C 6214   0.861   0.650   0.806 -0.7846 -1.0820  0.2481
   47MOL0     C 6215   0.921   0.691   0.682 -1.0645  0.7082  0.1382
   47MOL0     C 6216   0.844   0.669   0.560 -0.2030 -0.4561 -0.3998
   47MOL0     C 6217   0.720   0.608   0.569 -0.0572  0.1313  0.0173
   47MOL0     O 6218   0.646   0.574   0.461 -0.0934 -0.0918  0.2653
   47MOL0     C 6219   0.678   0.624   0.335  0.0877 -0.1276 -0.8441
   47MOL0     C 6220   0.636   0.772   0.310  0.9140  0.7277 -0.6674
   47MOL0     C 6221   0.598   0.806   0.165 -0.4916  0.3606  0.2551
   47MOL0     C 6222   0.516   0.929   0.160  0.1523  0.4757 -0.8395
   47MOL0     C 6223   0.581   1.055   0.205  0.7211  0.0082  0.1232
   47MOL0     C 6224   0.472   1.160   0.219  0.2798 -0.6805  0.0840
   47MOL0     C 6225   0.398   1.171   0.352  1.2054  0.4541  0.2482
   47MOL0     C 6226   0.330   1.315   0.368 -0.0672  0.0859  0.2015
   47MOL0     N 6227   0.299   1.342   0.510 -0.8083 -0.5847 -0.1976
   47MOL0     C 6228   0.280   1.253   0.609  0.1313 -0.4220 -0.1307
   47MOL0     C 6229   0.268   1.319   0.725 -0.0467 -0.1993  0.6301
   47MOL0     C 6230   0.217   1.247   0.848 -0.1909 -0.7715  0.4334
   47MOL0     C 6231   0.116   1.327   0.928 -0.3665 -0.1176  0.0648
   47MOL0     C 6232   0.059   1.239   1.036  0.4654  0.0964  0.0684
   47MOL0     C 6233  -0.074   1.276   1.094 -0.4287  1.0989 -0.0129
   47MOL0     O 6234  -0.081   1.232   1.229  0.1587 -0.2436  0.3080
   47MOL0     C 6235  -0.204   1.199   1.293 -0.6267 -0.1854  0.0347
   47MOL0     C 6236  -0.191   1.131   1.414  0.2312 -0.6765  0.0327
   47MOL0     C 6237  -0.304   1.084   1.490 -0.0469 -0.2821 -0.0978
   47MOL0     C 6238  -0.269   1.005   1.621 -0.4391  0.3293  0.2294
   47MOL0     C 6239  -0.439   1.104   1.449 -0.5682 -0.3856 -1.0060
   47MOL0     C 6240  -0.566   1.062   1.527 -0.4856  0.5383 -0.5902
   47MOL0     O 6241  -0.680   1.080   1.449 -0.1014  0.0115  0.0031
   47MOL0     C 6242  -0.800   1.093   1.492  0.3836  0.6481  0.3495
   47MOL0     C 6243  -0.886   1.174   1.416 -0.1254 -0.3351 -1.0449
   47MOL0     C 6244  -1.023   1.198   1.444 -0.3402 -0.6507 -0.5433
   47MOL0     C 6245  -1.078   1.129   1.555 -0.2879  0.0478  0.4177
   47MOL0     O 6246  -1.211   1.133   1.561  0.2982 -0.5216  0.1352
   47MOL0     C 6247  -1.258   1.238   1.657  0.4823  0.2537 -0.7386
   47MOL0     C 6248  -1.276   1.188   1.797 -0.9828  0.4867 -0.8902
   47MOL0     C 6249  -1.365   1.055   1.795 -0.2674 -0.3823 -0.2658
   47MOL0     C 6250  -1.380   0.984   1.931 -0.1925  1.0937  0.8388
   47MOL0     C 6251  -1.436   1.083   2.033 -0.2863  0.3794  0.1064
   47MOL0     C 6252  -1.526   1.015   2.132 -0.7264 -0.0283  0.3949
   47MOL0     C 6253  -1.430   0.926   2.210 -0.3091 -0.3123  0.7987
   47MOL0     C 6254  -1.509   0.859   2.322  0.4397  0.2203  0.3912
   47MOL0    Cl 6255  -1.617   0.735   2.253  0.0186 -0.1436  0.3574
   47MOL0     C 6256  -0.991   1.054   1.646 -0.1622  0.3049  0.0990
   47MOL0     C 6257  -0.857   1.029   1.601  0.2383 -0.2923  0.1840
   47MOL0     O 6258  -0.570   1.023   1.643  0.1138 -0.1166  0.2308
   47MOL0     C 6259  -0.446   1.182   1.327 -0.3864  0.8928 -0.2454
   47MOL0     C 6260  -0.335   1.210   1.245 -0.3944 -0.0052 -0.2983
   47MOL0     N 6261   0.284   1.457   0.697 -0.6602 -0.0380 -0.0955
   47MOL0     N 6262   0.295   1.464   0.570 -0.0673 -0.4571 -0.2557
   47MOL0     C 6263   0.676   0.559   0.690 -0.4991  0.2460  0.4421
   47MOL0     C 6264   0.738   0.580   0.809  0.7062  0.6425 -0.4345
   47MOL0     C 6265   0.951   0.737   1.163  1.0383 -0.3209 -0.0427
   47MOL0     C 6266   0.893   0.766   1.285  0.1401  0.2879 -0.1528
   47MOL0     C 6267   0.978   0.776   1.398  0.0962  0.3889  0.6820
   47MOL0     C 6268   1.114   0.757   1.393 -0.7711 -0.6153  0.3815
   47MOL0     O 6269   1.205   0.748   1.497 -0.6875 -0.0132  0.2668
   47MOL0     C 6270   1.163   0.688   1.620 -0.3247  0.8617 -0.2509
   47MOL0     C 6271   1.259   0.743   1.731 -1.3517 -0.5390 -0.2905
   47MOL0     C 6272   1.246   0.899   1.742  0.8361  0.0404 -0.1300
   47MOL0     C 6273   1.359   0.962   1.839  0.1916 -0.9970 -0.1325
   47MOL0     C 6274   1.429   1.082   1.784  0.5816 -0.2790 -0.0681
   47MOL0     C 6275   1.492   1.168   1.733 -0.7062  0.1242  0.3244
   47MOL0     C 6276   1.168   0.724   1.274 -0.2526 -0.8324  0.7660
   47MOL0     C 6277   1.092   0.716   1.155 -0.0827 -0.0377  0.0806
   47MOL0     H 6278   1.012   0.749   0.680 -0.4676 -0.2223 -0.3780
   47MOL0     H 6279   0.881   0.709   0.467  2.0350  0.7963  0.9519
   47MOL0     H 6280   0.781   0.591   0.318 -0.2584 -1.1395 -1.0539
   47MOL0     H 6281   0.631   0.558   0.261 -2.7974 -0.5701  1.2251
   47MOL0     H 6282   0.549   0.792   0.374  3.1346  1.4320  2.3568
   47MOL0     H 6283   0.721   0.834   0.340  0.4213 -0.1879  3.2172
   47MOL0     H 6284   0.689   0.823   0.107  0.1866 -0.4325  1.0643
   47MOL0     H 6285   0.548   0.722   0.115 -4.7804  2.6042  0.2542
   47MOL0     H 6286   0.478   0.936   0.057  0.4709 -0.6298 -1.0515
   47MOL0     H 6287   0.429   0.906   0.221 -0.1986  2.8514 -0.3677
   47MOL0     H 6288   0.642   1.044   0.295 -0.5496  2.8040  1.4403
   47MOL0     H 6289   0.650   1.091   0.129  0.3750 -0.5180 -0.4513
   47MOL0     H 6290   0.527   1.250   0.187 -0.5582 -0.6431 -1.3669
   47MOL0     H 6291   0.403   1.142   0.136  0.6790 -1.0416 -0.1742
   47MOL0     H 6292   0.320   1.095   0.363 -1.5751  2.5134 -3.1092
   47MOL0     H 6293   0.486   1.159   0.415  2.9609  0.8750 -1.9853
   47MOL0     H 6294   0.241   1.342   0.311  0.6432  1.2343 -0.3923
   47MOL0     H 6295   0.403   1.390   0.336  2.0388 -1.8290  0.2822
   47MOL0     H 6296   0.259   1.147   0.613 -1.5484 -0.0936  3.1288
   47MOL0     H 6297   0.172   1.151   0.821  1.0002 -1.4393  0.7484
   47MOL0     H 6298   0.306   1.237   0.912 -1.1891 -0.7175  1.8695
   47MOL0     H 6299   0.036   1.354   0.858 -0.9997  2.0283  1.5111
   47MOL0     H 6300   0.169   1.419   0.956  0.3012 -0.7800  1.0183
   47MOL0     H 6301   0.139   1.243   1.111 -0.2645 -0.2429  0.8767
   47MOL0     H 6302   0.056   1.134   1.006  0.4809  0.3375 -0.8029
   47MOL0     H 6303  -0.155   1.217   1.051  0.4278 -1.7294  1.9330
   47MOL0     H 6304  -0.092   1.383   1.078 -2.8054  0.8265  0.4294
   47MOL0     H 6305  -0.095   1.114   1.461  0.0580 -0.0880  0.6202
   47MOL0     H 6306  -0.256   0.898   1.601  4.8641  0.7836 -0.2075
   47MOL0     H 6307  -0.172   1.043   1.655 -1.4718  2.5476  0.9079
   47MOL0     H 6308  -0.344   1.014   1.700  0.4286  1.9075  0.9300
   47MOL0     H 6309  -0.840   1.227   1.333 -0.9909  0.1318 -1.2400
   47MOL0     H 6310  -1.085   1.250   1.371  0.9418  1.2393 -0.3540
   47MOL0     H 6311  -1.199   1.331   1.650 -0.7845  1.4280  2.4928
   47MOL0     H 6312  -1.359   1.267   1.629  1.1221  2.2080 -1.2437
   47MOL0     H 6313  -1.183   1.180   1.855 -1.5104 -4.5080 -0.2624
   47MOL0     H 6314  -1.335   1.263   1.850  0.2679  1.6589 -1.1192
   47MOL0     H 6315  -1.329   0.979   1.726 -0.7166 -0.1541 -0.7570
   47MOL0     H 6316  -1.463   1.074   1.750  0.4259 -1.9716 -2.6430
   47MOL0     H 6317  -1.443   0.895   1.925 -0.1723  1.0404  1.3858
   47MOL0     H 6318  -1.284   0.938   1.954 -0.3898 -0.0032 -0.4051
   47MOL0     H 6319  -1.504   1.154   1.985 -0.9745  0.6408  1.4256
   47MOL0     H 6320  -1.366   1.148   2.086 -1.5156  0.1511  2.1292
   47MOL0     H 6321  -1.584   1.085   2.192 -0.5997  1.6647 -1.3742
   47MOL0     H 6322  -1.595   0.949   2.079 -1.1717  0.0932  0.8094
   47MOL0     H 6323  -1.338   0.977   2.239  0.6375 -1.5086  0.0129
   47MOL0     H 6324  -1.401   0.849   2.138 -0.1022  0.7157 -0.2660
   47MOL0     H 6325  -1.569   0.938   2.368  1.2505  0.2713  1.4045
   47MOL0     H 6326  -1.440   0.824   2.399  3.1623  2.7641 -0.6598
   47MOL0     H 6327  -1.028   1.005   1.735 -1.3025 -2.4813 -1.7591
   47MOL0     H 6328  -0.793   0.954   1.647  1.1802  0.8216  0.7367
   47MOL0     H 6329  -0.543   1.211   1.287  0.0978 -0.0649 -2.2761
   47MOL0     H 6330  -0.352   1.252   1.146 -0.9470 -0.0954 -0.2410
   47MOL0     H 6331   0.587   0.498   0.701  2.1102 -4.0565  0.0938
   47MOL0     H 6332   0.703   0.546   0.906 -1.0147  2.4167 -0.3566
   47MOL0     H 6333   0.785   0.774   1.291 -0.2399 -3.5058  0.4357
   47MOL0     H 6334   0.927   0.785   1.493 -1.6403 -0.8710 -0.0708
   47MOL0     H 6335   1.063   0.725   1.645  0.2902  2.0290  0.5715
   47MOL0     H 6336   1.156   0.579   1.617 -0.4267  0.8470  0.4000
   47MOL0     H 6337   1.362   0.723   1.700 -2.0589 -1.4381 -2.2212
   47MOL0     H 6338   1.246   0.690   1.825  2.0326 -0.6021  0.2371
   47MOL0     H 6339   1.145   0.927   1.772  1.0273  0.6342 -0.0226
   47MOL0     H 6340   1.275   0.945   1.648 -2.0804  1.1064 -0.5982
   47MOL0     H 6341   1.433   0.890   1.872  1.6219  0.6039  0.3101
   47MOL0     H 6342   1.316   1.000   1.932 -0.4917  1.2115 -1.2582
   47MOL0     H 6343   1.531   1.259   1.693  0.1110 -0.1149  0.5648
   47MOL0     H 6344   1.276   0.711   1.267 -0.1668  0.2799 -0.4365
   47MOL0     H 6345   1.152   0.687   1.070 -0.2802 -0.0413 -0.0575
   48MOL0     O 6346   6.571   3.143   8.700 -0.4342  0.0499  0.3588
   48MOL0     C 6347   6.543   3.124   8.579 -0.1495 -0.5525 -0.4241
   48MOL0     O 6348   6.422   3.103   8.513 -0.0969  0.2518 -0.2964
   48MOL0     C 6349   6.306   3.151   8.574 -0.0148 -0.0347 -0.9209
   48MOL0     C 6350   6.192   3.179   8.489  0.3947 -0.0406 -0.1149
   48MOL0     C 6351   6.069   3.210   8.541  0.3414  0.6957 -0.8699
   48MOL0     C 6352   6.050   3.218   8.681  0.4156  0.6178 -0.1249
   48MOL0     O 6353   5.920   3.247   8.712  0.6288  0.9451  0.4539
   48MOL0     C 6354   5.860   3.173   8.820  0.3240 -0.4570  0.3817
   48MOL0     C 6355   5.719   3.227   8.858  0.1606 -0.3357 -0.0651
   48MOL0     C 6356   5.617   3.188   8.750  0.4591 -0.4990 -0.0493
   48MOL0     C 6357   5.479   3.244   8.788 -0.7678  0.5372 -0.5299
   48MOL0     C 6358   5.375   3.201   8.687 -0.1511 -0.1014 -0.7811
   48MOL0     C 6359   5.252   3.301   8.686 -0.6763  0.1463 -0.3218
   48MOL0     C 6360   5.148   3.259   8.575 -0.6144 -0.5165  0.0190
   48MOL0     C 6361   5.057   3.138   8.591  0.8793 -0.3582 -0.9479
   48MOL0     N 6362   5.024   3.093   8.729 -0.0727  0.5291  0.4401
   48MOL0     C 6363   4.929   3.137   8.815  0.0097 -0.4384 -1.4530
   48MOL0     C 6364   4.945   3.058   8.927 -0.6812 -0.2568 -0.3674
   48MOL0     C 6365   4.863   3.062   9.049  0.9045 -0.4775 -0.9263
   48MOL0     C 6366   4.884   2.953   9.155  0.1560  0.0892  0.5114
   48MOL0     C 6367   4.831   2.807   9.118  0.0071 -0.0754  0.1876
   48MOL0     C 6368   4.677   2.775   9.155 -0.1654  0.0661 -1.0457
   48MOL0     O 6369   4.671   2.802   9.301  0.3445 -0.1014 -0.4969
   48MOL0     C 6370   4.556   2.767   9.364 -0.5604  0.3180 -1.1723
   48MOL0     C 6371   4.572   2.772   9.508 -0.1194  0.2619 -0.1278
   48MOL0     C 6372   4.466   2.740   9.591  1.6179 -0.4174 -0.2042
   48MOL0     C 6373   4.501   2.736   9.736 -0.0121 -0.3086 -0.1219
   48MOL0     C 6374   4.332   2.716   9.539  0.0655 -0.0492  1.6397
   48MOL0     C 6375   4.205   2.683   9.613 -0.4645  0.2262 -0.0739
   48MOL0     O 6376   4.082   2.716   9.559  0.3873 -0.7543  0.5163
   48MOL0     C 6377   3.968   2.651   9.607 -0.4580 -0.5102 -0.4453
   48MOL0     C 6378   3.926   2.540   9.527  0.3402 -0.1808 -0.3579
   48MOL0     C 6379   3.805   2.478   9.564 -0.4532  0.1576  0.0672
   48MOL0     C 6380   3.733   2.526   9.678 -0.7504  0.7450  0.7797
   48MOL0     O 6381   3.621   2.459   9.724  0.6722  0.1633  1.0230
   48MOL0     C 6382   3.529   2.408   9.630 -0.9601 -0.2728  0.3520
   48MOL0     C 6383   3.391   2.461   9.674 -0.1168 -0.1074 -0.1746
   48MOL0     C 6384   3.268   2.395   9.614  0.2385  0.1655  0.1124
   48MOL0     C 6385   3.245   2.251   9.668  0.2335 -0.2172  0.0802
   48MOL0     C 6386   3.129   2.170   9.595 -0.4729 -0.7701 -0.0324
   48MOL0     C 6387   3.112   2.025   9.641 -0.1422  0.5840 -0.2454
   48MOL0     C 6388   2.988   1.949   9.589  0.2682  0.5590  0.3036
   48MOL0     C 6389   2.859   2.035   9.619 -0.9170  0.4782 -0.1083
   48MOL0    Cl 6390   2.827   2.147   9.483  0.3035  0.5855  0.3139
   48MOL0     C 6391   3.770   2.640   9.747 -0.0062  0.3116  0.1634
   48MOL0     C 6392   3.891   2.701   9.709 -0.4937 -0.3219  0.1220
   48MOL0     O 6393   4.215   2.619   9.717  0.4676  0.2640  0.8808
   48MOL0     C 6394   4.326   2.702   9.395 -0.7622 -0.9607 -0.6867
   48MOL0     C 6395   4.438   2.727   9.307  0.6531 -0.0398  0.3273
   48MOL0     N 6396   5.046   2.965   8.898 -0.5737  0.3808 -0.5516
   48MOL0     N 6397   5.093   2.988   8.780 -0.1395  0.6979  0.6940
   48MOL0     C 6398   6.154   3.195   8.774  0.4377  0.6786 -0.3405
   48MOL0     C 6399   6.282   3.152   8.715 -0.1715 -0.0507 -0.6493
   48MOL0     C 6400   6.657   3.092   8.489 -0.6189 -0.8043 -1.0940
   48MOL0     C 6401   6.646   3.089   8.351 -0.0314  0.5846  0.0592
   48MOL0     C 6402   6.755   3.039   8.275 -0.0436  1.0349  0.7664
   48MOL0     C 6403   6.869   2.985   8.338  0.0631 -0.2021  0.4205
   48MOL0     O 6404   6.970   2.944   8.250  0.3134 -0.0874  0.4001
   48MOL0     C 6405   7.079   2.881   8.310  1.0058 -0.4360  0.3557
   48MOL0     C 6406   7.189   2.832   8.210 -0.7221  0.5948 -0.4064
   48MOL0     C 6407   7.132   2.723   8.129 -0.3375  0.6688 -0.5627
   48MOL0     C 6408   7.232   2.613   8.080  0.8504  0.3481  0.0163
   48MOL0     C 6409   7.332   2.667   7.996 -0.8343 -0.0658  0.3758
   48MOL0     C 6410   7.394   2.728   7.913  0.0501 -0.5806  0.4707
   48MOL0     C 6411   6.879   3.000   8.471  0.5777  0.3863  0.7589
   48MOL0     C 6412   6.775   3.045   8.548 -0.6064 -0.9485 -0.1591
   48MOL0     H 6413   6.204   3.169   8.382 -2.0827  0.6731 -0.5265
   48MOL0     H 6414   5.990   3.249   8.478 -2.0603  1.7717  2.5184
   48MOL0     H 6415   5.858   3.069   8.786  0.0694 -0.3245 -0.0170
   48MOL0     H 6416   5.926   3.173   8.907  0.8401 -1.4219  0.0097
   48MOL0     H 6417   5.696   3.172   8.949  1.0638  0.0414  0.4095
   48MOL0     H 6418   5.731   3.336   8.861  1.1833 -0.4336  3.1044
   48MOL0     H 6419   5.654   3.238   8.660 -0.8302  3.4259  1.3985
   48MOL0     H 6420   5.606   3.081   8.735  2.6958 -0.9797  1.1824
   48MOL0     H 6421   5.441   3.210   8.885  0.9757  0.4330  0.1462
   48MOL0     H 6422   5.471   3.351   8.811  1.2788  0.2781  1.8331
   48MOL0     H 6423   5.405   3.172   8.586 -1.0363 -2.9756 -0.3270
   48MOL0     H 6424   5.337   3.108   8.731  0.3577  2.1099  5.1535
   48MOL0     H 6425   5.202   3.315   8.782  1.0204 -1.8424  0.9384
   48MOL0     H 6426   5.295   3.398   8.658  1.5595 -0.5342  0.5268
   48MOL0     H 6427   5.088   3.349   8.585  1.2994  0.7322  0.7569
   48MOL0     H 6428   5.192   3.262   8.475  0.3550 -0.1050  0.4475
   48MOL0     H 6429   5.096   3.057   8.531  2.1479  0.4066 -1.1870
   48MOL0     H 6430   4.967   3.171   8.539  0.5668 -0.3764 -0.4324
   48MOL0     H 6431   4.862   3.222   8.807 -0.2329 -0.2377  1.5613
   48MOL0     H 6432   4.889   3.160   9.092  1.1202 -0.7807 -0.3467
   48MOL0     H 6433   4.758   3.071   9.020  0.6858  0.1798 -0.0012
   48MOL0     H 6434   4.842   2.976   9.253 -1.8039  0.2034 -0.2971
   48MOL0     H 6435   4.990   2.943   9.179  0.1952 -0.7895  0.0146
   48MOL0     H 6436   4.887   2.736   9.179 -1.5726  0.8178  2.8571
   48MOL0     H 6437   4.848   2.770   9.016  0.4752 -1.7824  0.8575
   48MOL0     H 6438   4.639   2.675   9.133 -1.6052 -0.3848  2.6796
   48MOL0     H 6439   4.629   2.849   9.091 -0.6294  0.1442 -0.6120
   48MOL0     H 6440   4.666   2.808   9.548  0.1530 -2.3883  1.9454
   48MOL0     H 6441   4.420   2.731   9.810  1.9484  0.3776  2.1934
   48MOL0     H 6442   4.553   2.640   9.747  0.7674 -0.1106 -1.7956
   48MOL0     H 6443   4.568   2.820   9.756  1.3115 -1.3505 -0.0553
   48MOL0     H 6444   3.985   2.513   9.440  2.4014  0.6073  0.7299
   48MOL0     H 6445   3.766   2.400   9.500  1.8861 -1.0789  0.0508
   48MOL0     H 6446   3.557   2.446   9.531 -0.2198 -0.1197  0.6137
   48MOL0     H 6447   3.552   2.301   9.634  1.0156  0.0886 -0.2268
   48MOL0     H 6448   3.382   2.462   9.783 -2.6526 -1.8967 -0.2667
   48MOL0     H 6449   3.374   2.567   9.652 -1.2316  0.1540  1.6844
   48MOL0     H 6450   3.288   2.390   9.507 -0.1412  1.7686 -0.0539
   48MOL0     H 6451   3.178   2.454   9.631  0.7757  2.2782 -3.4203
   48MOL0     H 6452   3.344   2.206   9.657  1.0295  1.9089 -2.4098
   48MOL0     H 6453   3.229   2.249   9.776  2.1543  5.9353  0.8671
   48MOL0     H 6454   3.152   2.164   9.488  2.3189  0.0648  0.4623
   48MOL0     H 6455   3.042   2.235   9.606 -0.1461 -0.4645  0.7547
   48MOL0     H 6456   3.200   1.965   9.616 -0.8405 -0.6976  0.2734
   48MOL0     H 6457   3.115   2.021   9.750 -0.0343 -0.0707 -0.2703
   48MOL0     H 6458   2.982   1.850   9.634  2.5505 -1.5938 -3.5636
   48MOL0     H 6459   2.998   1.935   9.481 -3.4272 -2.8629  0.1848
   48MOL0     H 6460   2.875   2.085   9.715  3.5945  0.7409 -0.7520
   48MOL0     H 6461   2.775   1.965   9.624 -0.9028  0.4140 -0.7440
   48MOL0     H 6462   3.711   2.680   9.829  0.3200  0.0252  0.5393
   48MOL0     H 6463   3.921   2.789   9.766 -1.6126  1.3262 -1.6826
   48MOL0     H 6464   4.234   2.680   9.343 -2.2768 -1.5661  2.0263
   48MOL0     H 6465   4.434   2.720   9.199 -0.2957 -1.5667  0.4440
   48MOL0     H 6466   6.163   3.196   8.882  1.6623  1.7205 -0.4311
   48MOL0     H 6467   6.353   3.117   8.789 -1.1188  1.3371  0.9922
   48MOL0     H 6468   6.561   3.117   8.289  0.7638  1.5244 -0.6514
   48MOL0     H 6469   6.744   3.030   8.168 -2.6097 -2.5612  1.1467
   48MOL0     H 6470   7.131   2.953   8.374  2.3759 -0.2509 -0.9060
   48MOL0     H 6471   7.042   2.804   8.379 -0.6935 -0.5571 -0.6428
   48MOL0     H 6472   7.274   2.811   8.275 -0.2577  0.9732 -0.8744
   48MOL0     H 6473   7.219   2.908   8.137  0.7870  1.9699  1.5406
   48MOL0     H 6474   7.089   2.767   8.038  1.7096  2.9175 -0.5322
   48MOL0     H 6475   7.053   2.668   8.180 -0.8918  0.8955 -1.1561
   48MOL0     H 6476   7.182   2.547   8.009  1.8282  0.8917 -1.2268
   48MOL0     H 6477   7.277   2.557   8.162  1.5108  1.7118  0.6204
   48MOL0     H 6478   7.447   2.782   7.838 -2.9413  0.4509 -1.0457
   48MOL0     H 6479   6.969   2.970   8.525  0.2015 -1.6687  0.3214
   48MOL0     H 6480   6.777   3.040   8.657  0.3851 -0.7625 -0.1656
   49MOL0     O 6481   1.818   6.126   3.754  0.3210  0.3852 -0.0814
   49MOL0     C 6482   1.764   6.143   3.859  0.3541 -0.1343  0.7136
   49MOL0     O 6483   1.658   6.077   3.899 -0.7343 -0.7037  0.2597
   49MOL0     C 6484   1.597   5.987   3.818  0.4286  0.4972  0.4193
   49MOL0     C 6485   1.622   5.846   3.850 -0.2338  0.2152  0.4881
   49MOL0     C 6486   1.566   5.737   3.768 -0.0739 -0.2173  0.9529
   49MOL0     C 6487   1.488   5.777   3.657 -0.4134  0.4857 -0.3546
   49MOL0     O 6488   1.448   5.675   3.583 -0.4935  0.3462  0.3954
   49MOL0     C 6489   1.346   5.706   3.497  0.7603 -0.6531 -0.1944
   49MOL0     C 6490   1.269   5.571   3.470  0.4822 -0.0403 -0.2359
   49MOL0     C 6491   1.199   5.510   3.589  0.1425 -0.4269 -0.4552
   49MOL0     C 6492   1.199   5.356   3.599 -0.0086 -0.6431 -0.3426
   49MOL0     C 6493   1.097   5.307   3.713 -0.2464 -0.1646  0.1839
   49MOL0     C 6494   1.128   5.161   3.744  0.4641  0.1288 -0.0625
   49MOL0     C 6495   1.008   5.097   3.827  0.4205  0.9277  0.4408
   49MOL0     C 6496   1.032   4.956   3.893 -0.0671  0.5264 -0.5310
   49MOL0     N 6497   1.065   4.847   3.800 -0.9683 -0.0920  0.1028
   49MOL0     C 6498   0.991   4.795   3.704 -0.1494 -0.7171  0.2126
   49MOL0     C 6499   1.063   4.707   3.628  0.0066 -0.3282  0.3657
   49MOL0     C 6500   0.994   4.618   3.525 -0.1136  0.1665 -0.1271
   49MOL0     C 6501   0.905   4.501   3.571  0.3693 -0.1585  0.1130
   49MOL0     C 6502   0.764   4.548   3.592 -0.7002  0.4549  0.1622
   49MOL0     C 6503   0.678   4.437   3.667  0.9691 -0.4555 -0.2358
   49MOL0     O 6504   0.661   4.331   3.574  0.2005 -0.2284  0.3710
   49MOL0     C 6505   0.577   4.231   3.592 -0.4294  0.2288  0.7518
   49MOL0     C 6506   0.519   4.156   3.483 -1.0769  0.4929  0.4534
   49MOL0     C 6507   0.442   4.037   3.508 -0.3510 -0.3118 -0.5243
   49MOL0     C 6508   0.396   3.962   3.383 -0.0839  0.4103  0.5746
   49MOL0     C 6509   0.416   3.998   3.643 -0.2231 -0.1605  0.3383
   49MOL0     C 6510   0.318   3.897   3.686  0.8017 -0.8936 -0.6753
   49MOL0     O 6511   0.334   3.847   3.815 -0.2178 -0.9465 -0.0837
   49MOL0     C 6512   0.264   3.727   3.844  0.6932  0.7071  0.0426
   49MOL0     C 6513   0.272   3.602   3.771  0.5832 -0.4111  0.1045
   49MOL0     C 6514   0.213   3.481   3.824 -0.0752  0.2368  0.3068
   49MOL0     C 6515   0.139   3.493   3.943 -0.4484 -0.1986 -0.7635
   49MOL0     O 6516   0.105   3.372   3.991 -0.5225  0.5263  0.1690
   49MOL0     C 6517   0.027   3.340   4.102 -0.1566 -1.5615 -0.4206
   49MOL0     C 6518   0.042   3.196   4.139 -0.7120 -0.1658 -0.2110
   49MOL0     C 6519  -0.011   3.093   4.033 -0.3586  0.0128 -0.4300
   49MOL0     C 6520  -0.015   2.954   4.079 -0.2484  0.3100 -0.2595
   49MOL0     C 6521  -0.108   2.878   3.993 -0.4399  0.3430  0.2383
   49MOL0     C 6522  -0.151   2.737   4.038 -0.1330  0.0090  0.4467
   49MOL0     C 6523  -0.287   2.688   4.001 -0.2673  0.1447  0.1852
   49MOL0     C 6524  -0.316   2.540   4.037  0.5591  0.1278 -0.6601
   49MOL0    Cl 6525  -0.256   2.424   3.920 -0.1812 -0.7168  0.3484
   49MOL0     C 6526   0.127   3.618   4.007  1.1134  0.1128  0.4066
   49MOL0     C 6527   0.183   3.732   3.957  0.2319 -0.2328 -0.0350
   49MOL0     O 6528   0.226   3.871   3.612 -0.2298 -0.8654  0.3082
   49MOL0     C 6529   0.490   4.069   3.740  0.3122  0.1719  0.4445
   49MOL0     C 6530   0.563   4.184   3.723  0.1990  0.0137 -0.3748
   49MOL0     N 6531   1.199   4.732   3.658  1.0621  0.3400 -0.0949
   49MOL0     N 6532   1.200   4.811   3.767  0.0883  0.2522 -0.0511
   49MOL0     C 6533   1.464   5.913   3.638 -0.0933  0.4359  0.4801
   49MOL0     C 6534   1.515   6.020   3.710  0.3749  0.1890 -0.0065
   49MOL0     C 6535   1.815   6.251   3.946 -0.3145 -0.7220 -0.1317
   49MOL0     C 6536   1.728   6.293   4.051  0.2084  0.4881  0.2304
   49MOL0     C 6537   1.761   6.405   4.116  0.4112 -0.2264  0.5820
   49MOL0     C 6538   1.890   6.467   4.096  0.2263 -0.2257  0.0180
   49MOL0     O 6539   1.916   6.577   4.176 -0.0255 -0.6663  0.0832
   49MOL0     C 6540   1.942   6.542   4.304  0.2403 -0.0114  0.6696
   49MOL0     C 6541   2.078   6.479   4.316  0.6877 -0.6325 -0.8292
   49MOL0     C 6542   2.180   6.588   4.307 -0.1695  0.2840  1.0754
   49MOL0     C 6543   2.318   6.555   4.376  0.5011 -0.7891 -0.3820
   49MOL0     C 6544   2.323   6.574   4.527 -0.4760  0.8305  0.6509
   49MOL0     C 6545   2.372   6.596   4.638 -0.5460 -0.1266 -0.4513
   49MOL0     C 6546   1.979   6.420   3.999  0.3284 -0.5274 -0.2732
   49MOL0     C 6547   1.942   6.318   3.914  0.8079 -1.2550  0.4470
   49MOL0     H 6548   1.674   5.826   3.943  2.9589 -1.3435 -1.4598
   49MOL0     H 6549   1.584   5.633   3.792 -0.9104 -1.1452 -2.0042
   49MOL0     H 6550   1.272   5.779   3.530 -0.8707 -1.8722 -0.9648
   49MOL0     H 6551   1.396   5.741   3.406  3.1429 -0.6434  1.0692
   49MOL0     H 6552   1.197   5.581   3.388 -0.2140 -0.4014  0.3205
   49MOL0     H 6553   1.344   5.503   3.430  1.8191  2.4972 -2.3649
   49MOL0     H 6554   1.233   5.569   3.675 -0.1452  2.0337 -1.9136
   49MOL0     H 6555   1.093   5.537   3.595  0.1906 -0.5550  1.2960
   49MOL0     H 6556   1.175   5.307   3.504 -3.1400  0.2506 -0.1346
   49MOL0     H 6557   1.297   5.317   3.626 -0.6252 -1.4255  0.9103
   49MOL0     H 6558   1.113   5.373   3.799  0.5821 -1.6362  1.1964
   49MOL0     H 6559   0.996   5.323   3.674  0.2323  0.8428 -0.6776
   49MOL0     H 6560   1.138   5.108   3.649 -0.2357 -1.5365  0.7659
   49MOL0     H 6561   1.222   5.161   3.800  1.0297  1.1355 -0.9695
   49MOL0     H 6562   1.000   5.162   3.914 -1.5133  0.2717  0.8016
   49MOL0     H 6563   0.913   5.094   3.772  1.4044 -0.3719 -1.2728
   49MOL0     H 6564   0.939   4.948   3.950  0.5237  1.8277  0.6805
   49MOL0     H 6565   1.118   4.969   3.961 -1.0254  0.1312  0.7954
   49MOL0     H 6566   0.883   4.795   3.713 -0.1970 -2.2660 -0.0319
   49MOL0     H 6567   0.929   4.684   3.468  2.1051 -0.6063 -3.8857
   49MOL0     H 6568   1.071   4.571   3.463  1.7024  1.9369  0.6591
   49MOL0     H 6569   0.938   4.467   3.670 -1.6783  0.5306  1.0942
   49MOL0     H 6570   0.908   4.416   3.503 -1.6779  0.4197 -0.7905
   49MOL0     H 6571   0.717   4.576   3.498 -0.6115  0.9953  0.2734
   49MOL0     H 6572   0.771   4.642   3.649  0.2741  1.4623 -1.5337
   49MOL0     H 6573   0.582   4.484   3.690  1.9435  2.8189 -2.2211
   49MOL0     H 6574   0.729   4.399   3.756 -0.5917 -1.1308  0.4120
   49MOL0     H 6575   0.526   4.185   3.378  1.6497  0.0116  0.4255
   49MOL0     H 6576   0.407   3.856   3.410 -1.7957  0.4903  1.7451
   49MOL0     H 6577   0.293   3.986   3.355 -0.5921 -2.5717 -0.4795
   49MOL0     H 6578   0.466   3.984   3.302  0.6622 -2.5173  0.2878
   49MOL0     H 6579   0.330   3.591   3.680 -1.4862 -2.6114 -1.0577
   49MOL0     H 6580   0.228   3.381   3.784 -0.9559  0.4126 -0.5238
   49MOL0     H 6581   0.073   3.406   4.176 -0.7102  0.4911 -1.8030
   49MOL0     H 6582  -0.077   3.375   4.104  0.1937 -0.5376  1.3083
   49MOL0     H 6583   0.143   3.161   4.164 -1.9342 -2.4009  2.1002
   49MOL0     H 6584  -0.020   3.183   4.228 -1.5134  0.6188 -0.6383
   49MOL0     H 6585   0.032   3.106   3.934 -1.0119 -1.0470 -0.8642
   49MOL0     H 6586  -0.116   3.125   4.023  0.0510  1.2573 -1.0042
   49MOL0     H 6587   0.089   2.919   4.081 -0.3372 -0.0796 -1.7138
   49MOL0     H 6588  -0.055   2.954   4.181 -0.1783 -0.2863 -0.2304
   49MOL0     H 6589  -0.078   2.867   3.888 -0.7605  0.4606  0.1313
   49MOL0     H 6590  -0.204   2.931   3.982 -1.7890 -1.9983  0.0862
   49MOL0     H 6591  -0.085   2.665   3.988 -1.2595  0.0958 -1.2364
   49MOL0     H 6592  -0.139   2.738   4.146  0.0189  0.5029  0.4291
   49MOL0     H 6593  -0.303   2.696   3.893  0.6423  2.8667  0.1661
   49MOL0     H 6594  -0.355   2.765   4.039  3.2517  4.2328 -0.9230
   49MOL0     H 6595  -0.425   2.526   4.046  0.8283 -0.5109  3.7725
   49MOL0     H 6596  -0.273   2.509   4.133  0.2927 -1.7120 -1.0886
   49MOL0     H 6597   0.065   3.630   4.095  2.0375  2.0263  0.8441
   49MOL0     H 6598   0.155   3.819   4.016 -2.6489 -0.5723 -0.7460
   49MOL0     H 6599   0.482   4.025   3.839 -0.1559 -0.4468  0.1383
   49MOL0     H 6600   0.623   4.223   3.804  1.2598  0.1397 -1.1960
   49MOL0     H 6601   1.406   5.943   3.551 -0.9508  0.0961  0.9251
   49MOL0     H 6602   1.468   6.114   3.683 -3.6283 -1.5500  0.2216
   49MOL0     H 6603   1.634   6.246   4.079  0.4859  0.5643  1.3464
   49MOL0     H 6604   1.694   6.443   4.193  0.2934  1.4582 -0.3216
   49MOL0     H 6605   1.918   6.622   4.375  0.4493  0.1432  0.5683
   49MOL0     H 6606   1.872   6.467   4.341  1.9910 -1.5907  0.9248
   49MOL0     H 6607   2.094   6.401   4.241  0.6374 -2.6178  1.1102
   49MOL0     H 6608   2.087   6.435   4.416  0.5885  0.4290 -0.3363
   49MOL0     H 6609   2.137   6.676   4.357 -1.9057 -0.6345  1.2724
   49MOL0     H 6610   2.186   6.617   4.202 -1.9675  0.7791  1.0748
   49MOL0     H 6611   2.401   6.616   4.338  2.2107 -2.4568  0.4964
   49MOL0     H 6612   2.342   6.451   4.352  0.8003 -0.6792 -0.5668
   49MOL0     H 6613   2.415   6.614   4.734 -1.3218  2.5931 -0.5206
   49MOL0     H 6614   2.068   6.476   3.972 -0.8855  0.1935 -3.0577
   49MOL0     H 6615   2.006   6.277   3.837  2.6593  2.3065 -0.1447
   50MOL0     O 6616  11.002   0.477   0.680  0.2829  0.1348 -0.0619
   50MOL0     C 6617  10.901   0.543   0.696 -0.5792 -0.7801 -0.2263
   50MOL0     O 6618  10.781   0.485   0.713  0.2856 -1.0554  0.0491
   50MOL0     C 6619  10.720   0.445   0.597 -1.0808  1.4352 -0.3551
   50MOL0     C 6620  10.767   0.456   0.464 -0.5856 -0.0225 -0.6427
   50MOL0     C 6621  10.705   0.393   0.357 -0.4528  0.8395 -0.2042
   50MOL0     C 6622  10.589   0.330   0.370 -0.1747  0.7566 -0.1029
   50MOL0     O 6623  10.534   0.267   0.262  0.0151 -0.0905  0.8004
   50MOL0     C 6624  10.550   0.322   0.128  0.7519 -0.3246  0.4133
   50MOL0     C 6625  10.473   0.458   0.122 -0.2878  0.5862 -0.4694
   50MOL0     C 6626  10.517   0.554   0.008  0.3934  0.0363  0.3177
   50MOL0     C 6627  10.666   0.601   0.011  0.1243  0.6639  0.5857
   50MOL0     C 6628  10.693   0.725  -0.084 -0.4009  0.4461 -0.5231
   50MOL0     C 6629  10.646   0.690  -0.227  0.3346 -1.0685 -0.3898
   50MOL0     C 6630  10.697   0.560  -0.301  0.2220 -0.1848  0.4493
   50MOL0     C 6631  10.836   0.579  -0.368 -0.2877  0.7540 -0.0459
   50MOL0     N 6632  10.945   0.573  -0.260 -0.0642 -0.0185  1.3715
   50MOL0     C 6633  11.065   0.640  -0.280  0.9176 -0.1229  1.0752
   50MOL0     C 6634  11.154   0.587  -0.187  0.4156 -0.4304  0.3739
   50MOL0     C 6635  11.298   0.609  -0.171  0.3289  0.3222  0.5666
   50MOL0     C 6636  11.339   0.749  -0.218  0.6900  0.1372  0.0590
   50MOL0     C 6637  11.480   0.792  -0.186  0.5061  0.7186 -0.6056
   50MOL0     C 6638  11.536   0.897  -0.291  0.5985  1.5103  0.6829
   50MOL0     O 6639  11.652   0.955  -0.237  0.2085  0.8337  0.6966
   50MOL0     C 6640  11.653   1.066  -0.160  0.8176  0.7892  0.6457
   50MOL0     C 6641  11.541   1.117  -0.081  0.1113  0.3810  0.7638
   50MOL0     C 6642  11.551   1.249  -0.016 -0.0414  0.4662 -0.2696
   50MOL0     C 6643  11.428   1.305   0.049 -0.0626  0.2006  0.2032
   50MOL0     C 6644  11.676   1.323  -0.036  0.2318  0.2707 -0.4316
   50MOL0     C 6645  11.707   1.453   0.030 -1.0635 -0.6298 -0.3445
   50MOL0     O 6646  11.838   1.502   0.011 -0.3264  0.1233  0.2789
   50MOL0     C 6647  11.861   1.623   0.066  0.6270 -0.1435  0.1217
   50MOL0     C 6648  11.938   1.639   0.177 -0.0664  0.9465  0.4473
   50MOL0     C 6649  11.987   1.760   0.223 -0.5614  0.2625 -0.6340
   50MOL0     C 6650  11.945   1.871   0.161 -0.3989  0.1776  1.0146
   50MOL0     O 6651  11.978   1.992   0.228 -0.3359  0.3544 -0.9698
   50MOL0     C 6652  11.876   2.089   0.222  0.0525 -0.0640 -0.0016
   50MOL0     C 6653  11.890   2.213   0.306 -0.4665  0.6716 -0.1224
   50MOL0     C 6654  11.925   2.183   0.455  0.9931  0.1197 -0.4318
   50MOL0     C 6655  11.918   2.317   0.535 -0.0038  1.0271  0.5010
   50MOL0     C 6656  12.061   2.365   0.579  0.9568  0.1301  0.3205
   50MOL0     C 6657  12.058   2.497   0.670 -0.0320  0.4607  0.7608
   50MOL0     C 6658  12.020   2.617   0.590  0.4878  0.8807 -1.0312
   50MOL0     C 6659  11.961   2.737   0.671 -0.5648  0.4403 -0.5589
   50MOL0    Cl 6660  11.930   2.872   0.567 -0.3032  0.0529  0.2514
   50MOL0     C 6661  11.866   1.862   0.046  0.5766 -1.0129 -0.9478
   50MOL0     C 6662  11.824   1.739   0.002 -0.1965  0.0179 -0.1209
   50MOL0     O 6663  11.629   1.511   0.099  0.3612 -0.3493  0.0808
   50MOL0     C 6664  11.781   1.266  -0.116 -0.4603  0.4254 -0.6286
   50MOL0     C 6665  11.771   1.141  -0.168  0.2320  0.0521  0.3152
   50MOL0     N 6666  11.082   0.499  -0.113  0.2011 -0.3221  0.9822
   50MOL0     N 6667  10.954   0.494  -0.152 -0.6979  0.6532 -0.3747
   50MOL0     C 6668  10.528   0.330   0.498 -0.5279 -0.5450  0.0672
   50MOL0     C 6669  10.597   0.376   0.612  0.7941  0.6998  0.4100
   50MOL0     C 6670  10.902   0.691   0.685  0.3222 -0.0744 -0.0254
   50MOL0     C 6671  10.788   0.773   0.680  0.2413 -0.1268 -1.2813
   50MOL0     C 6672  10.797   0.911   0.679  0.5149  0.2151  0.0598
   50MOL0     C 6673  10.920   0.976   0.668  0.8804  0.6762 -0.0778
   50MOL0     O 6674  10.917   1.114   0.656  0.9407  0.0783 -0.1459
   50MOL0     C 6675  10.813   1.183   0.573 -0.6724  1.4316  1.0104
   50MOL0     C 6676  10.882   1.288   0.497  0.7598 -0.1533 -0.0485
   50MOL0     C 6677  10.786   1.390   0.429 -0.4671 -0.7673 -0.8818
   50MOL0     C 6678  10.825   1.534   0.446 -0.5425  0.6145 -0.3698
   50MOL0     C 6679  10.814   1.609   0.323 -0.3851  0.1269  0.1556
   50MOL0     C 6680  10.837   1.676   0.227  0.8126 -0.3188  0.3586
   50MOL0     C 6681  11.032   0.896   0.670  0.1009 -0.2188 -0.5568
   50MOL0     C 6682  11.025   0.757   0.684  0.1817 -0.0678 -0.2615
   50MOL0     H 6683  10.857   0.513   0.440 -0.4393 -1.1465 -3.1133
   50MOL0     H 6684  10.753   0.391   0.260  0.3601  0.3501  0.1999
   50MOL0     H 6685  10.652   0.338   0.093  0.0062  4.3874 -0.2740
   50MOL0     H 6686  10.514   0.246   0.057  2.1846  0.0242 -0.7355
   50MOL0     H 6687  10.367   0.436   0.108 -0.0355  0.2324 -1.9718
   50MOL0     H 6688  10.466   0.509   0.219 -1.3244  1.5465 -1.0226
   50MOL0     H 6689  10.493   0.509  -0.088 -1.1650 -0.5630  0.9542
   50MOL0     H 6690  10.450   0.640   0.018 -0.1702 -0.5095  1.4686
   50MOL0     H 6691  10.689   0.622   0.116  0.5645  0.2179  0.5819
   50MOL0     H 6692  10.729   0.520  -0.027 -0.3631  0.2309  0.6742
   50MOL0     H 6693  10.637   0.809  -0.043  2.3232  2.4483 -0.6088
   50MOL0     H 6694  10.800   0.750  -0.078 -0.0277 -1.0656 -0.3051
   50MOL0     H 6695  10.537   0.692  -0.233  0.3794 -0.0521 -1.1448
   50MOL0     H 6696  10.663   0.783  -0.282  2.3393  0.6857  2.8763
   50MOL0     H 6697  10.698   0.473  -0.236 -1.6693  0.3382  1.2438
   50MOL0     H 6698  10.622   0.533  -0.376  0.2499  0.2380  0.2639
   50MOL0     H 6699  10.837   0.671  -0.427  0.0993  0.6030 -0.2807
   50MOL0     H 6700  10.854   0.498  -0.440 -0.3859  3.0709 -2.8717
   50MOL0     H 6701  11.079   0.716  -0.356 -2.1625 -0.7757 -0.3278
   50MOL0     H 6702  11.318   0.599  -0.064 -0.0526 -1.6514  0.4792
   50MOL0     H 6703  11.364   0.544  -0.229 -0.2943  1.0625 -1.0481
   50MOL0     H 6704  11.272   0.818  -0.166  1.1462  1.0603 -0.5528
   50MOL0     H 6705  11.315   0.763  -0.324 -3.1198 -2.8080  0.3087
   50MOL0     H 6706  11.544   0.704  -0.189  2.4998  1.6950  4.2808
   50MOL0     H 6707  11.485   0.825  -0.082 -0.6880 -2.1096  0.4474
   50MOL0     H 6708  11.458   0.973  -0.302 -2.2545 -1.5499 -2.6925
   50MOL0     H 6709  11.552   0.842  -0.384 -2.2857 -0.0330  1.0067
   50MOL0     H 6710  11.445   1.069  -0.065 -0.3899  1.1161  0.0368
   50MOL0     H 6711  11.391   1.392  -0.006 -0.5889 -0.1658 -0.0309
   50MOL0     H 6712  11.350   1.230   0.068 -1.5931  1.7719  0.3036
   50MOL0     H 6713  11.460   1.336   0.149  0.5960 -1.5945  0.5902
   50MOL0     H 6714  11.983   1.551   0.222 -1.3243 -0.2928 -0.6227
   50MOL0     H 6715  12.050   1.763   0.311  1.0743  1.2849 -1.7907
   50MOL0     H 6716  11.855   2.116   0.118  2.0102  0.0408 -0.4121
   50MOL0     H 6717  11.786   2.037   0.256  0.3892 -0.1315  0.8153
   50MOL0     H 6718  11.978   2.256   0.258  1.1957 -2.6788 -0.4210
   50MOL0     H 6719  11.805   2.280   0.298 -0.7959  0.0507 -2.5829
   50MOL0     H 6720  12.026   2.143   0.467  1.7006  1.1869 -2.2736
   50MOL0     H 6721  11.848   2.117   0.496  1.3801  0.3634  0.7062
   50MOL0     H 6722  11.866   2.403   0.492  1.0059  1.7166  0.6222
   50MOL0     H 6723  11.870   2.290   0.629  2.7179 -2.9732  1.0016
   50MOL0     H 6724  12.118   2.390   0.489 -0.4743  0.5588 -0.5130
   50MOL0     H 6725  12.130   2.287   0.613  0.5234 -1.0138 -1.2871
   50MOL0     H 6726  11.990   2.493   0.756  2.4770  1.1916  2.9071
   50MOL0     H 6727  12.158   2.509   0.713  0.3128 -2.6149  1.0592
   50MOL0     H 6728  11.943   2.589   0.519 -0.7683 -0.0609  0.6495
   50MOL0     H 6729  12.115   2.642   0.541  1.5147  0.2289  0.5571
   50MOL0     H 6730  12.027   2.761   0.755 -2.0923 -3.3922  2.0200
   50MOL0     H 6731  11.872   2.697   0.720  1.7198 -2.7322  1.4090
   50MOL0     H 6732  11.838   1.943  -0.021 -0.8398 -0.0167  0.7662
   50MOL0     H 6733  11.769   1.732  -0.091  0.3509  0.7042 -0.5096
   50MOL0     H 6734  11.882   1.305  -0.114  1.7120 -4.3787 -1.6200
   50MOL0     H 6735  11.850   1.117  -0.239 -0.6712 -0.4182 -0.5604
   50MOL0     H 6736  10.423   0.300   0.501 -0.8512  0.2856 -1.7111
   50MOL0     H 6737  10.547   0.368   0.708  0.1616  1.1268  0.1309
   50MOL0     H 6738  10.689   0.729   0.690  1.3838 -2.8178 -0.9618
   50MOL0     H 6739  10.705   0.969   0.681  0.5484  0.3408 -1.2089
   50MOL0     H 6740  10.767   1.108   0.508 -0.7578  0.8663  1.7181
   50MOL0     H 6741  10.739   1.227   0.641 -1.1300  0.3426  1.2368
   50MOL0     H 6742  10.938   1.230   0.424  0.5567 -1.1708  0.5771
   50MOL0     H 6743  10.953   1.332   0.568  1.6677 -3.8668  1.5842
   50MOL0     H 6744  10.685   1.384   0.470 -0.0814  0.0486  0.2459
   50MOL0     H 6745  10.787   1.364   0.323 -1.8224 -0.7004 -0.9219
   50MOL0     H 6746  10.925   1.542   0.490 -1.6482  0.6234  2.2527
   50MOL0     H 6747  10.760   1.584   0.517 -2.8406 -1.6964 -0.7111
   50MOL0     H 6748  10.867   1.747   0.152  0.1131 -1.2124 -0.8054
   50MOL0     H 6749  11.131   0.937   0.649  0.4157 -0.4662  0.3849
   50MOL0     H 6750  11.114   0.694   0.689 -0.9098 -1.6900 -0.2409
   51MOL0     O 6751   8.885   4.321   7.090 -1.1248 -0.1911  0.0241
   51MOL0     C 6752   8.967   4.229   7.070 -0.5156  0.4419  0.0545
   51MOL0     O 6753   9.043   4.162   7.167 -0.1581 -0.0820 -0.6293
   51MOL0     C 6754   9.031   4.169   7.303  0.2974  0.1609 -0.6730
   51MOL0     C 6755   9.011   4.285   7.371 -0.1695 -1.3377  1.0921
   51MOL0     C 6756   8.995   4.292   7.510 -0.7789 -0.1949 -0.7131
   51MOL0     C 6757   8.998   4.171   7.584  0.0942  0.5000 -0.8395
   51MOL0     O 6758   8.975   4.154   7.720  0.0358  0.7459  0.2600
   51MOL0     C 6759   8.874   4.247   7.764  0.3987  0.4008  0.4376
   51MOL0     C 6760   8.811   4.200   7.897  0.3035  0.3280 -0.0649
   51MOL0     C 6761   8.796   4.046   7.904 -0.4872 -0.5805  0.0644
   51MOL0     C 6762   8.674   4.002   7.819 -0.7835 -0.3363  0.0674
   51MOL0     C 6763   8.608   3.882   7.894  0.1656 -0.0644  0.0916
   51MOL0     C 6764   8.469   3.917   7.950  1.0389  0.8403  0.0985
   51MOL0     C 6765   8.387   3.802   8.017 -0.2735  0.7296 -0.2777
   51MOL0     C 6766   8.460   3.772   8.154  1.0201  0.0239  0.4853
   51MOL0     N 6767   8.410   3.658   8.229  0.0329  1.3962  0.1976
   51MOL0     C 6768   8.313   3.664   8.326 -0.2376  0.8037 -0.8552
   51MOL0     C 6769   8.308   3.531   8.379 -0.1384 -0.5023  0.1969
   51MOL0     C 6770   8.234   3.475   8.490 -0.1417 -0.0867 -0.0759
   51MOL0     C 6771   8.078   3.498   8.482  0.4435  0.4112  0.4769
   51MOL0     C 6772   8.022   3.496   8.617  0.0201 -0.0564  0.2037
   51MOL0     C 6773   7.877   3.468   8.637  0.1382  0.9910  0.4793
   51MOL0     O 6774   7.845   3.469   8.776 -0.0760  0.4986 -0.0970
   51MOL0     C 6775   7.715   3.435   8.804  1.2100  0.1707  0.3066
   51MOL0     C 6776   7.702   3.295   8.823  0.0629  0.0278 -0.3997
   51MOL0     C 6777   7.582   3.229   8.860 -0.3462  0.2491 -1.4522
   51MOL0     C 6778   7.589   3.082   8.906  0.0100 -0.1188  0.2178
   51MOL0     C 6779   7.459   3.307   8.850 -0.2638 -0.5806 -0.5184
   51MOL0     C 6780   7.322   3.250   8.871  0.2977  0.4354  0.5406
   51MOL0     O 6781   7.216   3.336   8.888 -0.3507  0.2338 -0.3833
   51MOL0     C 6782   7.099   3.291   8.936  0.0796 -1.1348  0.1189
   51MOL0     C 6783   6.975   3.332   8.877  0.4885  0.1651 -0.1093
   51MOL0     C 6784   6.850   3.292   8.920 -0.0512  0.6028 -0.5906
   51MOL0     C 6785   6.839   3.214   9.037  1.0090 -0.0526 -0.0919
   51MOL0     O 6786   6.717   3.186   9.093  0.2210 -0.0244  0.3784
   51MOL0     C 6787   6.628   3.104   9.010 -0.1794  0.0406  0.1193
   51MOL0     C 6788   6.545   3.021   9.100  0.2787  0.1523 -1.1229
   51MOL0     C 6789   6.422   2.969   9.036  0.9122  0.7379  0.1283
   51MOL0     C 6790   6.356   2.868   9.136  0.6179  0.0489 -0.6811
   51MOL0     C 6791   6.210   2.840   9.100  0.1796 -0.1094 -0.0506
   51MOL0     C 6792   6.186   2.805   8.952 -1.1763 -0.1884 -0.7665
   51MOL0     C 6793   6.040   2.820   8.912 -0.1851 -0.8041 -0.4424
   51MOL0     C 6794   6.029   2.787   8.756  0.1076  0.3486 -0.6000
   51MOL0    Cl 6795   5.882   2.843   8.672 -0.4738 -0.0565 -0.2266
   51MOL0     C 6796   6.952   3.178   9.106  0.6528 -0.2020 -0.7433
   51MOL0     C 6797   7.081   3.219   9.058 -0.4445  0.0944  0.1703
   51MOL0     O 6798   7.305   3.130   8.857  0.0978  0.1271 -0.5039
   51MOL0     C 6799   7.471   3.445   8.814  0.6386  0.5965  0.1966
   51MOL0     C 6800   7.595   3.507   8.796  0.3419  0.2788 -0.5135
   51MOL0     N 6801   8.395   3.461   8.295 -0.2913  0.1196 -1.0448
   51MOL0     N 6802   8.455   3.540   8.211 -0.4135 -0.3617  0.6972
   51MOL0     C 6803   9.021   4.051   7.514  0.5114  0.6016 -0.6098
   51MOL0     C 6804   9.027   4.046   7.374 -0.7259 -0.1874 -0.2063
   51MOL0     C 6805   9.014   4.190   6.934 -0.1269 -0.2472  0.4066
   51MOL0     C 6806   8.971   4.271   6.823 -0.4779 -0.4965  0.8976
   51MOL0     C 6807   9.007   4.243   6.690  0.2104  0.0504  0.3508
   51MOL0     C 6808   9.080   4.128   6.664 -0.0859 -1.0945 -0.3556
   51MOL0     O 6809   9.100   4.108   6.531 -0.0964 -0.3466  0.9290
   51MOL0     C 6810   9.206   4.016   6.487  0.0597 -1.0102 -0.4055
   51MOL0     C 6811   9.252   4.079   6.353  0.0753  0.2096 -0.7333
   51MOL0     C 6812   9.330   4.212   6.378  0.9552 -1.2416 -0.0448
   51MOL0     C 6813   9.412   4.274   6.261 -1.0232 -0.0932 -0.6036
   51MOL0     C 6814   9.534   4.197   6.237  0.4739 -0.1791 -0.5804
   51MOL0     C 6815   9.633   4.142   6.203  0.8727  0.4529 -0.6156
   51MOL0     C 6816   9.117   4.038   6.773 -0.1261  0.3259 -0.1203
   51MOL0     C 6817   9.083   4.066   6.903  0.0874 -0.4955 -0.2062
   51MOL0     H 6818   9.035   4.372   7.311  0.1993 -0.2351  2.7482
   51MOL0     H 6819   8.983   4.394   7.546  0.7948  0.3003 -1.4712
   51MOL0     H 6820   8.916   4.346   7.783 -1.1631  1.2940 -0.5588
   51MOL0     H 6821   8.795   4.260   7.690 -1.4450  0.2914  2.3044
   51MOL0     H 6822   8.885   4.231   7.971  1.4984  0.5217 -1.3052
   51MOL0     H 6823   8.712   4.246   7.907  0.1678  0.7350 -2.5103
   51MOL0     H 6824   8.882   3.994   7.860  0.6788  2.1424 -1.1423
   51MOL0     H 6825   8.770   4.021   8.008 -3.0933  1.5880  0.0486
   51MOL0     H 6826   8.592   4.070   7.795 -0.4260 -0.8497 -3.0719
   51MOL0     H 6827   8.727   3.973   7.728  1.0839  1.5493  0.4764
   51MOL0     H 6828   8.587   3.822   7.805  2.3510 -1.5816  0.5162
   51MOL0     H 6829   8.676   3.834   7.965 -0.8921 -2.8761 -0.6309
   51MOL0     H 6830   8.494   4.004   8.012  2.1208 -0.2846  1.3089
   51MOL0     H 6831   8.398   3.940   7.869 -1.8882  1.9790  2.7612
   51MOL0     H 6832   8.286   3.840   8.033 -0.8241 -0.0636 -1.6891
   51MOL0     H 6833   8.379   3.714   7.953  0.4614  0.5619 -0.1499
   51MOL0     H 6834   8.441   3.852   8.226  2.9785 -0.0291  1.1164
   51MOL0     H 6835   8.567   3.759   8.135  1.3412  0.7635  1.6734
   51MOL0     H 6836   8.257   3.753   8.353 -2.2317 -0.7752  0.4718
   51MOL0     H 6837   8.249   3.366   8.488  0.1137 -0.0641  0.4552
   51MOL0     H 6838   8.289   3.516   8.575  2.1478 -0.7362 -1.1698
   51MOL0     H 6839   8.028   3.421   8.423 -0.6495 -0.3202  2.2924
   51MOL0     H 6840   8.047   3.593   8.437 -2.8741 -0.3941  0.7970
   51MOL0     H 6841   8.020   3.597   8.660 -0.7004  0.2298 -0.4821
   51MOL0     H 6842   8.075   3.427   8.683 -0.3655 -1.9572 -1.3926
   51MOL0     H 6843   7.855   3.378   8.579  1.4510  1.3168 -0.5606
   51MOL0     H 6844   7.812   3.544   8.593 -2.1655  0.6737  3.0601
   51MOL0     H 6845   7.794   3.239   8.813 -0.1728 -0.4385  0.0110
   51MOL0     H 6846   7.694   3.051   8.902  0.0312 -0.5796  2.8231
   51MOL0     H 6847   7.559   3.072   9.010 -0.1149  1.2609  0.3351
   51MOL0     H 6848   7.519   3.022   8.847  0.2181 -0.6108  0.4743
   51MOL0     H 6849   6.974   3.399   8.793 -3.0163  0.0478 -0.2779
   51MOL0     H 6850   6.764   3.333   8.868  1.3251  4.8660  0.0780
   51MOL0     H 6851   6.563   3.167   8.950 -1.9909 -1.7027  0.1544
   51MOL0     H 6852   6.691   3.038   8.950  1.6203 -0.4434  2.3632
   51MOL0     H 6853   6.606   2.938   9.139  3.2854  1.8233 -1.9206
   51MOL0     H 6854   6.508   3.072   9.190 -0.7071 -2.5905  0.1409
   51MOL0     H 6855   6.439   2.923   8.938  1.7889  0.7710  0.2623
   51MOL0     H 6856   6.357   3.055   9.017 -0.7823 -0.5827 -0.3702
   51MOL0     H 6857   6.414   2.775   9.135  1.2608  0.1443  4.2949
   51MOL0     H 6858   6.357   2.903   9.239  0.7834 -0.3043 -0.5606
   51MOL0     H 6859   6.145   2.926   9.115 -0.9512 -0.4935 -2.2833
   51MOL0     H 6860   6.164   2.758   9.156  0.6929 -0.0918  0.3980
   51MOL0     H 6861   6.243   2.861   8.877  0.5011 -1.4160 -0.4530
   51MOL0     H 6862   6.212   2.699   8.945 -1.8675 -0.3379 -1.2203
   51MOL0     H 6863   6.020   2.927   8.924  2.8986 -0.3817  2.1261
   51MOL0     H 6864   5.966   2.761   8.966  0.8870 -2.8026 -1.0456
   51MOL0     H 6865   6.037   2.680   8.734  0.3408  0.4630 -1.0617
   51MOL0     H 6866   6.114   2.833   8.706 -0.5402  1.4177 -0.7598
   51MOL0     H 6867   6.942   3.125   9.200  0.5545  0.9069 -0.1039
   51MOL0     H 6868   7.169   3.184   9.111 -1.4572  1.4827  2.9296
   51MOL0     H 6869   7.387   3.507   8.785  0.0592 -0.7401 -1.1507
   51MOL0     H 6870   7.608   3.612   8.773  0.7899  0.3817  0.1909
   51MOL0     H 6871   9.026   3.968   7.584 -2.1105  0.1100 -0.8826
   51MOL0     H 6872   9.051   3.958   7.315  0.9092  2.5177 -4.0612
   51MOL0     H 6873   8.900   4.353   6.838 -0.4407 -0.5631  1.4633
   51MOL0     H 6874   8.979   4.313   6.612 -2.2814 -2.7207 -1.3991
   51MOL0     H 6875   9.289   4.008   6.557  0.5529  0.3792 -0.7917
   51MOL0     H 6876   9.158   3.918   6.476 -1.6280 -0.2699  0.0332
   51MOL0     H 6877   9.164   4.100   6.292 -0.2926  2.1259  0.3635
   51MOL0     H 6878   9.317   4.010   6.299  1.2392 -1.9729  3.0875
   51MOL0     H 6879   9.401   4.179   6.454 -0.7963 -1.9659  1.3598
   51MOL0     H 6880   9.261   4.288   6.416 -0.3486 -1.9755 -0.8365
   51MOL0     H 6881   9.447   4.375   6.287 -2.6039 -0.1612  2.1035
   51MOL0     H 6882   9.351   4.285   6.171 -1.8908  0.0017 -0.0151
   51MOL0     H 6883   9.730   4.096   6.197  1.3110  1.4369 -1.5411
   51MOL0     H 6884   9.163   3.946   6.738 -1.8599 -1.5077  2.1378
   51MOL0     H 6885   9.123   4.014   6.990  0.2760  2.2753  1.4905
   52MOL0     O 6886   3.734   4.984   0.556  0.0878 -0.8933 -0.0814
   52MOL0     C 6887   3.772   5.070   0.476  0.5867 -1.1444  0.9932
   52MOL0     O 6888   3.720   5.093   0.354 -0.1767  0.7317  0.1557
   52MOL0     C 6889   3.604   5.032   0.320  0.3397  0.1667  0.5315
   52MOL0     C 6890   3.626   4.925   0.227  1.1137 -0.3295  0.4214
   52MOL0     C 6891   3.511   4.875   0.160 -0.0529  0.3757 -0.0453
   52MOL0     C 6892   3.379   4.917   0.201 -0.3954 -0.5453 -0.9492
   52MOL0     O 6893   3.276   4.857   0.138 -0.4166  0.2998  0.5802
   52MOL0     C 6894   3.173   4.805   0.225 -0.8100  0.2078 -0.4429
   52MOL0     C 6895   3.091   4.723   0.134 -0.4674  0.5294  0.4661
   52MOL0     C 6896   2.962   4.672   0.201 -0.6490  0.2379 -0.9879
   52MOL0     C 6897   2.879   4.619   0.086  0.3415 -0.2428 -0.7794
   52MOL0     C 6898   2.762   4.534   0.131  0.1057 -0.7264  0.4328
   52MOL0     C 6899   2.699   4.461   0.021  0.5502  0.2008  0.2107
   52MOL0     C 6900   2.602   4.352   0.066  0.6251  0.5710  0.2085
   52MOL0     C 6901   2.471   4.364  -0.010 -0.2887  0.0356  0.3136
   52MOL0     N 6902   2.394   4.482   0.040 -0.0770  1.0126 -0.9550
   52MOL0     C 6903   2.364   4.577  -0.041 -0.0755 -0.2312  0.6193
   52MOL0     C 6904   2.300   4.676   0.041 -0.0237  0.9009  0.1445
   52MOL0     C 6905   2.253   4.813   0.021  0.7236  0.8302 -0.4595
   52MOL0     C 6906   2.113   4.824  -0.051 -0.0354 -0.5751  0.5447
   52MOL0     C 6907   1.986   4.785   0.035 -0.4373 -0.5364  0.0289
   52MOL0     C 6908   1.968   4.862   0.154  0.0474  0.0505  0.2899
   52MOL0     O 6909   1.969   5.007   0.134  0.0777 -0.0806 -0.3434
   52MOL0     C 6910   1.853   5.070   0.166  0.2238  0.1482  0.2548
   52MOL0     C 6911   1.834   5.128   0.288  0.0345  0.2686  0.0680
   52MOL0     C 6912   1.714   5.197   0.309 -0.3558 -0.2623  1.0440
   52MOL0     C 6913   1.722   5.276   0.433 -0.4189 -0.1546  0.2253
   52MOL0     C 6914   1.612   5.199   0.219  0.5336 -0.2234  0.4723
   52MOL0     C 6915   1.491   5.270   0.240  0.0011 -0.1101 -0.7615
   52MOL0     O 6916   1.480   5.384   0.174 -0.0094  0.2898 -0.1633
   52MOL0     C 6917   1.372   5.470   0.195 -0.2046 -0.0868  0.2872
   52MOL0     C 6918   1.241   5.434   0.204 -0.4535 -0.0098  0.5311
   52MOL0     C 6919   1.137   5.526   0.240 -0.6150 -0.3109  1.5604
   52MOL0     C 6920   1.176   5.660   0.265 -0.8583 -0.3083 -0.4734
   52MOL0     O 6921   1.085   5.752   0.303  1.5964 -0.0137  0.1004
   52MOL0     C 6922   0.954   5.709   0.357  0.6979 -0.8683  0.1163
   52MOL0     C 6923   0.851   5.826   0.335  0.4723 -0.0782  0.8366
   52MOL0     C 6924   0.868   5.940   0.436  0.0225  0.7650 -0.4434
   52MOL0     C 6925   0.766   6.055   0.411 -0.8907 -0.5183 -0.5616
   52MOL0     C 6926   0.778   6.137   0.537  0.1874  0.1616 -0.0715
   52MOL0     C 6927   0.678   6.095   0.645  0.7739  0.4588 -0.2166
   52MOL0     C 6928   0.659   6.177   0.770 -0.0021 -1.1241  0.1208
   52MOL0     C 6929   0.553   6.116   0.868 -0.2063  0.5179 -0.1430
   52MOL0    Cl 6930   0.625   5.971   0.959 -0.1395 -0.4949 -0.1740
   52MOL0     C 6931   1.304   5.701   0.244 -0.0422 -0.5634  0.5354
   52MOL0     C 6932   1.403   5.603   0.221 -0.4131 -0.1688  0.4093
   52MOL0     O 6933   1.412   5.226   0.324 -0.5902  0.4726  0.7172
   52MOL0     C 6934   1.624   5.125   0.097  0.0449 -0.4680  0.6864
   52MOL0     C 6935   1.744   5.054   0.072  0.4753  0.0432 -0.3701
   52MOL0     N 6936   2.293   4.622   0.166  0.4342  0.1347  0.5635
   52MOL0     N 6937   2.343   4.507   0.169 -0.6841 -0.3514 -0.1588
   52MOL0     C 6938   3.360   5.015   0.294 -1.1567  0.0359  0.2396
   52MOL0     C 6939   3.470   5.072   0.356  0.0847 -0.1212  0.2263
   52MOL0     C 6940   3.883   5.162   0.516  0.4395  0.6449 -0.4559
   52MOL0     C 6941   3.940   5.143   0.645  0.0127 -0.3448 -0.8093
   52MOL0     C 6942   4.033   5.232   0.688 -1.7243  0.2682  0.6634
   52MOL0     C 6943   4.086   5.327   0.597  1.0142  0.3193 -1.0775
   52MOL0     O 6944   4.183   5.414   0.633 -0.3984 -0.3126  0.9417
   52MOL0     C 6945   4.174   5.475   0.763 -0.6639  0.4007 -0.2467
   52MOL0     C 6946   4.037   5.548   0.785 -0.3917  0.1345  0.4557
   52MOL0     C 6947   4.021   5.670   0.690 -0.1881 -1.0196  0.0907
   52MOL0     C 6948   3.905   5.765   0.722  1.1173 -0.5343 -0.2781
   52MOL0     C 6949   3.863   5.776   0.864  0.7832  0.5131  0.7217
   52MOL0     C 6950   3.827   5.785   0.984  0.1457  1.5691  0.0118
   52MOL0     C 6951   4.034   5.349   0.473 -0.0346  1.0589  0.9068
   52MOL0     C 6952   3.927   5.267   0.434  0.0409  0.2013  0.8168
   52MOL0     H 6953   3.730   4.901   0.207  1.3786 -1.3183  2.6074
   52MOL0     H 6954   3.528   4.801   0.082  3.6271 -0.2289  1.1739
   52MOL0     H 6955   3.211   4.756   0.315  0.0923  2.2424  0.3399
   52MOL0     H 6956   3.108   4.887   0.258 -2.4206 -1.0412 -0.3985
   52MOL0     H 6957   3.070   4.788   0.048  0.1838  0.8507  0.5497
   52MOL0     H 6958   3.148   4.638   0.095  1.7840  1.4967  1.4812
   52MOL0     H 6959   2.969   4.587   0.270 -2.1585  0.7023 -0.2051
   52MOL0     H 6960   2.907   4.758   0.239 -3.3168 -1.0053 -1.7867
   52MOL0     H 6961   2.843   4.702   0.024 -1.2993 -0.7596 -0.5775
   52MOL0     H 6962   2.940   4.550   0.028  0.0276 -2.2330  1.1417
   52MOL0     H 6963   2.795   4.467   0.210 -2.2984 -0.8449  1.4408
   52MOL0     H 6964   2.688   4.602   0.177 -0.2178 -0.5950 -0.2712
   52MOL0     H 6965   2.641   4.540  -0.029 -1.3779 -0.8762  0.6492
   52MOL0     H 6966   2.769   4.424  -0.055  0.5879  3.8254 -1.7537
   52MOL0     H 6967   2.645   4.251   0.068 -2.0155 -0.6686 -0.7923
   52MOL0     H 6968   2.580   4.368   0.172  0.2033 -0.0890  0.2279
   52MOL0     H 6969   2.418   4.269  -0.013 -0.5922  0.2053  0.2450
   52MOL0     H 6970   2.498   4.376  -0.115 -0.9907 -0.5284  0.0642
   52MOL0     H 6971   2.394   4.587  -0.145 -2.1821 -2.0173 -0.2400
   52MOL0     H 6972   2.231   4.864   0.116 -0.0952  1.0697 -0.7704
   52MOL0     H 6973   2.337   4.853  -0.036  0.9903  2.1556  0.7899
   52MOL0     H 6974   2.120   4.763  -0.142  2.1418 -2.3743  1.8228
   52MOL0     H 6975   2.108   4.925  -0.091 -0.1761 -1.2590 -1.3002
   52MOL0     H 6976   1.999   4.679   0.061  0.1834 -0.3737  0.4062
   52MOL0     H 6977   1.901   4.797  -0.033 -1.0598 -0.7513  0.7582
   52MOL0     H 6978   2.045   4.822   0.220  1.7401 -1.8170 -2.6468
   52MOL0     H 6979   1.876   4.831   0.205  0.0990 -2.8790 -1.1952
   52MOL0     H 6980   1.919   5.125   0.356  2.3922 -0.7783 -2.6914
   52MOL0     H 6981   1.664   5.226   0.511 -1.1314 -1.4857 -1.1126
   52MOL0     H 6982   1.822   5.289   0.476 -1.0484  2.0006  1.2052
   52MOL0     H 6983   1.688   5.378   0.413  1.7480  0.8314  1.2665
   52MOL0     H 6984   1.226   5.328   0.183  3.4567 -0.4682 -0.7729
   52MOL0     H 6985   1.040   5.477   0.234 -1.8369  1.9990 -4.4210
   52MOL0     H 6986   0.901   5.628   0.305 -0.8219 -0.2085  0.5614
   52MOL0     H 6987   0.970   5.689   0.463  0.5322 -0.7077  0.1733
   52MOL0     H 6988   0.864   5.862   0.232  1.6885 -1.7098  0.3813
   52MOL0     H 6989   0.753   5.781   0.352 -0.4184  1.8782  1.1384
   52MOL0     H 6990   0.970   5.977   0.429  0.2401  0.3158  0.1870
   52MOL0     H 6991   0.872   5.904   0.540 -2.5231  1.5979  0.0176
   52MOL0     H 6992   0.791   6.117   0.324  1.7444  1.1159  1.1964
   52MOL0     H 6993   0.662   6.027   0.393 -1.3148 -0.6299  1.6985
   52MOL0     H 6994   0.758   6.239   0.504 -0.1906 -0.2976 -1.3339
   52MOL0     H 6995   0.878   6.125   0.581 -0.8189 -0.7068  2.1247
   52MOL0     H 6996   0.579   6.080   0.601  1.0319  0.7355 -0.9018
   52MOL0     H 6997   0.705   5.996   0.682  0.0555  0.0004 -0.8994
   52MOL0     H 6998   0.637   6.277   0.731 -2.4381 -1.7275 -0.2264
   52MOL0     H 6999   0.753   6.174   0.826 -0.9073 -0.2418  1.7559
   52MOL0     H 7000   0.464   6.079   0.818 -0.3266 -0.5200  0.7823
   52MOL0     H 7001   0.530   6.198   0.937 -0.8590 -0.3685  0.7296
   52MOL0     H 7002   1.325   5.803   0.275 -2.0733  0.7450 -1.9941
   52MOL0     H 7003   1.509   5.625   0.209  0.0242 -1.3940  1.7583
   52MOL0     H 7004   1.546   5.130   0.022  1.8747  2.3881 -1.2425
   52MOL0     H 7005   1.745   5.002  -0.023 -1.0959  1.7990 -1.3983
   52MOL0     H 7006   3.257   5.040   0.317 -1.2640 -1.4678  1.5350
   52MOL0     H 7007   3.475   5.150   0.432  0.4397  0.6309 -0.5581
   52MOL0     H 7008   3.909   5.059   0.707  2.4092 -1.0315 -0.4614
   52MOL0     H 7009   4.097   5.215   0.773  0.3476  0.8805 -0.6927
   52MOL0     H 7010   4.182   5.398   0.841  0.5874 -1.8616 -2.4464
   52MOL0     H 7011   4.255   5.549   0.769 -0.8306  0.7311 -1.7016
   52MOL0     H 7012   4.032   5.588   0.887 -2.1064  2.7425 -0.5436
   52MOL0     H 7013   3.950   5.480   0.780  1.2907 -2.1703  0.8528
   52MOL0     H 7014   4.011   5.638   0.586 -1.9207  1.0075 -0.4484
   52MOL0     H 7015   4.117   5.722   0.699  0.8486 -2.6710 -0.8572
   52MOL0     H 7016   3.815   5.744   0.664  0.8501 -1.2556  0.3879
   52MOL0     H 7017   3.937   5.866   0.695 -1.9220  0.0129 -2.3048
   52MOL0     H 7018   3.794   5.770   1.085  1.1270 -0.1552  0.1054
   52MOL0     H 7019   4.088   5.413   0.403  0.9663 -1.5461 -0.8760
   52MOL0     H 7020   3.878   5.290   0.340 -0.5243 -1.5080  0.6636
   53MOL0     O 7021   5.653   0.677   3.630  0.0771  0.3080 -0.3295
   53MOL0     C 7022   5.669   0.623   3.736  0.4456 -0.2926  0.2722
   53MOL0     O 7023   5.765   0.655   3.819 -0.2506  0.0982 -0.9958
   53MOL0     C 7024   5.859   0.748   3.786  0.2263 -1.2875 -0.4409
   53MOL0     C 7025   5.988   0.712   3.802  0.1595  0.3353 -0.0255
   53MOL0     C 7026   6.094   0.808   3.786 -1.1658  0.0106  0.5277
   53MOL0     C 7027   6.068   0.948   3.760  0.4725  0.7994  1.0831
   53MOL0     O 7028   6.165   1.046   3.742  0.8130  0.2895 -0.1637
   53MOL0     C 7029   6.166   1.112   3.620 -0.3477 -0.0684 -0.6430
   53MOL0     C 7030   6.295   1.198   3.619  0.1926  0.4523 -0.1264
   53MOL0     C 7031   6.319   1.280   3.489  0.5246  0.4472  0.2589
   53MOL0     C 7032   6.383   1.200   3.384  0.0437 -1.0749  0.7972
   53MOL0     C 7033   6.460   1.284   3.279  0.4825 -0.2390 -0.2507
   53MOL0     C 7034   6.526   1.193   3.178 -0.3470 -0.8085  0.1800
   53MOL0     C 7035   6.649   1.103   3.213  0.1485  0.4835  0.2085
   53MOL0     C 7036   6.770   1.184   3.258  0.3126 -0.1777  0.0532
   53MOL0     N 7037   6.882   1.103   3.282 -0.0945  0.7470  0.2854
   53MOL0     C 7038   6.924   0.991   3.206 -0.7904  0.0367 -0.8893
   53MOL0     C 7039   7.029   0.937   3.273  1.6823 -0.3869  0.1786
   53MOL0     C 7040   7.100   0.821   3.224  1.1766 -0.0048 -0.6304
   53MOL0     C 7041   7.078   0.690   3.299  0.0526  0.4983 -0.0318
   53MOL0     C 7042   7.068   0.686   3.455 -0.5809 -0.4865  0.2346
   53MOL0     C 7043   6.997   0.554   3.497 -0.4100 -0.4480  0.6622
   53MOL0     O 7044   6.858   0.544   3.453 -0.1280  0.5523 -0.8851
   53MOL0     C 7045   6.793   0.419   3.435  0.2716 -0.7046  0.2812
   53MOL0     C 7046   6.684   0.411   3.345 -0.6464 -0.1080 -0.4796
   53MOL0     C 7047   6.625   0.290   3.315 -0.2956  0.6319 -0.3382
   53MOL0     C 7048   6.514   0.289   3.221  0.4467 -0.1836  0.8387
   53MOL0     C 7049   6.668   0.166   3.384  0.5676 -0.1814  0.9743
   53MOL0     C 7050   6.609   0.029   3.366  0.4505  0.3324 -0.3138
   53MOL0     O 7051   6.634  -0.070   3.464 -0.1869 -0.1201 -0.7262
   53MOL0     C 7052   6.567  -0.192   3.450  0.6537  0.5023  0.2209
   53MOL0     C 7053   6.446  -0.218   3.520  0.0832 -0.6081 -0.4802
   53MOL0     C 7054   6.361  -0.325   3.501  0.2778  0.1041  0.3205
   53MOL0     C 7055   6.403  -0.418   3.403 -0.0752  0.7404  0.2735
   53MOL0     O 7056   6.331  -0.542   3.387  0.2332 -0.3112  1.5393
   53MOL0     C 7057   6.337  -0.633   3.278 -0.3899  0.8695 -0.1244
   53MOL0     C 7058   6.335  -0.782   3.323 -0.0194 -0.4300  0.5375
   53MOL0     C 7059   6.479  -0.839   3.349 -0.6357 -0.1026 -0.4767
   53MOL0     C 7060   6.472  -0.981   3.421  1.0146 -0.6809 -0.1321
   53MOL0     C 7061   6.404  -1.095   3.330 -0.3066 -0.0806 -0.3242
   53MOL0     C 7062   6.388  -1.237   3.402 -0.2278 -0.2519 -0.5394
   53MOL0     C 7063   6.464  -1.350   3.342 -1.4738  0.4689 -0.2196
   53MOL0     C 7064   6.616  -1.335   3.363 -0.5007  0.4318  0.4761
   53MOL0    Cl 7065   6.677  -1.484   3.283 -0.0970  0.1533  0.3126
   53MOL0     C 7066   6.513  -0.400   3.328  0.0292 -0.3903  0.8524
   53MOL0     C 7067   6.592  -0.290   3.349  0.1004  0.7187  0.4918
   53MOL0     O 7068   6.549   0.013   3.264  0.7923 -0.6745 -0.0931
   53MOL0     C 7069   6.772   0.181   3.473  0.4933 -0.3958 -0.1552
   53MOL0     C 7070   6.835   0.305   3.497  0.0499 -0.2602  0.4367
   53MOL0     N 7071   7.034   1.017   3.390  0.2300 -0.5774 -0.6470
   53MOL0     N 7072   6.946   1.108   3.406  0.3787 -0.5271 -0.7543
   53MOL0     C 7073   5.928   0.977   3.759  0.0260 -0.3134 -0.4162
   53MOL0     C 7074   5.828   0.882   3.765 -0.7934  0.2627  0.8222
   53MOL0     C 7075   5.575   0.511   3.772 -0.3483 -0.0023 -0.5439
   53MOL0     C 7076   5.450   0.507   3.708 -0.2325  1.1406  0.4743
   53MOL0     C 7077   5.362   0.407   3.756 -0.5009  0.5192 -0.6593
   53MOL0     C 7078   5.406   0.325   3.871  1.1969 -0.2797  0.3647
   53MOL0     O 7079   5.302   0.241   3.923  0.4342 -0.6063  0.0963
   53MOL0     C 7080   5.212   0.297   4.019 -0.2624 -0.0158  0.5334
   53MOL0     C 7081   5.071   0.283   3.964 -0.1092  0.1868  0.4044
   53MOL0     C 7082   4.977   0.196   4.041 -0.5667  0.6977 -0.3158
   53MOL0     C 7083   4.860   0.145   3.963  0.6871  0.6195  0.1147
   53MOL0     C 7084   4.766   0.089   4.055 -0.0548  0.1571  0.1002
   53MOL0     C 7085   4.690   0.041   4.126  0.2684 -0.1710 -0.2812
   53MOL0     C 7086   5.525   0.332   3.925 -0.1001  0.4348  0.7006
   53MOL0     C 7087   5.612   0.428   3.873  0.1187 -0.9131 -0.2791
   53MOL0     H 7088   6.002   0.604   3.811  0.1319 -0.4098 -5.4248
   53MOL0     H 7089   6.198   0.780   3.804 -1.2558  0.5853  2.0938
   53MOL0     H 7090   6.171   1.046   3.533 -2.4496 -1.5866  0.2858
   53MOL0     H 7091   6.072   1.167   3.614 -0.5080 -0.3503 -0.7429
   53MOL0     H 7092   6.287   1.256   3.711 -1.7381 -0.8044  0.5552
   53MOL0     H 7093   6.382   1.133   3.633  0.1267  0.8423  2.4802
   53MOL0     H 7094   6.220   1.316   3.460 -0.7564 -1.9141  1.4476
   53MOL0     H 7095   6.381   1.366   3.517  2.1272 -0.5238 -0.1634
   53MOL0     H 7096   6.444   1.121   3.428 -0.7334 -1.2663  1.5505
   53MOL0     H 7097   6.317   1.141   3.320  2.4018 -1.3617 -1.5566
   53MOL0     H 7098   6.388   1.348   3.226  1.5428  1.2230  0.0117
   53MOL0     H 7099   6.531   1.351   3.329 -1.0292 -1.4808  3.9223
   53MOL0     H 7100   6.446   1.130   3.139 -0.2230 -2.3523  2.2326
   53MOL0     H 7101   6.563   1.249   3.092 -2.3359 -0.9584 -0.8223
   53MOL0     H 7102   6.617   1.032   3.290 -1.7534  1.7668  0.6612
   53MOL0     H 7103   6.663   1.057   3.115  2.6939  0.5965  0.4520
   53MOL0     H 7104   6.741   1.239   3.349  0.2971 -0.1318  0.0206
   53MOL0     H 7105   6.781   1.265   3.186 -1.0028  3.4338  3.5662
   53MOL0     H 7106   6.880   0.948   3.116 -0.0336 -4.2907  0.5377
   53MOL0     H 7107   7.085   0.804   3.117 -0.9169  0.4866 -0.4446
   53MOL0     H 7108   7.207   0.845   3.232  1.4352 -1.5541  1.7185
   53MOL0     H 7109   7.152   0.620   3.260  0.9494  0.9893  0.7552
   53MOL0     H 7110   6.982   0.652   3.263  0.4350 -1.6444  1.0547
   53MOL0     H 7111   7.019   0.776   3.492 -1.1057 -1.4427  1.9467
   53MOL0     H 7112   7.174   0.682   3.484  0.3510 -2.9710 -2.8797
   53MOL0     H 7113   7.011   0.546   3.605  0.9109 -2.3720  0.3894
   53MOL0     H 7114   7.057   0.474   3.454  2.0289  1.8204 -0.4230
   53MOL0     H 7115   6.656   0.504   3.297  1.0219 -0.2283 -1.7726
   53MOL0     H 7116   6.490   0.387   3.178 -0.0022 -1.9603 -3.4106
   53MOL0     H 7117   6.519   0.227   3.131 -0.8161 -2.4092  2.2152
   53MOL0     H 7118   6.422   0.271   3.277 -0.3003 -1.8899 -0.8392
   53MOL0     H 7119   6.417  -0.138   3.589  0.7462 -0.8936  0.1408
   53MOL0     H 7120   6.276  -0.336   3.567 -1.1257  2.0207 -1.0379
   53MOL0     H 7121   6.251  -0.609   3.215  0.1381  1.4659 -0.6283
   53MOL0     H 7122   6.425  -0.624   3.213 -0.9879  2.0325 -0.7990
   53MOL0     H 7123   6.281  -0.803   3.415  1.6728 -1.2562  1.3843
   53MOL0     H 7124   6.288  -0.828   3.235  0.0649  4.1119 -2.2322
   53MOL0     H 7125   6.531  -0.766   3.411  0.0767 -0.7850 -0.2548
   53MOL0     H 7126   6.540  -0.853   3.259  0.9005 -2.0014  0.7655
   53MOL0     H 7127   6.573  -1.019   3.439  0.5234 -0.4606  3.8908
   53MOL0     H 7128   6.432  -0.973   3.522 -0.3528  1.5265 -0.7876
   53MOL0     H 7129   6.472  -1.124   3.249  1.6124 -0.7840  1.4263
   53MOL0     H 7130   6.306  -1.067   3.292 -0.5914 -0.0283  0.4349
   53MOL0     H 7131   6.419  -1.236   3.507 -2.3045 -2.3576  0.1760
   53MOL0     H 7132   6.283  -1.261   3.420 -0.1335  0.3504  0.9930
   53MOL0     H 7133   6.438  -1.367   3.237  1.2687  0.5078 -0.9915
   53MOL0     H 7134   6.447  -1.448   3.386  6.0989 -1.9976 -1.3976
   53MOL0     H 7135   6.643  -1.339   3.469 -0.5511 -1.5947  0.4531
   53MOL0     H 7136   6.656  -1.243   3.320  1.2536 -0.3673  0.3276
   53MOL0     H 7137   6.545  -0.463   3.245  3.0736 -0.4840  1.9597
   53MOL0     H 7138   6.684  -0.281   3.292 -0.0572 -0.8509 -0.0609
   53MOL0     H 7139   6.800   0.096   3.535 -0.0193 -2.1645 -2.1855
   53MOL0     H 7140   6.901   0.321   3.582 -1.1061 -2.2114  1.7630
   53MOL0     H 7141   5.902   1.082   3.755 -0.2227 -0.3512  0.0988
   53MOL0     H 7142   5.724   0.911   3.762 -1.3934 -1.6690 -2.8658
   53MOL0     H 7143   5.419   0.572   3.626  2.1976  1.5484 -0.1880
   53MOL0     H 7144   5.263   0.377   3.723 -0.5516 -0.8429  0.6062
   53MOL0     H 7145   5.232   0.257   4.119  5.7431 -0.3792 -0.4393
   53MOL0     H 7146   5.226   0.405   4.009 -0.1034 -0.2584 -3.6782
   53MOL0     H 7147   5.078   0.257   3.858  0.8770  5.2541 -1.0239
   53MOL0     H 7148   5.023   0.381   3.961 -0.6463 -0.0778  0.1191
   53MOL0     H 7149   4.945   0.268   4.116  0.8469 -1.1178  2.1700
   53MOL0     H 7150   5.028   0.110   4.085 -0.7000  1.0708  0.5762
   53MOL0     H 7151   4.895   0.071   3.891 -0.6837 -1.3090  1.3497
   53MOL0     H 7152   4.795   0.218   3.913 -0.3668 -0.7145 -0.5050
   53MOL0     H 7153   4.618   0.004   4.197  2.0619 -0.4324  1.4761
   53MOL0     H 7154   5.550   0.271   4.011  0.5692 -0.3940 -0.0635
   53MOL0     H 7155   5.704   0.440   3.930 -1.3364  1.9585  1.6973
   54MOL0     O 7156   7.634   3.885   6.926 -0.0497 -0.1692 -0.2321
   54MOL0     C 7157   7.732   3.836   6.880 -0.6849  1.4756  0.6634
   54MOL0     O 7158   7.754   3.701   6.877  0.3007  0.7365 -0.4181
   54MOL0     C 7159   7.657   3.619   6.940 -0.4811 -0.2749 -0.2034
   54MOL0     C 7160   7.558   3.558   6.860 -1.1232 -0.4140 -0.7764
   54MOL0     C 7161   7.453   3.495   6.923  0.0091  0.0163 -1.0447
   54MOL0     C 7162   7.447   3.462   7.056 -0.9365 -0.0800  1.0773
   54MOL0     O 7163   7.338   3.383   7.090  0.1562 -0.4741 -0.3270
   54MOL0     C 7164   7.337   3.356   7.234  0.8970  0.0165  0.3030
   54MOL0     C 7165   7.206   3.299   7.284 -0.1909 -0.3492  0.7907
   54MOL0     C 7166   7.082   3.380   7.227 -0.1008 -1.0352  1.0673
   54MOL0     C 7167   6.957   3.314   7.297 -0.1181 -0.6473  0.5678
   54MOL0     C 7168   6.919   3.180   7.224  0.1109 -0.1819  0.5449
   54MOL0     C 7169   6.782   3.131   7.261 -0.1155  0.5645 -0.3883
   54MOL0     C 7170   6.735   3.011   7.180  0.1975  0.3353  0.2803
   54MOL0     C 7171   6.588   2.975   7.188 -0.3481 -0.0232  0.5497
   54MOL0     N 7172   6.555   2.891   7.306 -0.7219  0.1985  0.0044
   54MOL0     C 7173   6.555   2.755   7.306  0.2349 -0.5099 -0.8196
   54MOL0     C 7174   6.559   2.711   7.437 -0.5159  0.0997  0.3117
   54MOL0     C 7175   6.583   2.570   7.463 -0.4556  0.1895  0.2345
   54MOL0     C 7176   6.731   2.520   7.510 -0.3807  0.2858  0.8105
   54MOL0     C 7177   6.742   2.528   7.667 -0.0348 -0.4426  0.5782
   54MOL0     C 7178   6.882   2.509   7.710  0.3468  0.0685  0.5951
   54MOL0     O 7179   6.928   2.374   7.704 -0.2866  0.0938  0.3145
   54MOL0     C 7180   7.024   2.338   7.796  1.0873 -0.4513 -0.2570
   54MOL0     C 7181   7.157   2.370   7.786  0.3468 -1.1326 -0.4218
   54MOL0     C 7182   7.240   2.323   7.891  0.1247  0.8480 -0.4727
   54MOL0     C 7183   7.380   2.364   7.865 -0.4682  0.0952  0.1563
   54MOL0     C 7184   7.196   2.228   7.986  0.3589 -1.4287 -0.0998
   54MOL0     C 7185   7.287   2.169   8.090  0.6696 -0.7173  0.2822
   54MOL0     O 7186   7.405   2.234   8.122 -0.2718  0.3056  0.6019
   54MOL0     C 7187   7.468   2.202   8.239  0.5557 -0.3347 -0.9615
   54MOL0     C 7188   7.553   2.097   8.251  0.1604  0.2248 -0.0763
   54MOL0     C 7189   7.636   2.085   8.362  0.5837  0.0306 -0.6679
   54MOL0     C 7190   7.620   2.164   8.472 -0.6961  0.7399  0.3208
   54MOL0     O 7191   7.706   2.144   8.582 -0.0700  0.1518 -0.6122
   54MOL0     C 7192   7.682   2.194   8.712 -0.1528 -0.3570 -0.0736
   54MOL0     C 7193   7.575   2.111   8.794 -0.7338  0.1129  0.5874
   54MOL0     C 7194   7.534   2.172   8.923 -0.4915 -0.3795 -0.1283
   54MOL0     C 7195   7.438   2.078   9.000  1.1443 -0.5232 -0.0285
   54MOL0     C 7196   7.519   1.971   9.073  0.8606 -0.7765  0.0237
   54MOL0     C 7197   7.497   1.839   9.011 -0.0549  0.6379  0.2679
   54MOL0     C 7198   7.585   1.731   9.080 -0.6145 -0.2124 -0.4857
   54MOL0     C 7199   7.552   1.596   9.038  0.4141 -0.0300 -0.1360
   54MOL0    Cl 7200   7.585   1.573   8.864 -0.3331 -0.1920  0.2888
   54MOL0     C 7201   7.531   2.273   8.462 -0.6754 -0.7288  0.2326
   54MOL0     C 7202   7.457   2.290   8.348 -0.2537  0.3395 -0.9981
   54MOL0     O 7203   7.233   2.078   8.154  0.4530  0.5460 -0.2478
   54MOL0     C 7204   7.058   2.195   7.983 -0.0195  0.2044 -0.6308
   54MOL0     C 7205   6.973   2.251   7.894 -0.0095  0.0627  0.3029
   54MOL0     N 7206   6.570   2.831   7.514  0.0302  0.0679  0.2491
   54MOL0     N 7207   6.561   2.933   7.433 -0.0525 -1.1315 -0.4992
   54MOL0     C 7208   7.559   3.496   7.131 -0.7802  0.9557 -0.0570
   54MOL0     C 7209   7.661   3.581   7.081 -0.0809 -0.7978  0.0354
   54MOL0     C 7210   7.819   3.923   6.785  0.1259  0.4207  0.2317
   54MOL0     C 7211   7.811   4.064   6.793  0.2410  0.2799  0.7624
   54MOL0     C 7212   7.892   4.137   6.702  0.0430  0.1299 -0.2230
   54MOL0     C 7213   7.991   4.073   6.627 -0.6158 -0.0591 -0.2575
   54MOL0     O 7214   8.078   4.133   6.540  0.4038 -0.3893 -0.7550
   54MOL0     C 7215   8.099   4.276   6.551  0.2588 -0.8323 -0.2487
   54MOL0     C 7216   8.243   4.326   6.529  1.0630  1.0752 -0.0681
   54MOL0     C 7217   8.265   4.465   6.558  0.1749  0.1514  0.0352
   54MOL0     C 7218   8.200   4.564   6.463 -0.3827  0.2693  0.4105
   54MOL0     C 7219   8.260   4.691   6.485 -0.7756  0.7319 -0.4042
   54MOL0     C 7220   8.317   4.795   6.521  1.1430  0.4412  0.1078
   54MOL0     C 7221   7.997   3.935   6.642  0.0853  0.4116  0.4800
   54MOL0     C 7222   7.912   3.857   6.713 -0.9369  1.0679  0.2724
   54MOL0     H 7223   7.553   3.584   6.755  2.4548  1.8056 -0.5508
   54MOL0     H 7224   7.366   3.469   6.863 -0.7843 -0.4491  0.2506
   54MOL0     H 7225   7.411   3.279   7.259 -1.5277 -2.7931 -0.6126
   54MOL0     H 7226   7.341   3.450   7.291 -0.8080 -2.2161  4.5644
   54MOL0     H 7227   7.199   3.196   7.246  0.0440 -0.1028  0.0561
   54MOL0     H 7228   7.220   3.296   7.392  3.3265  0.4733  0.4753
   54MOL0     H 7229   7.104   3.482   7.261 -1.3516  0.0436 -1.1440
   54MOL0     H 7230   7.078   3.381   7.118 -0.8402 -1.0447  1.0882
   54MOL0     H 7231   6.977   3.298   7.403 -0.3159  1.7497  1.0181
   54MOL0     H 7232   6.870   3.380   7.289 -0.4649 -0.7403  3.0188
   54MOL0     H 7233   6.909   3.194   7.116 -2.7988  1.7313  0.9309
   54MOL0     H 7234   7.001   3.110   7.241  0.7970 -0.2752 -2.5939
   54MOL0     H 7235   6.778   3.114   7.369 -2.6388  0.7134 -0.4018
   54MOL0     H 7236   6.711   3.210   7.236 -0.1378  1.3779  1.9314
   54MOL0     H 7237   6.744   3.040   7.075 -0.6178 -2.5144 -0.6658
   54MOL0     H 7238   6.799   2.924   7.197 -2.8769 -2.0965  0.3633
   54MOL0     H 7239   6.561   2.914   7.101 -2.4471  0.5600  0.7273
   54MOL0     H 7240   6.524   3.063   7.189 -1.8771 -0.8724 -3.2822
   54MOL0     H 7241   6.568   2.682   7.226  0.9878 -1.4355  0.1229
   54MOL0     H 7242   6.503   2.523   7.521 -0.2381 -0.9011 -0.3366
   54MOL0     H 7243   6.558   2.522   7.369 -3.4407  2.0917 -0.0806
   54MOL0     H 7244   6.807   2.587   7.468 -0.8367  0.7317  0.6953
   54MOL0     H 7245   6.751   2.417   7.479  3.4993  0.7893  1.1190
   54MOL0     H 7246   6.688   2.448   7.719  1.4723 -0.3594  2.3653
   54MOL0     H 7247   6.704   2.626   7.698 -2.9878 -1.1667 -0.4243
   54MOL0     H 7248   6.891   2.541   7.814  0.0090  0.0193  0.6404
   54MOL0     H 7249   6.945   2.579   7.654 -1.2732  0.4661 -0.8203
   54MOL0     H 7250   7.184   2.441   7.709 -1.2434 -1.7672 -1.6326
   54MOL0     H 7251   7.429   2.429   7.938  0.0704 -1.7166  1.4807
   54MOL0     H 7252   7.440   2.274   7.851  1.4817  1.0311  1.9727
   54MOL0     H 7253   7.380   2.422   7.772 -3.1833  2.2064  1.3159
   54MOL0     H 7254   7.575   2.037   8.164 -0.0041  1.9286 -1.3462
   54MOL0     H 7255   7.714   2.011   8.347  0.4609 -0.4102  0.7488
   54MOL0     H 7256   7.776   2.188   8.768  1.6291  2.1929 -2.4820
   54MOL0     H 7257   7.649   2.298   8.701 -0.1206 -0.4759 -1.5691
   54MOL0     H 7258   7.494   2.090   8.724  0.7307  0.1798 -1.2091
   54MOL0     H 7259   7.622   2.015   8.818 -1.2861 -1.1959 -2.9007
   54MOL0     H 7260   7.493   2.270   8.897  2.5052  1.5982  1.8722
   54MOL0     H 7261   7.620   2.188   8.990 -0.5553  2.3135 -0.5759
   54MOL0     H 7262   7.389   2.142   9.073  2.0374  2.1272 -1.6199
   54MOL0     H 7263   7.365   2.030   8.934  0.1042  0.1281  0.6411
   54MOL0     H 7264   7.476   1.949   9.171 -0.3844 -0.9713 -0.5570
   54MOL0     H 7265   7.626   1.991   9.087  0.0037  4.5105  0.9827
   54MOL0     H 7266   7.393   1.810   9.022  0.3702 -0.8823  0.4726
   54MOL0     H 7267   7.522   1.835   8.905  1.1582  3.0236  0.3972
   54MOL0     H 7268   7.570   1.735   9.188  2.4248 -2.1451  0.1209
   54MOL0     H 7269   7.690   1.747   9.054 -0.8673  0.4894 -1.1354
   54MOL0     H 7270   7.448   1.582   9.070  0.3791 -1.3023 -0.7649
   54MOL0     H 7271   7.615   1.525   9.093  2.5046  1.8373  0.0377
   54MOL0     H 7272   7.517   2.345   8.542 -1.7127  1.3195 -1.7080
   54MOL0     H 7273   7.392   2.377   8.356 -0.2059  0.1487  3.7255
   54MOL0     H 7274   7.020   2.138   8.068  0.4011  1.3255  0.3382
   54MOL0     H 7275   6.864   2.250   7.899 -0.0223  0.8766  0.2881
   54MOL0     H 7276   7.565   3.464   7.235 -0.8212 -1.1706 -0.6555
   54MOL0     H 7277   7.734   3.616   7.154 -2.7510 -0.2245  2.6562
   54MOL0     H 7278   7.739   4.116   6.855  0.8554  3.5158 -1.0142
   54MOL0     H 7279   7.878   4.243   6.689  2.8349  0.5552 -0.2096
   54MOL0     H 7280   8.025   4.324   6.486 -0.1030 -0.3740  0.4956
   54MOL0     H 7281   8.078   4.306   6.654  0.2379 -0.0968 -0.4640
   54MOL0     H 7282   8.286   4.309   6.430  2.3701  1.0812  0.4761
   54MOL0     H 7283   8.309   4.267   6.593 -0.5045  0.9302  1.4794
   54MOL0     H 7284   8.371   4.486   6.541 -0.3133  1.8250 -1.2153
   54MOL0     H 7285   8.236   4.489   6.661 -2.4318  1.6658 -0.9659
   54MOL0     H 7286   8.094   4.577   6.489 -0.4397 -0.0209  0.3218
   54MOL0     H 7287   8.210   4.533   6.359  3.2436  1.6080  0.2110
   54MOL0     H 7288   8.348   4.893   6.550  4.1165 -0.1328 -0.8783
   54MOL0     H 7289   8.083   3.886   6.598  1.1087 -0.2399  3.0284
   54MOL0     H 7290   7.914   3.749   6.708 -0.1173  1.1185 -0.8263
   55MOL0     O 7291   8.803   5.167   7.897  0.0342  0.6591 -0.4440
   55MOL0     C 7292   8.783   5.255   7.814 -0.4575 -0.0897 -0.9255
   55MOL0     O 7293   8.668   5.274   7.744  0.6295  0.1144  0.6840
   55MOL0     C 7294   8.589   5.164   7.743  0.1762 -1.1981  0.1120
   55MOL0     C 7295   8.490   5.134   7.839 -1.1045 -0.0682  0.2383
   55MOL0     C 7296   8.414   5.014   7.826  0.0459  1.6138  0.3414
   55MOL0     C 7297   8.442   4.921   7.722 -1.3229  0.5299 -0.0373
   55MOL0     O 7298   8.371   4.804   7.740  0.3509 -0.1606 -0.1137
   55MOL0     C 7299   8.394   4.697   7.642 -0.2304  0.9104 -0.1832
   55MOL0     C 7300   8.342   4.569   7.701 -0.0097  0.1462 -0.7725
   55MOL0     C 7301   8.401   4.536   7.841 -0.1048 -0.3044  0.7079
   55MOL0     C 7302   8.365   4.402   7.905  0.7625  0.0620  0.0233
   55MOL0     C 7303   8.409   4.380   8.047 -0.5594  0.4120 -0.3816
   55MOL0     C 7304   8.362   4.492   8.139 -0.0478  0.0970  0.2074
   55MOL0     C 7305   8.370   4.438   8.291  0.2226  0.0478  0.5325
   55MOL0     C 7306   8.304   4.509   8.414 -0.1257 -1.0355  0.4800
   55MOL0     N 7307   8.155   4.486   8.411  0.5920 -0.3068 -0.4424
   55MOL0     C 7308   8.084   4.406   8.321  0.2699 -0.1421  0.0096
   55MOL0     C 7309   7.957   4.445   8.331 -0.2643  0.0579 -0.2150
   55MOL0     C 7310   7.835   4.387   8.267  0.5959 -0.2446  0.4929
   55MOL0     C 7311   7.725   4.357   8.365 -0.5920 -0.3993  0.0706
   55MOL0     C 7312   7.642   4.246   8.312 -0.9630 -0.1380  0.0308
   55MOL0     C 7313   7.526   4.211   8.407  0.3382 -0.0603 -0.5006
   55MOL0     O 7314   7.441   4.332   8.422  0.3512 -0.4012  0.4991
   55MOL0     C 7315   7.339   4.325   8.514 -0.5992 -0.4482  0.6466
   55MOL0     C 7316   7.245   4.432   8.526  0.3722 -1.3034 -0.2680
   55MOL0     C 7317   7.124   4.427   8.601  0.0900  0.1733 -0.1049
   55MOL0     C 7318   7.014   4.532   8.589  0.1213  0.1819 -0.8798
   55MOL0     C 7319   7.105   4.308   8.679 -0.4387  0.4106  0.1765
   55MOL0     C 7320   6.988   4.286   8.762 -0.3254  0.6671 -1.1582
   55MOL0     O 7321   6.860   4.292   8.707 -0.1842  0.0772  1.2520
   55MOL0     C 7322   6.762   4.246   8.792  0.5102 -1.3287 -0.3681
   55MOL0     C 7323   6.717   4.110   8.798  0.6442  0.4073  0.1148
   55MOL0     C 7324   6.607   4.074   8.884  0.3189  0.1380  0.3487
   55MOL0     C 7325   6.555   4.166   8.971  0.5557 -0.4191 -0.8005
   55MOL0     O 7326   6.438   4.147   9.039  0.2422 -0.4845 -0.3437
   55MOL0     C 7327   6.388   4.017   9.069 -0.2746 -0.2352  0.4567
   55MOL0     C 7328   6.294   4.015   9.190 -0.3780  0.1043  0.5015
   55MOL0     C 7329   6.212   3.884   9.200  0.3505 -0.4465  0.5105
   55MOL0     C 7330   6.131   3.892   9.332  0.5400  0.2015  0.5852
   55MOL0     C 7331   6.010   3.789   9.335  0.1803  0.1520 -0.8247
   55MOL0     C 7332   6.061   3.646   9.358  0.3195  0.1429 -0.4314
   55MOL0     C 7333   6.123   3.629   9.499  0.1665 -0.3902  0.1501
   55MOL0     C 7334   6.063   3.519   9.589 -0.4513 -0.3222  0.4610
   55MOL0    Cl 7335   5.884   3.538   9.610  0.4552  0.3055  0.2650
   55MOL0     C 7336   6.599   4.292   8.969 -0.5840 -0.0421  0.3550
   55MOL0     C 7337   6.695   4.333   8.878 -0.0178 -0.1560  0.4523
   55MOL0     O 7338   7.016   4.257   8.880 -0.6670 -0.3634 -0.3725
   55MOL0     C 7339   7.196   4.202   8.672  0.4240  1.2158  0.4347
   55MOL0     C 7340   7.304   4.209   8.583 -0.4151 -0.7624 -0.2019
   55MOL0     N 7341   7.945   4.547   8.421  0.5881 -0.2844  0.9142
   55MOL0     N 7342   8.060   4.571   8.457 -1.0335  0.1011  0.6473
   55MOL0     C 7343   8.542   4.960   7.628  0.5068  0.7086 -0.3645
   55MOL0     C 7344   8.613   5.071   7.645 -0.7244 -0.5560  0.3156
   55MOL0     C 7345   8.897   5.339   7.789 -1.3790  0.4350 -0.8274
   55MOL0     C 7346   9.033   5.292   7.798  0.4235 -0.2386 -0.9728
   55MOL0     C 7347   9.135   5.384   7.762 -0.3390  0.2082 -0.9807
   55MOL0     C 7348   9.119   5.510   7.711  0.6794  0.0726 -0.5687
   55MOL0     O 7349   9.211   5.603   7.679  0.4514  0.0566 -0.1061
   55MOL0     C 7350   9.342   5.564   7.647  0.3549  0.1141 -0.2924
   55MOL0     C 7351   9.426   5.684   7.600  0.5327  0.5827  0.3578
   55MOL0     C 7352   9.439   5.784   7.718 -0.1494 -0.2485  0.8388
   55MOL0     C 7353   9.398   5.924   7.673 -0.4020 -0.3259  0.7526
   55MOL0     C 7354   9.252   5.928   7.669  0.0656  0.6691 -0.3588
   55MOL0     C 7355   9.130   5.942   7.680  0.3955  0.9026 -0.1739
   55MOL0     C 7356   8.990   5.553   7.707  0.5798  0.3590 -0.0698
   55MOL0     C 7357   8.879   5.478   7.746  0.2448  0.1075 -0.7363
   55MOL0     H 7358   8.476   5.202   7.923  0.2704  0.4826  0.0458
   55MOL0     H 7359   8.333   4.992   7.895 -1.9007 -1.9496 -2.7549
   55MOL0     H 7360   8.327   4.729   7.562 -2.2177 -0.3337  0.8923
   55MOL0     H 7361   8.494   4.670   7.606 -0.4313 -2.7024  1.5397
   55MOL0     H 7362   8.235   4.579   7.719 -0.1850  0.0921 -1.7521
   55MOL0     H 7363   8.354   4.488   7.629  0.1209 -1.5473  1.0517
   55MOL0     H 7364   8.509   4.554   7.841  0.0968 -1.4110  0.1324
   55MOL0     H 7365   8.355   4.614   7.903  0.8298  2.1215 -1.4894
   55MOL0     H 7366   8.256   4.392   7.897  0.6610  0.1965  1.0772
   55MOL0     H 7367   8.410   4.323   7.844 -1.6075 -0.7736 -0.7868
   55MOL0     H 7368   8.374   4.281   8.076 -2.3435  0.6048 -1.6948
   55MOL0     H 7369   8.519   4.386   8.043 -0.5031 -0.7144 -0.6428
   55MOL0     H 7370   8.420   4.583   8.120 -1.7747  1.1883 -0.0673
   55MOL0     H 7371   8.258   4.521   8.121 -1.0866 -2.1422  2.0476
   55MOL0     H 7372   8.342   4.333   8.287  1.8021 -0.4136  0.7503
   55MOL0     H 7373   8.477   4.436   8.313  0.4738 -1.5605 -0.7085
   55MOL0     H 7374   8.327   4.614   8.432 -1.8612 -0.9753  2.8985
   55MOL0     H 7375   8.334   4.462   8.508 -0.5806 -0.5522  0.8756
   55MOL0     H 7376   8.092   4.326   8.249 -3.4068 -0.8936  0.2259
   55MOL0     H 7377   7.796   4.454   8.191 -2.9466  2.0799  4.0067
   55MOL0     H 7378   7.860   4.297   8.210 -2.1551  0.2274 -1.6774
   55MOL0     H 7379   7.666   4.449   8.373  0.6911  0.4135  0.3986
   55MOL0     H 7380   7.783   4.343   8.456 -0.2840  0.8137  0.0855
   55MOL0     H 7381   7.707   4.160   8.295  2.5177  2.2584  0.0240
   55MOL0     H 7382   7.593   4.279   8.220 -1.9099 -3.0714 -0.6213
   55MOL0     H 7383   7.549   4.171   8.506 -2.2167 -1.3967 -0.3777
   55MOL0     H 7384   7.462   4.132   8.368 -0.9388  0.5813  0.2531
   55MOL0     H 7385   7.265   4.514   8.457 -2.3551  0.4662  0.8752
   55MOL0     H 7386   6.990   4.578   8.685  0.0257 -0.0872 -0.7744
   55MOL0     H 7387   7.035   4.611   8.516  2.8211  0.6388  0.2509
   55MOL0     H 7388   6.922   4.493   8.546 -0.0814  1.3000 -1.4891
   55MOL0     H 7389   6.771   4.038   8.737  1.5505  1.4999 -0.4154
   55MOL0     H 7390   6.568   3.974   8.870  2.1696 -0.2535 -3.0195
   55MOL0     H 7391   6.339   3.987   8.975 -2.5804 -1.8363  2.0563
   55MOL0     H 7392   6.471   3.958   9.107  0.5659  0.7161  0.1534
   55MOL0     H 7393   6.352   4.041   9.279  1.4320  1.1867 -0.9322
   55MOL0     H 7394   6.229   4.100   9.169  1.0488  0.7357 -1.6350
   55MOL0     H 7395   6.290   3.808   9.203  3.1521  2.1687 -0.7274
   55MOL0     H 7396   6.138   3.867   9.121  1.8206 -0.2835 -0.9538
   55MOL0     H 7397   6.182   3.880   9.428 -1.4311  0.7232  1.7640
   55MOL0     H 7398   6.083   3.990   9.328  0.3452  0.1115 -2.9961
   55MOL0     H 7399   5.943   3.783   9.249 -0.7164 -2.5341 -0.0363
   55MOL0     H 7400   5.948   3.820   9.419  1.8713 -0.3990  0.6908
   55MOL0     H 7401   5.974   3.579   9.358  1.7995 -1.8671  0.3897
   55MOL0     H 7402   6.133   3.617   9.281  2.1654 -0.9141  1.5941
   55MOL0     H 7403   6.104   3.717   9.560 -2.5602 -0.6756 -0.1535
   55MOL0     H 7404   6.231   3.614   9.494  0.3772  1.2988 -3.3164
   55MOL0     H 7405   6.105   3.529   9.690  1.8160  0.8698 -0.5117
   55MOL0     H 7406   6.081   3.419   9.547  2.7332  1.5020 -3.1464
   55MOL0     H 7407   6.548   4.365   9.031 -1.4272 -0.1243 -0.2181
   55MOL0     H 7408   6.718   4.439   8.872  1.3053 -0.3308  1.9279
   55MOL0     H 7409   7.196   4.118   8.742  1.1308  2.4840  2.0296
   55MOL0     H 7410   7.360   4.117   8.596  0.9435 -0.1345 -1.2863
   55MOL0     H 7411   8.584   4.894   7.553  0.3738  0.1551  0.0366
   55MOL0     H 7412   8.689   5.089   7.569 -0.5286 -1.0666  0.3847
   55MOL0     H 7413   9.049   5.196   7.847  3.8605  0.4540 -0.4588
   55MOL0     H 7414   9.234   5.351   7.791 -1.0347 -0.6084  0.5911
   55MOL0     H 7415   9.392   5.520   7.734  0.3143 -1.2462 -0.9304
   55MOL0     H 7416   9.336   5.496   7.562  1.6427  2.6936 -2.6004
   55MOL0     H 7417   9.375   5.729   7.515  0.2406 -3.3843 -1.8234
   55MOL0     H 7418   9.523   5.661   7.554 -0.3778  1.1136 -1.9342
   55MOL0     H 7419   9.546   5.790   7.740  0.4440  1.0315 -1.9357
   55MOL0     H 7420   9.383   5.749   7.804 -2.8244  1.6529 -0.0022
   55MOL0     H 7421   9.433   5.942   7.571 -4.0877 -1.3104 -0.8604
   55MOL0     H 7422   9.432   6.002   7.741  0.5575 -1.3511  1.5026
   55MOL0     H 7423   9.023   5.948   7.678  0.4363  1.6590 -1.6418
   55MOL0     H 7424   8.978   5.654   7.671 -0.2848  0.2798 -0.0439
   55MOL0     H 7425   8.782   5.526   7.736  0.1416  0.2601  0.7837
   56MOL0     O 7426   0.357   3.823  11.060 -0.0877 -0.0527  0.5281
   56MOL0     C 7427   0.239   3.790  11.063 -0.2873 -0.2112 -0.7862
   56MOL0     O 7428   0.161   3.760  11.172  0.4387 -0.4166 -0.2366
   56MOL0     C 7429   0.223   3.746  11.294  0.0709  0.7047 -0.8268
   56MOL0     C 7430   0.174   3.814  11.409 -0.7047  0.0688 -0.2022
   56MOL0     C 7431   0.249   3.816  11.533  0.4347  0.2030 -0.1519
   56MOL0     C 7432   0.364   3.744  11.547 -0.4794  0.1951 -0.5084
   56MOL0     O 7433   0.451   3.748  11.649 -0.2198  0.3782 -0.5189
   56MOL0     C 7434   0.432   3.839  11.756  0.2279  0.7462 -0.5959
   56MOL0     C 7435   0.556   3.868  11.843  0.2140  0.6883 -0.5690
   56MOL0     C 7436   0.618   3.748  11.908  0.1551 -0.2687 -0.2298
   56MOL0     C 7437   0.534   3.630  11.946 -0.2136  1.4640  0.3335
   56MOL0     C 7438   0.608   3.536  12.038  0.4485 -0.8266 -0.2980
   56MOL0     C 7439   0.520   3.411  12.042  0.2574  0.3472 -1.2210
   56MOL0     C 7440   0.603   3.298  12.117 -0.1841  0.1131  0.2362
   56MOL0     C 7441   0.507   3.181  12.135 -0.2464 -0.3235 -0.6538
   56MOL0     N 7442   0.404   3.191  12.241 -0.2061  0.3028  0.7382
   56MOL0     C 7443   0.435   3.247  12.364  0.1859  0.6098  0.1523
   56MOL0     C 7444   0.318   3.299  12.404  0.0297  0.1190  0.8612
   56MOL0     C 7445   0.290   3.382  12.523 -0.3243 -0.1028  1.0158
   56MOL0     C 7446   0.291   3.295  12.639  0.3763 -1.1991 -0.2883
   56MOL0     C 7447   0.228   3.363  12.765  0.0868  0.2481 -0.0849
   56MOL0     C 7448   0.209   3.270  12.881  0.4475 -0.1010 -0.1774
   56MOL0     O 7449   0.071   3.221  12.875 -0.6293  0.1943  0.5613
   56MOL0     C 7450   0.021   3.182  12.995 -0.4155  0.3077 -0.0491
   56MOL0     C 7451   0.113   3.121  13.096  0.7443 -1.0938  0.2648
   56MOL0     C 7452   0.045   3.049  13.195 -0.5464  0.6556 -0.2684
   56MOL0     C 7453   0.143   2.980  13.283  0.4802 -0.1777 -0.2900
   56MOL0     C 7454  -0.093   3.039  13.209  0.8266 -0.7627 -0.1225
   56MOL0     C 7455  -0.167   2.973  13.313  0.1169  0.7787 -0.9334
   56MOL0     O 7456  -0.288   3.026  13.351 -0.1952 -0.0214 -0.0603
   56MOL0     C 7457  -0.357   2.977  13.459  0.7358 -0.5784 -0.6124
   56MOL0     C 7458  -0.306   2.950  13.594 -0.9321 -0.6386  1.2268
   56MOL0     C 7459  -0.377   2.903  13.701 -1.0186  0.1794 -0.0635
   56MOL0     C 7460  -0.516   2.882  13.680  0.1466 -0.4783  0.0782
   56MOL0     O 7461  -0.598   2.832  13.780  0.3828  0.0724  0.7557
   56MOL0     C 7462  -0.537   2.778  13.891  0.1520  0.3049 -0.2626
   56MOL0     C 7463  -0.642   2.684  13.965  0.4418  0.0454 -1.0741
   56MOL0     C 7464  -0.618   2.639  14.103  0.1619  0.3727  0.4053
   56MOL0     C 7465  -0.668   2.750  14.196  0.9526  0.0419  0.0994
   56MOL0     C 7466  -0.625   2.739  14.340  0.0985  0.0441 -0.4127
   56MOL0     C 7467  -0.696   2.835  14.429  0.3232  0.2033 -0.3464
   56MOL0     C 7468  -0.683   2.788  14.577 -0.6768 -0.3407  0.2909
   56MOL0     C 7469  -0.545   2.768  14.636 -0.6203 -0.2580  0.7217
   56MOL0    Cl 7470  -0.422   2.887  14.587  0.4959 -0.6595 -0.3117
   56MOL0     C 7471  -0.570   2.903  13.556  0.9670  0.2401  0.7568
   56MOL0     C 7472  -0.491   2.945  13.443 -0.7444 -0.0630 -0.5893
   56MOL0     O 7473  -0.121   2.874  13.366 -0.1488  0.3063 -0.0476
   56MOL0     C 7474  -0.175   3.107  13.120  0.2686  1.0475  0.0133
   56MOL0     C 7475  -0.119   3.173  13.010 -0.0456 -0.5168 -0.8010
   56MOL0     N 7476   0.222   3.275  12.308  0.2950 -0.4388  0.8568
   56MOL0     N 7477   0.273   3.220  12.209 -0.7117 -0.0456  0.1223
   56MOL0     C 7478   0.403   3.662  11.439  0.1360 -0.0653  0.1396
   56MOL0     C 7479   0.338   3.667  11.310 -0.4749  0.0334  0.3169
   56MOL0     C 7480   0.162   3.830  10.934  1.1967 -0.0909  1.1701
   56MOL0     C 7481   0.228   3.850  10.810 -0.1909  0.8024  0.8886
   56MOL0     C 7482   0.155   3.863  10.688 -0.2404 -0.9494  0.1337
   56MOL0     C 7483   0.010   3.840  10.690 -0.2321 -0.0888 -0.6800
   56MOL0     O 7484  -0.076   3.864  10.580 -0.1276  0.3567  0.2013
   56MOL0     C 7485  -0.024   3.883  10.443 -0.2041 -0.1912 -0.6329
   56MOL0     C 7486   0.012   3.751  10.377  0.0258 -0.0051  0.4310
   56MOL0     C 7487   0.055   3.785  10.227  0.9122 -0.0657  0.0038
   56MOL0     C 7488   0.063   3.666  10.132 -0.4880  0.1212  0.3016
   56MOL0     C 7489  -0.045   3.575  10.141  0.9472 -0.3929 -0.2766
   56MOL0     C 7490  -0.153   3.516  10.143  0.4535  0.2449 -0.1466
   56MOL0     C 7491  -0.050   3.819  10.813  0.2545  0.5053  0.4012
   56MOL0     C 7492   0.019   3.808  10.931 -0.5623 -0.5867  0.6630
   56MOL0     H 7493   0.082   3.872  11.405 -0.4122  0.5284 -0.4309
   56MOL0     H 7494   0.199   3.871  11.612  2.2124  1.9245 -0.1328
   56MOL0     H 7495   0.391   3.934  11.720 -0.8520  0.1107 -1.1144
   56MOL0     H 7496   0.361   3.794  11.826  1.7378 -1.0412 -0.1270
   56MOL0     H 7497   0.631   3.909  11.774 -0.1032  4.3265  1.0561
   56MOL0     H 7498   0.529   3.940  11.920  1.6358 -0.1266  0.7539
   56MOL0     H 7499   0.703   3.724  11.843  1.8357  1.6195  1.1582
   56MOL0     H 7500   0.669   3.773  12.001 -1.2161 -0.3491  0.5683
   56MOL0     H 7501   0.449   3.665  12.006  0.7906  0.2398  2.6029
   56MOL0     H 7502   0.503   3.578  11.854  2.1591  3.2295 -1.6064
   56MOL0     H 7503   0.705   3.510  11.996 -0.5696  0.2281 -3.6367
   56MOL0     H 7504   0.610   3.576  12.140 -0.4135  0.0915 -0.6199
   56MOL0     H 7505   0.429   3.439  12.096 -0.1239 -2.0110 -0.5379
   56MOL0     H 7506   0.502   3.382  11.938  1.3511 -1.1472 -1.0258
   56MOL0     H 7507   0.684   3.267  12.050  0.2855  1.4900  0.1513
   56MOL0     H 7508   0.660   3.333  12.204  2.9022 -0.0628 -1.5666
   56MOL0     H 7509   0.563   3.088  12.144  0.6768 -0.2000 -3.7821
   56MOL0     H 7510   0.455   3.160  12.041 -2.8465 -0.7700  0.7877
   56MOL0     H 7511   0.534   3.265  12.406  0.7803  1.1196 -1.3787
   56MOL0     H 7512   0.355   3.466  12.548 -0.0383  0.2755 -0.8944
   56MOL0     H 7513   0.196   3.430  12.495 -1.2409 -2.4959 -0.3615
   56MOL0     H 7514   0.391   3.265  12.672  0.9492  2.0002  1.2885
   56MOL0     H 7515   0.224   3.210  12.623 -1.1521  0.0895 -0.9820
   56MOL0     H 7516   0.131   3.408  12.744  1.4221  3.3198 -0.0742
   56MOL0     H 7517   0.301   3.432  12.809 -0.5749  0.4102  0.7896
   56MOL0     H 7518   0.224   3.324  12.975 -1.1088 -1.7853  1.1121
   56MOL0     H 7519   0.278   3.186  12.880  0.4144 -0.1302 -0.0812
   56MOL0     H 7520   0.222   3.130  13.097  0.6560  1.2584 -1.5112
   56MOL0     H 7521   0.180   3.047  13.361  1.7085 -0.7276 -0.3769
   56MOL0     H 7522   0.107   2.886  13.327 -3.6614 -0.1145 -2.9486
   56MOL0     H 7523   0.233   2.950  13.229  0.3787 -0.5061 -0.2786
   56MOL0     H 7524  -0.200   2.972  13.605 -0.5126 -2.7431  1.9583
   56MOL0     H 7525  -0.325   2.894  13.796  0.6970 -2.1475 -1.1111
   56MOL0     H 7526  -0.449   2.722  13.857  0.1261  1.5326 -2.5458
   56MOL0     H 7527  -0.514   2.863  13.956 -1.9879  1.2304 -0.6272
   56MOL0     H 7528  -0.740   2.732  13.965  0.8238  0.9982  1.7855
   56MOL0     H 7529  -0.648   2.600  13.896 -1.8937 -0.7982  0.0507
   56MOL0     H 7530  -0.513   2.623  14.126 -0.2512 -0.9860  1.4725
   56MOL0     H 7531  -0.682   2.553  14.124  1.5541 -0.3830  1.8270
   56MOL0     H 7532  -0.635   2.844  14.152 -0.1732 -0.3519 -1.6875
   56MOL0     H 7533  -0.777   2.757  14.197  0.8506 -0.9619  2.1165
   56MOL0     H 7534  -0.518   2.764  14.334  0.6467 -1.9083  0.3621
   56MOL0     H 7535  -0.623   2.634  14.370  0.1654 -0.8906 -3.3514
   56MOL0     H 7536  -0.646   2.932  14.419  0.6997  0.2779  1.7499
   56MOL0     H 7537  -0.802   2.839  14.404  0.2235  1.6302  0.1771
   56MOL0     H 7538  -0.745   2.700  14.595 -1.2751 -0.1963 -0.9325
   56MOL0     H 7539  -0.726   2.866  14.640  2.2249  2.8836 -1.3581
   56MOL0     H 7540  -0.511   2.668  14.607 -0.7697  0.1006 -0.7467
   56MOL0     H 7541  -0.546   2.775  14.745  2.2932 -1.4440  0.9227
   56MOL0     H 7542  -0.672   2.867  13.547  0.4094  1.8790  0.1673
   56MOL0     H 7543  -0.541   2.950  13.346 -1.7679 -1.3593 -0.1676
   56MOL0     H 7544  -0.282   3.087  13.114  0.1966  1.7476 -1.7615
   56MOL0     H 7545  -0.178   3.219  12.931 -0.6703 -0.1137 -0.1158
   56MOL0     H 7546   0.499   3.612  11.444 -0.1529 -0.4997  2.0776
   56MOL0     H 7547   0.373   3.605  11.228  0.1827  2.5166 -1.3877
   56MOL0     H 7548   0.336   3.846  10.807 -0.2057  0.8949 -1.2514
   56MOL0     H 7549   0.208   3.894  10.598 -2.0572  2.1483 -0.0290
   56MOL0     H 7550  -0.100   3.939  10.387 -0.1979 -0.1155 -0.5663
   56MOL0     H 7551   0.064   3.947  10.440 -0.9963  0.8819 -2.1762
   56MOL0     H 7552  -0.077   3.687  10.376  1.9914 -2.9906  1.6763
   56MOL0     H 7553   0.091   3.699  10.432  0.9995 -0.7920 -1.6142
   56MOL0     H 7554   0.155   3.827  10.238  0.3131  1.4374 -0.0659
   56MOL0     H 7555  -0.006   3.863  10.181  0.1977 -1.2547 -1.1263
   56MOL0     H 7556   0.155   3.614  10.163 -0.5848  0.2537  0.8195
   56MOL0     H 7557   0.050   3.704  10.030 -2.5952 -2.3964 -0.4672
   56MOL0     H 7558  -0.244   3.460  10.135  1.4784 -1.1952 -2.5041
   56MOL0     H 7559  -0.155   3.807  10.792  0.2337 -1.4174  1.3841
   56MOL0     H 7560  -0.042   3.795  11.020 -1.4747 -3.5737 -0.2620
   57MOL0     O 7561   7.730   3.872   5.133  0.1789 -0.1162 -0.0425
   57MOL0     C 7562   7.693   3.891   5.250  0.6314  0.5709  0.8526
   57MOL0     O 7563   7.741   3.982   5.334  0.1741  0.4618 -0.3369
   57MOL0     C 7564   7.827   4.073   5.285 -0.1514 -0.2266 -0.0897
   57MOL0     C 7565   7.958   4.094   5.337  0.5520  1.0683 -0.6891
   57MOL0     C 7566   8.033   4.201   5.301  0.5111 -1.4232  0.0186
   57MOL0     C 7567   7.986   4.299   5.220  1.0275 -0.1234  0.8161
   57MOL0     O 7568   8.065   4.406   5.189  0.6465  0.2934  0.0414
   57MOL0     C 7569   8.011   4.512   5.122 -0.1659 -0.5263  0.1494
   57MOL0     C 7570   8.108   4.630   5.129 -0.0251 -0.1101  0.5993
   57MOL0     C 7571   8.248   4.607   5.072  0.5783 -0.2406  0.0110
   57MOL0     C 7572   8.224   4.564   4.925 -0.0428  0.0174  1.4381
   57MOL0     C 7573   8.351   4.599   4.840  0.3267  1.6646 -0.0974
   57MOL0     C 7574   8.470   4.502   4.858 -0.2578 -0.0588 -0.1776
   57MOL0     C 7575   8.596   4.582   4.894  0.6259  0.1954 -0.2617
   57MOL0     C 7576   8.732   4.499   4.897 -0.5198  0.1248  0.1433
   57MOL0     N 7577   8.843   4.577   4.859  0.3474  0.4323  0.6804
   57MOL0     C 7578   8.878   4.606   4.721 -0.2382 -0.2393  0.2293
   57MOL0     C 7579   8.979   4.687   4.743 -0.9809 -0.2426  0.4352
   57MOL0     C 7580   9.050   4.769   4.633 -0.2683 -0.3345 -0.5554
   57MOL0     C 7581   9.141   4.671   4.555  0.6833 -0.2793 -0.2177
   57MOL0     C 7582   9.209   4.740   4.433 -0.4303 -0.0160 -0.0384
   57MOL0     C 7583   9.127   4.835   4.347  0.2455  0.0146 -0.1980
   57MOL0     O 7584   9.019   4.761   4.282 -0.1873  0.7988  0.0004
   57MOL0     C 7585   8.887   4.789   4.321 -0.2541 -0.2344 -0.4782
   57MOL0     C 7586   8.808   4.676   4.329  0.8445 -0.1316  0.7343
   57MOL0     C 7587   8.672   4.678   4.355  1.1024 -0.0597 -0.2431
   57MOL0     C 7588   8.590   4.556   4.371 -0.4113  0.3742  0.2403
   57MOL0     C 7589   8.622   4.801   4.394 -0.9559  0.8154  0.8409
   57MOL0     C 7590   8.484   4.816   4.451  0.2171  0.4273 -0.5190
   57MOL0     O 7591   8.423   4.926   4.407 -0.4970  0.2768  0.2396
   57MOL0     C 7592   8.293   4.963   4.436  0.2092 -0.0648 -0.6157
   57MOL0     C 7593   8.186   4.891   4.487  0.3066  0.0347  0.8062
   57MOL0     C 7594   8.060   4.955   4.494  1.0702  0.6308 -0.1001
   57MOL0     C 7595   8.036   5.079   4.456 -0.1257 -1.2447  0.4852
   57MOL0     O 7596   7.914   5.145   4.455 -0.8147 -0.4877 -0.6723
   57MOL0     C 7597   7.800   5.084   4.521 -0.1139 -0.1530 -1.0537
   57MOL0     C 7598   7.738   4.970   4.429  0.3082  0.3396 -0.0578
   57MOL0     C 7599   7.708   5.015   4.286  1.2596  0.1306 -0.4289
   57MOL0     C 7600   7.649   4.898   4.197 -0.3281  0.1323  0.0311
   57MOL0     C 7601   7.631   4.935   4.050  0.7004 -0.9015  0.5324
   57MOL0     C 7602   7.540   5.042   4.010 -0.4248  0.6954 -0.2916
   57MOL0     C 7603   7.409   5.030   4.086  0.4229 -0.5613  0.7349
   57MOL0     C 7604   7.335   4.895   4.070  0.8245  0.0456  0.4573
   57MOL0    Cl 7605   7.194   4.862   4.188 -0.1245  0.3011  0.5241
   57MOL0     C 7606   8.138   5.152   4.401  0.0120 -0.2945 -0.6533
   57MOL0     C 7607   8.264   5.092   4.393  0.0053 -0.3302 -0.1436
   57MOL0     O 7608   8.441   4.739   4.539  0.1851 -0.1643 -0.5575
   57MOL0     C 7609   8.697   4.914   4.388 -0.0026  0.0223  0.2356
   57MOL0     C 7610   8.833   4.923   4.350  0.0401  0.5382  0.7651
   57MOL0     N 7611   9.017   4.705   4.877 -0.1988  0.0156 -0.2617
   57MOL0     N 7612   8.934   4.635   4.945 -0.6773 -0.9489  0.2833
   57MOL0     C 7613   7.856   4.278   5.163 -0.0873  0.2024  0.1683
   57MOL0     C 7614   7.778   4.168   5.203  0.8284  0.5615 -0.0026
   57MOL0     C 7615   7.582   3.788   5.287  0.2523  1.2184  0.0397
   57MOL0     C 7616   7.541   3.686   5.193 -0.1542  0.4728 -0.1969
   57MOL0     C 7617   7.449   3.588   5.236  0.0339  0.1600  0.2703
   57MOL0     C 7618   7.388   3.582   5.363  0.5331 -0.4948 -0.5044
   57MOL0     O 7619   7.302   3.476   5.403  0.1132 -0.5283 -0.2033
   57MOL0     C 7620   7.277   3.366   5.312  0.4353  0.0683 -0.5675
   57MOL0     C 7621   7.174   3.280   5.372  0.4862 -0.4404 -0.0820
   57MOL0     C 7622   7.198   3.228   5.515 -0.7999 -0.4120 -0.2173
   57MOL0     C 7623   7.339   3.170   5.529  0.1855 -0.5501  0.0350
   57MOL0     C 7624   7.366   3.057   5.439 -0.0318  0.1483  0.5157
   57MOL0     C 7625   7.404   2.966   5.365 -0.3280 -0.3589 -0.4040
   57MOL0     C 7626   7.417   3.689   5.447 -0.9156  0.2944 -0.7120
   57MOL0     C 7627   7.519   3.783   5.410 -1.0393 -0.0990 -0.3560
   57MOL0     H 7628   7.989   4.023   5.412  3.1703 -0.9704 -3.4714
   57MOL0     H 7629   8.135   4.223   5.331  0.9581  1.4807 -3.0466
   57MOL0     H 7630   7.985   4.479   5.021  1.5745  0.3571 -0.6312
   57MOL0     H 7631   7.920   4.544   5.174  1.2883  0.9197  1.9519
   57MOL0     H 7632   8.059   4.709   5.073  2.1142  1.3079  0.5889
   57MOL0     H 7633   8.113   4.658   5.235 -1.0321  2.0266  0.1294
   57MOL0     H 7634   8.308   4.698   5.069 -2.7407  2.1270 -2.7521
   57MOL0     H 7635   8.307   4.530   5.123  1.0203 -0.5872 -1.0073
   57MOL0     H 7636   8.199   4.457   4.920 -2.7267  0.6372 -0.8605
   57MOL0     H 7637   8.140   4.610   4.872  1.6064 -1.4883 -2.9406
   57MOL0     H 7638   8.323   4.588   4.734  0.4753 -1.0147  0.0830
   57MOL0     H 7639   8.391   4.701   4.844  1.7152  1.2762 -2.3033
   57MOL0     H 7640   8.447   4.436   4.942 -0.7972  2.0453  1.4228
   57MOL0     H 7641   8.486   4.438   4.771 -1.7841 -0.0098 -0.5225
   57MOL0     H 7642   8.592   4.653   4.811  1.8010  1.0388  0.3756
   57MOL0     H 7643   8.578   4.632   4.990 -1.7515 -0.2703 -0.3907
   57MOL0     H 7644   8.706   4.416   4.829 -0.3256  1.3072 -1.4326
   57MOL0     H 7645   8.734   4.476   5.004  0.4312  2.0905  0.5848
   57MOL0     H 7646   8.830   4.581   4.627  1.6563 -0.5088 -0.7228
   57MOL0     H 7647   8.975   4.812   4.566 -1.6497 -0.0714  1.0774
   57MOL0     H 7648   9.101   4.851   4.683 -4.8625  3.5394 -1.4632
   57MOL0     H 7649   9.083   4.583   4.526 -0.2081  0.0378  0.5666
   57MOL0     H 7650   9.213   4.633   4.629  0.3611 -4.4265 -1.7501
   57MOL0     H 7651   9.256   4.665   4.369 -2.1147  1.0047 -2.6156
   57MOL0     H 7652   9.288   4.798   4.481  0.3720 -1.7501  0.8364
   57MOL0     H 7653   9.183   4.884   4.267 -0.3157 -0.4416 -0.8834
   57MOL0     H 7654   9.075   4.914   4.403  0.8080  2.1383 -2.5290
   57MOL0     H 7655   8.862   4.583   4.317  0.6061 -0.3770  1.5000
   57MOL0     H 7656   8.491   4.556   4.323 -0.6174 -0.6134  0.6311
   57MOL0     H 7657   8.646   4.475   4.323 -2.6548 -0.7043 -0.7195
   57MOL0     H 7658   8.568   4.528   4.474  0.0532  1.4551  0.6375
   57MOL0     H 7659   8.205   4.791   4.525  2.5725  0.2050  0.2403
   57MOL0     H 7660   7.985   4.891   4.539  2.5602 -1.4601 -0.4106
   57MOL0     H 7661   7.838   5.034   4.611 -0.4697  1.8736  0.2983
   57MOL0     H 7662   7.725   5.160   4.545 -0.9690 -1.0573 -0.7800
   57MOL0     H 7663   7.797   4.878   4.423 -1.7695 -1.1200  0.7817
   57MOL0     H 7664   7.644   4.930   4.468  1.0190 -1.7524 -0.3503
   57MOL0     H 7665   7.793   5.048   4.225 -0.2709 -1.5396 -3.7127
   57MOL0     H 7666   7.650   5.107   4.275 -0.5569 -0.8653  0.4390
   57MOL0     H 7667   7.726   4.821   4.202 -1.8144 -1.4408 -0.5000
   57MOL0     H 7668   7.560   4.854   4.242 -2.0068 -0.9140 -3.8984
   57MOL0     H 7669   7.595   4.844   4.000 -1.8423  0.7559 -0.8690
   57MOL0     H 7670   7.732   4.949   4.009  1.9576 -2.3695  2.9327
   57MOL0     H 7671   7.583   5.142   4.022  0.2454  0.2963  0.8204
   57MOL0     H 7672   7.524   5.038   3.902  1.1251 -0.5542 -0.5007
   57MOL0     H 7673   7.334   5.096   4.041  1.1367  0.5612  1.1233
   57MOL0     H 7674   7.411   5.049   4.194  0.5091 -0.2709  0.6831
   57MOL0     H 7675   7.403   4.810   4.076 -2.2203 -2.7318 -1.4007
   57MOL0     H 7676   7.287   4.906   3.972 -1.7568  0.1849  1.6525
   57MOL0     H 7677   8.117   5.248   4.356 -1.5210 -0.4017 -0.2285
   57MOL0     H 7678   8.337   5.153   4.342  0.3843  0.3917  1.2254
   57MOL0     H 7679   8.657   5.012   4.415  0.7199  0.9771 -1.9158
   57MOL0     H 7680   8.881   5.019   4.332 -0.1096  0.3152 -0.9805
   57MOL0     H 7681   7.808   4.358   5.108  1.6389 -0.0082 -1.7732
   57MOL0     H 7682   7.674   4.163   5.175 -0.2687  1.6816  3.3436
   57MOL0     H 7683   7.580   3.693   5.091 -1.8898  1.2565 -0.8460
   57MOL0     H 7684   7.423   3.502   5.174  2.5608 -0.8144  0.4166
   57MOL0     H 7685   7.238   3.414   5.222 -1.7920  1.7494  1.1922
   57MOL0     H 7686   7.364   3.304   5.286 -1.8952 -2.3706 -3.1377
   57MOL0     H 7687   7.161   3.198   5.302 -1.4095  2.0165 -2.8267
   57MOL0     H 7688   7.082   3.339   5.369  1.8210  1.6906 -1.7926
   57MOL0     H 7689   7.117   3.162   5.548  2.0682 -4.3669 -0.4741
   57MOL0     H 7690   7.194   3.318   5.577 -1.3423  1.4750 -2.7970
   57MOL0     H 7691   7.342   3.137   5.633  1.2204 -1.5622 -0.2890
   57MOL0     H 7692   7.407   3.255   5.513 -0.4716 -0.1449 -0.6588
   57MOL0     H 7693   7.456   2.888   5.313 -3.2109 -2.4642 -0.3542
   57MOL0     H 7694   7.377   3.698   5.548  1.2034 -3.3729  0.6113
   57MOL0     H 7695   7.574   3.844   5.482  1.6400 -2.7766  0.0541
   58MOL0     O 7696   9.417   3.783   4.744  0.6672 -0.3653  0.0370
   58MOL0     C 7697   9.372   3.726   4.842  0.3636 -0.4984 -0.8580
   58MOL0     O 7698   9.439   3.674   4.948 -0.2523 -0.0153  0.0261
   58MOL0     C 7699   9.572   3.710   4.940 -0.5945  0.5679  0.1147
   58MOL0     C 7700   9.620   3.841   4.943  0.1236 -0.0318 -0.4560
   58MOL0     C 7701   9.755   3.867   4.909  0.4657  0.2104  0.2816
   58MOL0     C 7702   9.845   3.766   4.876  0.0027  1.0369  0.8461
   58MOL0     O 7703   9.980   3.792   4.834 -0.1399 -0.0684  0.1697
   58MOL0     C 7704  10.007   3.897   4.747  1.3945  0.0102 -0.3103
   58MOL0     C 7705  10.130   3.875   4.663  0.0574 -0.2125 -0.2202
   58MOL0     C 7706  10.264   3.866   4.741 -0.0620 -0.1104  0.0080
   58MOL0     C 7707  10.383   3.938   4.669 -0.0598  0.9499  0.3936
   58MOL0     C 7708  10.399   3.861   4.536  0.2374  0.1606  0.5798
   58MOL0     C 7709  10.520   3.918   4.466  0.6554 -0.3503  0.5920
   58MOL0     C 7710  10.543   3.850   4.320 -0.8927 -0.5884  0.1579
   58MOL0     C 7711  10.693   3.801   4.301  0.7262  0.9368 -0.3110
   58MOL0     N 7712  10.722   3.766   4.161  0.5182  0.3543 -0.2351
   58MOL0     C 7713  10.693   3.641   4.113  0.7575 -0.7689  0.8406
   58MOL0     C 7714  10.696   3.652   3.981 -0.5034 -0.2079  1.1227
   58MOL0     C 7715  10.653   3.534   3.887  0.3486 -0.0149 -0.8502
   58MOL0     C 7716  10.504   3.540   3.860  0.4259 -0.1806  1.0827
   58MOL0     C 7717  10.448   3.456   3.735 -0.5816  0.6487  0.0011
   58MOL0     C 7718  10.475   3.512   3.597 -0.7050  0.0785 -0.4545
   58MOL0     O 7719  10.394   3.440   3.502  0.5933 -0.6334 -0.0353
   58MOL0     C 7720  10.425   3.311   3.464  0.5527 -0.6092 -0.4206
   58MOL0     C 7721  10.530   3.233   3.512  0.6413 -0.4069 -0.1391
   58MOL0     C 7722  10.549   3.103   3.478  0.8080  0.3836 -0.6757
   58MOL0     C 7723  10.662   3.016   3.530  0.2424  0.6937  0.1759
   58MOL0     C 7724  10.449   3.037   3.400  1.0802 -0.3078  0.4922
   58MOL0     C 7725  10.442   2.885   3.375  0.6708 -0.1376  0.0619
   58MOL0     O 7726  10.346   2.841   3.298  0.1513  0.7604  0.3452
   58MOL0     C 7727  10.332   2.710   3.252  0.1066  0.2577 -0.5028
   58MOL0     C 7728  10.415   2.596   3.277 -0.0070 -1.3197 -0.3442
   58MOL0     C 7729  10.396   2.470   3.224 -0.9165  0.4412 -0.0425
   58MOL0     C 7730  10.289   2.448   3.140 -0.6599 -0.2726  0.8404
   58MOL0     O 7731  10.270   2.323   3.087  0.2610  1.0370  1.2014
   58MOL0     C 7732  10.154   2.277   3.027  0.3208  0.4238 -0.0829
   58MOL0     C 7733  10.147   2.285   2.877 -0.3435  0.0943 -0.8496
   58MOL0     C 7734  10.019   2.223   2.825  1.2561  0.3518  1.0096
   58MOL0     C 7735  10.023   2.216   2.669  0.8454  0.4485  0.3776
   58MOL0     C 7736   9.882   2.221   2.615 -0.6022  0.1443  0.0947
   58MOL0     C 7737   9.789   2.120   2.683 -0.4191  0.2191  0.5296
   58MOL0     C 7738   9.694   2.075   2.572 -0.2428 -0.2448 -0.3109
   58MOL0     C 7739   9.608   1.951   2.616 -0.3767 -0.0131 -0.4287
   58MOL0    Cl 7740   9.483   1.932   2.502  0.3674 -0.2058  0.2896
   58MOL0     C 7741  10.203   2.556   3.109 -1.0365  0.2703  0.1818
   58MOL0     C 7742  10.225   2.680   3.165 -0.6559  0.6417 -1.2077
   58MOL0     O 7743  10.511   2.813   3.441 -0.6436 -0.3925 -0.6149
   58MOL0     C 7744  10.331   3.116   3.355 -0.7247  0.3003 -0.1755
   58MOL0     C 7745  10.322   3.253   3.388 -0.1108  0.7478 -0.2399
   58MOL0     N 7746  10.711   3.782   3.940 -0.7043  0.0968 -0.0739
   58MOL0     N 7747  10.715   3.848   4.055  0.2501 -0.2063 -0.1294
   58MOL0     C 7748   9.801   3.629   4.883 -0.2478  0.7271  0.6851
   58MOL0     C 7749   9.670   3.612   4.927 -0.6555  0.7948  1.2532
   58MOL0     C 7750   9.231   3.708   4.831  0.1044 -0.0387  0.1619
   58MOL0     C 7751   9.157   3.687   4.950  0.7343 -0.5105  0.3445
   58MOL0     C 7752   9.015   3.678   4.946  0.2287  0.1587  0.0497
   58MOL0     C 7753   8.942   3.700   4.831 -1.0277 -0.3978  0.3554
   58MOL0     O 7754   8.807   3.689   4.830 -0.3922 -1.0391 -0.0889
   58MOL0     C 7755   8.735   3.775   4.919 -0.0529  0.3787  0.6510
   58MOL0     C 7756   8.588   3.749   4.912  0.1874  0.1149  0.5794
   58MOL0     C 7757   8.515   3.781   4.782 -0.8856 -0.4336  1.0137
   58MOL0     C 7758   8.367   3.746   4.799  0.4884  0.4085  0.3601
   58MOL0     C 7759   8.297   3.773   4.671 -0.2520 -0.3509 -0.9522
   58MOL0     C 7760   8.250   3.770   4.562  0.3149  0.0712 -0.0722
   58MOL0     C 7761   9.015   3.735   4.719 -0.5763  0.6727  0.5203
   58MOL0     C 7762   9.157   3.732   4.711 -0.1493 -0.4617 -0.3150
   58MOL0     H 7763   9.558   3.930   4.952 -0.1703  0.1023 -3.1379
   58MOL0     H 7764   9.799   3.966   4.902  2.1536 -0.4394  1.1294
   58MOL0     H 7765   9.924   3.904   4.676 -0.5953 -1.6193  1.7050
   58MOL0     H 7766  10.022   3.987   4.808  0.9767 -0.7120  0.9094
   58MOL0     H 7767  10.106   3.785   4.606 -2.9617  1.2238 -1.4085
   58MOL0     H 7768  10.135   3.964   4.599  1.7973 -0.3075 -0.2680
   58MOL0     H 7769  10.253   3.909   4.841  1.3037 -1.8049  0.9362
   58MOL0     H 7770  10.299   3.763   4.749  0.8695  0.2517  0.6693
   58MOL0     H 7771  10.358   4.043   4.653 -1.5267  0.5068 -0.4068
   58MOL0     H 7772  10.471   3.941   4.734 -1.8323  1.8415  2.8798
   58MOL0     H 7773  10.408   3.754   4.554 -3.2509 -0.0722  1.6949
   58MOL0     H 7774  10.309   3.872   4.475  1.2258  0.7422 -0.8176
   58MOL0     H 7775  10.513   4.027   4.465 -2.4359 -0.4687  1.2870
   58MOL0     H 7776  10.600   3.878   4.529  0.7877 -0.9547  0.0530
   58MOL0     H 7777  10.473   3.767   4.310 -0.3204 -0.7913 -3.2905
   58MOL0     H 7778  10.525   3.929   4.246  2.0754 -1.1670 -1.3400
   58MOL0     H 7779  10.712   3.719   4.371 -1.0718  0.8297  0.0984
   58MOL0     H 7780  10.766   3.878   4.326  2.0850 -0.9973  2.1059
   58MOL0     H 7781  10.678   3.547   4.165 -2.6122 -1.1525 -0.5659
   58MOL0     H 7782  10.704   3.544   3.791 -0.1308  3.5112 -0.8796
   58MOL0     H 7783  10.689   3.449   3.946  1.3780  1.2555  0.4218
   58MOL0     H 7784  10.475   3.641   3.830 -1.8047 -1.2763 -0.7640
   58MOL0     H 7785  10.441   3.517   3.946  2.5710 -0.6682  2.6162
   58MOL0     H 7786  10.343   3.428   3.742 -0.4215 -0.0248 -0.1692
   58MOL0     H 7787  10.510   3.366   3.746  1.6495  1.8904 -1.6260
   58MOL0     H 7788  10.579   3.520   3.565 -0.7993  4.4151 -0.3349
   58MOL0     H 7789  10.446   3.618   3.588 -0.8421  0.1651  0.8660
   58MOL0     H 7790  10.602   3.294   3.565  3.5626 -1.4741 -2.5704
   58MOL0     H 7791  10.617   2.953   3.607  0.0807 -2.3817 -2.1991
   58MOL0     H 7792  10.698   2.954   3.447 -0.9571  1.1219 -0.6987
   58MOL0     H 7793  10.748   3.071   3.569  2.0208 -0.6202 -1.6760
   58MOL0     H 7794  10.502   2.615   3.339 -0.1769  0.8472 -0.6630
   58MOL0     H 7795  10.461   2.387   3.248  1.6332  2.2242 -0.4196
   58MOL0     H 7796  10.145   2.171   3.050  2.5761 -0.1142 -1.4018
   58MOL0     H 7797  10.071   2.333   3.071 -0.3240 -0.1029 -0.5866
   58MOL0     H 7798  10.152   2.391   2.851  2.1762  0.0549 -0.8127
   58MOL0     H 7799  10.236   2.236   2.835  1.4170 -0.2060  2.8087
   58MOL0     H 7800   9.933   2.285   2.853 -0.9883 -2.0122 -0.2531
   58MOL0     H 7801  10.013   2.124   2.871 -0.9179 -1.1812 -2.2128
   58MOL0     H 7802  10.075   2.306   2.637 -2.9961  2.8751  0.3295
   58MOL0     H 7803  10.083   2.134   2.630 -0.5918 -1.2706  1.5931
   58MOL0     H 7804   9.905   2.198   2.511  1.8847  2.7258 -0.0225
   58MOL0     H 7805   9.841   2.322   2.621  0.5503  0.6946 -0.9527
   58MOL0     H 7806   9.845   2.037   2.728 -0.5060  0.7226  1.6108
   58MOL0     H 7807   9.722   2.156   2.762  0.2178  0.8126  0.8157
   58MOL0     H 7808   9.730   2.068   2.469  1.7347  0.7260  0.2656
   58MOL0     H 7809   9.619   2.152   2.551  0.6897  0.5276 -0.8712
   58MOL0     H 7810   9.568   1.973   2.715 -1.4720  0.5244 -0.9670
   58MOL0     H 7811   9.661   1.856   2.622 -0.1042  0.1883  0.3959
   58MOL0     H 7812  10.117   2.548   3.044 -1.7336  1.1497  0.9787
   58MOL0     H 7813  10.158   2.764   3.148 -0.0882  1.2129 -0.6877
   58MOL0     H 7814  10.247   3.063   3.311 -0.8939  0.6840 -0.3147
   58MOL0     H 7815  10.230   3.297   3.352 -0.0283 -0.2678 -1.7664
   58MOL0     H 7816   9.866   3.542   4.877 -1.4157 -0.0669 -1.0801
   58MOL0     H 7817   9.635   3.510   4.940 -2.0726  0.8654 -1.3315
   58MOL0     H 7818   9.202   3.655   5.044 -2.7074 -0.6678  2.0822
   58MOL0     H 7819   8.956   3.656   5.034 -0.7013 -0.9359 -0.8099
   58MOL0     H 7820   8.749   3.731   5.018 -0.8215  1.7583  1.4023
   58MOL0     H 7821   8.762   3.881   4.907  0.7558  0.4312  2.5678
   58MOL0     H 7822   8.535   3.804   4.990  1.3406 -2.1500  3.1173
   58MOL0     H 7823   8.593   3.642   4.932  2.2519  0.0296 -0.1351
   58MOL0     H 7824   8.557   3.729   4.696 -3.7549  1.9228 -2.0826
   58MOL0     H 7825   8.525   3.887   4.758 -0.1925 -0.8076 -0.4131
   58MOL0     H 7826   8.324   3.809   4.877 -0.9915  0.8844 -0.7727
   58MOL0     H 7827   8.374   3.641   4.828  1.5862  0.1888 -0.6326
   58MOL0     H 7828   8.227   3.767   4.457  1.8472  2.9405 -0.5953
   58MOL0     H 7829   8.950   3.763   4.637  2.1436  1.7387 -1.4318
   58MOL0     H 7830   9.205   3.753   4.616 -0.7439 -1.0208 -0.7513
   59MOL0     O 7831  10.575   1.822   2.018  0.0378 -0.4220 -0.8815
   59MOL0     C 7832  10.527   1.914   1.956  0.2685 -1.1213  0.7858
   59MOL0     O 7833  10.600   1.992   1.847  0.1037 -0.2779 -0.4194
   59MOL0     C 7834  10.728   1.978   1.813 -0.5831  0.0279  1.1880
   59MOL0     C 7835  10.786   2.090   1.754 -0.4692 -0.0068  0.0114
   59MOL0     C 7836  10.923   2.089   1.716  0.5630 -0.8805  0.9358
   59MOL0     C 7837  10.999   1.975   1.731 -0.6150 -0.2047 -0.4302
   59MOL0     O 7838  11.123   1.960   1.681  0.0756  0.4017 -0.5706
   59MOL0     C 7839  11.232   1.967   1.785  0.0512 -0.1998  0.5473
   59MOL0     C 7840  11.320   1.843   1.764 -0.3192  0.2463  0.1160
   59MOL0     C 7841  11.449   1.864   1.844  0.4048 -0.0242 -0.5562
   59MOL0     C 7842  11.551   1.748   1.829  0.4801 -0.2574 -1.0759
   59MOL0     C 7843  11.648   1.721   1.949  0.0146  0.7106  0.0464
   59MOL0     C 7844  11.702   1.834   2.027 -0.6593 -0.6370  0.4851
   59MOL0     C 7845  11.799   1.795   2.130  0.4834  0.0361 -0.9572
   59MOL0     C 7846  11.939   1.738   2.089 -0.2980 -0.4402  0.5075
   59MOL0     N 7847  12.010   1.846   2.020 -0.7992  0.3976  0.1759
   59MOL0     C 7848  12.046   1.970   2.060  0.1696  0.0633  0.0364
   59MOL0     C 7849  12.131   2.017   1.973  1.3510 -0.0215  0.3621
   59MOL0     C 7850  12.192   2.156   1.975 -0.5599 -0.0765  0.3579
   59MOL0     C 7851  12.297   2.157   1.870  0.4354  0.7988 -0.6781
   59MOL0     C 7852  12.412   2.063   1.902  0.1201  0.0248 -0.1372
   59MOL0     C 7853  12.513   2.068   1.788 -0.4532 -1.0031  0.8470
   59MOL0     O 7854  12.589   2.193   1.789  0.5626  0.1349  0.1580
   59MOL0     C 7855  12.674   2.221   1.679 -0.5437  0.1562 -0.3168
   59MOL0     C 7856  12.700   2.123   1.588  0.9043 -0.4196  0.0432
   59MOL0     C 7857  12.777   2.156   1.474  0.8079 -0.3711 -0.1729
   59MOL0     C 7858  12.784   2.050   1.365  0.1383 -0.9119 -0.5147
   59MOL0     C 7859  12.829   2.282   1.455 -0.7169 -0.4100  0.3249
   59MOL0     C 7860  12.909   2.328   1.336  0.3742 -0.4407 -0.3976
   59MOL0     O 7861  12.875   2.453   1.293  0.8373  0.3836 -0.8373
   59MOL0     C 7862  12.961   2.531   1.224 -0.8627 -0.2807  0.6280
   59MOL0     C 7863  13.070   2.594   1.283 -0.8085 -0.6075 -0.0284
   59MOL0     C 7864  13.155   2.675   1.213 -1.4908 -0.2145  0.2560
   59MOL0     C 7865  13.129   2.698   1.076  0.9127 -0.2787  0.0493
   59MOL0     O 7866  13.207   2.781   1.008 -0.2637  0.1126  0.5069
   59MOL0     C 7867  13.312   2.862   1.073 -0.1321  0.7669 -0.4108
   59MOL0     C 7868  13.360   2.987   0.998 -0.9281  0.7561  0.2719
   59MOL0     C 7869  13.254   3.101   0.995  1.4927 -0.7176 -0.3013
   59MOL0     C 7870  13.309   3.250   0.995  0.2933  0.0210  1.0944
   59MOL0     C 7871  13.199   3.359   1.002  0.2314 -0.7550 -0.2935
   59MOL0     C 7872  13.091   3.319   1.106  0.0031 -0.0145  0.0818
   59MOL0     C 7873  12.986   3.434   1.126  0.1182 -0.5099 -0.1104
   59MOL0     C 7874  12.862   3.402   1.211 -0.6552  0.0223  0.4331
   59MOL0    Cl 7875  12.738   3.527   1.224  0.2670  0.4594 -0.3822
   59MOL0     C 7876  13.026   2.631   1.007 -0.1663  0.5584 -0.4343
   59MOL0     C 7877  12.951   2.550   1.089 -0.2268 -0.1701  0.1104
   59MOL0     O 7878  12.988   2.251   1.282  1.0036 -0.3090 -0.4347
   59MOL0     C 7879  12.808   2.379   1.553 -0.0373 -0.5549  0.5997
   59MOL0     C 7880  12.718   2.347   1.660 -0.3726  0.4445  0.2710
   59MOL0     N 7881  12.130   1.922   1.871  0.8857  0.6238 -0.1751
   59MOL0     N 7882  12.069   1.816   1.899 -0.9347  0.1540 -0.3712
   59MOL0     C 7883  10.945   1.863   1.786  0.4203  0.5024  0.5385
   59MOL0     C 7884  10.806   1.863   1.827  0.0081  0.7985 -0.1645
   59MOL0     C 7885  10.378   1.939   1.980 -1.7820 -0.1459 -0.8378
   59MOL0     C 7886  10.316   2.042   1.909  0.3100 -0.8579 -0.1518
   59MOL0     C 7887  10.182   2.066   1.931  0.1004  0.4573 -0.5576
   59MOL0     C 7888  10.104   1.985   2.012  0.8596  0.1287 -0.9003
   59MOL0     O 7889   9.967   1.983   2.014 -0.0536 -0.2092 -0.2667
   59MOL0     C 7890   9.900   2.048   1.907 -0.4371 -0.2478  0.6718
   59MOL0     C 7891   9.763   1.991   1.867  0.4221 -0.0954 -0.5274
   59MOL0     C 7892   9.724   2.044   1.727 -1.1114  0.4799  0.5366
   59MOL0     C 7893   9.581   2.013   1.684 -0.5696 -0.0462  0.3735
   59MOL0     C 7894   9.486   2.088   1.766  0.1485 -0.3398 -0.5095
   59MOL0     C 7895   9.421   2.183   1.823 -0.4197 -0.4175  0.4427
   59MOL0     C 7896  10.161   1.876   2.088  0.0833 -0.3670 -0.3857
   59MOL0     C 7897  10.299   1.855   2.071 -0.1700 -0.4589 -0.0167
   59MOL0     H 7898  10.716   2.170   1.731  0.7069  0.4992 -2.0457
   59MOL0     H 7899  10.971   2.180   1.680 -2.4496  0.8893  1.0047
   59MOL0     H 7900  11.301   2.048   1.762  1.6008 -2.3628 -3.1948
   59MOL0     H 7901  11.199   1.969   1.890  4.3006 -4.4616  2.3455
   59MOL0     H 7902  11.267   1.751   1.789 -1.5619  0.2424 -2.2223
   59MOL0     H 7903  11.353   1.835   1.660  0.7121  0.3317  0.4312
   59MOL0     H 7904  11.504   1.955   1.815  0.4486  0.5453  1.1758
   59MOL0     H 7905  11.419   1.878   1.948  0.3673 -1.5038 -0.3584
   59MOL0     H 7906  11.495   1.659   1.800  0.1744  0.2293 -2.0295
   59MOL0     H 7907  11.612   1.779   1.743 -0.3834  1.0088 -1.2587
   59MOL0     H 7908  11.574   1.674   2.015 -0.9173 -0.0349 -1.4547
   59MOL0     H 7909  11.729   1.654   1.918  1.6818  1.6739  2.1169
   59MOL0     H 7910  11.741   1.917   1.967 -0.3575 -1.1676 -0.0628
   59MOL0     H 7911  11.628   1.889   2.085 -3.7057 -1.4811 -2.2791
   59MOL0     H 7912  11.818   1.880   2.196  2.2798 -1.0760  0.0314
   59MOL0     H 7913  11.745   1.722   2.191 -1.2375  0.6572 -1.6802
   59MOL0     H 7914  11.921   1.643   2.038 -0.1714 -1.4988  2.3673
   59MOL0     H 7915  11.998   1.723   2.180 -2.0444  2.3304  2.2764
   59MOL0     H 7916  12.013   2.021   2.150 -3.0305 -1.7241  0.0465
   59MOL0     H 7917  12.119   2.227   1.935 -1.8914 -0.0697  2.6565
   59MOL0     H 7918  12.232   2.191   2.070  0.1291  2.9160 -0.9067
   59MOL0     H 7919  12.336   2.259   1.876 -3.8430  2.5998  2.9717
   59MOL0     H 7920  12.271   2.128   1.768  1.3267 -1.9869 -0.1900
   59MOL0     H 7921  12.397   1.955   1.903  0.5192 -0.0263  0.8046
   59MOL0     H 7922  12.455   2.101   1.995  0.4005  1.2253 -0.7288
   59MOL0     H 7923  12.464   2.051   1.691  3.5077  1.3116 -1.8360
   59MOL0     H 7924  12.584   1.988   1.810  1.4565  0.8454  1.7882
   59MOL0     H 7925  12.670   2.019   1.601 -1.6266  0.2561  0.1441
   59MOL0     H 7926  12.736   1.958   1.401 -0.0359  0.1845  2.2444
   59MOL0     H 7927  12.731   2.076   1.272  2.0840 -0.0812 -1.4346
   59MOL0     H 7928  12.889   2.035   1.338  0.0794  0.0405 -1.3490
   59MOL0     H 7929  13.076   2.576   1.390  2.3888 -3.9897 -0.5846
   59MOL0     H 7930  13.222   2.729   1.279 -0.4713 -2.7350  1.4478
   59MOL0     H 7931  13.277   2.898   1.170  2.7273 -2.2024  1.9384
   59MOL0     H 7932  13.388   2.788   1.100 -3.7485 -3.1489  0.2384
   59MOL0     H 7933  13.443   3.028   1.056 -0.3059 -2.1665  1.6848
   59MOL0     H 7934  13.392   2.953   0.899 -1.1825  1.1190  0.0618
   59MOL0     H 7935  13.199   3.091   1.090 -0.5712  2.1016 -1.0323
   59MOL0     H 7936  13.171   3.091   0.925  0.6881  1.8686  0.1554
   59MOL0     H 7937  13.388   3.264   1.070  1.3892 -0.8880  0.1669
   59MOL0     H 7938  13.360   3.259   0.898 -3.2664 -3.2450 -1.3904
   59MOL0     H 7939  13.163   3.361   0.899 -0.1616  2.4319 -0.1960
   59MOL0     H 7940  13.236   3.460   1.023 -3.4089  0.2431  2.3103
   59MOL0     H 7941  13.034   3.232   1.074 -0.4556 -0.2182  1.3930
   59MOL0     H 7942  13.146   3.301   1.199  3.0017  1.0501 -1.3657
   59MOL0     H 7943  12.940   3.464   1.030  0.8017  0.6349 -0.0927
   59MOL0     H 7944  13.040   3.521   1.163 -0.7223 -0.8901  2.1843
   59MOL0     H 7945  12.901   3.388   1.312 -1.9288 -0.3820  0.8929
   59MOL0     H 7946  12.830   3.306   1.168  0.4784  0.0960 -0.6287
   59MOL0     H 7947  13.007   2.639   0.900 -4.8610  0.9451  0.2396
   59MOL0     H 7948  12.874   2.511   1.023  0.7612  0.9745 -1.8116
   59MOL0     H 7949  12.854   2.477   1.540 -0.6503 -0.5005 -1.5007
   59MOL0     H 7950  12.683   2.414   1.738 -1.3936 -1.2044  1.2679
   59MOL0     H 7951  11.005   1.772   1.783  1.4600  1.0849  2.1873
   59MOL0     H 7952  10.759   1.771   1.860  5.1695 -1.0067  3.5024
   59MOL0     H 7953  10.366   2.120   1.852  0.1162  0.0020  0.8360
   59MOL0     H 7954  10.133   2.148   1.880  2.8665  1.3472 -2.0207
   59MOL0     H 7955   9.887   2.154   1.932  1.0669  0.0156  0.4237
   59MOL0     H 7956   9.962   2.037   1.817 -0.2809  0.5616  0.6714
   59MOL0     H 7957   9.702   2.035   1.947  1.6686  2.2313 -0.7759
   59MOL0     H 7958   9.756   1.883   1.886  0.3346  0.3526  2.4562
   59MOL0     H 7959   9.797   1.999   1.659  0.2321  0.6819  1.8099
   59MOL0     H 7960   9.740   2.152   1.716  0.7597  0.2521  0.7400
   59MOL0     H 7961   9.573   1.904   1.691 -0.8313 -0.0393  0.1814
   59MOL0     H 7962   9.563   2.044   1.581 -0.4182  3.5700  1.3199
   59MOL0     H 7963   9.367   2.268   1.859  3.1286  1.4364  1.8664
   59MOL0     H 7964  10.095   1.807   2.139  0.9003 -1.7657 -1.1551
   59MOL0     H 7965  10.343   1.771   2.124 -0.7438  0.3563  1.8276
   60MOL0     O 7966   8.007   5.185   3.664  0.4060 -0.0764  0.1102
   60MOL0     C 7967   8.036   5.294   3.623 -0.2250 -0.7866  0.0857
   60MOL0     O 7968   8.155   5.341   3.585  0.0379  0.8934  0.2275
   60MOL0     C 7969   8.267   5.259   3.593  0.2706 -0.0485  0.9290
   60MOL0     C 7970   8.267   5.129   3.545  0.0059 -0.6230 -0.4084
   60MOL0     C 7971   8.384   5.053   3.560  0.2703  0.0196  0.2501
   60MOL0     C 7972   8.502   5.108   3.613  0.6069  1.2919  0.4064
   60MOL0     O 7973   8.599   5.014   3.650 -0.3885  1.0033 -0.3821
   60MOL0     C 7974   8.738   5.050   3.651 -0.7804 -0.6459  0.2183
   60MOL0     C 7975   8.831   4.928   3.679 -0.0288  1.2367 -0.2527
   60MOL0     C 7976   8.786   4.811   3.592  0.2873 -0.2723 -0.3681
   60MOL0     C 7977   8.880   4.692   3.590  0.0144 -0.2040 -0.2139
   60MOL0     C 7978   8.836   4.577   3.490 -0.4629 -0.1194 -0.1224
   60MOL0     C 7979   8.761   4.460   3.558  0.3201  0.9793  0.4868
   60MOL0     C 7980   8.831   4.390   3.678 -0.4428  0.4659  0.6267
   60MOL0     C 7981   8.855   4.242   3.648 -0.4198  0.4148 -0.0404
   60MOL0     N 7982   8.726   4.184   3.609  0.0327 -0.4533 -0.1314
   60MOL0     C 7983   8.696   4.146   3.483 -0.0231  0.0770  0.1406
   60MOL0     C 7984   8.588   4.058   3.494 -0.1282 -0.7222 -0.1424
   60MOL0     C 7985   8.539   3.982   3.379  0.2667  0.3094 -0.4039
   60MOL0     C 7986   8.483   4.066   3.256  0.7716 -0.2150 -0.8009
   60MOL0     C 7987   8.329   4.099   3.262 -0.1995  0.5856  0.0203
   60MOL0     C 7988   8.276   4.197   3.164  0.4521 -0.3374  1.2529
   60MOL0     O 7989   8.343   4.324   3.158  0.1767 -0.3845  0.8816
   60MOL0     C 7990   8.300   4.426   3.230  0.2294  0.0092  0.2016
   60MOL0     C 7991   8.342   4.438   3.363  0.7192  0.1118  0.1628
   60MOL0     C 7992   8.290   4.544   3.442  0.1800 -0.0847  0.4551
   60MOL0     C 7993   8.340   4.550   3.591  0.3790  0.1170  0.6914
   60MOL0     C 7994   8.196   4.631   3.383  0.4853  0.1208 -0.3973
   60MOL0     C 7995   8.114   4.730   3.456  0.4124  0.4905  0.7257
   60MOL0     O 7996   8.005   4.776   3.399  0.4342 -0.0783 -0.4994
   60MOL0     C 7997   7.913   4.851   3.464  0.3075  0.0749  0.3660
   60MOL0     C 7998   7.805   4.888   3.378  0.2529  1.5918  0.1866
   60MOL0     C 7999   7.694   4.963   3.421  0.3700  1.2989  0.6222
   60MOL0     C 8000   7.688   4.998   3.558  0.5766  0.1484  0.2142
   60MOL0     O 8001   7.594   5.083   3.621 -0.4854  0.4400 -0.5260
   60MOL0     C 8002   7.490   5.140   3.534 -0.3893  0.0832  0.7049
   60MOL0     C 8003   7.390   5.200   3.621  0.7848  0.4968 -0.6379
   60MOL0     C 8004   7.300   5.102   3.683  0.0471 -0.6013 -0.2233
   60MOL0     C 8005   7.211   5.183   3.781 -0.2257  0.2783  0.5825
   60MOL0     C 8006   7.078   5.128   3.820 -0.4842 -0.2351 -0.7419
   60MOL0     C 8007   7.026   5.183   3.956 -0.7221 -0.8904  0.5501
   60MOL0     C 8008   6.882   5.150   3.980 -0.1075  0.1373 -0.3595
   60MOL0     C 8009   6.838   5.160   4.127  0.3448  0.3480  0.4397
   60MOL0    Cl 8010   6.659   5.127   4.108 -0.3182 -0.5044 -0.1566
   60MOL0     C 8011   7.787   4.955   3.644 -0.4066  0.4549  0.1367
   60MOL0     C 8012   7.901   4.880   3.605 -0.1155  0.4487  0.8610
   60MOL0     O 8013   8.160   4.762   3.564  0.3107 -0.0123  0.7566
   60MOL0     C 8014   8.159   4.611   3.253 -0.2191 -0.7311 -0.3958
   60MOL0     C 8015   8.221   4.518   3.170  0.3297  0.6583 -0.6814
   60MOL0     N 8016   8.562   4.045   3.625  0.0745 -0.1567 -0.0705
   60MOL0     N 8017   8.643   4.131   3.698  0.1562 -0.8478 -0.9304
   60MOL0     C 8018   8.509   5.242   3.636  0.0046  0.2112 -0.1332
   60MOL0     C 8019   8.387   5.319   3.635  0.0859  0.5767 -1.5157
   60MOL0     C 8020   7.928   5.400   3.614  0.1372 -0.3344 -0.8691
   60MOL0     C 8021   7.788   5.374   3.633  0.1050  0.1094  0.3408
   60MOL0     C 8022   7.685   5.470   3.617 -0.8131  0.2301 -0.1812
   60MOL0     C 8023   7.720   5.596   3.578 -0.0411 -0.1993 -0.0540
   60MOL0     O 8024   7.623   5.693   3.558  0.3603 -0.7861  0.4626
   60MOL0     C 8025   7.632   5.807   3.471  0.1448 -0.0388  0.0639
   60MOL0     C 8026   7.613   5.752   3.329 -0.3603  0.4195 -0.2121
   60MOL0     C 8027   7.511   5.640   3.307  0.5944 -0.0059  0.3437
   60MOL0     C 8028   7.368   5.661   3.350  0.6320  0.3469  0.0039
   60MOL0     C 8029   7.313   5.784   3.292 -0.0429  0.3631 -0.7836
   60MOL0     C 8030   7.261   5.883   3.238 -0.0063 -0.5423 -0.0792
   60MOL0     C 8031   7.852   5.630   3.562 -0.1738  0.3222  0.3748
   60MOL0     C 8032   7.956   5.534   3.574  0.5127 -0.1466 -1.0718
   60MOL0     H 8033   8.179   5.084   3.502  1.0474  0.2775 -3.7764
   60MOL0     H 8034   8.384   4.945   3.544 -0.5023  0.2211 -1.2648
   60MOL0     H 8035   8.767   5.092   3.554  0.1524  0.1369  0.8210
   60MOL0     H 8036   8.756   5.131   3.722 -0.3397 -0.6811  0.1518
   60MOL0     H 8037   8.935   4.946   3.651  0.1775 -1.1935 -1.3708
   60MOL0     H 8038   8.829   4.888   3.781 -2.0781 -1.1644 -1.1105
   60MOL0     H 8039   8.691   4.784   3.639  0.7056  1.1478  1.4440
   60MOL0     H 8040   8.761   4.839   3.490  0.5390 -1.2758 -0.7141
   60MOL0     H 8041   8.980   4.719   3.554  0.8946 -0.4350  1.9369
   60MOL0     H 8042   8.901   4.653   3.690  1.7898 -0.9902 -0.8483
   60MOL0     H 8043   8.779   4.617   3.406 -1.8159  3.2568  2.1518
   60MOL0     H 8044   8.929   4.540   3.447 -0.2153  0.7992 -0.4031
   60MOL0     H 8045   8.679   4.498   3.620 -0.9685 -3.5756  1.9623
   60MOL0     H 8046   8.721   4.391   3.483  0.1145  1.2246  0.3713
   60MOL0     H 8047   8.930   4.428   3.705  1.4948 -2.0008 -2.3980
   60MOL0     H 8048   8.763   4.392   3.764 -0.6665  0.3860  0.4536
   60MOL0     H 8049   8.902   4.183   3.728  0.0785  3.9553  2.5536
   60MOL0     H 8050   8.920   4.235   3.560  0.4651 -0.3064  0.6454
   60MOL0     H 8051   8.758   4.175   3.399  1.5772 -1.0803  0.8812
   60MOL0     H 8052   8.620   3.918   3.344  1.3024  1.0152  0.6193
   60MOL0     H 8053   8.457   3.919   3.416 -0.8595  3.0224  2.1697
   60MOL0     H 8054   8.492   3.999   3.171 -1.8179 -0.7170 -0.7589
   60MOL0     H 8055   8.546   4.155   3.245 -0.8047  1.3347  1.5385
   60MOL0     H 8056   8.317   4.150   3.358  1.4056  2.3592 -0.6761
   60MOL0     H 8057   8.280   4.001   3.270  2.5305 -0.7297  4.5264
   60MOL0     H 8058   8.168   4.212   3.172  0.2358 -1.0601 -0.0840
   60MOL0     H 8059   8.289   4.144   3.070  1.6842  1.0660  0.6032
   60MOL0     H 8060   8.415   4.372   3.409  1.4476  2.6316  2.9552
   60MOL0     H 8061   8.372   4.654   3.599  0.8527  0.0305 -0.0155
   60MOL0     H 8062   8.251   4.525   3.649 -0.9848 -0.5302 -1.5784
   60MOL0     H 8063   8.430   4.489   3.609  1.5273  0.5132 -2.9322
   60MOL0     H 8064   7.813   4.858   3.274 -0.8922 -1.8744  0.9603
   60MOL0     H 8065   7.622   4.980   3.343 -0.3451  0.1099  1.0059
   60MOL0     H 8066   7.532   5.223   3.477 -0.9573  0.0786  0.2743
   60MOL0     H 8067   7.448   5.077   3.455  2.2425 -1.5170  0.4408
   60MOL0     H 8068   7.431   5.251   3.709 -0.9502 -0.6246  0.8872
   60MOL0     H 8069   7.341   5.278   3.563  0.0528  0.9852  0.6155
   60MOL0     H 8070   7.357   5.023   3.733  1.3839 -0.6777 -1.8092
   60MOL0     H 8071   7.233   5.059   3.609 -0.5796  0.7815 -0.4998
   60MOL0     H 8072   7.281   5.203   3.863 -0.6029  3.3060  0.2996
   60MOL0     H 8073   7.184   5.277   3.731 -0.1325 -0.2995 -0.5796
   60MOL0     H 8074   7.085   5.020   3.803 -3.8165 -1.0016  1.7002
   60MOL0     H 8075   7.000   5.151   3.747 -0.2579 -0.5571 -1.0929
   60MOL0     H 8076   7.075   5.133   4.040 -3.4237 -2.0937  1.5281
   60MOL0     H 8077   7.050   5.289   3.965  2.8438 -1.5207  0.1758
   60MOL0     H 8078   6.857   5.050   3.944 -1.7551  0.6376 -0.7035
   60MOL0     H 8079   6.813   5.204   3.914 -3.2603 -2.0634  0.9301
   60MOL0     H 8080   6.858   5.254   4.180 -1.2013  1.2392 -0.4738
   60MOL0     H 8081   6.890   5.093   4.196  1.8350  3.3425  2.4880
   60MOL0     H 8082   7.780   4.986   3.748  2.4721 -1.2661  0.9629
   60MOL0     H 8083   7.969   4.859   3.687 -0.3125 -2.0918  0.4321
   60MOL0     H 8084   8.078   4.664   3.204  1.8017  2.7702 -0.3104
   60MOL0     H 8085   8.183   4.504   3.069  0.0021  0.7521 -0.5744
   60MOL0     H 8086   8.587   5.302   3.681 -1.2167  2.3714 -0.6951
   60MOL0     H 8087   8.384   5.420   3.675 -2.2368 -0.2491  0.7169
   60MOL0     H 8088   7.755   5.274   3.657  1.8822 -0.4272  0.7089
   60MOL0     H 8089   7.580   5.445   3.607 -0.7362  0.0092 -0.4605
   60MOL0     H 8090   7.545   5.871   3.489 -0.6856  0.1145 -3.5811
   60MOL0     H 8091   7.728   5.856   3.488  1.1846 -1.0695 -2.3644
   60MOL0     H 8092   7.711   5.719   3.294 -0.5220  1.3730 -1.6614
   60MOL0     H 8093   7.598   5.836   3.261  1.1531 -0.3189 -1.5064
   60MOL0     H 8094   7.547   5.550   3.359  1.5754  1.0792  1.6225
   60MOL0     H 8095   7.510   5.609   3.202  0.3550 -0.0028  0.3465
   60MOL0     H 8096   7.363   5.655   3.459 -1.8419 -2.4493 -0.1467
   60MOL0     H 8097   7.309   5.578   3.312 -3.4968  2.2644  1.6215
   60MOL0     H 8098   7.219   5.968   3.190 -0.2712 -0.2317  0.6840
   60MOL0     H 8099   7.877   5.734   3.545  0.3865  0.7484  3.2051
   60MOL0     H 8100   8.059   5.561   3.551 -0.2924  1.6377 -2.8944
   61MOL0     O 8101   3.855   9.514  11.123 -0.1800  0.1355 -0.7363
   61MOL0     C 8102   3.829   9.435  11.032 -1.1517  0.0613 -0.5903
   61MOL0     O 8103   3.918   9.344  10.982  0.0991  0.5823  0.1798
   61MOL0     C 8104   4.029   9.319  11.064  1.7577 -0.1614  0.1851
   61MOL0     C 8105   4.156   9.311  11.010  0.6926  0.2656  0.2165
   61MOL0     C 8106   4.271   9.271  11.079 -0.0428 -0.5374 -0.5044
   61MOL0     C 8107   4.260   9.242  11.217  0.9649 -0.6053 -0.0572
   61MOL0     O 8108   4.366   9.207  11.289  0.4799 -0.0982 -0.1422
   61MOL0     C 8109   4.343   9.120  11.405  1.5134 -0.7465  0.0903
   61MOL0     C 8110   4.472   9.084  11.470 -0.9838 -0.3575 -0.0712
   61MOL0     C 8111   4.481   8.956  11.557 -0.5266  0.6148  0.3296
   61MOL0     C 8112   4.613   8.897  11.541  0.1062  0.3749  0.8366
   61MOL0     C 8113   4.618   8.761  11.615 -0.2898 -0.0663  0.1722
   61MOL0     C 8114   4.754   8.695  11.593  0.1656  0.0548  0.5349
   61MOL0     C 8115   4.798   8.577  11.682  0.4958  0.1765  0.2237
   61MOL0     C 8116   4.910   8.492  11.615 -1.0988  0.8973  0.2159
   61MOL0     N 8117   4.864   8.414  11.495  0.8913 -0.9210 -1.3077
   61MOL0     C 8118   4.784   8.307  11.518 -1.1038  0.4233  0.1361
   61MOL0     C 8119   4.759   8.264  11.400  0.8630 -0.3586  0.2274
   61MOL0     C 8120   4.670   8.152  11.362 -0.8338  0.0985  0.1336
   61MOL0     C 8121   4.730   8.065  11.245  0.2903 -0.2890 -0.5599
   61MOL0     C 8122   4.635   7.953  11.211 -0.6368 -0.6303 -0.1538
   61MOL0     C 8123   4.701   7.839  11.129  0.4843 -0.1906 -0.3439
   61MOL0     O 8124   4.815   7.785  11.195 -0.7234  0.0881  0.9450
   61MOL0     C 8125   4.800   7.683  11.282  1.3103 -0.6897  0.3860
   61MOL0     C 8126   4.683   7.647  11.357 -1.0706 -0.2698  0.4986
   61MOL0     C 8127   4.682   7.532  11.441 -0.5160  0.1161  0.8137
   61MOL0     C 8128   4.558   7.513  11.526 -1.0779  0.5261  0.2399
   61MOL0     C 8129   4.797   7.446  11.445  0.3664  0.3938  0.3258
   61MOL0     C 8130   4.819   7.345  11.547 -0.7048 -0.1643  0.1083
   61MOL0     O 8131   4.948   7.294  11.543 -0.2720  0.2397  0.0600
   61MOL0     C 8132   4.968   7.183  11.620  0.5736 -0.0589  0.1205
   61MOL0     C 8133   5.061   7.187  11.719 -0.5159  0.0750 -0.0137
   61MOL0     C 8134   5.082   7.077  11.796 -0.5691 -0.5594 -0.3079
   61MOL0     C 8135   5.004   6.962  11.791 -0.4962 -0.7388 -0.8380
   61MOL0     O 8136   5.008   6.861  11.881  0.0973 -0.4417  0.5910
   61MOL0     C 8137   5.137   6.812  11.915  0.1979  0.4289 -0.6332
   61MOL0     C 8138   5.116   6.690  12.007 -0.9456 -0.2211 -0.2649
   61MOL0     C 8139   5.095   6.563  11.919 -0.7207 -0.0794  0.0447
   61MOL0     C 8140   5.071   6.449  12.016 -0.5352  0.1816 -0.2624
   61MOL0     C 8141   5.044   6.316  11.944  0.1000  0.5974 -0.5704
   61MOL0     C 8142   5.161   6.281  11.842 -0.2047  0.1171  0.4657
   61MOL0     C 8143   5.133   6.146  11.777  0.1687 -0.3026 -0.9211
   61MOL0     C 8144   5.213   6.119  11.654 -0.0268  0.1549  0.1073
   61MOL0    Cl 8145   5.169   6.215  11.504 -0.0473 -0.5833  0.0796
   61MOL0     C 8146   4.904   6.969  11.692  0.5479 -0.0531 -0.0806
   61MOL0     C 8147   4.884   7.073  11.605 -0.2929  0.5670 -0.0852
   61MOL0     O 8148   4.724   7.297  11.614  0.0808 -1.5060 -0.6405
   61MOL0     C 8149   4.905   7.488  11.368  0.1943 -0.1296  0.3483
   61MOL0     C 8150   4.902   7.595  11.283  0.3563  0.6728 -0.5122
   61MOL0     N 8151   4.831   8.334  11.298  0.5015  0.6186 -0.3734
   61MOL0     N 8152   4.887   8.432  11.357 -0.9338  0.4682  0.0767
   61MOL0     C 8153   4.125   9.243  11.275  0.0270 -1.1588 -0.9494
   61MOL0     C 8154   4.015   9.286  11.200 -0.7097  0.3624 -0.1478
   61MOL0     C 8155   3.690   9.438  10.982  0.4574 -0.2003 -0.3810
   61MOL0     C 8156   3.653   9.367  10.871  0.0858  0.0346 -0.3329
   61MOL0     C 8157   3.526   9.371  10.832  0.2663  0.1478  0.3203
   61MOL0     C 8158   3.415   9.437  10.891  0.3372  0.9288 -0.1018
   61MOL0     O 8159   3.300   9.432  10.823  0.3925 -0.5067 -0.7029
   61MOL0     C 8160   3.214   9.551  10.830 -1.4212 -0.0795  0.0460
   61MOL0     C 8161   3.293   9.668  10.763  0.3480 -1.4105  0.8844
   61MOL0     C 8162   3.203   9.796  10.792 -0.0431  0.2200  0.2808
   61MOL0     C 8163   3.275   9.923  10.765 -1.0050 -0.3033  0.1967
   61MOL0     C 8164   3.310   9.935  10.625  0.6611 -0.1435  0.5828
   61MOL0     C 8165   3.339   9.958  10.512 -0.0514 -0.4996  0.5618
   61MOL0     C 8166   3.454   9.515  11.001 -0.2982  0.8322  0.7057
   61MOL0     C 8167   3.585   9.511  11.051 -0.3509  0.1509  0.6859
   61MOL0     H 8168   4.163   9.315  10.901  1.8593 -1.9407  0.1433
   61MOL0     H 8169   4.370   9.265  11.034  0.4458  3.6044 -0.3649
   61MOL0     H 8170   4.285   9.172  11.482  1.1142 -0.8981 -0.1050
   61MOL0     H 8171   4.283   9.033  11.376  1.7066 -1.0831  0.6760
   61MOL0     H 8172   4.553   9.078  11.397 -0.5264 -1.0752  0.4885
   61MOL0     H 8173   4.501   9.165  11.538  0.8826 -2.2015  1.4704
   61MOL0     H 8174   4.454   8.977  11.661 -2.7730  1.4884 -0.3610
   61MOL0     H 8175   4.412   8.880  11.520  0.6931 -1.2046  1.6603
   61MOL0     H 8176   4.623   8.881  11.433 -4.1189 -1.3142  0.4907
   61MOL0     H 8177   4.692   8.963  11.578  1.2103 -0.5406  0.1814
   61MOL0     H 8178   4.599   8.780  11.721 -1.9686  2.2933 -0.4818
   61MOL0     H 8179   4.537   8.693  11.586 -1.2637  0.8519  0.6428
   61MOL0     H 8180   4.758   8.664  11.488 -0.2875 -0.9908  0.8206
   61MOL0     H 8181   4.833   8.771  11.586  1.6520 -1.2000  2.4760
   61MOL0     H 8182   4.818   8.614  11.782 -3.2985  1.8008  0.5393
   61MOL0     H 8183   4.711   8.510  11.679 -0.7108  1.6810  0.2296
   61MOL0     H 8184   4.956   8.422  11.686  1.1497  0.7864 -1.2567
   61MOL0     H 8185   4.994   8.549  11.574  0.1491 -1.3082 -0.4771
   61MOL0     H 8186   4.748   8.262  11.610 -0.6712 -1.6188 -0.6307
   61MOL0     H 8187   4.660   8.083  11.447  0.3766 -0.2251  0.0348
   61MOL0     H 8188   4.579   8.201  11.329  0.4722  1.5825 -1.4054
   61MOL0     H 8189   4.831   8.030  11.268  2.8412  5.7615 -0.6001
   61MOL0     H 8190   4.744   8.122  11.153  3.6541  0.1951  0.1197
   61MOL0     H 8191   4.557   7.999  11.151  0.3530  1.1714 -0.1318
   61MOL0     H 8192   4.588   7.896  11.291 -2.0225 -0.9745 -1.1836
   61MOL0     H 8193   4.732   7.884  11.034  1.7797 -1.4919 -0.5884
   61MOL0     H 8194   4.636   7.753  11.110  0.4624 -0.2841  0.1390
   61MOL0     H 8195   4.597   7.713  11.366  0.6438  2.6370 -2.1746
   61MOL0     H 8196   4.519   7.411  11.516  5.4164 -2.4943  0.4530
   61MOL0     H 8197   4.579   7.522  11.633 -1.3603 -0.8102  0.4365
   61MOL0     H 8198   4.481   7.590  11.517 -2.4822 -0.7381  0.9600
   61MOL0     H 8199   5.124   7.271  11.748  1.6705 -2.5674  3.7993
   61MOL0     H 8200   5.150   7.072  11.880  1.0350  0.2209 -1.5025
   61MOL0     H 8201   5.175   6.783  11.817 -0.5739  0.6470 -1.0007
   61MOL0     H 8202   5.206   6.882  11.964 -1.8128  0.5995  2.1751
   61MOL0     H 8203   5.203   6.675  12.071 -0.9290 -2.3584 -0.7119
   61MOL0     H 8204   5.025   6.708  12.066 -0.7994 -3.5933  1.1856
   61MOL0     H 8205   5.184   6.535  11.862 -1.2777 -3.9403  0.8218
   61MOL0     H 8206   5.003   6.579  11.863 -2.0956  0.5151  2.3736
   61MOL0     H 8207   5.160   6.423  12.074  0.0492 -1.6667 -1.8430
   61MOL0     H 8208   4.989   6.473  12.084  1.3610  0.4421  2.0782
   61MOL0     H 8209   4.946   6.316  11.894 -1.5592 -1.1037  2.4325
   61MOL0     H 8210   5.038   6.238  12.020  2.9198  0.2202 -0.6298
   61MOL0     H 8211   5.154   6.343  11.753 -1.0451 -1.2050 -0.4225
   61MOL0     H 8212   5.258   6.284  11.893  0.1278 -0.6727 -0.1005
   61MOL0     H 8213   5.029   6.146  11.744 -0.5025  4.4113  0.4295
   61MOL0     H 8214   5.152   6.071  11.854 -0.7816 -0.4909 -0.8617
   61MOL0     H 8215   5.186   6.019  11.619 -0.1037  0.5359 -0.9653
   61MOL0     H 8216   5.321   6.131  11.671  0.2650  1.4298 -2.1542
   61MOL0     H 8217   4.835   6.885  11.688  0.0985  0.1580  2.0963
   61MOL0     H 8218   4.811   7.061  11.526 -2.3987  1.4091  1.6477
   61MOL0     H 8219   5.000   7.437  11.379 -1.3016 -2.8976  1.7983
   61MOL0     H 8220   4.991   7.621  11.227  3.2960 -0.6187  3.1791
   61MOL0     H 8221   4.112   9.232  11.382  2.4884 -2.2867 -0.6729
   61MOL0     H 8222   3.929   9.311  11.261  0.6733 -0.8595  2.4264
   61MOL0     H 8223   3.734   9.327  10.811 -0.1840  1.4505 -1.6925
   61MOL0     H 8224   3.497   9.324  10.738 -1.1581 -0.1831  0.8996
   61MOL0     H 8225   3.122   9.534  10.773 -1.3661  0.4772 -0.2171
   61MOL0     H 8226   3.189   9.574  10.934  0.7424 -2.8992  1.3340
   61MOL0     H 8227   3.277   9.656  10.656 -3.2281 -0.6702  1.2075
   61MOL0     H 8228   3.398   9.680  10.792  0.5695 -4.3824  1.6522
   61MOL0     H 8229   3.172   9.796  10.897  1.4548  4.7450  0.9130
   61MOL0     H 8230   3.112   9.801  10.732 -1.1417  3.2976  1.9545
   61MOL0     H 8231   3.363   9.933  10.829 -1.6230 -0.6826  1.1309
   61MOL0     H 8232   3.205  10.005  10.788  0.1563  0.1137  2.6308
   61MOL0     H 8233   3.378   9.975  10.414  0.1507  1.7977  0.9829
   61MOL0     H 8234   3.371   9.574  11.041 -0.2932  1.7028 -0.5167
   61MOL0     H 8235   3.612   9.557  11.145 -3.5503  0.6428  1.5002
   62MOL0     O 8236   2.931   8.280  10.026  0.7206 -0.2019  0.3967
   62MOL0     C 8237   3.015   8.368  10.039 -0.8745  0.2849 -0.1033
   62MOL0     O 8238   3.134   8.354  10.108 -0.5701 -0.8883 -0.5945
   62MOL0     C 8239   3.159   8.228  10.148  0.2506 -0.7557 -0.2086
   62MOL0     C 8240   3.253   8.149  10.080 -0.2773  0.1346  0.6150
   62MOL0     C 8241   3.287   8.028  10.135 -0.4611 -0.1061  0.0037
   62MOL0     C 8242   3.219   7.972  10.244  1.0230 -0.0271 -0.0619
   62MOL0     O 8243   3.252   7.844  10.291  0.5182  0.0156  0.3744
   62MOL0     C 8244   3.186   7.726  10.235  0.1752  0.2807 -0.4236
   62MOL0     C 8245   3.259   7.684  10.107  0.2319  0.0971  0.1316
   62MOL0     C 8246   3.203   7.548  10.055 -0.4749 -0.0174  0.1508
   62MOL0     C 8247   3.052   7.546  10.043 -0.8164 -0.4831  0.7725
   62MOL0     C 8248   3.003   7.411  10.000  0.0729  0.2295  0.0011
   62MOL0     C 8249   2.994   7.394   9.846  0.0735  0.2523 -0.0686
   62MOL0     C 8250   2.918   7.258   9.799 -0.6977  0.5091 -0.4309
   62MOL0     C 8251   2.871   7.275   9.650 -0.0788  0.2789  0.4200
   62MOL0     N 8252   2.806   7.156   9.587  0.3282 -0.0693 -0.3771
   62MOL0     C 8253   2.675   7.121   9.601 -0.1582 -0.2801 -0.3602
   62MOL0     C 8254   2.674   6.992   9.565 -0.2026  0.1498  0.6092
   62MOL0     C 8255   2.571   6.889   9.591 -0.1022 -0.1876 -0.7298
   62MOL0     C 8256   2.427   6.932   9.551  0.1861 -0.1916  0.0092
   62MOL0     C 8257   2.399   6.917   9.395 -0.2098  0.1604  0.6374
   62MOL0     C 8258   2.389   6.783   9.349 -0.1076  0.1906 -0.6809
   62MOL0     O 8259   2.261   6.717   9.379  0.0809  0.2267 -0.8921
   62MOL0     C 8260   2.166   6.713   9.279  0.1272 -0.1254 -0.7073
   62MOL0     C 8261   2.065   6.618   9.279 -0.0406 -0.4678 -0.0969
   62MOL0     C 8262   1.961   6.611   9.188 -0.1401 -0.5417  0.7111
   62MOL0     C 8263   1.851   6.501   9.215  0.3215 -0.0639  0.5205
   62MOL0     C 8264   1.957   6.709   9.078 -1.1361 -0.2333  0.2567
   62MOL0     C 8265   1.852   6.725   8.979  0.4179 -0.7191 -0.0643
   62MOL0     O 8266   1.741   6.663   8.994  0.1518 -0.3703  0.2612
   62MOL0     C 8267   1.660   6.603   8.902  0.1693 -0.8740  0.3474
   62MOL0     C 8268   1.538   6.554   8.943  0.0577 -0.2133 -0.0782
   62MOL0     C 8269   1.433   6.518   8.864 -0.2893  0.1544  0.6778
   62MOL0     C 8270   1.453   6.539   8.723 -0.6612  0.3255 -0.3186
   62MOL0     O 8271   1.368   6.518   8.621  0.2425  0.3116  0.1278
   62MOL0     C 8272   1.233   6.462   8.644 -0.2160 -0.2988  0.0415
   62MOL0     C 8273   1.142   6.580   8.690 -0.7974  0.2535  0.0841
   62MOL0     C 8274   1.096   6.674   8.576 -0.5158 -0.0628  1.0116
   62MOL0     C 8275   0.967   6.748   8.600 -0.0128 -0.7832  0.3166
   62MOL0     C 8276   0.935   6.858   8.494 -0.4889  0.8450 -0.0657
   62MOL0     C 8277   1.045   6.967   8.483 -0.9124  0.9705 -1.1181
   62MOL0     C 8278   0.996   7.079   8.390 -0.6008  0.9670  0.4535
   62MOL0     C 8279   1.084   7.196   8.392 -0.7347 -0.7085  0.7139
   62MOL0    Cl 8280   1.096   7.269   8.559  0.3879  0.1002 -0.0585
   62MOL0     C 8281   1.581   6.572   8.683  0.1319 -1.0480  0.1937
   62MOL0     C 8282   1.688   6.611   8.771  0.6855 -0.0414 -0.4600
   62MOL0     O 8283   1.873   6.806   8.888  0.4578 -0.1979  0.3394
   62MOL0     C 8284   2.051   6.817   9.077  0.0655 -0.5486 -0.1542
   62MOL0     C 8285   2.156   6.813   9.177  0.9668 -0.1600 -0.0643
   62MOL0     N 8286   2.793   6.958   9.512 -0.0220  0.3594 -0.1095
   62MOL0     N 8287   2.875   7.061   9.521  0.6308  0.3166 -0.5728
   62MOL0     C 8288   3.124   8.051  10.314 -0.1202 -0.8383  0.0037
   62MOL0     C 8289   3.095   8.179  10.267 -0.6139 -1.0763 -0.2333
   62MOL0     C 8290   2.982   8.499   9.986  0.4884  0.3083 -0.7215
   62MOL0     C 8291   2.950   8.510   9.850 -0.4189  0.4140 -0.2303
   62MOL0     C 8292   2.938   8.634   9.797  0.0455 -0.3963  0.6890
   62MOL0     C 8293   2.928   8.752   9.881 -0.2368 -0.2610  0.3388
   62MOL0     O 8294   2.905   8.863   9.813 -0.5913 -0.2889 -0.2025
   62MOL0     C 8295   2.790   8.934   9.853  0.1064 -0.5078  0.0007
   62MOL0     C 8296   2.679   8.911   9.753 -0.3506  0.0425 -0.1443
   62MOL0     C 8297   2.557   8.996   9.799  1.5321 -0.2832 -0.0450
   62MOL0     C 8298   2.459   8.936   9.903  0.0629 -0.1782  0.3658
   62MOL0     C 8299   2.509   8.944  10.043  0.0299 -0.3803  0.5850
   62MOL0     C 8300   2.541   8.966  10.161 -0.7786 -0.1818 -0.4693
   62MOL0     C 8301   2.954   8.738  10.016 -0.7064  0.3348 -0.4338
   62MOL0     C 8302   2.984   8.609  10.066 -1.1127  0.3954  0.5121
   62MOL0     H 8303   3.304   8.174   9.987 -1.3916 -2.0381 -0.6638
   62MOL0     H 8304   3.370   7.972  10.092 -1.3756 -1.5260  0.0378
   62MOL0     H 8305   3.182   7.641  10.303 -2.0694  0.4955 -0.2396
   62MOL0     H 8306   3.086   7.760  10.207  0.3074  1.1528  0.1192
   62MOL0     H 8307   3.239   7.768  10.040  0.1513 -0.1209 -0.1177
   62MOL0     H 8308   3.368   7.678  10.117  0.3601  0.1062 -1.1093
   62MOL0     H 8309   3.253   7.506   9.968  2.3104 -1.1329  2.1596
   62MOL0     H 8310   3.228   7.480  10.137  0.1386 -0.5804 -0.4927
   62MOL0     H 8311   3.014   7.571  10.143 -0.1177  1.1466  0.6701
   62MOL0     H 8312   3.008   7.615   9.971  1.1244  0.4289  0.4093
   62MOL0     H 8313   3.050   7.332  10.059 -0.8212  0.4853  1.1032
   62MOL0     H 8314   2.896   7.415  10.023  0.1331  0.9777  0.1724
   62MOL0     H 8315   2.937   7.481   9.810 -1.4332 -0.1901  1.1308
   62MOL0     H 8316   3.090   7.382   9.795 -0.0109 -3.5154  0.3608
   62MOL0     H 8317   2.990   7.177   9.816  1.3301  2.2181 -0.4639
   62MOL0     H 8318   2.831   7.238   9.861 -0.1461 -0.1727  0.1376
   62MOL0     H 8319   2.954   7.307   9.587  0.7820 -1.1767  0.7694
   62MOL0     H 8320   2.796   7.354   9.641  0.3513  0.5935 -0.4828
   62MOL0     H 8321   2.597   7.185   9.642  0.0699  0.1580 -0.6096
   62MOL0     H 8322   2.597   6.798   9.536  1.1316 -0.2406 -0.1156
   62MOL0     H 8323   2.579   6.866   9.698  2.6964  1.9236 -0.3695
   62MOL0     H 8324   2.403   7.034   9.582  2.5834 -0.2630  2.4029
   62MOL0     H 8325   2.351   6.870   9.599 -0.9799 -2.2182 -4.0064
   62MOL0     H 8326   2.466   6.971   9.326 -0.2957 -0.5882 -0.0447
   62MOL0     H 8327   2.299   6.958   9.383 -0.5496 -0.7462  0.3200
   62MOL0     H 8328   2.453   6.715   9.406 -2.8760 -1.8106  0.2274
   62MOL0     H 8329   2.403   6.780   9.241  0.2794  1.1961 -0.6692
   62MOL0     H 8330   2.075   6.536   9.349  1.3701 -0.7299 -0.5583
   62MOL0     H 8331   1.840   6.439   9.125 -1.0970 -0.6773  1.0852
   62MOL0     H 8332   1.882   6.438   9.298  7.1044  1.5234 -0.2118
   62MOL0     H 8333   1.753   6.550   9.213 -0.8275 -2.2420  0.6824
   62MOL0     H 8334   1.525   6.559   9.051  1.3248 -1.7056  0.1820
   62MOL0     H 8335   1.333   6.497   8.902 -2.7940  1.9553 -4.0830
   62MOL0     H 8336   1.208   6.414   8.549  1.3738  0.3797 -0.7440
   62MOL0     H 8337   1.222   6.388   8.724 -1.0876 -0.4011 -0.1568
   62MOL0     H 8338   1.060   6.537   8.747 -0.0872  0.7029  1.4698
   62MOL0     H 8339   1.188   6.647   8.763 -0.7178  1.5079 -1.0754
   62MOL0     H 8340   1.086   6.613   8.485  1.3732 -1.6362  1.7707
   62MOL0     H 8341   1.177   6.739   8.542  0.0582 -2.0700 -1.8423
   62MOL0     H 8342   0.888   6.672   8.598  0.6948 -1.5248 -0.9746
   62MOL0     H 8343   0.971   6.798   8.697  0.0361  1.3716 -0.7265
   62MOL0     H 8344   0.841   6.905   8.523  0.7938  2.5471  1.5953
   62MOL0     H 8345   0.933   6.819   8.391 -0.1191  0.0405  0.2206
   62MOL0     H 8346   1.070   7.004   8.583 -0.9487 -0.2400 -0.6396
   62MOL0     H 8347   1.138   6.920   8.450 -1.3730  0.5046 -1.7934
   62MOL0     H 8348   0.896   7.113   8.417 -1.0066  0.7186 -0.7167
   62MOL0     H 8349   0.995   7.042   8.288  0.3059  4.6541 -1.0665
   62MOL0     H 8350   1.049   7.271   8.321 -0.4355 -1.2009  0.0297
   62MOL0     H 8351   1.190   7.172   8.381 -0.5112 -2.2679  4.6447
   62MOL0     H 8352   1.603   6.599   8.580 -3.3139  2.5532  0.1984
   62MOL0     H 8353   1.783   6.658   8.748 -1.2078  5.6736  1.5673
   62MOL0     H 8354   2.050   6.911   9.023  0.0194  1.6073  3.3091
   62MOL0     H 8355   2.241   6.880   9.164  2.0622 -0.9357  2.5105
   62MOL0     H 8356   3.079   8.017  10.407  1.5247 -0.5990  0.9220
   62MOL0     H 8357   3.020   8.237  10.320  2.4454  0.4622  2.8041
   62MOL0     H 8358   2.940   8.426   9.782 -0.1184 -1.2854  1.7388
   62MOL0     H 8359   2.925   8.649   9.690  2.4099 -0.3763  0.3658
   62MOL0     H 8360   2.755   8.906   9.953  1.2409 -0.1974  0.4998
   62MOL0     H 8361   2.819   9.039   9.852  0.0862 -0.4937  0.4350
   62MOL0     H 8362   2.640   8.809   9.754  0.5653 -0.3490 -1.2839
   62MOL0     H 8363   2.713   8.935   9.651 -1.8885 -2.6914 -1.3859
   62MOL0     H 8364   2.497   9.027   9.713 -1.8118  1.2792  2.5864
   62MOL0     H 8365   2.578   9.094   9.842 -0.3778 -0.2025  0.8331
   62MOL0     H 8366   2.418   8.840   9.871 -2.2973  0.4359  1.3353
   62MOL0     H 8367   2.374   9.005   9.894  0.9870  1.0860  0.9655
   62MOL0     H 8368   2.583   8.980  10.259 -0.6922  1.6489 -0.7328
   62MOL0     H 8369   2.955   8.826  10.079 -2.9510  1.9640 -2.4595
   62MOL0     H 8370   3.022   8.583  10.164 -0.1001 -0.6848 -0.1348
   63MOL0     O 8371   0.308   1.868  10.798 -0.3414 -0.6768  0.0999
   63MOL0     C 8372   0.195   1.914  10.799  1.2632 -0.0889  0.2054
   63MOL0     O 8373   0.145   1.987  10.696 -0.3566 -0.7114  0.0358
   63MOL0     C 8374   0.231   2.014  10.589  0.2099 -0.3339  0.8027
   63MOL0     C 8375   0.205   1.950  10.472 -0.1120  0.1957 -0.2069
   63MOL0     C 8376   0.285   1.962  10.358 -0.0738 -0.4955  0.4816
   63MOL0     C 8377   0.401   2.039  10.363 -0.1059  0.2241 -0.0147
   63MOL0     O 8378   0.473   2.062  10.245  0.6451 -0.0524 -0.4805
   63MOL0     C 8379   0.393   2.079  10.128  0.0452  0.6213 -0.4365
   63MOL0     C 8380   0.402   1.950  10.049  0.1071 -1.0065  0.1042
   63MOL0     C 8381   0.547   1.931  10.010 -1.1859 -0.0955 -0.2824
   63MOL0     C 8382   0.550   1.820   9.900  0.0622 -0.8510 -0.4391
   63MOL0     C 8383   0.689   1.768   9.878 -1.2211 -0.4389  0.0276
   63MOL0     C 8384   0.779   1.862   9.789  0.4758 -0.3161  0.4084
   63MOL0     C 8385   0.920   1.800   9.758  0.5157 -0.5547 -0.8927
   63MOL0     C 8386   0.918   1.677   9.671  0.1127 -0.5372 -0.4285
   63MOL0     N 8387   1.057   1.626   9.656  0.1937  0.7014  0.0264
   63MOL0     C 8388   1.120   1.534   9.740  0.7090 -0.8244 -1.1478
   63MOL0     C 8389   1.239   1.509   9.671 -0.6971 -0.4478  0.2642
   63MOL0     C 8390   1.355   1.411   9.703 -0.2370  0.6677  0.4753
   63MOL0     C 8391   1.466   1.472   9.777 -0.3677  0.2352 -0.5914
   63MOL0     C 8392   1.454   1.457   9.935 -1.1323 -0.8015 -0.3050
   63MOL0     C 8393   1.366   1.560  10.007 -0.7881 -0.1543 -0.4061
   63MOL0     O 8394   1.417   1.688   9.983  0.3137  0.0815  0.4070
   63MOL0     C 8395   1.456   1.753  10.091 -0.1193  0.6551 -1.0115
   63MOL0     C 8396   1.397   1.867  10.134  0.7654  0.2521 -0.4755
   63MOL0     C 8397   1.433   1.941  10.253 -0.0725 -0.5163  0.1365
   63MOL0     C 8398   1.369   2.073  10.293  0.0719  0.2322 -0.4500
   63MOL0     C 8399   1.541   1.890  10.329 -0.9555 -0.5018  0.3517
   63MOL0     C 8400   1.605   1.946  10.446 -0.8981  0.1291 -0.1918
   63MOL0     O 8401   1.731   1.904  10.475 -1.1997 -0.2920  0.2925
   63MOL0     C 8402   1.812   1.983  10.542 -1.2616 -0.1923  0.5388
   63MOL0     C 8403   1.825   1.996  10.681  0.0630  0.1866 -0.6376
   63MOL0     C 8404   1.918   2.073  10.750  0.3707 -0.5144  0.1108
   63MOL0     C 8405   2.015   2.140  10.673 -0.6864  0.2486  0.4851
   63MOL0     O 8406   2.104   2.224  10.738 -0.7399 -1.0982 -0.1244
   63MOL0     C 8407   2.220   2.274  10.663 -0.2550 -0.0609  0.5981
   63MOL0     C 8408   2.303   2.365  10.752 -0.5066  0.2160  0.3473
   63MOL0     C 8409   2.228   2.495  10.789  0.5795  0.7918  0.0650
   63MOL0     C 8410   2.208   2.602  10.672 -0.8776  0.5444 -0.8415
   63MOL0     C 8411   2.132   2.723  10.716 -0.1864 -0.4446  0.3213
   63MOL0     C 8412   2.105   2.796  10.581 -0.8100 -0.2620  0.0093
   63MOL0     C 8413   2.009   2.917  10.606  0.4134  0.3866  0.7202
   63MOL0     C 8414   2.063   3.011  10.712 -0.3000 -0.5004  0.9527
   63MOL0    Cl 8415   2.217   3.077  10.651  0.6480  0.0284  0.4732
   63MOL0     C 8416   2.020   2.111  10.535  0.5587 -1.3584  0.9210
   63MOL0     C 8417   1.917   2.036  10.472  1.0200 -0.4453 -0.6685
   63MOL0     O 8418   1.541   2.021  10.516 -0.5340  1.1589 -0.0809
   63MOL0     C 8419   1.612   1.782  10.282  0.2123 -0.0115  0.6805
   63MOL0     C 8420   1.557   1.715  10.174 -0.1594  0.1502  1.2475
   63MOL0     N 8421   1.239   1.591   9.555 -0.3892  0.3891 -0.1093
   63MOL0     N 8422   1.138   1.666   9.550  0.1533 -0.2221 -0.2558
   63MOL0     C 8423   0.440   2.094  10.481 -0.1832  0.7851  0.8397
   63MOL0     C 8424   0.352   2.085  10.596  0.0911  0.3039 -0.5890
   63MOL0     C 8425   0.097   1.884  10.901  0.3160  0.6361 -0.2374
   63MOL0     C 8426   0.150   1.828  11.022 -0.6118 -0.5491 -0.1728
   63MOL0     C 8427   0.061   1.791  11.118  0.0983  0.1195 -0.5038
   63MOL0     C 8428  -0.079   1.794  11.107 -0.8156  0.1219  0.2516
   63MOL0     O 8429  -0.143   1.727  11.199  0.2944  0.6270 -0.8837
   63MOL0     C 8430  -0.289   1.713  11.190 -0.5794  0.0277  0.4356
   63MOL0     C 8431  -0.344   1.656  11.320 -0.0900 -0.4177 -0.7850
   63MOL0     C 8432  -0.351   1.499  11.328 -0.2855  0.1222  0.3913
   63MOL0     C 8433  -0.467   1.439  11.240 -0.0192 -0.2578 -0.0433
   63MOL0     C 8434  -0.593   1.495  11.278 -0.2263 -0.5724  0.9437
   63MOL0     C 8435  -0.690   1.546  11.330 -0.9815 -0.2717  0.1723
   63MOL0     C 8436  -0.131   1.859  10.993 -0.8120 -0.6611  0.7376
   63MOL0     C 8437  -0.039   1.905  10.896 -0.2643  0.1256 -0.6056
   63MOL0     H 8438   0.112   1.895  10.461  2.2803 -4.3068 -0.6682
   63MOL0     H 8439   0.252   1.923  10.262  0.2650  2.1880 -0.7831
   63MOL0     H 8440   0.290   2.099  10.157  0.7022  2.3488  0.9024
   63MOL0     H 8441   0.438   2.164  10.074  3.0819  0.1393  1.1083
   63MOL0     H 8442   0.356   1.862  10.095 -1.3029  0.3154  1.3354
   63MOL0     H 8443   0.345   1.972   9.958 -0.3271  2.0722  1.0251
   63MOL0     H 8444   0.608   2.015   9.976 -1.7555 -0.4856 -2.3895
   63MOL0     H 8445   0.589   1.891  10.103 -1.1707 -1.5977 -0.9110
   63MOL0     H 8446   0.494   1.732   9.932 -0.3838 -0.9778 -1.5185
   63MOL0     H 8447   0.510   1.860   9.806 -3.3013 -0.0005  1.1887
   63MOL0     H 8448   0.734   1.755   9.977 -2.6877 -3.8032  0.3744
   63MOL0     H 8449   0.688   1.666   9.839  1.7051 -1.1378  1.5153
   63MOL0     H 8450   0.730   1.888   9.695 -0.4495 -1.2810  0.6082
   63MOL0     H 8451   0.799   1.953   9.846  1.2283  0.3651 -0.9045
   63MOL0     H 8452   0.991   1.868   9.710  0.0482  0.0284 -0.7735
   63MOL0     H 8453   0.958   1.774   9.857 -0.4221  1.9845  0.2360
   63MOL0     H 8454   0.878   1.709   9.574 -0.1296  1.3095  0.2484
   63MOL0     H 8455   0.868   1.605   9.736 -1.0398  2.4276  2.1749
   63MOL0     H 8456   1.082   1.498   9.835  1.0142  4.9461  1.6302
   63MOL0     H 8457   1.319   1.324   9.758 -0.1308 -1.5722 -2.7187
   63MOL0     H 8458   1.396   1.370   9.610 -2.0940 -2.8385  1.0344
   63MOL0     H 8459   1.470   1.580   9.760  1.1746 -0.0398 -2.3632
   63MOL0     H 8460   1.559   1.423   9.747 -0.4639  0.4545 -1.2632
   63MOL0     H 8461   1.557   1.481   9.964  0.3703 -3.1974 -3.0346
   63MOL0     H 8462   1.428   1.357   9.968  0.4800 -0.6538  1.5829
   63MOL0     H 8463   1.374   1.532  10.112  3.7813  0.6335 -0.3509
   63MOL0     H 8464   1.267   1.562   9.959 -2.0143 -3.4450  1.6220
   63MOL0     H 8465   1.316   1.904  10.072 -0.8205  0.7900  1.7666
   63MOL0     H 8466   1.437   2.155  10.318 -0.2298  0.7651 -1.3390
   63MOL0     H 8467   1.315   2.106  10.204  3.0392 -0.8159 -2.7891
   63MOL0     H 8468   1.313   2.058  10.386 -1.6984  1.9928 -1.1446
   63MOL0     H 8469   1.742   1.950  10.733 -0.7671 -2.2694 -3.8364
   63MOL0     H 8470   1.924   2.090  10.857 -1.9420 -0.9365  0.3643
   63MOL0     H 8471   2.287   2.190  10.641  1.3558  1.3429 -0.1244
   63MOL0     H 8472   2.194   2.313  10.564 -1.6737  1.0676  1.3795
   63MOL0     H 8473   2.329   2.301  10.837  1.7158  0.4230 -0.1238
   63MOL0     H 8474   2.398   2.399  10.711 -0.2266  2.6668  2.7211
   63MOL0     H 8475   2.286   2.554  10.861  0.8011  2.3350 -1.3188
   63MOL0     H 8476   2.130   2.477  10.834 -1.3463  1.2398 -3.5464
   63MOL0     H 8477   2.308   2.636  10.643 -0.5473  0.9250  0.6503
   63MOL0     H 8478   2.165   2.549  10.587 -1.7603 -3.5383  1.8729
   63MOL0     H 8479   2.193   2.769  10.794  3.2053 -4.4227  0.3696
   63MOL0     H 8480   2.040   2.677  10.754  0.4949 -3.2766 -1.1891
   63MOL0     H 8481   2.207   2.812  10.543  1.4489 -2.8453  4.1465
   63MOL0     H 8482   2.058   2.740  10.501 -1.0142  1.0604 -0.8318
   63MOL0     H 8483   1.916   2.872  10.641 -0.1446 -1.3594 -2.6053
   63MOL0     H 8484   1.987   2.971  10.513 -0.3506  2.0515  1.8231
   63MOL0     H 8485   2.065   2.979  10.817  1.4783  0.1296  1.1417
   63MOL0     H 8486   1.996   3.098  10.715 -2.0718 -1.7188 -1.0759
   63MOL0     H 8487   2.088   2.150  10.460 -2.5352 -0.9786 -1.8956
   63MOL0     H 8488   1.922   2.027  10.364  2.3641  2.1275 -0.8951
   63MOL0     H 8489   1.704   1.737  10.319  0.0474 -0.9024  0.0171
   63MOL0     H 8490   1.612   1.625  10.150 -1.4173 -0.2934 -0.0969
   63MOL0     H 8491   0.534   2.149  10.490  0.2994  0.0208  0.5195
   63MOL0     H 8492   0.374   2.139  10.687 -1.5401 -0.0947  0.0596
   63MOL0     H 8493   0.258   1.820  11.030 -0.4186  0.7505 -1.1590
   63MOL0     H 8494   0.113   1.739  11.198 -1.2184  0.1326  0.3995
   63MOL0     H 8495  -0.318   1.817  11.176  2.8850  0.9686 -0.9056
   63MOL0     H 8496  -0.310   1.653  11.100  0.0788  0.7838 -0.2450
   63MOL0     H 8497  -0.443   1.698  11.334  0.6394  0.4052  3.1426
   63MOL0     H 8498  -0.284   1.683  11.408  0.4509 -5.1406  0.5901
   63MOL0     H 8499  -0.359   1.464  11.431  1.2263  0.9712  0.8310
   63MOL0     H 8500  -0.251   1.463  11.302  0.5189  1.7487  1.1303
   63MOL0     H 8501  -0.459   1.330  11.248 -0.2418 -0.2349  0.5431
   63MOL0     H 8502  -0.445   1.459  11.135  0.2341 -0.3865 -0.0152
   63MOL0     H 8503  -0.770   1.600  11.377  0.4530  2.7517 -0.6108
   63MOL0     H 8504  -0.231   1.901  10.982  0.2152  1.3225 -1.9534
   63MOL0     H 8505  -0.070   1.972  10.816 -1.4938  1.4587  0.9223
   64MOL0     O 8506   8.342   9.777   5.947 -0.5417 -0.4046 -0.1076
   64MOL0     C 8507   8.376   9.668   5.902  0.4231 -0.3096  0.2058
   64MOL0     O 8508   8.288   9.563   5.875  0.1132 -0.7003  0.4629
   64MOL0     C 8509   8.155   9.567   5.899  0.0560  0.5800 -0.2878
   64MOL0     C 8510   8.088   9.450   5.867  1.3725 -0.2061  0.6151
   64MOL0     C 8511   7.951   9.434   5.903 -0.4012 -0.2442 -1.0528
   64MOL0     C 8512   7.874   9.538   5.961 -0.6884 -0.1802 -0.1369
   64MOL0     O 8513   7.739   9.532   5.976 -0.6700 -0.3174 -0.5407
   64MOL0     C 8514   7.666   9.654   5.995  0.0966  0.3938 -0.0030
   64MOL0     C 8515   7.520   9.635   5.971  0.1475 -0.9645 -0.9343
   64MOL0     C 8516   7.438   9.769   6.012 -1.2034  0.6409  0.0329
   64MOL0     C 8517   7.291   9.730   6.036 -0.2599 -0.3495  0.5995
   64MOL0     C 8518   7.211   9.856   6.052  0.4961  0.0785  0.5010
   64MOL0     C 8519   7.060   9.818   6.050  0.8376  1.0819  0.7671
   64MOL0     C 8520   6.976   9.936   6.041  0.2809 -0.7914  0.2169
   64MOL0     C 8521   7.004  10.035   6.154  0.2978  0.5325  0.2522
   64MOL0     N 8522   6.954   9.978   6.285 -0.5388 -0.4513  0.4035
   64MOL0     C 8523   7.023   9.898   6.373 -0.7311  0.2411  0.3093
   64MOL0     C 8524   6.929   9.864   6.466 -0.2980  0.2134  0.5655
   64MOL0     C 8525   6.975   9.800   6.597 -0.0405  0.1776 -0.5462
   64MOL0     C 8526   6.855   9.749   6.674  0.0909 -0.4443 -0.2644
   64MOL0     C 8527   6.905   9.626   6.750  0.4084  0.4892 -0.1372
   64MOL0     C 8528   6.857   9.504   6.669 -0.3653  0.2192 -0.1485
   64MOL0     O 8529   6.885   9.385   6.740 -0.1245 -1.0546 -0.1005
   64MOL0     C 8530   6.864   9.261   6.682 -0.2837 -0.6350 -0.3780
   64MOL0     C 8531   6.967   9.171   6.664 -0.2579 -0.9023  0.9038
   64MOL0     C 8532   6.963   9.043   6.619 -0.6653 -0.4662  0.2095
   64MOL0     C 8533   7.091   8.971   6.604 -0.8351  0.2332 -0.2177
   64MOL0     C 8534   6.838   9.002   6.561 -0.4766  0.5503  0.1123
   64MOL0     C 8535   6.822   8.878   6.482  0.2913 -0.1793  0.5319
   64MOL0     O 8536   6.711   8.878   6.396  0.2583 -1.2543 -1.1071
   64MOL0     C 8537   6.659   8.761   6.349  0.1946 -0.6547 -0.9029
   64MOL0     C 8538   6.582   8.776   6.233  0.0931 -0.4830  0.1474
   64MOL0     C 8539   6.500   8.675   6.182 -0.1396 -0.2525 -0.5631
   64MOL0     C 8540   6.495   8.548   6.241 -0.0973  0.8693  0.2900
   64MOL0     O 8541   6.398   8.452   6.202  0.1749  0.8090  0.3806
   64MOL0     C 8542   6.351   8.352   6.297 -0.1559  0.2744 -0.2989
   64MOL0     C 8543   6.232   8.272   6.243  0.0839  0.5369  0.9258
   64MOL0     C 8544   6.285   8.144   6.174 -0.0600  0.3547 -0.1847
   64MOL0     C 8545   6.176   8.069   6.100  0.4871  0.6728  0.2253
   64MOL0     C 8546   6.230   8.005   5.966 -0.1987 -0.0834 -0.0211
   64MOL0     C 8547   6.143   7.888   5.922 -0.1681  0.4641  0.0372
   64MOL0     C 8548   6.190   7.798   5.814  0.1500 -0.1990 -0.3412
   64MOL0     C 8549   6.267   7.677   5.873 -0.2510 -0.9841 -0.5531
   64MOL0    Cl 8550   6.427   7.729   5.927 -0.0132 -0.8395 -0.0832
   64MOL0     C 8551   6.582   8.528   6.350 -0.8471 -0.1206 -0.1519
   64MOL0     C 8552   6.652   8.634   6.412 -0.2523  0.1446 -0.7149
   64MOL0     O 8553   6.891   8.777   6.499  0.1236 -0.5137  0.6219
   64MOL0     C 8554   6.728   9.089   6.559 -0.6408  0.0500 -0.3028
   64MOL0     C 8555   6.743   9.218   6.625  0.1628  1.1028  0.2394
   64MOL0     N 8556   6.812   9.929   6.429 -1.0607 -0.5695  0.1876
   64MOL0     N 8557   6.824   9.994   6.321 -0.5045 -0.5110 -0.0592
   64MOL0     C 8558   7.953   9.648   6.003  0.7568 -0.3751  0.3100
   64MOL0     C 8559   8.087   9.656   5.971  0.1058  0.0008  0.1644
   64MOL0     C 8560   8.523   9.626   5.909  0.5158 -0.0689 -1.0072
   64MOL0     C 8561   8.555   9.502   5.844 -0.8045 -0.4059  0.2938
   64MOL0     C 8562   8.685   9.454   5.844 -0.0723 -0.3625 -0.8734
   64MOL0     C 8563   8.793   9.535   5.893  0.6216  0.1672 -0.2456
   64MOL0     O 8564   8.919   9.484   5.871  0.2778  0.7890  0.7532
   64MOL0     C 8565   9.034   9.569   5.869  0.1192 -0.5631  0.9497
   64MOL0     C 8566   9.125   9.511   5.754  0.1188  0.3234 -0.2147
   64MOL0     C 8567   9.197   9.385   5.801 -0.6151  0.0883 -0.7216
   64MOL0     C 8568   9.328   9.400   5.881 -0.1209 -0.1883  0.2982
   64MOL0     C 8569   9.429   9.461   5.805  0.0882 -0.0934  0.0397
   64MOL0     C 8570   9.504   9.514   5.728  0.0233 -0.1290  0.3374
   64MOL0     C 8571   8.761   9.654   5.964  0.3867 -0.1202  0.0546
   64MOL0     C 8572   8.624   9.700   5.962 -0.8710  0.7590  0.6159
   64MOL0     H 8573   8.126   9.376   5.796 -2.0595  1.1336 -2.9819
   64MOL0     H 8574   7.896   9.347   5.870 -1.2152  0.9996 -3.1886
   64MOL0     H 8575   7.676   9.681   6.101 -2.3974  1.7868 -0.0351
   64MOL0     H 8576   7.698   9.736   5.929  1.1069  0.1129  0.1243
   64MOL0     H 8577   7.507   9.605   5.867 -2.3255 -0.3441 -0.8680
   64MOL0     H 8578   7.486   9.550   6.032 -0.5722  0.2262  0.3767
   64MOL0     H 8579   7.493   9.809   6.097 -0.6444 -1.0618  0.5054
   64MOL0     H 8580   7.438   9.842   5.931  1.9609  1.3440  0.5548
   64MOL0     H 8581   7.259   9.668   5.953  0.7739 -1.9187  1.3256
   64MOL0     H 8582   7.284   9.662   6.121 -1.4985 -2.4101 -1.0686
   64MOL0     H 8583   7.238   9.894   6.151 -2.3451 -0.6822  1.6768
   64MOL0     H 8584   7.239   9.922   5.970 -1.6353 -1.4689 -1.5828
   64MOL0     H 8585   7.036   9.762   5.959 -2.7243  2.2209  0.8484
   64MOL0     H 8586   7.035   9.759   6.138  4.9951 -1.3490  0.5614
   64MOL0     H 8587   7.004   9.998   5.956  1.6480  3.0578  3.2070
   64MOL0     H 8588   6.870   9.909   6.040  0.5008 -1.6910  0.1559
   64MOL0     H 8589   6.949  10.127   6.132  0.9857  1.4733  2.1797
   64MOL0     H 8590   7.111  10.059   6.150  0.2580  0.8753  1.0799
   64MOL0     H 8591   7.128   9.871   6.376 -0.5660  0.8201 -0.1178
   64MOL0     H 8592   7.046   9.722   6.570 -1.6290 -0.5560 -2.9552
   64MOL0     H 8593   7.027   9.879   6.652  0.5201 -0.6323  0.1052
   64MOL0     H 8594   6.766   9.741   6.611  0.6443 -1.2838 -0.9683
   64MOL0     H 8595   6.836   9.831   6.744  3.8985  0.7222 -0.3289
   64MOL0     H 8596   6.851   9.623   6.846  1.7700 -0.1812  0.6439
   64MOL0     H 8597   7.010   9.620   6.782  0.3185 -0.0173  0.0669
   64MOL0     H 8598   6.905   9.505   6.570  2.9320  1.5154  1.3229
   64MOL0     H 8599   6.749   9.506   6.655 -0.7717 -1.3714  2.2939
   64MOL0     H 8600   7.060   9.218   6.695  1.6446 -2.5059 -1.9722
   64MOL0     H 8601   7.109   8.935   6.502  4.0709 -0.9168  0.7999
   64MOL0     H 8602   7.178   9.032   6.630 -2.6222  2.9682 -0.1929
   64MOL0     H 8603   7.084   8.890   6.677  0.8449 -0.5418 -0.8729
   64MOL0     H 8604   6.578   8.873   6.185 -2.5441  1.0187  3.0742
   64MOL0     H 8605   6.436   8.697   6.097 -0.1184  3.3101  0.2007
   64MOL0     H 8606   6.436   8.288   6.323 -0.3612 -0.0558 -0.4341
   64MOL0     H 8607   6.318   8.396   6.392 -0.6195 -2.9157  1.1526
   64MOL0     H 8608   6.175   8.239   6.330  1.7149  0.0428  1.8562
   64MOL0     H 8609   6.168   8.328   6.174  1.9669 -1.0389 -2.3542
   64MOL0     H 8610   6.333   8.074   6.242  0.3722 -0.4823 -1.3206
   64MOL0     H 8611   6.362   8.185   6.107 -0.4135  3.1578  0.9751
   64MOL0     H 8612   6.131   7.988   6.158 -3.2705  0.3111 -2.7874
   64MOL0     H 8613   6.101   8.146   6.080  1.1349  0.7751 -2.0952
   64MOL0     H 8614   6.326   7.958   5.987 -1.1303 -1.9233  0.3525
   64MOL0     H 8615   6.228   8.080   5.886 -0.6358 -2.1432 -2.0490
   64MOL0     H 8616   6.134   7.828   6.013  1.2183 -2.1362 -1.4569
   64MOL0     H 8617   6.040   7.918   5.897 -1.1779 -3.3283 -0.9094
   64MOL0     H 8618   6.246   7.857   5.740  1.3775 -1.5295 -0.5141
   64MOL0     H 8619   6.106   7.740   5.775  1.7148 -3.7920  1.1517
   64MOL0     H 8620   6.288   7.595   5.804  3.0008  2.5226 -4.2748
   64MOL0     H 8621   6.224   7.630   5.962 -0.3551 -0.6014 -0.3982
   64MOL0     H 8622   6.583   8.433   6.402 -2.7408 -0.2713 -0.3114
   64MOL0     H 8623   6.708   8.623   6.504  3.7118  3.2610 -2.4472
   64MOL0     H 8624   6.633   9.056   6.519 -2.8921  4.1361  1.0697
   64MOL0     H 8625   6.656   9.283   6.618  0.5722  1.5962 -0.3990
   64MOL0     H 8626   7.907   9.725   6.063 -0.8790  1.8014 -3.3803
   64MOL0     H 8627   8.135   9.743   6.015 -1.8850  0.6504  1.1658
   64MOL0     H 8628   8.478   9.442   5.799 -3.8426  3.4379 -0.1280
   64MOL0     H 8629   8.692   9.361   5.788 -4.3840  0.0885 -2.6261
   64MOL0     H 8630   9.018   9.678   5.866 -0.3918 -0.5980  1.9304
   64MOL0     H 8631   9.095   9.558   5.958  2.3529 -1.9563 -0.6512
   64MOL0     H 8632   9.185   9.590   5.708 -1.7069  1.2799 -1.0587
   64MOL0     H 8633   9.062   9.472   5.674  2.8140 -0.6148 -2.0381
   64MOL0     H 8634   9.222   9.316   5.720  1.3751 -1.5110  1.1340
   64MOL0     H 8635   9.128   9.337   5.870 -0.4529  1.7608  0.6735
   64MOL0     H 8636   9.364   9.302   5.915  0.5414  0.8493  2.8084
   64MOL0     H 8637   9.322   9.455   5.975  0.2125 -1.1184  0.8756
   64MOL0     H 8638   9.571   9.555   5.655  0.6836 -4.3817 -1.7366
   64MOL0     H 8639   8.838   9.712   6.013 -0.1239  0.4814  0.1588
   64MOL0     H 8640   8.605   9.802   5.994 -1.5029  0.8070  0.0942
   65MOL0     O 8641  11.165   9.845   2.445  0.0550  0.4438  0.4019
   65MOL0     C 8642  11.098   9.748   2.481 -0.0191 -0.0001  0.4566
   65MOL0     O 8643  10.976   9.755   2.526 -1.0339  0.3748 -0.6030
   65MOL0     C 8644  10.917   9.873   2.559  0.7931  0.6673 -0.3914
   65MOL0     C 8645  10.986   9.985   2.612  0.0962  0.2454 -0.2558
   65MOL0     C 8646  10.910  10.095   2.660  0.3175 -0.5655  0.1398
   65MOL0     C 8647  10.771  10.091   2.666 -1.2717  0.7119  0.0685
   65MOL0     O 8648  10.700  10.202   2.697  0.0031 -0.1252  0.0506
   65MOL0     C 8649  10.586  10.242   2.621 -0.8235 -0.1947 -0.5660
   65MOL0     C 8650  10.592  10.394   2.599 -0.5908  0.5720  0.8212
   65MOL0     C 8651  10.535  10.457   2.730 -0.0979 -0.1371  0.7883
   65MOL0     C 8652  10.498  10.603   2.710  0.3839 -0.7532  0.4898
   65MOL0     C 8653  10.438  10.657   2.839  0.3741 -1.1395 -0.2240
   65MOL0     C 8654  10.410  10.811   2.809 -0.7700  0.6957 -0.1232
   65MOL0     C 8655  10.543  10.893   2.814 -0.3470  0.4224 -0.4677
   65MOL0     C 8656  10.529  11.038   2.787  0.4554  0.2305 -0.0937
   65MOL0     N 8657  10.451  11.052   2.664  0.2231 -0.3881 -0.0037
   65MOL0     C 8658  10.499  11.019   2.547 -0.1175  0.3861 -0.1854
   65MOL0     C 8659  10.415  11.073   2.451  0.7748 -0.1364 -0.0210
   65MOL0     C 8660  10.441  11.065   2.305 -0.5773 -0.4315  0.4158
   65MOL0     C 8661  10.488  10.930   2.244 -0.1832  0.3826 -0.0290
   65MOL0     C 8662  10.544  10.934   2.105  0.0939 -0.6557 -0.0912
   65MOL0     C 8663  10.459  10.975   1.982  0.2053  0.1304  0.3986
   65MOL0     O 8664  10.334  10.897   1.988  0.0417 -0.2637  0.1650
   65MOL0     C 8665  10.234  10.951   1.905 -0.7986  0.5370  0.0633
   65MOL0     C 8666  10.203  10.877   1.788  0.0408 -0.1199 -0.1675
   65MOL0     C 8667  10.094  10.905   1.707  0.2643  0.7478  0.3154
   65MOL0     C 8668  10.091  10.841   1.575 -0.7526  0.2687 -0.1321
   65MOL0     C 8669  10.004  11.015   1.742  1.9323  0.8009  0.2397
   65MOL0     C 8670   9.903  11.078   1.645  0.1421 -0.1908  0.0341
   65MOL0     O 8671   9.775  11.092   1.689 -0.7027 -0.4949  0.7782
   65MOL0     C 8672   9.675  11.087   1.598 -0.3906  0.8412 -0.1783
   65MOL0     C 8673   9.672  11.034   1.461 -0.5596 -0.4535  0.3028
   65MOL0     C 8674   9.556  11.051   1.382 -1.0881  0.1108 -0.4239
   65MOL0     C 8675   9.444  11.119   1.438  0.9379 -0.8618 -0.7535
   65MOL0     O 8676   9.321  11.142   1.375 -0.3133  0.5102 -0.2554
   65MOL0     C 8677   9.314  11.098   1.242 -0.1404 -0.1170  0.9769
   65MOL0     C 8678   9.359  11.210   1.157 -0.4400  1.2191  0.7008
   65MOL0     C 8679   9.341  11.177   1.001 -0.6866 -0.0743 -0.2830
   65MOL0     C 8680   9.345  11.311   0.913  0.9091 -0.0127 -0.5742
   65MOL0     C 8681   9.304  11.266   0.774  0.0295  0.2954  0.0579
   65MOL0     C 8682   9.320  11.386   0.677  0.6880  0.5897  0.7559
   65MOL0     C 8683   9.267  11.352   0.535 -0.1178 -0.5682  0.0729
   65MOL0     C 8684   9.260  11.481   0.451  0.5823 -0.2787 -0.3506
   65MOL0    Cl 8685   9.170  11.599   0.521  0.1822 -0.1006  0.0164
   65MOL0     C 8686   9.445  11.159   1.573  0.4034  0.8988 -0.0278
   65MOL0     C 8687   9.566  11.148   1.644  0.5352  0.0243  0.0103
   65MOL0     O 8688   9.952  11.124   1.542 -0.2422  0.2848 -0.2119
   65MOL0     C 8689  10.042  11.095   1.847 -0.2800  0.2233 -0.1910
   65MOL0     C 8690  10.154  11.062   1.931 -0.1807 -0.8288 -0.7228
   65MOL0     N 8691  10.316  11.137   2.514 -0.5232  0.0692 -0.1523
   65MOL0     N 8692  10.345  11.126   2.642  0.5448 -0.0896  0.0601
   65MOL0     C 8693  10.708   9.974   2.640 -0.9328  0.1325  0.1471
   65MOL0     C 8694  10.775   9.869   2.576  0.1330 -0.5498 -0.1509
   65MOL0     C 8695  11.157   9.609   2.462  0.0195  0.5251 -0.4397
   65MOL0     C 8696  11.247   9.580   2.358  0.5192 -0.1549  0.2366
   65MOL0     C 8697  11.312   9.458   2.347  0.9651 -0.7341 -0.1165
   65MOL0     C 8698  11.277   9.351   2.426  0.1207 -1.0842 -0.0182
   65MOL0     O 8699  11.338   9.233   2.411 -0.4440 -0.4863  0.3898
   65MOL0     C 8700  11.335   9.129   2.509 -0.7418 -1.2033  0.1449
   65MOL0     C 8701  11.435   9.017   2.466  0.6874 -0.6993 -0.4680
   65MOL0     C 8702  11.376   8.935   2.346 -0.5997 -0.9075 -0.2023
   65MOL0     C 8703  11.473   8.846   2.267  0.2769 -0.4499 -0.8468
   65MOL0     C 8704  11.502   8.725   2.346 -0.1320 -0.7504  1.2759
   65MOL0     C 8705  11.527   8.639   2.424  1.0008 -0.4417 -0.0816
   65MOL0     C 8706  11.181   9.383   2.530 -0.2336  0.7132  0.7081
   65MOL0     C 8707  11.128   9.503   2.550 -0.7826  1.0863  0.4538
   65MOL0     H 8708  11.094   9.998   2.612  0.4859 -1.4783  4.0408
   65MOL0     H 8709  10.966  10.178   2.700  0.7029 -0.5994 -0.3208
   65MOL0     H 8710  10.571  10.186   2.528 -3.1560  2.2399 -1.7865
   65MOL0     H 8711  10.495  10.218   2.677  0.1555 -4.1299 -0.3145
   65MOL0     H 8712  10.695  10.418   2.570 -1.2643  1.9331 -0.6231
   65MOL0     H 8713  10.529  10.430   2.517  0.5342  2.8413  0.8502
   65MOL0     H 8714  10.449  10.400   2.766  0.0029 -1.6053 -1.1331
   65MOL0     H 8715  10.611  10.449   2.809  1.0415 -0.4232 -0.3012
   65MOL0     H 8716  10.594  10.650   2.688  0.8453 -2.8136 -2.5082
   65MOL0     H 8717  10.425  10.615   2.630  0.3958 -1.0897  0.4267
   65MOL0     H 8718  10.342  10.613   2.864 -0.0146 -0.0080  0.3443
   65MOL0     H 8719  10.504  10.643   2.925  1.5369  3.0433 -0.2078
   65MOL0     H 8720  10.363  10.819   2.710  0.0080 -0.3448 -0.5886
   65MOL0     H 8721  10.343  10.852   2.885  0.9998  1.1462  1.2339
   65MOL0     H 8722  10.585  10.884   2.915 -0.3367 -0.8726 -0.5649
   65MOL0     H 8723  10.612  10.847   2.743  0.6291 -0.4085  0.9565
   65MOL0     H 8724  10.624  11.088   2.771  0.8243 -1.0843 -2.6300
   65MOL0     H 8725  10.489  11.086   2.877  2.4572  2.1284 -0.1498
   65MOL0     H 8726  10.590  10.964   2.529 -0.1722  0.7901 -1.8414
   65MOL0     H 8727  10.359  11.104   2.244  0.8856  0.1952 -1.2526
   65MOL0     H 8728  10.513  11.145   2.283 -3.3439  1.1057 -4.6806
   65MOL0     H 8729  10.395  10.871   2.241 -0.3530  0.6775 -1.7770
   65MOL0     H 8730  10.551  10.870   2.311 -1.4174 -0.0330  0.7893
   65MOL0     H 8731  10.556  10.827   2.085  1.8497 -0.3874 -0.6067
   65MOL0     H 8732  10.636  10.993   2.115  1.0731 -1.9715 -1.1121
   65MOL0     H 8733  10.510  10.941   1.891 -2.0182 -1.0696 -0.4858
   65MOL0     H 8734  10.445  11.083   1.975  0.9636  0.1476 -1.2418
   65MOL0     H 8735  10.259  10.788   1.765 -1.4099 -1.5296  1.4244
   65MOL0     H 8736  10.092  10.733   1.586 -1.0484 -0.2157 -3.6611
   65MOL0     H 8737   9.991  10.851   1.533 -1.4524  3.5238  1.9508
   65MOL0     H 8738  10.169  10.877   1.507  1.4119  1.3270  2.7075
   65MOL0     H 8739   9.758  10.991   1.411 -1.2142 -0.8003 -0.5410
   65MOL0     H 8740   9.556  11.025   1.277  2.6161 -0.4880 -0.4013
   65MOL0     H 8741   9.367  11.010   1.204  0.8795  1.6936 -2.2283
   65MOL0     H 8742   9.212  11.070   1.214 -0.8832  4.0461 -1.2639
   65MOL0     H 8743   9.293  11.293   1.184 -2.6726 -0.0215 -0.6630
   65MOL0     H 8744   9.464  11.237   1.173 -0.6625  3.0913 -0.6800
   65MOL0     H 8745   9.237  11.152   0.982 -0.9735  2.0173 -1.8227
   65MOL0     H 8746   9.403  11.093   0.967  1.6982 -0.0171  3.3495
   65MOL0     H 8747   9.256  11.371   0.934 -1.6397 -3.5380 -0.5090
   65MOL0     H 8748   9.445  11.354   0.921  1.3615 -1.1560  0.2029
   65MOL0     H 8749   9.205  11.222   0.762  0.2150  0.6640 -4.8748
   65MOL0     H 8750   9.376  11.191   0.738  0.3754 -0.1428  1.6127
   65MOL0     H 8751   9.263  11.469   0.721  1.5078  1.2218  0.6489
   65MOL0     H 8752   9.424  11.416   0.664  0.7491  1.1594  2.2992
   65MOL0     H 8753   9.171  11.300   0.537 -0.9395  0.8812  0.0502
   65MOL0     H 8754   9.329  11.275   0.489  1.7707  0.5170  0.6812
   65MOL0     H 8755   9.220  11.463   0.350 -0.8188 -1.0969  0.3324
   65MOL0     H 8756   9.359  11.525   0.438  1.2842 -0.8568  2.5063
   65MOL0     H 8757   9.356  11.206   1.613  0.8127  2.1761 -0.5555
   65MOL0     H 8758   9.575  11.175   1.749 -0.7821 -2.5005  0.8531
   65MOL0     H 8759   9.999  11.194   1.862  3.0605  1.4469  2.5788
   65MOL0     H 8760  10.171  11.126   2.017 -0.4839 -1.1206 -0.4392
   65MOL0     H 8761  10.600   9.980   2.651 -0.9251 -1.3897  1.4964
   65MOL0     H 8762  10.749   9.767   2.548 -0.1863 -1.5365  3.2624
   65MOL0     H 8763  11.277   9.661   2.292  0.0595  1.2826  1.7146
   65MOL0     H 8764  11.383   9.435   2.268 -0.7923 -1.9802 -1.4245
   65MOL0     H 8765  11.371   9.174   2.602  1.2527 -1.2536 -0.5608
   65MOL0     H 8766  11.237   9.081   2.518 -0.7174 -2.7892 -5.0011
   65MOL0     H 8767  11.436   8.955   2.556  1.0814  2.2134  1.6859
   65MOL0     H 8768  11.533   9.066   2.457  0.3339  0.6435  2.0394
   65MOL0     H 8769  11.319   9.005   2.284 -0.9923 -0.1065  1.0115
   65MOL0     H 8770  11.289   8.880   2.381 -1.2566  0.4594  0.4100
   65MOL0     H 8771  11.560   8.904   2.235 -0.5469  1.3585  0.0587
   65MOL0     H 8772  11.432   8.817   2.169 -1.1784  0.4958 -0.5445
   65MOL0     H 8773  11.561   8.552   2.476  0.6075 -2.0080 -2.2777
   65MOL0     H 8774  11.147   9.304   2.595 -0.0849 -0.2663 -0.3753
   65MOL0     H 8775  11.062   9.516   2.635 -2.3531 -1.5522 -0.2391
   66MOL0     O 8776   9.757   5.354   6.161  0.0198  0.7777  0.5784
   66MOL0     C 8777   9.734   5.456   6.104  0.0999 -0.1179 -0.0139
   66MOL0     O 8778   9.814   5.520   6.008  0.2772  0.8024 -0.6170
   66MOL0     C 8779   9.923   5.464   5.940  0.0019 -0.0396 -0.5818
   66MOL0     C 8780   9.934   5.324   5.911 -0.1177  0.5128 -0.0029
   66MOL0     C 8781  10.044   5.270   5.848 -0.1177 -0.1539  0.2575
   66MOL0     C 8782  10.149   5.351   5.797  0.4238 -0.1986 -0.3475
   66MOL0     O 8783  10.261   5.310   5.734  0.1442 -0.3422  0.5779
   66MOL0     C 8784  10.364   5.261   5.822 -0.2816  0.5199 -0.1514
   66MOL0     C 8785  10.502   5.276   5.747  0.5735  0.3042 -0.2205
   66MOL0     C 8786  10.529   5.165   5.644 -0.7957  0.1938 -1.0258
   66MOL0     C 8787  10.684   5.128   5.652 -0.0006 -1.2049 -0.7753
   66MOL0     C 8788  10.709   5.009   5.574 -0.6602  0.3323 -0.0295
   66MOL0     C 8789  10.685   5.029   5.421  0.1831 -0.3705 -0.1569
   66MOL0     C 8790  10.754   4.913   5.341  0.4311  0.2931  0.4409
   66MOL0     C 8791  10.743   4.909   5.188 -0.1590  0.4753 -0.3329
   66MOL0     N 8792  10.604   4.936   5.148  0.5278 -0.6038  0.2396
   66MOL0     C 8793  10.524   4.833   5.102 -0.9240  1.5070  0.0131
   66MOL0     C 8794  10.420   4.890   5.038 -0.0868 -0.7003 -0.3811
   66MOL0     C 8795  10.290   4.822   4.997  0.9606 -0.0697 -0.0218
   66MOL0     C 8796  10.154   4.881   5.062 -0.9015  0.4638  0.1656
   66MOL0     C 8797  10.033   4.806   5.005  0.3348  0.4542  0.0141
   66MOL0     C 8798   9.955   4.866   4.889  0.4228 -0.1941 -0.1857
   66MOL0     O 8799  10.045   4.852   4.769 -0.2465 -0.5109 -0.2314
   66MOL0     C 8800  10.034   4.735   4.698  0.8266  0.5674 -0.1756
   66MOL0     C 8801   9.957   4.616   4.728  0.4951 -1.0498 -0.0574
   66MOL0     C 8802   9.955   4.502   4.641  0.3041 -0.2336 -0.4525
   66MOL0     C 8803   9.904   4.377   4.696  0.1109 -0.4879  0.1024
   66MOL0     C 8804  10.020   4.512   4.516 -0.1929 -0.8702 -0.3657
   66MOL0     C 8805  10.044   4.398   4.416  0.5470  1.0162 -0.7882
   66MOL0     O 8806  10.047   4.431   4.282 -0.1237 -0.0095  0.5024
   66MOL0     C 8807  10.087   4.335   4.191 -0.5342 -0.2015 -0.7867
   66MOL0     C 8808  10.220   4.290   4.199  0.5429 -0.0062  0.0938
   66MOL0     C 8809  10.269   4.201   4.102 -0.9495 -0.0081  0.2794
   66MOL0     C 8810  10.185   4.153   3.999  0.4824  0.6718 -0.1089
   66MOL0     O 8811  10.210   4.069   3.892  0.4173  0.7878 -0.1579
   66MOL0     C 8812  10.327   3.985   3.902 -0.0246 -1.3211  0.0382
   66MOL0     C 8813  10.322   3.861   3.982  0.7167 -0.1575  0.5095
   66MOL0     C 8814  10.234   3.748   3.917 -0.3046  0.3745  0.3789
   66MOL0     C 8815  10.089   3.783   3.878  0.3057  0.7700  0.2519
   66MOL0     C 8816  10.016   3.668   3.823  0.0991 -0.5740  0.2759
   66MOL0     C 8817  10.068   3.613   3.695  0.3332 -0.4107  0.2389
   66MOL0     C 8818   9.990   3.490   3.641 -0.2541 -0.3855 -1.0841
   66MOL0     C 8819  10.021   3.464   3.499 -0.0022 -0.5730  0.4750
   66MOL0    Cl 8820   9.937   3.307   3.449 -0.1455  0.2496  0.1290
   66MOL0     C 8821  10.058   4.211   3.990 -0.3067  0.5548  1.1536
   66MOL0     C 8822  10.008   4.297   4.083  0.2408  0.8035 -0.3734
   66MOL0     O 8823  10.064   4.284   4.463 -0.4378  0.1393  0.2673
   66MOL0     C 8824  10.083   4.634   4.490 -0.0599  0.3200  0.2967
   66MOL0     C 8825  10.101   4.735   4.579 -0.2173 -0.3833 -1.0089
   66MOL0     N 8826  10.435   5.025   5.058 -0.9842 -1.0644  0.1713
   66MOL0     N 8827  10.555   5.055   5.106 -0.3003 -0.5201  0.0852
   66MOL0     C 8828  10.123   5.486   5.808  0.3568  0.1261  0.3392
   66MOL0     C 8829  10.015   5.545   5.880  1.2715 -0.1919  0.2652
   66MOL0     C 8830   9.611   5.535   6.148  0.2459  1.2581 -0.5506
   66MOL0     C 8831   9.514   5.475   6.226 -0.1012  0.1914  0.5327
   66MOL0     C 8832   9.397   5.549   6.246  0.2765  0.4792 -0.1104
   66MOL0     C 8833   9.376   5.684   6.196  0.6468  0.2572  0.2368
   66MOL0     O 8834   9.256   5.738   6.238 -1.1199 -0.3532 -0.3279
   66MOL0     C 8835   9.232   5.882   6.239  0.4020  0.4275  0.3330
   66MOL0     C 8836   9.315   5.948   6.348  0.7116 -0.5023 -0.5615
   66MOL0     C 8837   9.274   5.898   6.486 -0.3874 -0.2286 -0.7610
   66MOL0     C 8838   9.164   5.973   6.552  0.1449 -0.4148 -0.0409
   66MOL0     C 8839   9.194   6.110   6.585  0.0043 -0.2944  0.1501
   66MOL0     C 8840   9.213   6.222   6.615 -0.3705  0.0092 -0.6073
   66MOL0     C 8841   9.479   5.741   6.124  0.9050 -0.2486  0.1771
   66MOL0     C 8842   9.594   5.671   6.105 -0.1793  0.4291 -0.6460
   66MOL0     H 8843   9.845   5.271   5.941 -0.2559  0.5185 -0.3905
   66MOL0     H 8844  10.052   5.164   5.829  3.8040 -0.1513  1.0176
   66MOL0     H 8845  10.367   5.333   5.905  0.0618 -0.0694  0.3497
   66MOL0     H 8846  10.355   5.155   5.845 -1.0019  0.8792  1.3902
   66MOL0     H 8847  10.490   5.367   5.688  0.8078  1.0659  0.8807
   66MOL0     H 8848  10.586   5.291   5.816  0.2393  1.8787 -0.1235
   66MOL0     H 8849  10.476   5.075   5.677 -1.1630  0.6023 -0.4680
   66MOL0     H 8850  10.492   5.193   5.544 -2.3196 -2.3419 -1.2513
   66MOL0     H 8851  10.751   5.206   5.615 -0.5907 -0.4896 -0.3590
   66MOL0     H 8852  10.715   5.107   5.755  1.4518  0.1066 -0.9156
   66MOL0     H 8853  10.812   4.980   5.595 -0.6529  1.3653  1.5328
   66MOL0     H 8854  10.645   4.926   5.606 -1.3000  0.1060 -1.8183
   66MOL0     H 8855  10.581   5.047   5.392 -0.2499  0.8155  1.9528
   66MOL0     H 8856  10.737   5.121   5.394  0.2321  0.6307  3.0543
   66MOL0     H 8857  10.860   4.900   5.363  0.9130 -3.2301 -3.0389
   66MOL0     H 8858  10.706   4.818   5.367  3.7655 -2.5866 -2.8686
   66MOL0     H 8859  10.775   4.818   5.136 -3.0768 -1.2727  0.6962
   66MOL0     H 8860  10.811   4.988   5.154  1.4993  0.5209  2.8010
   66MOL0     H 8861  10.541   4.729   5.128  1.0579  1.5386 -1.0127
   66MOL0     H 8862  10.283   4.838   4.889 -2.9854 -0.3148  0.0414
   66MOL0     H 8863  10.296   4.718   5.029  0.6835 -0.0757  0.0130
   66MOL0     H 8864  10.151   4.990   5.051 -0.0299  0.5297  0.5097
   66MOL0     H 8865  10.158   4.867   5.170 -0.9137  0.8875  0.2230
   66MOL0     H 8866   9.959   4.807   5.085  1.4877  0.3529  1.0994
   66MOL0     H 8867  10.063   4.704   4.981  0.8781  0.7318 -0.5375
   66MOL0     H 8868   9.932   4.968   4.920 -1.0476 -0.0662 -1.5223
   66MOL0     H 8869   9.858   4.817   4.872  0.2768 -0.2127  0.6548
   66MOL0     H 8870   9.904   4.615   4.822 -1.7104  1.4594 -1.1398
   66MOL0     H 8871   9.903   4.295   4.624 -1.6085 -0.2006 -0.2497
   66MOL0     H 8872   9.967   4.356   4.783  2.1358 -1.3252 -1.4675
   66MOL0     H 8873   9.798   4.396   4.715  0.1033 -0.0476 -0.3500
   66MOL0     H 8874  10.284   4.316   4.283 -2.7384 -1.4493  3.3163
   66MOL0     H 8875  10.376   4.183   4.105 -0.7011  1.1434 -0.9781
   66MOL0     H 8876  10.344   3.959   3.798  3.5290 -1.3700  0.4967
   66MOL0     H 8877  10.412   4.041   3.944  1.2289 -2.1769 -1.2809
   66MOL0     H 8878  10.424   3.826   4.003  0.6705  0.2096  1.3966
   66MOL0     H 8879  10.271   3.889   4.075 -1.5231  1.9111 -1.2385
   66MOL0     H 8880  10.228   3.653   3.972 -1.5752 -0.3491 -0.9329
   66MOL0     H 8881  10.290   3.733   3.824  0.3713 -0.9696  0.9677
   66MOL0     H 8882  10.035   3.808   3.970  0.0164  0.7959  0.0783
   66MOL0     H 8883  10.085   3.863   3.803  0.7353  0.1247 -0.4724
   66MOL0     H 8884   9.913   3.705   3.816 -0.0243 -0.6394  1.5398
   66MOL0     H 8885  10.015   3.588   3.896 -0.9283 -0.7007  0.1316
   66MOL0     H 8886  10.054   3.692   3.620 -0.8891  2.4815  3.2251
   66MOL0     H 8887  10.176   3.596   3.691  0.1169 -1.6079 -1.8078
   66MOL0     H 8888   9.881   3.487   3.653  0.0091  0.1147  2.6969
   66MOL0     H 8889  10.022   3.407   3.705 -1.3499  1.2633  1.8312
   66MOL0     H 8890  10.129   3.459   3.480  0.2080 -0.1604  1.4733
   66MOL0     H 8891   9.978   3.549   3.446  2.0978 -0.6637 -1.5416
   66MOL0     H 8892   9.998   4.170   3.909  0.6368 -0.3103  0.8716
   66MOL0     H 8893   9.914   4.350   4.073 -1.0107 -1.2975 -0.2304
   66MOL0     H 8894  10.126   4.654   4.393  5.6314 -1.5722  2.0148
   66MOL0     H 8895  10.174   4.815   4.573 -1.9363  1.2983 -0.5262
   66MOL0     H 8896  10.192   5.556   5.760 -0.1351  1.1818  1.1266
   66MOL0     H 8897   9.995   5.651   5.896 -1.0184 -0.6120  0.3977
   66MOL0     H 8898   9.528   5.382   6.281  0.0881 -0.2009 -0.1748
   66MOL0     H 8899   9.330   5.494   6.311  2.7281 -2.6952 -0.0198
   66MOL0     H 8900   9.255   5.927   6.142 -1.5505 -0.7092 -0.7215
   66MOL0     H 8901   9.128   5.911   6.257 -0.0020 -1.1429  0.6933
   66MOL0     H 8902   9.317   6.057   6.334 -2.2761  0.1736  2.9022
   66MOL0     H 8903   9.416   5.906   6.340  0.1709 -1.6614 -1.6779
   66MOL0     H 8904   9.356   5.902   6.559 -0.1839 -1.4687 -0.9013
   66MOL0     H 8905   9.244   5.794   6.473  3.5828 -1.8410  1.3813
   66MOL0     H 8906   9.145   5.920   6.645  0.9444 -0.7138 -0.0449
   66MOL0     H 8907   9.077   5.962   6.486  0.2898 -0.0035 -0.3083
   66MOL0     H 8908   9.215   6.326   6.643  0.1790 -0.7032  2.2931
   66MOL0     H 8909   9.461   5.847   6.107 -2.0528 -0.5306  0.8624
   66MOL0     H 8910   9.665   5.731   6.049 -1.9814  1.7756 -1.5963
   67MOL0     O 8911  10.555   3.487   4.457  0.6725 -0.1937  0.4916
   67MOL0     C 8912  10.571   3.513   4.574  0.0729 -0.1067 -0.1900
   67MOL0     O 8913  10.480   3.517   4.677  0.6016  0.7502  0.1548
   67MOL0     C 8914  10.348   3.469   4.675  0.1522 -0.6252 -0.2641
   67MOL0     C 8915  10.264   3.504   4.778  0.6368 -0.1303 -0.2756
   67MOL0     C 8916  10.127   3.468   4.777 -0.4862 -0.3527  0.7966
   67MOL0     C 8917  10.077   3.376   4.683 -0.1651  0.0210  0.6556
   67MOL0     O 8918   9.944   3.352   4.694  0.1262 -1.2155  0.3909
   67MOL0     C 8919   9.876   3.293   4.584 -0.1374  0.3331  0.3077
   67MOL0     C 8920   9.733   3.263   4.641 -0.2365  0.0266  0.5810
   67MOL0     C 8921   9.646   3.206   4.528 -0.4070 -0.5373  0.2898
   67MOL0     C 8922   9.526   3.132   4.596  0.0134  0.6154 -0.2619
   67MOL0     C 8923   9.416   3.094   4.498 -0.3902 -0.0658 -0.7778
   67MOL0     C 8924   9.299   3.028   4.576  0.0037 -0.2208 -0.0169
   67MOL0     C 8925   9.208   2.962   4.472 -0.0008 -0.2540  0.0137
   67MOL0     C 8926   9.122   3.059   4.391  0.2809  0.0346  0.9773
   67MOL0     N 8927   9.015   3.008   4.309  0.4745  0.2813  0.1650
   67MOL0     C 8928   8.888   3.063   4.315  0.1288 -0.8770  0.2580
   67MOL0     C 8929   8.811   2.965   4.279  1.0475 -1.0100  0.6633
   67MOL0     C 8930   8.656   2.963   4.270  0.2592  0.5133  0.6563
   67MOL0     C 8931   8.613   3.016   4.132  0.3239  0.0659  0.6895
   67MOL0     C 8932   8.460   3.023   4.120 -0.1462  0.1351  0.0367
   67MOL0     C 8933   8.414   3.069   3.983  0.0429 -0.3750 -0.3806
   67MOL0     O 8934   8.271   3.075   3.986 -0.5242  0.0493  1.4369
   67MOL0     C 8935   8.209   3.106   3.868  0.6743  0.3323  0.0312
   67MOL0     C 8936   8.087   3.037   3.854  0.4463  0.0526 -0.4601
   67MOL0     C 8937   7.993   3.063   3.744  0.2339  1.2506 -0.6980
   67MOL0     C 8938   7.856   3.002   3.749  0.2157  0.1455  1.0117
   67MOL0     C 8939   8.041   3.151   3.643 -0.6401  0.2191  0.7351
   67MOL0     C 8940   7.977   3.163   3.510 -1.1588 -0.5320  0.0666
   67MOL0     O 8941   8.026   3.265   3.419  0.2997  0.0894 -0.0964
   67MOL0     C 8942   7.958   3.292   3.296 -0.7342  0.9232  0.6457
   67MOL0     C 8943   8.011   3.242   3.182 -0.3899  0.4932 -0.5261
   67MOL0     C 8944   7.941   3.255   3.061 -0.0526 -0.3066  0.1282
   67MOL0     C 8945   7.834   3.335   3.051  0.9090  0.0219  0.0960
   67MOL0     O 8946   7.779   3.350   2.925 -0.1310  0.0244  0.1085
   67MOL0     C 8947   7.635   3.374   2.910 -0.3682  0.7207 -0.0780
   67MOL0     C 8948   7.623   3.459   2.779  0.2032  0.1826 -0.5415
   67MOL0     C 8949   7.485   3.470   2.724  0.0128 -0.1046 -0.2425
   67MOL0     C 8950   7.499   3.592   2.624 -0.1505 -0.5333 -0.2896
   67MOL0     C 8951   7.404   3.597   2.502  0.6450  0.8446  0.1269
   67MOL0     C 8952   7.255   3.590   2.550 -0.8744  0.6617 -0.8912
   67MOL0     C 8953   7.159   3.593   2.429 -0.2473  1.2384 -0.2140
   67MOL0     C 8954   7.017   3.582   2.483  0.0432 -0.3264  0.2680
   67MOL0    Cl 8955   6.921   3.518   2.353 -0.2561 -0.2690  0.0483
   67MOL0     C 8956   7.784   3.391   3.165 -0.1256  0.0425 -0.6203
   67MOL0     C 8957   7.843   3.365   3.293 -0.0631 -0.5727  0.2382
   67MOL0     O 8958   7.884   3.095   3.489  0.8580  0.2262 -0.1044
   67MOL0     C 8959   8.166   3.211   3.651  1.0075 -0.3129 -0.5955
   67MOL0     C 8960   8.238   3.203   3.770  0.2701 -0.0538 -0.3665
   67MOL0     N 8961   8.877   2.846   4.247 -0.2412 -0.3131 -1.1999
   67MOL0     N 8962   9.007   2.874   4.269 -0.6859 -0.6168 -0.1376
   67MOL0     C 8963  10.169   3.329   4.578 -0.2978 -0.2716 -0.0876
   67MOL0     C 8964  10.303   3.378   4.584  0.3613  0.2857  0.0573
   67MOL0     C 8965  10.703   3.570   4.617 -0.4422  0.9965 -0.5712
   67MOL0     C 8966  10.722   3.618   4.751  0.3369  0.3455  0.0512
   67MOL0     C 8967  10.849   3.657   4.800  0.2229  0.7009  0.3273
   67MOL0     C 8968  10.957   3.653   4.713  0.6896 -0.0864  0.6830
   67MOL0     O 8969  11.076   3.703   4.752  0.9889 -0.5214  0.3350
   67MOL0     C 8970  11.106   3.747   4.881 -0.5607  0.5366 -0.2363
   67MOL0     C 8971  11.239   3.824   4.877 -0.3587  0.2436 -0.6045
   67MOL0     C 8972  11.289   3.871   5.018 -0.4847  0.6205  0.1907
   67MOL0     C 8973  11.414   3.963   5.009  1.0295 -0.1277  0.5167
   67MOL0     C 8974  11.364   4.093   4.954  0.3995  0.8092  0.1982
   67MOL0     C 8975  11.299   4.189   4.906 -0.4662  1.3308  0.4346
   67MOL0     C 8976  10.950   3.591   4.589 -0.0132 -0.2904  0.0156
   67MOL0     C 8977  10.822   3.542   4.544 -0.2335 -0.3560 -0.5135
   67MOL0     H 8978  10.302   3.576   4.850  1.9682 -2.4581  1.4849
   67MOL0     H 8979  10.068   3.515   4.854  0.8307  1.1152  0.9637
   67MOL0     H 8980   9.872   3.366   4.503 -0.0344 -0.2176 -0.2083
   67MOL0     H 8981   9.914   3.196   4.550 -2.1926 -0.2285 -0.5102
   67MOL0     H 8982   9.739   3.182   4.714 -1.0294 -1.2304 -0.6933
   67MOL0     H 8983   9.694   3.355   4.686 -1.4041 -0.3251  0.3267
   67MOL0     H 8984   9.615   3.283   4.456  2.1037 -0.5359 -0.8950
   67MOL0     H 8985   9.685   3.126   4.464 -2.0786 -0.8803 -0.3664
   67MOL0     H 8986   9.556   3.040   4.649 -3.0003  0.8775  2.1562
   67MOL0     H 8987   9.480   3.199   4.669  0.0985 -0.1911  0.5552
   67MOL0     H 8988   9.378   3.180   4.443  0.9614  1.1491  0.1140
   67MOL0     H 8989   9.461   3.039   4.415 -2.5665  0.1539 -2.1843
   67MOL0     H 8990   9.337   2.954   4.646 -1.9686 -2.5066 -1.2252
   67MOL0     H 8991   9.245   3.102   4.636  3.1722  0.0730  2.7934
   67MOL0     H 8992   9.271   2.912   4.398 -1.9680 -1.6488 -0.7862
   67MOL0     H 8993   9.148   2.884   4.520 -0.7508  1.1807  1.5167
   67MOL0     H 8994   9.186   3.108   4.317 -0.5738 -0.3736 -0.0664
   67MOL0     H 8995   9.092   3.136   4.463  0.5989 -0.6719  1.8807
   67MOL0     H 8996   8.854   3.163   4.343  0.1075 -0.5348 -0.9303
   67MOL0     H 8997   8.629   2.858   4.285  0.8319  0.0486 -1.2259
   67MOL0     H 8998   8.611   3.034   4.341  0.0748 -0.3796  1.4511
   67MOL0     H 8999   8.650   2.951   4.052 -2.4496 -1.3149  0.3803
   67MOL0     H 9000   8.657   3.116   4.125 -2.7130  1.4400 -1.1539
   67MOL0     H 9001   8.431   3.100   4.192 -1.1030  1.0877 -1.3133
   67MOL0     H 9002   8.418   2.926   4.150 -1.6057  1.3140  2.0647
   67MOL0     H 9003   8.455   2.990   3.920  2.0024 -0.2612  0.6718
   67MOL0     H 9004   8.454   3.169   3.961 -2.6897  0.3618 -2.4593
   67MOL0     H 9005   8.070   2.958   3.926  2.3556  0.5663  0.6179
   67MOL0     H 9006   7.831   2.924   3.677 -4.1837  2.2289 -0.0742
   67MOL0     H 9007   7.832   2.954   3.844 -0.3515 -2.5058 -0.3795
   67MOL0     H 9008   7.776   3.075   3.730 -0.4376 -0.2260  2.2684
   67MOL0     H 9009   8.091   3.170   3.196 -1.9410 -1.2993 -0.4203
   67MOL0     H 9010   7.974   3.204   2.970  0.4734  0.1446  0.0602
   67MOL0     H 9011   7.583   3.284   2.875 -0.7108 -0.3013  2.8171
   67MOL0     H 9012   7.583   3.403   3.001  0.1565 -2.5393  1.4002
   67MOL0     H 9013   7.666   3.557   2.805 -0.8964  0.9203 -1.4074
   67MOL0     H 9014   7.687   3.417   2.701  0.0802 -2.0034  0.4788
   67MOL0     H 9015   7.405   3.486   2.798 -2.1168 -0.2319 -2.3837
   67MOL0     H 9016   7.457   3.374   2.681  2.1992 -0.4940 -0.9087
   67MOL0     H 9017   7.495   3.685   2.681 -0.1156 -1.2646  0.9479
   67MOL0     H 9018   7.597   3.596   2.575 -0.8638 -2.2993 -1.9951
   67MOL0     H 9019   7.422   3.521   2.426 -0.6810 -2.4909  2.8744
   67MOL0     H 9020   7.421   3.694   2.454  1.1683  0.9629  0.5343
   67MOL0     H 9021   7.236   3.495   2.601  2.6204  0.1571 -0.3271
   67MOL0     H 9022   7.236   3.673   2.620 -4.2435 -0.8745  0.2348
   67MOL0     H 9023   7.192   3.512   2.364  1.7224  1.7358  0.1131
   67MOL0     H 9024   7.166   3.685   2.370  1.9197  0.0605 -1.9274
   67MOL0     H 9025   6.991   3.678   2.530  2.9653  0.3393  0.7382
   67MOL0     H 9026   7.011   3.508   2.564  6.0443  0.8026  2.2612
   67MOL0     H 9027   7.698   3.457   3.159  0.1906  0.3559 -2.5717
   67MOL0     H 9028   7.797   3.408   3.381 -1.9810  0.2776 -1.1204
   67MOL0     H 9029   8.195   3.277   3.570 -1.2577  2.3381  0.5486
   67MOL0     H 9030   8.321   3.269   3.792  0.3321 -0.5338  0.9142
   67MOL0     H 9031  10.124   3.257   4.509  0.6988 -0.6469 -0.3644
   67MOL0     H 9032  10.375   3.340   4.511  0.4454  2.1806 -0.9157
   67MOL0     H 9033  10.640   3.624   4.823 -0.5835 -0.8654 -0.8561
   67MOL0     H 9034  10.870   3.678   4.904  0.5296 -3.4065  1.2933
   67MOL0     H 9035  11.029   3.810   4.926 -1.2436 -0.1563 -0.4229
   67MOL0     H 9036  11.107   3.661   4.948 -2.9109 -0.4444 -1.3609
   67MOL0     H 9037  11.230   3.905   4.804  0.6811 -1.2006 -2.4322
   67MOL0     H 9038  11.315   3.752   4.847 -1.0792 -0.4471 -0.7927
   67MOL0     H 9039  11.319   3.784   5.078  2.0016  2.6173  2.0666
   67MOL0     H 9040  11.220   3.928   5.081  0.4221  1.4748  0.4327
   67MOL0     H 9041  11.495   3.924   4.946 -0.1367  0.5725 -1.5290
   67MOL0     H 9042  11.448   3.989   5.109 -0.5055  0.5295  0.8889
   67MOL0     H 9043  11.242   4.271   4.868  2.7666  4.7361  2.2699
   67MOL0     H 9044  11.038   3.582   4.526  0.5245  1.5694  0.4700
   67MOL0     H 9045  10.811   3.519   4.438 -0.4528  3.0564 -1.3220
   68MOL0     O 9046   2.472   9.009   0.559  0.1117  0.8236  0.3773
   68MOL0     C 9047   2.458   8.887   0.545 -0.2811 -0.1916  0.1102
   68MOL0     O 9048   2.354   8.820   0.491  0.4204 -0.6232  0.3812
   68MOL0     C 9049   2.233   8.874   0.475  0.8095  0.2284 -0.6804
   68MOL0     C 9050   2.172   8.942   0.586  0.8030  0.9925  0.4942
   68MOL0     C 9051   2.030   8.954   0.595  0.4442 -0.7221  0.0757
   68MOL0     C 9052   1.952   8.904   0.495  0.2919 -0.3033 -0.4706
   68MOL0     O 9053   1.815   8.909   0.489 -0.1541 -0.1432 -0.5257
   68MOL0     C 9054   1.735   8.986   0.576  0.2905  0.1845 -0.1631
   68MOL0     C 9055   1.585   8.983   0.537  0.5782 -0.9112 -0.0344
   68MOL0     C 9056   1.507   9.044   0.653 -0.1600 -0.3369 -0.2388
   68MOL0     C 9057   1.361   9.040   0.611  0.3289  0.9998  0.1123
   68MOL0     C 9058   1.268   9.101   0.722  0.6702  0.1856 -0.2300
   68MOL0     C 9059   1.119   9.083   0.688 -0.7123 -0.6264 -0.4088
   68MOL0     C 9060   1.039   9.110   0.813  0.0591 -0.4129  0.3200
   68MOL0     C 9061   0.886   9.128   0.782  0.5380  0.0510 -1.0304
   68MOL0     N 9062   0.802   9.171   0.890  0.1119 -0.2360  0.1040
   68MOL0     C 9063   0.831   9.274   0.979  0.2776 -0.8945 -0.1712
   68MOL0     C 9064   0.720   9.283   1.055 -0.3078 -0.5393 -0.4000
   68MOL0     C 9065   0.709   9.374   1.184 -0.1653  0.7026  0.8217
   68MOL0     C 9066   0.561   9.420   1.195 -0.8160 -0.3858 -0.7625
   68MOL0     C 9067   0.501   9.343   1.309 -0.4451  0.2516  0.4225
   68MOL0     C 9068   0.359   9.375   1.344  0.4219  0.4660  0.4537
   68MOL0     O 9069   0.323   9.503   1.416 -0.3667  0.2462  0.5961
   68MOL0     C 9070   0.194   9.527   1.438  0.4539 -1.2816  0.5895
   68MOL0     C 9071   0.084   9.440   1.425  0.3045 -0.2164 -1.0123
   68MOL0     C 9072  -0.045   9.490   1.436 -0.1578 -0.3032  0.0123
   68MOL0     C 9073  -0.145   9.384   1.399  0.1452 -0.4454  0.0004
   68MOL0     C 9074  -0.065   9.630   1.453  0.4230 -0.3671 -0.0240
   68MOL0     C 9075  -0.188   9.708   1.463 -1.3180 -0.3197  0.6560
   68MOL0     O 9076  -0.185   9.830   1.529 -0.2140 -0.4476 -0.6090
   68MOL0     C 9077  -0.314   9.891   1.553  0.5077 -0.0364 -0.8327
   68MOL0     C 9078  -0.421   9.811   1.608 -0.1631 -0.6477 -0.2506
   68MOL0     C 9079  -0.543   9.863   1.633 -0.3504 -0.1636 -0.1130
   68MOL0     C 9080  -0.564  10.000   1.603 -0.1456  0.1793  0.0798
   68MOL0     O 9081  -0.688  10.045   1.638  0.1755  0.5885  0.4145
   68MOL0     C 9082  -0.756  10.118   1.545  0.3885  0.1693  0.0294
   68MOL0     C 9083  -0.900  10.059   1.540 -0.2699 -0.2859 -0.1991
   68MOL0     C 9084  -0.982  10.135   1.441  0.7756 -0.1636 -0.1910
   68MOL0     C 9085  -1.044  10.039   1.335  0.1018 -0.1200  0.1714
   68MOL0     C 9086  -1.129  10.119   1.235  1.0764 -0.0011 -0.0261
   68MOL0     C 9087  -1.041  10.236   1.163 -0.5831 -0.2038 -1.2637
   68MOL0     C 9088  -1.123  10.280   1.039  0.6662  0.0009  0.5806
   68MOL0     C 9089  -1.115  10.176   0.927 -0.2593 -0.2575  0.2920
   68MOL0    Cl 9090  -1.199  10.224   0.781  0.4250  0.5431 -0.1111
   68MOL0     C 9091  -0.472  10.071   1.528 -0.4707 -0.7045  0.2146
   68MOL0     C 9092  -0.347  10.016   1.509 -0.2154  1.1080  0.2008
   68MOL0     O 9093  -0.290   9.658   1.405 -0.4929 -0.2801 -0.0154
   68MOL0     C 9094   0.045   9.713   1.482 -0.0695  0.7790 -0.0064
   68MOL0     C 9095   0.174   9.664   1.484 -0.7518  0.9828  0.5535
   68MOL0     N 9096   0.628   9.199   1.007  0.7403 -0.2301  0.0044
   68MOL0     N 9097   0.680   9.124   0.919 -0.1186  0.1567 -0.2099
   68MOL0     C 9098   2.004   8.843   0.374 -0.1686  0.2417  0.5858
   68MOL0     C 9099   2.148   8.832   0.373 -0.3319 -0.1970  0.5625
   68MOL0     C 9100   2.574   8.806   0.600 -0.1632  0.0961  0.5991
   68MOL0     C 9101   2.584   8.666   0.571  0.1379  0.3097 -0.5841
   68MOL0     C 9102   2.696   8.591   0.620 -0.2780 -0.7669  1.3015
   68MOL0     C 9103   2.792   8.648   0.698 -0.1857 -0.4811 -0.3961
   68MOL0     O 9104   2.879   8.551   0.750 -0.3953 -0.3000 -0.6210
   68MOL0     C 9105   2.860   8.537   0.891 -0.2700 -1.2362 -0.4923
   68MOL0     C 9106   2.987   8.489   0.969  0.4268 -0.3021  0.6653
   68MOL0     C 9107   3.000   8.341   0.952 -0.1056  0.4686 -0.5047
   68MOL0     C 9108   3.065   8.279   1.073 -1.0732  0.2491  0.8443
   68MOL0     C 9109   2.972   8.265   1.193 -0.4049  0.0855  0.6265
   68MOL0     C 9110   2.897   8.268   1.282  0.1396  0.3001 -1.3203
   68MOL0     C 9111   2.783   8.781   0.720 -0.4669 -1.2658  0.2626
   68MOL0     C 9112   2.683   8.868   0.671 -1.0296  0.4057 -0.7561
   68MOL0     H 9113   2.219   8.968   0.680 -4.0589  2.5517  2.8211
   68MOL0     H 9114   1.978   9.003   0.677  0.4682 -0.9256  0.2152
   68MOL0     H 9115   1.751   8.953   0.679  2.1751 -0.9417 -0.7804
   68MOL0     H 9116   1.768   9.089   0.562 -1.5049  1.0843  1.6757
   68MOL0     H 9117   1.557   9.046   0.452 -3.7846 -0.7207  1.3099
   68MOL0     H 9118   1.555   8.878   0.526  2.1021 -1.5102  1.2016
   68MOL0     H 9119   1.520   8.985   0.745 -0.0409  2.1222  1.4039
   68MOL0     H 9120   1.535   9.148   0.670  0.6815 -0.2201 -2.1036
   68MOL0     H 9121   1.349   9.083   0.511  2.1004  1.9181  0.2509
   68MOL0     H 9122   1.347   8.933   0.595  2.0630  0.9932 -1.7637
   68MOL0     H 9123   1.291   9.047   0.814  1.7770  0.8301 -0.1036
   68MOL0     H 9124   1.297   9.205   0.739  0.2421  0.0956  1.1373
   68MOL0     H 9125   1.087   9.149   0.607  1.6860  1.2165  0.0365
   68MOL0     H 9126   1.100   8.980   0.657 -4.0190 -0.3500  0.2846
   68MOL0     H 9127   1.062   9.029   0.882  0.3536 -0.0212  0.6857
   68MOL0     H 9128   1.075   9.195   0.872 -0.0421  0.0070 -0.2133
   68MOL0     H 9129   0.848   9.035   0.739  1.2805 -0.1863 -1.2004
   68MOL0     H 9130   0.864   9.212   0.716  0.9150  1.3079  0.4071
   68MOL0     H 9131   0.906   9.352   0.975 -3.4659  3.0726 -1.1043
   68MOL0     H 9132   0.747   9.307   1.262 -0.2947 -0.1309  0.1718
   68MOL0     H 9133   0.769   9.462   1.159 -0.2835  0.9439  1.3735
   68MOL0     H 9134   0.508   9.408   1.101 -0.5348 -2.8195 -0.6711
   68MOL0     H 9135   0.557   9.526   1.222 -0.0378 -0.8854  1.6669
   68MOL0     H 9136   0.550   9.356   1.405 -0.5037  0.6860  0.3972
   68MOL0     H 9137   0.520   9.243   1.269 -0.1478  0.1922  0.7144
   68MOL0     H 9138   0.331   9.295   1.413  0.9433 -0.7585 -0.7204
   68MOL0     H 9139   0.293   9.370   1.256 -1.4087  0.8619  1.7436
   68MOL0     H 9140   0.101   9.335   1.402  1.5654  0.4071 -3.1977
   68MOL0     H 9141  -0.135   9.293   1.459 -1.2472 -0.9889 -0.5648
   68MOL0     H 9142  -0.248   9.421   1.404  0.2443 -0.1991  0.2554
   68MOL0     H 9143  -0.123   9.343   1.300 -4.7649 -2.4221 -0.5834
   68MOL0     H 9144  -0.382   9.711   1.630 -0.1079 -0.8117 -1.0763
   68MOL0     H 9145  -0.618   9.797   1.676 -1.4631 -0.3170 -2.1793
   68MOL0     H 9146  -0.743  10.225   1.559  0.8628 -0.0401  1.2706
   68MOL0     H 9147  -0.725  10.111   1.440 -0.4314  3.0729 -0.4778
   68MOL0     H 9148  -0.893   9.955   1.507 -2.6289 -0.2179 -1.0703
   68MOL0     H 9149  -0.950  10.064   1.637 -0.3691  0.7264 -0.2894
   68MOL0     H 9150  -0.913  10.198   1.383  2.6730  0.0986  2.1907
   68MOL0     H 9151  -1.064  10.191   1.485  2.1042  0.5020  1.5270
   68MOL0     H 9152  -0.965   9.992   1.277  0.4499 -1.9606  2.0244
   68MOL0     H 9153  -1.098   9.957   1.382 -0.7254 -1.0860 -2.3264
   68MOL0     H 9154  -1.207  10.166   1.296  2.3655 -2.0948  3.5477
   68MOL0     H 9155  -1.166  10.051   1.158  0.2233  1.0989 -0.6043
   68MOL0     H 9156  -1.025  10.320   1.232 -2.8504  2.3686 -3.5727
   68MOL0     H 9157  -0.942  10.201   1.134  0.5571  1.9521 -0.2410
   68MOL0     H 9158  -1.080  10.372   0.998 -3.9983  1.8984 -0.6844
   68MOL0     H 9159  -1.226  10.301   1.070  0.5810 -1.3745  1.3103
   68MOL0     H 9160  -1.151  10.074   0.944  0.0304 -0.6405 -1.2386
   68MOL0     H 9161  -1.010  10.164   0.899  0.1400 -1.3845  2.0959
   68MOL0     H 9162  -0.479  10.177   1.506  0.4757  0.1875  3.6993
   68MOL0     H 9163  -0.269  10.066   1.453  0.0699  2.1849  1.4890
   68MOL0     H 9164   0.033   9.820   1.496 -3.1009  0.7601 -1.7339
   68MOL0     H 9165   0.260   9.722   1.516  1.2410 -1.9274  0.8893
   68MOL0     H 9166   1.937   8.811   0.295  2.7108 -0.3690 -1.7884
   68MOL0     H 9167   2.198   8.768   0.302 -2.8550 -2.8135  0.9769
   68MOL0     H 9168   2.496   8.623   0.523 -0.5055  1.0320 -0.0605
   68MOL0     H 9169   2.707   8.484   0.608  1.0397 -0.8294  2.7668
   68MOL0     H 9170   2.827   8.634   0.931 -1.2122 -1.3005 -1.0833
   68MOL0     H 9171   2.770   8.480   0.915 -0.3296 -0.9601 -0.0338
   68MOL0     H 9172   2.962   8.515   1.072 -2.5218 -0.5306  0.1084
   68MOL0     H 9173   3.071   8.547   0.931 -1.0005  0.0995 -2.1483
   68MOL0     H 9174   3.069   8.317   0.871  0.6976  1.2343 -0.0624
   68MOL0     H 9175   2.909   8.293   0.914 -0.0975  0.6705 -0.7779
   68MOL0     H 9176   3.157   8.334   1.095 -0.9095 -0.1051  1.0474
   68MOL0     H 9177   3.080   8.175   1.042  0.4267 -0.1939  2.8662
   68MOL0     H 9178   2.829   8.262   1.365  0.4423 -1.2116 -1.1445
   68MOL0     H 9179   2.869   8.831   0.761 -0.7977  0.7111 -1.3110
   68MOL0     H 9180   2.691   8.975   0.684 -4.1095  0.7581 -0.8692
   69MOL0     O 9181   3.318   2.774   5.909  0.5163  0.0716 -0.2239
   69MOL0     C 9182   3.212   2.718   5.929  0.2268  0.8711 -0.4588
   69MOL0     O 9183   3.139   2.726   6.045 -0.5294 -0.2795 -0.1920
   69MOL0     C 9184   3.176   2.821   6.135 -0.1377  0.9472  0.1497
   69MOL0     C 9185   3.232   2.780   6.254  0.1543 -0.9755  0.6463
   69MOL0     C 9186   3.265   2.870   6.348  0.4645 -0.0233 -0.4482
   69MOL0     C 9187   3.259   3.005   6.325 -0.3926  0.2476 -0.6872
   69MOL0     O 9188   3.298   3.086   6.429  0.0708  0.5786  0.8343
   69MOL0     C 9189   3.282   3.227   6.436 -1.0116  0.3291 -0.5289
   69MOL0     C 9190   3.153   3.263   6.507  0.5535 -0.1688  0.5965
   69MOL0     C 9191   3.036   3.251   6.412 -0.7444 -0.4534  0.5905
   69MOL0     C 9192   2.906   3.290   6.468  0.7497  0.7369 -0.2129
   69MOL0     C 9193   2.855   3.189   6.564  0.2769  0.1681 -0.6866
   69MOL0     C 9194   2.736   3.236   6.638  0.2391 -0.7903  0.8770
   69MOL0     C 9195   2.623   3.260   6.542  0.7939 -0.7132  0.0668
   69MOL0     C 9196   2.492   3.294   6.620  0.2162 -0.5875  0.1875
   69MOL0     N 9197   2.385   3.337   6.526 -0.2472  0.9471  0.0564
   69MOL0     C 9198   2.282   3.429   6.556 -0.2955  0.1432  0.0800
   69MOL0     C 9199   2.201   3.439   6.450  0.4020  0.4751 -0.7532
   69MOL0     C 9200   2.086   3.524   6.468  0.5629 -0.4272  0.7575
   69MOL0     C 9201   1.980   3.481   6.573 -0.0226 -0.8996  0.1620
   69MOL0     C 9202   1.861   3.571   6.585  0.5011 -0.3326  0.1286
   69MOL0     C 9203   1.744   3.525   6.669 -0.5976 -0.6040  0.4123
   69MOL0     O 9204   1.677   3.423   6.596 -0.0862 -0.9566  1.1612
   69MOL0     C 9205   1.590   3.458   6.500 -0.3699 -0.2637 -0.7679
   69MOL0     C 9206   1.507   3.573   6.495 -0.5310  0.4516  0.1793
   69MOL0     C 9207   1.413   3.593   6.396 -0.4398 -0.2785 -0.7766
   69MOL0     C 9208   1.339   3.723   6.384  0.5285 -0.1238 -0.6734
   69MOL0     C 9209   1.408   3.494   6.292 -0.1789 -0.6473 -1.1661
   69MOL0     C 9210   1.326   3.505   6.166 -0.7067  0.7182 -0.8582
   69MOL0     O 9211   1.384   3.450   6.054  0.5286 -0.5882 -0.5870
   69MOL0     C 9212   1.299   3.428   5.942 -0.1425  0.2567 -0.1760
   69MOL0     C 9213   1.204   3.327   5.944  0.7008  1.2653 -0.3971
   69MOL0     C 9214   1.134   3.287   5.825 -0.3110  0.3343  0.9873
   69MOL0     C 9215   1.169   3.355   5.703  0.5520  0.4429 -0.5784
   69MOL0     O 9216   1.127   3.339   5.573  0.3831  0.1053  0.1544
   69MOL0     C 9217   1.015   3.256   5.546 -0.3268  0.2852  0.1262
   69MOL0     C 9218   1.081   3.126   5.503  0.1978 -0.1431 -1.2482
   69MOL0     C 9219   1.008   3.008   5.562 -0.8687 -0.8117  0.3851
   69MOL0     C 9220   1.067   2.883   5.510 -0.0339 -0.1789 -0.0888
   69MOL0     C 9221   1.024   2.752   5.584  0.0502  0.5386 -0.0502
   69MOL0     C 9222   1.108   2.720   5.711 -0.5104  0.5279 -0.4530
   69MOL0     C 9223   1.054   2.586   5.759 -0.3019  0.0945 -0.1600
   69MOL0     C 9224   0.922   2.608   5.840  0.6612  0.9315  0.1174
   69MOL0    Cl 9225   0.925   2.717   5.990 -0.0753  0.4010  0.0419
   69MOL0     C 9226   1.271   3.457   5.700  0.9341  0.0480 -0.6854
   69MOL0     C 9227   1.333   3.491   5.821  0.0429  1.0407  0.0914
   69MOL0     O 9228   1.207   3.547   6.176  0.5301 -0.7441  0.2279
   69MOL0     C 9229   1.481   3.374   6.301 -0.1031 -0.2276  0.0531
   69MOL0     C 9230   1.572   3.354   6.411 -0.0519  0.3184 -0.7199
   69MOL0     N 9231   2.264   3.373   6.345  0.7456  0.2353  0.1371
   69MOL0     N 9232   2.365   3.307   6.395 -1.4672 -0.4100  0.3760
   69MOL0     C 9233   3.201   3.051   6.199  0.2120  0.7707 -0.2608
   69MOL0     C 9234   3.159   2.953   6.106  0.4531 -0.0169  0.2356
   69MOL0     C 9235   3.148   2.626   5.825 -0.2644  0.1673 -0.3663
   69MOL0     C 9236   3.233   2.540   5.757 -0.5189 -0.5704  0.9202
   69MOL0     C 9237   3.184   2.446   5.674  0.3343  0.6553  1.4548
   69MOL0     C 9238   3.041   2.420   5.666  0.3766  1.0606  0.4189
   69MOL0     O 9239   2.971   2.323   5.599 -1.0174  0.1234  0.3673
   69MOL0     C 9240   3.037   2.210   5.542  0.3320 -0.6865  0.1947
   69MOL0     C 9241   2.943   2.119   5.468 -0.5279 -0.0972 -0.2267
   69MOL0     C 9242   3.001   1.981   5.443 -0.6995  0.7274  1.0591
   69MOL0     C 9243   2.923   1.914   5.327 -0.7036 -0.2930 -0.6448
   69MOL0     C 9244   2.819   1.832   5.387 -0.0949  0.0632  0.3976
   69MOL0     C 9245   2.716   1.776   5.432  0.1416 -0.2192  0.0659
   69MOL0     C 9246   2.963   2.510   5.742  0.2316  0.3232 -0.5329
   69MOL0     C 9247   3.008   2.614   5.820 -0.1612  0.0070 -0.0760
   69MOL0     H 9248   3.239   2.673   6.276 -0.2700 -1.0082  0.6303
   69MOL0     H 9249   3.318   2.849   6.440  1.6050  2.2480 -0.5186
   69MOL0     H 9250   3.366   3.262   6.497 -0.7897  1.9797 -1.6839
   69MOL0     H 9251   3.299   3.290   6.348 -1.2993  1.2999  0.0939
   69MOL0     H 9252   3.142   3.200   6.596  2.4980 -0.9082  0.3862
   69MOL0     H 9253   3.155   3.366   6.543  2.3838  0.8080 -2.0196
   69MOL0     H 9254   3.057   3.323   6.332  1.4165 -1.8075 -0.1275
   69MOL0     H 9255   3.017   3.149   6.377 -2.1012 -0.9402  2.5521
   69MOL0     H 9256   2.907   3.391   6.511 -1.6737  1.4282 -1.5751
   69MOL0     H 9257   2.829   3.286   6.390  0.8039  0.0879 -0.2392
   69MOL0     H 9258   2.832   3.089   6.524 -2.2617  0.2322  0.4191
   69MOL0     H 9259   2.929   3.163   6.640 -1.0372 -1.1522  0.1922
   69MOL0     H 9260   2.696   3.160   6.705  1.3891 -1.9857  0.2495
   69MOL0     H 9261   2.767   3.321   6.698  1.7460 -0.3881 -0.3917
   69MOL0     H 9262   2.643   3.352   6.486  0.1076 -1.0720 -0.8117
   69MOL0     H 9263   2.600   3.179   6.472  0.4637 -1.9306  1.5318
   69MOL0     H 9264   2.509   3.380   6.685  1.9589 -0.8226  0.0706
   69MOL0     H 9265   2.450   3.209   6.675  0.3332 -0.6602  0.1648
   69MOL0     H 9266   2.262   3.466   6.656  1.8142  1.6012  0.0283
   69MOL0     H 9267   2.131   3.620   6.497  0.2614  0.3943 -1.3345
   69MOL0     H 9268   2.022   3.527   6.379 -0.0162 -1.7768  1.0982
   69MOL0     H 9269   2.034   3.475   6.668 -1.5927  2.4665  1.4217
   69MOL0     H 9270   1.955   3.375   6.561 -0.6496 -0.6805 -0.5638
   69MOL0     H 9271   1.832   3.600   6.483  0.6822 -0.5037  0.0269
   69MOL0     H 9272   1.885   3.667   6.632  0.2125  0.4013 -1.1586
   69MOL0     H 9273   1.685   3.613   6.694  0.9083  0.6094 -0.1376
   69MOL0     H 9274   1.789   3.481   6.759 -1.5474  0.3194  1.3570
   69MOL0     H 9275   1.512   3.649   6.572 -0.9301  3.0595 -2.2026
   69MOL0     H 9276   1.396   3.813   6.410 -1.9984  1.2974  0.2909
   69MOL0     H 9277   1.305   3.751   6.284 -1.1847 -1.5757 -0.5439
   69MOL0     H 9278   1.250   3.716   6.447 -0.2638  3.9043 -1.0301
   69MOL0     H 9279   1.170   3.291   6.041 -1.8932 -1.5044 -2.1541
   69MOL0     H 9280   1.055   3.212   5.827 -0.2884  0.2795  0.0294
   69MOL0     H 9281   0.953   3.243   5.635  1.4359 -2.4364  1.0778
   69MOL0     H 9282   0.964   3.300   5.459  1.8844 -0.6903 -1.7654
   69MOL0     H 9283   1.094   3.131   5.394 -1.1871 -0.7910 -1.4787
   69MOL0     H 9284   1.179   3.116   5.549  1.0634  1.5394 -2.6149
   69MOL0     H 9285   0.904   2.998   5.530 -1.0479 -0.0022  0.6777
   69MOL0     H 9286   1.011   2.995   5.670 -2.6579 -2.8042  0.2484
   69MOL0     H 9287   1.037   2.870   5.405 -0.2627 -1.8003  0.1538
   69MOL0     H 9288   1.173   2.908   5.504 -0.5836  2.0399 -1.8083
   69MOL0     H 9289   1.040   2.674   5.508  1.9100 -2.5710  3.1974
   69MOL0     H 9290   0.919   2.755   5.612  0.4030  0.3364  1.3979
   69MOL0     H 9291   1.214   2.718   5.683 -0.1189 -2.4371  0.9251
   69MOL0     H 9292   1.093   2.788   5.796 -1.2355 -0.1486 -0.0341
   69MOL0     H 9293   1.130   2.550   5.830 -1.1111  1.8850  1.7447
   69MOL0     H 9294   1.049   2.515   5.676  1.6720  0.8544 -0.9834
   69MOL0     H 9295   0.884   2.511   5.871  5.2820 -1.0320  0.4810
   69MOL0     H 9296   0.845   2.640   5.768 -0.5313  0.5138  1.1706
   69MOL0     H 9297   1.304   3.490   5.602  2.1314  2.2635  0.3922
   69MOL0     H 9298   1.427   3.546   5.820  2.4048 -2.4036  3.6245
   69MOL0     H 9299   1.468   3.290   6.232 -2.0986  1.7019 -2.0957
   69MOL0     H 9300   1.638   3.268   6.417  1.6332  1.5939 -0.2733
   69MOL0     H 9301   3.189   3.155   6.171  0.3289  0.8905  0.1161
   69MOL0     H 9302   3.109   2.970   6.012  1.1115 -1.5038 -0.4011
   69MOL0     H 9303   3.341   2.558   5.754 -0.3994 -0.5790  3.1583
   69MOL0     H 9304   3.253   2.386   5.615  0.6279  1.1854  1.2491
   69MOL0     H 9305   3.114   2.243   5.470  0.9060 -0.6113  0.8310
   69MOL0     H 9306   3.088   2.155   5.621  2.6086 -0.4165 -0.9951
   69MOL0     H 9307   2.907   2.163   5.375  0.5327 -2.0716 -1.6659
   69MOL0     H 9308   2.852   2.115   5.529 -0.4470  0.7079 -0.0452
   69MOL0     H 9309   3.002   1.917   5.532  0.5126 -0.8518 -0.0232
   69MOL0     H 9310   3.106   1.983   5.411 -0.8933 -1.5774  0.0585
   69MOL0     H 9311   2.994   1.847   5.278 -1.2938 -2.2286  0.9867
   69MOL0     H 9312   2.881   1.978   5.250  2.6561 -0.6433 -2.9597
   69MOL0     H 9313   2.630   1.721   5.465  0.4636 -1.5522 -1.2511
   69MOL0     H 9314   2.858   2.485   5.744 -0.0332  1.2735 -1.5777
   69MOL0     H 9315   2.943   2.678   5.878 -0.0470  2.1307 -2.1527
   70MOL0     O 9316   2.432   2.681   0.319 -0.3761  0.5365 -0.2090
   70MOL0     C 9317   2.503   2.728   0.234  0.1288  0.5335 -0.4420
   70MOL0     O 9318   2.572   2.662   0.130  0.1124  0.0124 -0.1911
   70MOL0     C 9319   2.582   2.520   0.150  0.2782 -0.4168  0.8314
   70MOL0     C 9320   2.647   2.471   0.266 -0.7273 -0.7303 -0.6006
   70MOL0     C 9321   2.696   2.335   0.273 -0.5420 -0.0103  0.2655
   70MOL0     C 9322   2.665   2.245   0.167 -0.1276  0.2618 -0.5103
   70MOL0     O 9323   2.714   2.106   0.169  0.4205  0.2067  0.4143
   70MOL0     C 9324   2.666   2.002   0.080  0.0275 -0.0584  0.2432
   70MOL0     C 9325   2.703   1.872   0.130 -0.4758  0.6478 -0.3165
   70MOL0     C 9326   2.689   1.764   0.016  0.0545 -0.2719 -0.0687
   70MOL0     C 9327   2.705   1.615   0.057  0.2685 -0.9143  0.0292
   70MOL0     C 9328   2.697   1.532  -0.069  0.5952 -0.7055 -0.0264
   70MOL0     C 9329   2.702   1.389  -0.037  0.8411  0.1205  0.5260
   70MOL0     C 9330   2.738   1.307  -0.165  0.3633  0.4211 -0.8256
   70MOL0     C 9331   2.759   1.150  -0.137 -0.0928  0.0560 -1.0141
   70MOL0     N 9332   2.861   1.091  -0.227  0.0584  0.1999 -0.5047
   70MOL0     C 9333   2.864   0.963  -0.266  0.2776  0.5889 -0.1166
   70MOL0     C 9334   2.944   0.966  -0.371 -0.3985  0.0597  0.2685
   70MOL0     C 9335   2.970   0.844  -0.451  0.2624  0.4384 -0.1263
   70MOL0     C 9336   2.938   0.692  -0.395  0.8345  0.6740 -0.0079
   70MOL0     C 9337   3.026   0.665  -0.273  0.1332 -0.1703  0.2605
   70MOL0     C 9338   3.004   0.524  -0.226 -0.0689 -0.5611 -0.2190
   70MOL0     O 9339   3.002   0.453  -0.344  0.0335  0.0534 -0.0327
   70MOL0     C 9340   2.961   0.325  -0.346 -1.0434 -0.8100  0.5576
   70MOL0     C 9341   2.956   0.245  -0.233 -0.3335 -0.0774 -0.4122
   70MOL0     C 9342   2.933   0.101  -0.246  0.2529 -0.3339 -0.4047
   70MOL0     C 9343   2.926   0.030  -0.118  0.0381  0.3490  0.2299
   70MOL0     C 9344   2.910   0.047  -0.376 -0.2221  0.7376  0.5172
   70MOL0     C 9345   2.864  -0.089  -0.413  0.3479  0.1532 -0.6644
   70MOL0     O 9346   2.864  -0.126  -0.549  0.0530  0.0977 -0.4517
   70MOL0     C 9347   2.886  -0.267  -0.576  0.8967 -0.3269  0.1118
   70MOL0     C 9348   2.993  -0.320  -0.654  0.6225 -0.1268 -0.0382
   70MOL0     C 9349   3.014  -0.456  -0.655 -0.2991 -0.7346 -0.2196
   70MOL0     C 9350   2.918  -0.548  -0.614  0.2587  0.4419 -0.0723
   70MOL0     O 9351   2.944  -0.681  -0.643 -0.8686 -0.6439 -0.9869
   70MOL0     C 9352   2.941  -0.775  -0.527  0.2577 -0.3082 -0.1249
   70MOL0     C 9353   3.053  -0.867  -0.524  0.0351  0.1041  0.6003
   70MOL0     C 9354   3.066  -0.940  -0.399 -0.7951  0.0451 -0.0545
   70MOL0     C 9355   3.076  -0.855  -0.270  0.8674  0.0262  0.1291
   70MOL0     C 9356   3.141  -0.934  -0.151 -0.5205 -0.1966  0.0396
   70MOL0     C 9357   3.068  -1.068  -0.141 -0.1283  0.0523  0.7461
   70MOL0     C 9358   3.094  -1.146  -0.013 -0.6875  0.4557  0.2496
   70MOL0     C 9359   3.118  -1.069   0.123  0.0621  0.4148 -0.3684
   70MOL0    Cl 9360   3.143  -1.179   0.264 -0.3466  0.5441 -0.2458
   70MOL0     C 9361   2.793  -0.499  -0.578  0.3356  0.5748 -0.9453
   70MOL0     C 9362   2.784  -0.360  -0.554  0.7183  0.2895  0.3827
   70MOL0     O 9363   2.836  -0.167  -0.322 -0.3255 -0.4463 -0.0957
   70MOL0     C 9364   2.931   0.131  -0.484  0.0696  0.0670  0.3314
   70MOL0     C 9365   2.952   0.265  -0.467 -0.0268  0.4238 -0.5118
   70MOL0     N 9366   2.995   1.093  -0.398 -0.2899 -0.5207 -0.5380
   70MOL0     N 9367   2.944   1.166  -0.307  0.8814  0.1057  0.1363
   70MOL0     C 9368   2.596   2.297   0.051 -0.0338  0.1757  0.4113
   70MOL0     C 9369   2.544   2.430   0.046 -0.4391  0.7868 -0.0113
   70MOL0     C 9370   2.502   2.881   0.233 -0.0592  0.1661  0.6422
   70MOL0     C 9371   2.619   2.951   0.204 -0.3050  0.2679 -0.3203
   70MOL0     C 9372   2.625   3.090   0.237  0.2072 -0.4328 -0.1750
   70MOL0     C 9373   2.504   3.161   0.248 -0.2719  0.2998  0.3269
   70MOL0     O 9374   2.503   3.297   0.261  0.6205  0.1343 -0.1371
   70MOL0     C 9375   2.587   3.370   0.174  0.7898  0.4198  0.2654
   70MOL0     C 9376   2.539   3.520   0.175  0.0012 -1.1332  0.3312
   70MOL0     C 9377   2.436   3.560   0.062  0.2421 -1.1519 -0.3291
   70MOL0     C 9378   2.317   3.466   0.054 -0.3348  0.0179  0.2618
   70MOL0     C 9379   2.228   3.460   0.169 -0.0712 -0.5178  0.3800
   70MOL0     C 9380   2.180   3.435   0.273 -1.1158 -0.4990 -0.1795
   70MOL0     C 9381   2.387   3.090   0.263 -0.0897  0.3291  0.5839
   70MOL0     C 9382   2.390   2.954   0.267  0.6304  0.8066 -0.0983
   70MOL0     H 9383   2.663   2.534   0.352 -1.8549 -1.8661  0.4896
   70MOL0     H 9384   2.757   2.297   0.354 -0.0999  2.1100  0.9860
   70MOL0     H 9385   2.557   2.008   0.074 -0.0837  0.9859  2.4583
   70MOL0     H 9386   2.716   2.008  -0.018  0.3658  1.6533  0.4828
   70MOL0     H 9387   2.809   1.868   0.157 -0.3552 -2.2831 -0.8422
   70MOL0     H 9388   2.656   1.845   0.225  0.3205 -1.2441 -0.4001
   70MOL0     H 9389   2.583   1.779  -0.009 -0.4570  1.9991  2.9386
   70MOL0     H 9390   2.759   1.792  -0.064 -1.5039  0.9337 -1.0900
   70MOL0     H 9391   2.806   1.604   0.098  0.7944 -1.0505 -1.2787
   70MOL0     H 9392   2.624   1.600   0.129 -0.2534 -0.4154 -0.4460
   70MOL0     H 9393   2.600   1.554  -0.116  0.3342 -0.0613  0.7999
   70MOL0     H 9394   2.772   1.568  -0.140  0.4507  0.8972  0.5942
   70MOL0     H 9395   2.783   1.373   0.034  1.2275  1.9226  0.5269
   70MOL0     H 9396   2.611   1.343   0.003 -0.4113  1.6240 -0.4886
   70MOL0     H 9397   2.657   1.311  -0.239 -0.8086 -0.9563  0.3293
   70MOL0     H 9398   2.835   1.346  -0.199  1.5744 -1.4263  0.3128
   70MOL0     H 9399   2.668   1.091  -0.144 -0.2449  0.1400  0.1794
   70MOL0     H 9400   2.793   1.142  -0.033 -0.9560  2.1142 -0.5232
   70MOL0     H 9401   2.812   0.881  -0.218 -1.0092  0.5057 -1.5864
   70MOL0     H 9402   2.917   0.864  -0.544 -1.7667 -0.5779  0.7457
   70MOL0     H 9403   3.070   0.846  -0.494  1.9096  2.5811  3.3562
   70MOL0     H 9404   2.947   0.627  -0.482 -3.5135  0.2589 -0.3458
   70MOL0     H 9405   2.836   0.686  -0.356 -0.8298  0.9501 -3.8633
   70MOL0     H 9406   2.997   0.735  -0.194 -1.5210  1.9053 -2.0300
   70MOL0     H 9407   3.128   0.690  -0.302 -0.5226  1.3883 -0.7912
   70MOL0     H 9408   2.904   0.536  -0.183 -0.5363  0.0669 -1.4412
   70MOL0     H 9409   3.070   0.491  -0.145  1.2029 -1.3618 -1.5164
   70MOL0     H 9410   2.979   0.290  -0.137 -1.5575  1.1648 -0.6655
   70MOL0     H 9411   2.978  -0.066  -0.123  0.0215  0.3241  0.5626
   70MOL0     H 9412   2.987   0.082  -0.044  1.9084 -1.9343  0.3906
   70MOL0     H 9413   2.825   0.001  -0.089 -0.0788 -0.4444 -0.8809
   70MOL0     H 9414   3.067  -0.251  -0.694 -1.7809  1.8310 -1.4135
   70MOL0     H 9415   3.102  -0.488  -0.708  0.6087  1.0193  0.1489
   70MOL0     H 9416   2.931  -0.719  -0.433  1.0331 -1.0008  0.3874
   70MOL0     H 9417   2.845  -0.826  -0.536 -1.9570  3.5760 -1.0299
   70MOL0     H 9418   3.037  -0.936  -0.606  0.8079 -0.4562  0.9088
   70MOL0     H 9419   3.148  -0.820  -0.551  0.1848 -1.3989 -1.7343
   70MOL0     H 9420   3.158  -0.997  -0.415 -1.9193 -2.3602  1.5235
   70MOL0     H 9421   2.982  -1.011  -0.397  0.1046 -1.0326  0.1118
   70MOL0     H 9422   3.130  -0.763  -0.290  0.4770  0.3769  0.6566
   70MOL0     H 9423   2.973  -0.837  -0.237  0.7241  1.3140 -0.9331
   70MOL0     H 9424   3.150  -0.871  -0.061  2.3246 -1.7969  1.0118
   70MOL0     H 9425   3.238  -0.967  -0.188 -1.0706 -3.1360  1.0056
   70MOL0     H 9426   2.962  -1.039  -0.141  0.0131  0.8600 -1.7551
   70MOL0     H 9427   3.084  -1.131  -0.229 -2.9898 -0.5495  0.5555
   70MOL0     H 9428   3.170  -1.221  -0.033 -2.0145 -1.7543  2.7948
   70MOL0     H 9429   3.005  -1.205   0.011  0.5190 -0.8277  1.7255
   70MOL0     H 9430   3.037  -0.998   0.143 -1.1966 -1.1348  0.1833
   70MOL0     H 9431   3.199  -0.995   0.122  0.6124 -0.1601  0.2908
   70MOL0     H 9432   2.704  -0.559  -0.561  0.4287  0.5291 -0.6176
   70MOL0     H 9433   2.693  -0.342  -0.498 -0.4451 -2.5440 -0.4244
   70MOL0     H 9434   2.945   0.095  -0.585  2.4518 -1.2073  1.0493
   70MOL0     H 9435   2.958   0.331  -0.554  0.4992 -2.4133 -2.7969
   70MOL0     H 9436   2.571   2.239  -0.038 -0.7236 -2.1448  2.0358
   70MOL0     H 9437   2.482   2.442  -0.043 -1.0959 -1.9606 -0.0233
   70MOL0     H 9438   2.720   2.911   0.198 -0.6185 -0.3058 -4.1062
   70MOL0     H 9439   2.717   3.148   0.247  0.4095 -0.7658 -0.0801
   70MOL0     H 9440   2.690   3.374   0.210  1.2754 -0.4087 -0.9751
   70MOL0     H 9441   2.584   3.317   0.078  1.0248 -2.3231  1.6970
   70MOL0     H 9442   2.619   3.594   0.178 -1.2793  0.2954  1.9214
   70MOL0     H 9443   2.485   3.542   0.268 -0.8235 -2.0695  0.0937
   70MOL0     H 9444   2.486   3.549  -0.035  0.9316 -4.5348  0.2623
   70MOL0     H 9445   2.405   3.662   0.085  0.3781 -1.4402  1.2343
   70MOL0     H 9446   2.348   3.363   0.034 -0.4897  0.1701 -0.7962
   70MOL0     H 9447   2.256   3.491  -0.032  1.3156  2.3294 -0.3261
   70MOL0     H 9448   2.120   3.418   0.360  0.2540  4.2037  2.0170
   70MOL0     H 9449   2.293   3.137   0.286 -1.1868 -1.6103  0.2861
   70MOL0     H 9450   2.294   2.908   0.287  0.6947 -0.5163 -2.5231
   71MOL0     O 9451   3.178  10.580   6.016  0.2383  0.1280  0.3464
   71MOL0     C 9452   3.281  10.626   5.967 -0.9314  0.4967  0.7227
   71MOL0     O 9453   3.294  10.657   5.833  0.0761 -0.4623 -0.7825
   71MOL0     C 9454   3.197  10.625   5.739 -0.2852  0.2534  0.0371
   71MOL0     C 9455   3.184  10.707   5.626 -0.4834  0.5397  0.4227
   71MOL0     C 9456   3.078  10.697   5.539 -0.1036  1.0687  0.7025
   71MOL0     C 9457   2.986  10.600   5.555 -0.0561 -0.9013 -0.4631
   71MOL0     O 9458   2.875  10.596   5.471  0.3847  0.7463  0.1919
   71MOL0     C 9459   2.756  10.514   5.501 -0.0996 -0.3868  0.2411
   71MOL0     C 9460   2.704  10.540   5.647 -0.5168 -0.0863  0.4028
   71MOL0     C 9461   2.563  10.486   5.644 -0.4443 -0.7788  0.1753
   71MOL0     C 9462   2.493  10.505   5.781  0.4373 -0.7860 -0.4762
   71MOL0     C 9463   2.343  10.483   5.760 -0.2259 -0.3259 -0.1210
   71MOL0     C 9464   2.279  10.527   5.888  0.0295  0.2363 -0.1697
   71MOL0     C 9465   2.275  10.419   6.000 -0.0011 -0.1226 -0.1204
   71MOL0     C 9466   2.201  10.450   6.129 -0.2923 -0.5783  0.0313
   71MOL0     N 9467   2.056  10.451   6.108 -0.0755 -0.2736 -0.5395
   71MOL0     C 9468   1.978  10.333   6.101  0.4774 -0.2098  0.5266
   71MOL0     C 9469   1.852  10.372   6.128  0.0038 -0.9157 -0.6251
   71MOL0     C 9470   1.730  10.288   6.146 -0.1204 -0.9001 -0.2870
   71MOL0     C 9471   1.612  10.314   6.049 -0.6563 -0.3053 -0.5662
   71MOL0     C 9472   1.479  10.234   6.084  0.3378 -0.5601  0.2139
   71MOL0     C 9473   1.361  10.321   6.129  0.0147  0.7264  1.0561
   71MOL0     O 9474   1.390  10.398   6.242 -0.1768  0.1778  0.0154
   71MOL0     C 9475   1.296  10.409   6.343  0.1915  0.0242 -0.9320
   71MOL0     C 9476   1.348  10.446   6.463  0.1397 -0.6029 -0.3424
   71MOL0     C 9477   1.282  10.456   6.581  0.2944  0.1123 -0.5579
   71MOL0     C 9478   1.356  10.515   6.696 -0.1167  0.3441  0.4194
   71MOL0     C 9479   1.149  10.403   6.582 -0.1580  0.2853  0.1076
   71MOL0     C 9480   1.069  10.387   6.704 -0.8588 -0.2295  0.5774
   71MOL0     O 9481   0.950  10.318   6.679  0.1037  0.1093  0.0131
   71MOL0     C 9482   0.837  10.324   6.768  0.1498  1.1463  0.6843
   71MOL0     C 9483   0.816  10.404   6.880 -1.1334 -0.2115  1.4282
   71MOL0     C 9484   0.700  10.398   6.950 -0.3569 -0.3630 -0.2013
   71MOL0     C 9485   0.596  10.314   6.912  0.4274  0.2756 -0.6385
   71MOL0     O 9486   0.486  10.325   6.988 -0.1782 -0.1245 -0.6730
   71MOL0     C 9487   0.373  10.241   6.968  0.2776 -0.4274 -1.4313
   71MOL0     C 9488   0.272  10.269   7.079 -0.2210  0.5640  0.3725
   71MOL0     C 9489   0.145  10.197   7.049 -0.6760 -0.2281  0.0676
   71MOL0     C 9490   0.039  10.218   7.160 -0.4858  0.1454  0.0364
   71MOL0     C 9491   0.040  10.106   7.268  0.1686  0.3424  0.6827
   71MOL0     C 9492   0.145  10.128   7.371 -1.0486  0.0565  0.1093
   71MOL0     C 9493   0.118  10.064   7.504  0.6637 -0.4105 -0.2627
   71MOL0     C 9494   0.212  10.112   7.604 -0.3482 -0.3503  0.0250
   71MOL0    Cl 9495   0.201  10.023   7.755  0.0539  0.2714  0.1041
   71MOL0     C 9496   0.615  10.227   6.814  0.4434  0.3178  0.7749
   71MOL0     C 9497   0.734  10.234   6.735  0.8037  0.4469 -0.3086
   71MOL0     O 9498   1.101  10.434   6.814 -0.2372  0.6688 -0.0489
   71MOL0     C 9499   1.100  10.347   6.468 -0.0563 -0.1717  0.7597
   71MOL0     C 9500   1.162  10.356   6.341  0.0949 -0.1136  0.5103
   71MOL0     N 9501   1.855  10.516   6.141  0.1851 -0.2440  0.1225
   71MOL0     N 9502   1.978  10.552   6.136 -0.5251 -0.0589  0.7177
   71MOL0     C 9503   3.011  10.500   5.650  0.3556  0.4510 -1.0973
   71MOL0     C 9504   3.118  10.508   5.740  0.1064  0.2870  0.6309
   71MOL0     C 9505   3.386  10.661   6.058  0.4721  0.1243 -0.4966
   71MOL0     C 9506   3.480  10.760   6.029  0.1038 -0.1234  0.2581
   71MOL0     C 9507   3.575  10.795   6.119 -0.7741 -1.1767  0.7420
   71MOL0     C 9508   3.591  10.740   6.244 -0.1143  0.0253  0.1183
   71MOL0     O 9509   3.683  10.794   6.330  0.5455 -0.2939  0.6326
   71MOL0     C 9510   3.674  10.779   6.469 -0.5593 -1.1288 -0.2008
   71MOL0     C 9511   3.802  10.842   6.539 -0.1762 -0.0478  0.0572
   71MOL0     C 9512   3.846  10.969   6.501 -0.7009 -0.5207 -0.0465
   71MOL0     C 9513   3.745  11.086   6.525 -0.0258  0.5934  0.3111
   71MOL0     C 9514   3.680  11.087   6.652  0.2528  0.8733 -0.2510
   71MOL0     C 9515   3.642  11.080   6.767 -0.6981  0.0504 -0.5158
   71MOL0     C 9516   3.495  10.636   6.276  0.1280  0.3609  0.0308
   71MOL0     C 9517   3.397  10.595   6.188  0.2458  0.1674 -0.1540
   71MOL0     H 9518   3.251  10.793   5.625  0.8617 -0.4520  1.4555
   71MOL0     H 9519   3.062  10.765   5.456  1.2664 -2.6683 -2.9511
   71MOL0     H 9520   2.693  10.551   5.419 -0.5830 -0.4029  0.6019
   71MOL0     H 9521   2.774  10.414   5.460  0.4112 -0.2755  0.1758
   71MOL0     H 9522   2.759  10.482   5.722  0.3778  0.4109  0.1353
   71MOL0     H 9523   2.712  10.645   5.676  2.6068 -0.7516  2.4565
   71MOL0     H 9524   2.501  10.532   5.567  1.0154  1.0028  0.0028
   71MOL0     H 9525   2.569  10.379   5.622  0.8448 -0.5026 -0.9536
   71MOL0     H 9526   2.538  10.430   5.847  0.7365 -0.9285 -0.8328
   71MOL0     H 9527   2.503  10.603   5.827  0.5607 -1.3560  0.7546
   71MOL0     H 9528   2.305  10.549   5.682  0.1969 -3.6931 -3.4639
   71MOL0     H 9529   2.313  10.380   5.739 -0.9796  0.2628 -2.1623
   71MOL0     H 9530   2.328  10.619   5.924  0.4822 -0.9439  2.4948
   71MOL0     H 9531   2.176  10.543   5.858 -0.3364  0.4372  1.1426
   71MOL0     H 9532   2.240  10.325   5.957  0.1981 -0.1206 -0.2920
   71MOL0     H 9533   2.378  10.403   6.033 -0.0041  0.8603  0.4141
   71MOL0     H 9534   2.222  10.544   6.182 -1.6300  0.5554 -1.3349
   71MOL0     H 9535   2.227  10.378   6.207  1.4403  0.0366  0.0617
   71MOL0     H 9536   2.024  10.235   6.092  0.4735 -0.0667 -1.3047
   71MOL0     H 9537   1.760  10.183   6.138 -2.2254 -1.4888 -1.2814
   71MOL0     H 9538   1.702  10.304   6.250 -2.8936 -0.3439 -1.0226
   71MOL0     H 9539   1.657  10.284   5.954  0.2589  1.1202 -0.6036
   71MOL0     H 9540   1.582  10.419   6.041 -0.4863 -0.1594  0.5624
   71MOL0     H 9541   1.504  10.165   6.166  1.2068  0.2223  0.6326
   71MOL0     H 9542   1.453  10.168   6.001 -0.6508  1.5254 -1.2094
   71MOL0     H 9543   1.282  10.246   6.141 -0.0107  0.2556 -1.4469
   71MOL0     H 9544   1.335  10.385   6.044  0.3014 -1.7757 -1.0638
   71MOL0     H 9545   1.454  10.472   6.470  0.2355 -0.9037 -0.6340
   71MOL0     H 9546   1.436  10.577   6.655 -0.6361 -0.1028 -1.3496
   71MOL0     H 9547   1.284  10.575   6.753 -3.1908 -0.5747 -2.2180
   71MOL0     H 9548   1.408  10.440   6.756 -0.5198 -0.0693  0.2559
   71MOL0     H 9549   0.900  10.456   6.927 -0.5316 -0.0045  0.1637
   71MOL0     H 9550   0.697  10.469   7.032  0.6459 -1.7638  1.0959
   71MOL0     H 9551   0.326  10.248   6.870 -0.9162 -2.7596 -1.1013
   71MOL0     H 9552   0.410  10.138   6.974  2.9344  0.4909 -0.4064
   71MOL0     H 9553   0.310  10.241   7.178 -2.0032  1.0074  1.2216
   71MOL0     H 9554   0.240  10.373   7.078 -2.2442  0.0452  2.4254
   71MOL0     H 9555   0.177  10.093   7.047  1.5610  0.4225 -1.5772
   71MOL0     H 9556   0.102  10.226   6.953  1.0154  2.1320 -0.0810
   71MOL0     H 9557   0.042  10.316   7.211  0.0075 -0.6402  1.5934
   71MOL0     H 9558  -0.063  10.209   7.121 -0.5240 -1.2676  0.4229
   71MOL0     H 9559   0.043  10.009   7.219 -0.9498 -0.2566  1.7254
   71MOL0     H 9560  -0.056  10.111   7.321  0.0759  1.8479  0.4146
   71MOL0     H 9561   0.227  10.070   7.328 -1.2473  0.9987 -1.6137
   71MOL0     H 9562   0.173  10.233   7.384  0.0155 -0.2084  0.0610
   71MOL0     H 9563   0.128   9.956   7.492  1.9811 -0.2469 -0.8025
   71MOL0     H 9564   0.017  10.091   7.535  1.5488  0.5250  2.0811
   71MOL0     H 9565   0.186  10.217   7.618 -0.9576 -0.4322 -0.4828
   71MOL0     H 9566   0.316  10.097   7.574  0.2261 -1.8432  2.4077
   71MOL0     H 9567   0.540  10.163   6.770  1.7574  0.3528 -1.7144
   71MOL0     H 9568   0.743  10.174   6.645 -1.4442 -3.5900  1.8509
   71MOL0     H 9569   1.001  10.307   6.454  0.1171 -0.1549 -0.7428
   71MOL0     H 9570   1.126  10.302   6.254 -0.8314 -2.3465  2.1557
   71MOL0     H 9571   2.943  10.415   5.650 -1.3026  1.6812  0.8824
   71MOL0     H 9572   3.115  10.435   5.819 -0.4663  0.8475  1.1352
   71MOL0     H 9573   3.473  10.799   5.927  1.0689 -2.5230 -0.7936
   71MOL0     H 9574   3.641  10.867   6.071 -1.9090 -2.0555 -2.4025
   71MOL0     H 9575   3.590  10.835   6.510  0.9895  0.9926  0.2215
   71MOL0     H 9576   3.660  10.673   6.495  0.6366 -1.7506 -1.8390
   71MOL0     H 9577   3.880  10.771   6.512  1.6676  1.3555  1.3813
   71MOL0     H 9578   3.791  10.847   6.648  2.0498  2.2865  0.2858
   71MOL0     H 9579   3.888  10.955   6.401  0.1168  1.6535 -0.0696
   71MOL0     H 9580   3.944  10.986   6.547 -1.0815 -0.0212  0.6019
   71MOL0     H 9581   3.657  11.065   6.464 -2.4864 -3.3108  4.5768
   71MOL0     H 9582   3.811  11.172   6.511 -1.6465  2.0967  1.5101
   71MOL0     H 9583   3.637  11.059   6.872  0.0034 -0.2102 -0.5279
   71MOL0     H 9584   3.496  10.578   6.368 -1.0903 -2.1976 -1.4748
   71MOL0     H 9585   3.327  10.513   6.199 -1.8596  1.7465 -1.0327
   72MOL0     O 9586   8.519  10.775   1.180 -0.2517  0.7093  0.3548
   72MOL0     C 9587   8.523  10.650   1.177 -0.0159  0.1361  0.0126
   72MOL0     O 9588   8.435  10.570   1.109  0.3114 -0.3022 -0.2741
   72MOL0     C 9589   8.335  10.629   1.041 -0.6819 -0.3816  0.3741
   72MOL0     C 9590   8.318  10.595   0.909  0.1703  0.6511  0.3380
   72MOL0     C 9591   8.205  10.632   0.831  0.4593  0.8374  0.0989
   72MOL0     C 9592   8.098  10.695   0.900 -0.0942  0.3913 -0.0009
   72MOL0     O 9593   7.982  10.717   0.823  0.1798  0.9695  0.0215
   72MOL0     C 9594   7.877  10.797   0.882  0.4872 -0.3670 -1.1181
   72MOL0     C 9595   7.776  10.794   0.769 -0.3608 -0.9953 -0.0148
   72MOL0     C 9596   7.655  10.885   0.813 -0.0201  0.0860  0.0814
   72MOL0     C 9597   7.547  10.897   0.708  0.0073  0.5730 -0.3165
   72MOL0     C 9598   7.407  10.874   0.774  0.6135  0.1012 -0.0502
   72MOL0     C 9599   7.302  10.894   0.670  1.1315  0.7557 -0.3417
   72MOL0     C 9600   7.154  10.862   0.722 -0.4392  0.3609 -0.7082
   72MOL0     C 9601   7.045  10.913   0.622 -0.2275 -0.5392 -1.0741
   72MOL0     N 9602   6.920  10.858   0.669  0.1924  0.0155 -0.3938
   72MOL0     C 9603   6.877  10.725   0.657  0.0940  0.6995 -0.1884
   72MOL0     C 9604   6.761  10.715   0.728  0.4873 -1.1419  0.3192
   72MOL0     C 9605   6.678  10.594   0.754 -0.0280 -0.6656  0.1813
   72MOL0     C 9606   6.624  10.528   0.636 -0.4609 -0.5339 -0.9495
   72MOL0     C 9607   6.519  10.418   0.658  0.0108 -0.2721 -0.2570
   72MOL0     C 9608   6.396  10.472   0.719  0.4443 -0.9073  0.5391
   72MOL0     O 9609   6.308  10.361   0.749 -0.5701 -0.0928 -0.1763
   72MOL0     C 9610   6.198  10.339   0.665  1.0646  0.5828 -0.2254
   72MOL0     C 9611   6.083  10.274   0.713 -0.8079  0.4543  1.0572
   72MOL0     C 9612   5.971  10.240   0.642 -0.3996 -0.2912 -0.8168
   72MOL0     C 9613   5.864  10.181   0.725 -0.1034 -0.7918 -0.8087
   72MOL0     C 9614   5.962  10.260   0.498 -0.0889 -0.9477 -1.4527
   72MOL0     C 9615   5.842  10.227   0.417 -0.9525 -0.0013 -0.4023
   72MOL0     O 9616   5.827  10.281   0.300 -0.0202  0.5598  0.7259
   72MOL0     C 9617   5.702  10.276   0.230 -0.5650 -0.2766  0.2788
   72MOL0     C 9618   5.712  10.333   0.103 -0.4680  0.0605 -0.2251
   72MOL0     C 9619   5.607  10.334   0.014  0.2818  0.3020 -0.1614
   72MOL0     C 9620   5.484  10.286   0.061 -0.7837 -0.7571  0.4744
   72MOL0     O 9621   5.368  10.278  -0.018 -0.5318 -0.2425  0.4169
   72MOL0     C 9622   5.312  10.395  -0.061  0.8060 -1.0561  0.3395
   72MOL0     C 9623   5.332  10.519   0.028 -0.2868  0.3966 -1.1349
   72MOL0     C 9624   5.259  10.638  -0.031 -0.0131  0.5069  0.4047
   72MOL0     C 9625   5.279  10.745   0.073  0.6678 -1.4120 -0.8875
   72MOL0     C 9626   5.187  10.877   0.052 -0.0296 -0.2194 -1.1126
   72MOL0     C 9627   5.200  10.926  -0.083  0.3358  0.1335 -1.0050
   72MOL0     C 9628   5.343  10.979  -0.099 -1.2400 -0.0068 -0.3606
   72MOL0     C 9629   5.366  11.085  -0.209 -0.9442 -0.1002  0.3007
   72MOL0    Cl 9630   5.327  10.986  -0.368  0.4047  0.3419 -0.2899
   72MOL0     C 9631   5.468  10.233   0.193 -0.7469  0.6441  0.1372
   72MOL0     C 9632   5.574  10.221   0.280 -0.7807 -1.4533 -0.3655
   72MOL0     O 9633   5.775  10.138   0.468 -0.3931  0.1344 -0.0953
   72MOL0     C 9634   6.080  10.333   0.440 -0.1590  0.0227 -1.0396
   72MOL0     C 9635   6.197  10.361   0.524  1.2466 -0.6221 -0.9307
   72MOL0     N 9636   6.730  10.836   0.776  0.5314  0.6871 -0.7002
   72MOL0     N 9637   6.822  10.917   0.740 -0.2356  0.4803 -0.2745
   72MOL0     C 9638   8.108  10.731   1.039 -0.1277 -0.0956  0.2950
   72MOL0     C 9639   8.227  10.692   1.102 -0.0683  0.6117  1.0004
   72MOL0     C 9640   8.631  10.575   1.245 -0.7863 -0.3779  0.4205
   72MOL0     C 9641   8.662  10.442   1.224 -0.1500  0.5266 -0.2449
   72MOL0     C 9642   8.760  10.377   1.302  0.3046 -0.0021  0.0032
   72MOL0     C 9643   8.842  10.446   1.391  0.7320 -0.1537 -0.3693
   72MOL0     O 9644   8.928  10.382   1.474 -0.5337 -0.0579  1.0112
   72MOL0     C 9645   9.052  10.431   1.506 -0.1059  0.0401 -0.2832
   72MOL0     C 9646   9.057  10.514   1.633  0.5033  0.9760 -0.2128
   72MOL0     C 9647   9.042  10.414   1.745 -1.0630  0.4498 -0.5694
   72MOL0     C 9648   9.029  10.501   1.871 -0.2860 -1.1239  0.2175
   72MOL0     C 9649   9.009  10.407   1.978 -0.0998  0.0738  0.2492
   72MOL0     C 9650   8.978  10.324   2.063 -0.2544  0.2654  0.1866
   72MOL0     C 9651   8.809  10.580   1.408 -0.1499  0.1232 -0.5913
   72MOL0     C 9652   8.707  10.649   1.340 -0.2722 -0.2694 -0.5957
   72MOL0     H 9653   8.392  10.531   0.863 -2.4019 -2.2088 -0.1678
   72MOL0     H 9654   8.206  10.601   0.727 -0.0950  1.9962 -0.2622
   72MOL0     H 9655   7.841  10.753   0.975  3.3789 -2.9424 -1.0476
   72MOL0     H 9656   7.901  10.903   0.894 -0.0748 -0.3096 -0.3836
   72MOL0     H 9657   7.828  10.847   0.689  1.2489 -0.9170  1.0143
   72MOL0     H 9658   7.745  10.691   0.749 -3.4143 -0.0258 -0.7207
   72MOL0     H 9659   7.613  10.851   0.908  1.1641  2.0729  1.4043
   72MOL0     H 9660   7.701  10.984   0.826 -0.5792  0.2795  0.6608
   72MOL0     H 9661   7.548  10.997   0.663 -0.1591  0.2181 -1.1226
   72MOL0     H 9662   7.561  10.820   0.631 -0.5700 -0.3246  0.4601
   72MOL0     H 9663   7.394  10.777   0.822  1.4161  0.8298  1.7324
   72MOL0     H 9664   7.390  10.948   0.853  2.0674  1.5297 -1.0266
   72MOL0     H 9665   7.304  10.995   0.628  1.6249  0.1628 -1.7994
   72MOL0     H 9666   7.321  10.828   0.586 -0.4916 -0.6527  0.3279
   72MOL0     H 9667   7.136  10.755   0.736 -1.7490  0.4924 -1.2384
   72MOL0     H 9668   7.129  10.899   0.822 -1.6204  0.6779 -1.1077
   72MOL0     H 9669   7.058  10.898   0.515 -1.6200  0.0244 -1.3585
   72MOL0     H 9670   7.050  11.022   0.633  2.1468 -0.2578 -3.8771
   72MOL0     H 9671   6.927  10.643   0.606 -1.2376  0.0017 -0.4085
   72MOL0     H 9672   6.748  10.524   0.800  2.5823  1.7545  0.1837
   72MOL0     H 9673   6.609  10.622   0.834  2.1958  3.2722  1.0062
   72MOL0     H 9674   6.707  10.480   0.583 -2.4002 -3.5679 -1.4986
   72MOL0     H 9675   6.588  10.609   0.571  2.3477  2.6303  1.1059
   72MOL0     H 9676   6.562  10.337   0.717 -1.9927 -1.1877  0.0086
   72MOL0     H 9677   6.492  10.355   0.573  0.2656 -3.2825  1.7678
   72MOL0     H 9678   6.352  10.540   0.646 -0.0324 -1.6985  0.0787
   72MOL0     H 9679   6.411  10.525   0.814 -3.1754  0.5916  0.4262
   72MOL0     H 9680   6.078  10.258   0.821 -0.1597  1.2383  1.2088
   72MOL0     H 9681   5.856  10.233   0.821 -2.5894 -1.6645 -0.4746
   72MOL0     H 9682   5.763  10.190   0.686 -0.1221  1.0658 -0.4326
   72MOL0     H 9683   5.879  10.074   0.742 -0.4357 -0.7718 -0.3802
   72MOL0     H 9684   5.811  10.371   0.077  0.5549 -1.8825  0.5969
   72MOL0     H 9685   5.602  10.375  -0.086 -1.8308 -0.3106 -0.3520
   72MOL0     H 9686   5.355  10.419  -0.159  3.8117  0.0792  1.7926
   72MOL0     H 9687   5.204  10.388  -0.070 -0.0627  4.6675  2.1476
   72MOL0     H 9688   5.286  10.503   0.126 -2.2990  1.4685 -1.8537
   72MOL0     H 9689   5.439  10.540   0.034 -0.1937  0.5876 -3.0895
   72MOL0     H 9690   5.153  10.622  -0.051  0.3738 -1.8139 -0.0416
   72MOL0     H 9691   5.312  10.665  -0.123  2.4544 -1.9211  1.0050
   72MOL0     H 9692   5.266  10.709   0.175  2.3189 -0.6378 -0.3559
   72MOL0     H 9693   5.382  10.783   0.066  0.0643  0.8881  1.2638
   72MOL0     H 9694   5.203  10.959   0.122 -4.1990  0.2956 -0.4873
   72MOL0     H 9695   5.086  10.845   0.081  0.4734 -1.5358 -0.7200
   72MOL0     H 9696   5.184  10.846  -0.155  2.0807 -0.2252 -1.0329
   72MOL0     H 9697   5.132  11.012  -0.086  0.7891  0.7849  2.4371
   72MOL0     H 9698   5.406  10.890  -0.107 -0.8816  0.1367  0.6912
   72MOL0     H 9699   5.368  11.036  -0.009 -2.3693 -0.9285  0.5740
   72MOL0     H 9700   5.471  11.113  -0.222 -0.0796 -2.8901  0.6748
   72MOL0     H 9701   5.294  11.165  -0.190  0.6180  1.4670 -0.1835
   72MOL0     H 9702   5.372  10.187   0.213  0.6405 -1.3026  3.0337
   72MOL0     H 9703   5.561  10.179   0.379  1.5892  1.6311  1.4505
   72MOL0     H 9704   6.092  10.346   0.333 -2.1663 -4.0615 -1.9622
   72MOL0     H 9705   6.287  10.404   0.482  1.1349  2.0651  1.3436
   72MOL0     H 9706   8.026  10.784   1.089 -1.7482 -1.9306 -0.2983
   72MOL0     H 9707   8.240  10.709   1.208  2.3861 -0.7020  0.9737
   72MOL0     H 9708   8.605  10.377   1.158  0.8392 -1.3490  0.6730
   72MOL0     H 9709   8.776  10.270   1.295 -0.4154 -0.0296 -2.1450
   72MOL0     H 9710   9.127  10.352   1.519  1.3270  1.0995 -1.7512
   72MOL0     H 9711   9.074  10.493   1.419 -1.6613 -0.7431 -1.2713
   72MOL0     H 9712   8.971  10.581   1.630 -0.1675  0.1584  0.2217
   72MOL0     H 9713   9.149  10.570   1.651 -0.4798  2.1589  1.3996
   72MOL0     H 9714   9.136  10.359   1.731  0.6667  3.3023 -0.8532
   72MOL0     H 9715   8.962  10.343   1.722  0.2699 -0.5518 -2.3544
   72MOL0     H 9716   8.945  10.572   1.869  1.5736  1.2455 -1.8509
   72MOL0     H 9717   9.117  10.565   1.881 -1.0903  0.1367 -0.4968
   72MOL0     H 9718   8.953  10.245   2.132  0.4330 -1.0632 -1.0261
   72MOL0     H 9719   8.858  10.640   1.485  1.4890 -1.5383 -0.2680
   72MOL0     H 9720   8.678  10.753   1.356  0.5311  0.0701 -1.2471
   73MOL0     O 9721   3.141   7.160   0.195  0.8854 -0.0368 -0.2266
   73MOL0     C 9722   3.118   7.094   0.300 -0.0937 -0.4802  0.0029
   73MOL0     O 9723   2.996   7.061   0.357 -0.8991  0.7162  0.2129
   73MOL0     C 9724   2.880   7.105   0.308  0.5777 -0.2632 -0.1395
   73MOL0     C 9725   2.861   7.205   0.210  0.3717  0.2265  0.5368
   73MOL0     C 9726   2.732   7.205   0.158  0.2663  0.2667  1.1483
   73MOL0     C 9727   2.621   7.142   0.196  0.3182  0.0725  0.1322
   73MOL0     O 9728   2.512   7.157   0.112 -0.1096 -0.7923 -0.2616
   73MOL0     C 9729   2.389   7.107   0.167 -0.1528 -0.0656 -0.2480
   73MOL0     C 9730   2.279   7.173   0.092  0.0116  0.6329 -0.2602
   73MOL0     C 9731   2.143   7.134   0.122  1.3531 -0.7382 -0.3003
   73MOL0     C 9732   2.089   7.009   0.062 -0.2454 -0.4063  0.4020
   73MOL0     C 9733   1.939   6.988   0.076  0.4759  0.4466  0.0744
   73MOL0     C 9734   1.860   7.086  -0.010 -0.2157 -0.2101 -0.3436
   73MOL0     C 9735   1.712   7.045  -0.008 -0.4320 -0.1537 -0.6728
   73MOL0     C 9736   1.611   7.146  -0.071  0.2099  0.8135 -0.5920
   73MOL0     N 9737   1.478   7.106  -0.032 -0.4426  0.3117 -0.1000
   73MOL0     C 9738   1.443   6.975  -0.033  0.6387 -0.2389 -0.0690
   73MOL0     C 9739   1.320   6.973   0.022 -0.0389  0.1475  0.4822
   73MOL0     C 9740   1.247   6.848   0.052  0.4058  0.3713 -0.0199
   73MOL0     C 9741   1.129   6.814  -0.046  0.3038  0.6637 -0.0872
   73MOL0     C 9742   1.155   6.809  -0.202  0.7255 -0.5970  0.4057
   73MOL0     C 9743   1.032   6.767  -0.274  0.6841 -0.6213  0.8786
   73MOL0     O 9744   1.064   6.765  -0.415 -0.6655  0.0242  0.2012
   73MOL0     C 9745   0.970   6.744  -0.510  0.3574 -0.4474  0.2920
   73MOL0     C 9746   0.830   6.737  -0.494 -0.3046 -0.1004  0.4138
   73MOL0     C 9747   0.744   6.737  -0.608 -0.9202  0.0679  0.4574
   73MOL0     C 9748   0.601   6.747  -0.571 -0.1990 -0.5927 -0.0061
   73MOL0     C 9749   0.794   6.732  -0.738 -0.2063 -0.7522  0.0557
   73MOL0     C 9750   0.708   6.738  -0.857 -0.1096  0.9827  0.5916
   73MOL0     O 9751   0.763   6.796  -0.967 -0.3773 -0.2853  0.7998
   73MOL0     C 9752   0.689   6.816  -1.076  0.2323  0.1683  0.8892
   73MOL0     C 9753   0.584   6.907  -1.073 -0.2107 -0.7607  0.4394
   73MOL0     C 9754   0.495   6.924  -1.182 -1.3124 -0.0029  0.5973
   73MOL0     C 9755   0.522   6.850  -1.301 -0.3386  0.7737  0.2126
   73MOL0     O 9756   0.422   6.860  -1.395 -0.5681  0.1342 -0.0269
   73MOL0     C 9757   0.423   6.767  -1.508  0.8492  0.1945  0.0589
   73MOL0     C 9758   0.317   6.793  -1.614 -0.0031 -1.0186  0.2348
   73MOL0     C 9759   0.338   6.934  -1.669 -0.7407  0.0442 -0.2126
   73MOL0     C 9760   0.271   6.952  -1.807  0.2442  0.3378 -0.5021
   73MOL0     C 9761   0.119   6.929  -1.821 -0.0007 -0.2158 -1.4743
   73MOL0     C 9762   0.046   7.029  -1.729  0.3695  0.0550  0.3644
   73MOL0     C 9763  -0.101   6.998  -1.745  0.3207  0.3638  0.0091
   73MOL0     C 9764  -0.177   7.088  -1.655 -0.5158  0.0910  0.1408
   73MOL0    Cl 9765  -0.342   7.016  -1.656  0.0045  0.1272 -0.5602
   73MOL0     C 9766   0.619   6.750  -1.296 -0.2551 -0.7653  1.1764
   73MOL0     C 9767   0.702   6.725  -1.186  0.0249 -1.2995  0.1311
   73MOL0     O 9768   0.596   6.692  -0.852  0.6072 -0.7625  0.6691
   73MOL0     C 9769   0.931   6.734  -0.749  0.1471 -0.2548  0.5856
   73MOL0     C 9770   1.017   6.749  -0.638 -0.6262 -0.0239 -0.2599
   73MOL0     N 9771   1.295   7.097   0.067  0.0570  0.1950 -0.5754
   73MOL0     N 9772   1.390   7.178   0.045 -0.5392  0.5953  0.8414
   73MOL0     C 9773   2.635   7.053   0.302 -0.9814 -0.5984 -0.5644
   73MOL0     C 9774   2.768   7.033   0.351  1.0948  0.4337 -0.1267
   73MOL0     C 9775   3.236   7.050   0.371  0.0790  0.6120 -0.6495
   73MOL0     C 9776   3.235   7.012   0.499 -0.0454 -0.5828 -1.0197
   73MOL0     C 9777   3.348   6.951   0.568  0.3437 -0.5975 -0.4476
   73MOL0     C 9778   3.471   6.967   0.513  0.2473  0.4723 -0.3175
   73MOL0     O 9779   3.591   6.926   0.565  0.4053 -0.6413 -0.2369
   73MOL0     C 9780   3.600   6.860   0.694  0.2021  0.5253  1.0095
   73MOL0     C 9781   3.732   6.785   0.696  0.2039  0.2486 -1.1450
   73MOL0     C 9782   3.750   6.685   0.814  0.1465 -0.6938  0.4080
   73MOL0     C 9783   3.881   6.603   0.791 -1.0732  0.2010  0.1949
   73MOL0     C 9784   4.005   6.680   0.814  0.0822 -0.3704  0.5470
   73MOL0     C 9785   4.113   6.735   0.816  0.1426 -0.1115  1.0144
   73MOL0     C 9786   3.477   7.025   0.388  0.9639  0.0937  0.7838
   73MOL0     C 9787   3.366   7.068   0.320  0.8080  0.6573 -0.1155
   73MOL0     H 9788   2.936   7.264   0.157 -0.7306  3.0218  1.8801
   73MOL0     H 9789   2.730   7.261   0.065  2.1787 -0.6905  0.4843
   73MOL0     H 9790   2.391   6.998   0.172  0.3645 -0.1097 -1.2169
   73MOL0     H 9791   2.385   7.153   0.266  2.8436  0.1356 -0.1241
   73MOL0     H 9792   2.285   7.279   0.118 -2.9520  2.1027 -4.3811
   73MOL0     H 9793   2.289   7.182  -0.017 -0.3974  1.2692 -0.2512
   73MOL0     H 9794   2.136   7.121   0.230 -1.2650  1.8962 -0.0297
   73MOL0     H 9795   2.075   7.217   0.101 -1.1215 -0.7024  5.7815
   73MOL0     H 9796   2.116   7.012  -0.043 -3.9844 -0.9838 -0.7345
   73MOL0     H 9797   2.135   6.921   0.108  2.5828 -0.9697 -3.0790
   73MOL0     H 9798   1.918   6.891   0.030  0.5779  1.0664 -1.3514
   73MOL0     H 9799   1.907   7.009   0.178  1.3215 -2.1706  0.9495
   73MOL0     H 9800   1.873   7.186   0.031 -1.3183 -0.2662  0.1781
   73MOL0     H 9801   1.906   7.095  -0.109  1.9631  0.3576  0.6570
   73MOL0     H 9802   1.713   6.952  -0.065  0.4262  0.0675 -1.0395
   73MOL0     H 9803   1.688   7.027   0.097  1.4657  2.7336  0.3861
   73MOL0     H 9804   1.616   7.144  -0.180  0.5462  0.6909 -0.5765
   73MOL0     H 9805   1.635   7.248  -0.039 -3.4650  1.0924  1.9364
   73MOL0     H 9806   1.495   6.884  -0.063  3.0294  0.4789  1.6563
   73MOL0     H 9807   1.306   6.757   0.060 -0.4689 -0.3889 -1.7546
   73MOL0     H 9808   1.200   6.855   0.151 -0.1862 -0.9212 -0.1951
   73MOL0     H 9809   1.045   6.884  -0.036 -0.7670 -0.1951 -2.3294
   73MOL0     H 9810   1.105   6.713  -0.014 -1.7248  1.3616  0.7387
   73MOL0     H 9811   1.234   6.735  -0.218  0.6355 -1.1183  2.0998
   73MOL0     H 9812   1.196   6.904  -0.236 -0.5770  0.1500  0.8637
   73MOL0     H 9813   0.949   6.837  -0.260  1.0417  0.2501 -1.1307
   73MOL0     H 9814   1.000   6.665  -0.249  0.8148 -1.3102 -1.5145
   73MOL0     H 9815   0.788   6.739  -0.394 -1.3033 -2.0023  0.0814
   73MOL0     H 9816   0.608   6.799  -0.474  1.0184 -0.0451 -0.3615
   73MOL0     H 9817   0.532   6.799  -0.638  0.3953  1.2980  0.7773
   73MOL0     H 9818   0.565   6.647  -0.546 -0.9468 -0.5295 -0.7995
   73MOL0     H 9819   0.563   6.968  -0.985 -1.7142  0.3903 -0.6603
   73MOL0     H 9820   0.408   6.989  -1.177 -3.1192 -2.2211  0.0683
   73MOL0     H 9821   0.519   6.774  -1.559  1.1330 -0.1949  0.5364
   73MOL0     H 9822   0.402   6.668  -1.467  0.8076  1.1595  2.5283
   73MOL0     H 9823   0.342   6.723  -1.694  0.0134  0.9387 -1.5215
   73MOL0     H 9824   0.212   6.775  -1.588  0.4196 -0.9349  2.1698
   73MOL0     H 9825   0.446   6.939  -1.689 -0.3478  0.1020  1.6721
   73MOL0     H 9826   0.296   6.997  -1.590  1.4992 -1.4036  2.3382
   73MOL0     H 9827   0.300   7.054  -1.833  1.8848  0.6406  2.1594
   73MOL0     H 9828   0.320   6.886  -1.879  0.8892  0.4298 -0.1499
   73MOL0     H 9829   0.100   6.827  -1.786 -1.3594  1.4624  3.7267
   73MOL0     H 9830   0.082   6.942  -1.923 -1.2336 -0.2958 -1.0494
   73MOL0     H 9831   0.066   7.019  -1.622  2.3649  0.4629  0.0533
   73MOL0     H 9832   0.056   7.132  -1.764 -3.5108  1.3059  2.4072
   73MOL0     H 9833  -0.115   6.895  -1.711  3.0654 -0.5667 -1.3892
   73MOL0     H 9834  -0.147   7.007  -1.843  0.3543 -2.0441 -0.2738
   73MOL0     H 9835  -0.190   7.192  -1.688 -3.8733 -0.5032 -0.7514
   73MOL0     H 9836  -0.143   7.100  -1.552  0.6239  1.3897 -0.3528
   73MOL0     H 9837   0.656   6.703  -1.387 -1.7454  1.5914 -0.7982
   73MOL0     H 9838   0.790   6.661  -1.189  2.7842  1.9572  3.1156
   73MOL0     H 9839   0.973   6.741  -0.849  1.9537  0.6169  1.3614
   73MOL0     H 9840   1.125   6.754  -0.651 -0.6912 -1.5825 -1.8201
   73MOL0     H 9841   2.555   6.994   0.345 -1.2303 -0.9946 -1.5552
   73MOL0     H 9842   2.786   6.956   0.426  2.1267  0.0096 -0.7791
   73MOL0     H 9843   3.144   6.992   0.553  0.7120 -4.2613 -0.8234
   73MOL0     H 9844   3.342   6.924   0.673 -0.2286 -1.2016 -0.6299
   73MOL0     H 9845   3.603   6.920   0.785  0.1055 -1.5996  2.4646
   73MOL0     H 9846   3.517   6.789   0.690  1.6013 -1.1549  0.5026
   73MOL0     H 9847   3.799   6.872   0.698 -3.4612  3.3663 -1.9159
   73MOL0     H 9848   3.738   6.723   0.606 -3.4218 -1.0541 -0.6674
   73MOL0     H 9849   3.657   6.627   0.816  1.6538 -3.2658  0.4545
   73MOL0     H 9850   3.759   6.742   0.907  0.8998  2.9281 -1.7119
   73MOL0     H 9851   3.884   6.570   0.687 -2.1040 -0.3579  0.3340
   73MOL0     H 9852   3.886   6.510   0.847  1.9751 -0.5437 -1.0971
   73MOL0     H 9853   4.207   6.786   0.805  0.7431 -1.0555  1.5217
   73MOL0     H 9854   3.573   7.046   0.342 -0.2965  2.9303 -0.8103
   73MOL0     H 9855   3.376   7.114   0.222  0.0114 -0.5109 -0.7561
   74MOL0     O 9856   6.184   0.702   1.346  0.7550 -0.7566  0.1445
   74MOL0     C 9857   6.148   0.667   1.236 -0.9697 -0.3048  0.0622
   74MOL0     O 9858   6.224   0.576   1.157  0.0958 -0.3734  0.5226
   74MOL0     C 9859   6.304   0.498   1.230 -0.3475 -0.0199  0.1765
   74MOL0     C 9860   6.438   0.529   1.255  0.1780  0.1883 -0.4801
   74MOL0     C 9861   6.535   0.439   1.310  0.2292  0.3282  0.2836
   74MOL0     C 9862   6.479   0.309   1.342  0.3455  0.0335 -0.3145
   74MOL0     O 9863   6.543   0.211   1.405 -0.2952 -0.5042  0.4996
   74MOL0     C 9864   6.669   0.229   1.466  0.6602 -0.4150 -0.3534
   74MOL0     C 9865   6.752   0.098   1.454  0.0327  0.5069 -1.0004
   74MOL0     C 9866   6.684  -0.009   1.534  0.2051 -0.3110  0.8326
   74MOL0     C 9867   6.774  -0.123   1.540  0.5510 -0.2713 -0.1234
   74MOL0     C 9868   6.706  -0.242   1.604 -0.4797  0.1430 -0.6704
   74MOL0     C 9869   6.777  -0.370   1.569 -0.2887  0.4076  0.4425
   74MOL0     C 9870   6.706  -0.493   1.615  0.0356 -0.0435  0.3130
   74MOL0     C 9871   6.802  -0.616   1.589  0.6544  0.4684  0.0589
   74MOL0     N 9872   6.749  -0.742   1.651 -1.0419 -0.4528 -0.6758
   74MOL0     C 9873   6.666  -0.830   1.578  0.4781 -0.6436  0.5402
   74MOL0     C 9874   6.682  -0.950   1.630 -1.0389 -1.2614  0.2154
   74MOL0     C 9875   6.608  -1.072   1.605  0.3240  0.1359 -0.4008
   74MOL0     C 9876   6.503  -1.108   1.715 -0.2940 -0.0915 -0.3387
   74MOL0     C 9877   6.403  -1.222   1.673  0.3346  1.1074  0.0585
   74MOL0     C 9878   6.453  -1.362   1.641  0.1129  0.0042  0.9607
   74MOL0     O 9879   6.490  -1.418   1.765 -0.6664 -0.2221  0.4172
   74MOL0     C 9880   6.440  -1.537   1.788  0.5496  0.0130  0.3605
   74MOL0     C 9881   6.310  -1.561   1.824  0.1251  0.3656 -0.3091
   74MOL0     C 9882   6.261  -1.690   1.853  0.9949 -1.2550 -0.3557
   74MOL0     C 9883   6.115  -1.716   1.892 -0.9617 -0.1143  0.9302
   74MOL0     C 9884   6.338  -1.803   1.833 -0.8366 -0.0239 -0.0677
   74MOL0     C 9885   6.306  -1.953   1.854 -0.1536  0.9578 -0.3524
   74MOL0     O 9886   6.273  -1.996   1.979 -0.1517  0.8845 -0.3212
   74MOL0     C 9887   6.234  -2.129   1.995 -0.1835  0.4627  0.0118
   74MOL0     C 9888   6.309  -2.237   1.950 -0.5616 -0.3097  0.5890
   74MOL0     C 9889   6.287  -2.369   1.995 -0.4116 -0.6371 -0.1222
   74MOL0     C 9890   6.165  -2.394   2.066  0.1426 -0.0907  0.5760
   74MOL0     O 9891   6.129  -2.515   2.114 -0.0114  0.1610 -0.2445
   74MOL0     C 9892   6.218  -2.587   2.210  0.0536 -0.1829 -0.2813
   74MOL0     C 9893   6.298  -2.701   2.143  0.6648  0.6984  0.2300
   74MOL0     C 9894   6.432  -2.689   2.091 -0.2387  0.1615 -0.3359
   74MOL0     C 9895   6.495  -2.827   2.065  0.2278  0.0455 -0.1545
   74MOL0     C 9896   6.624  -2.818   1.985  0.0410  0.4716  0.2373
   74MOL0     C 9897   6.711  -2.940   2.005 -0.1881  0.1415  0.3440
   74MOL0     C 9898   6.845  -2.925   1.931  0.7071  0.9033  0.2703
   74MOL0     C 9899   6.930  -3.045   1.944 -0.5955 -0.3599 -0.4177
   74MOL0    Cl 9900   6.968  -3.070   2.108 -0.0333  0.1574 -0.3397
   74MOL0     C 9901   6.085  -2.284   2.103  0.7893 -0.0768  0.0868
   74MOL0     C 9902   6.122  -2.152   2.074  0.9287  0.5102  0.9311
   74MOL0     O 9903   6.315  -2.020   1.750  0.4488  0.2847 -0.0231
   74MOL0     C 9904   6.476  -1.779   1.801  1.6914 -0.1292  0.7705
   74MOL0     C 9905   6.526  -1.647   1.781  0.0290  0.2482 -1.0630
   74MOL0     N 9906   6.774  -0.938   1.731  0.2781 -0.1764 -0.6920
   74MOL0     N 9907   6.821  -0.813   1.741  0.5523  0.5609  0.4875
   74MOL0     C 9908   6.356   0.274   1.312  0.8505  0.3534  0.6883
   74MOL0     C 9909   6.263   0.369   1.265 -0.0343 -0.2151  0.0986
   74MOL0     C 9910   6.035   0.732   1.173 -0.9975  0.2830 -1.3535
   74MOL0     C 9911   5.967   0.833   1.238 -0.5288  0.7797 -0.0367
   74MOL0     C 9912   5.882   0.907   1.159  0.2944  0.1055 -0.1312
   74MOL0     C 9913   5.829   0.875   1.028 -0.5569 -0.5922  0.3193
   74MOL0     O 9914   5.755   0.967   0.950 -0.2763  0.3439 -0.3069
   74MOL0     C 9915   5.772   0.968   0.809 -0.1346  0.2493  0.3084
   74MOL0     C 9916   5.760   1.104   0.746  0.7198 -1.1071 -0.4824
   74MOL0     C 9917   5.794   1.094   0.600 -0.4440 -0.1221 -0.6994
   74MOL0     C 9918   5.724   1.198   0.515 -0.0860  0.3747 -0.6480
   74MOL0     C 9919   5.782   1.173   0.386  1.0384 -0.0312  0.1547
   74MOL0     C 9920   5.828   1.143   0.279  0.5079  0.1677  0.3621
   74MOL0     C 9921   5.891   0.760   0.975  0.8548 -0.3230  0.9616
   74MOL0     C 9922   5.994   0.694   1.050  0.3230 -0.1239  0.0419
   74MOL0     H 9923   6.460   0.628   1.217  2.5580 -0.0788  0.0849
   74MOL0     H 9924   6.641   0.459   1.321  1.6729 -4.3131 -2.2033
   74MOL0     H 9925   6.722   0.314   1.422 -0.3388 -0.8272 -2.5074
   74MOL0     H 9926   6.639   0.250   1.570  1.9787 -3.6269  0.7922
   74MOL0     H 9927   6.763   0.071   1.349  0.3419 -1.0618 -0.5896
   74MOL0     H 9928   6.844   0.128   1.505 -1.7314  3.7865  0.5642
   74MOL0     H 9929   6.665   0.025   1.636  3.8747 -1.1530  1.9560
   74MOL0     H 9930   6.594  -0.047   1.485  1.5047 -2.6950  0.1189
   74MOL0     H 9931   6.805  -0.161   1.442 -1.5380 -3.1345  0.2137
   74MOL0     H 9932   6.862  -0.082   1.590  1.6968  1.3802 -3.2297
   74MOL0     H 9933   6.705  -0.236   1.713  3.0943 -1.7830 -0.3788
   74MOL0     H 9934   6.604  -0.262   1.570 -0.7121  1.2663 -0.6825
   74MOL0     H 9935   6.813  -0.380   1.466 -2.0535 -0.8825 -0.0864
   74MOL0     H 9936   6.868  -0.375   1.630  0.5109 -0.1796 -0.7510
   74MOL0     H 9937   6.700  -0.493   1.724  3.0400  2.0837  0.6099
   74MOL0     H 9938   6.608  -0.497   1.567  0.4782 -0.1251 -0.6081
   74MOL0     H 9939   6.891  -0.589   1.647 -0.0032  2.3293  0.2721
   74MOL0     H 9940   6.822  -0.633   1.483 -0.7843  0.4632 -0.2241
   74MOL0     H 9941   6.600  -0.800   1.497 -0.3011  1.5627  1.8859
   74MOL0     H 9942   6.554  -1.062   1.511 -2.7413 -1.8946  0.9731
   74MOL0     H 9943   6.673  -1.158   1.622  1.2511  0.6760 -1.1791
   74MOL0     H 9944   6.443  -1.023   1.750 -2.3952 -1.2629 -0.9471
   74MOL0     H 9945   6.557  -1.145   1.802  0.2399 -0.3044 -0.7505
   74MOL0     H 9946   6.347  -1.190   1.584  1.1581  0.5865 -0.6628
   74MOL0     H 9947   6.331  -1.232   1.755  1.4351 -1.7258  0.7716
   74MOL0     H 9948   6.537  -1.343   1.574 -1.1318  1.7829 -0.1941
   74MOL0     H 9949   6.374  -1.418   1.589 -0.1565  0.6387  0.6705
   74MOL0     H 9950   6.239  -1.482   1.844 -2.2108 -1.7026  0.0646
   74MOL0     H 9951   6.061  -1.621   1.899 -1.2951  0.0446 -2.1982
   74MOL0     H 9952   6.082  -1.779   1.808  3.9873  0.1403 -1.5949
   74MOL0     H 9953   6.089  -1.773   1.981  1.8480 -0.4616  1.6186
   74MOL0     H 9954   6.397  -2.214   1.891 -1.3194 -2.2693 -1.4468
   74MOL0     H 9955   6.346  -2.456   1.971 -2.1065 -1.7929 -0.2565
   74MOL0     H 9956   6.289  -2.520   2.260 -1.0591 -1.7361  3.8230
   74MOL0     H 9957   6.148  -2.622   2.287 -3.5695  2.4333 -2.1104
   74MOL0     H 9958   6.300  -2.778   2.220 -1.4378 -1.0041 -1.2934
   74MOL0     H 9959   6.233  -2.738   2.063 -0.1841  1.9789  0.2924
   74MOL0     H 9960   6.500  -2.641   2.163 -0.1799 -0.3169 -0.0709
   74MOL0     H 9961   6.428  -2.637   1.995  2.1734 -1.9355 -1.7034
   74MOL0     H 9962   6.504  -2.874   2.163 -0.7641 -0.6515 -0.3811
   74MOL0     H 9963   6.435  -2.884   1.993  1.9905  1.9013 -3.2935
   74MOL0     H 9964   6.675  -2.728   2.022  1.3888 -0.3628  0.4895
   74MOL0     H 9965   6.608  -2.798   1.879 -0.9393  2.2192  0.6729
   74MOL0     H 9966   6.733  -2.947   2.112 -1.8482  1.1083  0.7826
   74MOL0     H 9967   6.641  -3.019   1.975 -2.5228  2.3307 -0.4036
   74MOL0     H 9968   6.901  -2.835   1.956  2.9989 -0.2982 -0.2450
   74MOL0     H 9969   6.816  -2.913   1.827  0.8975  3.1308  0.4413
   74MOL0     H 9970   7.025  -3.029   1.892 -0.9510 -0.0088 -0.9754
   74MOL0     H 9971   6.880  -3.134   1.906  0.4885 -0.5370 -1.5222
   74MOL0     H 9972   6.008  -2.291   2.180 -1.2560  0.7476 -1.7814
   74MOL0     H 9973   6.057  -2.069   2.101 -0.8755 -0.7752  0.7676
   74MOL0     H 9974   6.544  -1.864   1.791 -0.8839 -2.2836  0.4505
   74MOL0     H 9975   6.625  -1.628   1.742  0.7510  1.4682  1.1614
   74MOL0     H 9976   6.314   0.175   1.327 -3.4954  1.7255 -0.7959
   74MOL0     H 9977   6.162   0.344   1.233  0.6026 -0.3516 -1.9668
   74MOL0     H 9978   5.991   0.861   1.340 -0.9846 -0.7183  0.5062
   74MOL0     H 9979   5.846   0.991   1.218 -1.1379 -0.9832  0.5968
   74MOL0     H 9980   5.871   0.929   0.786 -0.4539 -0.1707 -0.4223
   74MOL0     H 9981   5.690   0.909   0.766  0.1094  0.7488 -0.8953
   74MOL0     H 9982   5.823   1.172   0.804 -1.1511  0.3179 -0.0287
   74MOL0     H 9983   5.658   1.140   0.762  1.6480  2.2167 -1.2819
   74MOL0     H 9984   5.768   0.993   0.568  2.7967 -0.6592 -2.0918
   74MOL0     H 9985   5.903   1.102   0.596 -0.3866  0.0728  0.6732
   74MOL0     H 9986   5.746   1.300   0.548 -1.4308  0.5400 -0.2345
   74MOL0     H 9987   5.616   1.182   0.519  0.1097 -0.8326  0.7931
   74MOL0     H 9988   5.882   1.110   0.193 -1.0483  1.7792 -1.3137
   74MOL0     H 9989   5.860   0.736   0.873 -2.1061  1.2456  1.3913
   74MOL0     H 9990   6.033   0.604   1.002 -2.6689 -1.1207 -0.7182
   75MOL0     O 9991   3.677   4.761   4.590 -0.0972  0.2621  0.0165
   75MOL0     C 9992   3.779   4.816   4.628  0.2620  0.3712  0.1858
   75MOL0     O 9993   3.830   4.937   4.575 -0.3150  0.5633  0.5192
   75MOL0     C 9994   3.762   4.974   4.463  0.5043  0.1235  1.0682
   75MOL0     C 9995   3.668   5.083   4.475 -0.5177  0.3140 -0.9957
   75MOL0     C 9996   3.581   5.113   4.371 -0.4706  0.7787  0.9183
   75MOL0     C 9997   3.587   5.044   4.244 -0.8694 -0.0236  0.6268
   75MOL0     O 9998   3.527   5.080   4.126  0.1560 -1.0169 -0.2934
   75MOL0     C 9999   3.457   5.214   4.116 -0.7736  0.7973 -0.1069
   75MOL0     C10000   3.450   5.258   3.972  0.3265  0.3983 -0.2292
   75MOL0     C10001   3.386   5.391   3.973 -0.2040 -0.6607  0.0063
   75MOL0     C10002   3.333   5.414   3.832 -0.8868  0.0675 -0.7694
   75MOL0     C10003   3.242   5.546   3.829  0.0217  0.4324 -0.4205
   75MOL0     C10004   3.101   5.531   3.893  0.1033  0.2584 -0.9471
   75MOL0     C10005   3.009   5.656   3.872 -0.6393 -0.1933 -0.6357
   75MOL0     C10006   2.882   5.656   3.966 -0.0697  0.9442 -0.4374
   75MOL0     N10007   2.779   5.755   3.941 -1.0489 -0.0382  0.1179
   75MOL0     C10008   2.716   5.768   3.821  0.2265  0.4179  1.0275
   75MOL0     C10009   2.622   5.867   3.851  0.3650 -0.0816  0.4420
   75MOL0     C10010   2.508   5.913   3.768 -0.7191  0.5750 -1.4173
   75MOL0     C10011   2.545   5.978   3.640 -0.6162  1.0564  0.6134
   75MOL0     C10012   2.486   5.909   3.508  0.1299  0.2231  0.6534
   75MOL0     C10013   2.337   5.931   3.493  0.9552  0.2899  0.4846
   75MOL0     O10014   2.293   5.839   3.384  0.2027 -0.0618  0.1652
   75MOL0     C10015   2.263   5.713   3.420  0.6340  0.4803 -0.3196
   75MOL0     C10016   2.244   5.629   3.308  0.5716 -0.0284 -0.0433
   75MOL0     C10017   2.236   5.492   3.321  0.4191  0.2724 -0.1329
   75MOL0     C10018   2.233   5.412   3.198  0.5125 -0.8989 -0.0623
   75MOL0     C10019   2.259   5.430   3.451  1.1078 -0.1504  0.0869
   75MOL0     C10020   2.269   5.285   3.474  0.3346  0.3917  0.7039
   75MOL0     O10021   2.244   5.207   3.367 -0.1953 -0.0304  0.2264
   75MOL0     C10022   2.209   5.074   3.374  0.2526 -0.1619 -0.5512
   75MOL0     C10023   2.149   5.009   3.482  0.1860  0.1338 -0.7667
   75MOL0     C10024   2.127   4.869   3.478 -0.5445  0.5574  0.6726
   75MOL0     C10025   2.128   4.805   3.346  0.9316 -0.2041 -2.0139
   75MOL0     O10026   2.064   4.687   3.336  0.1433  0.4999  0.0962
   75MOL0     C10027   2.096   4.591   3.437 -0.6262 -0.1287 -0.3238
   75MOL0     C10028   2.023   4.457   3.413  0.7882 -0.7513 -0.9407
   75MOL0     C10029   2.075   4.353   3.504  0.5611 -0.6630 -0.4813
   75MOL0     C10030   2.001   4.221   3.475 -0.7330  1.1715  0.4772
   75MOL0     C10031   2.019   4.119   3.582 -0.4757 -0.3754  0.7022
   75MOL0     C10032   1.933   3.993   3.556  0.2501  0.6434  0.1332
   75MOL0     C10033   1.939   3.898   3.673  0.3291 -0.6679 -0.3574
   75MOL0     C10034   1.862   3.767   3.661 -0.5642 -0.5783 -0.8829
   75MOL0    Cl10035   1.691   3.799   3.661 -0.3889  0.1133  0.0745
   75MOL0     C10036   2.170   4.880   3.234 -0.8925 -0.3913 -0.6448
   75MOL0     C10037   2.219   5.011   3.248 -0.1008 -0.7393  0.0329
   75MOL0     O10038   2.283   5.237   3.588 -1.0282 -0.3248  0.4099
   75MOL0     C10039   2.273   5.511   3.558  0.1077 -0.8684 -0.5463
   75MOL0     C10040   2.270   5.654   3.556 -0.3915 -0.1130  0.7510
   75MOL0     N10041   2.636   5.906   3.984 -0.8077 -0.7848  0.3911
   75MOL0     N10042   2.734   5.835   4.037  0.8127 -0.0641  0.7301
   75MOL0     C10043   3.675   4.931   4.238 -0.0586 -1.2065  0.1910
   75MOL0     C10044   3.760   4.900   4.346  0.6546  1.2021  0.8103
   75MOL0     C10045   3.842   4.759   4.746  0.3510 -0.5911 -0.6515
   75MOL0     C10046   3.808   4.641   4.800  0.0185 -0.2051 -0.4492
   75MOL0     C10047   3.881   4.585   4.906 -0.2304  0.5456  0.3648
   75MOL0     C10048   3.977   4.650   4.967  0.1940  1.6495 -0.2712
   75MOL0     O10049   4.027   4.589   5.084 -0.1375  0.1302  0.1203
   75MOL0     C10050   4.153   4.649   5.129  0.2547  0.1305 -0.3600
   75MOL0     C10051   4.214   4.561   5.244 -0.9494  0.6645 -0.2139
   75MOL0     C10052   4.171   4.618   5.377 -0.2415 -0.8514 -0.3011
   75MOL0     C10053   4.190   4.518   5.492 -0.2787  0.0783  0.1052
   75MOL0     C10054   4.335   4.513   5.535  0.9990 -0.4951 -0.6062
   75MOL0     C10055   4.453   4.525   5.571 -0.4860  0.4535 -0.6283
   75MOL0     C10056   4.013   4.773   4.911 -0.2864  0.0398 -0.5348
   75MOL0     C10057   3.952   4.828   4.801 -0.9484  0.1971  0.4457
   75MOL0     H10058   3.658   5.130   4.572  0.5352  1.8792 -1.6076
   75MOL0     H10059   3.507   5.192   4.381 -4.2129 -1.8123 -2.8627
   75MOL0     H10060   3.359   5.199   4.163 -0.2045  0.6909  1.0722
   75MOL0     H10061   3.520   5.280   4.176 -0.1378  0.3037 -0.2243
   75MOL0     H10062   3.555   5.255   3.941  1.0778  1.7078  1.9819
   75MOL0     H10063   3.402   5.187   3.904 -0.6849 -1.3327  2.1298
   75MOL0     H10064   3.297   5.399   4.037 -2.5394 -3.5726 -2.5154
   75MOL0     H10065   3.455   5.472   3.995 -0.2526 -0.3547 -0.9133
   75MOL0     H10066   3.420   5.411   3.766  1.0797 -1.6533  1.6846
   75MOL0     H10067   3.279   5.323   3.806 -0.3451 -1.0853  1.7855
   75MOL0     H10068   3.287   5.635   3.873 -2.1517  3.2805 -3.4290
   75MOL0     H10069   3.230   5.562   3.721 -0.1117 -0.8815 -0.6257
   75MOL0     H10070   3.057   5.445   3.841 -0.6176 -0.0244  0.1032
   75MOL0     H10071   3.115   5.510   4.000 -0.2147  3.7568 -0.1078
   75MOL0     H10072   3.067   5.743   3.901 -0.1363 -1.0295  1.0422
   75MOL0     H10073   2.973   5.663   3.769 -1.8827  2.6852 -0.1039
   75MOL0     H10074   2.908   5.675   4.070  0.0690 -0.4636 -0.1957
   75MOL0     H10075   2.838   5.555   3.970  0.0356  0.9242  0.3016
   75MOL0     H10076   2.745   5.706   3.737  3.3607 -0.3944  2.5374
   75MOL0     H10077   2.430   5.840   3.745 -0.5321  0.9114 -3.2463
   75MOL0     H10078   2.460   5.992   3.827  2.1079 -0.0068  1.9717
   75MOL0     H10079   2.653   5.975   3.627 -0.8807 -0.8672 -1.8946
   75MOL0     H10080   2.507   6.080   3.651 -1.3052  0.8165  0.5623
   75MOL0     H10081   2.506   5.801   3.509  0.1157  0.2264  1.4963
   75MOL0     H10082   2.527   5.957   3.419  1.7494  1.9872  2.2542
   75MOL0     H10083   2.313   6.035   3.468 -1.3230  0.3224  2.5553
   75MOL0     H10084   2.285   5.910   3.587  0.1344  1.6877  0.3723
   75MOL0     H10085   2.247   5.673   3.209  1.9875 -2.0885 -0.9612
   75MOL0     H10086   2.225   5.479   3.111 -1.3417 -0.1217  0.6580
   75MOL0     H10087   2.322   5.353   3.175  0.1704 -0.4644 -2.9100
   75MOL0     H10088   2.145   5.350   3.213 -0.7693  1.3938  2.9253
   75MOL0     H10089   2.121   5.066   3.570  1.9654  0.3300 -0.2736
   75MOL0     H10090   2.072   4.832   3.565 -1.8601 -0.8449 -0.6975
   75MOL0     H10091   2.203   4.584   3.459 -0.5630  1.0618 -0.1823
   75MOL0     H10092   2.062   4.612   3.539  3.4797 -3.9286  2.2195
   75MOL0     H10093   1.915   4.473   3.421  0.7553  0.3854 -2.9127
   75MOL0     H10094   2.046   4.434   3.309 -2.1882 -0.6636 -1.6816
   75MOL0     H10095   2.068   4.387   3.608 -4.0632  0.8157 -1.0471
   75MOL0     H10096   2.179   4.332   3.478  1.9928  0.6247  3.4101
   75MOL0     H10097   1.895   4.246   3.470 -1.6517 -2.4207 -0.2317
   75MOL0     H10098   2.046   4.186   3.382  2.0869  2.3109  1.2864
   75MOL0     H10099   2.002   4.169   3.678 -1.1667  0.0577  0.3614
   75MOL0     H10100   2.121   4.080   3.591  0.1061  1.4676  3.1417
   75MOL0     H10101   1.828   4.023   3.557  0.4636  1.4782 -0.7758
   75MOL0     H10102   1.957   3.940   3.464 -0.8008 -3.0292  1.8127
   75MOL0     H10103   1.915   3.963   3.757  2.2077  1.0838 -1.0952
   75MOL0     H10104   2.042   3.862   3.685 -0.0104 -1.5691 -0.0478
   75MOL0     H10105   1.892   3.715   3.752  2.2314  3.2076  0.6096
   75MOL0     H10106   1.895   3.715   3.570 -0.2008 -1.9146 -0.0196
   75MOL0     H10107   2.163   4.824   3.141 -3.5427  0.2942 -0.9457
   75MOL0     H10108   2.250   5.071   3.164 -1.1397 -0.5084 -0.1901
   75MOL0     H10109   2.266   5.479   3.662 -0.6658  1.4340  0.1707
   75MOL0     H10110   2.287   5.713   3.646  3.3212  1.1273 -0.5633
   75MOL0     H10111   3.672   4.882   4.141 -0.7974 -0.4552 -0.1801
   75MOL0     H10112   3.831   4.818   4.342 -2.0272 -1.2283 -2.5512
   75MOL0     H10113   3.731   4.584   4.749  0.7750  0.3348 -2.3148
   75MOL0     H10114   3.845   4.484   4.920 -2.1298  0.7278 -2.3833
   75MOL0     H10115   4.223   4.663   5.046  0.6183 -3.3469 -0.8165
   75MOL0     H10116   4.124   4.744   5.174  0.2354 -0.6748  1.4402
   75MOL0     H10117   4.321   4.578   5.232 -0.3808 -0.0266  2.9787
   75MOL0     H10118   4.182   4.457   5.231 -4.1959  1.5358 -0.0814
   75MOL0     H10119   4.063   4.638   5.382 -0.6230 -1.8360 -3.0810
   75MOL0     H10120   4.218   4.715   5.396  2.3747 -2.3821  1.7586
   75MOL0     H10121   4.165   4.415   5.465 -0.3749 -0.1610  1.0697
   75MOL0     H10122   4.126   4.548   5.575  0.7586 -1.0147  1.3587
   75MOL0     H10123   4.555   4.510   5.601  0.1302  2.4003 -1.5733
   75MOL0     H10124   4.101   4.823   4.951 -1.6780  1.3451  1.0348
   75MOL0     H10125   3.994   4.912   4.746 -1.3387  2.5203  3.4100
   76MOL0     O10126  10.233   8.856   1.955  0.3045  0.3288  0.1098
   76MOL0     C10127  10.283   8.960   1.914 -0.1244  0.1649 -0.4945
   76MOL0     O10128  10.405   8.979   1.856  0.0390 -0.1005  0.6220
   76MOL0     C10129  10.496   8.875   1.872 -1.0145 -0.4024 -0.6080
   76MOL0     C10130  10.556   8.801   1.770  0.0245 -0.5390  0.2460
   76MOL0     C10131  10.660   8.708   1.788 -0.1923 -0.0726 -0.5757
   76MOL0     C10132  10.711   8.694   1.922 -0.0743 -0.5103  0.4089
   76MOL0     O10133  10.816   8.604   1.959 -0.8274  0.7718  0.0033
   76MOL0     C10134  10.787   8.495   2.037  0.7086 -0.0607 -0.3640
   76MOL0     C10135  10.739   8.381   1.954 -0.3561  0.7304 -0.4429
   76MOL0     C10136  10.732   8.243   2.020  0.2147 -0.2079 -0.2859
   76MOL0     C10137  10.621   8.238   2.116  0.7277 -0.1427 -0.0078
   76MOL0     C10138  10.626   8.111   2.203 -0.7940  0.1244  0.2326
   76MOL0     C10139  10.585   8.119   2.343 -0.6568 -0.5866 -0.6882
   76MOL0     C10140  10.567   7.992   2.421  0.5636 -0.4744  0.2958
   76MOL0     C10141  10.504   8.023   2.553 -0.5111 -0.8508 -0.2463
   76MOL0     N10142  10.365   7.988   2.543 -0.5921 -0.0341 -0.2722
   76MOL0     C10143  10.305   7.914   2.643  0.2337  0.0946  0.6767
   76MOL0     C10144  10.174   7.937   2.629  0.4610 -0.5564  0.5030
   76MOL0     C10145  10.070   7.859   2.697 -0.2068  1.1026  0.5340
   76MOL0     C10146   9.996   7.938   2.795  1.4702  0.1728 -0.0263
   76MOL0     C10147  10.084   7.961   2.908 -0.5435  1.1109 -0.3213
   76MOL0     C10148  10.012   8.008   3.036  0.7148  1.3396  1.2606
   76MOL0     O10149  10.111   8.012   3.139 -0.2570 -0.8945  0.0659
   76MOL0     C10150  10.085   8.082   3.252  0.0222  0.5401  0.1388
   76MOL0     C10151   9.957   8.119   3.296 -0.7098  0.0466  0.4309
   76MOL0     C10152   9.929   8.174   3.420  0.3457 -0.5501  0.2449
   76MOL0     C10153   9.795   8.215   3.450  0.0713 -0.0873 -1.3224
   76MOL0     C10154  10.026   8.189   3.517 -0.3443  0.4636 -0.4105
   76MOL0     C10155  10.014   8.275   3.638 -0.2946  0.0720 -0.3512
   76MOL0     O10156   9.991   8.404   3.615  0.5984 -0.0336 -0.6684
   76MOL0     C10157   9.945   8.473   3.730 -0.0434 -0.3407  0.1810
   76MOL0     C10158  10.028   8.547   3.818  0.0285 -0.1252 -0.9947
   76MOL0     C10159   9.973   8.610   3.923  1.1838 -1.0406  0.0351
   76MOL0     C10160   9.834   8.599   3.959  0.6894 -0.3772  0.6920
   76MOL0     O10161   9.781   8.637   4.082  0.1772 -0.2294 -0.2841
   76MOL0     C10162   9.859   8.667   4.192  0.4291  0.0197 -0.2715
   76MOL0     C10163   9.778   8.648   4.322 -0.2413 -0.7607  0.1024
   76MOL0     C10164   9.821   8.724   4.445 -0.3994  0.3203  0.0157
   76MOL0     C10165   9.711   8.758   4.540  0.5727 -0.1743  0.5024
   76MOL0     C10166   9.675   8.632   4.614  0.1539  0.8329  0.2390
   76MOL0     C10167   9.572   8.645   4.722  0.3100  0.5142  0.4658
   76MOL0     C10168   9.624   8.719   4.845  0.1211  0.3038  0.2535
   76MOL0     C10169   9.535   8.713   4.963  0.9801  0.0408  0.8045
   76MOL0    Cl10170   9.364   8.761   4.933 -0.1506 -0.5619 -0.0589
   76MOL0     C10171   9.746   8.544   3.861 -0.6647 -0.7652  0.0341
   76MOL0     C10172   9.809   8.487   3.746 -0.0269  0.0117 -0.2358
   76MOL0     O10173  10.007   8.220   3.745  0.6568 -0.4958 -0.6217
   76MOL0     C10174  10.154   8.156   3.484 -0.6371 -0.3240  0.3721
   76MOL0     C10175  10.186   8.106   3.348 -0.8449 -0.6358 -0.8310
   76MOL0     N10176  10.151   8.032   2.536  0.3210  0.1275 -0.1312
   76MOL0     N10177  10.264   8.049   2.475 -0.3688 -0.0389 -0.1365
   76MOL0     C10178  10.649   8.767   2.028  0.0018  0.1751  0.4542
   76MOL0     C10179  10.549   8.858   2.002 -0.0559  0.4792  0.5125
   76MOL0     C10180  10.203   9.085   1.929  0.3619  1.2323 -0.6326
   76MOL0     C10181  10.242   9.197   1.855 -0.3965 -0.4393  0.1202
   76MOL0     C10182  10.175   9.314   1.871  0.9054 -0.3261  0.5932
   76MOL0     C10183  10.064   9.324   1.953 -0.2537 -0.4176 -0.1299
   76MOL0     O10184   9.986   9.426   1.951  0.3570 -0.0671 -0.2738
   76MOL0     C10185  10.035   9.556   1.958 -0.6823  0.7217  0.6195
   76MOL0     C10186  10.049   9.576   2.107 -0.0652  0.9429 -0.2268
   76MOL0     C10187  10.092   9.720   2.136 -0.8023 -0.0090  0.7178
   76MOL0     C10188  10.108   9.744   2.289 -0.4782  0.3155  0.2399
   76MOL0     C10189   9.982   9.718   2.355 -0.2114  0.0418 -1.1992
   76MOL0     C10190   9.895   9.691   2.431 -0.1113  0.0826  0.2758
   76MOL0     C10191  10.013   9.209   2.015  0.5821 -0.0683 -0.2378
   76MOL0     C10192  10.080   9.088   2.006 -0.4211  0.0004  0.2950
   76MOL0     H10193  10.520   8.824   1.670 -2.6932  0.6093  1.3743
   76MOL0     H10194  10.712   8.659   1.706 -1.1169 -0.0760 -1.1695
   76MOL0     H10195  10.875   8.453   2.088  0.2064  0.5588  1.0611
   76MOL0     H10196  10.714   8.528   2.111 -1.5341 -1.3440 -1.9038
   76MOL0     H10197  10.647   8.407   1.901 -1.0874  1.7167  1.2057
   76MOL0     H10198  10.808   8.376   1.870 -1.9924 -2.7305 -1.7577
   76MOL0     H10199  10.705   8.167   1.946 -2.0895  0.8909 -0.6842
   76MOL0     H10200  10.821   8.215   2.076 -0.1216 -2.8634 -0.9866
   76MOL0     H10201  10.605   8.331   2.170 -2.9466 -0.2733 -0.6066
   76MOL0     H10202  10.529   8.229   2.057 -0.4691  2.3040  1.3200
   76MOL0     H10203  10.572   8.034   2.147  2.0135 -1.4761 -0.5160
   76MOL0     H10204  10.724   8.063   2.192  0.5398  3.1696 -3.3142
   76MOL0     H10205  10.671   8.165   2.393 -0.9364 -0.9291  0.1278
   76MOL0     H10206  10.499   8.186   2.343  0.1755  0.6373  2.4487
   76MOL0     H10207  10.509   7.918   2.366 -2.1604  0.2749  1.9588
   76MOL0     H10208  10.671   7.959   2.429  1.2162  0.8910 -1.5986
   76MOL0     H10209  10.520   8.126   2.587  1.8438 -1.1777 -0.1691
   76MOL0     H10210  10.556   7.958   2.624 -1.5194  0.6135  1.9185
   76MOL0     H10211  10.348   7.845   2.714  0.3594  0.9327  1.4277
   76MOL0     H10212  10.014   7.801   2.623  1.3905  0.4824 -0.2249
   76MOL0     H10213  10.111   7.781   2.761 -0.1775  0.7409  0.0792
   76MOL0     H10214   9.907   7.883   2.826  1.7514  0.0063  0.4938
   76MOL0     H10215   9.953   8.029   2.751 -3.1201 -0.3466  2.7062
   76MOL0     H10216  10.172   8.025   2.891  1.6131 -2.2258 -3.0433
   76MOL0     H10217  10.131   7.869   2.943 -0.9109 -0.0271 -2.6103
   76MOL0     H10218   9.938   7.936   3.073  2.3589 -0.1495  1.8003
   76MOL0     H10219   9.963   8.104   3.019 -1.0774  0.5209  1.5470
   76MOL0     H10220   9.879   8.093   3.226  1.0239 -0.4789 -1.3976
   76MOL0     H10221   9.791   8.310   3.504  3.3516  0.8140 -2.4322
   76MOL0     H10222   9.731   8.222   3.362 -2.5324 -0.5077  0.4220
   76MOL0     H10223   9.749   8.138   3.513  4.4921 -0.5325  1.8209
   76MOL0     H10224  10.136   8.545   3.805  0.3010  0.7209  0.8954
   76MOL0     H10225  10.037   8.678   3.980 -2.3420  2.2975  0.3901
   76MOL0     H10226   9.948   8.603   4.193 -0.8711 -1.8539  0.7749
   76MOL0     H10227   9.868   8.776   4.181 -0.5900  0.0603 -0.7948
   76MOL0     H10228   9.682   8.678   4.279  1.1299  1.8375 -1.4454
   76MOL0     H10229   9.781   8.540   4.339 -0.7554 -0.9890 -1.1723
   76MOL0     H10230   9.852   8.826   4.422 -2.8652  1.7884  2.4819
   76MOL0     H10231   9.900   8.670   4.499 -0.0929  1.9427  1.2950
   76MOL0     H10232   9.740   8.826   4.621 -0.1100  1.8506 -0.8638
   76MOL0     H10233   9.629   8.807   4.487 -0.3318 -0.9811  1.1248
   76MOL0     H10234   9.768   8.587   4.649 -0.3429 -0.1016  0.3868
   76MOL0     H10235   9.633   8.555   4.549  1.0676 -0.7435  1.4414
   76MOL0     H10236   9.475   8.684   4.690  1.0649  0.4855 -2.1134
   76MOL0     H10237   9.555   8.538   4.736 -1.3305  0.0482 -3.5328
   76MOL0     H10238   9.634   8.824   4.816 -0.2861  0.0875 -0.7178
   76MOL0     H10239   9.723   8.687   4.876  0.8231  2.1421  0.0614
   76MOL0     H10240   9.575   8.784   5.036  1.9310 -0.7907  1.1119
   76MOL0     H10241   9.540   8.614   5.010  0.2280  0.0906  0.9925
   76MOL0     H10242   9.640   8.556   3.882 -0.6491  1.6382 -0.9993
   76MOL0     H10243   9.754   8.437   3.667  1.3737 -2.2178  0.1119
   76MOL0     H10244  10.221   8.193   3.561 -1.7814 -0.3647  1.4204
   76MOL0     H10245  10.290   8.105   3.319 -0.9358 -2.6640 -1.2006
   76MOL0     H10246  10.701   8.756   2.123 -1.0510  0.4456  1.0767
   76MOL0     H10247  10.502   8.906   2.087 -1.1843 -2.6066  1.7568
   76MOL0     H10248  10.321   9.200   1.780  0.4060 -1.0868  0.9125
   76MOL0     H10249  10.211   9.405   1.823 -1.3081 -0.1657 -0.9447
   76MOL0     H10250  10.130   9.571   1.907  0.2684  2.2504  2.6864
   76MOL0     H10251   9.955   9.617   1.916 -1.4253 -0.7888 -0.2481
   76MOL0     H10252  10.120   9.507   2.152 -3.6052 -3.0369 -0.1577
   76MOL0     H10253   9.951   9.552   2.149 -1.1441  2.2914 -1.8100
   76MOL0     H10254  10.012   9.776   2.086 -0.3273 -0.5330 -0.6941
   76MOL0     H10255  10.180   9.755   2.081 -1.3447  3.0344  1.5776
   76MOL0     H10256  10.137   9.848   2.307 -0.0069  0.3929 -0.9017
   76MOL0     H10257  10.190   9.683   2.329 -0.1407  0.0548 -0.8264
   76MOL0     H10258   9.815   9.671   2.499 -1.2245 -0.1691 -1.0593
   76MOL0     H10259   9.917   9.236   2.059 -0.2840 -0.9400 -1.5203
   76MOL0     H10260  10.052   8.995   2.054 -2.3287  0.8089  0.8414
   77MOL0     O10261   9.483   9.562   6.851 -0.3958 -0.2981 -1.0089
   77MOL0     C10262   9.446   9.667   6.902 -0.0192 -0.0705 -0.4098
   77MOL0     O10263   9.309   9.706   6.907 -0.5040  0.1627 -0.3181
   77MOL0     C10264   9.211   9.605   6.890 -0.0113  0.3099 -0.0159
   77MOL0     C10265   9.219   9.473   6.921 -0.1076  0.2792 -0.2343
   77MOL0     C10266   9.125   9.378   6.896 -0.2886  0.5192  0.2908
   77MOL0     C10267   9.004   9.423   6.859 -0.1574 -0.0674  0.0404
   77MOL0     O10268   8.908   9.321   6.851 -0.2061  0.5471  0.2589
   77MOL0     C10269   8.781   9.361   6.790  0.4764 -0.1287  0.4154
   77MOL0     C10270   8.696   9.240   6.766 -0.1094  0.8824  1.3563
   77MOL0     C10271   8.558   9.257   6.714  0.1516  0.9123  0.1663
   77MOL0     C10272   8.498   9.127   6.652 -0.5758 -0.9112  0.4619
   77MOL0     C10273   8.487   9.012   6.756  0.3248 -0.6867 -0.3172
   77MOL0     C10274   8.412   8.908   6.702 -0.1868  0.4145  0.2792
   77MOL0     C10275   8.410   8.777   6.783 -0.1949 -0.4747  0.3618
   77MOL0     C10276   8.373   8.654   6.693  0.0317  0.5378  0.0353
   77MOL0     N10277   8.237   8.665   6.636  0.1088  0.2849 -0.3512
   77MOL0     C10278   8.123   8.695   6.708  0.1714 -0.2897  0.3436
   77MOL0     C10279   8.029   8.695   6.609 -0.1807 -0.5440  1.0534
   77MOL0     C10280   7.890   8.712   6.627  0.0988  0.3809  0.1953
   77MOL0     C10281   7.826   8.602   6.724 -0.1801 -0.1054  0.3080
   77MOL0     C10282   7.839   8.455   6.690 -0.9601  0.2482  0.1934
   77MOL0     C10283   7.800   8.410   6.552 -0.9189  0.0535 -0.3310
   77MOL0     O10284   7.668   8.448   6.538  0.2155 -0.4653 -0.1791
   77MOL0     C10285   7.583   8.390   6.450 -0.1728  0.2895 -0.7614
   77MOL0     C10286   7.619   8.302   6.352  0.2840  0.0709  1.0310
   77MOL0     C10287   7.518   8.246   6.269  0.5596  0.0898 -0.3187
   77MOL0     C10288   7.560   8.140   6.173  0.5267  0.4494  1.1124
   77MOL0     C10289   7.379   8.280   6.277  0.0165  0.1461 -0.7946
   77MOL0     C10290   7.277   8.240   6.183  0.6282 -0.2640 -0.7885
   77MOL0     O10291   7.305   8.263   6.051 -0.1606 -0.2770 -0.5266
   77MOL0     C10292   7.228   8.190   5.965 -0.2571 -0.1517 -0.1271
   77MOL0     C10293   7.290   8.091   5.885  0.2841 -0.6456 -0.8880
   77MOL0     C10294   7.221   8.003   5.796 -0.3549  0.7975 -1.2119
   77MOL0     C10295   7.087   8.025   5.775  0.0648  1.2569 -0.4954
   77MOL0     O10296   7.010   7.961   5.681 -0.2847 -0.4634 -0.4197
   77MOL0     C10297   7.021   7.816   5.679  0.4198 -0.3498 -0.4833
   77MOL0     C10298   6.906   7.758   5.593  0.6709 -0.2210  0.0703
   77MOL0     C10299   6.790   7.705   5.686 -0.5579  0.1000  0.3541
   77MOL0     C10300   6.684   7.612   5.614 -0.0687 -0.8267  0.3969
   77MOL0     C10301   6.584   7.699   5.544  1.1245 -0.5587 -0.1212
   77MOL0     C10302   6.457   7.632   5.512  0.0207  0.8385 -0.6337
   77MOL0     C10303   6.475   7.503   5.437  0.2009 -1.0122 -0.7072
   77MOL0     C10304   6.343   7.462   5.364  0.4419  0.0498  0.1304
   77MOL0    Cl10305   6.200   7.473   5.474 -0.3174 -0.6328  0.1391
   77MOL0     C10306   7.023   8.132   5.845 -0.2699  0.4611 -1.1378
   77MOL0     C10307   7.091   8.208   5.943 -0.3827 -0.5197  0.2467
   77MOL0     O10308   7.167   8.203   6.226  0.5491 -0.2216  0.3396
   77MOL0     C10309   7.349   8.373   6.383  1.1736  0.2908  0.7310
   77MOL0     C10310   7.453   8.426   6.457 -0.0754  0.1322  0.1870
   77MOL0     N10311   8.087   8.692   6.487  0.0506  0.8657  0.6022
   77MOL0     N10312   8.211   8.674   6.500 -0.0693  0.3487  0.6238
   77MOL0     C10313   8.986   9.560   6.835 -0.3166  0.2143 -0.0969
   77MOL0     C10314   9.096   9.648   6.838 -0.5023  0.1799 -0.5936
   77MOL0     C10315   9.558   9.764   6.936  0.8592 -0.6588  0.1068
   77MOL0     C10316   9.530   9.896   6.938 -0.1390 -0.5353 -0.5445
   77MOL0     C10317   9.627   9.985   6.983 -0.6563 -1.3614  0.8369
   77MOL0     C10318   9.756   9.942   7.010 -0.7676  0.2856 -0.3970
   77MOL0     O10319   9.858  10.033   7.039  0.2332 -0.1384 -0.0038
   77MOL0     C10320   9.889  10.063   7.182  1.2319  0.3648  0.7209
   77MOL0     C10321   9.960   9.937   7.249 -0.5021  0.2360  0.1501
   77MOL0     C10322  10.085   9.893   7.178  0.1881  0.7952 -0.0149
   77MOL0     C10323  10.154   9.764   7.246  0.6027 -0.9056 -0.2808
   77MOL0     C10324  10.224   9.814   7.372  0.6307  0.2816  0.5095
   77MOL0     C10325  10.275   9.861   7.469  0.4787 -0.2787 -0.0631
   77MOL0     C10326   9.782   9.810   6.984 -0.8630 -0.8461 -0.0407
   77MOL0     C10327   9.690   9.718   6.947  1.0929  0.1972 -0.1637
   77MOL0     H10328   9.312   9.432   6.961 -1.2471 -0.2469  2.0401
   77MOL0     H10329   9.145   9.275   6.921  0.2023  0.1579 -1.4263
   77MOL0     H10330   8.736   9.444   6.845 -0.0054  1.0170 -1.6096
   77MOL0     H10331   8.800   9.405   6.691 -1.6724 -0.8260 -0.3579
   77MOL0     H10332   8.754   9.180   6.695 -1.3062  1.2356  0.0658
   77MOL0     H10333   8.694   9.195   6.866 -2.0929 -2.7730 -0.1230
   77MOL0     H10334   8.505   9.272   6.809  1.5342 -3.4336  1.8704
   77MOL0     H10335   8.541   9.335   6.640  0.2594  1.6213  0.8801
   77MOL0     H10336   8.399   9.143   6.608 -1.1652  0.4179  2.1401
   77MOL0     H10337   8.564   9.087   6.575 -1.4737 -1.6926  0.0752
   77MOL0     H10338   8.585   8.973   6.784 -0.2151 -1.1136  1.0769
   77MOL0     H10339   8.440   9.044   6.849  1.0104  0.6169 -0.3910
   77MOL0     H10340   8.314   8.953   6.683 -0.4397  0.3586  1.4045
   77MOL0     H10341   8.466   8.882   6.611 -0.5438  0.3676  0.0783
   77MOL0     H10342   8.510   8.755   6.820  0.5400 -2.9578 -2.7124
   77MOL0     H10343   8.337   8.785   6.865  0.1057 -1.8472  0.7854
   77MOL0     H10344   8.384   8.555   6.739 -0.9525  0.2014 -0.4250
   77MOL0     H10345   8.433   8.648   6.603  1.7615 -2.2926  1.2393
   77MOL0     H10346   8.110   8.686   6.816 -3.3684 -1.7623 -0.0621
   77MOL0     H10347   7.860   8.808   6.670 -4.4157 -0.3296 -0.8345
   77MOL0     H10348   7.830   8.710   6.536  0.6161  1.0995 -0.1709
   77MOL0     H10349   7.720   8.619   6.700 -0.1468 -1.9119 -1.3005
   77MOL0     H10350   7.861   8.619   6.827  0.8890  0.7112 -0.1645
   77MOL0     H10351   7.788   8.394   6.765 -2.7621 -0.2175 -1.3395
   77MOL0     H10352   7.945   8.432   6.698 -0.6441  1.0592 -1.3617
   77MOL0     H10353   7.807   8.301   6.543  0.0843  0.0784  0.0252
   77MOL0     H10354   7.864   8.460   6.479 -1.6097 -0.2562 -1.1530
   77MOL0     H10355   7.720   8.262   6.346  0.4638  0.7097 -0.9331
   77MOL0     H10356   7.509   8.044   6.182  1.5832 -0.5713 -2.1590
   77MOL0     H10357   7.550   8.177   6.071  2.6201 -0.2356  0.6054
   77MOL0     H10358   7.667   8.118   6.181 -0.0665 -6.2035 -2.5924
   77MOL0     H10359   7.398   8.090   5.895  0.1813  0.4078  0.8131
   77MOL0     H10360   7.268   7.930   5.730 -0.4980  1.5278 -2.1413
   77MOL0     H10361   7.116   7.784   5.637  2.1007  1.2940  1.8132
   77MOL0     H10362   7.029   7.774   5.780  0.1155  2.4365  0.7837
   77MOL0     H10363   6.871   7.842   5.532  0.7388 -0.2411  0.0034
   77MOL0     H10364   6.943   7.681   5.526 -1.6007 -1.4061  0.0803
   77MOL0     H10365   6.731   7.789   5.724  0.0706  1.6367 -1.9056
   77MOL0     H10366   6.833   7.666   5.778  1.1753 -1.1490 -0.9297
   77MOL0     H10367   6.738   7.552   5.539  0.5056  1.3368 -1.0097
   77MOL0     H10368   6.647   7.549   5.695  2.3981 -4.0380 -0.7395
   77MOL0     H10369   6.622   7.730   5.446 -3.8511  1.1670 -1.8580
   77MOL0     H10370   6.547   7.782   5.604 -2.3303 -1.6650 -0.4658
   77MOL0     H10371   6.401   7.619   5.606 -0.5725 -0.0400 -1.0929
   77MOL0     H10372   6.399   7.700   5.449  0.3124  1.9352  0.2334
   77MOL0     H10373   6.498   7.420   5.505 -0.1105  0.7408  1.6490
   77MOL0     H10374   6.554   7.520   5.364  1.1978 -3.3141 -0.2539
   77MOL0     H10375   6.362   7.365   5.317 -1.7357 -1.2111  1.6489
   77MOL0     H10376   6.331   7.526   5.276 -1.3635 -0.1462  0.1774
   77MOL0     H10377   6.918   8.159   5.829 -0.8629 -0.4922  0.8970
   77MOL0     H10378   7.045   8.297   5.984 -0.0155 -0.6729  1.0207
   77MOL0     H10379   7.245   8.404   6.388  1.1962  0.2483  1.4836
   77MOL0     H10380   7.421   8.503   6.526  0.7962 -0.0747  0.8353
   77MOL0     H10381   8.888   9.601   6.812 -0.0003  1.2121  0.2809
   77MOL0     H10382   9.077   9.745   6.792  2.8321  2.4408  2.2373
   77MOL0     H10383   9.429   9.932   6.920 -0.1212  0.3255  0.8703
   77MOL0     H10384   9.603  10.088   7.009 -0.7388 -0.0517 -3.5078
   77MOL0     H10385   9.951  10.152   7.191  0.6603  0.6887  1.6530
   77MOL0     H10386   9.793  10.074   7.233  0.6573 -2.4042  0.4216
   77MOL0     H10387   9.891   9.852   7.251 -0.8966  0.5483  1.6748
   77MOL0     H10388   9.972   9.970   7.353 -0.9836 -1.0150  0.6168
   77MOL0     H10389  10.162   9.961   7.141  2.4947 -2.0804 -0.9146
   77MOL0     H10390  10.045   9.865   7.080 -0.7084 -1.4145  0.9033
   77MOL0     H10391  10.234   9.729   7.180  0.6971 -2.6525  0.7138
   77MOL0     H10392  10.087   9.680   7.265  3.2201 -2.9428  0.5486
   77MOL0     H10393  10.321   9.883   7.563 -3.0079  0.6115  1.6294
   77MOL0     H10394   9.880   9.767   6.998 -1.0932 -0.7982  2.0330
   77MOL0     H10395   9.710   9.614   6.924  0.3953 -0.3995  1.7096
   78MOL0     O10396   1.112  11.359   4.349  0.5034 -0.2095  0.5774
   78MOL0     C10397   1.164  11.468   4.341  0.3315  0.7948 -0.1994
   78MOL0     O10398   1.097  11.589   4.372 -0.1240  0.4595 -0.1054
   78MOL0     C10399   0.974  11.577   4.442 -0.6018  0.9957  0.0238
   78MOL0     C10400   0.962  11.639   4.568 -0.9166  0.1133 -0.5275
   78MOL0     C10401   0.839  11.634   4.632  0.2483 -0.4104 -0.8568
   78MOL0     C10402   0.727  11.584   4.569  0.8240  0.8472  0.1400
   78MOL0     O10403   0.607  11.581   4.645  0.4161 -0.1157 -0.6393
   78MOL0     C10404   0.486  11.520   4.581 -1.1351  0.5481  0.2613
   78MOL0     C10405   0.371  11.521   4.680  0.1373 -0.1675 -0.8947
   78MOL0     C10406   0.311  11.658   4.719 -0.8894  0.4202  0.6589
   78MOL0     C10407   0.169  11.645   4.758 -0.3002  0.5092 -1.0340
   78MOL0     C10408   0.111  11.783   4.793 -0.4657  0.5186  0.0572
   78MOL0     C10409  -0.025  11.774   4.856  0.7337 -0.5820  0.3118
   78MOL0     C10410  -0.099  11.916   4.839  0.6733 -0.7326 -0.3020
   78MOL0     C10411  -0.218  11.917   4.939  0.1635 -0.5176  0.0015
   78MOL0     N10412  -0.336  11.827   4.913  0.7109 -0.0952  0.2586
   78MOL0     C10413  -0.457  11.859   4.857 -0.1408  0.5700  0.2007
   78MOL0     C10414  -0.529  11.751   4.867  0.7779  0.0254 -0.2728
   78MOL0     C10415  -0.668  11.720   4.804  0.2352 -0.1782 -0.3237
   78MOL0     C10416  -0.764  11.837   4.838 -0.8598 -1.0966  0.2494
   78MOL0     C10417  -0.892  11.801   4.778 -0.4885 -0.6073 -0.0417
   78MOL0     C10418  -0.986  11.713   4.856 -0.3643 -0.2488  0.8494
   78MOL0     O10419  -1.098  11.693   4.773  0.4498 -0.8246 -0.8930
   78MOL0     C10420  -1.212  11.631   4.835 -0.3709  0.1362 -0.2364
   78MOL0     C10421  -1.336  11.635   4.763 -1.1477  0.2043 -0.3317
   78MOL0     C10422  -1.455  11.575   4.813 -0.6303  0.3375 -0.0698
   78MOL0     C10423  -1.572  11.566   4.719  0.7471  0.5864  0.1075
   78MOL0     C10424  -1.458  11.538   4.950 -0.5951 -0.9430 -0.9054
   78MOL0     C10425  -1.582  11.487   5.016  0.2382  0.5341 -0.2478
   78MOL0     O10426  -1.579  11.481   5.154  0.8662  1.1284 -0.5904
   78MOL0     C10427  -1.708  11.469   5.228 -0.8196 -0.0624  0.3898
   78MOL0     C10428  -1.831  11.527   5.180  0.1448  0.2471  0.4188
   78MOL0     C10429  -1.942  11.533   5.261 -0.1684  0.1128  0.2776
   78MOL0     C10430  -1.946  11.471   5.389  0.1600 -0.2285  0.1749
   78MOL0     O10431  -2.067  11.490   5.461  0.4304 -0.0115 -0.1723
   78MOL0     C10432  -2.085  11.393   5.571 -0.2257 -0.0683  1.1478
   78MOL0     C10433  -2.223  11.400   5.634  0.1231 -0.3429  0.6194
   78MOL0     C10434  -2.331  11.415   5.530  0.6521 -0.1422 -0.2409
   78MOL0     C10435  -2.470  11.439   5.601  0.0200  0.9036 -0.4186
   78MOL0     C10436  -2.574  11.447   5.491  0.2478  0.1022  0.5349
   78MOL0     C10437  -2.717  11.500   5.521 -0.6951 -0.3459  0.0490
   78MOL0     C10438  -2.798  11.501   5.389 -1.2496 -0.3484 -0.3465
   78MOL0     C10439  -2.925  11.586   5.396  0.3042  0.8256 -0.4854
   78MOL0    Cl10440  -3.056  11.511   5.505 -0.4902 -0.8845  0.1000
   78MOL0     C10441  -1.818  11.414   5.444  0.4135 -0.0299  0.0236
   78MOL0     C10442  -1.703  11.420   5.364 -0.9593  0.1702  0.1840
   78MOL0     O10443  -1.674  11.446   4.946 -0.1509  0.4189  0.0519
   78MOL0     C10444  -1.336  11.540   5.017  0.1639  0.5903  0.0075
   78MOL0     C10445  -1.219  11.578   4.960 -0.6594 -0.3171 -0.0267
   78MOL0     N10446  -0.452  11.650   4.917  0.7566  0.8183 -0.7056
   78MOL0     N10447  -0.336  11.700   4.963  0.3069  0.2230  0.5801
   78MOL0     C10448   0.737  11.522   4.446  0.4574 -0.1335 -0.3212
   78MOL0     C10449   0.862  11.522   4.378 -0.1289  0.0418 -0.5146
   78MOL0     C10450   1.306  11.477   4.298  0.4315  0.0931 -0.1358
   78MOL0     C10451   1.399  11.373   4.293 -0.3907  0.3460 -0.0120
   78MOL0     C10452   1.531  11.395   4.260  0.1619  0.5421  0.7405
   78MOL0     C10453   1.587  11.527   4.246  0.5765  0.6081 -0.8153
   78MOL0     O10454   1.717  11.556   4.207 -0.2529  0.2800  0.3775
   78MOL0     C10455   1.744  11.621   4.076  0.6494  0.9938 -0.7490
   78MOL0     C10456   1.844  11.555   3.992 -0.4300  0.3898  0.1129
   78MOL0     C10457   1.793  11.418   3.950 -0.8740  0.2747 -1.1926
   78MOL0     C10458   1.868  11.363   3.826 -0.9074 -1.2724  0.1924
   78MOL0     C10459   1.835  11.225   3.788 -0.7301 -0.1504 -1.1111
   78MOL0     C10460   1.804  11.112   3.759  0.0240  0.2236  0.0261
   78MOL0     C10461   1.500  11.636   4.251  0.5803  0.3679  0.5010
   78MOL0     C10462   1.363  11.607   4.272  0.3018 -0.7145  0.0538
   78MOL0     H10463   1.032  11.699   4.625 -1.9156  2.1635 -1.3535
   78MOL0     H10464   0.823  11.668   4.734 -1.0428 -0.9608 -0.8567
   78MOL0     H10465   0.466  11.584   4.494  0.3356  2.6929  1.4128
   78MOL0     H10466   0.506  11.423   4.536 -1.0177  1.7623 -2.5729
   78MOL0     H10467   0.288  11.464   4.639  0.0117  0.8812 -2.1445
   78MOL0     H10468   0.398  11.464   4.769 -0.7430 -1.2730 -1.3137
   78MOL0     H10469   0.369  11.699   4.802  2.6763 -0.6586 -1.0550
   78MOL0     H10470   0.319  11.731   4.638 -0.0114  2.5095  2.5122
   78MOL0     H10471   0.116  11.590   4.680 -0.3756 -2.0698  0.7303
   78MOL0     H10472   0.160  11.583   4.848  2.7263  2.2809  0.6626
   78MOL0     H10473   0.178  11.832   4.864 -2.7347 -0.1227  2.8154
   78MOL0     H10474   0.110  11.836   4.697 -1.0957 -0.7982 -0.6902
   78MOL0     H10475  -0.076  11.685   4.820  1.9231 -1.2216  0.1653
   78MOL0     H10476  -0.022  11.747   4.962  0.3695 -1.9089  0.0025
   78MOL0     H10477  -0.033  11.999   4.865  0.8469 -1.5327  2.0160
   78MOL0     H10478  -0.128  11.932   4.735 -0.2304 -2.3703 -0.3458
   78MOL0     H10479  -0.249  12.022   4.944  0.7133 -0.4160  1.9621
   78MOL0     H10480  -0.178  11.890   5.037  1.5122  1.4370  0.0682
   78MOL0     H10481  -0.487  11.951   4.808  2.2284  2.2923  1.7507
   78MOL0     H10482  -0.659  11.717   4.695 -1.7326  0.7911 -0.5732
   78MOL0     H10483  -0.716  11.624   4.825  1.5869 -0.7662  0.1976
   78MOL0     H10484  -0.734  11.926   4.782  2.1624 -0.3225  2.8416
   78MOL0     H10485  -0.769  11.862   4.944 -0.7725 -2.0110  0.4772
   78MOL0     H10486  -0.878  11.755   4.679  1.9643  0.0782 -0.0765
   78MOL0     H10487  -0.951  11.893   4.774  1.6141  0.8144  0.1291
   78MOL0     H10488  -1.005  11.768   4.949 -0.1370  1.9755 -0.3446
   78MOL0     H10489  -0.938  11.616   4.871 -2.2141 -1.5373 -1.0341
   78MOL0     H10490  -1.340  11.679   4.664 -0.9987  1.3220  0.1419
   78MOL0     H10491  -1.578  11.462   4.684  0.8766  0.7278 -0.3387
   78MOL0     H10492  -1.670  11.604   4.749  0.2480 -0.8641  0.4058
   78MOL0     H10493  -1.542  11.618   4.628 -1.7851 -2.8576 -2.9972
   78MOL0     H10494  -1.835  11.567   5.080  2.0997 -2.2548 -0.7865
   78MOL0     H10495  -2.031  11.577   5.217  0.3174  0.3497 -0.4979
   78MOL0     H10496  -2.066  11.291   5.538  0.3371 -1.4318  5.0893
   78MOL0     H10497  -2.015  11.431   5.647 -0.0536  0.6469  0.6393
   78MOL0     H10498  -2.236  11.310   5.695  0.1893  0.6538  2.1502
   78MOL0     H10499  -2.218  11.487   5.699  0.3797  1.0952 -1.2318
   78MOL0     H10500  -2.327  11.323   5.472 -2.3620 -2.3011  2.6014
   78MOL0     H10501  -2.311  11.509   5.478  0.6914  0.2054  0.3868
   78MOL0     H10502  -2.507  11.370   5.678  1.5797  1.6590  1.0795
   78MOL0     H10503  -2.474  11.541   5.641 -0.6906 -0.4268  3.3910
   78MOL0     H10504  -2.590  11.340   5.475  0.0531  0.3817 -1.3182
   78MOL0     H10505  -2.524  11.492   5.405  1.1216 -0.5017  0.7161
   78MOL0     H10506  -2.754  11.435   5.601 -1.9323  0.8368  0.4764
   78MOL0     H10507  -2.707  11.603   5.559  1.1114 -1.1193  1.9000
   78MOL0     H10508  -2.840  11.405   5.357  0.4934 -0.9735 -0.8833
   78MOL0     H10509  -2.732  11.542   5.313 -2.6491  1.7371 -0.5176
   78MOL0     H10510  -2.973  11.599   5.298 -1.6344  0.4912  0.3608
   78MOL0     H10511  -2.910  11.687   5.434 -1.1280  0.8141  0.1792
   78MOL0     H10512  -1.823  11.376   5.546 -2.0988 -1.1736 -0.4361
   78MOL0     H10513  -1.608  11.383   5.402 -0.4365 -1.0864 -2.1690
   78MOL0     H10514  -1.341  11.510   5.121 -1.8148  0.3345 -0.1210
   78MOL0     H10515  -1.132  11.581   5.026 -0.6075  0.2735 -0.1199
   78MOL0     H10516   0.649  11.487   4.392 -0.0153  0.3479  0.1284
   78MOL0     H10517   0.855  11.486   4.276 -1.6254  0.9085 -0.7387
   78MOL0     H10518   1.368  11.273   4.319  1.7030  0.2621  2.6969
   78MOL0     H10519   1.598  11.311   4.245 -1.2691 -1.0828  2.7982
   78MOL0     H10520   1.651  11.636   4.022 -1.3205  1.0336  2.4154
   78MOL0     H10521   1.774  11.723   4.101  1.4073  0.8700 -1.1148
   78MOL0     H10522   1.941  11.554   4.044 -0.9826  1.5518  1.1995
   78MOL0     H10523   1.857  11.608   3.897  0.7013  0.2155  0.1524
   78MOL0     H10524   1.691  11.436   3.915 -0.4705  2.9718 -1.1723
   78MOL0     H10525   1.809  11.354   4.037  1.6567  0.2295 -1.6205
   78MOL0     H10526   1.977  11.365   3.822 -0.8327 -2.7275  0.7338
   78MOL0     H10527   1.833  11.418   3.738 -4.3016  0.0804  2.1819
   78MOL0     H10528   1.761  11.019   3.729 -0.2135  0.1893  0.4620
   78MOL0     H10529   1.550  11.730   4.231  1.5817 -0.6812 -2.4237
   78MOL0     H10530   1.300  11.695   4.265  0.1635 -0.7436  0.8512
   79MOL0     O10531   7.739   1.260   9.867  0.2229  0.2472  0.0152
   79MOL0     C10532   7.738   1.159   9.798  0.5980  0.9132  0.2982
   79MOL0     O10533   7.658   1.054   9.830 -0.3337  0.1671  0.1760
   79MOL0     C10534   7.583   1.059   9.942  0.4633  0.9048 -0.0227
   79MOL0     C10535   7.466   1.133   9.963  0.1408  0.2187  0.3548
   79MOL0     C10536   7.399   1.121  10.087  0.4840 -0.5532 -0.0951
   79MOL0     C10537   7.434   1.040  10.189 -0.0716 -0.0318  0.8509
   79MOL0     O10538   7.354   1.035  10.304 -0.5362  0.5437  0.0302
   79MOL0     C10539   7.332   0.898  10.343  0.2740 -0.5481  0.1478
   79MOL0     C10540   7.221   0.890  10.450 -0.5424  0.1636  0.4492
   79MOL0     C10541   7.182   0.756  10.508 -0.2781  0.2154 -0.4765
   79MOL0     C10542   7.080   0.782  10.624 -1.2144  0.4255 -0.0780
   79MOL0     C10543   7.018   0.646  10.666  0.1055 -0.5169  0.0729
   79MOL0     C10544   6.924   0.648  10.789 -0.1133 -0.8907  0.1579
   79MOL0     C10545   6.845   0.520  10.824 -0.7781 -0.5701 -0.6324
   79MOL0     C10546   6.782   0.516  10.966 -0.2183 -0.1352  0.0641
   79MOL0     N10547   6.648   0.588  10.973 -0.1648 -0.2085 -0.3926
   79MOL0     C10548   6.609   0.698  11.044 -0.3272  0.4625 -0.3561
   79MOL0     C10549   6.488   0.727  11.002  0.4314 -0.0929 -0.6831
   79MOL0     C10550   6.407   0.848  11.064 -0.7477 -0.5701  0.2089
   79MOL0     C10551   6.421   0.822  11.222  0.3862 -0.5142  0.2418
   79MOL0     C10552   6.290   0.858  11.307  0.2917 -0.6653  0.2481
   79MOL0     C10553   6.330   0.896  11.452 -0.3640  0.8609 -0.6263
   79MOL0     O10554   6.221   0.948  11.537  0.2867  0.0249  0.1610
   79MOL0     C10555   6.174   0.886  11.649 -0.2611  0.0035  0.4454
   79MOL0     C10556   6.141   0.751  11.644  0.1398  0.3696 -0.3477
   79MOL0     C10557   6.105   0.681  11.761  0.4961  1.0903  0.2673
   79MOL0     C10558   6.101   0.532  11.750 -0.1213 -0.3559  0.1575
   79MOL0     C10559   6.106   0.747  11.887  0.0136 -0.4729  0.8054
   79MOL0     C10560   6.050   0.679  11.997 -0.2632  0.3869 -0.7071
   79MOL0     O10561   6.104   0.546  12.028  0.2287  0.1231  0.2921
   79MOL0     C10562   6.045   0.485  12.147 -0.2329  0.4343  0.9428
   79MOL0     C10563   5.906   0.447  12.148 -0.8044 -0.9571 -0.1029
   79MOL0     C10564   5.862   0.383  12.265 -0.3207  0.8812  0.2496
   79MOL0     C10565   5.947   0.338  12.363  0.2264  0.0422  0.8441
   79MOL0     O10566   5.919   0.288  12.486  0.0522  0.2359 -0.4580
   79MOL0     C10567   5.786   0.306  12.542  0.6167  0.0824  0.0486
   79MOL0     C10568   5.785   0.283  12.690 -0.1168 -0.6604  0.3017
   79MOL0     C10569   5.862   0.379  12.773  0.3467 -0.2581  0.8453
   79MOL0     C10570   5.847   0.362  12.925  0.0619  0.2594  0.0410
   79MOL0     C10571   5.973   0.433  12.990  0.0317  0.5244 -0.1312
   79MOL0     C10572   5.969   0.446  13.145  0.1846 -0.0339  0.7036
   79MOL0     C10573   5.941   0.315  13.220 -0.1939  1.1977 -0.4002
   79MOL0     C10574   6.045   0.208  13.182 -1.2199 -0.5053  0.0594
   79MOL0    Cl10575   6.192   0.254  13.261 -0.0936 -0.4732  0.1863
   79MOL0     C10576   6.080   0.349  12.335  0.6675  0.2104 -1.1148
   79MOL0     C10577   6.133   0.417  12.225 -0.0899 -0.8554  0.2398
   79MOL0     O10578   5.970   0.745  12.062  1.0584  0.1302  0.0019
   79MOL0     C10579   6.138   0.883  11.886  0.7108  1.0350  0.0939
   79MOL0     C10580   6.175   0.948  11.773 -0.7786  0.0336 -1.0131
   79MOL0     N10581   6.443   0.629  10.913 -1.2091  0.0611 -0.3869
   79MOL0     N10582   6.544   0.549  10.886 -0.2277 -1.1174 -0.6888
   79MOL0     C10583   7.552   0.973  10.170  0.6921 -0.6111 -0.1913
   79MOL0     C10584   7.623   0.977  10.052  0.1106 -0.3137 -0.4215
   79MOL0     C10585   7.846   1.139   9.694  0.8835  0.2272  0.1128
   79MOL0     C10586   7.892   1.016   9.659 -0.4363 -0.1879  0.3590
   79MOL0     C10587   7.995   0.996   9.564 -0.7771 -0.2190 -0.5918
   79MOL0     C10588   8.046   1.100   9.491  0.4317  0.3012  0.4535
   79MOL0     O10589   8.138   1.077   9.390 -0.4451  0.6374 -0.4431
   79MOL0     C10590   8.252   1.168   9.366  0.5319  0.3171 -0.2940
   79MOL0     C10591   8.364   1.099   9.291 -1.1217  0.0518 -0.4623
   79MOL0     C10592   8.316   1.058   9.152 -0.2920 -0.3562 -0.5161
   79MOL0     C10593   8.427   0.983   9.077 -0.3925 -0.6646  0.3088
   79MOL0     C10594   8.549   1.074   9.059  0.5074 -0.5771 -0.4281
   79MOL0     C10595   8.644   1.153   9.061  0.5064 -0.1242  0.3536
   79MOL0     C10596   7.998   1.230   9.524 -0.8194  0.2790 -0.5126
   79MOL0     C10597   7.912   1.252   9.632  0.5432 -0.0948  0.0296
   79MOL0     H10598   7.418   1.195   9.888  0.2696 -0.9697 -0.7368
   79MOL0     H10599   7.303   1.170  10.086  0.4859 -0.4535 -2.7874
   79MOL0     H10600   7.313   0.824  10.264  0.4065 -0.5018  0.0717
   79MOL0     H10601   7.420   0.862  10.397 -1.6044 -3.4924  1.5069
   79MOL0     H10602   7.253   0.963  10.525  0.8149 -0.2490  0.2949
   79MOL0     H10603   7.133   0.931  10.400  1.7100  4.4841 -0.5192
   79MOL0     H10604   7.132   0.698  10.430 -0.1767 -0.4722 -0.0436
   79MOL0     H10605   7.279   0.717  10.541  0.0794  1.1669 -0.3579
   79MOL0     H10606   7.138   0.824  10.707 -2.0899 -0.6794  1.1501
   79MOL0     H10607   7.009   0.854  10.584 -1.5034  0.1136 -0.1379
   79MOL0     H10608   6.967   0.603  10.580 -1.1185 -2.4562  1.6939
   79MOL0     H10609   7.102   0.582  10.696  2.7232  2.9594  0.8545
   79MOL0     H10610   6.983   0.670  10.879 -0.6188  0.0414  0.2811
   79MOL0     H10611   6.846   0.723  10.775  1.5081  1.2424  1.8589
   79MOL0     H10612   6.763   0.489  10.759 -0.6452 -2.2606 -0.0399
   79MOL0     H10613   6.912   0.433  10.822  0.7827  0.5439  0.6952
   79MOL0     H10614   6.849   0.563  11.038 -0.5719 -0.3589  0.5500
   79MOL0     H10615   6.781   0.407  10.980  1.0039  0.0905  2.4497
   79MOL0     H10616   6.678   0.746  11.112 -0.0292 -0.7529  0.2136
   79MOL0     H10617   6.460   0.939  11.035 -1.3069 -1.1368 -3.0377
   79MOL0     H10618   6.309   0.859  11.016  0.1712  0.7040 -1.5046
   79MOL0     H10619   6.493   0.893  11.264 -2.6498  2.3595  1.0547
   79MOL0     H10620   6.453   0.722  11.249 -0.3241 -0.0573  3.1062
   79MOL0     H10621   6.225   0.771  11.322 -0.2649  0.0824  2.4436
   79MOL0     H10622   6.234   0.936  11.255  3.5794 -0.0529 -2.7736
   79MOL0     H10623   6.404   0.977  11.449 -0.2388  0.8543  1.1306
   79MOL0     H10624   6.395   0.817  11.491 -1.7422 -0.1907 -0.3696
   79MOL0     H10625   6.137   0.695  11.551 -0.2308  0.9408 -0.6834
   79MOL0     H10626   6.194   0.491  11.790  2.0853  0.4363 -3.6510
   79MOL0     H10627   6.016   0.490  11.805 -1.0331  1.4773  0.2203
   79MOL0     H10628   6.091   0.503  11.645  0.2368 -2.2331  0.5968
   79MOL0     H10629   5.837   0.472  12.068 -3.2216  0.7013  2.3169
   79MOL0     H10630   5.755   0.366  12.265  0.0296 -1.8829 -0.8563
   79MOL0     H10631   5.745   0.406  12.533  1.1054  0.1226 -2.2385
   79MOL0     H10632   5.715   0.235  12.499 -1.0303  0.8738  1.3442
   79MOL0     H10633   5.681   0.292  12.722 -0.4950 -1.9729 -0.4943
   79MOL0     H10634   5.820   0.180  12.702 -0.6318 -1.4229 -3.5180
   79MOL0     H10635   5.817   0.473  12.742  1.7148 -0.2272 -1.2949
   79MOL0     H10636   5.967   0.375  12.742  0.7677 -1.2877  2.3073
   79MOL0     H10637   5.752   0.403  12.959 -2.5459 -3.6182 -1.8694
   79MOL0     H10638   5.841   0.256  12.953 -0.1205  0.1334 -0.4597
   79MOL0     H10639   5.979   0.534  12.949 -0.9157 -0.8017 -4.0120
   79MOL0     H10640   6.069   0.389  12.959 -0.8917 -0.5495 -1.5590
   79MOL0     H10641   6.071   0.473  13.173 -0.1154  1.5782  0.3686
   79MOL0     H10642   5.895   0.522  13.169 -0.4848 -0.9532  1.6062
   79MOL0     H10643   5.844   0.272  13.193 -0.3748 -0.3170  2.3621
   79MOL0     H10644   5.945   0.336  13.327  0.6104  0.5070 -0.2873
   79MOL0     H10645   6.062   0.200  13.074 -0.3959 -0.1061  0.1558
   79MOL0     H10646   6.017   0.113  13.228  1.1713 -0.3171  2.0913
   79MOL0     H10647   6.151   0.318  12.411 -0.6246 -3.8030 -1.3008
   79MOL0     H10648   6.238   0.409  12.199 -0.6367  1.3540 -3.2555
   79MOL0     H10649   6.142   0.938  11.979  1.4646  2.1941 -0.5945
   79MOL0     H10650   6.191   1.055  11.768 -2.2401  0.3904  0.9407
   79MOL0     H10651   7.584   0.913  10.255 -0.3028 -1.8128 -0.6409
   79MOL0     H10652   7.705   0.907  10.039  1.9966  2.0118 -1.8126
   79MOL0     H10653   7.844   0.932   9.708  0.2655 -1.6356 -1.3222
   79MOL0     H10654   8.024   0.895   9.535 -2.0681 -0.3920 -1.3233
   79MOL0     H10655   8.206   1.250   9.310 -1.8323  0.1299  1.2709
   79MOL0     H10656   8.284   1.190   9.468 -5.1139 -2.4148  2.4789
   79MOL0     H10657   8.396   1.019   9.359  0.3810  1.5995  0.7446
   79MOL0     H10658   8.448   1.169   9.280 -0.3292 -0.9030 -0.6516
   79MOL0     H10659   8.285   1.147   9.096  0.2386 -0.1844 -0.5435
   79MOL0     H10660   8.237   0.982   9.147  0.6467 -1.5304  1.4485
   79MOL0     H10661   8.393   0.951   8.978 -0.7206  1.3029 -0.2626
   79MOL0     H10662   8.466   0.896   9.131 -1.5622 -0.9665  0.7037
   79MOL0     H10663   8.724   1.225   9.063 -1.9074  2.7234  1.0211
   79MOL0     H10664   8.036   1.317   9.470 -0.0961  0.4730  0.2901
   79MOL0     H10665   7.872   1.344   9.674 -1.1561 -1.2820  1.1314
   80MOL0     O10666   7.682  11.220   4.476  0.0742 -0.3112  0.3363
   80MOL0     C10667   7.636  11.275   4.370  0.4095  0.2712 -1.2644
   80MOL0     O10668   7.701  11.358   4.291  0.3730  0.1823  0.3210
   80MOL0     C10669   7.827  11.375   4.322 -0.1364  0.4843  0.8665
   80MOL0     C10670   7.915  11.263   4.308  0.1057 -0.5548  0.8893
   80MOL0     C10671   8.049  11.278   4.357 -0.8776  0.4073 -0.6137
   80MOL0     C10672   8.098  11.397   4.412 -0.3912  0.9241  0.3748
   80MOL0     O10673   8.230  11.425   4.459 -0.1634  0.2432  0.2443
   80MOL0     C10674   8.328  11.326   4.451 -0.4836  0.5052  0.3433
   80MOL0     C10675   8.465  11.383   4.460 -0.1804 -0.2869  0.5907
   80MOL0     C10676   8.506  11.439   4.600  0.2555 -0.0342  0.2750
   80MOL0     C10677   8.649  11.488   4.603  0.3126  0.5476  0.1243
   80MOL0     C10678   8.691  11.561   4.727 -0.4282  0.1120 -0.1783
   80MOL0     C10679   8.705  11.471   4.844 -0.7318 -0.3887 -0.5501
   80MOL0     C10680   8.707  11.518   4.988  0.3648 -0.1399 -0.5395
   80MOL0     C10681   8.610  11.621   5.028 -0.0328 -0.0389 -0.3471
   80MOL0     N10682   8.471  11.572   5.016 -0.1605  0.1791  0.3214
   80MOL0     C10683   8.395  11.602   4.914  0.2572  0.0693 -0.8669
   80MOL0     C10684   8.281  11.517   4.922 -0.2134  0.5846 -0.8065
   80MOL0     C10685   8.157  11.522   4.836  0.0423 -0.4513 -0.8465
   80MOL0     C10686   8.049  11.583   4.933  0.6391 -0.5608 -0.1687
   80MOL0     C10687   7.938  11.654   4.860 -0.7878 -0.1121  0.3377
   80MOL0     C10688   7.837  11.564   4.784 -0.8475  0.4003 -0.5151
   80MOL0     O10689   7.785  11.460   4.869  0.0983  0.0592 -0.2329
   80MOL0     C10690   7.656  11.425   4.857 -0.4720 -0.0554  0.0977
   80MOL0     C10691   7.610  11.349   4.969 -0.0744 -0.6002  0.7189
   80MOL0     C10692   7.475  11.309   4.983  0.1791 -0.1463  0.2503
   80MOL0     C10693   7.424  11.263   5.121 -0.1872 -0.2020 -0.2697
   80MOL0     C10694   7.391  11.323   4.864 -0.0613  0.4932 -0.0482
   80MOL0     C10695   7.245  11.274   4.855  0.0301  0.1586 -0.4086
   80MOL0     O10696   7.192  11.256   4.733 -0.1524  0.5552  0.0325
   80MOL0     C10697   7.056  11.243   4.713 -0.6987 -0.7802  0.3116
   80MOL0     C10698   7.017  11.258   4.577  0.2779  0.3229 -0.1815
   80MOL0     C10699   6.881  11.244   4.529  0.2914 -0.5057 -0.1107
   80MOL0     C10700   6.785  11.212   4.617 -0.0637  0.0380  0.1957
   80MOL0     O10701   6.657  11.180   4.579 -0.3144 -0.8830 -0.0080
   80MOL0     C10702   6.569  11.118   4.676  0.3566 -0.1213 -0.4844
   80MOL0     C10703   6.511  11.225   4.779  0.1276 -0.6003 -0.2694
   80MOL0     C10704   6.382  11.161   4.834 -0.0404  0.2394  0.1888
   80MOL0     C10705   6.266  11.158   4.736  0.0185  0.6459  0.0375
   80MOL0     C10706   6.150  11.084   4.802  0.3903 -1.1015  0.7833
   80MOL0     C10707   6.080  11.163   4.917  0.5830  0.0040 -0.2667
   80MOL0     C10708   5.953  11.090   4.954 -0.1984 -0.1823  0.3855
   80MOL0     C10709   5.888  11.146   5.085 -0.4734  0.4512 -0.4459
   80MOL0    Cl10710   5.732  11.067   5.104  0.0032 -0.1554  0.6576
   80MOL0     C10711   6.827  11.191   4.754  0.5881  0.2966 -0.2960
   80MOL0     C10712   6.955  11.209   4.804 -0.1874  0.5944 -0.8318
   80MOL0     O10713   7.184  11.266   4.958  0.2621 -0.6302 -0.3814
   80MOL0     C10714   7.444  11.389   4.751  0.4424  1.0434  0.8939
   80MOL0     C10715   7.572  11.443   4.750 -0.2986 -0.1974  0.6292
   80MOL0     N10716   8.300  11.441   5.038 -0.7891  0.0316  0.5660
   80MOL0     N10717   8.417  11.471   5.089  0.8304  0.3208  0.7687
   80MOL0     C10718   8.008  11.503   4.415 -0.3584 -0.3086 -0.6892
   80MOL0     C10719   7.877  11.490   4.376 -0.3310  0.2837  0.8447
   80MOL0     C10720   7.495  11.239   4.337 -0.2997 -1.1319  0.4148
   80MOL0     C10721   7.421  11.157   4.418 -0.2992  0.0569 -0.0836
   80MOL0     C10722   7.289  11.132   4.396  0.1865  0.5558 -0.3301
   80MOL0     C10723   7.228  11.186   4.281  0.7193 -0.2982 -0.7668
   80MOL0     O10724   7.089  11.165   4.266 -0.4702  0.2864 -0.0313
   80MOL0     C10725   7.038  11.169   4.136  0.5625 -0.7150 -0.0346
   80MOL0     C10726   6.895  11.123   4.144  0.2484  0.0479  0.0847
   80MOL0     C10727   6.907  10.971   4.127 -0.0696  0.0638  0.2149
   80MOL0     C10728   6.780  10.890   4.150 -0.3463  0.4805  0.5926
   80MOL0     C10729   6.794  10.741   4.141  0.3799 -0.4259  0.3407
   80MOL0     C10730   6.796  10.624   4.127 -0.8116 -0.2341 -0.0440
   80MOL0     C10731   7.305  11.252   4.185  0.6308 -0.5344  0.0736
   80MOL0     C10732   7.441  11.272   4.210  0.1547  0.3743  0.2801
   80MOL0     H10733   7.888  11.174   4.253  0.8470  0.8722 -2.0008
   80MOL0     H10734   8.114  11.192   4.349 -1.0689  0.0981  0.8742
   80MOL0     H10735   8.312  11.258   4.535 -0.3780 -1.6892 -1.3081
   80MOL0     H10736   8.317  11.267   4.359 -1.0677  1.0777  0.0341
   80MOL0     H10737   8.529  11.300   4.428  0.1752  0.5137 -0.8691
   80MOL0     H10738   8.484  11.464   4.389  1.4048 -1.1348 -0.0075
   80MOL0     H10739   8.445  11.523   4.635  0.5518  0.0837  0.5101
   80MOL0     H10740   8.505  11.354   4.670  2.0190 -1.2711 -1.1091
   80MOL0     H10741   8.711  11.404   4.572 -2.1226 -0.4018 -2.6318
   80MOL0     H10742   8.657  11.552   4.515 -1.5414  0.1439 -0.3708
   80MOL0     H10743   8.792  11.599   4.711  0.7045 -3.0818 -1.4012
   80MOL0     H10744   8.617  11.641   4.739 -0.9741 -0.4909  0.6168
   80MOL0     H10745   8.634  11.387   4.844  0.5971 -1.5650 -1.6911
   80MOL0     H10746   8.802  11.422   4.831  0.8011  2.0920  0.7571
   80MOL0     H10747   8.696  11.434   5.057  1.9681 -0.3042 -0.4475
   80MOL0     H10748   8.803  11.572   4.993 -1.8989  4.4264 -1.1074
   80MOL0     H10749   8.616  11.705   4.958 -2.7170 -1.1281 -2.0566
   80MOL0     H10750   8.626  11.668   5.126  0.4049  0.5179 -0.6806
   80MOL0     H10751   8.412  11.669   4.831  1.3125  0.1263 -0.6165
   80MOL0     H10752   8.194  11.580   4.751  1.0194 -1.6103 -1.2360
   80MOL0     H10753   8.128  11.430   4.785  2.4763  0.6011 -4.5367
   80MOL0     H10754   8.098  11.652   5.002  0.8250 -2.6131  1.8851
   80MOL0     H10755   8.011  11.505   5.001  1.0833  0.3584  1.1850
   80MOL0     H10756   7.983  11.721   4.786 -1.6867  1.0550  0.7993
   80MOL0     H10757   7.880  11.719   4.927 -2.2717 -1.2223  0.1878
   80MOL0     H10758   7.877  11.509   4.698  1.1382  1.8468 -0.5884
   80MOL0     H10759   7.763  11.634   4.746 -3.7584 -2.2214 -0.0952
   80MOL0     H10760   7.675  11.337   5.056  1.4967  0.6600 -0.2181
   80MOL0     H10761   7.357  11.342   5.156  1.0861  1.1385 -0.7620
   80MOL0     H10762   7.378  11.164   5.118  4.9268 -2.9165 -1.9007
   80MOL0     H10763   7.507  11.248   5.191  0.1149 -2.7041 -1.0535
   80MOL0     H10764   7.089  11.291   4.503 -0.3980 -0.4746 -1.2204
   80MOL0     H10765   6.857  11.256   4.424 -1.9015 -2.2389  0.1189
   80MOL0     H10766   6.489  11.081   4.611  2.1976  0.2607 -3.1381
   80MOL0     H10767   6.609  11.031   4.727  0.3304 -1.0717 -2.0097
   80MOL0     H10768   6.582  11.237   4.862 -2.5301  0.2146  2.0384
   80MOL0     H10769   6.496  11.318   4.725  0.1986  0.2427  1.1100
   80MOL0     H10770   6.348  11.210   4.926 -2.1604  0.2572 -0.5576
   80MOL0     H10771   6.411  11.059   4.861  3.1977  0.6993 -1.1502
   80MOL0     H10772   6.236  11.255   4.696 -2.8854 -0.7265 -1.4597
   80MOL0     H10773   6.288  11.087   4.655  0.7886 -1.6407  2.1021
   80MOL0     H10774   6.193  10.986   4.822  2.1934 -0.5529 -0.1238
   80MOL0     H10775   6.076  11.055   4.727  1.3447 -0.6407 -0.3651
   80MOL0     H10776   6.142  11.167   5.007  0.0004 -1.8693  0.2588
   80MOL0     H10777   6.055  11.264   4.883  0.3160  0.3308  0.8686
   80MOL0     H10778   5.972  10.983   4.962 -0.2519 -0.0448  3.1318
   80MOL0     H10779   5.881  11.091   4.871  2.8357 -0.8457 -2.4899
   80MOL0     H10780   5.870  11.251   5.062  0.0951  0.3900 -1.2146
   80MOL0     H10781   5.941  11.140   5.181 -2.9862 -0.0996  0.9910
   80MOL0     H10782   6.768  11.143   4.831  1.3250  1.3181  0.9402
   80MOL0     H10783   6.977  11.200   4.910  0.5380  3.9651 -0.5496
   80MOL0     H10784   7.382  11.413   4.665  0.6537 -0.7430  0.2165
   80MOL0     H10785   7.596  11.494   4.657 -1.2470 -2.7643 -1.1284
   80MOL0     H10786   8.032  11.602   4.452  2.2628 -1.5655  1.2707
   80MOL0     H10787   7.807  11.573   4.375  1.0150  1.5146  2.5942
   80MOL0     H10788   7.458  11.127   4.515 -0.8060  0.5673  0.2762
   80MOL0     H10789   7.219  11.074   4.456 -0.7300 -1.2442 -2.9274
   80MOL0     H10790   7.043  11.271   4.096  1.2117 -0.3141  1.0410
   80MOL0     H10791   7.085  11.099   4.066 -3.1837  0.4705 -4.2552
   80MOL0     H10792   6.865  11.156   4.044  4.0112  0.2173 -1.1849
   80MOL0     H10793   6.842  11.160   4.232 -0.3767  1.6542 -0.9323
   80MOL0     H10794   6.977  10.920   4.195 -1.0667  1.4742  2.4129
   80MOL0     H10795   6.942  10.946   4.027  0.7714  1.3889  0.1579
   80MOL0     H10796   6.718  10.915   4.064  0.7990  0.3027 -0.3116
   80MOL0     H10797   6.723  10.917   4.239  3.1369  0.1414  3.1525
   80MOL0     H10798   6.813  10.518   4.129  0.2472 -0.0634  2.2356
   80MOL0     H10799   7.262  11.302   4.099  0.1739  2.4282  1.8641
   80MOL0     H10800   7.501  11.312   4.129 -3.6185  0.8440 -2.5784
   81MOL0     O10801   1.036   8.377   2.683 -1.1275  0.0607 -0.3292
   81MOL0     C10802   1.052   8.489   2.639 -0.1145  0.1413  0.2666
   81MOL0     O10803   0.957   8.554   2.564 -0.7071  0.0221 -0.2095
   81MOL0     C10804   0.859   8.468   2.517 -0.2189  0.7872  0.1697
   81MOL0     C10805   0.749   8.439   2.598  0.1019 -0.0927 -0.0212
   81MOL0     C10806   0.644   8.371   2.542  0.0610  0.3808  0.5158
   81MOL0     C10807   0.650   8.321   2.410 -0.5089  0.6590  0.0170
   81MOL0     O10808   0.554   8.244   2.344 -0.5595 -0.1516  0.2166
   81MOL0     C10809   0.424   8.242   2.400 -0.6127 -0.2686  0.2793
   81MOL0     C10810   0.342   8.374   2.378  0.7181  0.6792 -0.4173
   81MOL0     C10811   0.313   8.408   2.237 -0.2780 -0.5430  1.2864
   81MOL0     C10812   0.432   8.458   2.152  0.2954 -1.0252 -0.0640
   81MOL0     C10813   0.377   8.529   2.020  0.3560 -0.8735 -0.5778
   81MOL0     C10814   0.306   8.670   2.048 -0.6117 -0.6290  0.5800
   81MOL0     C10815   0.300   8.750   1.917 -0.5365  0.1265 -0.0141
   81MOL0     C10816   0.202   8.678   1.817  0.2336 -0.0548 -0.0505
   81MOL0     N10817   0.056   8.690   1.859 -0.0330 -0.6955  0.0479
   81MOL0     C10818  -0.026   8.797   1.821  0.1609 -1.0069  0.4689
   81MOL0     C10819  -0.145   8.785   1.874 -0.6990  0.6606 -0.0399
   81MOL0     C10820  -0.257   8.868   1.839  0.6334 -0.7236  0.0787
   81MOL0     C10821  -0.310   8.955   1.949  0.1423 -0.0325 -0.8943
   81MOL0     C10822  -0.461   8.985   1.929  0.1403  0.3416 -0.7967
   81MOL0     C10823  -0.498   9.094   2.026  0.2666  0.7551  0.8708
   81MOL0     O10824  -0.636   9.112   1.997  0.6712  0.2477 -0.5783
   81MOL0     C10825  -0.702   9.217   2.062 -0.5937  0.1932  0.2795
   81MOL0     C10826  -0.636   9.304   2.150 -0.1771  0.3617  0.2026
   81MOL0     C10827  -0.699   9.400   2.229  0.1826 -0.7298 -0.5642
   81MOL0     C10828  -0.630   9.473   2.342 -0.5192 -0.3066 -0.1818
   81MOL0     C10829  -0.837   9.419   2.205 -0.1740  0.1099 -0.2267
   81MOL0     C10830  -0.914   9.521   2.284 -0.6922  0.0667  0.6932
   81MOL0     O10831  -0.854   9.646   2.300 -0.2659  0.5090 -0.0638
   81MOL0     C10832  -0.927   9.725   2.386  0.9094 -0.8344 -0.6265
   81MOL0     C10833  -0.983   9.680   2.504 -0.0491 -0.7498 -0.5460
   81MOL0     C10834  -1.066   9.757   2.577  0.2866  0.6256 -0.3369
   81MOL0     C10835  -1.098   9.885   2.546  0.1168  0.3981  0.2486
   81MOL0     O10836  -1.194   9.956   2.617 -0.2150  0.3634  0.2996
   81MOL0     C10837  -1.289   9.885   2.696 -0.0245 -0.9049  0.6352
   81MOL0     C10838  -1.379   9.986   2.761  0.0124  0.6671 -0.0083
   81MOL0     C10839  -1.463  10.048   2.646  0.6948  0.7625 -0.3018
   81MOL0     C10840  -1.591  10.115   2.696  0.7946 -0.4339  0.5084
   81MOL0     C10841  -1.680  10.174   2.589 -0.0909 -0.1460  0.0237
   81MOL0     C10842  -1.806  10.221   2.669  0.0467 -0.4419 -1.3201
   81MOL0     C10843  -1.908  10.307   2.603 -0.1715 -1.2714  0.0923
   81MOL0     C10844  -2.026  10.332   2.692  0.3311 -0.0471 -0.8553
   81MOL0    Cl10845  -2.157  10.200   2.658  0.0107  0.1414 -0.2496
   81MOL0     C10846  -1.040   9.942   2.434  0.0848  0.0959 -0.2464
   81MOL0     C10847  -0.949   9.865   2.361  0.7097 -0.4637 -0.5555
   81MOL0     O10848  -1.027   9.488   2.321 -0.7855 -0.2173  0.4985
   81MOL0     C10849  -0.898   9.339   2.103  0.1071 -0.7191 -0.5406
   81MOL0     C10850  -0.829   9.237   2.032  0.7928 -0.2594 -0.4850
   81MOL0     N10851  -0.148   8.657   1.934 -0.7452 -0.3350  0.2135
   81MOL0     N10852  -0.027   8.611   1.927  0.3631 -0.0904  0.1381
   81MOL0     C10853   0.773   8.324   2.342  0.7896 -0.3950 -1.1357
   81MOL0     C10854   0.868   8.413   2.387  0.3783 -0.2073  0.0290
   81MOL0     C10855   1.183   8.563   2.668 -0.2484  0.3203 -0.7701
   81MOL0     C10856   1.193   8.700   2.628 -0.4543 -0.5652  0.2973
   81MOL0     C10857   1.296   8.781   2.679 -0.3246  0.0896 -0.0953
   81MOL0     C10858   1.392   8.726   2.773  0.5603 -1.7029 -0.2797
   81MOL0     O10859   1.498   8.784   2.833  0.0282  0.4604  0.1990
   81MOL0     C10860   1.479   8.920   2.885 -0.2256 -0.2982 -0.1168
   81MOL0     C10861   1.566   8.956   3.013 -0.0656  0.1278 -0.1351
   81MOL0     C10862   1.707   8.962   2.958  0.4612  0.7558  0.5589
   81MOL0     C10863   1.811   8.976   3.067 -0.5449 -0.3492  0.6540
   81MOL0     C10864   1.821   9.117   3.114  0.8870  0.2811  0.4121
   81MOL0     C10865   1.816   9.231   3.158 -0.2337  0.4756  0.1896
   81MOL0     C10866   1.377   8.599   2.813 -0.2251  0.9712  0.7066
   81MOL0     C10867   1.278   8.512   2.766  0.5242 -0.0001  0.9967
   81MOL0     H10868   0.736   8.476   2.699  0.2022 -0.7104  0.2226
   81MOL0     H10869   0.565   8.353   2.614 -0.5033 -2.1230 -0.6188
   81MOL0     H10870   0.366   8.156   2.367  0.2770 -1.3202  1.3790
   81MOL0     H10871   0.424   8.220   2.507  2.2053 -0.1037  0.4029
   81MOL0     H10872   0.244   8.355   2.423  1.2718 -2.2694 -0.2604
   81MOL0     H10873   0.404   8.449   2.427  3.0566  0.0844 -2.3040
   81MOL0     H10874   0.267   8.325   2.182 -0.0796  1.6939 -2.6219
   81MOL0     H10875   0.247   8.495   2.227  0.6276 -0.1171 -2.3156
   81MOL0     H10876   0.487   8.540   2.200  2.2271 -0.7660 -2.5357
   81MOL0     H10877   0.508   8.384   2.124 -0.2164 -0.7280 -2.3954
   81MOL0     H10878   0.464   8.539   1.954  0.4300 -3.7836 -1.0956
   81MOL0     H10879   0.307   8.458   1.974  1.6519 -2.2308 -0.5342
   81MOL0     H10880   0.202   8.650   2.076 -0.6665  1.2737  1.9231
   81MOL0     H10881   0.350   8.729   2.129 -0.4696  0.4281 -0.2458
   81MOL0     H10882   0.290   8.859   1.918 -0.6112  0.1283 -0.5662
   81MOL0     H10883   0.398   8.738   1.871 -1.8998 -1.1323 -2.8796
   81MOL0     H10884   0.237   8.576   1.795 -0.3605 -0.0660 -1.0080
   81MOL0     H10885   0.214   8.730   1.721  0.8584 -0.3007 -0.1099
   81MOL0     H10886   0.002   8.879   1.754 -4.7090  1.6340  1.1758
   81MOL0     H10887  -0.227   8.936   1.758 -1.5204 -0.8522 -0.8858
   81MOL0     H10888  -0.340   8.804   1.809  0.3805 -0.2626 -0.2132
   81MOL0     H10889  -0.253   9.048   1.952 -1.0549  0.6955  1.2379
   81MOL0     H10890  -0.294   8.920   2.051  0.7725 -1.1050 -1.3464
   81MOL0     H10891  -0.518   8.896   1.957  2.7223 -1.4407 -0.8902
   81MOL0     H10892  -0.478   9.020   1.827 -2.7730  3.1570  0.4566
   81MOL0     H10893  -0.445   9.187   2.007 -1.5897  1.5919 -0.5733
   81MOL0     H10894  -0.475   9.067   2.130 -2.5093  0.7641  1.5707
   81MOL0     H10895  -0.533   9.286   2.182 -0.3444  0.6845  0.9500
   81MOL0     H10896  -0.677   9.441   2.435 -2.6682 -0.3014 -1.2062
   81MOL0     H10897  -0.522   9.452   2.346 -0.2339  1.1670  1.8070
   81MOL0     H10898  -0.630   9.581   2.323  3.0062 -0.2339 -0.5840
   81MOL0     H10899  -0.959   9.581   2.542  1.4435 -0.2117  0.0033
   81MOL0     H10900  -1.111   9.699   2.656  0.1219 -0.9264 -1.5121
   81MOL0     H10901  -1.349   9.830   2.623 -1.8528  2.6278 -0.7588
   81MOL0     H10902  -1.241   9.817   2.767 -1.5916 -0.1403  2.5372
   81MOL0     H10903  -1.453   9.936   2.824 -0.8571 -0.1093 -1.5736
   81MOL0     H10904  -1.324  10.066   2.812  0.5160  0.3823 -0.1013
   81MOL0     H10905  -1.498   9.963   2.588  0.2670  1.5504 -1.2283
   81MOL0     H10906  -1.400  10.122   2.595  0.8957  1.3150  0.7107
   81MOL0     H10907  -1.645  10.034   2.745  3.2257 -1.4384  1.7207
   81MOL0     H10908  -1.561  10.192   2.767  0.9761  2.3521 -2.3824
   81MOL0     H10909  -1.711  10.100   2.516 -1.2627 -1.7549  2.0497
   81MOL0     H10910  -1.617  10.252   2.543 -0.8131  0.4909  0.0980
   81MOL0     H10911  -1.856  10.132   2.709 -0.6488  1.0957  1.4419
   81MOL0     H10912  -1.771  10.289   2.747 -2.1090  3.0492 -3.1226
   81MOL0     H10913  -1.947  10.272   2.507  0.0122  0.9692 -0.8704
   81MOL0     H10914  -1.854  10.401   2.584  0.4789 -1.7508 -0.5058
   81MOL0     H10915  -2.063  10.435   2.697  4.3146  1.5170  2.1987
   81MOL0     H10916  -1.985  10.318   2.793  1.7734 -0.4970 -1.4786
   81MOL0     H10917  -1.063  10.044   2.406  1.1248  0.4850  0.2631
   81MOL0     H10918  -0.892   9.921   2.288  0.8825  1.9402  1.2899
   81MOL0     H10919  -0.998   9.371   2.076  1.5576  4.7761 -0.5652
   81MOL0     H10920  -0.873   9.184   1.949 -0.8395 -0.0596  0.2116
   81MOL0     H10921   0.789   8.267   2.251  0.7992 -0.6970 -0.9467
   81MOL0     H10922   0.963   8.430   2.338  0.0113 -1.3089 -1.1178
   81MOL0     H10923   1.121   8.729   2.552  0.6136 -3.0744 -1.8119
   81MOL0     H10924   1.301   8.887   2.656 -0.5993  0.3395  0.9611
   81MOL0     H10925   1.521   8.968   2.797  0.8609 -2.1541 -0.6676
   81MOL0     H10926   1.374   8.942   2.908  0.9275  4.5404  1.5974
   81MOL0     H10927   1.541   8.888   3.095  0.5194  0.7428  0.5690
   81MOL0     H10928   1.540   9.055   3.051 -1.0885 -0.8251  1.7859
   81MOL0     H10929   1.716   9.044   2.887  3.8326  0.5464  0.5845
   81MOL0     H10930   1.719   8.871   2.898 -1.5023  0.4069  0.6386
   81MOL0     H10931   1.903   8.953   3.013 -1.3259  0.9396 -1.3193
   81MOL0     H10932   1.787   8.912   3.153 -1.0975  0.7542  1.3518
   81MOL0     H10933   1.818   9.332   3.194 -0.3417  0.3253  0.6262
   81MOL0     H10934   1.446   8.565   2.889  0.3652 -2.1535 -1.0669
   81MOL0     H10935   1.254   8.414   2.805  4.8318 -0.8848  1.9360
   82MOL0     O10936   6.525   0.223   9.738  0.1032  0.6464  0.2004
   82MOL0     C10937   6.510   0.100   9.757 -0.0723 -0.6238  0.5583
   82MOL0     O10938   6.491   0.008   9.662 -0.2757  0.2971 -0.1219
   82MOL0     C10939   6.518   0.059   9.538 -0.2429  0.3599  0.5507
   82MOL0     C10940   6.421   0.112   9.445 -0.1802 -1.2890 -0.2972
   82MOL0     C10941   6.464   0.193   9.336 -0.2191 -0.6448  0.0643
   82MOL0     C10942   6.602   0.203   9.303  0.0713  0.2970  0.0580
   82MOL0     O10943   6.634   0.262   9.177 -0.5532  0.3843 -0.9446
   82MOL0     C10944   6.670   0.161   9.076 -0.5705  0.3749  0.0110
   82MOL0     C10945   6.628   0.208   8.932  1.0491  0.3884  0.1184
   82MOL0     C10946   6.483   0.267   8.941 -0.5796 -0.4019  0.8147
   82MOL0     C10947   6.441   0.298   8.799  0.3975 -0.4677 -0.0533
   82MOL0     C10948   6.287   0.326   8.782  0.6340  0.9919 -0.1607
   82MOL0     C10949   6.242   0.453   8.868  0.1889  0.3316  0.1881
   82MOL0     C10950   6.095   0.490   8.862  1.0539  0.1404 -0.0960
   82MOL0     C10951   5.991   0.392   8.922  0.7888  0.5675 -0.0156
   82MOL0     N10952   6.034   0.353   9.052 -0.7858  0.1303 -0.1639
   82MOL0     C10953   6.017   0.422   9.167 -0.2169 -0.3865  0.2565
   82MOL0     C10954   6.059   0.337   9.261 -1.0330 -0.2262  0.2149
   82MOL0     C10955   6.088   0.367   9.408 -0.0094  0.9767 -0.0425
   82MOL0     C10956   6.011   0.492   9.468  0.0436 -0.2150 -0.4258
   82MOL0     C10957   5.948   0.478   9.599  0.0357 -0.7799 -0.4278
   82MOL0     C10958   5.845   0.378   9.596 -0.1037 -0.0413  0.1882
   82MOL0     O10959   5.746   0.377   9.487 -0.4643  0.4931  0.1181
   82MOL0     C10960   5.669   0.491   9.462 -0.1768  0.1423  0.1660
   82MOL0     C10961   5.621   0.556   9.575  0.7467 -0.7326  0.0296
   82MOL0     C10962   5.528   0.663   9.563  0.1287  0.6622  0.6059
   82MOL0     C10963   5.482   0.714   9.693 -0.1919 -1.0451  0.4958
   82MOL0     C10964   5.496   0.704   9.428 -0.1195 -0.2210  1.4677
   82MOL0     C10965   5.414   0.818   9.396 -0.2333 -0.3842 -0.2334
   82MOL0     O10966   5.363   0.896   9.501 -0.0073 -0.6303 -0.6856
   82MOL0     C10967   5.300   1.011   9.470  0.6447  1.0877  0.4089
   82MOL0     C10968   5.372   1.123   9.431 -0.0752  0.9618 -0.3407
   82MOL0     C10969   5.318   1.249   9.408  0.6420 -0.0263 -0.2269
   82MOL0     C10970   5.177   1.264   9.417 -0.1078  0.0564  0.6182
   82MOL0     O10971   5.106   1.371   9.374  0.1523  0.0929  0.4753
   82MOL0     C10972   5.128   1.395   9.227 -0.2990  0.4698  0.3564
   82MOL0     C10973   5.025   1.490   9.168  0.3670  0.8187 -0.3749
   82MOL0     C10974   4.883   1.428   9.156  0.3733  0.0354  0.2818
   82MOL0     C10975   4.806   1.469   9.283  0.8299  0.1300 -0.5377
   82MOL0     C10976   4.703   1.362   9.323  0.1143 -0.6521  0.2912
   82MOL0     C10977   4.632   1.419   9.446 -0.3217  0.0845 -0.0110
   82MOL0     C10978   4.497   1.343   9.459  0.1605  0.5634 -0.8721
   82MOL0     C10979   4.432   1.405   9.583  0.3140  0.1848 -0.3937
   82MOL0    Cl10980   4.519   1.386   9.741 -0.1164 -0.0282  0.2414
   82MOL0     C10981   5.103   1.159   9.473  0.0590 -0.8654 -0.1582
   82MOL0     C10982   5.159   1.026   9.488  0.6635 -0.2078  0.7670
   82MOL0     O10983   5.406   0.859   9.284 -0.3787  0.6035 -0.3241
   82MOL0     C10984   5.550   0.644   9.312 -0.5659  0.2405  0.1425
   82MOL0     C10985   5.635   0.537   9.337 -0.4940 -0.1159  0.0090
   82MOL0     N10986   6.086   0.214   9.202 -0.8327 -0.0097 -0.2316
   82MOL0     N10987   6.067   0.223   9.076 -0.0565 -0.6798 -0.3137
   82MOL0     C10988   6.697   0.137   9.381 -0.0302  0.5681  0.2556
   82MOL0     C10989   6.652   0.067   9.495  1.2498  0.0540 -0.5716
   82MOL0     C10990   6.522   0.034   9.891  0.1543  0.5829 -1.0933
   82MOL0     C10991   6.517  -0.104   9.903  0.0616 -0.2124 -0.1306
   82MOL0     C10992   6.524  -0.160  10.029 -0.4510  0.0910  0.4810
   82MOL0     C10993   6.558  -0.084  10.141  0.0710 -0.2093 -0.0629
   82MOL0     O10994   6.583  -0.147  10.262 -0.0069 -0.2537  0.1283
   82MOL0     C10995   6.595  -0.288  10.277  0.1927  0.3001  0.1912
   82MOL0     C10996   6.668  -0.315  10.406  0.0261 -0.0085  0.1183
   82MOL0     C10997   6.576  -0.302  10.530  0.1297 -0.1126 -0.2133
   82MOL0     C10998   6.479  -0.418  10.558 -0.4031 -0.2231  0.1538
   82MOL0     C10999   6.348  -0.396  10.607 -0.6384 -0.3113 -0.2017
   82MOL0     C11000   6.235  -0.375  10.651 -1.0513 -0.2147 -0.6102
   82MOL0     C11001   6.564   0.059  10.131  0.3109  0.4522  0.7389
   82MOL0     C11002   6.549   0.120  10.007  0.1888 -0.5143  0.8003
   82MOL0     H11003   6.316   0.118   9.472 -0.4309  1.3879 -1.5927
   82MOL0     H11004   6.406   0.259   9.271  1.8371  2.2861  0.9841
   82MOL0     H11005   6.777   0.142   9.061 -1.2063 -0.3562 -5.7064
   82MOL0     H11006   6.627   0.065   9.104  2.9243 -1.4097 -0.1719
   82MOL0     H11007   6.690   0.291   8.897 -0.1506  1.0110 -0.6131
   82MOL0     H11008   6.641   0.121   8.867  1.4019 -0.6864  1.5835
   82MOL0     H11009   6.415   0.199   8.993 -1.2227  0.6756  1.4175
   82MOL0     H11010   6.477   0.359   9.001 -2.1991 -0.2807  0.5250
   82MOL0     H11011   6.506   0.376   8.758  1.1420 -1.7217 -1.3760
   82MOL0     H11012   6.461   0.213   8.732  2.9454  1.0152 -1.3322
   82MOL0     H11013   6.264   0.333   8.675  0.3607 -0.9164 -0.2724
   82MOL0     H11014   6.235   0.238   8.822  0.3039  1.4618  0.4671
   82MOL0     H11015   6.266   0.438   8.974 -2.6731  0.9234  1.0189
   82MOL0     H11016   6.301   0.537   8.831  3.9537 -2.6061 -1.1429
   82MOL0     H11017   6.084   0.584   8.918  0.9218 -0.7265  1.4019
   82MOL0     H11018   6.070   0.515   8.759  0.2599  1.0049  0.2937
   82MOL0     H11019   5.983   0.304   8.859  2.1238 -0.2586  0.8958
   82MOL0     H11020   5.892   0.437   8.916  0.0084 -1.1538 -0.6057
   82MOL0     H11021   5.977   0.523   9.178 -0.6809 -0.3392 -1.5063
   82MOL0     H11022   6.068   0.278   9.467 -1.1888  0.7204 -0.7920
   82MOL0     H11023   6.195   0.387   9.411 -0.2131  2.1416 -0.0218
   82MOL0     H11024   5.934   0.529   9.400  1.1451 -1.5050 -2.4542
   82MOL0     H11025   6.089   0.570   9.469 -1.1208  1.0339  2.1894
   82MOL0     H11026   5.905   0.572   9.638  0.3241 -1.7020  2.3668
   82MOL0     H11027   6.022   0.449   9.674 -0.3938 -0.8266 -0.0146
   82MOL0     H11028   5.798   0.386   9.695 -1.4764  2.8962 -0.6002
   82MOL0     H11029   5.888   0.277   9.601 -0.9731 -0.3861  1.2167
   82MOL0     H11030   5.640   0.522   9.676 -3.4914 -1.4915  0.7616
   82MOL0     H11031   5.576   0.718   9.748  1.2605  2.0311 -1.8988
   82MOL0     H11032   5.432   0.811   9.687  2.2476  0.2060 -3.1101
   82MOL0     H11033   5.406   0.649   9.737 -2.4218  1.0727 -0.0246
   82MOL0     H11034   5.475   1.107   9.401  0.2813 -0.7374  1.5581
   82MOL0     H11035   5.376   1.338   9.384 -1.9858  1.8510  0.0022
   82MOL0     H11036   5.229   1.436   9.214 -0.6240  1.3443  0.5740
   82MOL0     H11037   5.124   1.298   9.177 -0.0520  0.2143  0.8175
   82MOL0     H11038   5.015   1.588   9.215 -2.6361 -0.0064  0.9803
   82MOL0     H11039   5.063   1.508   9.068  0.3144  0.1537 -0.5216
   82MOL0     H11040   4.894   1.323   9.130 -1.8718  0.3424 -2.3544
   82MOL0     H11041   4.828   1.473   9.073  3.9107  1.6617 -1.3598
   82MOL0     H11042   4.882   1.483   9.361  0.6467 -0.6379 -0.2120
   82MOL0     H11043   4.757   1.565   9.266  2.6398  0.9552 -1.3642
   82MOL0     H11044   4.754   1.268   9.344 -0.2964 -0.3002  3.3591
   82MOL0     H11045   4.634   1.338   9.242  2.6037  1.1151 -2.5989
   82MOL0     H11046   4.694   1.402   9.534 -1.5696 -0.2124  0.8324
   82MOL0     H11047   4.606   1.525   9.436  0.7818  0.2764 -1.1096
   82MOL0     H11048   4.518   1.237   9.473 -0.9496  0.4739  0.2379
   82MOL0     H11049   4.429   1.367   9.377 -1.0178  0.2455 -0.0076
   82MOL0     H11050   4.330   1.370   9.601  0.7680  0.8426  5.3965
   82MOL0     H11051   4.426   1.514   9.572  1.1877  0.3143  0.2803
   82MOL0     H11052   5.001   1.177   9.504  0.6842 -0.6753  1.9094
   82MOL0     H11053   5.100   0.946   9.532  1.5716  0.1346  2.7609
   82MOL0     H11054   5.547   0.681   9.210  3.2851  1.7742  0.4253
   82MOL0     H11055   5.672   0.500   9.242  3.1282  1.5559  0.6023
   82MOL0     H11056   6.800   0.155   9.351 -0.6639  1.0007 -1.8362
   82MOL0     H11057   6.723   0.029   9.568 -0.9315  1.0675  2.2592
   82MOL0     H11058   6.487  -0.175   9.827  1.6121 -2.2731  1.0924
   82MOL0     H11059   6.511  -0.268  10.039  2.0949 -0.2965  0.2493
   82MOL0     H11060   6.498  -0.337  10.287 -0.7832  2.0747 -0.1552
   82MOL0     H11061   6.655  -0.327  10.193  1.2571 -1.6650  1.7857
   82MOL0     H11062   6.757  -0.251  10.415  0.9173 -0.8836 -1.7750
   82MOL0     H11063   6.710  -0.416  10.398  0.4834  0.3253 -2.4552
   82MOL0     H11064   6.526  -0.205  10.520  4.4485  2.5080  0.8843
   82MOL0     H11065   6.642  -0.291  10.616 -0.1220 -1.5042  0.1823
   82MOL0     H11066   6.527  -0.481  10.634 -1.2333 -1.4845 -0.3457
   82MOL0     H11067   6.469  -0.480  10.469  0.4717 -0.0682 -0.0513
   82MOL0     H11068   6.138  -0.364  10.697 -1.0597  0.4902 -0.7830
   82MOL0     H11069   6.589   0.105  10.226 -1.7264 -0.0022  1.5471
   82MOL0     H11070   6.561   0.227   9.996 -1.2634 -0.3693  0.3538
   83MOL0     O11071   6.420   3.280  11.085 -0.0130  0.3576 -0.1797
   83MOL0     C11072   6.516   3.313  11.152 -0.9876  0.4452 -0.9818
   83MOL0     O11073   6.517   3.415  11.251 -0.0110  0.8611  0.5742
   83MOL0     C11074   6.398   3.475  11.271  0.5524 -0.5008 -0.2609
   83MOL0     C11075   6.304   3.407  11.353 -0.3563 -0.4245 -0.8339
   83MOL0     C11076   6.193   3.473  11.396  0.2604 -0.0563  0.6236
   83MOL0     C11077   6.159   3.602  11.351 -0.0735 -0.1791  0.5996
   83MOL0     O11078   6.038   3.646  11.388 -0.4808 -0.4097  0.0116
   83MOL0     C11079   5.959   3.666  11.261  0.2710  0.2582  0.3652
   83MOL0     C11080   5.813   3.687  11.298 -0.3026  0.2513 -0.8140
   83MOL0     C11081   5.704   3.672  11.195  0.2247 -0.2699  0.0902
   83MOL0     C11082   5.669   3.516  11.179 -0.0038 -0.7624  0.4565
   83MOL0     C11083   5.623   3.482  11.037 -0.0229  0.1471  0.1196
   83MOL0     C11084   5.489   3.543  11.003  0.0481  0.8455  0.2024
   83MOL0     C11085   5.380   3.510  11.114 -0.6598 -0.1969  0.2010
   83MOL0     C11086   5.252   3.543  11.052 -0.1764 -0.2940  0.2227
   83MOL0     N11087   5.142   3.487  11.128  0.0157  0.4631  0.3096
   83MOL0     C11088   5.073   3.372  11.097 -0.8232 -1.1464  0.2726
   83MOL0     C11089   4.984   3.346  11.192  0.3082  1.2036  0.4651
   83MOL0     C11090   4.888   3.235  11.211  0.3858 -0.5976 -0.1296
   83MOL0     C11091   4.765   3.224  11.109 -0.7115  0.1911 -0.2386
   83MOL0     C11092   4.682   3.099  11.127  0.5687  0.0093  0.2925
   83MOL0     C11093   4.539   3.123  11.076 -0.1739  1.4304 -0.4422
   83MOL0     O11094   4.454   3.015  11.123  0.1028 -0.1414 -0.8695
   83MOL0     C11095   4.320   3.027  11.096 -0.0521  0.7401 -0.6101
   83MOL0     C11096   4.257   3.133  11.031  0.3183  0.8002 -0.3403
   83MOL0     C11097   4.119   3.138  11.014 -0.1830 -0.7861 -0.0495
   83MOL0     C11098   4.061   3.266  10.958 -0.5110  1.5499 -0.5326
   83MOL0     C11099   4.043   3.017  11.039  0.6636  0.3014  0.7934
   83MOL0     C11100   3.900   2.997  11.006 -0.0580  0.2792  0.1304
   83MOL0     O11101   3.841   2.891  11.057  0.0042  1.1969 -0.5490
   83MOL0     C11102   3.707   2.887  11.054  0.9979 -0.2909 -0.2388
   83MOL0     C11103   3.632   2.798  10.977  0.4790  0.2407  0.1393
   83MOL0     C11104   3.494   2.810  10.989 -0.2598  0.0881 -0.7235
   83MOL0     C11105   3.425   2.877  11.089 -0.5918  0.6271 -0.7934
   83MOL0     O11106   3.287   2.855  11.105 -0.1835  0.4894 -0.4340
   83MOL0     C11107   3.223   2.912  11.219 -0.6684  0.5813 -0.2166
   83MOL0     C11108   3.073   2.882  11.213  0.0644  0.2387  0.8230
   83MOL0     C11109   3.033   2.764  11.300 -0.1553  0.0977 -0.3314
   83MOL0     C11110   3.065   2.627  11.221  0.0725  0.4166 -0.8691
   83MOL0     C11111   3.021   2.503  11.306 -0.4273 -0.6854  0.3806
   83MOL0     C11112   3.035   2.362  11.240 -0.2967  0.3051  0.1852
   83MOL0     C11113   3.016   2.259  11.343 -0.3355  0.5258  0.1669
   83MOL0     C11114   2.981   2.126  11.288 -0.6306  0.4877 -0.1349
   83MOL0    Cl11115   3.084   2.060  11.153 -0.1464  0.5999  0.1046
   83MOL0     C11116   3.501   2.949  11.172  0.2494 -0.4068  0.2141
   83MOL0     C11117   3.636   2.971  11.144  0.1270  0.0185 -0.3998
   83MOL0     O11118   3.835   3.079  10.941 -0.3217 -0.0125 -0.7625
   83MOL0     C11119   4.111   2.911  11.101  0.0614 -0.0156 -0.7140
   83MOL0     C11120   4.241   2.923  11.146 -0.2597 -0.0406  0.2216
   83MOL0     N11121   4.998   3.443  11.284  0.3241 -0.8201  0.1888
   83MOL0     N11122   5.079   3.532  11.238 -0.6900  0.0177 -1.0491
   83MOL0     C11123   6.253   3.671  11.266  0.2261  1.3933 -0.3021
   83MOL0     C11124   6.371   3.611  11.231  0.3791 -0.1720 -0.6177
   83MOL0     C11125   6.645   3.236  11.128  0.6105  0.5735  0.8566
   83MOL0     C11126   6.762   3.264  11.186 -0.2229 -0.4301 -0.4363
   83MOL0     C11127   6.879   3.193  11.158 -0.2906 -0.2100  0.1121
   83MOL0     C11128   6.887   3.105  11.052 -0.7952 -0.2934  0.2760
   83MOL0     O11129   6.995   3.027  11.025 -0.8635 -0.8182  0.3767
   83MOL0     C11130   7.126   3.083  11.056 -0.1732 -1.0326  0.7282
   83MOL0     C11131   7.228   3.053  10.945 -0.1183 -0.5798 -0.1619
   83MOL0     C11132   7.268   2.909  10.917  0.7365 -0.1104 -0.8449
   83MOL0     C11133   7.342   2.845  11.041  0.3247  0.4169 -0.0872
   83MOL0     C11134   7.371   2.706  11.039  0.3859  0.1956 -0.1182
   83MOL0     C11135   7.402   2.592  11.019  0.2430 -0.4946  0.4821
   83MOL0     C11136   6.775   3.087  10.972 -0.2472  0.3841  0.5653
   83MOL0     C11137   6.647   3.144  11.016  0.0359  0.3122  0.3517
   83MOL0     H11138   6.330   3.304  11.372  0.5219 -0.8487 -3.8033
   83MOL0     H11139   6.123   3.441  11.472 -2.5857  2.4024 -0.7842
   83MOL0     H11140   5.998   3.751  11.206 -1.0368  0.3862 -0.4156
   83MOL0     H11141   5.964   3.589  11.183  2.2562  0.5401  0.1757
   83MOL0     H11142   5.782   3.627  11.383 -1.6611  0.7860 -0.9040
   83MOL0     H11143   5.805   3.791  11.332  2.0396  1.1880 -2.8310
   83MOL0     H11144   5.620   3.721  11.245 -1.8339 -2.7542 -0.6991
   83MOL0     H11145   5.734   3.715  11.099 -0.7398  0.3203  0.0467
   83MOL0     H11146   5.754   3.449  11.195  0.1245 -0.8214 -0.4105
   83MOL0     H11147   5.600   3.513  11.264 -0.6729  2.3978  0.1355
   83MOL0     H11148   5.696   3.517  10.963 -0.0669  0.2798  0.1388
   83MOL0     H11149   5.619   3.374  11.023  1.7742  0.2000 -1.1200
   83MOL0     H11150   5.496   3.650  10.979  0.4138  0.8764  0.4486
   83MOL0     H11151   5.464   3.505  10.903  0.5055  0.8343  0.0893
   83MOL0     H11152   5.381   3.402  11.132  2.2536 -0.1851  0.5285
   83MOL0     H11153   5.374   3.572  11.204 -3.4786  1.7028 -1.1625
   83MOL0     H11154   5.243   3.510  10.948 -1.5228 -0.4308  0.3622
   83MOL0     H11155   5.238   3.651  11.046 -1.6321 -0.5109 -1.1384
   83MOL0     H11156   5.078   3.312  11.006 -3.0516  0.4725 -1.0278
   83MOL0     H11157   4.950   3.145  11.221 -1.8703 -2.0355  2.0716
   83MOL0     H11158   4.837   3.238  11.308 -1.2689  1.9493 -0.9821
   83MOL0     H11159   4.796   3.234  11.004  0.9938  1.9820  0.3655
   83MOL0     H11160   4.696   3.305  11.134 -0.5796 -0.0679  1.0217
   83MOL0     H11161   4.677   3.073  11.233 -0.2803 -2.3137 -0.2576
   83MOL0     H11162   4.726   3.014  11.074 -1.1831 -0.8960  0.2226
   83MOL0     H11163   4.531   3.140  10.968 -0.5787 -4.0035 -1.5378
   83MOL0     H11164   4.513   3.218  11.123  1.5336  0.8652  1.8129
   83MOL0     H11165   4.313   3.217  10.990  1.3697 -0.0809 -0.7521
   83MOL0     H11166   4.016   3.238  10.862 -1.4242 -0.6553  0.4561
   83MOL0     H11167   3.989   3.315  11.023  1.6367  2.8082  1.0381
   83MOL0     H11168   4.140   3.340  10.945  1.1659  0.4021  2.1262
   83MOL0     H11169   3.676   2.735  10.900 -1.4349 -0.5237 -0.3666
   83MOL0     H11170   3.444   2.746  10.917  3.4976 -3.0741 -0.8203
   83MOL0     H11171   3.267   2.865  11.308 -0.1440 -3.2977 -2.3139
   83MOL0     H11172   3.233   3.019  11.237  2.8697 -0.1928  4.6201
   83MOL0     H11173   3.010   2.968  11.241 -0.8049 -1.1760  3.6402
   83MOL0     H11174   3.062   2.860  11.107  3.8269  1.8921 -0.0712
   83MOL0     H11175   2.927   2.769  11.330 -0.8588 -0.8652 -2.4725
   83MOL0     H11176   3.094   2.782  11.389 -1.7348 -1.5213  1.1577
   83MOL0     H11177   3.010   2.634  11.126 -2.4429 -2.3790  0.2150
   83MOL0     H11178   3.170   2.617  11.192  1.1383 -1.1813  2.9027
   83MOL0     H11179   2.914   2.519  11.323 -0.5663  0.2298 -1.1659
   83MOL0     H11180   3.082   2.501  11.397  1.1336  1.0560 -0.5495
   83MOL0     H11181   2.966   2.335  11.160 -0.2965 -1.0952  0.6129
   83MOL0     H11182   3.138   2.346  11.208 -0.6665  1.5203 -1.8054
   83MOL0     H11183   2.935   2.288  11.411  0.0316 -1.6491  1.6482
   83MOL0     H11184   3.099   2.236  11.411 -0.7684 -2.2968 -0.1338
   83MOL0     H11185   2.881   2.128  11.245 -0.2193 -0.9629 -1.2709
   83MOL0     H11186   2.962   2.049  11.363 -0.3739 -0.3274 -0.8841
   83MOL0     H11187   3.454   3.000  11.256  0.2117 -0.7414  0.3995
   83MOL0     H11188   3.689   3.049  11.198 -2.5831  1.8159 -0.1263
   83MOL0     H11189   4.052   2.824  11.128 -1.6863  2.1170  3.1435
   83MOL0     H11190   4.294   2.845  11.199  2.8804 -0.8657 -3.6774
   83MOL0     H11191   6.223   3.761  11.212 -1.0796  1.4894  0.5271
   83MOL0     H11192   6.435   3.649  11.152  0.0875 -1.8311 -1.7025
   83MOL0     H11193   6.778   3.341  11.260 -2.7904 -1.0304  0.8323
   83MOL0     H11194   6.966   3.212  11.221 -0.4450  2.3374 -0.3415
   83MOL0     H11195   7.124   3.192  11.058  1.2141 -0.9488 -0.4996
   83MOL0     H11196   7.156   3.050  11.156  1.8650 -1.2777  0.0831
   83MOL0     H11197   7.318   3.109  10.970  0.7465 -1.4115 -1.2620
   83MOL0     H11198   7.181   3.099  10.857  1.8663  2.1630  0.1057
   83MOL0     H11199   7.323   2.938  10.827  0.4864 -0.9156 -1.2598
   83MOL0     H11200   7.184   2.850  10.879  2.3399 -1.7273 -2.0469
   83MOL0     H11201   7.274   2.842  11.126  1.8263 -1.7055  1.1221
   83MOL0     H11202   7.429   2.910  11.055  1.6804 -0.3227 -3.8092
   83MOL0     H11203   7.443   2.497  10.991  1.0140 -0.0521  0.0630
   83MOL0     H11204   6.770   3.017  10.889 -3.1988 -4.2398  4.1293
   83MOL0     H11205   6.563   3.129  10.949 -2.1815  1.5745  2.7207
   84MOL0     O11206   4.898   4.518   9.454 -0.2323  0.0196 -0.0160
   84MOL0     C11207   5.013   4.569   9.453  0.1521 -0.4303 -0.2561
   84MOL0     O11208   5.040   4.699   9.443  0.2083  0.7448  0.1847
   84MOL0     C11209   4.945   4.787   9.414 -0.3237 -0.3662 -0.0764
   84MOL0     C11210   4.941   4.913   9.485  0.4042 -0.2249 -0.5734
   84MOL0     C11211   4.863   5.017   9.450  0.6625  0.1018 -1.6681
   84MOL0     C11212   4.772   5.004   9.348 -0.6962  0.5226 -0.0811
   84MOL0     O11213   4.691   5.106   9.332  0.7139 -0.0731 -0.3328
   84MOL0     C11214   4.612   5.081   9.217  0.0974 -0.0176 -0.4004
   84MOL0     C11215   4.528   5.214   9.201  0.7433  0.5954  1.0820
   84MOL0     C11216   4.420   5.202   9.096  0.7614 -0.1882  0.9562
   84MOL0     C11217   4.368   5.340   9.068  0.0956 -0.3399  0.8324
   84MOL0     C11218   4.244   5.323   8.974  0.4634  0.0778 -0.4859
   84MOL0     C11219   4.164   5.445   8.933 -0.7739  0.2513  0.5561
   84MOL0     C11220   4.115   5.527   9.048  0.2555 -0.1757 -1.1060
   84MOL0     C11221   4.017   5.461   9.153 -0.1859 -0.5307 -0.6046
   84MOL0     N11222   3.911   5.379   9.096 -0.2215 -0.0082  0.3143
   84MOL0     C11223   3.839   5.413   8.993 -0.2927 -0.2960  0.3485
   84MOL0     C11224   3.750   5.315   8.992 -0.8353 -0.6200 -0.1501
   84MOL0     C11225   3.628   5.321   8.906  0.5514 -0.2136 -0.6529
   84MOL0     C11226   3.537   5.446   8.932  0.5855  0.3522  0.2327
   84MOL0     C11227   3.473   5.432   9.075  0.7357  0.8508  0.5369
   84MOL0     C11228   3.387   5.549   9.118  0.2835  0.8193 -0.2717
   84MOL0     O11229   3.267   5.523   9.053  0.7926  0.0676  0.2083
   84MOL0     C11230   3.155   5.537   9.118  0.5409  0.3321  0.1320
   84MOL0     C11231   3.119   5.612   9.237 -0.2119 -0.8093  0.2443
   84MOL0     C11232   2.992   5.617   9.280 -0.3800 -0.7098 -0.8968
   84MOL0     C11233   2.982   5.696   9.417 -0.6414  0.7073 -0.1280
   84MOL0     C11234   2.886   5.536   9.222 -0.2074 -1.0787 -0.1788
   84MOL0     C11235   2.746   5.548   9.258  0.4287  0.3759 -0.2890
   84MOL0     O11236   2.671   5.443   9.232 -0.0818 -0.3863  0.7427
   84MOL0     C11237   2.533   5.463   9.198  0.3817  0.1672  0.3271
   84MOL0     C11238   2.441   5.378   9.259  0.5695  0.0727 -0.1212
   84MOL0     C11239   2.316   5.385   9.219  0.3917  1.2103  0.0185
   84MOL0     C11240   2.273   5.477   9.120  0.1133  0.2389  0.4163
   84MOL0     O11241   2.146   5.491   9.075 -0.8801  0.1069  0.6384
   84MOL0     C11242   2.051   5.399   9.116 -0.2486  0.5977  0.2489
   84MOL0     C11243   1.919   5.455   9.091  0.6511 -0.1640  0.0596
   84MOL0     C11244   1.895   5.460   8.940  0.3051 -0.1689  0.2785
   84MOL0     C11245   1.744   5.482   8.928  0.0440 -0.4850 -0.5419
   84MOL0     C11246   1.700   5.636   8.926  0.7545 -0.1677 -0.0522
   84MOL0     C11247   1.549   5.667   8.915  0.1784  1.1504  0.6985
   84MOL0     C11248   1.479   5.623   9.048  1.8010 -1.0183 -0.2396
   84MOL0     C11249   1.332   5.667   9.040 -0.6202  1.0740 -1.0255
   84MOL0    Cl11250   1.254   5.552   8.933  0.0347 -0.1186  0.3857
   84MOL0     C11251   2.359   5.559   9.052 -0.2666 -0.3538  0.6378
   84MOL0     C11252   2.493   5.545   9.093  0.6160 -0.6758 -0.7115
   84MOL0     O11253   2.701   5.646   9.312  0.3225  0.4812  0.5996
   84MOL0     C11254   2.928   5.461   9.116 -0.0183 -0.5612  0.2119
   84MOL0     C11255   3.052   5.471   9.058  0.5917 -0.0053 -0.4103
   84MOL0     N11256   3.775   5.228   9.091 -0.1367 -0.2458  0.9016
   84MOL0     N11257   3.880   5.260   9.150 -0.3284  0.0885  0.0678
   84MOL0     C11258   4.768   4.881   9.276 -1.5205 -0.4099  0.1654
   84MOL0     C11259   4.860   4.781   9.312  0.3362 -0.2347 -0.2655
   84MOL0     C11260   5.118   4.470   9.462 -0.8643 -0.2207  0.5662
   84MOL0     C11261   5.254   4.502   9.496 -0.0646  0.4819 -0.2715
   84MOL0     C11262   5.352   4.394   9.511 -0.5733 -0.1735 -0.2413
   84MOL0     C11263   5.309   4.258   9.502  0.1958 -0.4317  0.2897
   84MOL0     O11264   5.382   4.142   9.534 -0.0580  0.0058  0.1422
   84MOL0     C11265   5.510   4.152   9.594  0.6139  0.3160  0.2977
   84MOL0     C11266   5.544   4.004   9.629 -0.6277 -0.0210 -0.2037
   84MOL0     C11267   5.682   3.990   9.707  0.3577  0.7356 -0.0637
   84MOL0     C11268   5.754   3.872   9.653 -0.1569  0.1216 -0.0853
   84MOL0     C11269   5.885   3.863   9.725  0.1525  0.4156 -0.3168
   84MOL0     C11270   6.001   3.867   9.767 -1.2203  0.6102  0.1194
   84MOL0     C11271   5.178   4.239   9.468  0.8070 -1.2209 -0.8330
   84MOL0     C11272   5.081   4.337   9.440 -0.4272 -0.2380  0.9419
   84MOL0     H11273   5.015   4.913   9.565 -0.5135 -1.9615  0.3523
   84MOL0     H11274   4.874   5.110   9.504  1.2226 -1.7614  1.6569
   84MOL0     H11275   4.685   5.069   9.137 -0.5649  0.0667 -1.0296
   84MOL0     H11276   4.545   4.995   9.217  1.8517 -1.5101 -2.7793
   84MOL0     H11277   4.489   5.244   9.298 -2.4857  1.3048 -0.3034
   84MOL0     H11278   4.596   5.288   9.158 -2.1931  2.8147 -0.1119
   84MOL0     H11279   4.469   5.156   9.009 -1.0268  0.4418 -0.4453
   84MOL0     H11280   4.337   5.135   9.120 -2.5107  2.9783 -0.6766
   84MOL0     H11281   4.337   5.388   9.161  0.6016  1.8793 -0.0780
   84MOL0     H11282   4.436   5.409   9.018 -2.6159  1.6621 -0.3936
   84MOL0     H11283   4.281   5.285   8.879 -0.5778  0.5707 -1.1070
   84MOL0     H11284   4.181   5.245   9.019 -0.9097  0.7018 -1.2758
   84MOL0     H11285   4.227   5.505   8.866 -1.0888  0.9440  0.8648
   84MOL0     H11286   4.074   5.422   8.875 -1.9433 -2.6222  3.2205
   84MOL0     H11287   4.198   5.570   9.106 -1.8325  1.0932  1.1425
   84MOL0     H11288   4.060   5.618   9.022 -1.4147 -0.3444  1.4701
   84MOL0     H11289   3.966   5.533   9.218  0.7960 -0.9718  0.6865
   84MOL0     H11290   4.082   5.402   9.218  3.9463  1.6700 -2.3906
   84MOL0     H11291   3.850   5.506   8.939  1.1116  0.2725  1.5190
   84MOL0     H11292   3.650   5.333   8.800  1.1766  1.4785 -0.3550
   84MOL0     H11293   3.565   5.233   8.924 -0.4210  0.9879  2.5383
   84MOL0     H11294   3.455   5.450   8.860 -0.9738  1.7562  1.9655
   84MOL0     H11295   3.598   5.535   8.914  0.0236  0.4996 -1.0567
   84MOL0     H11296   3.547   5.423   9.155  1.1305  1.5437  0.2650
   84MOL0     H11297   3.422   5.335   9.078  0.0291  0.8267 -4.1374
   84MOL0     H11298   3.432   5.646   9.097  2.4639 -0.7854 -4.3416
   84MOL0     H11299   3.378   5.539   9.226  2.6102  1.3641  0.0300
   84MOL0     H11300   3.197   5.674   9.281 -0.8487  0.1869  0.0242
   84MOL0     H11301   2.888   5.753   9.424 -2.6306 -2.5789  3.2931
   84MOL0     H11302   2.985   5.632   9.505  4.7615  0.3057 -0.3101
   84MOL0     H11303   3.074   5.754   9.429  0.4872 -1.0999  0.1883
   84MOL0     H11304   2.474   5.315   9.341  1.3125 -0.3634 -0.7406
   84MOL0     H11305   2.248   5.324   9.276  1.5364  0.4229  0.5741
   84MOL0     H11306   2.059   5.310   9.052  0.7392  2.9086 -3.1371
   84MOL0     H11307   2.057   5.365   9.220 -0.3379 -1.4925 -0.3882
   84MOL0     H11308   1.848   5.383   9.136 -0.7638  1.3423  0.3330
   84MOL0     H11309   1.906   5.555   9.134  1.0128 -0.9063  2.0256
   84MOL0     H11310   1.917   5.366   8.887 -0.6994 -0.5445  0.5018
   84MOL0     H11311   1.954   5.543   8.901  0.1362 -0.6808 -1.1303
   84MOL0     H11312   1.732   5.440   8.827  0.3360 -0.8943 -0.4060
   84MOL0     H11313   1.697   5.425   9.009  1.1271 -0.3882  0.1685
   84MOL0     H11314   1.745   5.691   8.842 -0.2140  0.8709  0.0923
   84MOL0     H11315   1.738   5.677   9.019 -0.5011 -1.1110  0.9134
   84MOL0     H11316   1.528   5.771   8.889 -1.1375  0.9050  0.6819
   84MOL0     H11317   1.519   5.621   8.820  1.6438  3.4561 -0.9766
   84MOL0     H11318   1.523   5.667   9.139 -0.9669  0.5366  0.4479
   84MOL0     H11319   1.490   5.514   9.049 -0.9226 -1.4121 -2.3241
   84MOL0     H11320   1.333   5.771   9.007  0.6756  0.7913 -1.9583
   84MOL0     H11321   1.292   5.655   9.141 -0.3492 -4.0998 -1.2296
   84MOL0     H11322   2.322   5.615   8.967 -1.6530 -3.5047 -1.0265
   84MOL0     H11323   2.563   5.607   9.037  0.1138  3.8468  3.0504
   84MOL0     H11324   2.865   5.404   9.050  1.0238 -0.5822 -0.7951
   84MOL0     H11325   3.072   5.409   8.970 -1.5843  2.3093 -2.7007
   84MOL0     H11326   4.693   4.868   9.199 -0.5652  0.5851 -0.9870
   84MOL0     H11327   4.873   4.688   9.258  0.3853 -2.2081  2.8903
   84MOL0     H11328   5.282   4.604   9.518  2.6651 -0.6997  2.6631
   84MOL0     H11329   5.454   4.425   9.535 -1.9292  2.7453  2.5233
   84MOL0     H11330   5.585   4.204   9.534  1.5066  0.3047  1.3688
   84MOL0     H11331   5.499   4.204   9.690 -2.1897 -1.8697  1.3066
   84MOL0     H11332   5.562   3.953   9.534  1.9983 -1.7739  1.1120
   84MOL0     H11333   5.468   3.954   9.691 -1.3130 -0.4934 -1.4002
   84MOL0     H11334   5.663   3.971   9.813 -1.5949 -1.5509 -0.7216
   84MOL0     H11335   5.741   4.081   9.697  0.9438  0.2358 -1.4707
   84MOL0     H11336   5.768   3.875   9.544  1.6671 -4.2622 -0.1876
   84MOL0     H11337   5.697   3.782   9.678  1.2897 -0.6391  0.5874
   84MOL0     H11338   6.102   3.869   9.801 -1.5814  0.4494  1.2336
   84MOL0     H11339   5.148   4.135   9.469  0.0084 -0.9914  0.1373
   84MOL0     H11340   4.985   4.289   9.422 -1.4620  1.7617  0.8885
   85MOL0     O11341   2.868   3.068   0.964 -0.2157 -0.1105  0.5387
   85MOL0     C11342   2.945   3.152   0.914  0.1982 -0.0772 -0.5256
   85MOL0     O11343   2.927   3.286   0.925  0.1304  0.2574 -0.1836
   85MOL0     C11344   2.837   3.322   1.019 -0.5376 -0.9417  0.1183
   85MOL0     C11345   2.873   3.330   1.158 -0.2088 -0.5556  0.3241
   85MOL0     C11346   2.787   3.380   1.256  0.1943 -0.2156  0.7540
   85MOL0     C11347   2.663   3.434   1.213 -0.1039  0.8383 -0.9771
   85MOL0     O11348   2.576   3.494   1.295 -0.5206 -0.8391  0.2770
   85MOL0     C11349   2.615   3.549   1.424 -0.2380 -0.0627 -0.6545
   85MOL0     C11350   2.504   3.640   1.478  0.0587  0.8144  0.2796
   85MOL0     C11351   2.369   3.567   1.507  1.0410 -0.4007  0.3767
   85MOL0     C11352   2.387   3.451   1.599 -0.1409 -0.2051  0.1635
   85MOL0     C11353   2.256   3.412   1.672 -0.4049  1.5770 -0.0444
   85MOL0     C11354   2.262   3.279   1.747 -0.5201  0.1553  0.6414
   85MOL0     C11355   2.117   3.232   1.789 -0.3463  0.8690  0.1436
   85MOL0     C11356   2.065   3.331   1.896  0.0182  0.9392  0.6057
   85MOL0     N11357   2.154   3.347   2.013 -0.0328 -1.3188 -0.3051
   85MOL0     C11358   2.195   3.241   2.101 -0.0739 -1.1244 -0.0548
   85MOL0     C11359   2.259   3.309   2.196  0.5015  0.1269  1.2232
   85MOL0     C11360   2.297   3.256   2.323  0.9480  0.2658 -0.1053
   85MOL0     C11361   2.445   3.205   2.324 -0.8839  0.2180  0.2715
   85MOL0     C11362   2.472   3.085   2.413  0.1620  0.1184  0.0930
   85MOL0     C11363   2.622   3.047   2.415 -1.0819 -0.1149 -0.5117
   85MOL0     O11364   2.666   3.068   2.283  0.2896  0.3063 -0.2664
   85MOL0     C11365   2.788   3.009   2.245 -0.8336  0.8403  0.1971
   85MOL0     C11366   2.834   3.012   2.112 -0.2538  0.1957 -0.0287
   85MOL0     C11367   2.966   2.984   2.070  0.9208 -0.8867  0.1971
   85MOL0     C11368   3.002   3.001   1.923  0.0092 -1.1750  1.1115
   85MOL0     C11369   3.060   2.941   2.167  0.1780 -0.4645  0.0231
   85MOL0     C11370   3.205   2.920   2.138  0.6433  0.0055 -0.1533
   85MOL0     O11371   3.282   2.923   2.251  0.1471 -0.3174  0.4944
   85MOL0     C11372   3.410   2.871   2.227  0.1072 -0.1457 -0.1021
   85MOL0     C11373   3.434   2.741   2.271  0.0303  0.4302  0.5117
   85MOL0     C11374   3.564   2.680   2.245 -0.5907 -0.1811  1.0697
   85MOL0     C11375   3.660   2.757   2.182 -0.4447  0.0017 -0.0205
   85MOL0     O11376   3.786   2.718   2.153  0.7165  0.1570  0.9024
   85MOL0     C11377   3.870   2.682   2.267  0.7842 -0.1288 -0.0343
   85MOL0     C11378   4.012   2.679   2.232 -0.3418  0.5143  0.0404
   85MOL0     C11379   4.099   2.672   2.363  0.2353 -0.4336 -0.0966
   85MOL0     C11380   4.243   2.702   2.332  0.0241  0.3621 -0.0664
   85MOL0     C11381   4.347   2.646   2.442 -0.6849 -0.4232 -0.6815
   85MOL0     C11382   4.488   2.709   2.417 -0.4733  0.2606  0.0351
   85MOL0     C11383   4.587   2.648   2.513  0.0926  0.4704 -0.0875
   85MOL0     C11384   4.726   2.700   2.498 -0.0392  0.2450 -0.0001
   85MOL0    Cl11385   4.848   2.578   2.557 -0.1501 -0.0165 -0.1549
   85MOL0     C11386   3.636   2.889   2.142  1.3784  1.5136 -0.1296
   85MOL0     C11387   3.511   2.937   2.162 -0.9066 -0.3075 -0.5895
   85MOL0     O11388   3.247   2.898   2.026 -0.0508 -0.1495 -0.2653
   85MOL0     C11389   3.008   2.916   2.301  0.6170  0.0356 -0.3099
   85MOL0     C11390   2.873   2.945   2.332 -0.1051  0.3948  0.7316
   85MOL0     N11391   2.270   3.443   2.157 -0.1725 -0.2304 -0.5328
   85MOL0     N11392   2.196   3.470   2.056  0.5432 -0.0842 -0.1137
   85MOL0     C11393   2.625   3.427   1.088 -0.5402 -0.0324  0.1377
   85MOL0     C11394   2.708   3.373   0.988  0.1356  0.3265 -1.0495
   85MOL0     C11395   3.063   3.097   0.838  0.1397 -0.2862  0.3816
   85MOL0     C11396   3.084   2.960   0.837 -0.2960  0.3738 -0.0090
   85MOL0     C11397   3.183   2.897   0.762 -0.0262 -0.0358  0.5894
   85MOL0     C11398   3.272   2.968   0.675  0.7769 -0.7950 -0.0174
   85MOL0     O11399   3.366   2.899   0.602 -0.4201 -0.0828 -0.2189
   85MOL0     C11400   3.466   2.976   0.528  0.2675  0.8760 -0.5890
   85MOL0     C11401   3.559   2.871   0.461  0.7914  0.0172  0.9306
   85MOL0     C11402   3.612   2.761   0.556  0.1773 -0.6981 -0.2358
   85MOL0     C11403   3.675   2.640   0.494 -0.6171  0.5537  0.7225
   85MOL0     C11404   3.802   2.668   0.425 -0.1932 -1.4475  0.5665
   85MOL0     C11405   3.912   2.694   0.394  0.1180 -0.8526 -0.6434
   85MOL0     C11406   3.262   3.104   0.682  0.2901 -0.3483 -0.5327
   85MOL0     C11407   3.163   3.170   0.764  0.1353  0.2720 -0.1803
   85MOL0     H11408   2.966   3.298   1.204 -1.3341 -4.8090 -0.0036
   85MOL0     H11409   2.824   3.369   1.357 -1.6889  0.8398  1.5971
   85MOL0     H11410   2.634   3.474   1.502 -3.6792  1.5950  2.0431
   85MOL0     H11411   2.704   3.613   1.416  0.0069 -0.3624 -0.3662
   85MOL0     H11412   2.536   3.696   1.566  1.3543 -0.5422  0.7218
   85MOL0     H11413   2.495   3.728   1.414  0.7077 -0.0456 -1.0459
   85MOL0     H11414   2.292   3.640   1.533  1.5699  1.3453 -2.4646
   85MOL0     H11415   2.335   3.534   1.409 -1.5619  2.6455  0.0817
   85MOL0     H11416   2.424   3.368   1.538 -2.0483 -0.8551 -0.1741
   85MOL0     H11417   2.461   3.473   1.677  1.6385 -5.1129  0.2682
   85MOL0     H11418   2.232   3.500   1.732  1.6176  1.1203  1.5106
   85MOL0     H11419   2.194   3.411   1.582  4.0641  1.6058 -3.4614
   85MOL0     H11420   2.298   3.202   1.678 -4.1748 -2.8884  1.7730
   85MOL0     H11421   2.329   3.293   1.832  1.4022  0.7675 -0.8862
   85MOL0     H11422   2.047   3.223   1.705 -0.8121  0.5184  0.5623
   85MOL0     H11423   2.123   3.130   1.826  0.4700  0.4194 -1.1560
   85MOL0     H11424   1.965   3.304   1.931  0.6573 -1.4284  0.7950
   85MOL0     H11425   2.058   3.428   1.847 -0.2929  1.5064  1.7349
   85MOL0     H11426   2.182   3.134   2.100  3.0582 -1.6058 -1.1982
   85MOL0     H11427   2.277   3.335   2.395  3.9653  0.8408  0.2248
   85MOL0     H11428   2.236   3.165   2.335  1.2090  0.2304  1.0004
   85MOL0     H11429   2.499   3.289   2.368  0.6508 -0.8307  0.4839
   85MOL0     H11430   2.475   3.202   2.219 -2.5104 -2.1371 -0.2077
   85MOL0     H11431   2.408   3.001   2.383  0.0282 -0.1134  0.9947
   85MOL0     H11432   2.449   3.103   2.518 -0.4803 -0.3163  0.0350
   85MOL0     H11433   2.624   2.942   2.448 -1.2992  0.6647  2.2581
   85MOL0     H11434   2.690   3.097   2.484 -1.9081 -1.9159  1.7344
   85MOL0     H11435   2.773   3.058   2.035 -0.7565 -2.6127 -1.4224
   85MOL0     H11436   3.089   3.067   1.910 -1.4764  0.7077  0.2146
   85MOL0     H11437   3.028   2.904   1.879  0.6680 -0.0945 -1.0429
   85MOL0     H11438   2.918   3.045   1.868  1.2726  0.2579  0.2259
   85MOL0     H11439   3.356   2.682   2.319 -1.6246  1.7749 -0.4407
   85MOL0     H11440   3.591   2.577   2.268  2.0117  0.7422  2.6298
   85MOL0     H11441   3.857   2.742   2.357  1.0845 -1.3031  0.8205
   85MOL0     H11442   3.850   2.580   2.302  0.1615 -0.1662 -0.4858
   85MOL0     H11443   4.038   2.606   2.154 -1.9451  1.3091 -1.2919
   85MOL0     H11444   4.042   2.774   2.187 -2.4879  0.5535 -1.4611
   85MOL0     H11445   4.091   2.570   2.402 -1.8087  0.6897  2.7677
   85MOL0     H11446   4.057   2.743   2.435 -0.2976 -2.8898  2.1679
   85MOL0     H11447   4.272   2.657   2.237  0.3152 -2.1488  1.1129
   85MOL0     H11448   4.266   2.809   2.321 -1.7667  0.5807 -2.5935
   85MOL0     H11449   4.341   2.537   2.435  0.7651 -0.5192 -0.7882
   85MOL0     H11450   4.313   2.680   2.540 -1.6033 -1.9391 -0.4368
   85MOL0     H11451   4.515   2.675   2.317  0.6918  0.6933  0.1901
   85MOL0     H11452   4.492   2.818   2.419  1.1569  0.2403 -0.8435
   85MOL0     H11453   4.586   2.538   2.510  3.0815  0.3592 -0.3539
   85MOL0     H11454   4.571   2.679   2.616  2.3205  1.8723 -0.0868
   85MOL0     H11455   4.743   2.801   2.536 -1.5006  0.5858 -0.2089
   85MOL0     H11456   4.758   2.710   2.394  2.7102 -0.9326  0.6416
   85MOL0     H11457   3.709   2.960   2.103  0.5869  1.9524 -0.8626
   85MOL0     H11458   3.499   3.040   2.132  1.1095 -0.1642 -1.0431
   85MOL0     H11459   3.062   2.871   2.383  1.1387 -1.2571 -1.3192
   85MOL0     H11460   2.841   2.927   2.434 -1.4491  2.3831  0.7287
   85MOL0     H11461   2.528   3.473   1.068 -0.0831  1.2839  0.8624
   85MOL0     H11462   2.672   3.363   0.886  0.1334 -2.5940 -0.8532
   85MOL0     H11463   3.017   2.900   0.898  1.0219  0.3681  1.5065
   85MOL0     H11464   3.190   2.789   0.771 -0.8533 -0.0018  1.9181
   85MOL0     H11465   3.415   3.028   0.447  0.1327  1.7237  0.0227
   85MOL0     H11466   3.513   3.059   0.581 -0.9673  2.0895 -1.3258
   85MOL0     H11467   3.649   2.924   0.428 -0.7709  2.2535 -0.0004
   85MOL0     H11468   3.499   2.837   0.376  0.6190 -1.1521  1.4913
   85MOL0     H11469   3.528   2.727   0.618  1.0221 -2.6778 -0.1293
   85MOL0     H11470   3.680   2.808   0.627 -0.9260 -1.6035  1.4911
   85MOL0     H11471   3.602   2.610   0.417 -0.1383  2.7705 -0.6922
   85MOL0     H11472   3.691   2.564   0.570  0.7831 -0.4642 -0.5470
   85MOL0     H11473   4.012   2.726   0.372 -0.0926  0.6617  0.4568
   85MOL0     H11474   3.333   3.168   0.630  0.4242 -1.0540 -1.2265
   85MOL0     H11475   3.162   3.276   0.786 -0.9968  0.3269 -0.4361
   86MOL0     O11476   2.647   1.302   4.603 -0.1298 -0.0876 -0.3641
   86MOL0     C11477   2.657   1.327   4.722 -0.3505 -0.0917 -0.2780
   86MOL0     O11478   2.555   1.367   4.809 -0.6387  0.1270 -0.3547
   86MOL0     C11479   2.425   1.353   4.765 -0.4882 -0.1592  0.4587
   86MOL0     C11480   2.344   1.468   4.779 -0.4192 -0.0779  0.7731
   86MOL0     C11481   2.205   1.472   4.743  0.6823 -0.5468 -0.0384
   86MOL0     C11482   2.162   1.368   4.666  0.4236 -0.0447  0.9209
   86MOL0     O11483   2.032   1.378   4.613  0.0779 -0.3766 -0.4274
   86MOL0     C11484   1.997   1.299   4.500  0.4822  1.2493  0.5152
   86MOL0     C11485   1.878   1.347   4.429 -1.6510 -0.7930 -0.0640
   86MOL0     C11486   1.845   1.278   4.298  1.3376 -0.2946 -0.0671
   86MOL0     C11487   1.705   1.320   4.255  0.0042 -0.6480  0.1364
   86MOL0     C11488   1.671   1.256   4.123 -0.5515 -0.8904 -0.2183
   86MOL0     C11489   1.659   1.101   4.128 -0.5367 -0.3618  0.0617
   86MOL0     C11490   1.612   1.030   4.007 -0.0576 -0.2960  0.0968
   86MOL0     C11491   1.493   1.108   3.940 -0.0355  0.0301  0.9522
   86MOL0     N11492   1.429   1.011   3.844  0.1787  0.1625  0.9184
   86MOL0     C11493   1.301   0.983   3.832 -0.7119  0.0977  0.1682
   86MOL0     C11494   1.291   0.888   3.740  0.1526  0.5987  0.6087
   86MOL0     C11495   1.170   0.819   3.685  0.5559 -0.6414  0.2566
   86MOL0     C11496   1.064   0.798   3.794 -0.6340 -0.3083  0.4488
   86MOL0     C11497   0.928   0.748   3.743 -0.2794 -0.7130 -0.7430
   86MOL0     C11498   0.852   0.706   3.869  0.4313 -0.3893  1.3980
   86MOL0     O11499   0.717   0.704   3.810  0.7439  0.3908  0.0352
   86MOL0     C11500   0.612   0.726   3.892 -0.0377  0.5760  0.1313
   86MOL0     C11501   0.615   0.734   4.029  0.8048  0.3773 -0.8107
   86MOL0     C11502   0.495   0.742   4.104 -0.0900  0.2944  0.5531
   86MOL0     C11503   0.504   0.768   4.257 -0.3245  0.6789 -0.4274
   86MOL0     C11504   0.376   0.742   4.040 -0.0041 -0.4511 -0.6587
   86MOL0     C11505   0.234   0.755   4.103  0.2457 -0.3917  0.0597
   86MOL0     O11506   0.215   0.686   4.221 -0.5507 -0.9060  0.1805
   86MOL0     C11507   0.095   0.639   4.266 -0.3039  0.0534  0.8252
   86MOL0     C11508   0.105   0.554   4.372  0.0364  0.5474 -0.2906
   86MOL0     C11509   0.000   0.470   4.412  0.2597 -0.4621  0.7489
   86MOL0     C11510  -0.128   0.490   4.348  1.1282  1.1608 -0.1736
   86MOL0     O11511  -0.244   0.411   4.363 -0.9616 -0.1096 -0.3233
   86MOL0     C11512  -0.251   0.328   4.480  0.7786 -0.0989 -0.0207
   86MOL0     C11513  -0.372   0.234   4.461 -0.2454 -0.5378  0.1535
   86MOL0     C11514  -0.512   0.295   4.423 -0.5959  0.1731 -0.4701
   86MOL0     C11515  -0.605   0.192   4.362  0.3350  0.4978 -0.4831
   86MOL0     C11516  -0.720   0.262   4.289  0.8026 -0.1580 -0.1919
   86MOL0     C11517  -0.844   0.300   4.376  0.0303 -0.1437  0.2561
   86MOL0     C11518  -0.961   0.349   4.295 -0.1443  0.3168 -0.7735
   86MOL0     C11519  -1.085   0.415   4.386  0.2246  0.6489  0.6910
   86MOL0    Cl11520  -1.034   0.576   4.441  0.0762 -0.1332 -0.3058
   86MOL0     C11521  -0.141   0.586   4.247  0.2045  0.4886 -0.5267
   86MOL0     C11522  -0.033   0.660   4.209  0.7517  0.0072 -1.1436
   86MOL0     O11523   0.145   0.810   4.041  0.0313 -0.2796 -0.2248
   86MOL0     C11524   0.372   0.732   3.905  0.1290  0.0180  0.8087
   86MOL0     C11525   0.487   0.721   3.832 -0.1936 -0.2504  0.9286
   86MOL0     N11526   1.420   0.829   3.730 -0.7461 -0.2035  0.4727
   86MOL0     N11527   1.502   0.905   3.794 -0.2681 -0.1850 -0.1898
   86MOL0     C11528   2.242   1.254   4.644  0.6917 -0.2416  0.3870
   86MOL0     C11529   2.370   1.251   4.688  0.1194 -0.1296  0.3822
   86MOL0     C11530   2.780   1.297   4.793  0.3021 -0.4191 -0.1723
   86MOL0     C11531   2.856   1.183   4.755  0.2506 -0.2345 -0.2198
   86MOL0     C11532   2.972   1.146   4.817  0.0868  0.4068  0.4052
   86MOL0     C11533   3.016   1.218   4.932 -0.0260  1.1542 -0.0259
   86MOL0     O11534   3.132   1.188   5.004 -0.9796 -0.1499  0.4498
   86MOL0     C11535   3.183   1.058   4.987  0.0122  0.2265 -0.1812
   86MOL0     C11536   3.297   1.046   5.078 -0.2813  0.6308  0.4503
   86MOL0     C11537   3.349   0.900   5.089  0.2658  0.0611 -0.6818
   86MOL0     C11538   3.432   0.882   5.219 -0.0643 -0.2958 -0.0131
   86MOL0     C11539   3.560   0.961   5.223  0.9248  0.6437 -0.4452
   86MOL0     C11540   3.661   1.030   5.217 -0.0645  1.0998 -0.4052
   86MOL0     C11541   2.954   1.342   4.967  0.2240  0.1066  0.6997
   86MOL0     C11542   2.830   1.371   4.903  0.6113  0.5484  0.1736
   86MOL0     H11543   2.383   1.552   4.837 -0.9942 -0.2187  1.3813
   86MOL0     H11544   2.148   1.561   4.769  1.5786  1.1237 -3.2733
   86MOL0     H11545   2.079   1.307   4.428 -0.6745 -2.0700 -1.3476
   86MOL0     H11546   1.982   1.195   4.529  5.4906  0.6840  2.0064
   86MOL0     H11547   1.794   1.328   4.497 -0.4455 -0.7192  1.5053
   86MOL0     H11548   1.882   1.456   4.415 -1.4560 -0.8458 -0.4271
   86MOL0     H11549   1.921   1.298   4.222  0.9439 -3.0527 -1.2704
   86MOL0     H11550   1.842   1.170   4.315 -1.6415 -0.4979 -1.3348
   86MOL0     H11551   1.631   1.287   4.328 -2.7878  3.3178 -0.5430
   86MOL0     H11552   1.690   1.428   4.247  0.4410 -0.3681  2.4739
   86MOL0     H11553   1.578   1.301   4.086 -0.2556 -1.9037 -2.3631
   86MOL0     H11554   1.750   1.292   4.056 -1.8417  0.5957 -1.0032
   86MOL0     H11555   1.760   1.058   4.126 -1.3988 -2.5078 -1.3010
   86MOL0     H11556   1.604   1.074   4.219  0.1026  0.6734  0.7670
   86MOL0     H11557   1.696   1.021   3.938 -1.7356  1.6281 -2.3729
   86MOL0     H11558   1.585   0.930   4.041  1.3930 -0.2213  1.6337
   86MOL0     H11559   1.531   1.198   3.890  0.8186  0.1768  1.8396
   86MOL0     H11560   1.425   1.130   4.022  3.1628 -0.5213  3.9864
   86MOL0     H11561   1.222   1.033   3.888  1.3082  1.5625  1.8446
   86MOL0     H11562   1.138   0.878   3.598 -0.7315  0.1522  1.2461
   86MOL0     H11563   1.201   0.721   3.647 -1.7563  0.1821 -4.5006
   86MOL0     H11564   1.047   0.898   3.835  3.4922  0.4874  0.5800
   86MOL0     H11565   1.116   0.738   3.869  1.8098  1.8311  0.6216
   86MOL0     H11566   0.937   0.663   3.675  0.2683 -2.2912  1.2051
   86MOL0     H11567   0.879   0.837   3.702 -0.3189 -0.5465 -0.3399
   86MOL0     H11568   0.856   0.783   3.946  0.7187  0.0350  0.9594
   86MOL0     H11569   0.900   0.613   3.903  2.3127 -0.1276 -0.3515
   86MOL0     H11570   0.709   0.737   4.083  1.0822 -1.5965 -1.0781
   86MOL0     H11571   0.459   0.867   4.270 -3.2622 -0.3215 -2.0854
   86MOL0     H11572   0.459   0.700   4.331  1.9557 -1.2598 -0.6983
   86MOL0     H11573   0.611   0.762   4.279 -0.7497  0.4576  1.9322
   86MOL0     H11574   0.205   0.539   4.410 -0.7899 -1.1303  1.3894
   86MOL0     H11575   0.018   0.401   4.494 -1.8710  3.0240  4.5691
   86MOL0     H11576  -0.157   0.273   4.493  0.2351 -0.6205  2.1133
   86MOL0     H11577  -0.265   0.384   4.573 -1.3651  0.6765 -0.7357
   86MOL0     H11578  -0.351   0.171   4.374 -2.2084 -2.7293  1.1466
   86MOL0     H11579  -0.382   0.174   4.552 -0.9852 -2.1375 -0.9300
   86MOL0     H11580  -0.492   0.368   4.344 -1.5687  0.4613 -0.4666
   86MOL0     H11581  -0.556   0.349   4.507  2.2978 -1.4752  2.3137
   86MOL0     H11582  -0.544   0.143   4.285  1.6979  2.2784 -0.6191
   86MOL0     H11583  -0.637   0.113   4.430  1.5932  0.0645 -0.3701
   86MOL0     H11584  -0.760   0.189   4.219  1.4936 -0.7992  0.0674
   86MOL0     H11585  -0.685   0.353   4.240 -0.7158  1.1143  0.9595
   86MOL0     H11586  -0.876   0.212   4.434  3.0146 -2.6482 -1.5984
   86MOL0     H11587  -0.823   0.373   4.454  1.3409 -0.6111  0.3659
   86MOL0     H11588  -1.002   0.256   4.254  1.0783 -1.7649  2.3123
   86MOL0     H11589  -0.942   0.422   4.216 -1.2613 -1.3155 -2.6370
   86MOL0     H11590  -1.101   0.342   4.465  3.5119  0.4865  1.3424
   86MOL0     H11591  -1.176   0.425   4.326  0.0395 -2.5720  0.2441
   86MOL0     H11592  -0.235   0.602   4.195 -0.5162 -0.6277  0.3872
   86MOL0     H11593  -0.063   0.725   4.127 -4.2441 -1.2427 -0.6493
   86MOL0     H11594   0.277   0.722   3.854  0.4583  2.2838 -0.3939
   86MOL0     H11595   0.490   0.713   3.724 -2.0043 -1.5300  0.9325
   86MOL0     H11596   2.196   1.176   4.585 -2.9403  0.5994  1.8190
   86MOL0     H11597   2.435   1.165   4.676  1.4568  0.3628  3.1178
   86MOL0     H11598   2.844   1.119   4.668 -1.5751  1.9953 -1.7289
   86MOL0     H11599   3.038   1.073   4.772  0.9162  0.9776  0.6624
   86MOL0     H11600   3.108   0.982   5.009 -0.4148  0.9862  1.1026
   86MOL0     H11601   3.214   1.028   4.886 -3.2756 -0.5440 -1.0777
   86MOL0     H11602   3.266   1.083   5.176  1.5960 -3.5081  2.8819
   86MOL0     H11603   3.379   1.104   5.035 -1.1791  0.6300 -1.3794
   86MOL0     H11604   3.405   0.873   4.999  2.5748  3.2545 -0.3843
   86MOL0     H11605   3.269   0.830   5.115  1.3191 -0.3720  1.6696
   86MOL0     H11606   3.456   0.775   5.227 -2.0060 -0.6338  2.2198
   86MOL0     H11607   3.376   0.904   5.310  1.0914  0.3449  0.5628
   86MOL0     H11608   3.748   1.092   5.216  0.3844  0.5039  0.7611
   86MOL0     H11609   2.997   1.398   5.049  0.3294 -1.2038  1.5684
   86MOL0     H11610   2.764   1.452   4.932  0.4250  0.5177 -0.1573
   87MOL0     O11611   2.987   8.198   3.848  0.4121  0.1471 -0.0925
   87MOL0     C11612   3.016   8.095   3.899  0.4117 -0.2596 -0.4963
   87MOL0     O11613   2.967   7.982   3.860  0.0509  0.6245  0.3237
   87MOL0     C11614   2.839   7.972   3.795 -0.4060  0.0395  0.2737
   87MOL0     C11615   2.740   8.074   3.811 -1.0067 -0.4299 -0.7079
   87MOL0     C11616   2.617   8.068   3.744  0.7162 -0.1537 -1.0112
   87MOL0     C11617   2.589   7.950   3.683  0.9245 -0.1456  0.8850
   87MOL0     O11618   2.465   7.938   3.644  0.0070 -0.2286 -0.5571
   87MOL0     C11619   2.395   7.815   3.664  0.0712 -0.4237 -0.5479
   87MOL0     C11620   2.239   7.842   3.681  0.1921  0.1144 -0.3587
   87MOL0     C11621   2.205   7.893   3.816 -0.1213  0.5349 -0.2354
   87MOL0     C11622   2.102   7.998   3.804  0.6147  0.4523  0.2723
   87MOL0     C11623   2.061   8.064   3.928  0.2213 -0.3084 -0.9559
   87MOL0     C11624   1.954   7.989   4.001  0.2926 -0.5130  0.6480
   87MOL0     C11625   1.902   8.059   4.130  0.2691 -0.5130  0.6428
   87MOL0     C11626   1.780   7.985   4.180 -0.3122  0.6045 -0.1363
   87MOL0     N11627   1.724   8.028   4.306 -0.9092  0.9842 -0.2438
   87MOL0     C11628   1.673   8.145   4.335  0.3050  0.2557  0.0984
   87MOL0     C11629   1.629   8.144   4.458  0.3486 -0.0257 -0.8056
   87MOL0     C11630   1.549   8.248   4.532 -0.5766  0.6425 -0.0187
   87MOL0     C11631   1.612   8.324   4.639 -0.0551 -0.3542 -0.8449
   87MOL0     C11632   1.642   8.216   4.749 -1.2306 -0.2711 -0.8040
   87MOL0     C11633   1.673   8.272   4.887 -0.3547  0.9336 -0.4197
   87MOL0     O11634   1.570   8.359   4.932 -0.1442 -0.9930 -0.0944
   87MOL0     C11635   1.462   8.300   4.996 -0.0712  0.5268  0.2915
   87MOL0     C11636   1.356   8.384   5.020  0.3598 -0.3598  0.3375
   87MOL0     C11637   1.238   8.363   5.090 -0.8758 -0.6755  0.4672
   87MOL0     C11638   1.157   8.488   5.111  0.8291  0.2154  0.3325
   87MOL0     C11639   1.217   8.238   5.140  0.9076 -0.0402 -0.1738
   87MOL0     C11640   1.088   8.197   5.216  0.7168 -0.0246  0.3868
   87MOL0     O11641   1.010   8.302   5.266 -0.3980 -0.4134 -0.1605
   87MOL0     C11642   0.888   8.274   5.313  0.1265  0.3580  1.0755
   87MOL0     C11643   0.852   8.320   5.440  1.0603 -0.0511 -0.0697
   87MOL0     C11644   0.721   8.287   5.494 -0.2304 -1.2939  0.3877
   87MOL0     C11645   0.626   8.229   5.413 -0.2503  0.4885  0.1186
   87MOL0     O11646   0.508   8.171   5.458  0.0891 -0.5877  0.4847
   87MOL0     C11647   0.446   8.238   5.574  0.5536  0.3587  0.4612
   87MOL0     C11648   0.328   8.155   5.621  0.6949  0.3000 -1.1934
   87MOL0     C11649   0.212   8.166   5.528  0.2421  0.3787 -0.2308
   87MOL0     C11650   0.137   8.294   5.556  0.3905  0.3561  0.1426
   87MOL0     C11651   0.022   8.271   5.658  0.6869 -0.4826 -0.1007
   87MOL0     C11652  -0.024   8.411   5.717 -0.2913 -0.1360  0.4739
   87MOL0     C11653  -0.137   8.398   5.822  0.0416 -1.2175  0.9437
   87MOL0     C11654  -0.180   8.531   5.855 -0.3236 -0.3665 -0.2833
   87MOL0    Cl11655  -0.320   8.510   5.976 -0.1325 -0.5277 -0.2245
   87MOL0     C11656   0.661   8.199   5.289  1.0929 -0.1393 -0.1030
   87MOL0     C11657   0.786   8.220   5.235 -0.7653 -0.1536 -0.0042
   87MOL0     O11658   1.073   8.077   5.241 -0.3403  0.2039  0.5749
   87MOL0     C11659   1.313   8.134   5.110 -0.5437  0.4862  0.1798
   87MOL0     C11660   1.438   8.167   5.046 -0.7461 -0.0227  0.1458
   87MOL0     N11661   1.652   8.008   4.507 -0.7542  0.8272  0.0628
   87MOL0     N11662   1.724   7.950   4.416  0.0435  0.2974 -0.4041
   87MOL0     C11663   2.676   7.847   3.667 -1.2263 -0.1585  0.5671
   87MOL0     C11664   2.806   7.863   3.713  0.3151  0.1451 -0.4291
   87MOL0     C11665   3.123   8.107   3.997 -1.0888 -0.4522  0.7686
   87MOL0     C11666   3.167   7.997   4.075  0.1630 -0.2068  0.3895
   87MOL0     C11667   3.286   7.998   4.148 -0.9943 -0.2376 -0.6316
   87MOL0     C11668   3.359   8.115   4.154  0.2452 -0.4155 -0.2689
   87MOL0     O11669   3.468   8.102   4.233  0.4357 -0.2669 -0.8507
   87MOL0     C11670   3.520   8.221   4.287 -1.5395  0.5613 -0.2092
   87MOL0     C11671   3.609   8.186   4.407  0.6058  0.4436  0.7765
   87MOL0     C11672   3.753   8.151   4.361 -0.2949  0.0859 -0.3245
   87MOL0     C11673   3.834   8.079   4.475 -0.7925  0.2122  0.1981
   87MOL0     C11674   3.906   8.178   4.562  0.3246  0.3380  0.4976
   87MOL0     C11675   3.967   8.266   4.614 -0.6498 -0.5852 -0.7379
   87MOL0     C11676   3.314   8.232   4.089 -0.2908  0.3801  0.2850
   87MOL0     C11677   3.202   8.220   4.007 -0.4317 -0.6854 -1.1462
   87MOL0     H11678   2.764   8.153   3.881  2.0498 -0.6158 -1.4126
   87MOL0     H11679   2.555   8.157   3.746  0.1889 -0.4769  2.1468
   87MOL0     H11680   2.416   7.760   3.572  0.9059  0.4510 -0.8959
   87MOL0     H11681   2.434   7.755   3.747 -0.4656 -0.7433 -0.5220
   87MOL0     H11682   2.211   7.918   3.608  1.4977 -1.5124 -2.6587
   87MOL0     H11683   2.183   7.749   3.667  1.6022 -1.3702  2.8709
   87MOL0     H11684   2.176   7.808   3.879 -0.3587  0.1810 -0.8138
   87MOL0     H11685   2.295   7.924   3.869  0.7761 -1.9825 -0.1373
   87MOL0     H11686   2.152   8.078   3.749 -0.1003  1.5468  1.1667
   87MOL0     H11687   2.023   7.972   3.734  3.1544 -3.0929 -1.6278
   87MOL0     H11688   2.146   8.060   3.997 -0.4903 -0.1036 -0.0504
   87MOL0     H11689   2.023   8.166   3.918 -2.1678 -0.6319  2.8164
   87MOL0     H11690   1.869   7.988   3.931  0.7059 -1.7250  0.1379
   87MOL0     H11691   1.977   7.890   4.042 -0.5549 -1.2590 -0.5739
   87MOL0     H11692   1.989   8.050   4.196  0.5408  1.7258  0.6660
   87MOL0     H11693   1.874   8.164   4.114 -2.4398 -1.3993 -1.1077
   87MOL0     H11694   1.813   7.881   4.178  0.7494  0.9380 -1.9643
   87MOL0     H11695   1.712   7.997   4.095 -0.7701  1.7527  0.3737
   87MOL0     H11696   1.659   8.228   4.267 -1.4720  1.1897  1.5165
   87MOL0     H11697   1.545   8.324   4.453  3.2300  0.9129 -0.1470
   87MOL0     H11698   1.451   8.214   4.566 -0.6138  1.1111  0.3672
   87MOL0     H11699   1.542   8.388   4.693  0.3133 -1.0605  0.5182
   87MOL0     H11700   1.697   8.382   4.600 -0.5119 -0.2106 -1.6509
   87MOL0     H11701   1.724   8.150   4.720 -0.2755  1.0413 -1.2175
   87MOL0     H11702   1.548   8.161   4.758 -1.9719  0.8842 -1.2785
   87MOL0     H11703   1.768   8.327   4.896 -0.0319  0.0845  2.4034
   87MOL0     H11704   1.691   8.185   4.952  2.9637  2.4042  0.9152
   87MOL0     H11705   1.380   8.486   4.992  1.9210  0.0241  2.8229
   87MOL0     H11706   1.146   8.504   5.219  1.1002 -1.6927  0.6799
   87MOL0     H11707   1.188   8.578   5.058  0.2961 -0.2684 -0.8171
   87MOL0     H11708   1.054   8.469   5.081  0.2446  0.7773  1.8398
   87MOL0     H11709   0.928   8.359   5.507 -0.5596  0.0882  1.7782
   87MOL0     H11710   0.712   8.307   5.601  1.1336  0.7268  0.1746
   87MOL0     H11711   0.516   8.243   5.658  0.9634 -0.2063  0.1634
   87MOL0     H11712   0.411   8.339   5.550 -0.4313  0.8335  3.4336
   87MOL0     H11713   0.363   8.051   5.622  1.0815  0.4251 -0.1388
   87MOL0     H11714   0.305   8.183   5.724  0.2826 -1.8635 -0.6368
   87MOL0     H11715   0.145   8.081   5.542 -0.3763  0.6392 -1.4112
   87MOL0     H11716   0.246   8.158   5.424 -1.2631  0.9510 -0.7912
   87MOL0     H11717   0.211   8.366   5.593  4.3332 -3.6416  0.9457
   87MOL0     H11718   0.091   8.335   5.466 -2.9821  1.4626  2.1896
   87MOL0     H11719   0.054   8.212   5.745  1.0422  0.6995  0.5892
   87MOL0     H11720  -0.061   8.214   5.614 -0.7932 -0.1492  2.1107
   87MOL0     H11721   0.059   8.460   5.769  0.3875  0.4080 -1.0663
   87MOL0     H11722  -0.055   8.483   5.640 -0.9586  1.3017  2.0299
   87MOL0     H11723  -0.099   8.342   5.907 -0.1157 -1.5914  0.7696
   87MOL0     H11724  -0.221   8.343   5.777  0.0042  0.7462 -1.6807
   87MOL0     H11725  -0.215   8.580   5.764  1.0875 -0.5478 -0.9432
   87MOL0     H11726  -0.098   8.592   5.895  0.0273  0.5267 -2.2597
   87MOL0     H11727   0.589   8.150   5.224  0.9666 -1.1475  0.7631
   87MOL0     H11728   0.811   8.199   5.132 -0.3042 -2.4810  0.5381
   87MOL0     H11729   1.306   8.035   5.153  1.6548 -0.1220 -0.7149
   87MOL0     H11730   1.514   8.089   5.042 -0.6725 -0.0258  1.2582
   87MOL0     H11731   2.654   7.753   3.617  0.1968  0.6424 -1.7338
   87MOL0     H11732   2.872   7.781   3.685 -1.5488 -0.4849 -3.5533
   87MOL0     H11733   3.108   7.906   4.067  0.4177 -0.4791  1.4243
   87MOL0     H11734   3.328   7.906   4.188  2.1484  0.8522 -1.1285
   87MOL0     H11735   3.579   8.273   4.210 -1.7142  1.5027  0.2671
   87MOL0     H11736   3.439   8.289   4.314  0.1234  2.9508 -0.8556
   87MOL0     H11737   3.567   8.102   4.463 -1.5982  2.2874  2.0130
   87MOL0     H11738   3.617   8.279   4.463 -2.1054  1.2417 -0.0215
   87MOL0     H11739   3.791   8.239   4.309  0.3200 -0.4413 -0.7734
   87MOL0     H11740   3.737   8.074   4.285 -1.4860 -0.9330  0.9099
   87MOL0     H11741   3.909   8.014   4.431 -2.1297 -1.0808 -0.2457
   87MOL0     H11742   3.775   8.006   4.531 -2.4965  0.0935 -1.6443
   87MOL0     H11743   4.037   8.334   4.659 -2.1001  1.0492 -0.8595
   87MOL0     H11744   3.359   8.330   4.099 -0.2714  0.3434  0.5783
   87MOL0     H11745   3.154   8.311   3.972 -6.1590 -1.6902  2.7529
   88MOL0     O11746   1.457  10.496   8.079 -0.4570 -1.1312  0.0203
   88MOL0     C11747   1.340  10.514   8.047 -0.2284  0.3552 -0.6072
   88MOL0     O11748   1.255  10.424   7.979  0.6869 -0.3418 -0.1009
   88MOL0     C11749   1.282  10.288   7.979 -0.5165 -0.2468 -0.7887
   88MOL0     C11750   1.301  10.218   7.866  0.7782  0.0359  0.8459
   88MOL0     C11751   1.335  10.079   7.866  0.3029 -0.7733 -0.5359
   88MOL0     C11752   1.329  10.010   7.987  1.1831 -0.2471  0.6892
   88MOL0     O11753   1.324   9.875   7.987 -0.8609  0.3866  0.3754
   88MOL0     C11754   1.406   9.803   8.084  0.0993  0.5232  0.3481
   88MOL0     C11755   1.446   9.659   8.028 -0.0160  0.3222  0.5454
   88MOL0     C11756   1.350   9.558   8.056 -0.0075  0.7942  0.7306
   88MOL0     C11757   1.387   9.418   8.007 -0.2940 -0.2404  0.2677
   88MOL0     C11758   1.293   9.313   8.066  0.7193 -0.5998  0.0031
   88MOL0     C11759   1.305   9.180   8.002  0.4161 -0.0378 -0.6274
   88MOL0     C11760   1.199   9.087   8.055  0.5956  0.3867  0.1374
   88MOL0     C11761   1.096   9.040   7.942 -0.2533 -0.1589  0.1902
   88MOL0     N11762   1.022   9.154   7.899  0.1380 -0.1115 -0.6861
   88MOL0     C11763   0.938   9.211   7.986 -0.4795  0.6101  0.4459
   88MOL0     C11764   0.895   9.327   7.924  0.3472 -0.5157 -0.0214
   88MOL0     C11765   0.801   9.441   7.976 -0.5872 -0.2500  0.2095
   88MOL0     C11766   0.815   9.576   7.897 -0.5624 -0.2912 -0.3184
   88MOL0     C11767   0.950   9.642   7.914 -0.2547  0.2909  0.3898
   88MOL0     C11768   0.982   9.707   7.779  0.3886 -1.0091  0.2057
   88MOL0     O11769   0.880   9.802   7.744 -0.5185  0.0927 -0.2358
   88MOL0     C11770   0.853   9.919   7.801 -0.3884 -0.4934 -0.0479
   88MOL0     C11771   0.738   9.976   7.762  1.0896 -0.2781 -0.2853
   88MOL0     C11772   0.688  10.099   7.809 -0.7634 -0.4540  0.7320
   88MOL0     C11773   0.565  10.158   7.747  0.6019  1.0396  1.0674
   88MOL0     C11774   0.773  10.163   7.901  0.0762  0.0580  0.1537
   88MOL0     C11775   0.735  10.298   7.965 -0.4194  0.4251  0.2838
   88MOL0     O11776   0.843  10.350   8.037  0.3039 -0.2564  0.3948
   88MOL0     C11777   0.828  10.414   8.156  0.0383 -0.2003  0.9563
   88MOL0     C11778   0.712  10.433   8.230 -0.3645  0.5210  0.6091
   88MOL0     C11779   0.710  10.509   8.346 -0.3380 -0.4513 -0.2940
   88MOL0     C11780   0.829  10.567   8.400  0.3256  0.8018  0.1264
   88MOL0     O11781   0.843  10.631   8.517 -0.3102 -0.4137 -0.0983
   88MOL0     C11782   0.748  10.606   8.616  0.8908  0.0074 -0.1239
   88MOL0     C11783   0.761  10.712   8.723 -0.9159  0.0434  0.6423
   88MOL0     C11784   0.752  10.855   8.687 -0.1645  0.2848  0.2524
   88MOL0     C11785   0.605  10.877   8.640  0.9420  0.1705  0.5100
   88MOL0     C11786   0.550  11.013   8.696 -0.3294 -0.3119  0.3595
   88MOL0     C11787   0.416  11.051   8.634  0.6248  0.0082 -0.3044
   88MOL0     C11788   0.352  11.176   8.689 -0.1473  0.2200  1.3643
   88MOL0     C11789   0.413  11.308   8.643 -0.3544 -0.2044 -0.3788
   88MOL0    Cl11790   0.292  11.432   8.682  0.2495 -0.3640  0.0046
   88MOL0     C11791   0.939  10.569   8.315  0.5921  0.2772  0.3068
   88MOL0     C11792   0.945  10.482   8.208  0.5589 -0.1600 -0.0828
   88MOL0     O11793   0.619  10.328   7.964 -0.2922 -0.5555  0.4055
   88MOL0     C11794   0.901  10.111   7.941 -0.1245  0.5712 -0.0360
   88MOL0     C11795   0.941   9.987   7.886  0.0402 -0.0826 -0.3497
   88MOL0     N11796   0.950   9.326   7.798  0.5026  0.2586 -0.1846
   88MOL0     N11797   1.025   9.221   7.785  0.0327  0.1411  0.2249
   88MOL0     C11798   1.293  10.079   8.108 -0.3535 -0.4577  0.7984
   88MOL0     C11799   1.273  10.212   8.107  0.7169  1.1610  0.0967
   88MOL0     C11800   1.274  10.643   8.081  0.1391  0.1474  0.3150
   88MOL0     C11801   1.341  10.743   8.151 -0.1427 -0.0232 -0.3562
   88MOL0     C11802   1.269  10.862   8.191 -0.4166  0.6415  0.0542
   88MOL0     C11803   1.137  10.874   8.159  0.7644 -0.1300  0.3886
   88MOL0     O11804   1.051  10.973   8.203  0.6200  0.3674 -0.6886
   88MOL0     C11805   1.109  11.077   8.278  1.4354 -0.7117 -0.4801
   88MOL0     C11806   0.984  11.175   8.291 -0.4728  0.0623 -1.0529
   88MOL0     C11807   0.869  11.110   8.373  0.8048  1.2014  0.2079
   88MOL0     C11808   0.750  11.198   8.365  0.4730  0.0028  0.2350
   88MOL0     C11809   0.752  11.314   8.459 -0.7479 -0.3775 -0.0762
   88MOL0     C11810   0.757  11.415   8.531 -0.2045 -0.0775  0.6134
   88MOL0     C11811   1.081  10.785   8.065  0.3902  0.9497  0.2145
   88MOL0     C11812   1.149  10.673   8.023 -0.4097 -0.4571 -0.7900
   88MOL0     H11813   1.290  10.273   7.773  2.0658  0.2955  0.8228
   88MOL0     H11814   1.354  10.020   7.776 -0.6125 -2.4349  0.3071
   88MOL0     H11815   1.505   9.840   8.110  0.2073  0.6193 -0.1892
   88MOL0     H11816   1.350   9.800   8.178  0.8277  3.9878  1.0005
   88MOL0     H11817   1.492   9.654   7.928 -1.3221 -0.6314 -0.0471
   88MOL0     H11818   1.533   9.626   8.086  0.8602  2.7120  0.7315
   88MOL0     H11819   1.343   9.543   8.164 -0.2369 -1.5492  0.4474
   88MOL0     H11820   1.250   9.594   8.027 -0.3484  0.3969  1.3856
   88MOL0     H11821   1.383   9.408   7.898  0.7521  1.2919  0.0585
   88MOL0     H11822   1.485   9.403   8.053  1.1180  2.5968 -1.5317
   88MOL0     H11823   1.310   9.306   8.174 -3.0018  1.1521  0.8619
   88MOL0     H11824   1.192   9.349   8.045  0.4316 -2.6625 -2.6800
   88MOL0     H11825   1.293   9.197   7.894  0.5800 -0.4765 -0.7182
   88MOL0     H11826   1.409   9.150   8.017  2.0097  4.5026 -1.1733
   88MOL0     H11827   1.243   8.992   8.085 -1.5923 -0.2540  1.5678
   88MOL0     H11828   1.158   9.132   8.146  0.2759 -0.5392  0.4546
   88MOL0     H11829   1.028   8.965   7.983  0.0171  0.1877  1.3144
   88MOL0     H11830   1.157   9.009   7.856  0.7518  0.0741  0.8050
   88MOL0     H11831   0.924   9.178   8.088 -0.0219  0.7508  0.5562
   88MOL0     H11832   0.700   9.401   7.979 -0.0860 -1.5962 -0.2841
   88MOL0     H11833   0.817   9.462   8.082 -0.3107 -0.3299  0.1853
   88MOL0     H11834   0.751   9.654   7.939  0.7259  0.2838  0.6389
   88MOL0     H11835   0.800   9.568   7.789  2.4923 -0.9238 -0.7910
   88MOL0     H11836   1.029   9.570   7.940 -1.0713 -0.9692 -0.4821
   88MOL0     H11837   0.971   9.714   7.993  1.3475 -1.2417  1.4550
   88MOL0     H11838   0.999   9.619   7.717  2.0315 -2.2667  2.3156
   88MOL0     H11839   1.080   9.753   7.787  0.4319 -0.5916 -2.0467
   88MOL0     H11840   0.677   9.907   7.705  0.8817 -1.0579  0.8396
   88MOL0     H11841   0.568  10.265   7.726 -1.3807  1.0024  0.3728
   88MOL0     H11842   0.542  10.117   7.649 -1.2594  1.3319  1.3392
   88MOL0     H11843   0.479  10.144   7.814  2.0480 -0.2829  2.7762
   88MOL0     H11844   0.626  10.376   8.196  0.8762 -1.6800  0.9667
   88MOL0     H11845   0.613  10.528   8.390 -1.5596 -1.9886 -2.1518
   88MOL0     H11846   0.649  10.613   8.569  0.5342  1.4918  0.7920
   88MOL0     H11847   0.769  10.511   8.666  0.5956  0.1083  0.1902
   88MOL0     H11848   0.693  10.706   8.808 -2.4896  1.3044 -0.4500
   88MOL0     H11849   0.862  10.713   8.763 -0.7768  0.6503  0.2992
   88MOL0     H11850   0.822  10.878   8.606 -1.2531 -0.8252 -1.0589
   88MOL0     H11851   0.786  10.912   8.774 -2.3499 -1.5531  2.4531
   88MOL0     H11852   0.612  10.876   8.531  0.7516 -0.9554  0.4973
   88MOL0     H11853   0.551  10.790   8.678  2.4837 -0.9355  0.2537
   88MOL0     H11854   0.620  11.093   8.670 -1.9362  0.8970 -0.4476
   88MOL0     H11855   0.519  11.009   8.801 -2.7115  0.9013 -0.2322
   88MOL0     H11856   0.430  11.068   8.527 -0.1325  0.0682 -0.4040
   88MOL0     H11857   0.340  10.974   8.651 -1.2942  1.9402  0.3083
   88MOL0     H11858   0.351  11.181   8.798  0.5643 -2.3015  1.5619
   88MOL0     H11859   0.248  11.164   8.659  0.7364 -3.9754 -0.9260
   88MOL0     H11860   0.427  11.316   8.535  1.5532  5.7102 -0.0937
   88MOL0     H11861   0.509  11.331   8.690  0.2825 -1.5437 -1.0024
   88MOL0     H11862   1.023  10.627   8.353 -0.2516  0.3235  2.2179
   88MOL0     H11863   1.040  10.470   8.159 -0.4966 -2.1843 -1.7966
   88MOL0     H11864   0.972  10.171   7.998 -0.9464  1.6290 -0.0988
   88MOL0     H11865   1.037   9.944   7.910  0.9392  1.7212 -0.5506
   88MOL0     H11866   1.286  10.020   8.198 -0.4169 -1.8650 -0.0946
   88MOL0     H11867   1.236  10.269   8.191  1.3710  0.1058  1.1315
   88MOL0     H11868   1.441  10.719   8.185 -0.5461 -2.4655 -0.7010
   88MOL0     H11869   1.321  10.933   8.254 -0.1046  0.8929 -0.4756
   88MOL0     H11870   1.132  11.042   8.379  1.7937 -0.0594 -0.3298
   88MOL0     H11871   1.198  11.116   8.228  0.7817  0.0211 -1.0924
   88MOL0     H11872   0.940  11.205   8.195  1.7628  2.4481 -1.4614
   88MOL0     H11873   1.026  11.269   8.327 -0.3674 -0.7454  1.0483
   88MOL0     H11874   0.894  11.105   8.479 -1.0732  0.3088  0.6603
   88MOL0     H11875   0.837  11.013   8.332  0.7333  0.2891  2.3143
   88MOL0     H11876   0.660  11.141   8.388 -1.2484  1.1349 -2.9735
   88MOL0     H11877   0.733  11.230   8.261  1.8200  0.2769  0.0786
   88MOL0     H11878   0.752  11.503   8.591  0.6668  0.0141  0.5597
   88MOL0     H11879   0.979  10.808   8.038  0.7765  2.2935 -0.1691
   88MOL0     H11880   1.092  10.603   7.963 -1.6439 -0.1334 -0.0533
   89MOL0     O11881   1.294   4.026   4.327 -0.6498 -0.0094 -0.8568
   89MOL0     C11882   1.290   4.130   4.270  0.0023  0.1529  0.5034
   89MOL0     O11883   1.184   4.223   4.272 -0.7513  0.6699 -0.3741
   89MOL0     C11884   1.068   4.190   4.335 -0.0157  0.7429  0.1523
   89MOL0     C11885   0.972   4.086   4.323 -0.9993  0.4394 -0.7988
   89MOL0     C11886   0.869   4.076   4.415 -0.6228 -0.4074 -0.1117
   89MOL0     C11887   0.838   4.181   4.512  0.2477  0.1990  1.2720
   89MOL0     O11888   0.744   4.173   4.610 -0.2844  0.1584 -0.5021
   89MOL0     C11889   0.734   4.043   4.685  1.1879  0.3039  1.0349
   89MOL0     C11890   0.586   4.009   4.728 -0.2221 -0.2737  0.4054
   89MOL0     C11891   0.505   4.137   4.761  0.6757  0.0747  0.0129
   89MOL0     C11892   0.427   4.139   4.891  0.1905 -0.0096 -0.4827
   89MOL0     C11893   0.311   4.235   4.905 -0.4812  0.2998 -0.6109
   89MOL0     C11894   0.348   4.381   4.899 -0.2611  0.8287 -0.1313
   89MOL0     C11895   0.241   4.482   4.895 -0.2939  0.1193  0.4391
   89MOL0     C11896   0.286   4.622   4.851  0.1221  0.7150 -0.7539
   89MOL0     N11897   0.400   4.669   4.932  0.6290 -0.1730  0.0077
   89MOL0     C11898   0.384   4.744   5.043  0.0601 -0.5513 -0.1241
   89MOL0     C11899   0.512   4.759   5.091  0.1838  0.8904  0.0642
   89MOL0     C11900   0.546   4.814   5.226  0.2441  0.6848 -0.4038
   89MOL0     C11901   0.450   4.776   5.337  1.6147 -0.0991 -0.1361
   89MOL0     C11902   0.337   4.867   5.362  0.2649 -0.4654  0.1408
   89MOL0     C11903   0.242   4.798   5.456 -0.1617  0.5631 -0.0257
   89MOL0     O11904   0.187   4.688   5.385  0.0044 -0.5168  0.0934
   89MOL0     C11905   0.083   4.698   5.294  0.7255 -0.6300 -0.2896
   89MOL0     C11906  -0.007   4.807   5.284  1.2981 -0.1491  0.5993
   89MOL0     C11907  -0.121   4.802   5.196 -0.2422  1.5095  0.2304
   89MOL0     C11908  -0.192   4.929   5.170 -0.5454  0.1834  0.0006
   89MOL0     C11909  -0.147   4.677   5.121  0.1210  0.8074  0.1326
   89MOL0     C11910  -0.276   4.657   5.052  0.4569  0.3765  0.3172
   89MOL0     O11911  -0.263   4.561   4.946 -0.5147 -0.1523 -0.1259
   89MOL0     C11912  -0.372   4.556   4.861 -0.3457 -0.9152 -0.2074
   89MOL0     C11913  -0.512   4.527   4.906 -0.3985  0.6812 -0.0616
   89MOL0     C11914  -0.602   4.495   4.805  0.2889 -0.6042 -1.1156
   89MOL0     C11915  -0.571   4.494   4.672 -0.1408 -0.0906 -0.5407
   89MOL0     O11916  -0.662   4.458   4.586  0.0365 -0.0149  0.4446
   89MOL0     C11917  -0.650   4.489   4.449 -0.0312 -0.3162 -0.0509
   89MOL0     C11918  -0.779   4.440   4.386  0.3038  0.1655  0.4023
   89MOL0     C11919  -0.908   4.520   4.411 -0.2013  0.3969  0.0997
   89MOL0     C11920  -0.967   4.521   4.547  0.2190  0.5253  0.7279
   89MOL0     C11921  -1.014   4.389   4.595  0.7354 -1.3547  0.0940
   89MOL0     C11922  -1.088   4.409   4.731 -0.0264  0.0106 -0.5100
   89MOL0     C11923  -1.114   4.273   4.797 -0.1981 -0.7271 -0.2394
   89MOL0     C11924  -1.176   4.298   4.937 -0.0669 -0.2916  1.0154
   89MOL0    Cl11925  -1.222   4.134   4.995 -0.2004  0.5957  0.4632
   89MOL0     C11926  -0.444   4.543   4.631  0.8433  0.8863  0.2248
   89MOL0     C11927  -0.346   4.555   4.726 -0.7263  0.7709  0.1585
   89MOL0     O11928  -0.379   4.713   5.086  0.2886  0.4885 -0.1609
   89MOL0     C11929  -0.062   4.567   5.142 -0.2438 -0.5326  0.1318
   89MOL0     C11930   0.047   4.580   5.231 -0.9920  0.6614  0.6387
   89MOL0     N11931   0.600   4.702   5.011  0.4661  0.7794  0.1615
   89MOL0     N11932   0.533   4.645   4.909  0.9954  0.1175 -0.3660
   89MOL0     C11933   0.920   4.290   4.502 -0.0126 -0.9999  0.2649
   89MOL0     C11934   1.033   4.297   4.418 -0.4448 -0.3036 -0.2717
   89MOL0     C11935   1.412   4.177   4.193 -0.6754  0.5332  0.1007
   89MOL0     C11936   1.426   4.301   4.133 -0.6188 -0.1670 -0.3397
   89MOL0     C11937   1.553   4.334   4.067  0.1745 -0.3025 -0.2340
   89MOL0     C11938   1.664   4.238   4.057  0.4421 -0.5325  1.0308
   89MOL0     O11939   1.778   4.278   3.996  0.0921 -0.1470 -0.4345
   89MOL0     C11940   1.890   4.290   4.084 -0.1187  0.1110  0.6609
   89MOL0     C11941   1.974   4.407   4.049 -0.0974 -0.8049  0.2495
   89MOL0     C11942   2.043   4.399   3.912 -0.0708  0.4607  0.1677
   89MOL0     C11943   2.145   4.514   3.888 -0.2959  0.4996  0.0117
   89MOL0     C11944   2.082   4.644   3.864 -0.4396  0.1808  0.4751
   89MOL0     C11945   2.040   4.753   3.839  0.2546 -0.3028 -0.1524
   89MOL0     C11946   1.632   4.114   4.103 -0.3080 -0.5629  0.0303
   89MOL0     C11947   1.513   4.083   4.174 -0.6620 -0.7255 -0.1795
   89MOL0     H11948   0.988   4.007   4.251 -1.9410  1.5986 -2.3525
   89MOL0     H11949   0.803   3.991   4.426  1.5813 -2.1909  0.1662
   89MOL0     H11950   0.768   3.953   4.633 -1.3596 -0.4289  0.5134
   89MOL0     H11951   0.794   4.048   4.776  2.9160  1.9695 -0.1106
   89MOL0     H11952   0.519   3.952   4.663  0.8963 -0.2051 -0.8641
   89MOL0     H11953   0.586   3.945   4.817 -0.1099 -1.4654 -0.4226
   89MOL0     H11954   0.565   4.229   4.758  1.8984 -0.6158  1.8098
   89MOL0     H11955   0.423   4.138   4.688 -0.1793 -1.0006  0.9342
   89MOL0     H11956   0.388   4.038   4.907 -0.4452  0.5960  2.2678
   89MOL0     H11957   0.495   4.162   4.973  1.3520 -0.9391 -1.1520
   89MOL0     H11958   0.247   4.206   4.821  0.7257 -2.4113 -0.7183
   89MOL0     H11959   0.257   4.224   4.999 -2.1446  1.2839 -1.4145
   89MOL0     H11960   0.408   4.388   4.991 -1.0173 -3.1396  0.8453
   89MOL0     H11961   0.417   4.388   4.815 -2.1877 -2.2022 -2.1559
   89MOL0     H11962   0.159   4.456   4.828  0.7756 -1.9470 -0.1268
   89MOL0     H11963   0.196   4.486   4.995 -0.9735  0.5728  0.1230
   89MOL0     H11964   0.205   4.695   4.861 -0.2312  0.1214  0.9967
   89MOL0     H11965   0.319   4.617   4.747  0.3984 -3.2715 -0.6234
   89MOL0     H11966   0.286   4.754   5.087 -1.5127 -2.0315 -2.9855
   89MOL0     H11967   0.639   4.765   5.257  1.7210  1.0073 -3.8477
   89MOL0     H11968   0.561   4.922   5.225  1.7564  0.5490  1.4654
   89MOL0     H11969   0.499   4.763   5.434  1.0048 -2.4873 -0.0968
   89MOL0     H11970   0.411   4.677   5.315 -1.6905  1.7673 -3.8705
   89MOL0     H11971   0.282   4.888   5.270  3.6207 -0.8546 -2.1250
   89MOL0     H11972   0.376   4.956   5.412 -0.8014  0.6172 -0.9218
   89MOL0     H11973   0.171   4.873   5.493 -1.0734  0.4549 -1.4884
   89MOL0     H11974   0.293   4.753   5.542  0.3918 -0.1815 -0.7344
   89MOL0     H11975   0.007   4.894   5.347  0.0902  0.4276  0.1010
   89MOL0     H11976  -0.134   5.019   5.190 -2.6542  1.8194 -0.8409
   89MOL0     H11977  -0.225   4.925   5.065  0.4962  0.2797 -0.3431
   89MOL0     H11978  -0.282   4.930   5.232 -1.3183  0.8783 -1.0867
   89MOL0     H11979  -0.534   4.538   5.012  3.2986  1.1252  0.7994
   89MOL0     H11980  -0.699   4.464   4.843  0.3475 -2.8430 -2.5702
   89MOL0     H11981  -0.638   4.595   4.425 -1.3106 -0.7314 -2.9570
   89MOL0     H11982  -0.571   4.441   4.390 -0.2480 -0.1525 -0.4823
   89MOL0     H11983  -0.760   4.413   4.282 -0.9912 -0.5774  0.3260
   89MOL0     H11984  -0.798   4.343   4.434  1.0632  0.2916  0.9583
   89MOL0     H11985  -0.988   4.480   4.348  0.2800  1.4305 -1.2149
   89MOL0     H11986  -0.884   4.625   4.393 -0.7019  0.6844  1.0490
   89MOL0     H11987  -0.891   4.565   4.613  2.0776  3.9320 -3.1888
   89MOL0     H11988  -1.052   4.588   4.536 -0.2341 -0.2086 -0.3957
   89MOL0     H11989  -0.925   4.326   4.603  2.1137  0.7257  2.1638
   89MOL0     H11990  -1.089   4.348   4.527 -0.0352  1.5337 -0.9066
   89MOL0     H11991  -1.030   4.475   4.796 -0.8831  1.3436 -1.0737
   89MOL0     H11992  -1.181   4.455   4.697 -1.5101 -3.3190 -1.3694
   89MOL0     H11993  -1.021   4.216   4.809  0.6433  0.1774 -2.0128
   89MOL0     H11994  -1.188   4.226   4.732 -1.5958 -2.3243  2.3548
   89MOL0     H11995  -1.265   4.361   4.924  2.4089  3.0527 -2.2294
   89MOL0     H11996  -1.117   4.347   5.015 -3.9299 -0.8858  4.6817
   89MOL0     H11997  -0.421   4.544   4.525  2.5798 -5.5352  0.1239
   89MOL0     H11998  -0.243   4.566   4.695 -1.0269  1.1774 -0.7398
   89MOL0     H11999  -0.081   4.473   5.092  0.5870 -0.9722  0.6279
   89MOL0     H12000   0.109   4.493   5.249  1.6303  2.3984  0.5972
   89MOL0     H12001   0.904   4.374   4.569 -2.2851 -1.4727  0.3738
   89MOL0     H12002   1.106   4.377   4.431  0.1014 -0.3352 -2.6976
   89MOL0     H12003   1.346   4.375   4.132 -1.4975 -1.0794 -2.0873
   89MOL0     H12004   1.582   4.427   4.019 -0.3457  1.0964  2.0366
   89MOL0     H12005   1.867   4.303   4.190 -0.7462  2.1328  0.3115
   89MOL0     H12006   1.953   4.200   4.077 -0.2679  0.0391  0.2453
   89MOL0     H12007   2.057   4.419   4.119  1.6304 -0.1847 -1.7925
   89MOL0     H12008   1.916   4.500   4.055 -0.1611 -0.8311  0.0700
   89MOL0     H12009   1.970   4.405   3.832 -1.2341  0.6289  1.2102
   89MOL0     H12010   2.097   4.304   3.914 -1.7999 -0.5847  2.5016
   89MOL0     H12011   2.209   4.489   3.803 -0.3013 -1.7867  0.6172
   89MOL0     H12012   2.214   4.510   3.973  1.8928 -4.1006 -1.6510
   89MOL0     H12013   2.005   4.853   3.826 -3.1046 -1.1737  1.1477
   89MOL0     H12014   1.706   4.036   4.088  0.5706  0.3694 -0.5438
   89MOL0     H12015   1.512   3.992   4.233 -0.3224 -0.9703 -0.5420
   90MOL0     O12016   0.300   2.288  11.387 -0.7001 -0.8343  0.4476
   90MOL0     C12017   0.237   2.196  11.333 -0.0993 -0.8099 -0.1927
   90MOL0     O12018   0.270   2.141  11.214  0.5882 -0.1380 -0.1270
   90MOL0     C12019   0.385   2.182  11.152 -1.0491 -1.6993  0.9808
   90MOL0     C12020   0.463   2.084  11.086  0.2446 -0.3252 -0.8170
   90MOL0     C12021   0.583   2.116  11.018 -1.0613  0.2422  0.7789
   90MOL0     C12022   0.627   2.248  11.008 -0.9736  0.5734  0.3091
   90MOL0     O12023   0.733   2.288  10.927 -0.6330 -0.2626 -0.0314
   90MOL0     C12024   0.706   2.280  10.786  0.0374  0.1837  0.0217
   90MOL0     C12025   0.812   2.188  10.717  0.3831  0.4617  0.5465
   90MOL0     C12026   0.765   2.149  10.577  0.1732  0.4077  0.0406
   90MOL0     C12027   0.894   2.106  10.496  0.5941  0.1620 -1.0613
   90MOL0     C12028   0.829   2.076  10.353  0.0896 -0.8620  0.9311
   90MOL0     C12029   0.927   2.005  10.257 -0.4539 -0.1799  1.0350
   90MOL0     C12030   0.934   1.855  10.290 -0.2550  0.2509  0.6621
   90MOL0     C12031   1.049   1.796  10.216  1.1676 -0.3044  0.0229
   90MOL0     N12032   1.014   1.657  10.191 -0.0045 -0.2301  0.1356
   90MOL0     C12033   1.053   1.562  10.289  0.4683 -0.3358  0.1495
   90MOL0     C12034   1.055   1.453  10.213 -0.2215  0.1806  0.6921
   90MOL0     C12035   1.099   1.315  10.253 -0.4590  0.1815 -0.5653
   90MOL0     C12036   0.981   1.221  10.274 -0.2006 -0.9934  1.0443
   90MOL0     C12037   0.877   1.249  10.383  0.1490  0.3028  0.5938
   90MOL0     C12038   0.942   1.266  10.509  0.5175  0.2662  0.4606
   90MOL0     O12039   0.840   1.316  10.598  0.1252  0.3386 -0.1372
   90MOL0     C12040   0.848   1.265  10.724 -0.1979 -0.4115  0.0702
   90MOL0     C12041   0.976   1.259  10.800 -0.0442 -0.5084  0.5574
   90MOL0     C12042   0.979   1.220  10.930 -0.3212 -0.3804  0.5598
   90MOL0     C12043   1.117   1.223  10.998 -0.0808 -0.0515 -0.4427
   90MOL0     C12044   0.857   1.189  10.999 -0.7199 -0.4803  0.6260
   90MOL0     C12045   0.855   1.167  11.144  0.2984 -0.6939  1.0408
   90MOL0     O12046   0.972   1.121  11.191  0.6574  0.6096 -0.2676
   90MOL0     C12047   0.986   1.103  11.330  0.7672 -0.4135  0.3588
   90MOL0     C12048   1.090   1.187  11.372  1.1225 -0.9308 -0.9807
   90MOL0     C12049   1.131   1.177  11.508 -0.3772  0.9600  0.9527
   90MOL0     C12050   1.069   1.087  11.603  0.4241 -0.8084  0.2291
   90MOL0     O12051   1.117   1.081  11.736 -1.0488 -0.1580  1.0402
   90MOL0     C12052   1.114   0.960  11.803 -0.6660 -1.0686  0.7468
   90MOL0     C12053   1.114   1.001  11.946 -0.6614  0.0373 -0.8143
   90MOL0     C12054   0.998   1.095  11.992 -0.8434  0.4209  0.4710
   90MOL0     C12055   0.866   1.035  11.968 -0.1793  0.3731  0.5004
   90MOL0     C12056   0.761   1.106  12.056  0.1079  1.4044 -1.0489
   90MOL0     C12057   0.762   1.265  12.061 -1.0274  0.0156 -1.0189
   90MOL0     C12058   0.650   1.315  12.155  0.2211  0.6043  1.0331
   90MOL0     C12059   0.653   1.470  12.151 -0.9430  0.0631 -0.5996
   90MOL0    Cl12060   0.797   1.533  12.232  0.2119  0.2816 -0.1688
   90MOL0     C12061   0.965   1.002  11.552  0.7247 -0.3534  0.0978
   90MOL0     C12062   0.923   1.004  11.415  0.1411 -0.3338  0.9384
   90MOL0     O12063   0.751   1.177  11.202 -0.1766  0.5146 -0.1009
   90MOL0     C12064   0.744   1.181  10.929  0.4934 -0.8808 -0.2256
   90MOL0     C12065   0.732   1.220  10.793  0.6169 -0.3366 -0.2777
   90MOL0     N12066   1.021   1.476  10.079 -0.1629 -0.5809  0.1680
   90MOL0     N12067   0.986   1.597  10.074 -0.1485  0.5884  1.1490
   90MOL0     C12068   0.546   2.350  11.063 -0.3528  0.9964 -0.6146
   90MOL0     C12069   0.430   2.312  11.141 -1.0490  0.8502 -0.7765
   90MOL0     C12070   0.113   2.142  11.401 -0.2085 -0.5884  0.2799
   90MOL0     C12071   0.089   2.169  11.539  0.5892  0.1898 -0.6191
   90MOL0     C12072  -0.032   2.130  11.594 -1.1783  0.5146  0.1879
   90MOL0     C12073  -0.134   2.067  11.518  0.1076  0.8629  1.2280
   90MOL0     O12074  -0.240   2.031  11.592  0.1146 -0.2424  0.3206
   90MOL0     C12075  -0.286   2.135  11.683  0.6648  0.2150 -0.5630
   90MOL0     C12076  -0.431   2.102  11.716  0.0011  0.2733  0.2639
   90MOL0     C12077  -0.456   1.994  11.820  0.3868 -0.1751 -0.0923
   90MOL0     C12078  -0.388   2.013  11.957  0.3018  0.9966 -0.1400
   90MOL0     C12079  -0.407   1.891  12.042 -0.1580 -0.5743 -0.8028
   90MOL0     C12080  -0.414   1.789  12.110  0.1878 -0.0425 -1.4607
   90MOL0     C12081  -0.099   2.032  11.391  0.7956  0.6130 -0.4551
   90MOL0     C12082   0.014   2.069  11.330  0.4476 -0.4083 -0.1497
   90MOL0     H12083   0.420   1.985  11.081 -0.6032 -0.1317  1.3097
   90MOL0     H12084   0.641   2.045  10.961  2.7009  3.2538  0.4088
   90MOL0     H12085   0.606   2.251  10.754 -1.4087  1.2168  3.2223
   90MOL0     H12086   0.720   2.381  10.748  0.4950 -0.6287 -2.0880
   90MOL0     H12087   0.907   2.240  10.704 -0.4870  1.5189 -2.8417
   90MOL0     H12088   0.823   2.096  10.776  2.4165  0.5643  0.3884
   90MOL0     H12089   0.692   2.068  10.574  1.1237 -0.5097 -4.0519
   90MOL0     H12090   0.726   2.242  10.534  0.8693  1.3699  1.3929
   90MOL0     H12091   0.973   2.182  10.503  0.1672  0.8936 -3.5057
   90MOL0     H12092   0.931   2.012  10.537  0.0488 -1.0470 -3.2093
   90MOL0     H12093   0.736   2.019  10.362 -1.6431  1.5796 -0.4200
   90MOL0     H12094   0.798   2.166  10.300  0.9147 -1.5147 -0.7423
   90MOL0     H12095   0.890   2.021  10.155  2.2886 -0.3930 -0.0810
   90MOL0     H12096   1.028   2.042  10.278 -0.9524 -0.0868  3.5301
   90MOL0     H12097   0.951   1.846  10.397  0.0930  0.7250  0.6491
   90MOL0     H12098   0.845   1.803  10.253  0.3519 -0.0276 -0.4817
   90MOL0     H12099   1.129   1.814  10.288 -1.7164  1.9469  2.9841
   90MOL0     H12100   1.066   1.848  10.121  1.2850  0.7074  0.5891
   90MOL0     H12101   1.078   1.580  10.393  1.8667 -1.7162  0.0801
   90MOL0     H12102   1.170   1.267  10.185 -1.1980 -1.3012 -0.3300
   90MOL0     H12103   1.144   1.322  10.353 -2.5957 -0.3590  0.4954
   90MOL0     H12104   1.018   1.119  10.291  3.0278 -0.0649  0.3575
   90MOL0     H12105   0.934   1.209  10.176 -0.7617  0.0177  1.1766
   90MOL0     H12106   0.803   1.169  10.386  2.2967 -1.8860 -1.3665
   90MOL0     H12107   0.825   1.340  10.351  1.6084  1.3325  1.0127
   90MOL0     H12108   1.020   1.343  10.506  2.7178 -1.9035 -0.8680
   90MOL0     H12109   0.982   1.168  10.533  0.5669 -0.1641 -1.2442
   90MOL0     H12110   1.064   1.287  10.743 -1.0924  0.1221 -0.8436
   90MOL0     H12111   1.106   1.295  11.079  0.7910  1.4432 -1.5980
   90MOL0     H12112   1.134   1.126  11.046 -3.5218 -0.7608 -0.3812
   90MOL0     H12113   1.193   1.261  10.930  3.7051  0.0106  3.4089
   90MOL0     H12114   1.137   1.252  11.298  0.1056 -0.3004 -1.0900
   90MOL0     H12115   1.212   1.245  11.534  0.8151 -0.4381  0.9747
   90MOL0     H12116   1.040   0.891  11.760  0.4066  0.6692 -4.7310
   90MOL0     H12117   1.210   0.908  11.795  0.7874  1.3205  1.6712
   90MOL0     H12118   1.104   0.910  12.006  0.2260  1.0672  0.9818
   90MOL0     H12119   1.208   1.045  11.978 -2.8232  4.3503  0.3314
   90MOL0     H12120   1.011   1.193  11.944  2.9717 -0.7738 -1.4215
   90MOL0     H12121   1.004   1.109  12.100 -4.4446 -0.7383  0.9317
   90MOL0     H12122   0.827   1.054  11.867  0.4497  1.4547  0.4410
   90MOL0     H12123   0.873   0.932  12.004  1.7629  0.7324  1.2289
   90MOL0     H12124   0.767   1.053  12.151  2.3305  1.0660 -1.3093
   90MOL0     H12125   0.668   1.075  12.007  0.7532  1.1695 -2.1646
   90MOL0     H12126   0.857   1.313  12.087 -1.7804  1.3129 -0.5665
   90MOL0     H12127   0.756   1.288  11.955  2.5401 -0.6945 -1.5056
   90MOL0     H12128   0.667   1.287  12.259  0.2135 -1.1107  0.5991
   90MOL0     H12129   0.557   1.273  12.116  1.1325 -2.6062  2.0638
   90MOL0     H12130   0.564   1.505  12.206 -1.0371 -1.0544 -0.0099
   90MOL0     H12131   0.651   1.495  12.044 -2.2498  1.6457 -0.2525
   90MOL0     H12132   0.899   0.937  11.608  1.5964 -0.6063  0.8501
   90MOL0     H12133   0.842   0.945  11.374 -0.4632  0.6357  0.7089
   90MOL0     H12134   0.668   1.128  10.986  0.3373 -2.1806 -1.5834
   90MOL0     H12135   0.635   1.220  10.745  1.0536 -0.3608 -1.1828
   90MOL0     H12136   0.580   2.453  11.053 -2.7841  2.4413  3.5482
   90MOL0     H12137   0.377   2.392  11.192  1.2352  2.3456 -0.6015
   90MOL0     H12138   0.157   2.222  11.606  0.0969  0.7171 -0.5325
   90MOL0     H12139  -0.037   2.147  11.701 -1.6029  1.0004  0.0954
   90MOL0     H12140  -0.233   2.146  11.777 -3.0571 -0.1877  1.7681
   90MOL0     H12141  -0.275   2.219  11.614 -1.7477  0.6572 -0.4835
   90MOL0     H12142  -0.477   2.071  11.621  1.3872 -2.7377  0.4483
   90MOL0     H12143  -0.478   2.187  11.766  1.5480  0.6020  1.2223
   90MOL0     H12144  -0.417   1.901  11.777  1.4644 -0.9873  2.4001
   90MOL0     H12145  -0.564   1.984  11.828  0.4680 -0.2308  1.0976
   90MOL0     H12146  -0.425   2.102  12.009 -2.0837 -0.4971  0.9542
   90MOL0     H12147  -0.280   2.029  11.953  0.4003  0.9530  1.4918
   90MOL0     H12148  -0.417   1.707  12.178  2.1257  1.1961  0.2509
   90MOL0     H12149  -0.174   1.977  11.336  0.8242  1.3148 -1.2129
   90MOL0     H12150   0.032   2.038  11.228 -0.4705 -0.7108 -0.2288
   91MOL0     O12151  10.096   9.335   5.230 -0.2030 -0.4005 -0.2464
   91MOL0     C12152  10.114   9.247   5.148 -0.3209  0.0889 -0.4568
   91MOL0     O12153  10.020   9.173   5.086  0.3200  0.3541 -0.3569
   91MOL0     C12154   9.885   9.175   5.122 -1.4732  0.2895  0.6489
   91MOL0     C12155   9.793   9.118   5.032 -0.4060  0.4118 -0.6616
   91MOL0     C12156   9.655   9.103   5.075 -0.6740  0.1342  0.3050
   91MOL0     C12157   9.622   9.140   5.200 -0.2758 -0.0927  0.7759
   91MOL0     O12158   9.488   9.137   5.221 -0.2579 -0.2228  0.8276
   91MOL0     C12159   9.430   9.239   5.306 -0.0910  0.8223 -0.5060
   91MOL0     C12160   9.280   9.200   5.300  0.7814  0.4600  0.2939
   91MOL0     C12161   9.195   9.302   5.352  0.7419  0.2112 -1.0424
   91MOL0     C12162   9.053   9.286   5.315 -0.8218 -0.1496  0.2126
   91MOL0     C12163   8.968   9.408   5.326 -0.8069 -0.7346 -0.3494
   91MOL0     C12164   9.007   9.514   5.222  0.0502  0.7072  0.7744
   91MOL0     C12165   8.899   9.633   5.225 -0.6699  1.0056 -0.1786
   91MOL0     C12166   8.765   9.588   5.166 -0.2717  0.3917 -0.0085
   91MOL0     N12167   8.780   9.564   5.020 -0.8227 -0.5580  0.3648
   91MOL0     C12168   8.799   9.443   4.967 -0.5417 -0.1263 -0.6842
   91MOL0     C12169   8.769   9.473   4.837  0.2413 -0.3877  0.4007
   91MOL0     C12170   8.772   9.376   4.714  0.0601 -0.8321  0.9683
   91MOL0     C12171   8.843   9.455   4.597  0.7781  0.5427  0.1956
   91MOL0     C12172   8.850   9.367   4.476 -0.1205  0.7118 -0.4865
   91MOL0     C12173   8.934   9.243   4.479 -0.3164  0.0338  0.4764
   91MOL0     O12174   8.915   9.162   4.357 -0.4198  0.6555  0.3386
   91MOL0     C12175   8.918   9.028   4.374 -0.6903 -0.1087  0.1535
   91MOL0     C12176   9.014   8.959   4.455  0.5494 -0.0397  0.4343
   91MOL0     C12177   9.006   8.826   4.476  0.5701 -0.1394  0.3323
   91MOL0     C12178   9.125   8.769   4.557 -0.2305 -1.2371 -0.5852
   91MOL0     C12179   8.896   8.754   4.421 -0.4783 -0.4479 -1.6090
   91MOL0     C12180   8.881   8.614   4.446 -0.3672  0.4522  0.3732
   91MOL0     O12181   8.759   8.562   4.411 -0.7100  0.0449 -0.4290
   91MOL0     C12182   8.720   8.435   4.451  0.1944  0.0682  0.4643
   91MOL0     C12183   8.796   8.321   4.457 -0.2283  0.6558  0.4192
   91MOL0     C12184   8.750   8.198   4.507  0.2633 -0.0360 -0.9761
   91MOL0     C12185   8.615   8.189   4.548  0.2155  0.6999  0.3899
   91MOL0     O12186   8.571   8.075   4.608  0.1578  0.9630 -0.1784
   91MOL0     C12187   8.634   8.042   4.733 -0.0440  0.5505 -1.0052
   91MOL0     C12188   8.533   8.001   4.846  0.4971 -0.4514  0.3727
   91MOL0     C12189   8.587   7.908   4.953 -0.5075  0.3941 -0.7402
   91MOL0     C12190   8.671   7.994   5.055  0.6625 -0.7606 -0.4439
   91MOL0     C12191   8.690   7.923   5.191 -0.6919 -1.6562 -0.1077
   91MOL0     C12192   8.734   8.018   5.300 -0.6318 -0.0280 -0.1535
   91MOL0     C12193   8.836   7.958   5.401 -0.3720  0.0779  0.3534
   91MOL0     C12194   8.868   8.045   5.526 -0.3009  0.1705  0.1630
   91MOL0    Cl12195   8.997   7.949   5.612  0.1850  0.2101  0.0366
   91MOL0     C12196   8.531   8.289   4.524 -0.1946 -0.0874  0.0472
   91MOL0     C12197   8.584   8.417   4.489  0.4793  0.4688  1.1609
   91MOL0     O12198   8.971   8.546   4.485 -0.7098 -1.0688  0.5573
   91MOL0     C12199   8.804   8.820   4.340  0.6443  0.2493 -0.5104
   91MOL0     C12200   8.816   8.957   4.311 -1.1638  0.1446  0.0763
   91MOL0     N12201   8.738   9.607   4.821  0.3293 -0.2168  0.2015
   91MOL0     N12202   8.750   9.657   4.934  0.3169 -0.3953 -0.1911
   91MOL0     C12203   9.715   9.192   5.289  0.2261  0.3483  0.1759
   91MOL0     C12204   9.841   9.204   5.251  0.6245  0.2037  1.0094
   91MOL0     C12205  10.261   9.236   5.116  0.4141 -0.7099  0.4008
   91MOL0     C12206  10.355   9.305   5.198  0.0117  0.3597  0.2669
   91MOL0     C12207  10.488   9.290   5.162 -0.4969 -0.6272  1.1821
   91MOL0     C12208  10.531   9.216   5.049 -0.3807 -0.3593 -0.0631
   91MOL0     O12209  10.668   9.189   5.018 -0.1506 -0.3419  0.4058
   91MOL0     C12210  10.771   9.228   5.109  0.6470  0.6799  1.0686
   91MOL0     C12211  10.906   9.195   5.062  0.1145 -0.0687  0.4466
   91MOL0     C12212  11.020   9.208   5.170 -0.1091 -0.9825  0.2458
   91MOL0     C12213  11.160   9.190   5.103 -0.0415 -0.1168  0.1680
   91MOL0     C12214  11.271   9.224   5.190 -0.1200 -0.2190 -0.4103
   91MOL0     C12215  11.367   9.250   5.258 -0.2798  0.4529 -0.5903
   91MOL0     C12216  10.434   9.139   4.980 -0.5117 -0.3452 -0.1386
   91MOL0     C12217  10.300   9.157   5.007  0.5971  0.0828 -0.4603
   91MOL0     H12218   9.817   9.090   4.930  0.2554  1.7466 -0.8944
   91MOL0     H12219   9.579   9.052   5.016 -1.3248 -0.7583  1.8461
   91MOL0     H12220   9.470   9.243   5.408 -1.2885 -1.4919  0.1382
   91MOL0     H12221   9.429   9.334   5.252  2.5358  0.0491 -2.1083
   91MOL0     H12222   9.263   9.188   5.192  4.8662  1.1963 -0.6189
   91MOL0     H12223   9.253   9.106   5.347 -0.3176 -0.3247 -1.7695
   91MOL0     H12224   9.189   9.290   5.460  1.7010  0.8445 -0.8962
   91MOL0     H12225   9.237   9.401   5.329 -2.1835  1.7242 -0.4145
   91MOL0     H12226   9.051   9.249   5.212  0.3089  0.7078 -0.1396
   91MOL0     H12227   8.999   9.209   5.371  0.0406  0.5354  2.0595
   91MOL0     H12228   8.864   9.379   5.307 -0.9232  0.0270 -0.9256
   91MOL0     H12229   8.974   9.451   5.426  0.7464  0.2306 -0.8232
   91MOL0     H12230   9.103   9.564   5.238 -0.6786  2.0923  1.0021
   91MOL0     H12231   9.010   9.476   5.119  1.0266  1.7829  0.3870
   91MOL0     H12232   8.882   9.651   5.332 -2.6392  0.3096 -0.3378
   91MOL0     H12233   8.932   9.727   5.180  0.7047  0.6423  0.0408
   91MOL0     H12234   8.691   9.667   5.181  1.5463  1.9863  1.0508
   91MOL0     H12235   8.728   9.496   5.211 -0.6683  0.0951 -0.9305
   91MOL0     H12236   8.825   9.349   5.016 -3.2088  0.3541  1.9125
   91MOL0     H12237   8.831   9.290   4.747  1.3194 -0.0183  0.8861
   91MOL0     H12238   8.669   9.351   4.688  0.7542 -0.5352 -2.4253
   91MOL0     H12239   8.946   9.488   4.618 -0.2559  2.8309  2.1355
   91MOL0     H12240   8.777   9.533   4.559 -1.4861 -1.4080 -0.0962
   91MOL0     H12241   8.889   9.431   4.395  3.6915  0.3304  0.8415
   91MOL0     H12242   8.748   9.336   4.452  0.9132 -0.4566 -3.9683
   91MOL0     H12243   8.941   9.201   4.579  1.3205  0.9688  0.7853
   91MOL0     H12244   9.038   9.273   4.462  0.0490 -1.5866 -0.3528
   91MOL0     H12245   9.074   9.022   4.520  1.5656 -0.0302 -0.5011
   91MOL0     H12246   9.196   8.849   4.580 -2.0993 -0.1205  1.8514
   91MOL0     H12247   9.093   8.726   4.652  1.9540 -1.2893  0.1838
   91MOL0     H12248   9.174   8.685   4.508  0.4268 -1.0682 -0.2338
   91MOL0     H12249   8.901   8.319   4.428  0.0167  1.6907  1.1649
   91MOL0     H12250   8.819   8.114   4.513  1.9028  0.7745 -5.2340
   91MOL0     H12251   8.704   7.957   4.724 -0.3198 -0.0859  1.9302
   91MOL0     H12252   8.698   8.124   4.768 -1.1988  0.5411  1.3018
   91MOL0     H12253   8.492   8.093   4.888  0.2115  0.4216 -1.6915
   91MOL0     H12254   8.451   7.952   4.792  1.5604 -1.5341 -0.3221
   91MOL0     H12255   8.637   7.826   4.900 -1.8561 -3.1774  2.9381
   91MOL0     H12256   8.507   7.868   5.017  0.7963  0.3392  0.9423
   91MOL0     H12257   8.769   8.019   5.013  0.4537 -0.1912 -0.5962
   91MOL0     H12258   8.621   8.088   5.083  0.7819  0.0687 -2.8148
   91MOL0     H12259   8.762   7.841   5.186 -1.0176 -2.3427  3.5188
   91MOL0     H12260   8.594   7.888   5.231  0.2265 -0.4958  3.4723
   91MOL0     H12261   8.786   8.106   5.259 -0.3641 -0.9401 -1.8600
   91MOL0     H12262   8.655   8.055   5.365  0.7431  0.4660  1.3048
   91MOL0     H12263   8.931   7.954   5.347 -0.5390  1.9494 -0.1740
   91MOL0     H12264   8.796   7.863   5.436 -1.7752 -0.0149 -1.3564
   91MOL0     H12265   8.776   8.062   5.583 -1.9227 -2.9723 -1.2405
   91MOL0     H12266   8.901   8.143   5.493 -0.4380  1.0016  2.3064
   91MOL0     H12267   8.425   8.279   4.542 -0.0990  2.1966  2.4523
   91MOL0     H12268   8.514   8.499   4.475 -0.4612 -0.5346 -0.3663
   91MOL0     H12269   8.709   8.784   4.302  1.0965  1.1546 -2.6649
   91MOL0     H12270   8.736   9.005   4.256 -2.2493 -0.5566  1.0232
   91MOL0     H12271   9.699   9.211   5.395 -2.0057  0.0859 -0.0603
   91MOL0     H12272   9.915   9.224   5.327  1.3184 -1.5371  0.8324
   91MOL0     H12273  10.338   9.367   5.285 -0.3740  2.0685 -0.9689
   91MOL0     H12274  10.560   9.352   5.215 -0.2117 -0.0761  0.1674
   91MOL0     H12275  10.772   9.334   5.137  0.6353  0.7038  0.9792
   91MOL0     H12276  10.737   9.171   5.196 -3.6450  0.3576 -0.5963
   91MOL0     H12277  10.924   9.260   4.976 -0.5086 -0.2791  0.1527
   91MOL0     H12278  10.914   9.091   5.031 -1.4884 -1.0483  3.0136
   91MOL0     H12279  10.998   9.135   5.249 -0.2562 -0.9562  0.2299
   91MOL0     H12280  11.033   9.309   5.211  2.8464 -1.3861  0.4834
   91MOL0     H12281  11.173   9.257   5.018  0.5774  0.9419  1.0837
   91MOL0     H12282  11.164   9.083   5.080 -0.4808 -0.1558  0.2662
   91MOL0     H12283  11.448   9.268   5.326  0.4970 -0.3041 -1.2812
   91MOL0     H12284  10.464   9.058   4.914 -1.9421  0.9345 -2.5140
   91MOL0     H12285  10.227   9.099   4.952  0.9728  0.2112 -1.0936
   92MOL0     O12286   5.616   0.732   8.356  0.1921 -0.1314  0.5196
   92MOL0     C12287   5.604   0.807   8.263  0.1732  0.2478 -0.0404
   92MOL0     O12288   5.687   0.829   8.159 -0.1022  0.0215 -0.3134
   92MOL0     C12289   5.815   0.783   8.156 -0.2958  1.0841 -1.1584
   92MOL0     C12290   5.889   0.745   8.272 -0.1341 -0.4016  1.0057
   92MOL0     C12291   6.023   0.701   8.252 -0.4240 -0.9150  1.0116
   92MOL0     C12292   6.088   0.704   8.125  0.5725 -0.5609 -0.6205
   92MOL0     O12293   6.212   0.651   8.126 -0.7713 -0.5763  1.1563
   92MOL0     C12294   6.243   0.585   8.001 -0.3029  1.1520  0.1972
   92MOL0     C12295   6.362   0.489   8.017  0.4724  0.2518 -0.2944
   92MOL0     C12296   6.319   0.354   8.092  0.1551  0.0582 -0.2821
   92MOL0     C12297   6.437   0.260   8.122  0.1894  0.0317  0.0826
   92MOL0     C12298   6.523   0.305   8.241  0.0435 -0.5307 -0.3171
   92MOL0     C12299   6.639   0.209   8.249  0.8254 -0.6318 -0.7602
   92MOL0     C12300   6.713   0.230   8.390 -1.9547 -0.2118 -0.3263
   92MOL0     C12301   6.821   0.123   8.413  0.3006 -0.4161 -0.4147
   92MOL0     N12302   6.885   0.148   8.544 -0.4437  0.0047 -0.4578
   92MOL0     C12303   7.012   0.202   8.565 -0.3920 -0.3823  0.3171
   92MOL0     C12304   7.029   0.206   8.702  1.3737  0.2657  0.1229
   92MOL0     C12305   7.140   0.242   8.787 -0.1550  0.1424 -0.2450
   92MOL0     C12306   7.229   0.133   8.864  0.1339  0.6670 -0.1762
   92MOL0     C12307   7.147   0.051   8.962  0.2581  0.1934  0.4397
   92MOL0     C12308   7.088   0.131   9.072 -0.1017 -0.2294  0.0613
   92MOL0     O12309   7.025   0.056   9.170  1.0099 -0.7054 -0.4836
   92MOL0     C12310   7.082   0.015   9.286 -0.6349 -0.0293  0.5594
   92MOL0     C12311   7.003  -0.073   9.356  0.2103 -0.8167  0.8440
   92MOL0     C12312   7.035  -0.120   9.480 -0.7472 -0.3480 -0.2815
   92MOL0     C12313   6.937  -0.206   9.557  0.0322  0.2856 -0.1058
   92MOL0     C12314   7.171  -0.101   9.525  0.6481 -1.1149 -0.4747
   92MOL0     C12315   7.222  -0.160   9.653  0.3989 -0.7603 -0.3460
   92MOL0     O12316   7.150  -0.181   9.769  0.1068  0.0971  0.1671
   92MOL0     C12317   7.199  -0.262   9.868  0.2403  0.0518  0.7257
   92MOL0     C12318   7.201  -0.392   9.847  0.9254  0.4858 -0.5684
   92MOL0     C12319   7.235  -0.479   9.950  0.5402  0.5207 -0.0487
   92MOL0     C12320   7.267  -0.425  10.075 -0.1987  0.7525  0.1081
   92MOL0     O12321   7.298  -0.492  10.191  0.7462 -0.3089  0.5293
   92MOL0     C12322   7.324  -0.626  10.176 -0.1883  0.9122  0.3686
   92MOL0     C12323   7.361  -0.689  10.309 -0.1663 -0.5915  0.0297
   92MOL0     C12324   7.485  -0.621  10.374  0.4586  0.1809  0.9052
   92MOL0     C12325   7.489  -0.623  10.524 -0.4881 -0.2309  0.0221
   92MOL0     C12326   7.609  -0.544  10.580  0.8481  0.4382  0.7528
   92MOL0     C12327   7.589  -0.389  10.589  0.3071  0.0748 -0.2463
   92MOL0     C12328   7.677  -0.319  10.690 -1.0629 -0.2805 -0.0458
   92MOL0     C12329   7.683  -0.160  10.681  0.5841 -0.0014  0.4631
   92MOL0    Cl12330   7.533  -0.076  10.749  0.1025 -0.6599 -0.1942
   92MOL0     C12331   7.263  -0.285  10.089  0.0855 -0.3933  0.2077
   92MOL0     C12332   7.232  -0.197   9.983  1.0596  0.7738  0.1189
   92MOL0     O12333   7.341  -0.198   9.636  0.2644 -0.2648 -0.5480
   92MOL0     C12334   7.259  -0.014   9.451 -0.4466  0.3334 -0.0499
   92MOL0     C12335   7.214   0.043   9.329  0.2896 -0.0527  0.1627
   92MOL0     N12336   6.904   0.169   8.758 -0.2385  0.4539 -0.0605
   92MOL0     N12337   6.826   0.123   8.665 -0.3571  0.1421 -0.7164
   92MOL0     C12338   6.011   0.743   8.015 -0.6504 -0.0089 -0.1997
   92MOL0     C12339   5.876   0.782   8.030  0.0806  0.9083  0.7731
   92MOL0     C12340   5.486   0.884   8.244  0.9644  0.0157 -0.7547
   92MOL0     C12341   5.409   0.934   8.357 -0.6363  0.2650  0.9218
   92MOL0     C12342   5.289   1.004   8.336 -0.0687  0.4152  0.3337
   92MOL0     C12343   5.236   1.025   8.205  0.5782 -0.5525 -1.2786
   92MOL0     O12344   5.119   1.101   8.198 -0.0186  1.3027 -0.7174
   92MOL0     C12345   5.053   1.110   8.072  0.2192 -0.4571  0.8334
   92MOL0     C12346   4.945   1.209   8.098  0.5133 -0.0365 -0.6355
   92MOL0     C12347   4.815   1.157   8.181  0.3949  0.6607 -0.3405
   92MOL0     C12348   4.733   1.260   8.243  0.2907 -0.5324 -0.2021
   92MOL0     C12349   4.716   1.381   8.159  0.4123 -0.0286 -0.6360
   92MOL0     C12350   4.730   1.487   8.094  0.5711  0.4734 -1.1968
   92MOL0     C12351   5.317   0.981   8.093  0.2643 -0.2414 -0.7531
   92MOL0     C12352   5.441   0.916   8.114  0.1680 -0.2625 -0.4098
   92MOL0     H12353   5.853   0.765   8.372 -1.0580  1.8032  0.2956
   92MOL0     H12354   6.088   0.669   8.332 -0.9781 -1.2203  1.3480
   92MOL0     H12355   6.155   0.527   7.972  0.4555  0.1333 -0.1657
   92MOL0     H12356   6.271   0.658   7.925 -0.3304  0.5984 -0.3532
   92MOL0     H12357   6.420   0.467   7.927  0.6396  2.4001 -0.7588
   92MOL0     H12358   6.423   0.546   8.087  1.1600 -0.4807 -0.2782
   92MOL0     H12359   6.270   0.378   8.188  1.6217  0.4341  0.3998
   92MOL0     H12360   6.246   0.303   8.028 -1.6680  0.8071  1.0817
   92MOL0     H12361   6.404   0.158   8.145 -1.5083  0.8812  1.7214
   92MOL0     H12362   6.506   0.255   8.038 -0.8741  0.9068 -0.8683
   92MOL0     H12363   6.565   0.399   8.204  2.4432 -1.2191  0.4881
   92MOL0     H12364   6.482   0.326   8.339 -1.9164 -7.3747  0.8351
   92MOL0     H12365   6.589   0.112   8.247 -2.6041  0.9717 -1.5022
   92MOL0     H12366   6.710   0.215   8.166  2.6010  3.5570  0.7618
   92MOL0     H12367   6.772   0.321   8.401  3.1067 -2.9365 -1.8111
   92MOL0     H12368   6.634   0.234   8.466  1.2316  1.1824  3.1951
   92MOL0     H12369   6.896   0.124   8.333 -1.2355  3.1066 -2.0068
   92MOL0     H12370   6.764   0.030   8.418 -2.4442  1.1811 -0.4472
   92MOL0     H12371   7.081   0.230   8.487 -0.9747  0.9514  0.2564
   92MOL0     H12372   7.211   0.299   8.727 -2.1073  0.9089 -1.9419
   92MOL0     H12373   7.102   0.311   8.864  0.3182 -0.5477  0.6257
   92MOL0     H12374   7.307   0.187   8.920  4.2019 -1.7451 -2.9840
   92MOL0     H12375   7.278   0.074   8.786  2.1200  1.1294  0.6569
   92MOL0     H12376   7.226  -0.011   9.005  0.7259  1.3988  1.3760
   92MOL0     H12377   7.087  -0.011   8.895  1.7979 -0.3453 -0.4799
   92MOL0     H12378   7.008   0.194   9.034 -0.2748 -0.1187  0.6031
   92MOL0     H12379   7.166   0.199   9.109  1.5628  0.1487 -3.6713
   92MOL0     H12380   6.902  -0.088   9.319  0.2884  1.9814 -0.8526
   92MOL0     H12381   6.865  -0.240   9.483  0.9307  1.6509 -1.6775
   92MOL0     H12382   6.989  -0.291   9.603  0.8893 -0.3224 -2.1245
   92MOL0     H12383   6.873  -0.145   9.621 -0.3508 -1.3956  1.1804
   92MOL0     H12384   7.174  -0.428   9.748 -0.4093  3.3991 -1.3774
   92MOL0     H12385   7.221  -0.586   9.942 -0.8414  0.7823 -1.7673
   92MOL0     H12386   7.243  -0.689  10.138  0.5116 -0.7834  1.5214
   92MOL0     H12387   7.412  -0.629  10.112 -0.2647 -1.6714  0.2802
   92MOL0     H12388   7.272  -0.679  10.372 -0.1821 -0.6734  0.0212
   92MOL0     H12389   7.386  -0.795  10.298  2.0020 -0.4422  2.6490
   92MOL0     H12390   7.478  -0.512  10.363  0.8570  0.0353 -1.2291
   92MOL0     H12391   7.575  -0.649  10.320  0.4873 -2.6379  2.2377
   92MOL0     H12392   7.396  -0.578  10.559 -0.6836  1.0971 -2.0765
   92MOL0     H12393   7.498  -0.725  10.563  2.9591  0.8581  2.6579
   92MOL0     H12394   7.695  -0.564  10.515 -0.9972 -0.4156 -1.6086
   92MOL0     H12395   7.623  -0.584  10.680 -4.6008 -0.2377  1.5495
   92MOL0     H12396   7.572  -0.337  10.494 -0.9139 -0.6794 -0.4532
   92MOL0     H12397   7.490  -0.380  10.634 -1.8847  2.8129 -4.8454
   92MOL0     H12398   7.782  -0.350  10.686 -1.6243 -2.3961  0.4964
   92MOL0     H12399   7.633  -0.342  10.787 -1.8964 -1.6443 -0.7243
   92MOL0     H12400   7.698  -0.133  10.576 -0.0869  0.5282  0.5026
   92MOL0     H12401   7.757  -0.124  10.753 -1.0826  1.1189  1.6685
   92MOL0     H12402   7.292  -0.249  10.187  0.4043  2.0096 -0.7104
   92MOL0     H12403   7.231  -0.089   9.987 -0.1543  0.9878 -3.0203
   92MOL0     H12404   7.361   0.005   9.483 -0.1605 -1.7400  0.4191
   92MOL0     H12405   7.272   0.094   9.253 -0.1493 -1.7391 -1.3666
   92MOL0     H12406   6.052   0.719   7.918 -0.2846 -0.1462 -0.0104
   92MOL0     H12407   5.809   0.796   7.945  0.7748 -1.6991 -0.2982
   92MOL0     H12408   5.453   0.920   8.455  0.0748 -0.6929  0.4697
   92MOL0     H12409   5.235   1.040   8.422  1.6504 -1.5033  2.3250
   92MOL0     H12410   5.124   1.149   7.999  1.5187 -0.3052  2.1325
   92MOL0     H12411   5.015   1.015   8.034 -0.1583  0.5035 -1.3358
   92MOL0     H12412   4.906   1.254   8.006 -0.9604  0.4546  0.1937
   92MOL0     H12413   4.987   1.293   8.154  0.3961 -1.7046  2.1536
   92MOL0     H12414   4.858   1.094   8.259  0.8235 -0.5919 -1.5233
   92MOL0     H12415   4.749   1.096   8.118 -0.5564  1.5295 -0.2079
   92MOL0     H12416   4.784   1.278   8.338 -0.5525 -2.1168  0.5910
   92MOL0     H12417   4.629   1.229   8.257 -0.7598  2.2759 -0.9754
   92MOL0     H12418   4.748   1.569   8.028 -3.4448  2.3663 -0.2036
   92MOL0     H12419   5.284   0.996   7.990  0.4038  0.6704 -0.6694
   92MOL0     H12420   5.477   0.852   8.034 -1.8793 -1.8717 -0.1277
   93MOL0     O12421  10.845   1.545   1.498 -0.0752 -0.4781 -0.5504
   93MOL0     C12422  10.843   1.625   1.398 -0.0925  0.3763 -0.0073
   93MOL0     O12423  10.742   1.716   1.374 -0.8742  0.2084 -0.2282
   93MOL0     C12424  10.627   1.695   1.447 -0.4835 -0.0037 -1.2361
   93MOL0     C12425  10.586   1.762   1.566  0.3135 -0.0644  0.0302
   93MOL0     C12426  10.467   1.721   1.634 -0.6902  0.2667 -0.0545
   93MOL0     C12427  10.392   1.617   1.581 -0.1053  0.2503  0.0665
   93MOL0     O12428  10.271   1.575   1.631 -1.0762 -0.3239  0.1404
   93MOL0     C12429  10.220   1.651   1.740 -0.5902 -0.1671  0.3272
   93MOL0     C12430  10.086   1.593   1.782  0.1522 -0.1166 -0.1687
   93MOL0     C12431   9.983   1.610   1.669 -0.3676  0.7124 -0.0843
   93MOL0     C12432   9.838   1.598   1.721  0.4781  0.3190 -0.0882
   93MOL0     C12433   9.797   1.455   1.749  0.4490  0.2242  0.0338
   93MOL0     C12434   9.655   1.447   1.784  0.5211 -0.5140 -0.7248
   93MOL0     C12435   9.618   1.318   1.860 -0.9830 -0.4518 -0.4770
   93MOL0     C12436   9.675   1.189   1.791 -0.3182 -1.0869 -0.7126
   93MOL0     N12437   9.613   1.150   1.670 -0.8942 -0.2798 -0.0522
   93MOL0     C12438   9.568   1.019   1.646 -0.3099 -0.6754  0.0737
   93MOL0     C12439   9.563   0.996   1.516  1.1477 -0.2124 -0.2215
   93MOL0     C12440   9.525   0.864   1.451 -0.4838 -0.3131 -0.3980
   93MOL0     C12441   9.423   0.883   1.343  0.1459  0.8676 -0.3126
   93MOL0     C12442   9.289   0.860   1.404  0.9088 -0.2348 -0.3039
   93MOL0     C12443   9.189   0.882   1.292 -0.5010  0.3589  0.3651
   93MOL0     O12444   9.058   0.868   1.353 -1.2005 -0.1663 -0.0734
   93MOL0     C12445   8.952   0.878   1.273 -0.7600  0.0191  0.1129
   93MOL0     C12446   8.954   0.931   1.145 -0.6867 -0.3355  0.0713
   93MOL0     C12447   8.838   0.958   1.074  0.3087 -0.7011  0.4784
   93MOL0     C12448   8.842   1.003   0.937 -1.3945  0.0910 -0.5720
   93MOL0     C12449   8.717   0.950   1.147 -0.5769  0.2396  0.3246
   93MOL0     C12450   8.588   0.992   1.097  0.2701  0.0249 -0.3936
   93MOL0     O12451   8.576   1.114   1.052 -0.5561 -0.6668  0.1619
   93MOL0     C12452   8.468   1.147   0.984  0.7476  0.5078 -0.6687
   93MOL0     C12453   8.450   1.145   0.847 -0.4041 -0.1791 -0.1649
   93MOL0     C12454   8.327   1.179   0.786  0.0741 -0.0223 -0.1453
   93MOL0     C12455   8.226   1.223   0.871  0.4978 -0.6807  0.0656
   93MOL0     O12456   8.105   1.252   0.807  0.4783  0.7332  0.2742
   93MOL0     C12457   7.987   1.295   0.877 -0.0929 -0.2543  0.9911
   93MOL0     C12458   7.869   1.316   0.788 -0.3703  0.6198  0.9750
   93MOL0     C12459   7.892   1.410   0.662  0.0895 -0.8900 -0.1473
   93MOL0     C12460   7.963   1.547   0.695  0.3448  0.1928 -0.7055
   93MOL0     C12461   7.976   1.624   0.558  0.1368 -1.0916  0.1941
   93MOL0     C12462   8.051   1.764   0.570  0.0981  0.4247 -0.4809
   93MOL0     C12463   8.198   1.750   0.609  1.1351  0.1206 -0.0377
   93MOL0     C12464   8.264   1.890   0.622  0.1658 -0.5131 -1.1512
   93MOL0    Cl12465   8.400   1.878   0.751 -0.2076  0.0876  0.1779
   93MOL0     C12466   8.240   1.245   1.006 -0.6143  0.6433  0.2760
   93MOL0     C12467   8.363   1.210   1.060 -0.6327 -0.0064  0.5705
   93MOL0     O12468   8.500   0.907   1.097 -0.3361  0.1513 -0.2021
   93MOL0     C12469   8.712   0.896   1.275  0.4561  0.6693 -0.8258
   93MOL0     C12470   8.831   0.857   1.337 -0.6995 -0.3836 -0.1560
   93MOL0     N12471   9.621   1.104   1.458 -0.3866 -0.3597  0.1407
   93MOL0     N12472   9.637   1.201   1.552 -0.6197 -1.0020  0.2693
   93MOL0     C12473  10.429   1.553   1.464 -0.0845 -0.6492  0.1235
   93MOL0     C12474  10.541   1.596   1.396 -0.1623  0.5173 -0.1337
   93MOL0     C12475  10.965   1.618   1.308 -0.3218  0.1771 -0.1170
   93MOL0     C12476  11.076   1.534   1.332  0.1825  0.5081 -0.4954
   93MOL0     C12477  11.193   1.558   1.272 -0.5119  1.1390 -0.0111
   93MOL0     C12478  11.206   1.654   1.181  0.4147  0.3083  0.4230
   93MOL0     O12479  11.325   1.692   1.140 -0.0461 -0.5978  0.3762
   93MOL0     C12480  11.416   1.730   1.238 -0.9137  0.0964  0.3469
   93MOL0     C12481  11.561   1.711   1.184  0.6119 -0.7769 -0.2478
   93MOL0     C12482  11.581   1.735   1.031  0.7033 -0.3904 -1.0307
   93MOL0     C12483  11.595   1.888   1.015 -0.6009  0.6641  0.0934
   93MOL0     C12484  11.478   1.973   1.044  0.2871 -0.9745  0.1170
   93MOL0     C12485  11.378   2.031   1.070  0.0738  0.3426 -0.3023
   93MOL0     C12486  11.098   1.733   1.141 -0.6388 -0.1635 -0.5332
   93MOL0     C12487  10.974   1.713   1.205 -0.5780 -0.6241  0.6838
   93MOL0     H12488  10.640   1.848   1.602  0.5984  0.2177 -1.0424
   93MOL0     H12489  10.440   1.783   1.719 -3.3757 -0.6094 -0.1820
   93MOL0     H12490  10.286   1.653   1.827  0.0986  3.0260 -0.1570
   93MOL0     H12491  10.212   1.758   1.721 -1.6329 -0.2716  0.1338
   93MOL0     H12492  10.093   1.492   1.823 -1.9502  0.2500  1.2427
   93MOL0     H12493  10.054   1.657   1.865  1.3966 -0.6071  0.7122
   93MOL0     H12494  10.006   1.703   1.616  0.3091  0.0805 -0.9238
   93MOL0     H12495   9.980   1.523   1.604 -0.4732  0.7728 -0.1605
   93MOL0     H12496   9.826   1.669   1.804  0.8437 -1.1559  1.2781
   93MOL0     H12497   9.783   1.623   1.630  2.7647 -0.6267 -1.8309
   93MOL0     H12498   9.809   1.397   1.657  1.8983 -0.6866  0.7719
   93MOL0     H12499   9.868   1.423   1.826  0.5897  3.0243  1.1748
   93MOL0     H12500   9.637   1.529   1.855 -1.6804 -2.4955  1.1351
   93MOL0     H12501   9.594   1.449   1.693 -0.5304 -0.2118 -0.0313
   93MOL0     H12502   9.637   1.322   1.968 -1.9625  0.1933 -0.3112
   93MOL0     H12503   9.510   1.306   1.850 -0.9474 -0.8311 -0.4211
   93MOL0     H12504   9.654   1.107   1.861 -1.6368 -0.0463  0.1637
   93MOL0     H12505   9.784   1.198   1.782  0.0406 -0.9870  2.5104
   93MOL0     H12506   9.545   0.953   1.730 -1.2831  0.8419  1.0416
   93MOL0     H12507   9.615   0.811   1.419 -0.1198  1.7445 -3.1281
   93MOL0     H12508   9.483   0.808   1.535  3.0297  1.3228  2.7581
   93MOL0     H12509   9.439   0.814   1.260 -0.9959 -1.7418  1.4919
   93MOL0     H12510   9.420   0.984   1.302 -2.4543  1.3850  0.9492
   93MOL0     H12511   9.267   0.936   1.480 -2.5886 -0.9900 -0.4116
   93MOL0     H12512   9.280   0.759   1.445 -2.0913 -0.3563 -1.0716
   93MOL0     H12513   9.201   0.813   1.208 -1.2925  0.6970 -0.0385
   93MOL0     H12514   9.207   0.985   1.261 -0.2422  0.5070  0.9931
   93MOL0     H12515   9.047   0.925   1.091 -1.1097 -1.8173 -0.5440
   93MOL0     H12516   8.880   1.105   0.929  0.3684 -0.6603 -5.1531
   93MOL0     H12517   8.917   0.940   0.888  0.2356  2.6923 -1.6299
   93MOL0     H12518   8.746   0.993   0.886 -0.8460 -0.9692 -1.4583
   93MOL0     H12519   8.531   1.112   0.784 -0.2649 -0.0534 -0.0533
   93MOL0     H12520   8.317   1.192   0.679 -2.3230 -2.3472 -0.3057
   93MOL0     H12521   7.975   1.229   0.964  2.9595  0.4467  2.0758
   93MOL0     H12522   7.999   1.396   0.917  1.5473 -0.3977  0.9438
   93MOL0     H12523   7.818   1.226   0.753  0.1466  1.5152 -2.4464
   93MOL0     H12524   7.796   1.374   0.844 -1.1734  1.1659 -0.5784
   93MOL0     H12525   7.805   1.417   0.597  0.8273 -0.0229 -1.0789
   93MOL0     H12526   7.958   1.354   0.594 -1.3634 -1.8439 -0.8310
   93MOL0     H12527   7.901   1.611   0.758  1.2368  0.2699  0.1169
   93MOL0     H12528   8.058   1.529   0.746  0.6299 -2.4024 -1.9927
   93MOL0     H12529   7.877   1.644   0.516  0.3950  1.0739  0.5141
   93MOL0     H12530   8.035   1.564   0.489 -0.5498 -2.2988  0.6257
   93MOL0     H12531   8.035   1.816   0.475 -2.8111 -1.8389 -1.3803
   93MOL0     H12532   8.005   1.830   0.644 -3.4214  0.9100 -2.8456
   93MOL0     H12533   8.258   1.679   0.551  2.1402  1.1823 -0.3251
   93MOL0     H12534   8.201   1.708   0.710 -2.7871  2.6601  1.3989
   93MOL0     H12535   8.191   1.964   0.658  0.9419 -0.9360  1.5055
   93MOL0     H12536   8.297   1.919   0.522 -1.7204  1.7927 -1.2132
   93MOL0     H12537   8.161   1.280   1.072 -1.2068  0.4649 -0.3268
   93MOL0     H12538   8.374   1.211   1.168 -0.2213  0.9283  0.5279
   93MOL0     H12539   8.623   0.875   1.333 -0.0424  1.4472 -1.2823
   93MOL0     H12540   8.834   0.812   1.436  1.9204 -1.8359 -0.8235
   93MOL0     H12541  10.359   1.477   1.431  0.6994 -1.0232 -0.7124
   93MOL0     H12542  10.584   1.553   1.305 -0.9436 -1.2839  0.3033
   93MOL0     H12543  11.077   1.451   1.402  2.7529 -0.0378 -1.0541
   93MOL0     H12544  11.283   1.500   1.290  1.6605  4.2939  0.1471
   93MOL0     H12545  11.406   1.836   1.265  1.2858  0.1444  1.1704
   93MOL0     H12546  11.400   1.688   1.337  1.3572  1.6801  1.4855
   93MOL0     H12547  11.593   1.612   1.217  0.4036 -0.6376  0.3998
   93MOL0     H12548  11.630   1.779   1.237  1.1227 -0.6520 -1.0516
   93MOL0     H12549  11.493   1.705   0.974  1.0148 -0.2705 -1.5825
   93MOL0     H12550  11.672   1.684   1.000  1.7502  2.2003 -2.5905
   93MOL0     H12551  11.628   1.896   0.911  0.2731 -1.2965  0.1639
   93MOL0     H12552  11.675   1.931   1.076 -2.0181  0.5258  2.1375
   93MOL0     H12553  11.292   2.093   1.086  0.7584  3.3652 -5.7404
   93MOL0     H12554  11.123   1.825   1.090  0.9259 -0.0215  0.4198
   93MOL0     H12555  10.893   1.785   1.191  1.7372  2.0251  0.1085
   94MOL0     O12556   8.988   6.812   9.226  0.8032  0.7660  0.0415
   94MOL0     C12557   9.055   6.916   9.220  0.0948 -0.3553  0.3404
   94MOL0     O12558   9.035   7.004   9.112 -0.4273 -0.2598  0.2551
   94MOL0     C12559   8.934   6.976   9.024 -0.4506  0.7562 -0.2962
   94MOL0     C12560   8.958   6.893   8.908  0.2643  0.4823 -0.0359
   94MOL0     C12561   8.862   6.874   8.812  0.2477  0.0481 -0.8609
   94MOL0     C12562   8.752   6.959   8.810 -1.2999 -0.0508  0.2830
   94MOL0     O12563   8.656   6.939   8.716  0.4426  0.7921 -0.4262
   94MOL0     C12564   8.602   7.053   8.652 -0.4822 -0.6153  0.3400
   94MOL0     C12565   8.480   7.031   8.569  0.1306  0.6038 -0.1793
   94MOL0     C12566   8.477   7.125   8.454 -0.8946  0.1344 -0.3693
   94MOL0     C12567   8.573   7.086   8.346 -0.3188 -0.2202  0.0199
   94MOL0     C12568   8.561   7.179   8.229 -0.1058  0.0520  0.4148
   94MOL0     C12569   8.582   7.327   8.247  0.3840  0.0022  0.0996
   94MOL0     C12570   8.595   7.393   8.114 -0.6242  0.3209  0.8991
   94MOL0     C12571   8.625   7.541   8.130  1.0226 -0.3785 -0.1713
   94MOL0     N12572   8.771   7.565   8.143  1.0398 -0.6999 -0.1105
   94MOL0     C12573   8.873   7.589   8.048  1.2832 -0.5590 -0.4275
   94MOL0     C12574   8.990   7.578   8.121  0.0006 -0.6944  1.7144
   94MOL0     C12575   9.128   7.573   8.061 -0.4082 -0.4843  0.3247
   94MOL0     C12576   9.197   7.712   8.059 -1.0019  0.8112  0.4189
   94MOL0     C12577   9.147   7.810   7.951 -0.3290  0.0946 -0.1989
   94MOL0     C12578   9.181   7.766   7.805  0.1395  0.0628 -0.2936
   94MOL0     O12579   9.070   7.689   7.754 -0.2800 -1.2523 -0.4476
   94MOL0     C12580   9.090   7.636   7.629  0.0053  0.0063 -0.4824
   94MOL0     C12581   9.157   7.689   7.519 -0.2441  1.0828 -0.4364
   94MOL0     C12582   9.151   7.632   7.389 -0.7155 -0.0222  0.2518
   94MOL0     C12583   9.210   7.717   7.273 -1.2305  0.0659  0.0673
   94MOL0     C12584   9.078   7.512   7.370 -0.2510  0.0517 -0.8621
   94MOL0     C12585   9.051   7.453   7.239  0.1701  0.1379 -0.0635
   94MOL0     O12586   9.047   7.530   7.121 -0.0524 -0.6718 -0.9221
   94MOL0     C12587   9.060   7.476   7.003  0.7035  1.0783  0.0779
   94MOL0     C12588   9.188   7.481   6.944 -0.8230 -0.3752  0.4866
   94MOL0     C12589   9.198   7.433   6.817  0.5441 -0.2254  0.7377
   94MOL0     C12590   9.086   7.381   6.749 -0.7254  0.3252  0.3689
   94MOL0     O12591   9.112   7.340   6.619 -0.4455 -0.2074 -0.0525
   94MOL0     C12592   9.033   7.231   6.582  1.5228 -0.0853  0.6885
   94MOL0     C12593   9.118   7.143   6.490 -0.1612 -0.0695  0.4482
   94MOL0     C12594   9.067   7.003   6.486  0.1492  0.8415 -0.5353
   94MOL0     C12595   9.092   6.926   6.361 -1.0327  0.4304  0.1198
   94MOL0     C12596   9.050   6.782   6.372 -0.6252 -0.0380 -0.9365
   94MOL0     C12597   9.080   6.710   6.243 -0.5739  0.7229  0.7543
   94MOL0     C12598   9.042   6.565   6.237 -0.1594 -0.8936 -0.3241
   94MOL0     C12599   9.106   6.475   6.336 -0.0480 -0.8141  0.0701
   94MOL0    Cl12600   9.280   6.429   6.293 -0.1656  0.1740  0.1304
   94MOL0     C12601   8.963   7.375   6.818 -1.0253 -0.0369  0.1204
   94MOL0     C12602   8.951   7.413   6.945  0.8815  0.6675 -0.4056
   94MOL0     O12603   9.034   7.327   7.244  0.4736  0.1455  0.2006
   94MOL0     C12604   9.001   7.462   7.477  0.6308 -0.8109  0.6800
   94MOL0     C12605   9.008   7.523   7.602 -0.0345 -0.7720  0.7874
   94MOL0     N12606   8.959   7.560   8.253 -0.2451 -1.0910  0.3738
   94MOL0     N12607   8.831   7.554   8.262 -0.9004  0.5592 -0.5214
   94MOL0     C12608   8.734   7.055   8.915  0.0845  0.2314 -0.7232
   94MOL0     C12609   8.826   7.056   9.017 -0.7857 -0.0797 -0.5546
   94MOL0     C12610   9.166   6.942   9.320  0.4603 -0.4230  0.9699
   94MOL0     C12611   9.258   7.044   9.297  0.5505  0.4982 -0.0308
   94MOL0     C12612   9.371   7.071   9.375  0.0015  0.0801 -0.3508
   94MOL0     C12613   9.393   6.992   9.499  0.7312  0.4389 -1.0848
   94MOL0     O12614   9.483   7.020   9.594 -0.2913  0.0566 -0.5828
   94MOL0     C12615   9.547   7.146   9.581  0.5967 -0.3886 -0.3360
   94MOL0     C12616   9.618   7.184   9.712 -0.0258  0.6448  0.7279
   94MOL0     C12617   9.746   7.100   9.729 -0.4356 -0.6510  0.0065
   94MOL0     C12618   9.860   7.174   9.657  0.3096  0.1644  0.1611
   94MOL0     C12619   9.996   7.110   9.675  1.2302 -1.2632  0.5552
   94MOL0     C12620  10.099   7.059   9.698  0.6454  0.6442 -0.1580
   94MOL0     C12621   9.299   6.893   9.526 -1.4811 -0.2449 -0.0017
   94MOL0     C12622   9.197   6.860   9.432  0.0692 -0.0805 -0.2132
   94MOL0     H12623   9.052   6.839   8.901 -0.4208 -1.3432  2.8248
   94MOL0     H12624   8.862   6.795   8.738  1.1907 -0.7749 -0.0010
   94MOL0     H12625   8.569   7.130   8.723  1.3644  1.1236 -0.5735
   94MOL0     H12626   8.678   7.104   8.591 -0.6048  1.1499  1.5736
   94MOL0     H12627   8.478   6.924   8.546 -1.0379  0.0363  2.2062
   94MOL0     H12628   8.388   7.040   8.628 -1.4342 -0.3911 -2.3193
   94MOL0     H12629   8.373   7.127   8.419 -1.4658  2.4979  1.2342
   94MOL0     H12630   8.496   7.224   8.495 -1.6463 -0.2176  0.8783
   94MOL0     H12631   8.674   7.094   8.386 -0.0803 -2.3308 -0.0149
   94MOL0     H12632   8.563   6.980   8.318 -2.4939 -0.6114  1.9833
   94MOL0     H12633   8.645   7.152   8.165  0.0841  0.9518  0.2624
   94MOL0     H12634   8.463   7.178   8.180  1.6641  2.1726 -3.6279
   94MOL0     H12635   8.499   7.366   8.307  2.0007 -1.5459  3.6443
   94MOL0     H12636   8.665   7.338   8.318  0.4107 -0.4968  0.1503
   94MOL0     H12637   8.672   7.341   8.057 -1.2929 -0.7784  0.9659
   94MOL0     H12638   8.508   7.392   8.048  2.3345 -1.5003 -3.4582
   94MOL0     H12639   8.566   7.583   8.212  0.5139 -1.4605  0.0386
   94MOL0     H12640   8.594   7.593   8.039 -1.6916  1.8087  1.8279
   94MOL0     H12641   8.858   7.599   7.941 -1.8945 -2.0671 -0.2320
   94MOL0     H12642   9.190   7.511   8.127  0.4784 -0.9219 -0.8829
   94MOL0     H12643   9.136   7.529   7.961  3.5437  1.3017 -0.3599
   94MOL0     H12644   9.301   7.698   8.031 -0.6127  0.5766  1.8958
   94MOL0     H12645   9.195   7.750   8.162 -2.2273 -0.9396  1.1049
   94MOL0     H12646   9.199   7.904   7.970  2.3742 -1.1742 -0.8528
   94MOL0     H12647   9.039   7.818   7.966 -0.1694  0.5344  0.8125
   94MOL0     H12648   9.280   7.720   7.805 -0.1196 -0.4989  0.2705
   94MOL0     H12649   9.191   7.857   7.744  0.4123  1.2199  1.3853
   94MOL0     H12650   9.222   7.775   7.532  2.2777 -0.7125 -0.4784
   94MOL0     H12651   9.260   7.646   7.206 -0.4359  0.0023  0.7196
   94MOL0     H12652   9.123   7.764   7.225 -1.7587 -0.9064  0.0493
   94MOL0     H12653   9.276   7.800   7.300  0.2259 -0.6371 -1.1685
   94MOL0     H12654   9.278   7.522   6.988 -0.0516  0.6559 -1.8932
   94MOL0     H12655   9.296   7.424   6.772 -0.0978 -1.8709 -0.4138
   94MOL0     H12656   9.010   7.174   6.672  3.4313  0.0950  1.3351
   94MOL0     H12657   8.934   7.263   6.549  0.0494 -1.4339  3.4398
   94MOL0     H12658   9.133   7.185   6.390 -0.0997  0.9948  0.8908
   94MOL0     H12659   9.224   7.149   6.518  1.1550  0.3659 -3.9041
   94MOL0     H12660   8.960   7.006   6.505  0.7166  2.4640  3.3421
   94MOL0     H12661   9.111   6.942   6.565 -0.3417 -1.8686 -2.2107
   94MOL0     H12662   9.048   6.982   6.278 -1.9737 -0.6837 -0.1575
   94MOL0     H12663   9.200   6.922   6.349 -1.0536  2.5341 -1.4356
   94MOL0     H12664   8.945   6.779   6.403 -0.6776 -0.1692 -1.1259
   94MOL0     H12665   9.107   6.739   6.455  0.3221  3.6833  0.5821
   94MOL0     H12666   9.031   6.755   6.156  1.6471 -2.2602 -2.2731
   94MOL0     H12667   9.189   6.714   6.232 -0.2171  2.7109  3.7608
   94MOL0     H12668   9.055   6.527   6.136  0.5029 -0.8414 -0.2581
   94MOL0     H12669   8.935   6.557   6.261 -0.5626  0.0301 -1.7139
   94MOL0     H12670   9.055   6.378   6.348  1.1704 -1.1883  3.1050
   94MOL0     H12671   9.091   6.521   6.435 -2.9702 -0.9141 -0.2272
   94MOL0     H12672   8.874   7.346   6.762 -0.7754 -0.7843  0.1072
   94MOL0     H12673   8.856   7.403   6.995 -0.3489 -0.8634 -2.8857
   94MOL0     H12674   8.937   7.375   7.475 -0.6283  0.0966  0.2696
   94MOL0     H12675   8.954   7.494   7.691  1.2212  0.6315  2.0703
   94MOL0     H12676   8.648   7.122   8.911 -1.1351 -1.3321 -2.1269
   94MOL0     H12677   8.829   7.128   9.098  0.7421 -0.6532 -0.0711
   94MOL0     H12678   9.239   7.106   9.210  0.8253 -0.4906 -0.8174
   94MOL0     H12679   9.443   7.146   9.345 -0.5263  0.1178 -1.6151
   94MOL0     H12680   9.617   7.141   9.497 -1.0798  0.3623 -1.8291
   94MOL0     H12681   9.486   7.232   9.553  2.1325  0.9110  0.1863
   94MOL0     H12682   9.548   7.165   9.794 -0.0824  0.4302  0.6289
   94MOL0     H12683   9.639   7.291   9.709 -0.9496  0.8503  1.3142
   94MOL0     H12684   9.738   7.003   9.679  3.9129 -0.7889 -0.7959
   94MOL0     H12685   9.758   7.080   9.836  1.6357  0.4151  0.0265
   94MOL0     H12686   9.861   7.282   9.675  1.1176  0.7157 -2.6421
   94MOL0     H12687   9.844   7.175   9.549  0.4217  3.0663  0.0895
   94MOL0     H12688  10.196   7.018   9.720 -0.0968 -1.0142  0.1986
   94MOL0     H12689   9.303   6.825   9.610 -2.9179 -1.5126 -0.9065
   94MOL0     H12690   9.129   6.782   9.463  1.5096 -1.9986 -1.5899
   95MOL0     O12691   9.165   2.146   5.538  0.3644 -0.3388  0.1427
   95MOL0     C12692   9.096   2.192   5.622 -0.1114  0.3932 -0.1015
   95MOL0     O12693   8.963   2.166   5.629 -0.0993 -0.0809  0.3179
   95MOL0     C12694   8.901   2.079   5.544 -1.0373  0.5953 -0.0977
   95MOL0     C12695   8.958   1.955   5.510  0.2369  0.5094 -0.0444
   95MOL0     C12696   8.882   1.853   5.439 -0.6914 -0.1981  0.3851
   95MOL0     C12697   8.752   1.880   5.402  0.3801  0.0100 -0.3138
   95MOL0     O12698   8.686   1.789   5.315 -0.4222  0.6418  0.4785
   95MOL0     C12699   8.762   1.732   5.202  0.4841  0.0899  0.5168
   95MOL0     C12700   8.664   1.675   5.101 -0.3835 -0.0703  0.5952
   95MOL0     C12701   8.645   1.763   4.973 -0.6771 -0.3201 -0.3838
   95MOL0     C12702   8.553   1.693   4.871 -0.3876 -0.1786  0.8348
   95MOL0     C12703   8.559   1.741   4.724  0.4341 -0.5593  0.6302
   95MOL0     C12704   8.476   1.871   4.705 -0.4868  0.1450 -0.1481
   95MOL0     C12705   8.330   1.856   4.718  0.0648 -0.0634 -0.5391
   95MOL0     C12706   8.257   1.816   4.596  0.2186 -0.0798 -0.2740
   95MOL0     N12707   8.271   1.902   4.482  0.1647 -0.3896  0.6152
   95MOL0     C12708   8.237   2.036   4.462 -0.6863  0.0224  1.0543
   95MOL0     C12709   8.254   2.057   4.325  0.5623 -0.2619 -0.7901
   95MOL0     C12710   8.243   2.195   4.265  0.9281 -0.4400 -0.2508
   95MOL0     C12711   8.376   2.268   4.283  0.1916  0.3479 -1.0547
   95MOL0     C12712   8.376   2.353   4.416  0.9216  0.3238 -0.7964
   95MOL0     C12713   8.516   2.403   4.436  0.0842 -0.7134 -1.2827
   95MOL0     O12714   8.505   2.494   4.546  0.2022  0.1260 -0.3825
   95MOL0     C12715   8.624   2.542   4.610  0.9096  0.5165  1.0931
   95MOL0     C12716   8.642   2.532   4.751  0.0609  0.7161 -0.0805
   95MOL0     C12717   8.763   2.553   4.812 -0.8702  0.1758  0.2145
   95MOL0     C12718   8.781   2.524   4.955  0.4805  0.0233 -0.1270
   95MOL0     C12719   8.869   2.595   4.731 -0.2861 -0.0547  0.3896
   95MOL0     C12720   9.005   2.606   4.795  0.0501  0.1987 -0.7450
   95MOL0     O12721   9.054   2.506   4.879  1.0755 -0.5511  0.1222
   95MOL0     C12722   9.182   2.486   4.916 -0.7044  0.1297  0.0085
   95MOL0     C12723   9.209   2.445   5.051  0.2395  0.1354  0.6197
   95MOL0     C12724   9.337   2.434   5.106  0.1473 -0.4207 -0.5010
   95MOL0     C12725   9.453   2.466   5.028 -0.1878  1.1641 -0.7273
   95MOL0     O12726   9.577   2.449   5.074  0.1110 -0.0522 -0.6820
   95MOL0     C12727   9.636   2.336   5.016  0.6701 -0.3893 -0.5748
   95MOL0     C12728   9.785   2.317   5.063  0.6260 -0.4366  0.0365
   95MOL0     C12729   9.859   2.448   5.088 -0.5121 -1.3002  0.3898
   95MOL0     C12730   9.848   2.555   4.971 -0.3860  0.4937  0.7730
   95MOL0     C12731   9.982   2.647   4.953 -1.5308  0.3066 -0.5360
   95MOL0     C12732   9.968   2.755   5.071  0.3037  0.5816  0.1959
   95MOL0     C12733  10.093   2.807   5.122 -0.4843 -0.2542  0.0274
   95MOL0     C12734  10.162   2.701   5.206 -0.3879 -0.2756  0.2112
   95MOL0    Cl12735  10.321   2.752   5.266 -0.2616 -0.2156  0.3469
   95MOL0     C12736   9.430   2.514   4.902 -0.2201  0.0037  1.3134
   95MOL0     C12737   9.301   2.531   4.849 -0.0557 -0.2433  0.1396
   95MOL0     O12738   9.074   2.697   4.759 -0.3349  0.0131 -0.0142
   95MOL0     C12739   8.848   2.631   4.597 -0.3039 -0.5274 -0.5958
   95MOL0     C12740   8.729   2.598   4.538  0.0982 -0.0372 -0.3430
   95MOL0     N12741   8.275   1.936   4.264  0.1430 -0.3236  1.0341
   95MOL0     N12742   8.284   1.848   4.356 -1.3358  0.4212 -0.6086
   95MOL0     C12743   8.695   1.995   5.446  0.1487  0.0336 -0.3288
   95MOL0     C12744   8.769   2.093   5.513 -1.3020 -1.0608 -0.1978
   95MOL0     C12745   9.155   2.277   5.723 -0.2985 -0.0440 -0.2312
   95MOL0     C12746   9.282   2.334   5.699  0.4111  0.7611 -1.2234
   95MOL0     C12747   9.342   2.406   5.805 -0.1518 -0.6662 -1.0967
   95MOL0     C12748   9.271   2.430   5.923 -0.2711 -0.8355  0.6420
   95MOL0     O12749   9.337   2.496   6.023  0.9048  0.6049 -0.1247
   95MOL0     C12750   9.371   2.402   6.126 -0.0973 -0.3589 -0.3456
   95MOL0     C12751   9.500   2.311   6.100  0.8049 -0.4069 -0.3248
   95MOL0     C12752   9.633   2.393   6.093  0.0761 -0.7465 -0.3419
   95MOL0     C12753   9.751   2.300   6.079 -1.0637  0.1697 -0.2648
   95MOL0     C12754   9.774   2.210   6.194  1.1502  1.1126 -1.0163
   95MOL0     C12755   9.787   2.136   6.292 -0.6383 -0.1161  0.1963
   95MOL0     C12756   9.141   2.382   5.933  0.7304 -1.1325 -0.4173
   95MOL0     C12757   9.082   2.304   5.833 -0.0979  0.0153 -0.2994
   95MOL0     H12758   9.054   1.932   5.556 -1.0629 -1.0204  2.0925
   95MOL0     H12759   8.932   1.767   5.397 -0.0668  0.6765 -0.7252
   95MOL0     H12760   8.823   1.812   5.159 -1.6744  0.0569 -3.0842
   95MOL0     H12761   8.826   1.649   5.233 -0.7221 -1.2003 -0.3379
   95MOL0     H12762   8.698   1.577   5.067 -3.0834 -0.4309 -1.3169
   95MOL0     H12763   8.565   1.647   5.138 -1.1151  0.4613 -0.8941
   95MOL0     H12764   8.597   1.855   5.007  0.6447 -0.4506  2.0782
   95MOL0     H12765   8.736   1.788   4.918 -1.3882  0.4599 -1.2412
   95MOL0     H12766   8.593   1.591   4.864 -2.7772 -1.0406 -2.3290
   95MOL0     H12767   8.451   1.676   4.907  0.1562 -2.0859  1.5980
   95MOL0     H12768   8.661   1.764   4.691 -0.6746  2.6388 -0.9907
   95MOL0     H12769   8.520   1.665   4.656 -0.1188  0.8369 -0.6746
   95MOL0     H12770   8.511   1.936   4.786 -0.2454 -2.1420  1.6884
   95MOL0     H12771   8.491   1.917   4.606  0.6176  0.7790  0.2966
   95MOL0     H12772   8.311   1.787   4.801 -2.9840 -0.3353 -1.3777
   95MOL0     H12773   8.289   1.951   4.753  0.6922 -0.6200  1.9176
   95MOL0     H12774   8.152   1.830   4.622  0.9454  2.9716  1.4249
   95MOL0     H12775   8.271   1.710   4.570  1.5094 -0.0859  0.3914
   95MOL0     H12776   8.187   2.100   4.535  0.1270 -0.5216  2.1230
   95MOL0     H12777   8.228   2.181   4.158 -0.2482 -0.5014 -0.0918
   95MOL0     H12778   8.173   2.261   4.317  5.0206  4.1036  0.2413
   95MOL0     H12779   8.386   2.336   4.198  1.7634 -0.8143 -1.8628
   95MOL0     H12780   8.471   2.214   4.290  0.2682  0.6919  0.8305
   95MOL0     H12781   8.345   2.295   4.503  1.3564  0.1942 -0.7268
   95MOL0     H12782   8.311   2.440   4.415 -0.5356 -0.7182 -0.0655
   95MOL0     H12783   8.538   2.447   4.339  2.5280  0.2147 -0.3871
   95MOL0     H12784   8.588   2.324   4.459  0.3737 -1.0628 -3.2001
   95MOL0     H12785   8.548   2.494   4.791 -0.9155 -0.2602 -3.0681
   95MOL0     H12786   8.683   2.528   5.004 -0.3996 -0.2889 -1.7927
   95MOL0     H12787   8.822   2.428   4.986 -1.3330 -0.3219  1.3799
   95MOL0     H12788   8.840   2.604   5.002  0.7447 -0.1012 -0.2488
   95MOL0     H12789   9.123   2.426   5.113 -2.5174  3.5200 -1.7737
   95MOL0     H12790   9.348   2.410   5.211 -0.0050  1.3915 -0.0342
   95MOL0     H12791   9.578   2.247   5.041  2.5270 -1.4307  0.2827
   95MOL0     H12792   9.639   2.347   4.907  1.3077  0.5485 -0.4755
   95MOL0     H12793   9.771   2.269   5.161  0.7551 -0.1648  0.1898
   95MOL0     H12794   9.843   2.248   5.002 -0.8481 -1.7682  0.0739
   95MOL0     H12795   9.960   2.410   5.070 -0.0414  0.7002 -1.8236
   95MOL0     H12796   9.840   2.481   5.190 -2.5555  0.5158 -0.4901
   95MOL0     H12797   9.829   2.506   4.876  3.5974 -0.2879  0.1883
   95MOL0     H12798   9.763   2.624   4.975  0.7601  2.1555 -1.3343
   95MOL0     H12799   9.998   2.694   4.855  1.3587  1.9227  0.5946
   95MOL0     H12800  10.071   2.586   4.969 -1.6271  0.3099  0.0164
   95MOL0     H12801   9.915   2.848   5.053 -1.0621  0.2703  2.3309
   95MOL0     H12802   9.915   2.707   5.154 -0.4227  1.4919  0.2668
   95MOL0     H12803  10.069   2.896   5.181 -0.6114 -0.3068  0.0559
   95MOL0     H12804  10.172   2.827   5.049 -2.0846 -0.4497 -1.8633
   95MOL0     H12805  10.177   2.607   5.151 -0.6319 -0.3598  0.2894
   95MOL0     H12806  10.098   2.671   5.289  0.2633  1.0963  1.2389
   95MOL0     H12807   9.517   2.550   4.848 -1.7739  1.0076 -0.6812
   95MOL0     H12808   9.285   2.579   4.753  1.6146  1.7253  0.7656
   95MOL0     H12809   8.930   2.661   4.533 -1.2568 -0.5784 -1.8722
   95MOL0     H12810   8.720   2.618   4.432  4.2691  0.7466 -0.7224
   95MOL0     H12811   8.594   2.023   5.420  0.3927  2.1963  0.7510
   95MOL0     H12812   8.726   2.187   5.545 -2.8004 -1.7028 -0.2695
   95MOL0     H12813   9.333   2.321   5.605  1.5211 -0.0502 -0.5384
   95MOL0     H12814   9.444   2.443   5.799  0.5262 -2.1460  0.3912
   95MOL0     H12815   9.395   2.452   6.220  1.4259  0.0110 -0.8975
   95MOL0     H12816   9.277   2.353   6.151 -1.5774  2.0164 -0.9248
   95MOL0     H12817   9.493   2.255   6.006 -1.4165  2.2904 -1.9341
   95MOL0     H12818   9.503   2.240   6.183 -1.3483  2.0050  2.0303
   95MOL0     H12819   9.658   2.442   6.188  0.2393 -2.2494  0.4102
   95MOL0     H12820   9.626   2.464   6.009 -1.9481 -1.7254 -1.0551
   95MOL0     H12821   9.837   2.364   6.057 -1.4936  0.8108 -0.0933
   95MOL0     H12822   9.731   2.237   5.992  0.4606  2.3345 -2.3137
   95MOL0     H12823   9.806   2.072   6.376 -0.0849 -1.0348 -0.6088
   95MOL0     H12824   9.087   2.410   6.023  1.5485  2.1427 -0.8130
   95MOL0     H12825   8.984   2.261   5.850  0.1459 -1.3904 -2.1368
   96MOL0     O12826   6.986   7.483  10.154 -0.5887  0.2509 -0.2810
   96MOL0     C12827   6.952   7.504  10.270  0.6313 -0.5817  0.4892
   96MOL0     O12828   6.959   7.625  10.334 -0.1027  0.2484  0.0017
   96MOL0     C12829   7.026   7.736  10.291  0.9951 -1.1097 -0.1463
   96MOL0     C12830   7.136   7.737  10.205 -0.1962  0.1766 -0.3557
   96MOL0     C12831   7.185   7.861  10.151 -0.5280  0.2623 -0.0777
   96MOL0     C12832   7.124   7.984  10.186 -0.1418 -0.9587  0.2609
   96MOL0     O12833   7.177   8.104  10.148 -0.8468  0.7716 -0.1931
   96MOL0     C12834   7.105   8.161  10.046  0.1277 -0.5063  0.7106
   96MOL0     C12835   7.149   8.296   9.989  0.1684 -0.6854 -0.3129
   96MOL0     C12836   7.166   8.398  10.109  0.6471 -0.6983  1.0733
   96MOL0     C12837   7.265   8.517  10.084 -0.0958  0.2568 -0.7354
   96MOL0     C12838   7.210   8.627   9.993 -0.0712 -0.2892 -0.0010
   96MOL0     C12839   7.304   8.750   9.988 -0.0153 -0.0733  0.8201
   96MOL0     C12840   7.250   8.877   9.914 -0.1417 -0.0582  0.1064
   96MOL0     C12841   7.119   8.924   9.983 -0.3996 -0.3402 -0.0822
   96MOL0     N12842   7.083   9.055   9.940 -0.1262 -0.2497  0.0881
   96MOL0     C12843   7.007   9.095   9.833 -0.6320 -0.3917 -1.4032
   96MOL0     C12844   7.020   9.234   9.834  0.1206  0.0343  0.1564
   96MOL0     C12845   6.949   9.302   9.720  0.0748  1.0556 -0.2285
   96MOL0     C12846   6.934   9.453   9.712  0.8561 -0.1049 -0.7490
   96MOL0     C12847   6.811   9.489   9.796 -0.0295 -1.0521 -1.1882
   96MOL0     C12848   6.812   9.633   9.838  0.4725  0.6083  0.0244
   96MOL0     O12849   6.685   9.633   9.908  0.1432 -0.7044  0.8940
   96MOL0     C12850   6.624   9.747   9.948  0.1982  0.3116 -0.7349
   96MOL0     C12851   6.496   9.752  10.009 -0.2028 -0.1754  0.3299
   96MOL0     C12852   6.423   9.869  10.040  0.6687  0.1656 -0.0164
   96MOL0     C12853   6.300   9.842  10.125 -0.0616 -0.9307 -0.4857
   96MOL0     C12854   6.472  10.000  10.000 -0.0324 -0.1654  0.1192
   96MOL0     C12855   6.399  10.130  10.023  0.5075 -0.1791  0.5995
   96MOL0     O12856   6.454  10.237   9.967 -0.0233 -0.6798  0.1777
   96MOL0     C12857   6.379  10.347   9.968  0.4219 -0.8261 -0.2840
   96MOL0     C12858   6.435  10.450  10.043  1.1384 -0.5269  0.3073
   96MOL0     C12859   6.369  10.568  10.070 -0.0500 -0.3782  0.6694
   96MOL0     C12860   6.241  10.595  10.020 -0.5507  0.8330  0.8533
   96MOL0     O12861   6.171  10.714  10.016 -0.4228  0.1591 -0.0083
   96MOL0     C12862   6.244  10.842  10.033  0.4665  0.2927  0.8504
   96MOL0     C12863   6.243  10.904   9.889  0.5289 -1.7315 -0.0479
   96MOL0     C12864   6.386  10.907   9.827 -0.0609 -0.1214 -0.3979
   96MOL0     C12865   6.434  10.783   9.754  0.2479 -0.2319  0.0033
   96MOL0     C12866   6.377  10.772   9.619 -0.2824 -0.5390  0.8345
   96MOL0     C12867   6.422  10.647   9.544 -0.6232 -0.2525  0.6797
   96MOL0     C12868   6.375  10.516   9.614 -0.5014 -0.5179  0.6959
   96MOL0     C12869   6.397  10.391   9.536  0.2031  0.3150  0.8996
   96MOL0    Cl12870   6.286  10.389   9.386 -0.5719 -0.4084 -0.4959
   96MOL0     C12871   6.183  10.488   9.950  0.0597  0.0549 -0.3807
   96MOL0     C12872   6.244  10.372   9.934  0.5543  0.6169  0.6152
   96MOL0     O12873   6.286  10.127  10.075 -0.3793 -0.0801 -0.0451
   96MOL0     C12874   6.593   9.997   9.926  0.4440  0.4283 -0.8535
   96MOL0     C12875   6.662   9.872   9.904 -0.2303 -0.9156  0.0499
   96MOL0     N12876   7.100   9.276   9.940 -0.6284  0.9151 -0.0740
   96MOL0     N12877   7.138   9.163   9.999 -0.1341  0.1547 -0.5534
   96MOL0     C12878   7.014   7.981  10.279 -0.5147 -0.0662  0.0629
   96MOL0     C12879   6.968   7.857  10.328  0.7733  0.4690  0.2084
   96MOL0     C12880   6.873   7.395  10.344 -0.0477 -0.3062 -0.6619
   96MOL0     C12881   6.894   7.267  10.291 -1.0833 -0.1298 -0.0318
   96MOL0     C12882   6.872   7.151  10.370  0.1151 -0.6844  0.3274
   96MOL0     C12883   6.818   7.167  10.497 -0.5524  0.1878 -0.0433
   96MOL0     O12884   6.815   7.054  10.581 -0.0485 -0.2630  0.0885
   96MOL0     C12885   6.782   7.080  10.722 -0.8401  0.8721 -0.8353
   96MOL0     C12886   6.642   7.096  10.767  0.5805  1.4754 -0.5688
   96MOL0     C12887   6.636   7.157  10.904 -0.5442  0.4671 -0.2320
   96MOL0     C12888   6.504   7.195  10.971 -0.4272 -0.8242  0.2741
   96MOL0     C12889   6.416   7.289  10.899  0.3165 -0.4185 -0.0017
   96MOL0     C12890   6.336   7.364  10.846  0.5401 -0.1880 -0.5310
   96MOL0     C12891   6.769   7.304  10.532 -0.9635  0.2895  0.1220
   96MOL0     C12892   6.797   7.412  10.462  0.2683  0.8215 -0.4965
   96MOL0     H12893   7.180   7.641  10.183  3.5301  1.6416  0.0949
   96MOL0     H12894   7.276   7.869  10.092  0.9562 -0.9517  1.9039
   96MOL0     H12895   7.097   8.093   9.960 -1.8737  0.7136 -0.1199
   96MOL0     H12896   7.004   8.168  10.086  0.5670  0.1821  1.7318
   96MOL0     H12897   7.244   8.274   9.940  0.8750 -0.8317  1.0675
   96MOL0     H12898   7.084   8.337   9.911  1.7885  1.9142 -0.4514
   96MOL0     H12899   7.069   8.438  10.140 -1.6676 -4.6239 -0.4197
   96MOL0     H12900   7.201   8.349  10.201 -1.5116  0.8344  2.8347
   96MOL0     H12901   7.301   8.552  10.182  0.2997 -3.3693  0.5634
   96MOL0     H12902   7.352   8.473  10.035 -0.7933 -1.1324 -0.7482
   96MOL0     H12903   7.192   8.591   9.891  2.3824  1.7357 -1.2825
   96MOL0     H12904   7.110   8.658  10.025 -0.1314  2.4157 -2.3197
   96MOL0     H12905   7.332   8.777  10.090  0.8154  3.6765 -0.2366
   96MOL0     H12906   7.399   8.716   9.946 -0.2435  0.1256  0.1263
   96MOL0     H12907   7.320   8.961   9.913 -0.7866  0.5262  1.5450
   96MOL0     H12908   7.232   8.848   9.810  1.4800 -0.0583 -0.2107
   96MOL0     H12909   7.127   8.925  10.092 -0.2645  0.9780 -0.0888
   96MOL0     H12910   7.041   8.858   9.944 -1.2052  0.3844  0.2758
   96MOL0     H12911   6.949   9.033   9.766  1.0248 -1.3589 -1.9776
   96MOL0     H12912   7.003   9.272   9.630 -0.5150 -2.0549  0.3260
   96MOL0     H12913   6.848   9.259   9.719  1.1794 -1.7774 -0.2621
   96MOL0     H12914   6.904   9.489   9.613 -1.3576  2.6855  0.7806
   96MOL0     H12915   7.027   9.494   9.752  2.7068 -3.4911 -1.2264
   96MOL0     H12916   6.819   9.436   9.891  0.6186  1.0958  0.0245
   96MOL0     H12917   6.717   9.472   9.742 -0.0244 -1.8376 -0.9572
   96MOL0     H12918   6.799   9.696   9.749  1.6466  1.1229  0.1895
   96MOL0     H12919   6.893   9.677   9.896  2.0242 -0.6019 -1.1312
   96MOL0     H12920   6.458   9.654  10.033 -2.0874  0.2587 -0.6985
   96MOL0     H12921   6.212   9.892  10.084 -0.8480 -0.9053  1.1296
   96MOL0     H12922   6.269   9.738  10.140 -2.0864 -0.1561  1.3253
   96MOL0     H12923   6.330   9.890  10.219  2.1222 -1.2639 -0.9630
   96MOL0     H12924   6.535  10.436  10.084  0.7347  1.8842  2.3078
   96MOL0     H12925   6.416  10.639  10.137  1.6525 -1.9891  1.2816
   96MOL0     H12926   6.187  10.904  10.102  0.0522  2.2632 -1.1441
   96MOL0     H12927   6.346  10.831  10.069  1.8314 -3.6846 -3.3043
   96MOL0     H12928   6.181  10.848   9.818  0.3897 -0.6924 -0.7705
   96MOL0     H12929   6.198  11.003   9.895  5.7174  0.9228  1.9261
   96MOL0     H12930   6.463  10.920   9.904  0.9121  0.2386 -1.3997
   96MOL0     H12931   6.382  10.985   9.750  0.2663  0.1528 -0.1404
   96MOL0     H12932   6.543  10.782   9.763  0.3052  1.7881 -0.0363
   96MOL0     H12933   6.405  10.693   9.809  0.9551  0.5311  1.6771
   96MOL0     H12934   6.399  10.857   9.554 -1.8520  0.0955  1.0722
   96MOL0     H12935   6.268  10.782   9.618 -0.0734  3.1665  1.1883
   96MOL0     H12936   6.384  10.654   9.442 -1.6471 -1.0812  0.9854
   96MOL0     H12937   6.531  10.639   9.541 -0.5937  0.4668 -1.2023
   96MOL0     H12938   6.268  10.520   9.634 -1.1969 -2.2072 -2.1730
   96MOL0     H12939   6.431  10.502   9.707 -0.6411  0.0729  0.8761
   96MOL0     H12940   6.365  10.300   9.587 -0.4038 -0.0206 -0.0332
   96MOL0     H12941   6.501  10.380   9.505 -0.0695  0.5336 -0.1667
   96MOL0     H12942   6.084  10.499   9.906 -1.2421 -3.7816  1.1248
   96MOL0     H12943   6.185  10.294   9.888 -0.7101  2.5193 -1.1824
   96MOL0     H12944   6.627  10.094   9.890  0.5123  0.7066 -0.0660
   96MOL0     H12945   6.759   9.878   9.855 -0.1253 -0.7466  0.2754
   96MOL0     H12946   6.970   8.071  10.320 -3.0554 -1.2195  0.0588
   96MOL0     H12947   6.882   7.868  10.393 -0.5452  0.8881 -1.5249
   96MOL0     H12948   6.944   7.250  10.196  1.1825 -2.3542  1.4182
   96MOL0     H12949   6.896   7.051  10.334 -0.1082 -0.9399  0.8727
   96MOL0     H12950   6.831   7.009  10.789  2.3280  3.1584 -0.5109
   96MOL0     H12951   6.834   7.169  10.757 -3.0171  1.0145  2.5201
   96MOL0     H12952   6.590   6.999  10.771  0.1060  1.7800  2.2186
   96MOL0     H12953   6.590   7.161  10.696  0.5188  2.1127  0.0540
   96MOL0     H12954   6.706   7.241  10.902  1.3204 -0.9965  0.5957
   96MOL0     H12955   6.680   7.085  10.974  2.3219  3.2634  1.0958
   96MOL0     H12956   6.534   7.237  11.068  0.0471 -4.5894  1.9328
   96MOL0     H12957   6.449   7.102  10.991 -3.0980  0.6127  0.1441
   96MOL0     H12958   6.274   7.436  10.796 -0.8075  0.0148  1.3219
   96MOL0     H12959   6.709   7.319  10.621  2.2282 -2.4730  3.0140
   96MOL0     H12960   6.764   7.505  10.507 -3.4688 -1.5629  2.2435
   97MOL0     O12961   2.823   2.732   3.730  0.5641 -0.5443  0.4496
   97MOL0     C12962   2.725   2.767   3.794 -0.9826  0.0155 -0.0385
   97MOL0     O12963   2.708   2.889   3.862  0.4077 -0.2827  0.6166
   97MOL0     C12964   2.816   2.963   3.882 -0.6239  0.0007  0.3649
   97MOL0     C12965   2.928   2.931   3.967  0.2348  0.8867  0.2476
   97MOL0     C12966   3.042   3.009   3.980 -0.5973 -0.6106 -0.1380
   97MOL0     C12967   3.039   3.140   3.920 -0.3248  0.4865  0.1920
   97MOL0     O12968   3.147   3.218   3.960 -0.1918 -0.6705  0.1183
   97MOL0     C12969   3.151   3.355   3.918  0.4424 -0.3420 -0.5308
   97MOL0     C12970   3.265   3.429   3.987  0.2991 -0.2216 -0.8305
   97MOL0     C12971   3.396   3.349   3.995  0.9882 -0.2028 -0.5348
   97MOL0     C12972   3.495   3.435   4.071 -0.3214  0.8907 -0.4055
   97MOL0     C12973   3.629   3.360   4.071  0.2239 -0.4608  0.1155
   97MOL0     C12974   3.724   3.438   4.166  0.4591  0.3575 -0.3086
   97MOL0     C12975   3.863   3.382   4.201 -0.2091  0.9288  0.6359
   97MOL0     C12976   3.953   3.485   4.244 -0.1431 -0.7408 -0.1871
   97MOL0     N12977   4.082   3.423   4.290 -0.2763 -0.2288  0.4914
   97MOL0     C12978   4.211   3.441   4.226  0.3423 -0.2546  0.8114
   97MOL0     C12979   4.298   3.376   4.312  0.5846  0.9063 -1.1652
   97MOL0     C12980   4.450   3.363   4.296 -0.5835 -0.6144 -0.2667
   97MOL0     C12981   4.503   3.219   4.336  0.9245  0.6031  0.6675
   97MOL0     C12982   4.497   3.196   4.495  0.0003  0.6932  0.6872
   97MOL0     C12983   4.548   3.310   4.577  0.9563 -0.2403 -0.1340
   97MOL0     O12984   4.573   3.272   4.716  0.2989  0.5371  0.3773
   97MOL0     C12985   4.454   3.248   4.783  0.0905 -0.3423 -0.2934
   97MOL0     C12986   4.332   3.325   4.764 -0.5401 -0.2450 -0.5761
   97MOL0     C12987   4.219   3.289   4.834 -0.9098 -0.3008 -0.1634
   97MOL0     C12988   4.106   3.385   4.813  0.4299  0.6448 -0.2792
   97MOL0     C12989   4.212   3.173   4.912  0.7959  0.6970  1.2836
   97MOL0     C12990   4.096   3.124   4.978  0.5430  0.0778 -1.0212
   97MOL0     O12991   4.098   2.994   5.029 -0.1341 -0.6868  1.7360
   97MOL0     C12992   4.006   2.956   5.112  0.0175  0.8901 -0.2664
   97MOL0     C12993   3.972   3.021   5.234  0.1565 -0.1754  0.6775
   97MOL0     C12994   3.871   2.970   5.306  0.1694  0.0113 -0.0419
   97MOL0     C12995   3.800   2.858   5.283 -0.4034  0.2624 -0.9332
   97MOL0     O12996   3.698   2.831   5.357  0.4980  0.7247 -0.3948
   97MOL0     C12997   3.633   2.707   5.342  0.1392  0.4362 -0.7023
   97MOL0     C12998   3.544   2.697   5.468 -0.0942 -0.1306  0.7392
   97MOL0     C12999   3.397   2.678   5.443 -0.0455 -0.5949 -0.8876
   97MOL0     C13000   3.346   2.814   5.421 -0.0228  0.7594  0.3259
   97MOL0     C13001   3.275   2.877   5.542  0.3291  0.1554  0.5734
   97MOL0     C13002   3.223   3.014   5.513 -0.2442 -0.8236 -1.0050
   97MOL0     C13003   3.150   3.078   5.632  0.7961  0.1095 -0.0299
   97MOL0     C13004   3.010   3.013   5.656 -0.8890 -0.7396  0.3023
   97MOL0    Cl13005   2.951   3.065   5.816 -0.2926 -0.1464 -0.1040
   97MOL0     C13006   3.846   2.783   5.175  0.4733 -0.0945 -0.3714
   97MOL0     C13007   3.942   2.832   5.090 -0.6102  0.2085 -0.7476
   97MOL0     O13008   3.998   3.200   5.002  0.3397  0.8398  0.5765
   97MOL0     C13009   4.326   3.088   4.914  0.0792 -0.6103  0.0522
   97MOL0     C13010   4.448   3.126   4.856  0.9018 -0.4813 -0.1137
   97MOL0     N13011   4.220   3.327   4.422  0.4082  0.5211  0.7599
   97MOL0     N13012   4.105   3.364   4.409 -0.0448 -0.1217  0.3700
   97MOL0     C13013   2.917   3.181   3.850 -0.9102  0.2341 -0.5325
   97MOL0     C13014   2.809   3.091   3.832 -0.4806 -0.0376 -0.2891
   97MOL0     C13015   2.606   2.684   3.775  0.0325  0.2189 -0.8076
   97MOL0     C13016   2.484   2.712   3.841 -0.1244  0.1194  0.6533
   97MOL0     C13017   2.371   2.627   3.839 -0.0404  0.8185 -0.1657
   97MOL0     C13018   2.385   2.492   3.787 -0.0289 -0.2517 -0.3712
   97MOL0     O13019   2.279   2.404   3.794 -1.1750 -0.0312  0.6459
   97MOL0     C13020   2.155   2.444   3.857 -0.1352 -0.1711 -0.1936
   97MOL0     C13021   2.064   2.318   3.855 -0.0189  0.2917  0.0930
   97MOL0     C13022   1.983   2.319   3.721 -0.5368 -0.3589 -0.2356
   97MOL0     C13023   1.897   2.192   3.714 -0.3485 -0.8219 -0.0427
   97MOL0     C13024   1.806   2.174   3.830  0.1733  0.2214 -0.3300
   97MOL0     C13025   1.739   2.158   3.934 -1.0439 -0.0080 -0.2394
   97MOL0     C13026   2.500   2.472   3.712  0.0391 -0.8332 -0.2371
   97MOL0     C13027   2.610   2.561   3.705 -0.3890  0.8017 -0.9353
   97MOL0     H13028   2.933   2.841   4.027  0.7897  1.5627  1.2373
   97MOL0     H13029   3.125   2.979   4.042 -0.1741  0.5289 -0.1273
   97MOL0     H13030   3.160   3.348   3.809  0.4089 -2.8427 -0.4304
   97MOL0     H13031   3.059   3.411   3.935  1.5397  1.5293 -0.3965
   97MOL0     H13032   3.287   3.527   3.943 -2.0824  1.5623  1.6703
   97MOL0     H13033   3.227   3.449   4.087  2.6142  0.2569  0.0181
   97MOL0     H13034   3.381   3.260   4.056 -2.0418  0.4087 -0.2553
   97MOL0     H13035   3.416   3.330   3.889  1.8987  0.2283 -0.4532
   97MOL0     H13036   3.494   3.540   4.039  0.2091  1.3756  1.0488
   97MOL0     H13037   3.457   3.438   4.174 -2.8897  0.0518 -1.2616
   97MOL0     H13038   3.620   3.259   4.111 -1.7686 -0.8893 -1.2775
   97MOL0     H13039   3.675   3.350   3.972  0.5504 -1.9369  0.3892
   97MOL0     H13040   3.741   3.541   4.132  1.6461 -0.5922 -2.8000
   97MOL0     H13041   3.661   3.443   4.255 -1.8243  2.4006 -1.8910
   97MOL0     H13042   3.851   3.301   4.273  1.5384 -0.0405 -0.1048
   97MOL0     H13043   3.892   3.335   4.106  0.0057 -0.5229  1.3926
   97MOL0     H13044   3.901   3.544   4.320 -0.8248 -0.2871 -0.9903
   97MOL0     H13045   3.976   3.552   4.160  1.3889  1.1130  1.5928
   97MOL0     H13046   4.237   3.486   4.131  1.2372 -2.1037  0.1380
   97MOL0     H13047   4.475   3.372   4.190  1.9247  0.3846  0.3364
   97MOL0     H13048   4.511   3.438   4.347  1.4848  0.0858 -3.5079
   97MOL0     H13049   4.594   3.193   4.282 -1.5519 -3.0506 -2.2310
   97MOL0     H13050   4.425   3.152   4.299  0.4919  1.4059  0.0860
   97MOL0     H13051   4.566   3.112   4.510 -0.0677  0.4299 -0.3610
   97MOL0     H13052   4.391   3.178   4.516  0.2982 -0.1576  1.5210
   97MOL0     H13053   4.479   3.395   4.570  4.0683  2.3737 -1.6351
   97MOL0     H13054   4.634   3.353   4.526 -0.9443  2.0883 -1.6284
   97MOL0     H13055   4.337   3.421   4.715  1.0215  0.0513  0.1046
   97MOL0     H13056   4.094   3.431   4.714  0.6331 -0.7494 -0.9854
   97MOL0     H13057   4.008   3.340   4.831  0.7012 -0.1915 -0.8335
   97MOL0     H13058   4.112   3.472   4.879  2.2441  1.9620 -2.0469
   97MOL0     H13059   4.018   3.116   5.258 -1.2524  0.0602  2.7189
   97MOL0     H13060   3.828   3.024   5.390  2.5779 -0.7802  1.8076
   97MOL0     H13061   3.558   2.707   5.262 -1.8593  3.2403  0.9966
   97MOL0     H13062   3.699   2.620   5.344  1.5206  1.4340  2.2669
   97MOL0     H13063   3.581   2.615   5.530  3.1178  1.4041  1.1096
   97MOL0     H13064   3.556   2.790   5.526 -0.6716  2.2124 -2.6005
   97MOL0     H13065   3.345   2.633   5.527 -1.4119  1.0108 -0.8157
   97MOL0     H13066   3.379   2.618   5.353 -2.5598 -1.3286  0.0258
   97MOL0     H13067   3.422   2.880   5.379  2.1593 -2.1423 -0.5834
   97MOL0     H13068   3.278   2.795   5.337  0.0815 -0.1863  0.4413
   97MOL0     H13069   3.343   2.879   5.627  0.4963  3.3652  0.4563
   97MOL0     H13070   3.196   2.805   5.565  1.5059 -1.7534 -0.9890
   97MOL0     H13071   3.306   3.079   5.483 -0.5243  0.8061  1.3869
   97MOL0     H13072   3.151   3.007   5.431 -3.6378 -1.2851  1.7642
   97MOL0     H13073   3.127   3.184   5.616  0.2847 -0.3104 -2.3380
   97MOL0     H13074   3.206   3.067   5.725 -0.3634  0.4102  0.7347
   97MOL0     H13075   3.016   2.904   5.648  2.7584 -0.5722 -1.8226
   97MOL0     H13076   2.945   3.052   5.577 -1.1602  0.4357  1.0826
   97MOL0     H13077   3.793   2.694   5.144 -2.2149  1.5140 -0.7429
   97MOL0     H13078   3.977   2.778   5.003  0.2184  1.1545 -1.0305
   97MOL0     H13079   4.315   2.989   4.955  0.9260 -0.2591  1.1710
   97MOL0     H13080   4.524   3.051   4.841  1.5913  0.3885 -1.1745
   97MOL0     H13081   2.894   3.280   3.813 -1.2927  0.2822 -0.1780
   97MOL0     H13082   2.722   3.124   3.776  0.8149 -1.8752 -3.6639
   97MOL0     H13083   2.463   2.813   3.875 -1.0840 -0.1711  0.9694
   97MOL0     H13084   2.282   2.665   3.888 -2.2237 -1.3646 -2.1024
   97MOL0     H13085   2.167   2.472   3.962  1.4801  0.5873 -0.5488
   97MOL0     H13086   2.105   2.531   3.814 -1.7002 -0.7893  0.3090
   97MOL0     H13087   1.994   2.318   3.939 -2.2808 -1.5790 -1.6406
   97MOL0     H13088   2.124   2.228   3.872 -1.1073  0.0989  3.7961
   97MOL0     H13089   2.050   2.321   3.635  0.5410 -1.9916  0.4921
   97MOL0     H13090   1.921   2.409   3.721 -1.5548 -1.0376 -0.9020
   97MOL0     H13091   1.965   2.107   3.705  0.9487  0.3796 -2.3813
   97MOL0     H13092   1.837   2.196   3.623  0.5422  2.5327 -0.6088
   97MOL0     H13093   1.689   2.158   4.029  0.9180  1.0426  0.8668
   97MOL0     H13094   2.488   2.375   3.665  0.4503  0.1275 -2.4419
   97MOL0     H13095   2.704   2.529   3.662  1.1567  0.7059  2.2340
   98MOL0     O13096   1.836   3.774   5.316 -0.5985 -0.4199 -0.1959
   98MOL0     C13097   1.738   3.765   5.241  0.0963  0.0488  0.3857
   98MOL0     O13098   1.638   3.675   5.259 -0.2624 -1.1672 -1.1668
   98MOL0     C13099   1.628   3.602   5.386 -0.1319  0.8606  1.0772
   98MOL0     C13100   1.554   3.496   5.376  0.3084  0.1213  0.7619
   98MOL0     C13101   1.540   3.404   5.481  0.6745  0.2865  0.7978
   98MOL0     C13102   1.612   3.424   5.598 -0.0630  0.3590  0.0385
   98MOL0     O13103   1.615   3.347   5.714 -0.0187 -0.5391 -0.0495
   98MOL0     C13104   1.592   3.207   5.691 -0.5261 -0.0853  0.2490
   98MOL0     C13105   1.598   3.131   5.826  0.1542 -0.1418 -0.3632
   98MOL0     C13106   1.731   3.159   5.904  0.0640  0.3096  0.6655
   98MOL0     C13107   1.737   3.104   6.048  1.2603  0.4549  0.5394
   98MOL0     C13108   1.870   3.126   6.114 -1.5651 -0.3764  0.0836
   98MOL0     C13109   1.971   3.022   6.065  0.4258  0.1871 -0.1916
   98MOL0     C13110   2.102   3.042   6.135  0.9123 -0.2696 -0.8345
   98MOL0     C13111   2.220   2.956   6.081 -1.3498  1.2154 -0.5971
   98MOL0     N13112   2.226   2.807   6.111  0.5955 -0.0208 -0.6187
   98MOL0     C13113   2.335   2.749   6.182  0.2091 -0.4734  0.4048
   98MOL0     C13114   2.298   2.623   6.197  0.0473  1.2863 -0.4293
   98MOL0     C13115   2.374   2.538   6.296 -0.3662  0.9617 -0.3561
   98MOL0     C13116   2.365   2.593   6.441  0.2384 -0.2887  0.2708
   98MOL0     C13117   2.432   2.502   6.545 -0.4626 -0.9673  0.8174
   98MOL0     C13118   2.405   2.558   6.694  0.1645  0.3463  0.4968
   98MOL0     O13119   2.442   2.459   6.803  0.2199 -0.3748  0.8127
   98MOL0     C13120   2.576   2.420   6.822  1.4879 -0.1893 -0.8163
   98MOL0     C13121   2.596   2.318   6.917  0.2515 -0.6382 -0.0884
   98MOL0     C13122   2.724   2.269   6.948 -0.4178 -0.2361  0.4540
   98MOL0     C13123   2.737   2.137   7.037 -0.3009 -0.2591  0.2508
   98MOL0     C13124   2.840   2.334   6.893  0.3814  0.4394 -0.1015
   98MOL0     C13125   2.977   2.297   6.917 -0.1832 -0.8162  0.1977
   98MOL0     O13126   3.073   2.382   6.860 -0.5208 -0.1552 -0.5608
   98MOL0     C13127   3.208   2.384   6.895 -0.3285  0.7234  0.1439
   98MOL0     C13128   3.287   2.436   6.800  0.0922  0.6111 -0.5000
   98MOL0     C13129   3.427   2.430   6.818  0.1139  0.6333  0.8438
   98MOL0     C13130   3.495   2.376   6.936  0.9447  0.4908  0.6461
   98MOL0     O13131   3.637   2.367   6.950 -0.1465 -0.1035  0.0274
   98MOL0     C13132   3.722   2.467   6.892 -0.2115  0.6368 -0.0097
   98MOL0     C13133   3.864   2.437   6.937  0.7299  0.0294 -0.4181
   98MOL0     C13134   3.976   2.539   6.887 -0.4235 -0.5335  0.0203
   98MOL0     C13135   4.116   2.494   6.927 -0.1873 -0.6148 -0.4447
   98MOL0     C13136   4.232   2.579   6.873 -1.1999  0.4637  0.6048
   98MOL0     C13137   4.376   2.511   6.899 -0.2731  0.3980 -1.0106
   98MOL0     C13138   4.424   2.406   6.798  0.1559  0.6161  0.7235
   98MOL0     C13139   4.515   2.300   6.861 -0.3825  0.4068  0.9224
   98MOL0    Cl13140   4.597   2.204   6.736 -0.3623  0.4133 -0.2346
   98MOL0     C13141   3.409   2.331   7.031  0.5002  0.5276  0.1840
   98MOL0     C13142   3.269   2.328   7.009 -0.3565  0.3698 -0.3192
   98MOL0     O13143   2.998   2.199   6.984  0.1264 -0.5193 -0.3658
   98MOL0     C13144   2.812   2.443   6.810 -1.4174  0.8712  0.9144
   98MOL0     C13145   2.684   2.479   6.765  0.2515  0.5922 -0.5427
   98MOL0     N13146   2.168   2.608   6.160  0.5277  0.0272 -0.2306
   98MOL0     N13147   2.121   2.722   6.113  0.0907 -0.3938 -0.7696
   98MOL0     C13148   1.691   3.531   5.601  0.2460  0.1824 -0.3666
   98MOL0     C13149   1.693   3.626   5.502 -0.6204 -0.2291 -0.4049
   98MOL0     C13150   1.729   3.856   5.128  0.1495 -0.6360  0.0399
   98MOL0     C13151   1.850   3.916   5.076 -0.4336  0.0272 -0.1060
   98MOL0     C13152   1.853   4.007   4.968  0.5324  0.8847 -0.4298
   98MOL0     C13153   1.732   4.018   4.888 -0.1683  0.1955  0.4967
   98MOL0     O13154   1.738   4.104   4.777  0.0430  0.1286  0.7876
   98MOL0     C13155   1.650   4.067   4.671 -0.6502  0.2625 -0.4781
   98MOL0     C13156   1.661   4.161   4.554  0.5902  0.5229  0.2672
   98MOL0     C13157   1.600   4.296   4.595  0.7883 -2.0775  0.7463
   98MOL0     C13158   1.529   4.365   4.471 -0.3737 -0.4626 -0.4326
   98MOL0     C13159   1.641   4.429   4.385  0.5195 -0.4546  0.1900
   98MOL0     C13160   1.721   4.484   4.316  0.2745  0.3750 -0.6346
   98MOL0     C13161   1.624   3.930   4.924  0.1389  0.0682  0.7104
   98MOL0     C13162   1.619   3.856   5.038 -0.1175 -0.0270  0.4570
   98MOL0     H13163   1.517   3.477   5.275  0.5790 -2.3382  1.0703
   98MOL0     H13164   1.472   3.321   5.466 -0.1837  1.3007 -1.3824
   98MOL0     H13165   1.493   3.196   5.647 -0.9500 -0.0902  1.1830
   98MOL0     H13166   1.667   3.169   5.621  0.0421  0.1509  0.7213
   98MOL0     H13167   1.513   3.156   5.891 -0.2569 -3.3881  0.5292
   98MOL0     H13168   1.585   3.023   5.820  0.0085 -0.0830 -1.2372
   98MOL0     H13169   1.816   3.111   5.854 -2.9373 -2.1013 -2.5766
   98MOL0     H13170   1.762   3.264   5.905  3.4271 -0.5657  0.4807
   98MOL0     H13171   1.661   3.146   6.114 -0.6436 -0.7682 -0.7690
   98MOL0     H13172   1.715   2.998   6.056  2.7387  0.1249  0.6509
   98MOL0     H13173   1.899   3.231   6.113 -2.3500 -0.1553 -0.5311
   98MOL0     H13174   1.858   3.096   6.219  4.5267 -1.4688  0.8315
   98MOL0     H13175   1.930   2.921   6.069 -2.1840  1.1965  0.3705
   98MOL0     H13176   1.981   3.032   5.956 -1.2673 -0.0708 -0.3991
   98MOL0     H13177   2.129   3.148   6.136 -0.8239  0.2759  2.5206
   98MOL0     H13178   2.091   3.024   6.243 -2.1467 -0.4105 -1.0831
   98MOL0     H13179   2.315   2.998   6.117 -0.9403  1.6848 -2.1791
   98MOL0     H13180   2.210   2.969   5.973 -2.7250  1.3233 -0.4739
   98MOL0     H13181   2.431   2.792   6.207  0.8468  0.2445 -2.8096
   98MOL0     H13182   2.326   2.441   6.309  0.4696  0.2155 -2.4030
   98MOL0     H13183   2.480   2.535   6.271  1.0267  0.3131  4.4375
   98MOL0     H13184   2.259   2.618   6.459  0.0848 -2.2262  2.4515
   98MOL0     H13185   2.421   2.687   6.446 -0.4184  0.0785  0.9482
   98MOL0     H13186   2.538   2.486   6.522 -0.3916 -0.4388  0.7674
   98MOL0     H13187   2.378   2.409   6.524 -2.5651  0.4778 -0.5539
   98MOL0     H13188   2.301   2.592   6.701 -0.1403  0.4267 -2.8620
   98MOL0     H13189   2.467   2.646   6.714  0.2396 -0.3385  3.9036
   98MOL0     H13190   2.500   2.271   6.940 -0.1380  0.5231  0.7382
   98MOL0     H13191   2.768   2.056   6.972 -2.6983  0.9373 -2.6064
   98MOL0     H13192   2.796   2.149   7.128  0.2926 -1.4733  0.0325
   98MOL0     H13193   2.639   2.112   7.081 -0.6215 -3.3381 -1.9461
   98MOL0     H13194   3.247   2.464   6.703 -2.3002  0.7909  0.4874
   98MOL0     H13195   3.494   2.463   6.739  1.7819  0.2040  2.0319
   98MOL0     H13196   3.723   2.464   6.783 -1.3678  0.1222 -0.0209
   98MOL0     H13197   3.694   2.568   6.925  1.3477  0.9347  0.4896
   98MOL0     H13198   3.863   2.455   7.045  0.5581 -0.2113 -0.3779
   98MOL0     H13199   3.896   2.335   6.913 -1.8698 -0.7565 -0.8882
   98MOL0     H13200   3.964   2.639   6.931  1.1229  0.5662 -1.9338
   98MOL0     H13201   3.970   2.553   6.779 -1.0126  0.9349  0.2102
   98MOL0     H13202   4.125   2.495   7.036 -3.4915  0.3402 -0.0465
   98MOL0     H13203   4.126   2.389   6.899  0.2807  0.0290 -2.8723
   98MOL0     H13204   4.243   2.681   6.912  0.4935  1.0117 -1.1109
   98MOL0     H13205   4.217   2.589   6.765  2.5354  1.6808  0.0530
   98MOL0     H13206   4.461   2.581   6.902  0.4056 -0.3753 -1.8198
   98MOL0     H13207   4.371   2.467   6.999  0.5617  1.3625 -0.5153
   98MOL0     H13208   4.480   2.460   6.722 -0.4445  1.4564  0.8670
   98MOL0     H13209   4.340   2.358   6.747 -0.2844 -1.4012  3.1183
   98MOL0     H13210   4.459   2.234   6.928  0.6019 -0.3175  1.0478
   98MOL0     H13211   4.591   2.354   6.919  0.8011  1.1442 -1.2102
   98MOL0     H13212   3.456   2.284   7.117  0.3495  2.1867  1.2291
   98MOL0     H13213   3.200   2.288   7.082 -0.4518  0.9078 -0.1099
   98MOL0     H13214   2.887   2.507   6.766 -1.8503  1.3844  0.9232
   98MOL0     H13215   2.667   2.560   6.696 -4.2500  0.8491  0.5621
   98MOL0     H13216   1.752   3.551   5.688  1.7559 -1.4913 -0.9703
   98MOL0     H13217   1.745   3.720   5.518 -1.9243  0.7302 -1.5495
   98MOL0     H13218   1.945   3.907   5.129  0.4210  2.7312 -0.9991
   98MOL0     H13219   1.945   4.061   4.947  0.0634  1.5276 -0.8925
   98MOL0     H13220   1.663   3.962   4.642 -2.3014  0.1563 -0.9759
   98MOL0     H13221   1.547   4.071   4.707 -0.1855 -0.0534  0.9323
   98MOL0     H13222   1.617   4.121   4.462  0.3703 -3.2995  1.8736
   98MOL0     H13223   1.765   4.176   4.525 -0.0825  0.2992 -2.5174
   98MOL0     H13224   1.668   4.360   4.651 -4.2122  1.5749  3.4411
   98MOL0     H13225   1.529   4.272   4.674 -0.7024 -0.5995 -0.0903
   98MOL0     H13226   1.466   4.446   4.509 -0.6288 -0.6509 -0.4607
   98MOL0     H13227   1.465   4.294   4.418 -0.9508 -2.1531  2.3353
   98MOL0     H13228   1.802   4.522   4.258 -1.5271  3.1702 -1.5674
   98MOL0     H13229   1.544   3.919   4.852  0.4802 -0.4033  0.4016
   98MOL0     H13230   1.529   3.799   5.061  0.2046 -1.1326 -0.9249
   99MOL0     O13231   5.722  10.185  10.499  0.6263  0.6774  0.4391
   99MOL0     C13232   5.688  10.089  10.427 -0.6158  0.5319 -0.2931
   99MOL0     O13233   5.627   9.971  10.467  0.9972 -0.4429 -0.2330
   99MOL0     C13234   5.595   9.974  10.607 -0.0530  1.2672  0.5234
   99MOL0     C13235   5.667   9.877  10.686 -0.1441 -0.3364 -0.5691
   99MOL0     C13236   5.651   9.874  10.825 -0.6456  0.6393  0.2932
   99MOL0     C13237   5.555   9.957  10.889  0.3035  1.8802 -0.4864
   99MOL0     O13238   5.521   9.966  11.021 -0.8599 -0.3459  0.0752
   99MOL0     C13239   5.599   9.893  11.108  0.4157  0.0199  0.6166
   99MOL0     C13240   5.544   9.909  11.245  0.0394 -0.9297  0.6384
   99MOL0     C13241   5.632   9.825  11.341  0.2997  0.5661 -0.4862
   99MOL0     C13242   5.590   9.881  11.479 -0.5107 -0.0344  0.3615
   99MOL0     C13243   5.645   9.816  11.604  0.4898  0.0054  0.3408
   99MOL0     C13244   5.572   9.687  11.630 -0.5825  0.7772  0.4376
   99MOL0     C13245   5.598   9.618  11.765  0.6584  0.0101  0.5971
   99MOL0     C13246   5.704   9.510  11.765  0.1339  0.5668 -0.8192
   99MOL0     N13247   5.708   9.443  11.890  0.3153  0.4814  0.6805
   99MOL0     C13248   5.611   9.360  11.938  1.0926  0.1950  0.1483
   99MOL0     C13249   5.645   9.310  12.057 -0.5800  0.3148  0.3969
   99MOL0     C13250   5.577   9.204  12.142 -0.7747 -0.1200  0.5846
   99MOL0     C13251   5.557   9.067  12.086 -0.4199  0.5496  0.5890
   99MOL0     C13252   5.470   8.969  12.180  0.7630 -0.2322 -0.2179
   99MOL0     C13253   5.323   9.017  12.182  0.4810 -0.5513 -0.0837
   99MOL0     O13254   5.251   8.928  12.277 -0.1411 -0.3218  0.3799
   99MOL0     C13255   5.153   8.979  12.363  0.5992 -0.2830 -0.0573
   99MOL0     C13256   5.169   8.945  12.506  0.1120 -0.1787  1.0210
   99MOL0     C13257   5.087   9.006  12.591  1.3484 -0.4265 -0.1986
   99MOL0     C13258   5.109   8.979  12.740  0.1398 -0.4482  0.2733
   99MOL0     C13259   4.984   9.092  12.543 -0.1627  0.4107  0.2123
   99MOL0     C13260   4.878   9.167  12.626  0.3703 -0.1587 -0.2263
   99MOL0     O13261   4.793   9.247  12.554  0.2343  1.5362 -0.3821
   99MOL0     C13262   4.678   9.262  12.627  0.2396 -0.0609 -0.7012
   99MOL0     C13263   4.560   9.185  12.611  0.3471 -0.5727 -0.3315
   99MOL0     C13264   4.453   9.213  12.697  0.0970  0.4980 -0.3768
   99MOL0     C13265   4.453   9.315  12.785 -1.0470  0.5722 -0.2034
   99MOL0     O13266   4.362   9.337  12.870  0.0124  0.1093 -0.4211
   99MOL0     C13267   4.221   9.306  12.849 -0.2989 -0.0147  0.4608
   99MOL0     C13268   4.143   9.370  12.961 -0.2018  0.5864 -0.6623
   99MOL0     C13269   3.996   9.317  12.961 -0.2195 -1.0920  0.7291
   99MOL0     C13270   3.926   9.320  13.099  1.2280  0.7534  0.1436
   99MOL0     C13271   3.778   9.268  13.078  0.5168  0.2240  0.8142
   99MOL0     C13272   3.755   9.130  13.023 -0.0328  0.0000 -0.1952
   99MOL0     C13273   3.609   9.095  13.014 -0.1610 -0.4354 -0.0455
   99MOL0     C13274   3.574   8.948  12.996 -0.3576  1.2756 -0.3438
   99MOL0    Cl13275   3.548   8.913  12.821  0.2678  0.3963  0.0320
   99MOL0     C13276   4.557   9.397  12.791 -0.8036  0.0064 -0.3592
   99MOL0     C13277   4.676   9.372  12.717 -1.0722 -0.6604  0.8274
   99MOL0     O13278   4.880   9.158  12.749  0.0381 -0.6886  0.1492
   99MOL0     C13279   4.967   9.106  12.405 -0.4437 -0.6085 -1.0367
   99MOL0     C13280   5.055   9.060  12.315 -0.5673  0.6638 -0.1755
   99MOL0     N13281   5.768   9.376  12.078 -0.4720  0.4308 -0.8313
   99MOL0     N13282   5.810   9.452  11.981  0.5209 -0.3493 -0.6137
   99MOL0     C13283   5.482  10.046  10.802 -0.0714  0.1075 -0.7724
   99MOL0     C13284   5.503  10.059  10.672  0.4791  0.3971  0.8597
   99MOL0     C13285   5.716  10.111  10.281 -0.4384  0.7008 -0.0444
   99MOL0     C13286   5.823  10.190  10.231 -1.2424  1.1433  0.1072
   99MOL0     C13287   5.847  10.200  10.094  0.2351 -0.3595  0.3144
   99MOL0     C13288   5.771  10.127  10.003 -0.1364  0.3122 -0.3557
   99MOL0     O13289   5.802  10.123   9.872 -0.4944  0.2395  0.9843
   99MOL0     C13290   5.718  10.204   9.787 -0.3435  0.4156 -0.2927
   99MOL0     C13291   5.761  10.349   9.785  0.2535 -1.1052 -0.2592
   99MOL0     C13292   5.789  10.405   9.646  0.2280 -0.3609 -0.4393
   99MOL0     C13293   5.940  10.402   9.608  0.1960  0.0729 -0.2221
   99MOL0     C13294   5.997  10.263   9.636 -0.2063 -0.4590  0.0395
   99MOL0     C13295   6.038  10.147   9.647  0.5451 -0.1455  0.2342
   99MOL0     C13296   5.654  10.064  10.044 -0.6443 -0.3176  0.2027
   99MOL0     C13297   5.640  10.039  10.192  0.9878 -0.2481  0.7542
   99MOL0     H13298   5.726   9.803  10.632 -2.4616 -3.2732  0.6235
   99MOL0     H13299   5.711   9.807  10.886 -1.4778  1.7634  2.4706
   99MOL0     H13300   5.594   9.786  11.083 -4.2164  0.1785 -0.1432
   99MOL0     H13301   5.699   9.937  11.113  0.0758  1.0400 -0.9371
   99MOL0     H13302   5.561  10.013  11.272 -0.6916  0.6617 -4.0549
   99MOL0     H13303   5.435   9.898  11.247 -0.0002 -1.2665 -1.2121
   99MOL0     H13304   5.605   9.719  11.340 -1.0382  0.8515 -3.2166
   99MOL0     H13305   5.736   9.845  11.314 -0.2672  0.5787 -2.8718
   99MOL0     H13306   5.629   9.983  11.473 -1.0261  0.0902 -1.1330
   99MOL0     H13307   5.482   9.895  11.475 -0.4137  0.4418 -1.7801
   99MOL0     H13308   5.749   9.783  11.598  1.5263  2.8110  1.3288
   99MOL0     H13309   5.624   9.884  11.687  2.1042  0.1760  0.6398
   99MOL0     H13310   5.465   9.702  11.616 -1.4740 -2.4165  2.6611
   99MOL0     H13311   5.601   9.614  11.553  0.9472  1.1584  0.6175
   99MOL0     H13312   5.640   9.690  11.835  1.1471 -1.9189  2.3798
   99MOL0     H13313   5.502   9.576  11.796  0.4160  0.2204  0.1573
   99MOL0     H13314   5.799   9.560  11.743 -0.3360  3.1396  2.2462
   99MOL0     H13315   5.691   9.432  11.689  0.5229  0.1881 -0.4973
   99MOL0     H13316   5.511   9.344  11.898  0.8029  0.5856  0.7016
   99MOL0     H13317   5.634   9.194  12.235 -2.4019  0.2547  1.6465
   99MOL0     H13318   5.478   9.241  12.168 -0.6417  1.4847 -1.0158
   99MOL0     H13319   5.648   9.011  12.062 -1.5876 -1.8361  1.3446
   99MOL0     H13320   5.505   9.081  11.991 -0.8489 -3.8082 -0.0273
   99MOL0     H13321   5.515   8.975  12.280  1.7418  2.3473 -0.7367
   99MOL0     H13322   5.471   8.865  12.147  3.1537  0.2812 -2.0669
   99MOL0     H13323   5.278   9.004  12.083 -0.1796 -2.7767  0.4588
   99MOL0     H13324   5.318   9.116  12.228  0.8406 -0.6329  0.1334
   99MOL0     H13325   5.243   8.877  12.547 -0.5831  0.1160  2.8451
   99MOL0     H13326   5.172   8.890  12.749  1.3218  0.1348 -1.6761
   99MOL0     H13327   5.158   9.059  12.797 -1.7425 -0.4743  2.0229
   99MOL0     H13328   5.015   8.970  12.795  0.8572  3.2012  2.4650
   99MOL0     H13329   4.542   9.101  12.545 -3.1183 -0.6768  0.5642
   99MOL0     H13330   4.361   9.158  12.680  0.1408  1.2477 -3.6498
   99MOL0     H13331   4.169   9.351  12.765  0.2206 -0.7497 -0.2679
   99MOL0     H13332   4.211   9.197  12.849  2.1633 -0.2990  0.7589
   99MOL0     H13333   4.194   9.345  13.054 -0.7827  3.9572  0.7258
   99MOL0     H13334   4.149   9.478  12.978  0.3558 -0.0097  4.2407
   99MOL0     H13335   3.993   9.215  12.923 -2.3519 -0.0181 -2.4275
   99MOL0     H13336   3.944   9.378  12.886 -0.8046  0.0498  2.0115
   99MOL0     H13337   3.979   9.255  13.170  1.4913  0.6920 -0.1047
   99MOL0     H13338   3.933   9.422  13.138 -0.2399  1.5914 -1.6389
   99MOL0     H13339   3.720   9.340  13.019  0.4232 -0.2357  0.3370
   99MOL0     H13340   3.736   9.263  13.179  2.1977 -0.2987  1.5246
   99MOL0     H13341   3.797   9.127  12.922  2.9382 -0.1215  0.9418
   99MOL0     H13342   3.796   9.054  13.090 -2.6241 -1.4565 -0.1645
   99MOL0     H13343   3.557   9.157  12.939  1.0125  1.9442  0.9888
   99MOL0     H13344   3.572   9.120  13.114  1.7849  0.9685  0.3731
   99MOL0     H13345   3.484   8.915  13.050  0.6826 -0.6507  0.2996
   99MOL0     H13346   3.655   8.889  13.038 -2.0774 -0.5228  0.6062
   99MOL0     H13347   4.550   9.469  12.872 -2.5527 -1.1402  0.5742
   99MOL0     H13348   4.750   9.443  12.750 -1.1981 -0.4113  0.5712
   99MOL0     H13349   4.890   9.167  12.357 -0.0248  0.1613 -0.7501
   99MOL0     H13350   5.039   9.072  12.208 -1.9408 -0.2198 -0.1007
   99MOL0     H13351   5.395  10.104  10.832 -1.1379  0.6353 -4.4024
   99MOL0     H13352   5.448  10.120  10.601 -0.4002 -1.4246 -0.0891
   99MOL0     H13353   5.892  10.218  10.310 -0.7997 -0.4947  0.3302
   99MOL0     H13354   5.933  10.247  10.049  1.2666 -0.6981  1.8603
   99MOL0     H13355   5.722  10.171   9.683  2.0587  3.5548 -1.3911
   99MOL0     H13356   5.613  10.190   9.811 -0.2147  1.5768  1.0824
   99MOL0     H13357   5.847  10.365   9.851 -0.6736  1.9952  0.4083
   99MOL0     H13358   5.666  10.386   9.826  1.7568  0.5388  1.9895
   99MOL0     H13359   5.754  10.508   9.652  0.0575 -0.4627  3.8657
   99MOL0     H13360   5.730  10.359   9.567 -0.2693 -0.2537 -0.1347
   99MOL0     H13361   5.979  10.479   9.675 -1.9991  0.5286  0.6096
   99MOL0     H13362   5.964  10.429   9.505  2.4354  0.3210  0.3059
   99MOL0     H13363   6.082  10.052   9.668  2.4181  0.2647 -1.5610
   99MOL0     H13364   5.600  10.008   9.969  4.1944 -1.5766 -2.8169
   99MOL0     H13365   5.574   9.961  10.227  1.8369 -2.8297 -2.8136
  100MOL0     O13366   4.069  10.640   9.492  0.3117 -0.7247 -0.6071
  100MOL0     C13367   4.071  10.719   9.589 -0.8054  0.8992  0.8459
  100MOL0     O13368   4.069  10.678   9.714 -0.1855  0.2916 -0.3624
  100MOL0     C13369   4.048  10.544   9.737 -0.3178  0.4144 -0.5777
  100MOL0     C13370   4.122  10.437   9.684 -0.3495  0.0791  0.4808
  100MOL0     C13371   4.100  10.308   9.722 -0.7412  0.5700 -0.4878
  100MOL0     C13372   4.009  10.279   9.826  0.5949  0.2398 -0.0793
  100MOL0     O13373   3.992  10.154   9.885  0.0925  0.6322 -0.0219
  100MOL0     C13374   4.110  10.121   9.954 -0.2980  0.3026 -0.7322
  100MOL0     C13375   4.096   9.985  10.014  0.1854 -0.4656  0.2393
  100MOL0     C13376   4.114   9.869   9.916  0.0499  0.3484  0.1880
  100MOL0     C13377   4.073   9.735   9.986 -0.4436 -0.6145  0.0372
  100MOL0     C13378   3.922   9.720  10.002  0.9123  0.3517 -0.0909
  100MOL0     C13379   3.868   9.572   9.991  0.3339 -0.6949  0.2806
  100MOL0     C13380   3.717   9.565   9.992  1.2426  1.3136  0.4321
  100MOL0     C13381   3.667   9.601   9.848  0.3002 -0.2596 -0.7125
  100MOL0     N13382   3.674   9.493   9.751 -0.0879 -0.4012 -0.5168
  100MOL0     C13383   3.650   9.360   9.761  0.2935  0.1197 -0.2053
  100MOL0     C13384   3.693   9.307   9.645  0.8871 -0.1589 -0.4816
  100MOL0     C13385   3.689   9.155   9.630  0.7270  0.9332 -0.3180
  100MOL0     C13386   3.773   9.077   9.726  0.3973  0.4094  0.0131
  100MOL0     C13387   3.702   9.019   9.850  0.6292 -0.5975  0.2795
  100MOL0     C13388   3.783   8.932   9.945  0.4782  0.0509 -0.4438
  100MOL0     O13389   3.897   9.000  10.006 -0.3663 -0.0356  0.1567
  100MOL0     C13390   3.973   8.924  10.097 -0.4742  0.2085  0.2628
  100MOL0     C13391   3.931   8.808  10.162 -0.8633 -0.3632  0.7691
  100MOL0     C13392   4.002   8.745  10.272  0.5350 -0.8694  0.2995
  100MOL0     C13393   3.951   8.625  10.330  0.3061  0.3860 -0.7940
  100MOL0     C13394   4.117   8.809  10.318  0.1593 -0.2244  0.0388
  100MOL0     C13395   4.204   8.735  10.421 -0.1936 -0.3515 -0.0463
  100MOL0     O13396   4.235   8.614  10.398  0.5393  0.2233 -0.1054
  100MOL0     C13397   4.314   8.539  10.486 -0.0869 -0.2762 -0.2426
  100MOL0     C13398   4.259   8.461  10.587  0.1377 -0.0792  0.4703
  100MOL0     C13399   4.339   8.388  10.677 -0.5673 -0.1119 -0.9752
  100MOL0     C13400   4.481   8.398  10.664  0.3683  0.2116  0.7533
  100MOL0     O13401   4.567   8.343  10.754  0.3475 -0.0861  0.2624
  100MOL0     C13402   4.707   8.379  10.775 -0.6734 -0.2013  0.3596
  100MOL0     C13403   4.741   8.366  10.931 -0.1797  0.5881  0.3115
  100MOL0     C13404   4.893   8.342  10.956  0.0855  0.1998  0.6734
  100MOL0     C13405   4.931   8.202  10.918  0.3432  0.1842  0.4211
  100MOL0     C13406   5.033   8.158  11.022 -0.2284 -0.0851  0.5339
  100MOL0     C13407   5.069   8.009  11.026  0.4302 -0.6876  0.7034
  100MOL0     C13408   5.172   7.977  11.140  0.1408 -0.1052  0.4673
  100MOL0     C13409   5.196   7.827  11.157  0.2250  0.0072  0.0863
  100MOL0    Cl13410   5.221   7.801  11.335 -0.6680 -0.4971  0.1454
  100MOL0     C13411   4.526   8.484  10.562 -0.1975  1.1097 -0.0248
  100MOL0     C13412   4.447   8.555  10.478  0.7929 -1.3534  0.0758
  100MOL0     O13413   4.255   8.807  10.511  0.1082 -0.2802  0.0941
  100MOL0     C13414   4.158   8.934  10.262 -0.4808  0.7887 -0.3045
  100MOL0     C13415   4.090   8.986  10.147 -0.1411  0.2272 -0.7228
  100MOL0     N13416   3.738   9.409   9.563 -0.2929 -0.2503 -0.2663
  100MOL0     N13417   3.721   9.518   9.629 -0.7411 -0.1612  0.1254
  100MOL0     C13418   3.945  10.383   9.890 -0.0706 -0.6188  0.7291
  100MOL0     C13419   3.958  10.513   9.844 -0.0577  0.8162 -0.0767
  100MOL0     C13420   4.096  10.857   9.550  0.3698  0.2056  0.5333
  100MOL0     C13421   4.123  10.950   9.654 -1.2419  0.4062  1.0670
  100MOL0     C13422   4.153  11.083   9.616 -0.3727 -0.5527  0.1657
  100MOL0     C13423   4.141  11.129   9.481  0.6884  0.3411 -0.0404
  100MOL0     O13424   4.153  11.265   9.462  0.1140  0.3436 -0.1115
  100MOL0     C13425   4.196  11.307   9.331  0.8564 -1.3153 -0.3333
  100MOL0     C13426   4.257  11.447   9.336 -0.1687  0.3315  0.0210
  100MOL0     C13427   4.150  11.547   9.362  0.4848  0.6680 -0.2814
  100MOL0     C13428   4.202  11.688   9.340  0.1100  1.4430 -0.4414
  100MOL0     C13429   4.235  11.721   9.204  0.3447  0.7575  1.2457
  100MOL0     C13430   4.251  11.726   9.084 -0.3320 -0.5153  0.0670
  100MOL0     C13431   4.105  11.039   9.385 -0.5693  0.0035  0.8735
  100MOL0     C13432   4.084  10.898   9.417 -0.2585  0.5957  0.0129
  100MOL0     H13433   4.199  10.464   9.613 -0.1453  2.6589  1.5550
  100MOL0     H13434   4.153  10.227   9.673  1.5318  2.2936 -1.0511
  100MOL0     H13435   4.199  10.121   9.891  0.9453  1.5872  0.9304
  100MOL0     H13436   4.128  10.195  10.033 -1.9534  0.4739 -0.4814
  100MOL0     H13437   4.164   9.976  10.099  0.1496  0.4798  0.3700
  100MOL0     H13438   3.992   9.977  10.047  0.5742  0.9455  1.9579
  100MOL0     H13439   4.053   9.892   9.828 -0.9562  2.5723  1.3922
  100MOL0     H13440   4.218   9.857   9.885  0.0192  0.7147 -0.0679
  100MOL0     H13441   4.108   9.653   9.922  0.5700 -2.7029  3.0867
  100MOL0     H13442   4.124   9.719  10.081  1.8391 -2.6442 -1.4307
  100MOL0     H13443   3.900   9.765  10.099  1.9165  0.9796 -0.1421
  100MOL0     H13444   3.878   9.781   9.923 -0.3757 -0.1008  0.2530
  100MOL0     H13445   3.914   9.531   9.900  1.1875 -1.7374  1.1589
  100MOL0     H13446   3.897   9.522  10.084 -0.4787 -1.8671 -0.0744
  100MOL0     H13447   3.679   9.468  10.025 -2.8694  2.2212 -1.0970
  100MOL0     H13448   3.675   9.629  10.070  0.2978  2.0349 -0.6394
  100MOL0     H13449   3.703   9.690   9.795 -1.0513 -0.4687 -2.0722
  100MOL0     H13450   3.559   9.616   9.858  0.7008  1.3234  2.1711
  100MOL0     H13451   3.605   9.315   9.849  1.7785  3.5823  2.5648
  100MOL0     H13452   3.586   9.121   9.646  0.3322  1.5170 -1.5379
  100MOL0     H13453   3.719   9.130   9.528  2.6542  1.1901  0.1467
  100MOL0     H13454   3.853   9.144   9.758  0.1404  1.1118 -0.7958
  100MOL0     H13455   3.807   8.990   9.669 -2.8459  0.7962 -2.8389
  100MOL0     H13456   3.613   8.962   9.820 -0.9544  0.7634  2.1120
  100MOL0     H13457   3.666   9.104   9.908 -0.1105 -0.4548 -0.3670
  100MOL0     H13458   3.808   8.838   9.895  0.0124 -0.0488 -0.4867
  100MOL0     H13459   3.713   8.916  10.027 -2.3176  0.5194 -2.5975
  100MOL0     H13460   3.840   8.760  10.129 -1.7497  0.6366  1.6782
  100MOL0     H13461   3.842   8.622  10.323  0.1509 -1.5462  1.3233
  100MOL0     H13462   4.004   8.536  10.294  0.3829  1.6634 -4.1851
  100MOL0     H13463   3.943   8.635  10.439 -1.2717 -2.6263 -0.4966
  100MOL0     H13464   4.153   8.441  10.588  0.3972 -2.5160 -2.7017
  100MOL0     H13465   4.290   8.332  10.757 -1.2589  0.3801 -1.0517
  100MOL0     H13466   4.764   8.302  10.722 -0.5599 -0.8235  1.3496
  100MOL0     H13467   4.731   8.479  10.739  1.2392 -0.0176  1.9733
  100MOL0     H13468   4.700   8.452  10.985 -0.4134  1.8921 -1.8494
  100MOL0     H13469   4.683   8.286  10.980 -0.7967  1.6060  1.2869
  100MOL0     H13470   4.920   8.380  11.055 -0.8463  0.4585  0.8322
  100MOL0     H13471   4.949   8.407  10.887  0.2910  0.1665  0.8090
  100MOL0     H13472   4.847   8.134  10.901  1.5679 -1.2981  0.1611
  100MOL0     H13473   4.989   8.200  10.825  0.3722 -3.8826  0.3742
  100MOL0     H13474   4.987   8.173  11.120  0.5186 -1.4974  1.1288
  100MOL0     H13475   5.117   8.228  11.019 -2.3970  3.2984  5.2367
  100MOL0     H13476   4.979   7.949  11.043  2.1687 -3.2801  1.3726
  100MOL0     H13477   5.112   7.977  10.930  1.1490 -0.0062  0.7886
  100MOL0     H13478   5.124   8.009  11.234  1.1915 -2.2580  1.8290
  100MOL0     H13479   5.267   8.031  11.137 -0.4200  1.0720  2.0755
  100MOL0     H13480   5.278   7.787  11.097  0.9220  0.3617  0.7898
  100MOL0     H13481   5.103   7.773  11.136  1.8479 -2.6852 -0.5863
  100MOL0     H13482   4.634   8.479  10.551 -0.2335 -1.2529  0.1286
  100MOL0     H13483   4.483   8.619  10.397 -3.0860  0.4025 -0.4607
  100MOL0     H13484   4.249   8.979  10.300  2.0009 -3.9142  0.0424
  100MOL0     H13485   4.123   9.076  10.096 -0.6955  1.6236  1.2511
  100MOL0     H13486   3.879  10.376   9.976  1.2807  3.2742  2.3173
  100MOL0     H13487   3.917  10.596   9.900 -2.8844 -0.0904 -0.5986
  100MOL0     H13488   4.116  10.919   9.758 -1.3743 -2.6532  0.2439
  100MOL0     H13489   4.192  11.136   9.703  4.1793 -1.9451 -0.7998
  100MOL0     H13490   4.274  11.235   9.305  0.8279 -1.1328 -0.9381
  100MOL0     H13491   4.122  11.294   9.252  3.3580 -4.8273 -2.3622
  100MOL0     H13492   4.296  11.478   9.239 -0.9564  1.7397  0.1325
  100MOL0     H13493   4.334  11.450   9.414 -0.1419  0.7290 -0.0194
  100MOL0     H13494   4.128  11.533   9.468  4.6022 -1.9920  0.4235
  100MOL0     H13495   4.061  11.529   9.300 -0.2335  1.5879  0.4431
  100MOL0     H13496   4.286  11.687   9.410  0.2364 -2.5040 -0.4118
  100MOL0     H13497   4.133  11.757   9.390 -0.9878 -1.0508  1.7465
  100MOL0     H13498   4.283  11.737   8.983 -0.5708  1.2337  0.1472
  100MOL0     H13499   4.078  11.064   9.283  1.7816  0.4836  0.3048
  100MOL0     H13500   4.054  10.820   9.348 -1.4844 -2.7690  4.0171
  101MOL0     O13501   1.759  10.755   8.605  0.6980  0.4648  0.4817
  101MOL0     C13502   1.655  10.815   8.578  0.0687  0.2563 -0.1307
  101MOL0     O13503   1.629  10.897   8.468  0.3738  0.6084  0.4800
  101MOL0     C13504   1.735  10.918   8.389  0.4308 -0.3210  1.0539
  101MOL0     C13505   1.713  10.914   8.250  0.2624 -0.1016  1.1702
  101MOL0     C13506   1.819  10.908   8.156 -0.7739 -0.5089 -0.9215
  101MOL0     C13507   1.943  10.939   8.201  0.7607  0.8997  0.5628
  101MOL0     O13508   2.062  10.948   8.126  0.4054 -0.1191 -0.1614
  101MOL0     C13509   2.068  10.868   8.011  0.2852  0.2757 -0.2968
  101MOL0     C13510   2.216  10.846   7.983  0.3862 -0.4466 -0.6484
  101MOL0     C13511   2.237  10.822   7.834 -0.3672 -0.7307 -0.8276
  101MOL0     C13512   2.386  10.838   7.800  0.4698  0.1611 -0.2584
  101MOL0     C13513   2.406  10.807   7.652 -0.6911 -0.0404  0.3567
  101MOL0     C13514   2.548  10.812   7.591  0.0833  0.5312 -0.8171
  101MOL0     C13515   2.630  10.686   7.607 -0.1357 -0.0158 -1.0241
  101MOL0     C13516   2.567  10.558   7.537 -0.3774 -0.6519 -0.3766
  101MOL0     N13517   2.667  10.448   7.531  0.2925  0.3197 -0.3488
  101MOL0     C13518   2.745  10.401   7.434 -0.7656  0.3418 -1.1223
  101MOL0     C13519   2.814  10.297   7.482 -0.2142  0.0211  0.3938
  101MOL0     C13520   2.939  10.238   7.418 -0.5453  0.7141 -1.1848
  101MOL0     C13521   3.072  10.292   7.482 -1.1259  0.0823  0.2117
  101MOL0     C13522   3.125  10.416   7.408  0.0069  0.0892 -0.3649
  101MOL0     C13523   3.230  10.382   7.304 -0.8116 -0.3850 -0.4143
  101MOL0     O13524   3.341  10.322   7.387  0.4544  0.0961 -0.0313
  101MOL0     C13525   3.469  10.328   7.331  0.0295 -1.0465  0.5038
  101MOL0     C13526   3.517  10.404   7.224  0.3418  0.2561  1.2785
  101MOL0     C13527   3.654  10.403   7.183  0.5829 -0.2409  0.4739
  101MOL0     C13528   3.699  10.485   7.067  0.3728 -0.2706  0.2766
  101MOL0     C13529   3.745  10.314   7.258 -0.2365 -0.1927 -0.7261
  101MOL0     C13530   3.892  10.299   7.228 -0.1703  0.4153  0.4325
  101MOL0     O13531   3.944  10.183   7.253 -0.2144  0.1676  0.1097
  101MOL0     C13532   4.082  10.158   7.253 -0.7628 -0.0618  0.9850
  101MOL0     C13533   4.141  10.063   7.171 -0.0602  0.0530 -0.6732
  101MOL0     C13534   4.275  10.034   7.189  0.5378 -0.1467 -0.2197
  101MOL0     C13535   4.354  10.101   7.290  0.4937 -0.2024 -0.9343
  101MOL0     O13536   4.490  10.079   7.299  0.3335  0.1117  0.2328
  101MOL0     C13537   4.538   9.945   7.294 -0.0722  0.6536 -0.0862
  101MOL0     C13538   4.685   9.934   7.329  0.1996 -0.3825 -0.3443
  101MOL0     C13539   4.720   9.936   7.478  0.6428 -0.3434  0.9371
  101MOL0     C13540   4.744   9.798   7.547  0.1654 -0.3697 -0.1358
  101MOL0     C13541   4.654   9.790   7.680 -0.2365  0.0007  0.6266
  101MOL0     C13542   4.688   9.876   7.799 -0.3978  0.2933 -0.0783
  101MOL0     C13543   4.588   9.872   7.919  0.3201 -0.6480 -1.0201
  101MOL0     C13544   4.590   9.744   8.002  0.1185 -0.1501  0.4339
  101MOL0    Cl13545   4.452   9.739   8.110 -0.4368  0.1834 -0.4436
  101MOL0     C13546   4.294  10.201   7.360 -0.5227 -0.4793 -0.1708
  101MOL0     C13547   4.158  10.228   7.347 -0.6236  0.1690  0.5623
  101MOL0     O13548   3.952  10.393   7.183  0.7126  0.9648 -0.4422
  101MOL0     C13549   3.697  10.238   7.370  0.7603 -0.1809 -0.0829
  101MOL0     C13550   3.563  10.248   7.395  0.8280 -0.1947  0.1497
  101MOL0     N13551   2.769  10.281   7.611 -0.8831 -0.7085  0.3778
  101MOL0     N13552   2.677  10.369   7.633 -0.2044  0.4118  0.6623
  101MOL0     C13553   1.967  10.960   8.339  0.2925  0.1087 -0.1911
  101MOL0     C13554   1.865  10.959   8.433  0.3389  0.5514  0.2961
  101MOL0     C13555   1.543  10.775   8.667 -0.4275  0.9429 -0.3570
  101MOL0     C13556   1.402  10.791   8.627 -0.0743  0.1061 -0.3205
  101MOL0     C13557   1.307  10.766   8.721  0.3075  0.0369  0.0740
  101MOL0     C13558   1.326  10.724   8.847 -0.4675 -0.3651  0.0815
  101MOL0     O13559   1.218  10.715   8.928  0.4766  0.1442  0.1527
  101MOL0     C13560   1.248  10.694   9.066 -0.0814 -0.6786 -0.2750
  101MOL0     C13561   1.120  10.688   9.142 -0.3278  1.0695  0.1219
  101MOL0     C13562   1.029  10.794   9.119  0.3972  0.1904  0.0044
  101MOL0     C13563   0.895  10.789   9.193 -0.0188 -0.8574 -0.7720
  101MOL0     C13564   0.827  10.915   9.153 -0.5626 -0.2936 -0.5189
  101MOL0     C13565   0.765  11.013   9.116 -0.3145  0.3561 -0.1674
  101MOL0     C13566   1.457  10.703   8.888 -0.7704  0.1764  0.0047
  101MOL0     C13567   1.565  10.722   8.795 -0.6527  0.8875  0.2265
  101MOL0     H13568   1.613  10.889   8.214  1.4279 -0.3200 -2.2346
  101MOL0     H13569   1.795  10.898   8.051 -3.8260  0.0312 -0.3679
  101MOL0     H13570   2.026  10.768   8.024 -4.7648  1.8536 -2.0537
  101MOL0     H13571   2.005  10.914   7.934 -2.5783 -2.5109  0.1730
  101MOL0     H13572   2.275  10.932   8.015 -0.3643  1.2719 -3.5302
  101MOL0     H13573   2.261  10.759   8.032  2.5418  2.1025  2.3715
  101MOL0     H13574   2.189  10.728   7.804 -3.0554 -0.3509  1.7686
  101MOL0     H13575   2.187  10.904   7.781 -2.3019 -1.6299 -0.4880
  101MOL0     H13576   2.419  10.940   7.823 -1.0408 -0.1101  3.8168
  101MOL0     H13577   2.443  10.762   7.854  1.3354  2.1068  1.6840
  101MOL0     H13578   2.356  10.715   7.620  0.6019 -0.5807 -0.1563
  101MOL0     H13579   2.344  10.885   7.607 -0.1454 -0.9873 -2.1696
  101MOL0     H13580   2.546  10.820   7.482  0.3078  0.5714 -0.8183
  101MOL0     H13581   2.604  10.899   7.628  0.6216  0.2724 -1.0154
  101MOL0     H13582   2.732  10.712   7.578 -0.9895 -0.3731 -4.9098
  101MOL0     H13583   2.632  10.650   7.710 -2.2507  1.2808 -0.4661
  101MOL0     H13584   2.533  10.587   7.437 -0.7526 -2.4910 -0.8214
  101MOL0     H13585   2.472  10.530   7.584 -0.2065 -0.2101  0.2466
  101MOL0     H13586   2.773  10.454   7.343  2.3980  1.5062  0.3544
  101MOL0     H13587   2.933  10.128   7.415  0.0149  0.5132  2.0681
  101MOL0     H13588   2.935  10.275   7.315 -1.0100  0.5194 -1.2393
  101MOL0     H13589   3.143  10.209   7.480  2.6938  2.9643  2.6567
  101MOL0     H13590   3.053  10.312   7.588  1.8314  0.8537  0.6951
  101MOL0     H13591   3.158  10.476   7.493 -3.8876  1.9924 -0.0032
  101MOL0     H13592   3.033  10.463   7.374 -0.7682  2.0407  3.8623
  101MOL0     H13593   3.257  10.478   7.260  0.1114 -0.1008  0.7452
  101MOL0     H13594   3.193  10.313   7.227  1.0513 -1.6848 -0.2205
  101MOL0     H13595   3.460  10.464   7.154  2.0442  3.7690  2.6480
  101MOL0     H13596   3.783  10.547   7.098  0.1994  0.1234 -0.0298
  101MOL0     H13597   3.732  10.418   6.987  1.5769 -1.1412  1.4547
  101MOL0     H13598   3.616  10.547   7.030  0.4198 -1.2190 -1.5358
  101MOL0     H13599   4.085  10.007   7.097 -0.3402 -1.9095  0.9315
  101MOL0     H13600   4.335   9.971   7.125  1.5948  1.3265 -0.7279
  101MOL0     H13601   4.497   9.872   7.364  0.9027 -0.3283 -0.5027
  101MOL0     H13602   4.520   9.912   7.191  2.4412 -2.1766  0.2384
  101MOL0     H13603   4.732   9.846   7.284 -0.5616 -0.3334 -1.2423
  101MOL0     H13604   4.728  10.021   7.279  1.4071 -2.4063 -3.0781
  101MOL0     H13605   4.642   9.995   7.529 -0.3690  0.0543 -0.9947
  101MOL0     H13606   4.817   9.985   7.479  0.8047 -0.6386 -0.1200
  101MOL0     H13607   4.720   9.726   7.469  0.5062  0.5576 -1.1127
  101MOL0     H13608   4.844   9.769   7.579  0.0049 -0.1706  0.5837
  101MOL0     H13609   4.662   9.688   7.718 -1.3529 -0.1643  0.4230
  101MOL0     H13610   4.550   9.809   7.654 -0.4445 -2.0484 -0.2053
  101MOL0     H13611   4.787   9.847   7.837 -1.6512 -3.1374  0.9228
  101MOL0     H13612   4.698   9.979   7.763 -2.3416 -0.2445 -2.3598
  101MOL0     H13613   4.484   9.887   7.889  0.0012 -3.6229 -1.7351
  101MOL0     H13614   4.608   9.957   7.985  0.3751 -0.8624 -0.7587
  101MOL0     H13615   4.680   9.725   8.060 -0.4180 -0.5746  1.1426
  101MOL0     H13616   4.580   9.662   7.930 -1.4248  1.2766 -1.0860
  101MOL0     H13617   4.347  10.256   7.437 -3.5706  0.5112  1.3776
  101MOL0     H13618   4.111  10.315   7.392 -1.1237  1.3967 -2.1549
  101MOL0     H13619   3.763  10.170   7.422 -0.4096 -1.6334 -0.4370
  101MOL0     H13620   3.526  10.182   7.473 -0.5238  1.8715  1.3378
  101MOL0     H13621   2.071  10.979   8.363  0.3266 -1.0970  0.7122
  101MOL0     H13622   1.890  10.995   8.532  1.6491  2.5089 -0.7048
  101MOL0     H13623   1.370  10.806   8.524  2.0128 -1.4777 -1.2917
  101MOL0     H13624   1.201  10.774   8.697  0.5390  0.7317 -0.7818
  101MOL0     H13625   1.299  10.599   9.082 -0.0644 -0.7188 -0.5629
  101MOL0     H13626   1.316  10.775   9.093  2.2551 -1.9227 -2.0506
  101MOL0     H13627   1.151  10.691   9.246  0.3766 -0.3995 -0.0347
  101MOL0     H13628   1.071  10.593   9.119 -0.1935  1.5955 -2.7856
  101MOL0     H13629   1.006  10.809   9.013 -0.5575 -1.5376 -0.0593
  101MOL0     H13630   1.091  10.877   9.155  1.9030 -1.0618  0.4165
  101MOL0     H13631   0.903  10.792   9.302 -2.2418 -2.1273 -0.5087
  101MOL0     H13632   0.833  10.702   9.169 -0.4415 -1.3934  2.0005
  101MOL0     H13633   0.709  11.098   9.083  0.8529  1.5376  0.7876
  101MOL0     H13634   1.488  10.667   8.985  0.0664 -0.5541 -0.5164
  101MOL0     H13635   1.664  10.701   8.835 -0.8651 -1.8305 -0.4350
  102MOL0     O13636   2.618   8.428   5.301  0.5186 -0.1823 -0.8029
  102MOL0     C13637   2.608   8.422   5.428 -0.7967 -0.0141  0.3904
  102MOL0     O13638   2.492   8.449   5.505 -0.0447  0.5527 -0.6174
  102MOL0     C13639   2.366   8.462   5.444 -0.4141 -0.8697  0.1027
  102MOL0     C13640   2.259   8.434   5.531 -0.0758  0.3854  0.6142
  102MOL0     C13641   2.130   8.448   5.492  0.6468 -0.8225  0.6510
  102MOL0     C13642   2.096   8.478   5.362 -0.0683 -0.4403  0.3310
  102MOL0     O13643   1.959   8.492   5.323  0.1672 -0.7122  0.5551
  102MOL0     C13644   1.903   8.403   5.228  0.3593 -0.2094 -0.0209
  102MOL0     C13645   1.747   8.403   5.228  0.9192  0.0808 -0.4043
  102MOL0     C13646   1.697   8.345   5.363 -0.5440 -0.3020 -0.0059
  102MOL0     C13647   1.547   8.376   5.383 -0.3006 -0.2740  0.5471
  102MOL0     C13648   1.485   8.291   5.486  0.0308  0.1846 -1.0533
  102MOL0     C13649   1.349   8.353   5.527 -1.1357 -0.0311  0.7343
  102MOL0     C13650   1.267   8.273   5.624 -0.2358  0.4593  0.3908
  102MOL0     C13651   1.227   8.136   5.566  0.0311 -0.2094 -0.8134
  102MOL0     N13652   1.114   8.081   5.638  0.3470 -0.0671  0.4853
  102MOL0     C13653   0.988   8.078   5.582  0.1293  0.5587  0.1447
  102MOL0     C13654   0.907   8.016   5.674 -1.0000  0.1952 -0.0233
  102MOL0     C13655   0.752   7.983   5.660  0.3203  0.5620  0.3472
  102MOL0     C13656   0.735   7.829   5.657  0.0969  0.6770  1.0799
  102MOL0     C13657   0.707   7.756   5.788  1.4453 -0.3870 -0.0077
  102MOL0     C13658   0.578   7.794   5.869  0.4413  0.3083  0.4894
  102MOL0     O13659   0.464   7.830   5.780  0.0014 -0.1192 -0.3161
  102MOL0     C13660   0.350   7.865   5.856  0.4258  0.6760 -0.5057
  102MOL0     C13661   0.230   7.867   5.791  0.2665  0.6114 -0.0390
  102MOL0     C13662   0.106   7.880   5.855  0.3079 -0.0317 -0.5890
  102MOL0     C13663  -0.021   7.873   5.778  0.7280 -0.9306 -0.0526
  102MOL0     C13664   0.098   7.895   5.997  0.5302 -0.5749  0.7542
  102MOL0     C13665  -0.028   7.900   6.076 -0.0191 -0.3540 -0.0379
  102MOL0     O13666  -0.143   7.925   6.012  0.0978  0.2190 -0.2760
  102MOL0     C13667  -0.246   7.954   6.098  0.2328 -0.3732 -0.3079
  102MOL0     C13668  -0.356   7.876   6.112  0.7148 -0.1573 -1.1164
  102MOL0     C13669  -0.460   7.916   6.205 -0.2800 -0.4212 -0.0965
  102MOL0     C13670  -0.443   8.032   6.274 -0.6758  0.2216 -0.5759
  102MOL0     O13671  -0.543   8.056   6.365 -0.4474 -0.0994  0.1479
  102MOL0     C13672  -0.594   8.196   6.389 -0.4240 -0.4632 -1.2666
  102MOL0     C13673  -0.628   8.267   6.265 -0.0664  0.5409  0.9073
  102MOL0     C13674  -0.716   8.391   6.306 -0.5539  0.0042  0.4521
  102MOL0     C13675  -0.732   8.488   6.190 -0.5546 -0.6447 -0.1948
  102MOL0     C13676  -0.820   8.602   6.210 -0.4244  0.0431 -0.1926
  102MOL0     C13677  -0.746   8.727   6.249 -0.4368  0.6037 -0.2792
  102MOL0     C13678  -0.844   8.846   6.260 -0.3863 -0.1025  0.0829
  102MOL0     C13679  -0.930   8.881   6.388 -0.1612 -0.2828  0.1489
  102MOL0    Cl13680  -0.970   9.048   6.396  0.3775  0.2075 -0.1434
  102MOL0     C13681  -0.333   8.119   6.254 -0.0762  0.1457  1.2654
  102MOL0     C13682  -0.235   8.071   6.173 -0.3236 -0.0658 -0.2217
  102MOL0     O13683  -0.023   7.876   6.195  0.0682  0.2361 -0.3275
  102MOL0     C13684   0.220   7.904   6.068 -0.0385  0.0962  0.2588
  102MOL0     C13685   0.343   7.889   5.996 -0.7611  0.0145 -0.0590
  102MOL0     N13686   0.992   7.996   5.786 -0.1868 -0.3144 -0.6829
  102MOL0     N13687   1.108   8.023   5.760  0.5464  0.1925  0.0884
  102MOL0     C13688   2.194   8.515   5.273  0.1496  0.2234  0.1023
  102MOL0     C13689   2.331   8.511   5.307  0.0117  0.0536 -0.7592
  102MOL0     C13690   2.724   8.385   5.500  0.2452  0.0446 -0.5177
  102MOL0     C13691   2.716   8.344   5.636 -0.4424 -0.5387  0.0941
  102MOL0     C13692   2.828   8.318   5.719  0.1257  0.5527  0.2425
  102MOL0     C13693   2.950   8.311   5.656 -0.2037 -0.9733 -0.1056
  102MOL0     O13694   3.054   8.276   5.737 -0.0047  0.6456 -0.1301
  102MOL0     C13695   3.181   8.272   5.688  0.5528  0.3484 -0.3961
  102MOL0     C13696   3.264   8.199   5.786 -0.9546  0.0449 -0.7326
  102MOL0     C13697   3.414   8.224   5.777 -0.1017  0.0531 -0.4653
  102MOL0     C13698   3.484   8.168   5.902 -0.3775 -0.2160  0.9329
  102MOL0     C13699   3.507   8.252   6.020 -0.7092 -0.7678 -0.4687
  102MOL0     C13700   3.512   8.335   6.116 -0.7501 -0.4308  0.0328
  102MOL0     C13701   2.966   8.343   5.518  0.7954 -0.6292  0.5481
  102MOL0     C13702   2.854   8.386   5.437 -0.5984  0.7379  0.6243
  102MOL0     H13703   2.274   8.396   5.631 -0.1699 -0.4015  0.3370
  102MOL0     H13704   2.059   8.437   5.574  1.8345 -1.7343  1.6030
  102MOL0     H13705   1.928   8.447   5.131 -0.4953  0.0289 -0.1436
  102MOL0     H13706   1.951   8.305   5.241  0.0014 -0.2794  0.8406
  102MOL0     H13707   1.714   8.505   5.206 -1.8152 -1.1961 -3.1043
  102MOL0     H13708   1.711   8.339   5.147  1.9144  2.3330 -2.7444
  102MOL0     H13709   1.721   8.239   5.353  1.0863  0.1900 -1.8583
  102MOL0     H13710   1.747   8.391   5.449  2.5500 -4.6954  0.9063
  102MOL0     H13711   1.536   8.481   5.413  2.2400  0.9681 -2.2938
  102MOL0     H13712   1.495   8.353   5.289  1.7164  2.8974 -1.5777
  102MOL0     H13713   1.488   8.185   5.460  1.0976 -0.2962  0.7906
  102MOL0     H13714   1.561   8.298   5.565 -2.1277  3.9846  0.9811
  102MOL0     H13715   1.362   8.448   5.579  0.0006  0.3627 -0.2004
  102MOL0     H13716   1.296   8.366   5.432  1.5071 -2.2874 -1.2215
  102MOL0     H13717   1.326   8.256   5.715 -0.9472  5.3662  2.0299
  102MOL0     H13718   1.178   8.327   5.655  0.3933  2.8743 -1.7068
  102MOL0     H13719   1.318   8.075   5.566  1.0128  1.1775 -1.6688
  102MOL0     H13720   1.196   8.154   5.463 -3.2167  1.5433  0.3438
  102MOL0     H13721   0.964   8.109   5.481 -1.6995  0.5867  0.5470
  102MOL0     H13722   0.699   8.016   5.750  1.6838  0.4421  1.2129
  102MOL0     H13723   0.717   8.027   5.566  1.1242 -0.2348 -0.3429
  102MOL0     H13724   0.833   7.793   5.626 -0.9763 -1.9746  0.4960
  102MOL0     H13725   0.672   7.817   5.568  1.4488  5.3556 -0.8149
  102MOL0     H13726   0.786   7.784   5.857  0.5374  2.0789  0.1271
  102MOL0     H13727   0.720   7.648   5.776 -0.3444 -1.0690  3.0142
  102MOL0     H13728   0.595   7.861   5.953 -0.3072  2.0676 -0.6970
  102MOL0     H13729   0.546   7.699   5.913 -0.6941  0.5974  0.3173
  102MOL0     H13730   0.238   7.858   5.683  0.2906 -0.3867  0.0426
  102MOL0     H13731   0.004   7.870   5.671  0.7624 -0.0576 -0.0716
  102MOL0     H13732  -0.078   7.785   5.810 -1.2743  0.6359  0.8503
  102MOL0     H13733  -0.076   7.966   5.791  4.7090  1.6808 -0.3718
  102MOL0     H13734  -0.368   7.781   6.061  1.3419 -0.4103 -0.7993
  102MOL0     H13735  -0.555   7.867   6.220  0.2451 -0.6843  3.3640
  102MOL0     H13736  -0.677   8.193   6.461 -1.1558  1.8826 -1.9209
  102MOL0     H13737  -0.523   8.253   6.448 -0.3300  0.1393 -1.9490
  102MOL0     H13738  -0.539   8.285   6.203  0.5714 -0.8633  1.3630
  102MOL0     H13739  -0.694   8.200   6.208  1.6034 -0.3988 -0.0158
  102MOL0     H13740  -0.666   8.442   6.388 -2.5283 -0.1849  1.8520
  102MOL0     H13741  -0.821   8.364   6.324 -1.2695 -0.4975 -3.4583
  102MOL0     H13742  -0.635   8.516   6.149 -1.1345  1.7868 -0.0140
  102MOL0     H13743  -0.777   8.432   6.108 -1.2534 -3.1474  1.7476
  102MOL0     H13744  -0.890   8.573   6.289 -2.0799  0.2359 -1.5485
  102MOL0     H13745  -0.871   8.629   6.117 -0.3937  1.7567  0.2484
  102MOL0     H13746  -0.680   8.722   6.336  2.0729  2.8582 -1.8996
  102MOL0     H13747  -0.674   8.761   6.173 -0.9205 -1.9296 -1.9855
  102MOL0     H13748  -0.904   8.839   6.169 -0.7329 -0.5328  0.3388
  102MOL0     H13749  -0.777   8.931   6.244 -2.5702  1.4067 -1.4798
  102MOL0     H13750  -0.865   8.855   6.472  0.0329  1.5805  0.6165
  102MOL0     H13751  -1.018   8.817   6.401  0.0398 -0.4374  0.8204
  102MOL0     H13752  -0.297   8.201   6.316 -0.4982  1.0803  0.2929
  102MOL0     H13753  -0.147   8.133   6.163 -0.1508  0.0053  1.3966
  102MOL0     H13754   0.231   7.913   6.175 -0.9127 -0.3905  0.4052
  102MOL0     H13755   0.430   7.905   6.059 -1.2223  0.0723  0.5804
  102MOL0     H13756   2.171   8.544   5.171 -2.4714  0.6891  0.7484
  102MOL0     H13757   2.399   8.557   5.236 -0.6491 -1.6822 -2.6505
  102MOL0     H13758   2.621   8.369   5.683  0.8400 -0.0335  2.5793
  102MOL0     H13759   2.812   8.304   5.826 -1.2033 -1.3491 -0.1734
  102MOL0     H13760   3.182   8.221   5.591 -0.0669  1.3020 -0.9158
  102MOL0     H13761   3.223   8.374   5.682  3.7603 -0.6080  2.3380
  102MOL0     H13762   3.244   8.091   5.782 -1.4510 -0.0257  1.9060
  102MOL0     H13763   3.243   8.234   5.887 -0.0067  2.3616 -1.2703
  102MOL0     H13764   3.429   8.332   5.771  0.0223  0.0342 -0.5078
  102MOL0     H13765   3.453   8.178   5.686 -0.9281 -0.8237 -0.3917
  102MOL0     H13766   3.584   8.138   5.868 -1.2145  0.8118 -3.0042
  102MOL0     H13767   3.427   8.082   5.939 -1.2570  0.4128  1.0737
  102MOL0     H13768   3.521   8.417   6.184 -0.4607  1.1046 -1.8004
  102MOL0     H13769   3.062   8.341   5.468 -1.7069  0.0722 -4.9752
  102MOL0     H13770   2.868   8.410   5.332 -1.3538  0.8935  0.5560
  103MOL0     O13771   5.136   8.184   4.610 -0.1430  0.0723  1.0050
  103MOL0     C13772   5.090   8.082   4.656 -0.2872  0.5611 -0.4782
  103MOL0     O13773   5.128   7.950   4.630 -0.6695  0.3502  0.8257
  103MOL0     C13774   5.249   7.939   4.571 -1.1562 -0.1341 -0.2939
  103MOL0     C13775   5.278   7.974   4.438 -0.2864  1.0267  1.1261
  103MOL0     C13776   5.406   7.948   4.387 -0.0633 -0.3150  0.6768
  103MOL0     C13777   5.504   7.883   4.465 -0.6352 -0.2718  0.8195
  103MOL0     O13778   5.624   7.875   4.409  0.4416 -0.3416 -0.7318
  103MOL0     C13779   5.743   7.845   4.483  0.8907  0.1299  0.7466
  103MOL0     C13780   5.764   7.943   4.604  0.2646  0.3114 -0.8020
  103MOL0     C13781   5.876   7.899   4.703 -0.1403  0.6829 -0.1075
  103MOL0     C13782   6.017   7.935   4.653 -1.4858  0.3109 -0.1553
  103MOL0     C13783   6.089   8.017   4.761 -0.7556 -0.7436  0.2496
  103MOL0     C13784   6.252   8.009   4.737  0.2672 -0.4471 -0.2862
  103MOL0     C13785   6.341   8.086   4.835 -0.1083  0.4829  0.6303
  103MOL0     C13786   6.486   8.037   4.843 -0.0689 -0.7875  0.0914
  103MOL0     N13787   6.570   8.136   4.917  0.9909 -0.3003  0.6217
  103MOL0     C13788   6.674   8.103   5.005 -0.0589 -0.4835 -0.0311
  103MOL0     C13789   6.723   8.223   5.044 -0.1043  1.2332  0.2191
  103MOL0     C13790   6.841   8.252   5.138 -0.2345 -0.3576 -0.5802
  103MOL0     C13791   6.806   8.175   5.273 -0.4110 -0.0133 -0.2190
  103MOL0     C13792   6.699   8.241   5.364 -0.4209  0.6358  1.1575
  103MOL0     C13793   6.626   8.146   5.460  0.8111  0.4813  0.6871
  103MOL0     O13794   6.549   8.039   5.397  0.0978 -0.5408 -0.4281
  103MOL0     C13795   6.422   8.065   5.363 -0.5051  0.0268  0.0377
  103MOL0     C13796   6.321   8.022   5.447  0.3335  0.4138 -0.5126
  103MOL0     C13797   6.188   8.035   5.417  0.0230  0.6035  0.1478
  103MOL0     C13798   6.095   7.964   5.509  0.1998  0.2961 -0.7540
  103MOL0     C13799   6.147   8.107   5.305 -0.4679 -1.3644  0.5375
  103MOL0     C13800   6.007   8.136   5.257 -0.7653 -0.0712  0.0631
  103MOL0     O13801   5.997   8.198   5.128  0.0176 -0.5244  0.1899
  103MOL0     C13802   5.873   8.222   5.078  0.0573 -1.2759  0.3274
  103MOL0     C13803   5.799   8.126   5.012  0.5079 -1.1999  0.1635
  103MOL0     C13804   5.674   8.150   4.965 -0.1871 -0.9577 -0.6117
  103MOL0     C13805   5.610   8.275   4.991  0.3522  0.0543 -0.5983
  103MOL0     O13806   5.475   8.297   4.948 -0.7959 -0.3440 -0.4846
  103MOL0     C13807   5.461   8.404   4.855  1.3159 -0.5800 -0.2821
  103MOL0     C13808   5.342   8.376   4.745 -0.5222 -0.0909 -0.3843
  103MOL0     C13809   5.305   8.506   4.666  0.1783  0.7202  0.4472
  103MOL0     C13810   5.211   8.592   4.759 -0.9724  0.5279  0.1450
  103MOL0     C13811   5.148   8.711   4.690 -0.5978  0.5510 -0.6482
  103MOL0     C13812   5.248   8.800   4.632 -1.2258  0.0107 -0.1654
  103MOL0     C13813   5.208   8.934   4.589  0.3712 -0.0908  0.9761
  103MOL0     C13814   5.334   9.004   4.546  0.1818  0.1014  0.1442
  103MOL0    Cl13815   5.389   8.945   4.391  0.0354 -0.2840  0.0738
  103MOL0     C13816   5.674   8.373   5.060  0.5486 -1.1995 -0.5716
  103MOL0     C13817   5.804   8.349   5.105  0.5401  0.6989  0.4155
  103MOL0     O13818   5.910   8.107   5.320 -0.5932 -0.0912  0.0670
  103MOL0     C13819   6.255   8.165   5.229  0.1567 -0.2113 -0.7533
  103MOL0     C13820   6.389   8.142   5.250  0.4904  0.0532 -0.1024
  103MOL0     N13821   6.651   8.321   4.987 -0.1500  0.2452  0.3254
  103MOL0     N13822   6.563   8.272   4.913 -0.5368  0.0049  0.3452
  103MOL0     C13823   5.465   7.833   4.589 -0.4641  0.0713  0.1353
  103MOL0     C13824   5.344   7.868   4.638  0.0055  0.1684 -0.1547
  103MOL0     C13825   4.977   8.103   4.743  0.4221  0.2591 -1.7618
  103MOL0     C13826   4.917   8.222   4.764 -0.7335 -1.0871  0.9687
  103MOL0     C13827   4.798   8.240   4.826 -0.2657  0.2069 -0.1643
  103MOL0     C13828   4.734   8.128   4.883 -0.0613 -0.0350 -1.1323
  103MOL0     O13829   4.609   8.149   4.937 -0.2071 -0.1526  0.5092
  103MOL0     C13830   4.559   8.047   5.034 -0.2060  0.2732  0.0206
  103MOL0     C13831   4.431   8.107   5.097  0.1946  0.2718  0.1601
  103MOL0     C13832   4.325   8.115   4.991  0.4756  0.6839 -0.4312
  103MOL0     C13833   4.247   8.244   4.975 -0.0392 -0.6765  0.5045
  103MOL0     C13834   4.154   8.270   5.082 -0.6190  0.3171 -0.9697
  103MOL0     C13835   4.073   8.278   5.166  0.7432 -0.7396 -0.2418
  103MOL0     C13836   4.783   8.007   4.859  0.7675 -0.6608  0.4982
  103MOL0     C13837   4.905   7.991   4.785  0.4484 -0.1054  0.0857
  103MOL0     H13838   5.206   8.025   4.375 -2.3698 -3.0300 -0.1063
  103MOL0     H13839   5.435   7.995   4.294  2.2580 -0.6369  1.1695
  103MOL0     H13840   5.737   7.739   4.511  0.1055 -0.3289 -1.0214
  103MOL0     H13841   5.827   7.862   4.415  0.1803  1.3102  0.1309
  103MOL0     H13842   5.786   8.044   4.571  0.6202  0.0059 -1.5333
  103MOL0     H13843   5.665   7.943   4.649 -0.4768 -3.1927 -2.0848
  103MOL0     H13844   5.850   7.962   4.788  0.7489  0.5400  0.2766
  103MOL0     H13845   5.861   7.795   4.732 -0.7126  0.8414  0.1816
  103MOL0     H13846   6.066   7.837   4.651 -2.7836 -0.4206  1.0768
  103MOL0     H13847   6.010   7.978   4.553  0.3950  0.9951 -0.0226
  103MOL0     H13848   6.057   8.121   4.749 -3.4456 -1.7626 -2.5766
  103MOL0     H13849   6.072   7.975   4.860  3.7696 -2.9535  0.3318
  103MOL0     H13850   6.290   7.907   4.746  2.5703  0.2195 -1.4357
  103MOL0     H13851   6.279   8.044   4.636  1.6046  0.0008  0.2065
  103MOL0     H13852   6.341   8.192   4.808  2.0180 -0.1300 -2.1825
  103MOL0     H13853   6.306   8.072   4.938 -0.7988  4.1417  1.0212
  103MOL0     H13854   6.536   8.035   4.746 -0.9397 -1.7624 -0.3586
  103MOL0     H13855   6.502   7.940   4.890  0.3808 -0.6082  0.3166
  103MOL0     H13856   6.716   8.009   5.039 -2.1444 -1.2157  0.6892
  103MOL0     H13857   6.919   8.214   5.072  1.1278  2.7937 -0.9455
  103MOL0     H13858   6.854   8.360   5.148  1.6133 -0.5154 -1.0019
  103MOL0     H13859   6.892   8.173   5.341  1.4788  1.0318 -2.4733
  103MOL0     H13860   6.785   8.070   5.254 -0.4489  0.0113 -0.3120
  103MOL0     H13861   6.623   8.282   5.298 -1.4408 -0.3901  1.6477
  103MOL0     H13862   6.753   8.318   5.421 -0.6311  1.5760  0.1120
  103MOL0     H13863   6.579   8.202   5.542  0.8906  1.7609 -0.1144
  103MOL0     H13864   6.711   8.098   5.509 -0.1206 -0.5484  1.3438
  103MOL0     H13865   6.346   7.957   5.530  2.0925  0.8169 -0.6889
  103MOL0     H13866   6.009   7.924   5.455  0.0570 -0.4503  0.0031
  103MOL0     H13867   6.147   7.880   5.557 -0.3554  0.1887 -0.3307
  103MOL0     H13868   6.050   8.027   5.586 -3.1350 -5.2201  2.4771
  103MOL0     H13869   5.843   8.028   4.995  2.0577 -0.3423 -1.0012
  103MOL0     H13870   5.624   8.078   4.900 -0.9997  0.0210 -1.1162
  103MOL0     H13871   5.445   8.499   4.908  3.0719 -1.4124  1.9103
  103MOL0     H13872   5.550   8.418   4.794  1.5653 -1.4210 -0.1222
  103MOL0     H13873   5.372   8.303   4.670  1.3896 -2.6322  2.5762
  103MOL0     H13874   5.258   8.333   4.801  0.5401 -0.6388  0.8587
  103MOL0     H13875   5.254   8.477   4.574 -0.2460  0.1546  0.8513
  103MOL0     H13876   5.398   8.560   4.645 -1.1756  1.8760 -3.5254
  103MOL0     H13877   5.136   8.530   4.809  1.6308  0.3906  4.4344
  103MOL0     H13878   5.271   8.640   4.837 -0.8463  4.5627 -2.1481
  103MOL0     H13879   5.087   8.765   4.764  0.8143  1.9772 -0.4695
  103MOL0     H13880   5.080   8.684   4.609  1.1481  0.1633 -2.0259
  103MOL0     H13881   5.311   8.801   4.722 -1.2141 -2.4330 -0.0873
  103MOL0     H13882   5.294   8.739   4.555 -2.1165 -1.9912  0.8265
  103MOL0     H13883   5.162   8.982   4.676  0.6533 -0.5767  1.3980
  103MOL0     H13884   5.146   8.936   4.500  1.5563  0.8382  0.1399
  103MOL0     H13885   5.414   8.990   4.620  2.0273  2.1258 -1.3329
  103MOL0     H13886   5.309   9.110   4.531 -1.1009 -0.3048 -0.7297
  103MOL0     H13887   5.629   8.456   5.112 -1.8375 -4.5008  3.2840
  103MOL0     H13888   5.868   8.425   5.150  0.1459  0.9520  0.5530
  103MOL0     H13889   6.242   8.233   5.145 -0.3896 -2.6507 -2.7746
  103MOL0     H13890   6.474   8.177   5.193 -1.2728  1.1943 -2.1370
  103MOL0     H13891   5.527   7.772   4.654 -3.2831 -4.3374 -0.8371
  103MOL0     H13892   5.310   7.826   4.733 -0.0222 -5.6518 -2.3273
  103MOL0     H13893   4.969   8.305   4.717 -0.1254 -2.1608 -0.3474
  103MOL0     H13894   4.749   8.335   4.842 -1.5230 -0.2845 -0.9082
  103MOL0     H13895   4.518   7.963   4.977 -0.1442  0.7494 -0.7522
  103MOL0     H13896   4.633   8.023   5.111 -2.6878 -0.8016  2.2369
  103MOL0     H13897   4.455   8.208   5.132  0.6552  0.8065 -1.6208
  103MOL0     H13898   4.397   8.050   5.184  1.9937 -0.6722  0.2759
  103MOL0     H13899   4.249   8.041   5.019  1.8257 -0.6236 -0.1197
  103MOL0     H13900   4.371   8.077   4.900  0.6377 -2.8121  0.9605
  103MOL0     H13901   4.189   8.240   4.883 -0.0874 -1.1122  0.5547
  103MOL0     H13902   4.318   8.328   4.971 -0.6764 -0.0742  1.3556
  103MOL0     H13903   3.994   8.278   5.238  0.8594 -0.1126 -0.1087
  103MOL0     H13904   4.733   7.914   4.886  0.9127 -0.4965  1.3440
  103MOL0     H13905   4.947   7.893   4.768 -1.6322 -0.7333 -1.8168
  104MOL0     O13906   4.208  10.326   7.823  0.3470 -0.1526 -0.2520
  104MOL0     C13907   4.202  10.225   7.894  0.1447  0.0155 -0.5373
  104MOL0     O13908   4.225  10.229   8.029  0.0871 -0.1082  0.6637
  104MOL0     C13909   4.255  10.347   8.087 -0.8871 -0.0663 -0.0681
  104MOL0     C13910   4.170  10.423   8.163 -0.3022 -0.5062 -0.0665
  104MOL0     C13911   4.211  10.543   8.216 -0.2106 -0.3507 -0.6316
  104MOL0     C13912   4.344  10.588   8.203 -0.3128 -0.2562 -0.1329
  104MOL0     O13913   4.392  10.702   8.259 -0.4377 -0.1386 -0.9609
  104MOL0     C13914   4.303  10.820   8.273 -0.0072 -1.0399  0.5001
  104MOL0     C13915   4.348  10.896   8.398  0.4348  0.2409 -1.0172
  104MOL0     C13916   4.314  11.046   8.411  0.3636  0.8349  0.5493
  104MOL0     C13917   4.159  11.056   8.426  0.2339 -0.2801 -0.0076
  104MOL0     C13918   4.128  11.208   8.425  0.9208 -0.7861  0.1074
  104MOL0     C13919   3.980  11.247   8.481 -0.4273  0.0133 -0.2942
  104MOL0     C13920   3.938  11.387   8.444 -0.0686  0.4281  0.1561
  104MOL0     C13921   3.895  11.396   8.304  0.6126  0.3209 -0.0729
  104MOL0     N13922   3.750  11.386   8.283 -0.4386  0.5333  0.5056
  104MOL0     C13923   3.676  11.507   8.286 -0.8127  0.5568  1.1611
  104MOL0     C13924   3.551  11.460   8.253 -0.0137  0.0226 -0.4218
  104MOL0     C13925   3.430  11.546   8.239  0.1180 -0.4280 -0.6854
  104MOL0     C13926   3.298  11.476   8.210  0.3950  0.1668  0.1096
  104MOL0     C13927   3.195  11.575   8.170 -0.0440 -0.4551  0.3672
  104MOL0     C13928   3.064  11.504   8.169 -0.0476  0.0214 -0.6212
  104MOL0     O13929   2.964  11.599   8.125  0.4116  0.4879  0.1854
  104MOL0     C13930   2.908  11.689   8.208  0.4618 -0.9985  0.5633
  104MOL0     C13931   2.919  11.684   8.351 -0.2365  0.1601  0.4784
  104MOL0     C13932   2.864  11.771   8.446 -0.5355 -1.0954 -0.2275
  104MOL0     C13933   2.889  11.735   8.588 -0.1169 -0.0683 -0.8251
  104MOL0     C13934   2.793  11.881   8.388  0.6687 -0.9353 -0.2498
  104MOL0     C13935   2.730  11.993   8.467  0.7928  0.1549 -0.9646
  104MOL0     O13936   2.709  12.113   8.411  0.0826 -0.2863  0.7521
  104MOL0     C13937   2.599  12.191   8.450  0.6943 -0.1045 -0.6084
  104MOL0     C13938   2.624  12.319   8.495 -0.5869  0.3849  0.2937
  104MOL0     C13939   2.520  12.406   8.529  0.3211  0.9641  0.2586
  104MOL0     C13940   2.387  12.372   8.513  0.1903 -0.0051  0.1004
  104MOL0     O13941   2.283  12.462   8.552 -0.5438  0.5063  0.4007
  104MOL0     C13942   2.149  12.409   8.584 -0.2268  0.2834  0.3759
  104MOL0     C13943   2.074  12.498   8.679 -1.2117  0.1709  0.4532
  104MOL0     C13944   2.164  12.537   8.802 -0.0579  0.9497  0.4515
  104MOL0     C13945   2.066  12.590   8.906 -0.6544 -0.0298  0.6011
  104MOL0     C13946   2.139  12.617   9.036  0.0127  0.9701  0.5672
  104MOL0     C13947   2.040  12.653   9.149 -0.5425 -0.4910 -0.3585
  104MOL0     C13948   2.102  12.722   9.265  0.6264  0.3625  0.3383
  104MOL0     C13949   2.227  12.648   9.323  0.2861  0.5956 -0.3728
  104MOL0    Cl13950   2.189  12.478   9.348  0.6310  0.0348  0.6024
  104MOL0     C13951   2.358  12.240   8.462  0.0723 -0.5147  0.0351
  104MOL0     C13952   2.463  12.150   8.441 -0.0414 -0.9846 -0.0156
  104MOL0     O13953   2.704  11.970   8.584  0.6353 -0.4556  0.3271
  104MOL0     C13954   2.789  11.897   8.244 -0.0109  0.0309 -0.9697
  104MOL0     C13955   2.852  11.809   8.157 -1.0107 -0.4654  0.5107
  104MOL0     N13956   3.559  11.320   8.233  0.3118  0.1737 -0.6028
  104MOL0     N13957   3.675  11.269   8.250  0.8428 -0.3226  0.2953
  104MOL0     C13958   4.435  10.514   8.132 -0.3809  0.1029 -0.1122
  104MOL0     C13959   4.390  10.394   8.075 -0.0250  0.2617 -0.9573
  104MOL0     C13960   4.200  10.101   7.831  0.1247 -0.1434 -0.2217
  104MOL0     C13961   4.206  10.088   7.687  0.3684  0.1627 -0.3234
  104MOL0     C13962   4.229   9.961   7.637  0.3556 -0.8868  0.0180
  104MOL0     C13963   4.231   9.845   7.714  0.6211  0.2933 -0.0857
  104MOL0     O13964   4.255   9.724   7.646 -0.0948 -0.5894 -0.1566
  104MOL0     C13965   4.245   9.608   7.719  0.1482  0.1391  0.1733
  104MOL0     C13966   4.296   9.492   7.635 -0.1352 -0.2158  0.3117
  104MOL0     C13967   4.195   9.447   7.540  0.4600 -0.8317  0.3255
  104MOL0     C13968   4.236   9.324   7.455 -0.0764  0.0842 -0.0461
  104MOL0     C13969   4.269   9.204   7.540  1.7764 -0.4496 -0.3357
  104MOL0     C13970   4.299   9.108   7.604  0.2474  0.3879  0.7332
  104MOL0     C13971   4.209   9.856   7.855  0.0677  0.1885  0.4657
  104MOL0     C13972   4.205   9.985   7.909  0.2698 -0.1494  0.2847
  104MOL0     H13973   4.071  10.384   8.184 -0.9328 -0.2139 -2.3447
  104MOL0     H13974   4.141  10.603   8.274 -3.1894 -0.5686 -3.6502
  104MOL0     H13975   4.319  10.879   8.182  0.4187  0.9214  1.7940
  104MOL0     H13976   4.194  10.805   8.277 -0.4276  1.7537  2.1669
  104MOL0     H13977   4.311  10.845   8.487  2.2786  3.1273  1.6212
  104MOL0     H13978   4.456  10.885   8.407  0.3783 -0.3554 -1.0511
  104MOL0     H13979   4.357  11.072   8.508 -0.8089 -0.3139  1.4048
  104MOL0     H13980   4.347  11.120   8.337 -2.0068  0.5728 -0.8849
  104MOL0     H13981   4.099  11.013   8.346 -3.5898  2.7212  0.9074
  104MOL0     H13982   4.119  11.013   8.518 -0.4813 -1.0471 -0.6542
  104MOL0     H13983   4.188  11.257   8.501  1.6818  0.5301 -1.2788
  104MOL0     H13984   4.142  11.255   8.327 -2.7146 -0.7665 -0.5450
  104MOL0     H13985   3.908  11.171   8.449  1.6304 -3.2908  2.2892
  104MOL0     H13986   4.004  11.257   8.587  2.5118  2.5393 -1.0591
  104MOL0     H13987   3.864  11.433   8.511  0.5452  1.3884  0.1980
  104MOL0     H13988   4.024  11.453   8.458  1.4424 -1.6581  1.1938
  104MOL0     H13989   3.923  11.310   8.242  2.8660  1.5865 -0.9014
  104MOL0     H13990   3.944  11.481   8.257 -1.6190  0.5855 -2.1124
  104MOL0     H13991   3.712  11.604   8.318 -1.3565  1.2779 -0.3257
  104MOL0     H13992   3.419  11.612   8.325 -3.7335 -1.1554 -0.4625
  104MOL0     H13993   3.453  11.614   8.156 -1.1085 -0.2786 -0.9221
  104MOL0     H13994   3.260  11.427   8.300  2.1150  2.4368  2.2127
  104MOL0     H13995   3.323  11.410   8.127  1.5951 -1.2859  1.5564
  104MOL0     H13996   3.217  11.611   8.070  0.3223  4.8600  2.0630
  104MOL0     H13997   3.190  11.670   8.224  1.2258 -0.0451 -0.1925
  104MOL0     H13998   3.034  11.452   8.261  0.0119  4.1623  1.9992
  104MOL0     H13999   3.072  11.426   8.092 -1.2875  1.7620 -2.6210
  104MOL0     H14000   2.968  11.599   8.397 -0.3576 -0.5760 -0.7129
  104MOL0     H14001   2.922  11.631   8.598 -0.4208 -0.1571 -0.7403
  104MOL0     H14002   2.960  11.803   8.635  0.2685 -0.2558 -1.1378
  104MOL0     H14003   2.790  11.749   8.633  0.8629  2.4669  0.7955
  104MOL0     H14004   2.726  12.355   8.498  0.0631 -1.3042 -0.3184
  104MOL0     H14005   2.550  12.501   8.571  1.8782  1.4959 -1.9239
  104MOL0     H14006   2.101  12.399   8.486  2.4949  1.9400 -1.2456
  104MOL0     H14007   2.162  12.308   8.625  0.3070 -0.3677 -1.3045
  104MOL0     H14008   2.034  12.589   8.633 -2.0319 -1.1938 -1.7433
  104MOL0     H14009   1.993  12.432   8.712  0.6686 -2.6456 -0.2006
  104MOL0     H14010   2.236  12.608   8.761  3.3859  0.5375  4.9992
  104MOL0     H14011   2.219  12.447   8.832 -2.6746 -1.2074 -0.7410
  104MOL0     H14012   2.041  12.688   8.865  0.1496 -0.3438 -0.7219
  104MOL0     H14013   1.972  12.533   8.909 -0.7559 -0.1949 -2.2300
  104MOL0     H14014   2.204  12.704   9.020 -2.6816  2.8175 -1.2061
  104MOL0     H14015   2.198  12.531   9.070 -0.9916  0.0700  0.0932
  104MOL0     H14016   1.965  12.725   9.117  1.0444  0.5559 -1.9410
  104MOL0     H14017   1.995  12.562   9.190 -1.3284  0.0537  0.0247
  104MOL0     H14018   2.029  12.727   9.346  0.4739 -3.8803  0.7104
  104MOL0     H14019   2.124  12.826   9.239  0.6309 -0.0001 -1.2422
  104MOL0     H14020   2.260  12.699   9.414  2.1179 -0.4272 -0.4271
  104MOL0     H14021   2.317  12.661   9.263  0.1270 -0.8854 -0.9565
  104MOL0     H14022   2.252  12.221   8.452 -0.2275  0.9093  0.2898
  104MOL0     H14023   2.434  12.054   8.399 -1.1190 -0.5635 -0.2485
  104MOL0     H14024   2.738  11.984   8.202  1.0022  0.3945 -1.4870
  104MOL0     H14025   2.848  11.814   8.048  0.0322 -1.6004  0.4088
  104MOL0     H14026   4.537  10.552   8.126 -1.0923  2.6759  2.0614
  104MOL0     H14027   4.455  10.321   8.029 -1.7963 -2.3595  0.4386
  104MOL0     H14028   4.226  10.166   7.614  0.2239  0.5598  0.0528
  104MOL0     H14029   4.245   9.944   7.531  4.0312 -1.6800  0.5640
  104MOL0     H14030   4.310   9.608   7.807 -0.7152 -0.3798  0.8239
  104MOL0     H14031   4.144   9.601   7.761  0.7923 -1.0643  1.5981
  104MOL0     H14032   4.311   9.417   7.713 -1.1709 -0.8918 -0.1162
  104MOL0     H14033   4.388   9.521   7.584 -0.6593  0.4039 -0.3135
  104MOL0     H14034   4.154   9.527   7.478  2.9754 -1.7222 -2.7392
  104MOL0     H14035   4.101   9.427   7.593 -0.0314  0.7791  0.1211
  104MOL0     H14036   4.323   9.348   7.393  0.0394 -4.8152 -2.2627
  104MOL0     H14037   4.148   9.317   7.391 -0.1948 -0.3554  0.1568
  104MOL0     H14038   4.309   9.026   7.672  0.1721  0.3053  0.6446
  104MOL0     H14039   4.203   9.771   7.921 -0.7088  1.1132  1.6164
  104MOL0     H14040   4.196   9.993   8.017 -0.5429  0.8538  0.1542
  105MOL0     O14041   2.082  10.423   9.444 -0.5948  0.0223 -0.0985
  105MOL0     C14042   2.197  10.399   9.418 -0.4338  0.4701 -1.1198
  105MOL0     O14043   2.247  10.345   9.299 -0.3423 -0.6506  0.0473
  105MOL0     C14044   2.193  10.380   9.178  0.6149  0.6284  0.4491
  105MOL0     C14045   2.103  10.488   9.139  0.1098 -0.5293  0.4777
  105MOL0     C14046   2.058  10.503   9.008  0.2557  0.3642  0.1078
  105MOL0     C14047   2.097  10.409   8.906 -0.8637 -0.2751 -0.4751
  105MOL0     O14048   2.066  10.428   8.772  0.0231 -0.3895  0.4045
  105MOL0     C14049   2.062  10.565   8.720  0.2639  0.4154 -0.2023
  105MOL0     C14050   2.107  10.576   8.575 -0.2348 -0.7975 -1.0319
  105MOL0     C14051   1.996  10.508   8.485 -0.0009 -0.8030  0.2734
  105MOL0     C14052   2.062  10.476   8.348 -0.8181  0.3650 -0.4768
  105MOL0     C14053   1.953  10.427   8.251 -0.6435 -0.7511 -0.0439
  105MOL0     C14054   1.911  10.289   8.279  0.5604  0.8546 -0.8561
  105MOL0     C14055   1.835  10.225   8.167  0.0247  0.1511  0.4459
  105MOL0     C14056   1.689  10.273   8.159  0.3051 -0.3784  0.0743
  105MOL0     N14057   1.601  10.228   8.272  0.0401  0.4251 -0.2203
  105MOL0     C14058   1.552  10.321   8.360  0.8051 -0.6372 -0.3225
  105MOL0     C14059   1.481  10.249   8.446  0.1883  0.1271 -0.2137
  105MOL0     C14060   1.410  10.311   8.563  0.2869  0.4631  0.8517
  105MOL0     C14061   1.272  10.252   8.580 -0.2886 -0.5544 -0.1290
  105MOL0     C14062   1.205  10.290   8.705  0.0680 -0.3137 -0.2584
  105MOL0     C14063   1.074  10.216   8.736 -1.0753  0.1286 -0.4647
  105MOL0     O14064   1.022  10.306   8.836 -0.1509 -1.0154 -0.9044
  105MOL0     C14065   0.895  10.275   8.894  0.2343  0.1782  0.7989
  105MOL0     C14066   0.836  10.150   8.894 -0.6463 -1.0638 -0.0816
  105MOL0     C14067   0.735  10.122   8.986  0.2461  0.5087 -1.2527
  105MOL0     C14068   0.676   9.981   8.953  0.8487 -0.3633  0.3050
  105MOL0     C14069   0.691  10.217   9.081 -0.6353 -1.1495 -0.2348
  105MOL0     C14070   0.592  10.199   9.187  0.5066  0.1461  0.5677
  105MOL0     O14071   0.531  10.310   9.246 -0.5819 -0.4193 -0.5800
  105MOL0     C14072   0.485  10.270   9.367  0.3763 -0.7151  0.0658
  105MOL0     C14073   0.359  10.214   9.383 -0.3828  0.7050 -0.1732
  105MOL0     C14074   0.317  10.184   9.515 -0.5167  0.9192 -0.2139
  105MOL0     C14075   0.406  10.199   9.631 -0.5323 -0.2407  0.4809
  105MOL0     O14076   0.347  10.159   9.745  0.0104 -0.0174 -0.2369
  105MOL0     C14077   0.422  10.150   9.874 -0.2931 -0.4067  0.3428
  105MOL0     C14078   0.515  10.028   9.878 -0.2869  0.1106  0.1684
  105MOL0     C14079   0.591  10.016  10.005 -1.8663 -0.0327  0.5987
  105MOL0     C14080   0.660   9.875  10.012  0.5440 -0.3574  0.2146
  105MOL0     C14081   0.698   9.835  10.157 -1.0788  0.2495 -0.7941
  105MOL0     C14082   0.590   9.747  10.216  0.1403 -0.3897  0.1207
  105MOL0     C14083   0.610   9.700  10.353 -0.1950  0.1594 -0.6436
  105MOL0     C14084   0.505   9.589  10.379  0.5656  0.0389  0.3394
  105MOL0    Cl14085   0.508   9.534  10.550  0.3704  0.1028 -0.1598
  105MOL0     C14086   0.530  10.250   9.609 -1.0005 -0.4267  0.7267
  105MOL0     C14087   0.570  10.275   9.481 -0.9133  0.0924  0.6084
  105MOL0     O14088   0.554  10.083   9.190 -0.0903  0.8928 -0.3511
  105MOL0     C14089   0.742  10.347   9.076  0.3069  0.6098  0.0057
  105MOL0     C14090   0.849  10.369   8.982  0.0468 -0.5243 -0.6260
  105MOL0     N14091   1.499  10.110   8.415 -0.0826  0.6182  0.0578
  105MOL0     N14092   1.566  10.102   8.306  0.7676 -0.9654  0.1126
  105MOL0     C14093   2.186  10.304   8.938  0.5018  0.1011 -0.3997
  105MOL0     C14094   2.230  10.296   9.072 -0.4125 -0.7468 -0.0703
  105MOL0     C14095   2.298  10.434   9.525  0.2273 -1.2411  0.0275
  105MOL0     C14096   2.414  10.366   9.537  0.2624 -0.5836  0.5065
  105MOL0     C14097   2.513  10.402   9.638  0.6158  0.6503 -0.1002
  105MOL0     C14098   2.497  10.509   9.725  0.5909 -0.0819  0.0035
  105MOL0     O14099   2.591  10.532   9.815  0.6065  0.1513 -0.3797
  105MOL0     C14100   2.552  10.618   9.926  0.5333  0.4698 -0.0892
  105MOL0     C14101   2.578  10.765   9.909 -0.1304 -0.5845 -0.8505
  105MOL0     C14102   2.733  10.794   9.893  0.1587  0.4585 -0.8451
  105MOL0     C14103   2.778  10.931   9.836 -0.4202 -0.1343 -0.2958
  105MOL0     C14104   2.689  11.043   9.855 -0.3096  0.7862  0.7593
  105MOL0     C14105   2.602  11.126   9.876 -0.5889  0.6664 -0.4554
  105MOL0     C14106   2.374  10.583   9.703 -0.9438  0.0728  0.0018
  105MOL0     C14107   2.281  10.542   9.609  0.5160 -0.8362  0.1817
  105MOL0     H14108   2.071  10.555   9.217 -1.2015 -0.0174 -0.4623
  105MOL0     H14109   1.995  10.589   8.989 -0.3184  0.3870  1.9176
  105MOL0     H14110   1.955  10.588   8.721  0.4181  1.3555  2.6152
  105MOL0     H14111   2.105  10.640   8.786 -2.4341  1.6757  0.2803
  105MOL0     H14112   2.120  10.677   8.535  0.1316 -0.4573 -0.1037
  105MOL0     H14113   2.205  10.534   8.552  2.6773  2.6884  3.2014
  105MOL0     H14114   1.959  10.417   8.533  1.2069 -1.2421  0.3994
  105MOL0     H14115   1.910  10.572   8.467  1.2893  1.8452  2.6673
  105MOL0     H14116   2.113  10.567   8.316 -3.3898  1.3042 -2.2801
  105MOL0     H14117   2.142  10.402   8.353 -0.5979  0.3935 -2.5598
  105MOL0     H14118   1.871  10.500   8.246 -0.9950 -1.1410 -0.0004
  105MOL0     H14119   2.002  10.429   8.153  1.4464 -1.0521  0.9488
  105MOL0     H14120   1.991  10.216   8.293 -0.3406  0.0237  0.2293
  105MOL0     H14121   1.844  10.289   8.366  1.5686  0.4099 -0.0667
  105MOL0     H14122   1.903  10.229   8.082  0.1141 -1.3432  0.4213
  105MOL0     H14123   1.839  10.116   8.169  2.1779  0.1569 -0.5001
  105MOL0     H14124   1.640  10.238   8.068 -2.3335  3.4573 -0.2100
  105MOL0     H14125   1.697  10.382   8.156 -0.1736 -0.0508  4.1764
  105MOL0     H14126   1.587  10.424   8.366  2.2993 -1.0961 -0.7411
  105MOL0     H14127   1.453  10.280   8.659 -2.7045  0.5361  2.3326
  105MOL0     H14128   1.421  10.419   8.556  1.2391  0.3024 -0.5464
  105MOL0     H14129   1.276  10.144   8.571 -1.4475 -0.5625 -0.6638
  105MOL0     H14130   1.210  10.279   8.494 -0.9801 -0.8996  0.2591
  105MOL0     H14131   1.187  10.398   8.704  0.6534 -0.1194  2.6786
  105MOL0     H14132   1.266  10.272   8.794 -0.1173 -0.2793 -0.1228
  105MOL0     H14133   1.096  10.115   8.771 -0.1157 -0.1595 -1.8517
  105MOL0     H14134   1.007  10.218   8.650 -0.8889  0.3244 -0.6055
  105MOL0     H14135   0.873  10.083   8.817  0.9597 -2.1667  1.5623
  105MOL0     H14136   0.675   9.909   9.035 -1.2834 -1.7422 -0.8480
  105MOL0     H14137   0.575   9.993   8.912  0.5479 -1.3562  0.7393
  105MOL0     H14138   0.734   9.939   8.870 -2.3383 -2.7748 -0.9009
  105MOL0     H14139   0.295  10.187   9.299  0.5434  0.6067 -0.8617
  105MOL0     H14140   0.214  10.159   9.535 -1.3736  1.6014 -3.2875
  105MOL0     H14141   0.469  10.249   9.884 -2.3241  1.1963 -3.7508
  105MOL0     H14142   0.354  10.132   9.958 -0.0127 -1.3482  0.3822
  105MOL0     H14143   0.452   9.941   9.859 -2.4239  1.5155  0.4775
  105MOL0     H14144   0.589  10.042   9.799  0.0055  2.3283  0.7702
  105MOL0     H14145   0.528  10.025  10.094 -0.7714 -0.0088  1.4006
  105MOL0     H14146   0.661  10.100  10.018 -2.2438  0.2972  0.5246
  105MOL0     H14147   0.587   9.802   9.978  0.8333  0.5294 -2.5211
  105MOL0     H14148   0.748   9.883   9.948 -0.0391 -0.4828 -0.6065
  105MOL0     H14149   0.709   9.931  10.208  2.8394  0.0782 -0.9840
  105MOL0     H14150   0.794   9.783  10.157 -1.5067 -0.5743 -0.1991
  105MOL0     H14151   0.495   9.800  10.207  0.4379  0.2455  0.6011
  105MOL0     H14152   0.578   9.663  10.147  1.9911  1.9383 -3.3068
  105MOL0     H14153   0.608   9.781  10.427  0.8243  0.4273 -0.8970
  105MOL0     H14154   0.708   9.655  10.365 -1.2443 -1.7252  1.5058
  105MOL0     H14155   0.537   9.500  10.323 -1.2486 -0.7285  0.4645
  105MOL0     H14156   0.404   9.624  10.357 -0.6177 -2.7329  0.9516
  105MOL0     H14157   0.588  10.259   9.700  0.1981 -1.1168  0.0482
  105MOL0     H14158   0.674  10.304   9.469 -0.7601 -0.7364 -0.1053
  105MOL0     H14159   0.713  10.423   9.148  0.0476 -1.1019  1.7931
  105MOL0     H14160   0.904  10.463   8.983 -2.7676  1.2454 -1.1888
  105MOL0     H14161   2.230  10.248   8.856  0.4860  1.4869 -1.3820
  105MOL0     H14162   2.304  10.217   9.079 -0.1031 -0.4114  0.4751
  105MOL0     H14163   2.435  10.283   9.471  0.0205  1.3043 -2.1198
  105MOL0     H14164   2.603  10.343   9.629  1.0434  1.4817 -1.8683
  105MOL0     H14165   2.449  10.597   9.959  1.4441 -1.1163  1.9788
  105MOL0     H14166   2.610  10.588  10.014 -0.0916 -1.1203 -0.1775
  105MOL0     H14167   2.548  10.823   9.996 -2.3091  0.5109 -2.2352
  105MOL0     H14168   2.524  10.806   9.823 -2.0937  0.8629  0.9714
  105MOL0     H14169   2.775  10.713   9.834  0.6918  0.4158 -0.4194
  105MOL0     H14170   2.785  10.774   9.988  1.7983  1.6388 -1.4450
  105MOL0     H14171   2.812  10.922   9.732  1.9996  3.3706  0.0187
  105MOL0     H14172   2.866  10.953   9.896 -1.1844  0.8484  0.4991
  105MOL0     H14173   2.544  11.209   9.911 -1.3692  0.1317 -0.4513
  105MOL0     H14174   2.372  10.679   9.755  2.1979  1.1549 -1.6238
  105MOL0     H14175   2.189  10.596   9.588  2.2447  2.4734  0.3241
  106MOL0     O14176   3.260   9.091  10.332 -0.1715  0.8217 -0.0188
  106MOL0     C14177   3.196   8.986  10.329  0.3490 -0.5202 -0.1541
  106MOL0     O14178   3.069   8.976  10.294  0.2715  0.2560  0.2684
  106MOL0     C14179   3.005   9.076  10.224 -0.6052 -0.2876  0.5654
  106MOL0     C14180   3.065   9.185  10.156 -0.2766  0.8048 -0.2717
  106MOL0     C14181   2.989   9.290  10.098 -0.1826 -0.1689 -0.5410
  106MOL0     C14182   2.853   9.285  10.100  0.3320  0.1285 -0.1735
  106MOL0     O14183   2.765   9.382  10.057  0.2854  0.0232 -0.2174
  106MOL0     C14184   2.814   9.508  10.006  0.1383  0.3195 -0.1627
  106MOL0     C14185   2.707   9.582   9.925 -1.0788 -0.8481 -0.4581
  106MOL0     C14186   2.636   9.488   9.829  0.3657 -0.1857 -0.8165
  106MOL0     C14187   2.725   9.431   9.719  0.9017  0.0040 -0.0045
  106MOL0     C14188   2.653   9.363   9.606  0.1291  0.0049 -0.4798
  106MOL0     C14189   2.531   9.438   9.561  0.4019  0.1312  0.4424
  106MOL0     C14190   2.484   9.384   9.419  0.1109  0.2838  0.2326
  106MOL0     C14191   2.367   9.465   9.353 -0.0649 -0.8937 -0.3493
  106MOL0     N14192   2.245   9.453   9.432  1.2038  0.9812 -0.7949
  106MOL0     C14193   2.136   9.543   9.440  0.5868 -0.3185  0.3101
  106MOL0     C14194   2.027   9.479   9.478  0.8471 -0.2435 -1.1292
  106MOL0     C14195   1.892   9.543   9.499 -0.0284  0.5175  0.1154
  106MOL0     C14196   1.831   9.586   9.370 -0.2578 -0.1691  0.1553
  106MOL0     C14197   1.699   9.649   9.391  0.8362 -0.0441  0.0784
  106MOL0     C14198   1.689   9.778   9.469 -0.2075  0.3727  0.0681
  106MOL0     O14199   1.560   9.829   9.506  0.5605  0.0944 -0.7395
  106MOL0     C14200   1.554   9.958   9.557  0.1937  0.5563  0.0131
  106MOL0     C14201   1.425  10.005   9.577  0.4344  0.8607  0.1338
  106MOL0     C14202   1.398  10.124   9.637 -0.5547 -0.9123  0.3330
  106MOL0     C14203   1.260  10.139   9.694  0.3390  0.3976 -0.0319
  106MOL0     C14204   1.504  10.224   9.670 -0.1645  1.0472 -0.1756
  106MOL0     C14205   1.483  10.358   9.723  0.0209 -0.5237 -0.1792
  106MOL0     O14206   1.361  10.416   9.717  0.0117 -0.0802 -0.8928
  106MOL0     C14207   1.344  10.545   9.757  0.7574  0.0080  0.5379
  106MOL0     C14208   1.250  10.559   9.856 -0.3196  0.1895  1.0010
  106MOL0     C14209   1.217  10.683   9.907  0.5287 -0.4611  0.0400
  106MOL0     C14210   1.292  10.799   9.874  1.0711 -0.3197 -0.6242
  106MOL0     O14211   1.254  10.915   9.936  0.4463  0.2099 -0.1764
  106MOL0     C14212   1.350  11.023   9.927 -0.0654 -0.6497 -0.5752
  106MOL0     C14213   1.441  10.988  10.040 -0.7319  0.0125  0.6727
  106MOL0     C14214   1.587  11.016  10.016  0.0852 -0.6496  0.8798
  106MOL0     C14215   1.664  10.912   9.933 -0.0801 -0.6508  0.6987
  106MOL0     C14216   1.822  10.915   9.929 -0.9861 -0.0569 -0.4602
  106MOL0     C14217   1.871  10.782   9.850  0.6211 -0.9051 -0.1928
  106MOL0     C14218   1.861  10.648   9.932  0.0667 -1.1420 -0.0262
  106MOL0     C14219   1.965  10.532   9.907  0.4149 -0.6952  0.0467
  106MOL0    Cl14220   1.951  10.455   9.750 -0.2261 -0.0394  0.1582
  106MOL0     C14221   1.377  10.784   9.761 -0.0963 -0.3596  0.2723
  106MOL0     C14222   1.406  10.662   9.704 -0.0179  0.1456 -0.2196
  106MOL0     O14223   1.584  10.414   9.761  0.4191  0.8507  0.0812
  106MOL0     C14224   1.635  10.171   9.646  0.4561  0.1447  0.1226
  106MOL0     C14225   1.663  10.048   9.585 -0.2121  0.1256 -0.1467
  106MOL0     N14226   2.065   9.346   9.505  0.1236  0.3686  0.2396
  106MOL0     N14227   2.192   9.338   9.480  0.3070 -0.2659  0.0226
  106MOL0     C14228   2.797   9.172  10.165 -0.6242  0.2876 -0.1078
  106MOL0     C14229   2.865   9.070  10.226 -0.2818  0.2202 -1.1224
  106MOL0     C14230   3.272   8.875  10.388 -0.5387  0.4484  0.2483
  106MOL0     C14231   3.394   8.882  10.453 -0.3849  0.8392 -1.0130
  106MOL0     C14232   3.467   8.775  10.505 -0.0612 -0.6135 -0.2713
  106MOL0     C14233   3.421   8.643  10.484  0.0613  0.1304 -0.0177
  106MOL0     O14234   3.499   8.534  10.498  0.3223 -0.4543  0.0005
  106MOL0     C14235   3.614   8.539  10.586 -0.1565 -0.2970  0.1864
  106MOL0     C14236   3.684   8.396  10.580  0.1709 -0.8073  0.3552
  106MOL0     C14237   3.797   8.383  10.685  0.5580 -0.1464 -0.9183
  106MOL0     C14238   3.872   8.254  10.677  0.4834  0.4958 -0.3431
  106MOL0     C14239   3.935   8.249  10.549 -0.8833 -0.4129 -0.2428
  106MOL0     C14240   4.002   8.234  10.450 -0.1717 -0.4584  0.2650
  106MOL0     C14241   3.291   8.627  10.428 -0.3721 -0.1804 -0.4436
  106MOL0     C14242   3.223   8.740  10.370  0.2626  0.2686  0.1384
  106MOL0     H14243   3.171   9.172  10.136 -0.2280 -1.7111  1.1117
  106MOL0     H14244   3.045   9.362  10.041 -2.4783 -0.7911 -3.8799
  106MOL0     H14245   2.848   9.562  10.095  0.8548 -0.5602  0.1164
  106MOL0     H14246   2.902   9.490   9.943 -0.5513  0.6263 -1.2312
  106MOL0     H14247   2.626   9.619   9.989 -1.5480  2.0669 -2.5356
  106MOL0     H14248   2.754   9.667   9.875  0.0903 -2.6021 -2.4843
  106MOL0     H14249   2.589   9.402   9.877 -1.3543  1.0495 -0.1805
  106MOL0     H14250   2.560   9.545   9.774 -0.9705 -3.4182 -2.5879
  106MOL0     H14251   2.777   9.517   9.674 -0.7941 -0.4025 -3.0864
  106MOL0     H14252   2.802   9.369   9.764  1.0026 -0.5232 -0.8806
  106MOL0     H14253   2.719   9.360   9.518  0.9802 -0.9362  0.1613
  106MOL0     H14254   2.621   9.261   9.627 -4.0107  0.7027 -2.4699
  106MOL0     H14255   2.453   9.420   9.636  2.1055 -1.4875  1.9543
  106MOL0     H14256   2.574   9.538   9.554  2.9204 -0.6735  2.7032
  106MOL0     H14257   2.566   9.375   9.347  1.6592 -2.1119  2.1028
  106MOL0     H14258   2.439   9.286   9.439 -1.5789  0.4228 -2.5197
  106MOL0     H14259   2.344   9.423   9.254  0.0718 -3.2638  0.5462
  106MOL0     H14260   2.392   9.571   9.343 -1.4051 -0.6974 -2.2138
  106MOL0     H14261   2.128   9.643   9.399 -0.4647 -0.7744 -0.6643
  106MOL0     H14262   1.829   9.474   9.555  0.5764 -0.3557 -0.2469
  106MOL0     H14263   1.911   9.635   9.554  2.6368  1.2591 -1.8108
  106MOL0     H14264   1.820   9.509   9.293 -2.4793  1.7307 -1.6092
  106MOL0     H14265   1.886   9.671   9.328 -0.8038 -0.5062 -1.2835
  106MOL0     H14266   1.641   9.573   9.444  1.4713  0.0739  0.9573
  106MOL0     H14267   1.655   9.670   9.293  1.0999  2.0218  0.3493
  106MOL0     H14268   1.742   9.857   9.414  2.2796 -1.6446 -0.6391
  106MOL0     H14269   1.747   9.758   9.559  1.7482 -0.4636 -1.2817
  106MOL0     H14270   1.347   9.932   9.558 -0.1411  0.4250  3.4651
  106MOL0     H14271   1.208  10.225   9.652 -1.7368 -0.0554  1.4477
  106MOL0     H14272   1.209  10.043   9.686  0.6463  0.1093  1.1548
  106MOL0     H14273   1.270  10.165   9.800 -2.0506 -0.5015  0.4739
  106MOL0     H14274   1.173  10.484   9.874 -2.9648  0.8411 -5.0224
  106MOL0     H14275   1.132  10.689   9.974  1.4481 -1.4139  1.3456
  106MOL0     H14276   1.394  11.043   9.829 -1.2990 -1.0346 -1.2156
  106MOL0     H14277   1.296  11.115   9.951  0.7989 -0.0080 -0.9991
  106MOL0     H14278   1.405  11.050  10.123 -0.6308  2.2099 -0.8386
  106MOL0     H14279   1.432  10.889  10.086  2.2157 -0.0791  1.2843
  106MOL0     H14280   1.635  11.012  10.114 -1.6206 -3.0587  1.7198
  106MOL0     H14281   1.597  11.114   9.968 -0.1199  0.1778  2.4613
  106MOL0     H14282   1.635  10.816   9.976 -1.6059 -1.8178 -2.6731
  106MOL0     H14283   1.627  10.919   9.831 -0.6408 -1.3591  0.8491
  106MOL0     H14284   1.868  10.920  10.028 -0.7146 -2.0561 -0.4310
  106MOL0     H14285   1.847  11.003   9.871 -1.5294 -2.6712 -5.1482
  106MOL0     H14286   1.804  10.763   9.766  0.3225  0.6583 -0.3334
  106MOL0     H14287   1.974  10.799   9.817  0.4164 -0.2592 -0.5195
  106MOL0     H14288   1.764  10.601   9.911  0.7516 -1.8433 -1.7887
  106MOL0     H14289   1.863  10.682  10.036 -1.0763 -0.1323 -0.3089
  106MOL0     H14290   1.948  10.456   9.984  0.6581  0.8887  1.7292
  106MOL0     H14291   2.064  10.578   9.917  0.3114 -0.2007 -1.0204
  106MOL0     H14292   1.436  10.865   9.720 -2.1389  1.3199  0.4762
  106MOL0     H14293   1.471  10.652   9.618  2.8398  0.1285  1.7935
  106MOL0     H14294   1.710  10.245   9.673 -0.0566  0.3187  1.0886
  106MOL0     H14295   1.768  10.022   9.574 -0.3490 -0.0246 -1.3181
  106MOL0     H14296   2.689   9.169  10.152 -0.4049  1.4462 -2.9039
  106MOL0     H14297   2.825   8.985  10.280 -0.1643 -0.9629 -2.8483
  106MOL0     H14298   3.435   8.983  10.452  0.3982  0.5259 -0.6171
  106MOL0     H14299   3.568   8.798  10.538  0.2300  4.2442 -3.5560
  106MOL0     H14300   3.680   8.618  10.547 -1.6880  1.3651  0.8050
  106MOL0     H14301   3.587   8.560  10.690 -2.9722  0.4093 -0.5931
  106MOL0     H14302   3.723   8.380  10.479 -0.3872 -1.8157  0.2882
  106MOL0     H14303   3.609   8.320  10.602 -0.1264 -0.7154 -0.2969
  106MOL0     H14304   3.761   8.391  10.789  2.1249 -1.9622 -0.1794
  106MOL0     H14305   3.867   8.467  10.677  0.4985 -0.2120 -2.3832
  106MOL0     H14306   3.814   8.163  10.694  1.3723  0.0475  0.3643
  106MOL0     H14307   3.943   8.261  10.760 -0.4525 -2.8549  0.8747
  106MOL0     H14308   4.067   8.220  10.366  0.9817  2.8824  0.4549
  106MOL0     H14309   3.235   8.535  10.416 -1.9097  0.8032 -1.2841
  106MOL0     H14310   3.142   8.715  10.303 -0.1183 -0.1248  0.7300
  107MOL0     O14311   3.623   6.756   7.187 -0.1706 -0.8050  0.1527
  107MOL0     C14312   3.616   6.693   7.084  0.1410 -0.3299  0.4068
  107MOL0     O14313   3.721   6.649   7.013  0.4729 -1.0827 -0.2500
  107MOL0     C14314   3.850   6.655   7.068 -0.1821  0.7400 -0.1158
  107MOL0     C14315   3.879   6.615   7.203  0.8859 -0.1676  0.4285
  107MOL0     C14316   4.016   6.594   7.243 -0.5736 -1.0530 -0.5275
  107MOL0     C14317   4.117   6.616   7.152 -0.6888 -0.1550  0.3188
  107MOL0     O14318   4.244   6.594   7.187 -0.7429 -0.2472  0.0204
  107MOL0     C14319   4.343   6.683   7.146 -0.2363 -0.9746 -0.2074
  107MOL0     C14320   4.432   6.714   7.264  0.1044 -0.0562 -1.2315
  107MOL0     C14321   4.500   6.586   7.315  1.0296 -0.1761  0.5919
  107MOL0     C14322   4.620   6.540   7.234 -0.5589 -0.7390 -0.0889
  107MOL0     C14323   4.713   6.451   7.307 -0.4154 -0.5112 -0.4973
  107MOL0     C14324   4.813   6.521   7.408 -0.4226  0.0790  0.8987
  107MOL0     C14325   4.894   6.416   7.488 -0.6340  0.0587 -0.4722
  107MOL0     C14326   5.002   6.465   7.582 -0.3654  0.0730 -0.7309
  107MOL0     N14327   5.123   6.506   7.515  0.5742  0.3479  0.5708
  107MOL0     C14328   5.148   6.533   7.378  0.9083 -1.1382  0.4050
  107MOL0     C14329   5.263   6.610   7.379  0.0158  0.5423 -0.0258
  107MOL0     C14330   5.333   6.683   7.258  0.3545  0.4424 -1.0522
  107MOL0     C14331   5.237   6.787   7.198 -0.0808 -0.6194 -0.1558
  107MOL0     C14332   5.222   6.778   7.046  0.4611 -0.6841 -0.4390
  107MOL0     C14333   5.184   6.911   6.975  0.1344  0.4195  0.9299
  107MOL0     O14334   5.054   6.942   7.015 -0.5905 -0.1982 -0.1750
  107MOL0     C14335   4.950   6.898   6.937 -0.5994  0.1691  0.9510
  107MOL0     C14336   4.947   6.896   6.797 -0.7059 -0.0261  0.1331
  107MOL0     C14337   4.831   6.864   6.725 -0.6889  0.8592  0.5776
  107MOL0     C14338   4.841   6.893   6.578 -0.1782 -0.0494  0.0171
  107MOL0     C14339   4.710   6.831   6.794 -0.3648  0.4148  0.5072
  107MOL0     C14340   4.574   6.805   6.724 -0.0879 -0.3330  0.1801
  107MOL0     O14341   4.467   6.792   6.804 -0.3075  0.2544 -0.6250
  107MOL0     C14342   4.336   6.794   6.749  0.4483 -0.2988 -0.1615
  107MOL0     C14343   4.247   6.891   6.799  0.6854  1.0490  0.4342
  107MOL0     C14344   4.112   6.894   6.760  0.5295  0.4921  0.0023
  107MOL0     C14345   4.058   6.786   6.674  0.1346 -0.6262 -0.1444
  107MOL0     O14346   3.922   6.779   6.671 -0.2834  0.0758 -0.0600
  107MOL0     C14347   3.857   6.671   6.591  0.2046 -0.6397  0.1006
  107MOL0     C14348   3.702   6.692   6.589 -0.3296  0.6807  0.9335
  107MOL0     C14349   3.617   6.581   6.525  0.1148 -0.1314  0.3682
  107MOL0     C14350   3.556   6.635   6.395 -0.2966 -0.8447 -0.3116
  107MOL0     C14351   3.497   6.525   6.307 -0.1489 -0.1612 -0.6155
  107MOL0     C14352   3.401   6.429   6.387 -0.4502  0.0996  1.1216
  107MOL0     C14353   3.345   6.317   6.303 -0.4545  1.1893  0.6728
  107MOL0     C14354   3.240   6.366   6.196  0.2585 -0.1566  0.0057
  107MOL0    Cl14355   3.095   6.405   6.289  0.4732  0.3444 -0.1650
  107MOL0     C14356   4.146   6.681   6.640 -0.5914  0.3486 -0.2498
  107MOL0     C14357   4.286   6.692   6.673 -0.3495 -0.4839  0.3560
  107MOL0     O14358   4.563   6.809   6.599 -0.6220  0.2267  0.5532
  107MOL0     C14359   4.717   6.819   6.933 -0.1900  0.3387 -0.0621
  107MOL0     C14360   4.829   6.857   6.997  0.0149 -0.6519 -0.1616
  107MOL0     N14361   5.302   6.629   7.512  1.0405  0.1704 -0.0758
  107MOL0     N14362   5.225   6.567   7.590  0.4615 -0.7465 -0.4350
  107MOL0     C14363   4.084   6.649   7.023  0.4063  0.0130  0.5491
  107MOL0     C14364   3.948   6.664   6.973 -0.5954  0.1153  0.1415
  107MOL0     C14365   3.485   6.654   7.039  0.6621  0.1142  0.6833
  107MOL0     C14366   3.370   6.681   7.117  0.2017  0.2292  0.4119
  107MOL0     C14367   3.250   6.630   7.078 -0.1077 -0.2251 -0.1773
  107MOL0     C14368   3.233   6.548   6.964  0.0391 -0.0031  0.9495
  107MOL0     O14369   3.111   6.494   6.932 -1.1466  1.0036 -0.1742
  107MOL0     C14370   3.084   6.481   6.792  0.3467  0.0669  0.0742
  107MOL0     C14371   2.928   6.495   6.784 -0.3059  0.8348  0.5944
  107MOL0     C14372   2.855   6.627   6.816 -0.5229 -0.4334 -0.8570
  107MOL0     C14373   2.872   6.729   6.709  0.2245  0.9670  0.0600
  107MOL0     C14374   3.011   6.780   6.702  0.4791 -0.2996 -0.5081
  107MOL0     C14375   3.121   6.804   6.667 -0.2268  0.1417  0.4917
  107MOL0     C14376   3.343   6.542   6.881 -0.3798 -0.3365  0.1958
  107MOL0     C14377   3.465   6.593   6.912  0.0598  0.9182 -0.7447
  107MOL0     H14378   3.811   6.583   7.281  1.5472  0.6879  1.3832
  107MOL0     H14379   4.024   6.572   7.349  0.1912  1.6401  0.0262
  107MOL0     H14380   4.396   6.660   7.053 -1.3903  0.1586 -1.1750
  107MOL0     H14381   4.294   6.777   7.122 -2.7280 -1.9635  0.6672
  107MOL0     H14382   4.511   6.785   7.236  3.5146 -1.8424  2.7153
  107MOL0     H14383   4.374   6.752   7.349  1.1429 -1.5785  0.2290
  107MOL0     H14384   4.531   6.609   7.417 -0.4841  3.4457  0.3825
  107MOL0     H14385   4.424   6.508   7.324  0.9354 -0.0801  0.6198
  107MOL0     H14386   4.575   6.488   7.149 -1.4360  0.1998 -0.2157
  107MOL0     H14387   4.671   6.631   7.200 -0.5850 -0.9226 -0.6317
  107MOL0     H14388   4.649   6.386   7.367  1.6117 -0.2434  2.1522
  107MOL0     H14389   4.770   6.395   7.231  0.2732  0.5088 -0.7550
  107MOL0     H14390   4.879   6.585   7.349 -0.5544 -0.3371  0.2832
  107MOL0     H14391   4.761   6.587   7.478  0.3527 -0.9333  2.4804
  107MOL0     H14392   4.818   6.371   7.551 -1.6086 -0.5945 -2.0500
  107MOL0     H14393   4.929   6.340   7.418  0.0010 -0.9983  0.9575
  107MOL0     H14394   5.024   6.382   7.650 -0.2015  1.2046  0.6274
  107MOL0     H14395   4.960   6.543   7.645  0.7572 -1.4409  2.0784
  107MOL0     H14396   5.080   6.527   7.294  1.9286  0.2028 -0.5798
  107MOL0     H14397   5.421   6.732   7.300 -0.1080 -0.9121  1.7711
  107MOL0     H14398   5.377   6.613   7.187  1.2060 -0.5742  0.4251
  107MOL0     H14399   5.279   6.887   7.215 -2.6754  0.1652  2.5855
  107MOL0     H14400   5.138   6.787   7.246  0.8184  1.4077  1.8948
  107MOL0     H14401   5.165   6.688   7.018  1.9415 -1.8985  0.2604
  107MOL0     H14402   5.325   6.761   7.012 -0.4102 -0.6477 -3.3293
  107MOL0     H14403   5.190   6.900   6.866 -2.0088 -2.3060  0.9778
  107MOL0     H14404   5.253   6.985   7.016  2.3082 -2.5741  3.0733
  107MOL0     H14405   5.038   6.920   6.742 -0.4642 -0.2887  0.4128
  107MOL0     H14406   4.829   6.798   6.526  1.5774 -0.1097 -0.3198
  107MOL0     H14407   4.756   6.955   6.546 -0.1746  1.2507  2.2672
  107MOL0     H14408   4.933   6.943   6.546 -0.8587  2.3849  1.5449
  107MOL0     H14409   4.279   6.958   6.879 -2.3483 -0.2037  2.9255
  107MOL0     H14410   4.041   6.967   6.798  1.2437  0.5180  1.3381
  107MOL0     H14411   3.874   6.677   6.483 -1.4590 -0.2058 -0.1690
  107MOL0     H14412   3.886   6.581   6.646  2.4110  0.0696  0.1959
  107MOL0     H14413   3.661   6.711   6.689 -1.0942  2.3903  0.3366
  107MOL0     H14414   3.681   6.783   6.533  1.6750 -0.1731 -1.3433
  107MOL0     H14415   3.540   6.549   6.595  0.0629 -2.2528 -0.5940
  107MOL0     H14416   3.672   6.491   6.497 -0.1131  1.0256 -5.0098
  107MOL0     H14417   3.476   6.706   6.416  0.5139 -0.2547  0.9423
  107MOL0     H14418   3.630   6.690   6.337 -0.6808 -0.7171 -0.6819
  107MOL0     H14419   3.573   6.464   6.257 -0.4049 -0.5578 -0.5290
  107MOL0     H14420   3.439   6.569   6.226 -3.1253 -0.7524  1.0427
  107MOL0     H14421   3.457   6.379   6.466  2.3573  1.1330 -0.1022
  107MOL0     H14422   3.316   6.480   6.432 -1.4010 -1.2453  0.9334
  107MOL0     H14423   3.306   6.242   6.373  3.1800  1.5124  3.3044
  107MOL0     H14424   3.421   6.263   6.246 -1.0855  1.5269 -0.5195
  107MOL0     H14425   3.206   6.296   6.119 -0.8624  1.3192 -0.8830
  107MOL0     H14426   3.273   6.457   6.145 -4.5886  0.0712 -3.4093
  107MOL0     H14427   4.113   6.588   6.594  0.0624  0.4551 -0.9552
  107MOL0     H14428   4.356   6.610   6.658  0.8365  0.7290 -1.0442
  107MOL0     H14429   4.627   6.792   6.987 -2.0039  1.1306 -2.4920
  107MOL0     H14430   4.823   6.852   7.106  2.6420  1.2638  0.1846
  107MOL0     H14431   4.162   6.664   6.949 -0.8632  0.5999 -0.7168
  107MOL0     H14432   3.928   6.664   6.867 -1.6236  1.8746  0.2929
  107MOL0     H14433   3.367   6.739   7.208 -0.8861 -0.4636  0.8440
  107MOL0     H14434   3.165   6.655   7.140 -0.8043  1.9961 -1.8928
  107MOL0     H14435   3.135   6.552   6.726 -1.7697  2.1833  0.5560
  107MOL0     H14436   3.108   6.380   6.759  0.5493 -0.7074  2.4599
  107MOL0     H14437   2.890   6.429   6.862  1.5322  0.6653  1.3940
  107MOL0     H14438   2.899   6.455   6.687 -1.6818 -1.6073  1.9154
  107MOL0     H14439   2.894   6.667   6.910 -5.2225 -0.2719  1.3345
  107MOL0     H14440   2.748   6.614   6.838 -0.8674  1.7569 -1.0223
  107MOL0     H14441   2.813   6.819   6.729 -1.5007 -0.0698 -0.1291
  107MOL0     H14442   2.847   6.685   6.613  4.2181 -1.1815 -0.1771
  107MOL0     H14443   3.208   6.844   6.619  0.8117 -0.8045  1.5264
  107MOL0     H14444   3.335   6.489   6.787 -2.8821  1.3480 -0.6441
  107MOL0     H14445   3.547   6.580   6.842 -0.4901  1.4052 -1.4953
  108MOL0     O14446   4.178   7.323   5.465 -0.0217  0.4929  0.0041
  108MOL0     C14447   4.279   7.282   5.416 -0.0511 -0.4084  0.0764
  108MOL0     O14448   4.382   7.222   5.475 -0.8107  0.0820 -0.4897
  108MOL0     C14449   4.380   7.191   5.612 -0.0741  0.6689  0.7611
  108MOL0     C14450   4.417   7.060   5.643 -0.7452  0.1794  0.1790
  108MOL0     C14451   4.434   7.021   5.776 -0.2170 -0.8794 -0.2063
  108MOL0     C14452   4.416   7.122   5.876 -0.6843  0.4218 -0.4003
  108MOL0     O14453   4.430   7.078   6.007  0.8163 -0.2481  0.4127
  108MOL0     C14454   4.469   7.165   6.114 -0.5440 -0.1982  0.1291
  108MOL0     C14455   4.353   7.239   6.192 -1.0898  0.2796  0.0216
  108MOL0     C14456   4.235   7.148   6.234  0.2489 -0.0682 -0.3913
  108MOL0     C14457   4.209   7.149   6.385  0.1888 -0.5066 -0.1337
  108MOL0     C14458   4.087   7.077   6.436 -0.3784  0.0405 -0.7333
  108MOL0     C14459   3.958   7.160   6.415 -0.6664  0.1125 -0.3497
  108MOL0     C14460   3.835   7.068   6.432 -0.4401 -0.8784  0.1132
  108MOL0     C14461   3.824   6.954   6.330  0.3446  0.3273 -1.3442
  108MOL0     N14462   3.863   7.004   6.201 -0.2891  0.2346  0.4412
  108MOL0     C14463   3.969   6.968   6.114 -0.2750  0.1711 -0.0089
  108MOL0     C14464   3.944   7.048   6.004  0.5272 -0.8629  0.5177
  108MOL0     C14465   4.036   7.051   5.881  0.5389  1.5267  0.3986
  108MOL0     C14466   3.967   6.975   5.763  0.1026 -0.1451  0.2266
  108MOL0     C14467   3.870   7.087   5.704 -1.3275  0.4144  0.1025
  108MOL0     C14468   3.791   7.035   5.586 -0.5550 -0.1756  1.1191
  108MOL0     O14469   3.679   6.947   5.619  0.0854 -0.4296  0.3750
  108MOL0     C14470   3.559   6.988   5.668 -1.2957 -0.1122  0.8064
  108MOL0     C14471   3.534   7.117   5.716  0.5563  0.1733  0.4630
  108MOL0     C14472   3.412   7.153   5.782  0.1625 -0.9292 -0.2551
  108MOL0     C14473   3.407   7.300   5.833  0.0726  0.4541 -0.4015
  108MOL0     C14474   3.307   7.055   5.791 -0.9252  0.1711  1.5107
  108MOL0     C14475   3.170   7.087   5.843 -0.7659 -0.5956 -0.2475
  108MOL0     O14476   3.138   7.206   5.905  0.1485  0.1716 -1.0386
  108MOL0     C14477   3.009   7.233   5.936 -0.2506 -0.2417  0.3181
  108MOL0     C14478   2.932   7.283   5.830  0.3844 -0.0231 -0.8531
  108MOL0     C14479   2.799   7.319   5.849  0.1727  1.3188  0.1704
  108MOL0     C14480   2.741   7.307   5.980 -0.8789 -0.2585  0.2717
  108MOL0     O14481   2.607   7.319   5.993 -0.1073  0.6673  0.2293
  108MOL0     C14482   2.551   7.301   6.119  0.0957 -0.0470 -0.1185
  108MOL0     C14483   2.398   7.328   6.110 -0.8277 -0.4063 -0.3901
  108MOL0     C14484   2.362   7.469   6.137  0.0783 -0.7432  0.3252
  108MOL0     C14485   2.217   7.498   6.090 -0.1337  0.4412 -0.6387
  108MOL0     C14486   2.164   7.635   6.133 -0.0383  0.1750 -0.1106
  108MOL0     C14487   2.009   7.662   6.091  0.2777  0.5453  0.6736
  108MOL0     C14488   1.966   7.801   6.142 -0.0094 -0.0715  0.6938
  108MOL0     C14489   1.823   7.837   6.103 -0.3486  0.7304 -0.0156
  108MOL0    Cl14490   1.785   8.011   6.166 -0.0629 -0.3258 -0.2009
  108MOL0     C14491   2.823   7.260   6.083  0.0768  0.1891  0.8111
  108MOL0     C14492   2.958   7.225   6.065  0.7060 -0.0289 -0.5059
  108MOL0     O14493   3.091   6.989   5.835  0.8575 -0.5866 -1.0086
  108MOL0     C14494   3.327   6.930   5.724 -0.2468  0.3745  1.0217
  108MOL0     C14495   3.452   6.902   5.666  0.2334  0.1715  0.2693
  108MOL0     N14496   3.846   7.140   6.033  0.0534  0.8895 -0.0856
  108MOL0     N14497   3.789   7.102   6.143  0.1533 -0.4438 -0.5139
  108MOL0     C14498   4.379   7.248   5.840  0.5815  0.3844  1.1003
  108MOL0     C14499   4.357   7.285   5.712 -0.6339  0.3189 -0.1395
  108MOL0     C14500   4.273   7.289   5.274 -0.9974  1.3059  0.5975
  108MOL0     C14501   4.398   7.297   5.202  0.5555  0.1651  0.5364
  108MOL0     C14502   4.400   7.312   5.062  0.0392 -0.3474 -0.0848
  108MOL0     C14503   4.281   7.303   4.985 -0.0807  0.2833 -0.1915
  108MOL0     O14504   4.270   7.331   4.852 -0.3702 -0.3020  0.7605
  108MOL0     C14505   4.383   7.346   4.767 -0.0835  0.5463 -0.6954
  108MOL0     C14506   4.423   7.204   4.718 -0.1702  0.4098  0.9272
  108MOL0     C14507   4.576   7.171   4.729 -0.7430 -0.0894 -0.0384
  108MOL0     C14508   4.655   7.260   4.624  0.0823  0.4564  0.1656
  108MOL0     C14509   4.793   7.217   4.628 -0.3736  0.0045  0.1856
  108MOL0     C14510   4.899   7.170   4.607 -0.3684 -0.4885 -0.1448
  108MOL0     C14511   4.165   7.282   5.053 -0.0112  0.0972  0.2991
  108MOL0     C14512   4.159   7.278   5.191  0.3579  0.7489 -0.8582
  108MOL0     H14513   4.443   6.991   5.563 -0.6195 -1.6295  1.7069
  108MOL0     H14514   4.464   6.917   5.787 -1.4978 -1.2754 -0.3584
  108MOL0     H14515   4.516   7.097   6.186 -0.0747  0.7051  0.6895
  108MOL0     H14516   4.548   7.234   6.083  0.4891 -0.4343  2.0840
  108MOL0     H14517   4.403   7.278   6.281  0.3233 -1.2640 -0.0466
  108MOL0     H14518   4.310   7.327   6.142 -2.9026  1.2309  2.9647
  108MOL0     H14519   4.152   7.189   6.176  1.3961  0.7451 -1.5131
  108MOL0     H14520   4.247   7.046   6.198 -2.2912 -0.2924 -0.8124
  108MOL0     H14521   4.293   7.115   6.446  0.7236  2.9933  1.3326
  108MOL0     H14522   4.210   7.251   6.425 -1.0632 -1.0655  1.4342
  108MOL0     H14523   4.086   6.982   6.381 -2.1337 -1.4916  1.6923
  108MOL0     H14524   4.097   7.049   6.541 -3.0844  2.2173  0.2385
  108MOL0     H14525   3.962   7.234   6.495  1.2251 -0.6107  0.2902
  108MOL0     H14526   3.952   7.207   6.317  0.4093  0.0408 -0.4645
  108MOL0     H14527   3.838   7.023   6.531 -0.7531 -2.3293 -0.5137
  108MOL0     H14528   3.745   7.125   6.407  1.4827  1.0875 -3.1214
  108MOL0     H14529   3.723   6.913   6.323 -0.2946  1.5901 -0.0820
  108MOL0     H14530   3.885   6.870   6.364 -1.6087 -0.5399  0.2253
  108MOL0     H14531   4.046   6.893   6.128 -2.7486 -2.3984  0.7285
  108MOL0     H14532   4.067   7.153   5.857  0.5231  1.4106 -0.1205
  108MOL0     H14533   4.122   6.988   5.906 -0.7148 -0.0108  1.0500
  108MOL0     H14534   3.912   6.889   5.802  0.3297  0.7014  2.6253
  108MOL0     H14535   4.048   6.952   5.693 -0.2370  1.8815 -0.9047
  108MOL0     H14536   3.933   7.173   5.681 -3.6087  2.3904  0.8691
  108MOL0     H14537   3.800   7.122   5.781 -2.2650  0.2574 -0.6607
  108MOL0     H14538   3.846   6.974   5.514 -2.7670  0.4923 -1.2768
  108MOL0     H14539   3.742   7.123   5.544 -3.9478 -1.8588  1.2448
  108MOL0     H14540   3.614   7.191   5.715  0.5693  0.2472 -2.3686
  108MOL0     H14541   3.345   7.361   5.767 -0.4237  0.6536  0.2469
  108MOL0     H14542   3.352   7.304   5.927 -0.2569 -0.5606 -0.5354
  108MOL0     H14543   3.506   7.343   5.851 -0.0319 -0.3500  2.6074
  108MOL0     H14544   2.965   7.298   5.728 -1.9018  0.0723 -1.6391
  108MOL0     H14545   2.741   7.346   5.762 -1.0667 -1.2536  0.0937
  108MOL0     H14546   2.569   7.200   6.155  1.3459  0.9054  2.2007
  108MOL0     H14547   2.602   7.373   6.185 -0.8516  3.0135 -2.4731
  108MOL0     H14548   2.365   7.293   6.012 -2.2201 -0.4794  0.0794
  108MOL0     H14549   2.346   7.262   6.181 -0.3758 -0.2206  0.1202
  108MOL0     H14550   2.439   7.535   6.095  1.1922  0.0468  3.3905
  108MOL0     H14551   2.362   7.500   6.241  1.0777  0.2661  0.0388
  108MOL0     H14552   2.215   7.488   5.981  2.9528 -1.5361 -0.6220
  108MOL0     H14553   2.153   7.422   6.136  0.7390  1.0963  1.8082
  108MOL0     H14554   2.218   7.713   6.078  1.0550 -0.1112  0.5396
  108MOL0     H14555   2.178   7.646   6.241  0.2027 -2.5178  0.1949
  108MOL0     H14556   2.002   7.669   5.983 -1.4382  3.7291  0.8684
  108MOL0     H14557   1.931   7.593   6.124 -1.0157  1.9714  0.7047
  108MOL0     H14558   2.036   7.870   6.094  2.0255 -3.4842 -1.6816
  108MOL0     H14559   1.973   7.801   6.251 -0.3331  0.0648  0.7156
  108MOL0     H14560   1.755   7.761   6.142 -0.8789  1.1044 -0.2048
  108MOL0     H14561   1.817   7.838   5.994  2.3152 -2.3212 -0.3191
  108MOL0     H14562   2.783   7.261   6.183 -2.4590  0.5893 -0.1304
  108MOL0     H14563   3.019   7.178   6.141  2.4071 -0.8027 -2.2768
  108MOL0     H14564   3.250   6.854   5.728 -1.2177  1.2859  0.1646
  108MOL0     H14565   3.465   6.802   5.626  0.3949 -1.4986  4.0630
  108MOL0     H14566   4.353   7.316   5.920  0.8450  0.7945  0.8426
  108MOL0     H14567   4.325   7.387   5.692 -4.4085 -0.6662  0.1875
  108MOL0     H14568   4.493   7.304   5.254  0.6725  0.1696  0.3214
  108MOL0     H14569   4.498   7.314   5.016  0.0909  1.5862  0.0114
  108MOL0     H14570   4.349   7.408   4.684  2.1437 -0.0600 -2.1473
  108MOL0     H14571   4.464   7.379   4.833  1.0931  0.2362 -1.9520
  108MOL0     H14572   4.398   7.190   4.612  1.2086  0.1158  0.6200
  108MOL0     H14573   4.361   7.130   4.770 -1.6626  0.9507 -0.0150
  108MOL0     H14574   4.604   7.068   4.706 -0.1349 -0.1364  0.8480
  108MOL0     H14575   4.607   7.202   4.829  3.9039  0.2084 -1.3664
  108MOL0     H14576   4.644   7.364   4.657  1.5563  0.2542  1.3903
  108MOL0     H14577   4.614   7.265   4.523  0.6905  1.2213 -0.0495
  108MOL0     H14578   4.995   7.129   4.584  0.0473  0.9232 -1.1092
  108MOL0     H14579   4.073   7.269   4.996  1.9651  2.2501 -3.9013
  108MOL0     H14580   4.067   7.255   5.244  1.0362 -0.9726 -0.3509
  109MOL0     O14581   4.637  10.100   0.523  0.1159  0.7791  0.0795
  109MOL0     C14582   4.756  10.114   0.561 -0.0721 -0.7086  0.4113
  109MOL0     O14583   4.853  10.024   0.543 -0.3562  1.1645 -0.1036
  109MOL0     C14584   4.827   9.900   0.494  0.4509 -0.3250 -1.2699
  109MOL0     C14585   4.774   9.886   0.360  0.3808  0.6989 -1.1567
  109MOL0     C14586   4.747   9.763   0.306 -0.2620  0.7173  0.2924
  109MOL0     C14587   4.750   9.647   0.392  0.3282  0.1939  0.2218
  109MOL0     O14588   4.726   9.513   0.345  0.3996  0.1173 -1.1561
  109MOL0     C14589   4.691   9.480   0.208 -0.2802  0.1628 -0.2404
  109MOL0     C14590   4.551   9.511   0.170 -0.0823 -1.4475  0.1509
  109MOL0     C14591   4.531   9.532   0.019  0.4073 -0.4515 -0.1685
  109MOL0     C14592   4.384   9.558  -0.009  0.5813  0.2550 -0.0139
  109MOL0     C14593   4.355   9.600  -0.156  0.0578 -0.8293 -0.2893
  109MOL0     C14594   4.203   9.640  -0.175 -0.0750  0.6640 -0.2403
  109MOL0     C14595   4.186   9.666  -0.322 -0.4106 -0.3613 -0.0890
  109MOL0     C14596   4.060   9.736  -0.374  0.0263  0.6399 -0.5166
  109MOL0     N14597   4.068   9.879  -0.401  1.0915  0.2248 -0.3451
  109MOL0     C14598   4.048   9.940  -0.524  0.7691  0.5675  0.3526
  109MOL0     C14599   4.074  10.075  -0.508 -0.2016  0.1495  0.1942
  109MOL0     C14600   4.066  10.193  -0.616 -0.0060  0.5031 -0.1076
  109MOL0     C14601   4.194  10.267  -0.650  0.2030 -0.4462 -0.5344
  109MOL0     C14602   4.309  10.166  -0.676  0.1797  0.0221  0.9245
  109MOL0     C14603   4.436  10.242  -0.705  0.2595  0.0893  0.1356
  109MOL0     O14604   4.436  10.297  -0.836 -0.6735 -0.4795  0.8194
  109MOL0     C14605   4.525  10.395  -0.881 -0.5894 -0.3985 -0.2430
  109MOL0     C14606   4.644  10.431  -0.818 -0.3521  0.7943  0.5053
  109MOL0     C14607   4.740  10.523  -0.877 -0.7623  0.2367 -0.6137
  109MOL0     C14608   4.869  10.544  -0.802  0.0921  0.0194  0.2541
  109MOL0     C14609   4.696  10.586  -1.004 -0.2546  0.3092 -0.2689
  109MOL0     C14610   4.774  10.684  -1.094  0.0502  0.8787  0.4148
  109MOL0     O14611   4.726  10.691  -1.226  0.8078 -0.0420  0.0242
  109MOL0     C14612   4.780  10.771  -1.318 -0.0218  0.4216 -0.4577
  109MOL0     C14613   4.806  10.905  -1.291 -0.6997 -0.7203  0.9654
  109MOL0     C14614   4.871  10.986  -1.388  0.7192  0.1212  1.0442
  109MOL0     C14615   4.917  10.932  -1.510  0.2016 -0.2201  0.6960
  109MOL0     O14616   4.997  11.006  -1.604  0.1821  0.4684  0.0251
  109MOL0     C14617   5.004  11.150  -1.588 -1.1178  0.0215 -0.1242
  109MOL0     C14618   5.104  11.193  -1.685 -0.0819 -0.0077  0.5186
  109MOL0     C14619   5.120  11.118  -1.820  0.0054  1.0729 -0.2042
  109MOL0     C14620   5.210  11.194  -1.921  0.0099 -0.0350  0.0121
  109MOL0     C14621   5.222  11.115  -2.062 -0.6556  0.5253  0.5040
  109MOL0     C14622   5.082  11.086  -2.132  0.1960 -1.1114 -0.5364
  109MOL0     C14623   5.113  11.043  -2.278  0.7469 -0.2735  0.2526
  109MOL0     C14624   5.130  11.153  -2.384 -0.5370 -0.7565 -0.5884
  109MOL0    Cl14625   5.139  11.073  -2.543 -0.1505  0.3209  0.2244
  109MOL0     C14626   4.891  10.798  -1.531  0.5771 -0.4133  0.1444
  109MOL0     C14627   4.819  10.719  -1.445 -0.1927  0.3297 -0.1893
  109MOL0     O14628   4.878  10.721  -1.054 -0.7547  0.0896  0.3902
  109MOL0     C14629   4.565  10.557  -1.051 -0.3616 -0.3431  0.3052
  109MOL0     C14630   4.477  10.464  -0.999 -1.6735  0.4505 -0.3418
  109MOL0     N14631   4.113  10.093  -0.381 -0.1767 -0.4913 -0.7618
  109MOL0     N14632   4.098   9.980  -0.316 -0.1037 -0.2965  0.7247
  109MOL0     C14633   4.783   9.660   0.525  0.6120 -1.0990 -0.3777
  109MOL0     C14634   4.824   9.787   0.577  0.7044 -0.1950 -0.4686
  109MOL0     C14635   4.788  10.248   0.609 -0.7161 -0.1208 -0.1663
  109MOL0     C14636   4.906  10.281   0.667  0.3808 -0.0314  0.5615
  109MOL0     C14637   4.932  10.396   0.732  0.1785  0.4871  0.3483
  109MOL0     C14638   4.836  10.493   0.740  0.2112  0.1594  0.0113
  109MOL0     O14639   4.888  10.605   0.804 -0.1645  0.6231  0.0176
  109MOL0     C14640   4.811  10.720   0.781 -0.4887  0.3455 -0.2062
  109MOL0     C14641   4.885  10.848   0.814  0.6231 -0.2124  0.3106
  109MOL0     C14642   5.000  10.864   0.718 -0.3106 -0.3369 -0.6362
  109MOL0     C14643   4.959  10.909   0.570 -0.3054  1.0833 -0.7686
  109MOL0     C14644   4.963  10.800   0.469  0.8037 -0.2001  0.7389
  109MOL0     C14645   4.959  10.712   0.385  0.2188  0.3857 -0.0873
  109MOL0     C14646   4.713  10.473   0.672 -0.5805  0.2562  0.1242
  109MOL0     C14647   4.686  10.347   0.615 -0.0683  0.7237 -0.3236
  109MOL0     H14648   4.774   9.977   0.300  2.3920  0.6461 -1.3116
  109MOL0     H14649   4.734   9.753   0.198 -1.9056  0.6568  0.4719
  109MOL0     H14650   4.767   9.541   0.159 -1.8390  3.2110  0.8511
  109MOL0     H14651   4.712   9.375   0.187 -2.8545 -0.6065  0.6602
  109MOL0     H14652   4.483   9.434   0.207 -1.4337  0.1116  1.0362
  109MOL0     H14653   4.516   9.597   0.228 -1.6426  0.1489 -2.8912
  109MOL0     H14654   4.586   9.611  -0.033  0.3029  0.9073  1.7036
  109MOL0     H14655   4.550   9.433  -0.025 -0.5848 -0.2268 -1.1388
  109MOL0     H14656   4.329   9.469   0.021  2.0324 -1.0024 -0.9361
  109MOL0     H14657   4.343   9.636   0.056 -0.2951 -0.6951  0.5910
  109MOL0     H14658   4.409   9.692  -0.179 -2.7418  1.5049  1.8121
  109MOL0     H14659   4.383   9.528  -0.234  1.6676  1.4619 -1.9617
  109MOL0     H14660   4.148   9.550  -0.146  1.3601 -1.4791 -3.5206
  109MOL0     H14661   4.185   9.731  -0.117  0.5753  2.3740 -2.5527
  109MOL0     H14662   4.264   9.735  -0.355 -0.0855  0.1702  1.7124
  109MOL0     H14663   4.193   9.571  -0.375  2.9954  0.2149 -0.9427
  109MOL0     H14664   3.988   9.714  -0.295  1.5259  0.5663  0.8637
  109MOL0     H14665   4.033   9.676  -0.462  0.6310  2.1863 -1.8137
  109MOL0     H14666   4.008   9.903  -0.618  0.7044  0.4898  0.4106
  109MOL0     H14667   4.035  10.143  -0.708 -0.1620 -0.1235  0.2761
  109MOL0     H14668   3.985  10.262  -0.591  0.0389  0.4090  0.3052
  109MOL0     H14669   4.218  10.327  -0.562 -0.1788 -2.1942  0.8334
  109MOL0     H14670   4.175  10.327  -0.739 -2.2885 -2.8485 -1.7895
  109MOL0     H14671   4.279  10.108  -0.764  0.3892  3.4007 -1.5814
  109MOL0     H14672   4.317  10.096  -0.592 -1.6586 -1.8877 -0.3803
  109MOL0     H14673   4.520  10.174  -0.693  0.0869 -0.4653 -1.5613
  109MOL0     H14674   4.442  10.324  -0.632 -3.1319 -0.2440  0.9812
  109MOL0     H14675   4.658  10.369  -0.730 -1.3380 -1.0564 -0.5876
  109MOL0     H14676   4.946  10.474  -0.834 -1.7149 -1.7085 -0.5132
  109MOL0     H14677   4.902  10.648  -0.807 -0.0774  0.2581  2.9110
  109MOL0     H14678   4.855  10.520  -0.696 -2.1485 -0.5425 -0.1132
  109MOL0     H14679   4.764  10.960  -1.207 -1.0086  1.9516 -0.7984
  109MOL0     H14680   4.884  11.093  -1.373 -0.8819  1.1325 -3.2847
  109MOL0     H14681   4.909  11.197  -1.616 -1.8918 -2.2241 -1.6172
  109MOL0     H14682   5.039  11.176  -1.488 -0.5379  2.4703 -0.8946
  109MOL0     H14683   5.080  11.298  -1.705  1.2160 -0.0897 -1.8396
  109MOL0     H14684   5.201  11.191  -1.633  0.0091 -1.9725  0.3668
  109MOL0     H14685   5.021  11.108  -1.865  0.4475 -0.3708 -0.9171
  109MOL0     H14686   5.167  11.021  -1.803 -0.3153  1.1589  1.3450
  109MOL0     H14687   5.168  11.290  -1.950 -2.8749 -1.6807 -1.7114
  109MOL0     H14688   5.312  11.201  -1.881  0.8009 -0.0867 -1.9013
  109MOL0     H14689   5.284  11.026  -2.052 -2.4770 -0.9528 -0.5441
  109MOL0     H14690   5.267  11.193  -2.123 -4.4955 -0.5220 -4.2765
  109MOL0     H14691   5.024  11.011  -2.077  1.2023 -2.4572 -1.2689
  109MOL0     H14692   5.041  11.187  -2.142  0.4137 -0.8405  1.1211
  109MOL0     H14693   5.035  10.976  -2.314 -1.3824  0.2873  3.4281
  109MOL0     H14694   5.205  10.984  -2.279  0.0544 -1.3758 -0.0865
  109MOL0     H14695   5.221  11.212  -2.375  0.1872 -1.4305 -2.8617
  109MOL0     H14696   5.048  11.225  -2.373  2.8917  3.3321  0.8370
  109MOL0     H14697   4.917  10.745  -1.621  1.6519  1.2132 -0.5495
  109MOL0     H14698   4.820  10.612  -1.464  0.0432 -0.0103  1.6139
  109MOL0     H14699   4.521  10.596  -1.142 -2.4977 -0.6470  1.1492
  109MOL0     H14700   4.380  10.449  -1.045 -2.3518  0.3746  1.0580
  109MOL0     H14701   4.793   9.575   0.591  3.2370  0.4139  1.3528
  109MOL0     H14702   4.862   9.778   0.678  3.5002 -1.8611 -1.5467
  109MOL0     H14703   4.988  10.209   0.673  0.1248 -0.2252  2.3374
  109MOL0     H14704   5.028  10.412   0.781  0.4318  1.2754 -0.3916
  109MOL0     H14705   4.781  10.719   0.676  1.6368  2.6646 -0.9480
  109MOL0     H14706   4.725  10.721   0.848 -1.8038  0.2375 -1.8171
  109MOL0     H14707   4.920  10.845   0.917 -1.9695 -0.4803  1.2514
  109MOL0     H14708   4.817  10.933   0.806  2.0431  0.9298 -0.1533
  109MOL0     H14709   5.068  10.778   0.711  0.3643  0.2726 -2.3905
  109MOL0     H14710   5.061  10.948   0.752 -0.5277 -1.5365  3.0984
  109MOL0     H14711   5.035  10.981   0.538  0.5289  0.1019 -1.0365
  109MOL0     H14712   4.858  10.951   0.577 -0.2918  1.1967 -1.2169
  109MOL0     H14713   4.966  10.619   0.332 -0.1469 -0.2343  0.9318
  109MOL0     H14714   4.647  10.557   0.654 -2.3037 -0.8169  1.1058
  109MOL0     H14715   4.585  10.335   0.576  0.6032  0.1264 -2.0080
  110MOL0     O14716   2.784   8.301   9.041  0.3764  0.0829  0.3638
  110MOL0     C14717   2.764   8.221   9.130 -0.6834  0.3925 -0.9119
  110MOL0     O14718   2.652   8.182   9.186 -0.4708 -0.2415  0.5653
  110MOL0     C14719   2.529   8.175   9.123  1.1311  0.9269  0.3405
  110MOL0     C14720   2.493   8.183   8.991 -0.0981 -0.4887  0.3887
  110MOL0     C14721   2.366   8.168   8.936  0.4902 -0.1936 -0.1454
  110MOL0     C14722   2.261   8.146   9.027  0.0157 -0.4405  0.3434
  110MOL0     O14723   2.136   8.136   8.980  0.2562  0.0685 -1.5340
  110MOL0     C14724   2.090   8.260   8.927 -0.3560  0.7523 -0.7327
  110MOL0     C14725   1.946   8.236   8.881 -0.7166  0.9271  1.0147
  110MOL0     C14726   1.873   8.362   8.835 -0.0940 -0.0719 -0.3665
  110MOL0     C14727   1.738   8.328   8.765  0.7434 -1.0409 -0.3926
  110MOL0     C14728   1.655   8.457   8.735  0.3399 -0.4732 -0.3108
  110MOL0     C14729   1.528   8.412   8.658 -0.1052  0.7940  0.4774
  110MOL0     C14730   1.433   8.534   8.634 -1.1888 -0.8969  0.6741
  110MOL0     C14731   1.352   8.571   8.755  1.3697  0.3285 -0.1856
  110MOL0     N14732   1.248   8.666   8.732 -0.9120  0.2393 -0.1194
  110MOL0     C14733   1.164   8.661   8.630 -1.2798 -0.2142  0.4496
  110MOL0     C14734   1.073   8.754   8.653 -0.1708 -1.1002  0.5110
  110MOL0     C14735   0.934   8.771   8.588 -0.3754  0.2853  0.3357
  110MOL0     C14736   0.824   8.704   8.674 -0.6809 -0.8303 -0.4612
  110MOL0     C14737   0.798   8.778   8.806  0.3918 -0.0670 -0.4453
  110MOL0     C14738   0.786   8.934   8.792  0.0782 -0.3189 -0.0675
  110MOL0     O14739   0.675   8.976   8.709 -0.5156 -0.3935 -0.0494
  110MOL0     C14740   0.552   8.983   8.763  0.4448 -0.4304 -0.4274
  110MOL0     C14741   0.501   8.965   8.901  0.0682  0.0660 -0.5760
  110MOL0     C14742   0.365   8.990   8.941  0.2031 -0.4773 -0.1046
  110MOL0     C14743   0.321   9.001   9.090 -0.4368 -0.7305  0.1421
  110MOL0     C14744   0.272   9.015   8.835  0.0859  0.0465  0.3931
  110MOL0     C14745   0.119   9.030   8.854 -0.0921 -0.1937 -1.0087
  110MOL0     O14746   0.056   9.116   8.775  0.3129  0.1775  0.0326
  110MOL0     C14747  -0.078   9.144   8.801 -0.1440 -0.2549 -0.1200
  110MOL0     C14748  -0.173   9.141   8.693 -0.8336  0.3165  0.3402
  110MOL0     C14749  -0.305   9.181   8.715 -0.1104 -0.6691  0.0462
  110MOL0     C14750  -0.348   9.221   8.839  0.3624 -0.1849 -0.4766
  110MOL0     O14751  -0.477   9.271   8.866  0.1316 -0.1656  0.1323
  110MOL0     C14752  -0.553   9.317   8.749 -0.4174 -0.5467  0.1833
  110MOL0     C14753  -0.687   9.386   8.789  0.3644  0.3722 -0.1575
  110MOL0     C14754  -0.779   9.272   8.839 -0.6880 -0.0227  0.1952
  110MOL0     C14755  -0.921   9.309   8.875 -0.0608  0.0199 -0.2669
  110MOL0     C14756  -1.009   9.184   8.910  0.0365 -0.1626 -0.2643
  110MOL0     C14757  -1.131   9.238   8.995  0.3231  0.0188 -0.3949
  110MOL0     C14758  -1.252   9.138   8.999 -0.0991  0.4788  0.5078
  110MOL0     C14759  -1.324   9.105   8.869 -0.0105 -0.0764  0.3500
  110MOL0    Cl14760  -1.470   9.019   8.899  0.5972 -0.2015 -0.4883
  110MOL0     C14761  -0.257   9.222   8.948  0.9330  0.1622  0.6579
  110MOL0     C14762  -0.127   9.188   8.927 -0.3254  0.6856 -1.1762
  110MOL0     O14763   0.066   8.967   8.948 -0.6060  0.3106 -0.0858
  110MOL0     C14764   0.318   9.036   8.706 -0.3180  0.1112 -0.1258
  110MOL0     C14765   0.455   9.018   8.674  0.7136 -0.0947  0.5975
  110MOL0     N14766   1.117   8.823   8.768  1.0889 -0.3557 -0.2954
  110MOL0     N14767   1.224   8.765   8.811 -0.7897 -0.4391 -0.3838
  110MOL0     C14768   2.295   8.134   9.159 -0.6642  0.6386  0.0431
  110MOL0     C14769   2.425   8.143   9.206  0.7448 -0.5396  1.1603
  110MOL0     C14770   2.885   8.178   9.205  0.3858  0.3043  0.4202
  110MOL0     C14771   3.015   8.216   9.166  0.0661  0.1358 -0.9483
  110MOL0     C14772   3.132   8.161   9.230 -0.1907 -0.2441  0.8510
  110MOL0     C14773   3.111   8.052   9.317  0.5275  0.2203  0.6347
  110MOL0     O14774   3.221   7.985   9.373 -0.4082 -0.3341  0.8998
  110MOL0     C14775   3.358   8.013   9.328 -0.4473  0.1269 -0.9389
  110MOL0     C14776   3.379   7.949   9.189 -1.0210 -0.1608  0.3575
  110MOL0     C14777   3.530   7.970   9.146 -0.5808  0.1059  0.3121
  110MOL0     C14778   3.558   8.107   9.089 -1.0414  0.4571 -0.9076
  110MOL0     C14779   3.682   8.127   9.009 -0.9176  0.6415 -0.0589
  110MOL0     C14780   3.780   8.153   8.936  0.4292  0.2496 -0.1716
  110MOL0     C14781   2.980   8.006   9.344  0.3995  0.5909  0.4927
  110MOL0     C14782   2.867   8.073   9.298 -0.4337 -0.5546  0.5005
  110MOL0     H14783   2.559   8.200   8.906 -0.3303  0.2064  0.3472
  110MOL0     H14784   2.338   8.151   8.833 -1.4274  2.3156 -0.1619
  110MOL0     H14785   2.092   8.341   9.000 -0.2017  0.2628 -0.1847
  110MOL0     H14786   2.143   8.289   8.835  0.8408  0.9334 -0.0052
  110MOL0     H14787   1.941   8.157   8.805  0.1773  1.0039  0.8644
  110MOL0     H14788   1.895   8.209   8.974 -0.8282 -1.3389  0.3589
  110MOL0     H14789   1.864   8.432   8.918 -0.1652  0.1545 -0.5656
  110MOL0     H14790   1.925   8.406   8.750 -3.9330  0.9039 -2.4229
  110MOL0     H14791   1.760   8.286   8.666  0.6245 -1.7865 -0.1079
  110MOL0     H14792   1.681   8.259   8.828  1.8336 -0.2564  1.5364
  110MOL0     H14793   1.633   8.503   8.832  3.6512 -0.4032  0.5407
  110MOL0     H14794   1.707   8.530   8.671  0.7894  0.1320  0.7197
  110MOL0     H14795   1.553   8.366   8.561  0.2391  0.5191  0.6936
  110MOL0     H14796   1.476   8.335   8.715 -0.0996 -0.1656 -0.7717
  110MOL0     H14797   1.490   8.622   8.602 -3.4170  0.4457  0.2198
  110MOL0     H14798   1.367   8.513   8.549 -0.0269 -2.5213  0.1119
  110MOL0     H14799   1.419   8.595   8.838  0.4792  3.4237 -0.2687
  110MOL0     H14800   1.300   8.478   8.778  2.7093 -0.6172 -0.8068
  110MOL0     H14801   1.163   8.598   8.542 -2.2411 -1.2326  1.1650
  110MOL0     H14802   0.924   8.876   8.560 -0.1581  0.8627  2.2781
  110MOL0     H14803   0.930   8.715   8.494  1.4353 -0.4601  0.6553
  110MOL0     H14804   0.852   8.600   8.694 -1.9351 -1.4750 -1.8894
  110MOL0     H14805   0.729   8.704   8.619 -0.5872 -1.4106 -0.6241
  110MOL0     H14806   0.876   8.749   8.878  1.9966 -0.1562 -2.1576
  110MOL0     H14807   0.702   8.736   8.841 -0.0904  2.0433  0.9620
  110MOL0     H14808   0.869   8.993   8.752  2.1679 -2.0901  1.4110
  110MOL0     H14809   0.776   8.978   8.892  1.7108  0.6444 -0.2893
  110MOL0     H14810   0.557   8.917   8.981 -2.9795 -4.5858 -0.8660
  110MOL0     H14811   0.281   8.907   9.128 -1.1850  0.0673  1.4264
  110MOL0     H14812   0.411   9.016   9.150 -1.1193 -0.3727  1.1012
  110MOL0     H14813   0.242   9.073   9.114 -0.6761 -1.7047  2.5741
  110MOL0     H14814  -0.150   9.114   8.591 -1.6629 -1.5146  0.5963
  110MOL0     H14815  -0.368   9.190   8.627  1.2039  4.2894 -0.6988
  110MOL0     H14816  -0.496   9.385   8.685 -0.0488 -1.0897 -0.0771
  110MOL0     H14817  -0.577   9.235   8.681 -0.2891  0.2963 -0.9232
  110MOL0     H14818  -0.687   9.457   8.873  0.0733 -1.8032  1.7745
  110MOL0     H14819  -0.737   9.424   8.700 -1.4682 -3.2781 -0.8553
  110MOL0     H14820  -0.738   9.241   8.936 -3.1963 -0.6839  1.1186
  110MOL0     H14821  -0.780   9.176   8.787 -2.5902 -0.4105  0.8610
  110MOL0     H14822  -0.924   9.370   8.965 -2.4216  0.1214 -0.3467
  110MOL0     H14823  -0.966   9.363   8.791  2.0127  0.5667 -1.0715
  110MOL0     H14824  -0.953   9.110   8.967 -1.0039  0.0103  1.0380
  110MOL0     H14825  -1.047   9.129   8.824  1.1715  0.6529 -1.3231
  110MOL0     H14826  -1.098   9.254   9.098  1.4223 -1.9890 -0.3927
  110MOL0     H14827  -1.179   9.325   8.949 -1.6673 -0.2088  1.1130
  110MOL0     H14828  -1.327   9.178   9.067 -0.6041 -0.1886  0.3485
  110MOL0     H14829  -1.214   9.042   9.034 -1.6101  0.4729  2.2605
  110MOL0     H14830  -1.255   9.051   8.802  3.5318  3.0980  1.0655
  110MOL0     H14831  -1.354   9.197   8.818  1.0260 -0.6814 -1.4701
  110MOL0     H14832  -0.282   9.261   9.046 -1.1683 -1.1613  0.7172
  110MOL0     H14833  -0.046   9.204   8.998  2.8397 -1.5660 -3.9638
  110MOL0     H14834   0.251   9.060   8.624  0.0757 -1.5239 -0.9696
  110MOL0     H14835   0.483   9.006   8.570 -1.8570 -2.0395  0.0387
  110MOL0     H14836   2.213   8.115   9.227 -1.0981  5.4383  1.2534
  110MOL0     H14837   2.454   8.134   9.310  5.6337  5.2191  0.8461
  110MOL0     H14838   3.035   8.281   9.082 -1.2815 -0.3694 -1.6845
  110MOL0     H14839   3.235   8.186   9.206  0.9084 -2.5856  2.7211
  110MOL0     H14840   3.384   8.119   9.331 -1.1067  0.3267 -1.9611
  110MOL0     H14841   3.426   7.974   9.404  0.8764  2.0084 -1.0711
  110MOL0     H14842   3.300   7.969   9.117 -1.3830 -0.8721  0.5431
  110MOL0     H14843   3.372   7.840   9.198  0.3815 -0.2799  0.1483
  110MOL0     H14844   3.570   7.894   9.078  1.4206  0.4056  1.0942
  110MOL0     H14845   3.594   7.953   9.233  1.7391  4.1743 -0.3302
  110MOL0     H14846   3.557   8.177   9.173 -0.6401  0.8441 -1.2180
  110MOL0     H14847   3.466   8.133   9.037  0.4137  0.9787 -3.4157
  110MOL0     H14848   3.864   8.183   8.876 -0.2723  3.0701  0.1028
  110MOL0     H14849   2.967   7.910   9.394  3.9544 -1.7743 -2.5464
  110MOL0     H14850   2.770   8.027   9.315 -0.0076 -1.0470  1.6872
  111MOL0     O14851   0.272   4.769   0.378  0.2320  0.3395  0.2021
  111MOL0     C14852   0.322   4.740   0.489  0.0875 -0.5946 -0.7878
  111MOL0     O14853   0.444   4.683   0.515  0.2123  0.3815 -0.9803
  111MOL0     C14854   0.537   4.646   0.424 -0.6615  0.1622 -0.0198
  111MOL0     C14855   0.675   4.681   0.444 -0.1637 -0.2908  0.0688
  111MOL0     C14856   0.774   4.648   0.347 -0.4639  0.2792 -0.0461
  111MOL0     C14857   0.742   4.562   0.241 -0.6012 -0.2723  0.1890
  111MOL0     O14858   0.845   4.519   0.159  0.7821  0.2527  0.2742
  111MOL0     C14859   0.811   4.439   0.047 -0.1932  0.2096 -0.0161
  111MOL0     C14860   0.928   4.400  -0.032  0.5482  0.4357 -0.5265
  111MOL0     C14861   0.889   4.320  -0.152 -0.3831 -0.2653 -0.9251
  111MOL0     C14862   0.997   4.300  -0.253 -0.5291 -0.1321  0.5069
  111MOL0     C14863   0.978   4.167  -0.316  0.6853  0.4637  0.5677
  111MOL0     C14864   0.841   4.147  -0.395 -0.2307  0.4480 -0.6307
  111MOL0     C14865   0.837   4.008  -0.460  0.7247  0.3106  1.2271
  111MOL0     C14866   0.704   3.988  -0.543 -0.6955  0.8761 -0.0018
  111MOL0     N14867   0.682   3.847  -0.583 -0.1364 -1.2916 -0.5395
  111MOL0     C14868   0.669   3.738  -0.498 -0.8041  0.2564  0.2925
  111MOL0     C14869   0.626   3.640  -0.586 -0.2124  0.0788 -1.1053
  111MOL0     C14870   0.600   3.494  -0.556 -0.3513 -0.4388 -0.5153
  111MOL0     C14871   0.466   3.468  -0.502 -0.3183 -0.4570 -0.8756
  111MOL0     C14872   0.371   3.456  -0.612 -0.0020  0.7098  0.7996
  111MOL0     C14873   0.237   3.398  -0.575 -0.6883  0.0565 -0.0170
  111MOL0     O14874   0.148   3.405  -0.687 -0.7473 -0.1263 -0.2431
  111MOL0     C14875   0.020   3.366  -0.661  0.6633 -0.7898 -1.0932
  111MOL0     C14876  -0.017   3.255  -0.591 -0.2030 -0.4681 -0.2346
  111MOL0     C14877  -0.149   3.213  -0.581 -0.6920 -0.7597  0.9283
  111MOL0     C14878  -0.166   3.078  -0.507  0.0855 -0.2073  0.4650
  111MOL0     C14879  -0.258   3.291  -0.633 -0.5158  0.8560 -0.1956
  111MOL0     C14880  -0.409   3.261  -0.620  0.4790  0.6969  0.1665
  111MOL0     O14881  -0.498   3.358  -0.594  0.2273  1.1063  0.7135
  111MOL0     C14882  -0.635   3.331  -0.584 -0.0418 -0.8701  0.3354
  111MOL0     C14883  -0.691   3.371  -0.462 -0.2621 -0.0490  0.7391
  111MOL0     C14884  -0.822   3.363  -0.446 -0.0022  0.3581 -0.0422
  111MOL0     C14885  -0.906   3.323  -0.552  0.1293  0.6009  0.3380
  111MOL0     O14886  -1.048   3.328  -0.548 -0.7274 -0.4090 -0.6155
  111MOL0     C14887  -1.100   3.281  -0.424  0.0323 -0.6873 -0.0618
  111MOL0     C14888  -1.255   3.274  -0.440  0.3330  0.1364  0.1419
  111MOL0     C14889  -1.331   3.244  -0.303  0.2103  0.4363  0.4256
  111MOL0     C14890  -1.482   3.229  -0.328 -0.1125  0.1366 -0.6392
  111MOL0     C14891  -1.543   3.169  -0.200 -0.7867 -0.5290  0.0955
  111MOL0     C14892  -1.686   3.175  -0.213 -0.2638  0.6179 -1.1064
  111MOL0     C14893  -1.760   3.080  -0.121  0.3383  0.4347 -0.6075
  111MOL0     C14894  -1.913   3.095  -0.130  1.1460 -0.3130  0.7351
  111MOL0    Cl14895  -1.999   2.981  -0.013 -0.1578 -0.0076  0.3954
  111MOL0     C14896  -0.853   3.280  -0.666 -0.2490  0.0760 -0.0929
  111MOL0     C14897  -0.713   3.285  -0.689 -0.1005  0.5583 -0.1352
  111MOL0     O14898  -0.440   3.141  -0.632 -0.1768 -0.7075 -0.1590
  111MOL0     C14899  -0.219   3.407  -0.699 -1.4323 -0.7085  0.3795
  111MOL0     C14900  -0.082   3.443  -0.712  0.0693 -0.0266  0.3795
  111MOL0     N14901   0.602   3.701  -0.707  0.1677 -0.3402 -0.3594
  111MOL0     N14902   0.635   3.822  -0.707  0.0101  0.5313  0.3472
  111MOL0     C14903   0.603   4.528   0.228 -0.6034 -0.0014 -0.2868
  111MOL0     C14904   0.495   4.570   0.314  0.1629 -1.1001  0.2673
  111MOL0     C14905   0.228   4.762   0.610  0.6792 -0.4649  1.2248
  111MOL0     C14906   0.287   4.796   0.737  0.0871  0.2916  0.3470
  111MOL0     C14907   0.207   4.803   0.848 -0.1331 -0.0822 -0.0928
  111MOL0     C14908   0.080   4.757   0.855  0.9528  0.1299 -0.0035
  111MOL0     O14909   0.034   4.769   0.981 -0.2209  0.3616  0.8824
  111MOL0     C14910  -0.106   4.732   0.996 -0.0009 -1.0559  1.3946
  111MOL0     C14911  -0.117   4.649   1.127 -1.0794 -0.1964  0.1131
  111MOL0     C14912  -0.257   4.598   1.134  0.7732 -0.6941 -0.5477
  111MOL0     C14913  -0.289   4.520   1.271  0.7692  0.5497  0.2579
  111MOL0     C14914  -0.430   4.471   1.278  0.9389 -0.5761 -0.5475
  111MOL0     C14915  -0.532   4.417   1.298  0.5578 -0.5303 -0.3481
  111MOL0     C14916   0.015   4.739   0.727 -0.8335  0.2170  0.0564
  111MOL0     C14917   0.087   4.752   0.606 -0.1867 -0.9321  0.4265
  111MOL0     H14918   0.706   4.744   0.527  1.1382 -0.9482  0.1083
  111MOL0     H14919   0.875   4.681   0.372  1.3036 -2.2461 -3.1532
  111MOL0     H14920   0.761   4.346   0.074  2.1665 -0.6641  1.6413
  111MOL0     H14921   0.744   4.493  -0.022 -1.4630  1.6348  2.2088
  111MOL0     H14922   0.980   4.491  -0.064  2.5715 -0.5337 -0.2021
  111MOL0     H14923   0.993   4.336   0.028 -2.8997 -0.1481  2.9166
  111MOL0     H14924   0.861   4.221  -0.117 -0.1350 -0.7941 -2.1817
  111MOL0     H14925   0.809   4.373  -0.205  0.5866 -0.0453 -2.2272
  111MOL0     H14926   1.004   4.369  -0.337  3.9452 -3.5850 -2.4099
  111MOL0     H14927   1.096   4.311  -0.207  0.4853 -4.0037 -0.4383
  111MOL0     H14928   1.069   4.154  -0.376  0.3223  5.8461 -1.6793
  111MOL0     H14929   0.959   4.090  -0.241 -0.3448  1.1722  1.0646
  111MOL0     H14930   0.747   4.163  -0.343 -1.2612 -3.5052 -0.9656
  111MOL0     H14931   0.847   4.216  -0.479  2.2034  1.1178 -0.0020
  111MOL0     H14932   0.921   3.994  -0.529 -0.6442  0.0551 -0.4671
  111MOL0     H14933   0.828   3.935  -0.380 -1.1882  1.8608  2.5226
  111MOL0     H14934   0.700   4.057  -0.628 -1.3655 -0.3898 -1.0383
  111MOL0     H14935   0.623   4.010  -0.473  1.7917  1.1355  3.0049
  111MOL0     H14936   0.689   3.729  -0.392 -1.1409  0.6469  0.3890
  111MOL0     H14937   0.605   3.441  -0.652 -2.6681 -4.9728  1.5646
  111MOL0     H14938   0.667   3.449  -0.482  0.1327  1.9175  0.5641
  111MOL0     H14939   0.448   3.552  -0.434  2.2172  0.2032 -0.9099
  111MOL0     H14940   0.457   3.371  -0.453 -2.1871  0.3198  0.4466
  111MOL0     H14941   0.413   3.404  -0.698  2.6817  1.3957  1.6194
  111MOL0     H14942   0.344   3.551  -0.660 -3.0087 -0.7698 -0.7390
  111MOL0     H14943   0.203   3.455  -0.488 -0.3914  1.1425 -0.5883
  111MOL0     H14944   0.253   3.292  -0.554  0.8423  0.2663  0.0248
  111MOL0     H14945   0.055   3.184  -0.551 -1.9089 -2.8816 -1.1247
  111MOL0     H14946  -0.214   3.003  -0.571  2.5489  0.0837 -1.9317
  111MOL0     H14947  -0.082   3.022  -0.466  1.1728  1.6125  0.8559
  111MOL0     H14948  -0.230   3.104  -0.422 -1.0761  0.5128 -0.5821
  111MOL0     H14949  -0.622   3.401  -0.384 -0.7250  0.3089  1.0150
  111MOL0     H14950  -0.869   3.412  -0.361  1.7042 -0.1958  1.2834
  111MOL0     H14951  -1.058   3.184  -0.396 -1.4546 -1.7949 -1.4899
  111MOL0     H14952  -1.083   3.356  -0.346  2.4143 -1.4104  0.1683
  111MOL0     H14953  -1.298   3.369  -0.473  1.4385  0.0023 -1.8620
  111MOL0     H14954  -1.273   3.193  -0.511  2.7393  1.5685 -2.3056
  111MOL0     H14955  -1.313   3.323  -0.231 -0.2370  0.6665  0.2851
  111MOL0     H14956  -1.301   3.149  -0.257 -0.1804  0.2105  0.2204
  111MOL0     H14957  -1.534   3.325  -0.335  0.1083  0.3037 -0.0081
  111MOL0     H14958  -1.510   3.171  -0.417 -0.8872  1.3129 -1.1952
  111MOL0     H14959  -1.509   3.221  -0.110 -1.7061 -0.8191  0.6303
  111MOL0     H14960  -1.501   3.069  -0.184  0.5259  0.3811  3.1553
  111MOL0     H14961  -1.711   3.280  -0.200  2.9734  1.5385 -1.3367
  111MOL0     H14962  -1.719   3.151  -0.314 -2.7243 -2.3416  0.2510
  111MOL0     H14963  -1.725   3.109  -0.022  4.4107  0.5093 -1.8880
  111MOL0     H14964  -1.747   2.974  -0.144  2.5952  0.7142 -0.8731
  111MOL0     H14965  -1.961   3.077  -0.227  1.7304  0.4384  0.2986
  111MOL0     H14966  -1.947   3.198  -0.114 -2.3484 -0.9249 -1.5183
  111MOL0     H14967  -0.923   3.252  -0.744  1.0724 -0.6433 -1.0579
  111MOL0     H14968  -0.669   3.259  -0.785 -1.0740  0.3606 -0.5419
  111MOL0     H14969  -0.298   3.466  -0.745 -1.9595  0.4453  2.6356
  111MOL0     H14970  -0.047   3.520  -0.780  0.9019 -1.1183 -0.4681
  111MOL0     H14971   0.570   4.449   0.161 -0.4953 -1.5257  1.3818
  111MOL0     H14972   0.394   4.539   0.288  0.4487 -0.3045 -2.0258
  111MOL0     H14973   0.392   4.823   0.739 -0.1606  1.3644 -0.5879
  111MOL0     H14974   0.236   4.843   0.945 -1.5329 -1.3532  0.8931
  111MOL0     H14975  -0.166   4.824   1.003 -0.4853 -1.2880  0.4562
  111MOL0     H14976  -0.138   4.669   0.913 -0.9800  0.8973  0.2046
  111MOL0     H14977  -0.088   4.709   1.214  3.4604  0.9627 -1.8944
  111MOL0     H14978  -0.058   4.557   1.115 -2.2129 -0.5707 -4.5653
  111MOL0     H14979  -0.282   4.539   1.045 -1.3601 -1.2609  0.3569
  111MOL0     H14980  -0.321   4.686   1.145 -3.0231 -3.1732 -0.8019
  111MOL0     H14981  -0.265   4.593   1.349  1.2635  1.4363 -0.7015
  111MOL0     H14982  -0.223   4.433   1.276 -1.1299 -1.1130 -1.6395
  111MOL0     H14983  -0.630   4.374   1.305  1.1146 -1.4896  3.4820
  111MOL0     H14984  -0.089   4.725   0.702 -1.0042 -0.4572  1.1053
  111MOL0     H14985   0.028   4.746   0.516 -1.2130  3.0035  0.6663
  112MOL0     O14986   2.570   6.604   2.296 -0.0788 -0.3427 -0.2053
  112MOL0     C14987   2.692   6.601   2.275 -0.4550  0.2456 -0.3805
  112MOL0     O14988   2.747   6.570   2.152  1.1975 -0.3564 -0.0779
  112MOL0     C14989   2.660   6.536   2.048  0.0271 -0.5184 -0.9758
  112MOL0     C14990   2.618   6.628   1.949  1.3542 -0.1018  0.1244
  112MOL0     C14991   2.533   6.580   1.843 -0.5945 -0.0241 -0.9625
  112MOL0     C14992   2.486   6.451   1.841  0.4642 -0.5941  0.0760
  112MOL0     O14993   2.404   6.422   1.741  0.5206 -0.4703  0.0577
  112MOL0     C14994   2.309   6.323   1.753  0.4535  0.5368  1.4071
  112MOL0     C14995   2.204   6.327   1.638  0.0547  0.4232  0.1665
  112MOL0     C14996   2.124   6.455   1.620 -0.7500  1.0419  0.7490
  112MOL0     C14997   2.042   6.441   1.494  0.4842  0.0452  0.0861
  112MOL0     C14998   1.938   6.555   1.469 -0.8950 -0.8465 -0.1974
  112MOL0     C14999   1.841   6.525   1.360  0.6627 -0.0560  0.7868
  112MOL0     C15000   1.758   6.649   1.320  0.8786 -0.5268 -0.2699
  112MOL0     C15001   1.718   6.638   1.174 -0.3641  0.8918  0.6953
  112MOL0     N15002   1.601   6.564   1.140 -0.2549 -0.1159 -0.8746
  112MOL0     C15003   1.478   6.571   1.208  0.0939 -0.2369  0.6275
  112MOL0     C15004   1.411   6.471   1.159  1.5029  0.6418  0.1332
  112MOL0     C15005   1.274   6.437   1.211 -0.0585  1.0297 -1.1148
  112MOL0     C15006   1.283   6.295   1.246  0.2441  1.2950  0.5680
  112MOL0     C15007   1.149   6.241   1.286  0.2491 -0.2789  0.5345
  112MOL0     C15008   1.164   6.090   1.309 -0.3233  0.2526  0.0343
  112MOL0     O15009   1.065   6.043   1.401 -0.3693  0.0731 -0.2028
  112MOL0     C15010   1.076   6.048   1.536 -0.2793  0.5785 -0.9901
  112MOL0     C15011   1.014   5.962   1.619 -0.1078 -0.1010  0.6166
  112MOL0     C15012   1.019   5.962   1.762  0.5420  0.4622 -0.6533
  112MOL0     C15013   0.942   5.856   1.841  0.1424 -0.2331 -0.2267
  112MOL0     C15014   1.102   6.055   1.824  1.1198 -0.1945 -0.1666
  112MOL0     C15015   1.132   6.052   1.967  1.0558 -0.4273  0.0167
  112MOL0     O15016   1.253   6.108   2.007  0.8146  0.7417 -0.1117
  112MOL0     C15017   1.287   6.097   2.140  0.2540 -0.8103 -0.1074
  112MOL0     C15018   1.412   6.044   2.164  0.3328 -0.2474 -0.0404
  112MOL0     C15019   1.450   6.030   2.300  0.0473  0.2330  0.6860
  112MOL0     C15020   1.371   6.060   2.411 -1.2152  0.7755 -0.1311
  112MOL0     O15021   1.428   6.041   2.538 -0.2616 -0.3724  0.0416
  112MOL0     C15022   1.337   6.034   2.654  0.7015  0.2546 -0.3516
  112MOL0     C15023   1.413   6.026   2.781  0.1521  0.1217  0.5687
  112MOL0     C15024   1.487   6.156   2.809  0.5686 -1.2224 -1.2274
  112MOL0     C15025   1.577   6.129   2.929 -0.5690 -0.2349 -0.2338
  112MOL0     C15026   1.674   6.246   2.929  0.9335  0.4457 -0.7016
  112MOL0     C15027   1.794   6.215   2.833  0.3490  0.0077 -0.0128
  112MOL0     C15028   1.852   6.346   2.792 -0.1474  0.4626  0.1826
  112MOL0     C15029   1.967   6.316   2.690 -0.3925 -0.8249  0.9741
  112MOL0    Cl15030   2.062   6.479   2.648 -0.0822  0.0539 -0.5776
  112MOL0     C15031   1.250   6.119   2.381 -0.2164 -0.1114  0.1063
  112MOL0     C15032   1.205   6.135   2.243 -0.2300 -0.4020  0.5098
  112MOL0     O15033   1.045   6.006   2.044 -0.6649 -0.5601 -0.0411
  112MOL0     C15034   1.170   6.149   1.744 -1.0990 -0.0707  0.4619
  112MOL0     C15035   1.165   6.141   1.600 -0.0228 -0.1757  0.1923
  112MOL0     N15036   1.479   6.411   1.058  0.2269 -0.0377 -0.5024
  112MOL0     N15037   1.600   6.456   1.054 -0.2514 -0.3650  0.1387
  112MOL0     C15038   2.535   6.359   1.929 -0.4429  0.8500  0.5100
  112MOL0     C15039   2.619   6.401   2.036  1.2751 -0.0318  0.2945
  112MOL0     C15040   2.784   6.663   2.383 -0.8577  0.4055 -1.2261
  112MOL0     C15041   2.916   6.614   2.378 -0.1108 -0.8441  0.3825
  112MOL0     C15042   3.014   6.655   2.474 -0.3931 -0.0459  0.3755
  112MOL0     C15043   2.982   6.742   2.575 -0.3497  0.1311 -0.4807
  112MOL0     O15044   3.072   6.791   2.667 -0.5521  0.2564  0.2346
  112MOL0     C15045   3.194   6.858   2.631  1.1877 -0.3648  0.3350
  112MOL0     C15046   3.166   7.011   2.599 -0.6868 -0.1721  0.6323
  112MOL0     C15047   3.120   7.087   2.718  0.0072 -0.5845 -0.0641
  112MOL0     C15048   3.226   7.102   2.830 -0.0525 -0.0802 -0.2905
  112MOL0     C15049   3.356   7.153   2.786  0.4789 -0.3402 -0.2262
  112MOL0     C15050   3.475   7.181   2.755 -0.3456 -0.3218 -0.0726
  112MOL0     C15051   2.848   6.777   2.590  0.0495 -0.0403 -0.4759
  112MOL0     C15052   2.750   6.737   2.495 -0.1269 -0.6899  1.4890
  112MOL0     H15053   2.644   6.734   1.955  0.6441  0.1259 -0.5727
  112MOL0     H15054   2.500   6.652   1.768 -1.0420  0.8867  0.0928
  112MOL0     H15055   2.365   6.231   1.738  1.3191  1.2892 -0.2079
  112MOL0     H15056   2.265   6.324   1.853  1.3399 -2.1079  1.9019
  112MOL0     H15057   2.242   6.294   1.541 -0.8597  0.3481 -0.1816
  112MOL0     H15058   2.138   6.248   1.676 -0.9622  0.7159 -0.9143
  112MOL0     H15059   2.063   6.464   1.711 -1.9181 -2.3289  0.4260
  112MOL0     H15060   2.190   6.542   1.619 -0.6118  0.9311 -0.2257
  112MOL0     H15061   2.109   6.438   1.408 -0.7609  0.8724 -0.9406
  112MOL0     H15062   1.990   6.345   1.495  0.4744 -0.0287 -2.2442
  112MOL0     H15063   1.889   6.581   1.564 -1.4443  1.6357 -1.0744
  112MOL0     H15064   1.996   6.638   1.426 -2.9606  0.1793 -1.1761
  112MOL0     H15065   1.909   6.494   1.280  1.8186 -3.2085  2.8326
  112MOL0     H15066   1.773   6.444   1.387 -2.8109  2.4629  0.2385
  112MOL0     H15067   1.668   6.662   1.381 -0.7370 -1.6585 -2.2781
  112MOL0     H15068   1.825   6.734   1.335 -0.5325  0.2070  2.6321
  112MOL0     H15069   1.801   6.602   1.114 -0.6175  1.4717 -0.0102
  112MOL0     H15070   1.694   6.739   1.139  1.5771  0.8003 -1.0452
  112MOL0     H15071   1.451   6.616   1.304  0.1043 -0.6827  0.8431
  112MOL0     H15072   1.260   6.498   1.300  1.2067  0.7426 -0.6998
  112MOL0     H15073   1.199   6.447   1.131  2.6112  0.3964 -3.8967
  112MOL0     H15074   1.351   6.275   1.330 -0.1154  2.1814  1.0969
  112MOL0     H15075   1.322   6.246   1.157 -1.6380 -0.4233  0.6361
  112MOL0     H15076   1.074   6.255   1.208  0.8107 -1.9979 -0.3691
  112MOL0     H15077   1.101   6.301   1.364 -0.3367  0.5511 -0.4357
  112MOL0     H15078   1.264   6.056   1.335 -0.3652 -1.7010 -2.0547
  112MOL0     H15079   1.138   6.046   1.212  1.1479  1.4598 -0.9593
  112MOL0     H15080   0.946   5.888   1.579  0.8954 -0.4489 -0.4953
  112MOL0     H15081   0.890   5.791   1.770  1.2477 -1.9904  0.4782
  112MOL0     H15082   1.007   5.793   1.903  0.2560 -0.3873 -0.5001
  112MOL0     H15083   0.877   5.910   1.910 -0.3339  1.2633 -1.7871
  112MOL0     H15084   1.473   6.016   2.079 -2.4821 -1.7911 -1.7118
  112MOL0     H15085   1.553   6.000   2.317  0.2549  0.9449  0.7275
  112MOL0     H15086   1.266   6.117   2.656 -1.3204 -1.1044 -4.5761
  112MOL0     H15087   1.274   5.945   2.656  3.1754 -1.5984  0.0497
  112MOL0     H15088   1.341   6.007   2.861 -1.5879  2.8130 -0.2352
  112MOL0     H15089   1.489   5.947   2.784  0.8835  0.8224  1.0597
  112MOL0     H15090   1.412   6.234   2.826  0.6808 -0.6810 -3.0303
  112MOL0     H15091   1.544   6.183   2.720  0.0355  0.4176 -1.1118
  112MOL0     H15092   1.519   6.124   3.021  2.4915  1.1642  1.9653
  112MOL0     H15093   1.619   6.029   2.920  0.2634 -0.0225  1.0234
  112MOL0     H15094   1.715   6.255   3.030  1.1719  0.0530 -0.7583
  112MOL0     H15095   1.620   6.336   2.899 -1.1277 -0.3595  0.3926
  112MOL0     H15096   1.883   6.167   2.876  0.5798  0.3601 -0.0901
  112MOL0     H15097   1.771   6.156   2.745  1.7843 -2.0705  0.9149
  112MOL0     H15098   1.894   6.408   2.872 -0.7145 -1.9060  2.4701
  112MOL0     H15099   1.783   6.415   2.743 -1.3665  1.6717  3.3080
  112MOL0     H15100   1.933   6.268   2.599 -0.6041 -0.0157  0.6216
  112MOL0     H15101   2.045   6.252   2.732  0.6155  0.3992  1.0535
  112MOL0     H15102   1.185   6.151   2.462  0.7674  3.6156 -0.3633
  112MOL0     H15103   1.108   6.174   2.214  0.3367 -1.7261 -3.7638
  112MOL0     H15104   1.245   6.217   1.783  0.5635 -1.9148  0.6399
  112MOL0     H15105   1.219   6.209   1.535  0.7305  0.4017  1.3814
  112MOL0     H15106   2.498   6.257   1.929 -0.2801  0.7887  0.1083
  112MOL0     H15107   2.653   6.335   2.114  3.7846  0.8651  0.0319
  112MOL0     H15108   2.959   6.555   2.297  0.1952  2.9900 -2.5065
  112MOL0     H15109   3.115   6.618   2.457  1.2360  5.2372 -4.6409
  112MOL0     H15110   3.256   6.852   2.721  2.4367 -0.4983 -0.5136
  112MOL0     H15111   3.238   6.811   2.543  1.7054 -1.1144  0.9799
  112MOL0     H15112   3.093   7.007   2.518  1.8348 -0.1215 -1.7942
  112MOL0     H15113   3.254   7.057   2.552  0.9839 -3.8575 -0.1864
  112MOL0     H15114   3.024   7.044   2.748 -0.0302 -1.5353 -1.4326
  112MOL0     H15115   3.099   7.188   2.684  1.3006  0.6801  2.5614
  112MOL0     H15116   3.233   7.004   2.878 -0.1124 -0.1387 -0.4029
  112MOL0     H15117   3.184   7.174   2.902  2.1440  0.9028  0.0936
  112MOL0     H15118   3.577   7.205   2.731 -0.1375 -1.6833 -0.6482
  112MOL0     H15119   2.819   6.840   2.673  1.4838 -2.9117  2.4349
  112MOL0     H15120   2.647   6.766   2.515 -0.5957  1.3950 -2.7992
  113MOL0     O15121   8.155   1.827   1.621 -0.3841 -0.2683  0.0868
  113MOL0     C15122   8.173   1.807   1.506  0.6341 -0.6587  0.1891
  113MOL0     O15123   8.099   1.720   1.436  0.3711  0.6954  0.5117
  113MOL0     C15124   7.976   1.670   1.487 -0.2119 -0.0779 -0.3370
  113MOL0     C15125   7.857   1.724   1.439 -0.9766 -0.2889 -0.2717
  113MOL0     C15126   7.736   1.680   1.488 -0.5574  0.6167 -0.5800
  113MOL0     C15127   7.748   1.576   1.588  0.2320  0.2682 -0.7599
  113MOL0     O15128   7.636   1.506   1.625  0.5707 -0.7516 -0.0321
  113MOL0     C15129   7.554   1.593   1.714 -0.0283 -0.0167 -0.0241
  113MOL0     C15130   7.447   1.509   1.789  0.6774 -1.1084  0.1858
  113MOL0     C15131   7.406   1.583   1.921 -0.8933 -0.7144  0.5592
  113MOL0     C15132   7.310   1.504   2.003 -0.5012 -0.0943  0.3451
  113MOL0     C15133   7.169   1.544   1.961  0.0376  0.1343  1.3150
  113MOL0     C15134   7.064   1.421   1.966 -0.3672 -0.7676  0.8853
  113MOL0     C15135   7.063   1.345   1.830  0.5255 -0.6027 -0.1203
  113MOL0     C15136   6.991   1.216   1.830  0.6087  0.1999  0.1245
  113MOL0     N15137   6.853   1.229   1.876  1.4188  0.4667  0.2365
  113MOL0     C15138   6.818   1.189   1.998  0.7029  0.1055 -0.4669
  113MOL0     C15139   6.683   1.199   2.003 -0.1955  0.4111 -0.7207
  113MOL0     C15140   6.597   1.141   2.113 -0.2708  0.1002 -0.4300
  113MOL0     C15141   6.520   1.004   2.071 -0.9146 -0.1131  0.6774
  113MOL0     C15142   6.447   0.950   2.196 -1.1302  0.5460  0.4825
  113MOL0     C15143   6.310   1.004   2.221 -0.1949 -0.8907 -0.4908
  113MOL0     O15144   6.311   1.140   2.279  0.4441  0.4643 -0.3386
  113MOL0     C15145   6.218   1.170   2.368  0.8553  0.0176  0.1706
  113MOL0     C15146   6.226   1.303   2.411  1.1058  0.4914  0.8854
  113MOL0     C15147   6.134   1.367   2.499 -0.1311 -0.0287  0.3718
  113MOL0     C15148   6.161   1.514   2.530  1.0924  0.2868 -0.4432
  113MOL0     C15149   6.018   1.299   2.543 -1.1508  0.6915 -0.4827
  113MOL0     C15150   5.908   1.354   2.624 -0.7315 -0.2671  0.4046
  113MOL0     O15151   5.830   1.269   2.694 -0.1751  0.9551  0.1255
  113MOL0     C15152   5.719   1.325   2.749 -0.3042  0.5704 -0.9279
  113MOL0     C15153   5.717   1.406   2.869 -0.0821  0.0412 -0.3243
  113MOL0     C15154   5.598   1.455   2.923  0.1849 -0.1110 -1.1501
  113MOL0     C15155   5.479   1.420   2.856 -0.6579 -0.4217 -0.2200
  113MOL0     O15156   5.357   1.465   2.903  0.6156 -0.0285 -0.2675
  113MOL0     C15157   5.251   1.385   2.943 -0.3351  0.1921 -0.4017
  113MOL0     C15158   5.152   1.455   3.032  0.3282  0.2434  0.2759
  113MOL0     C15159   5.035   1.352   3.060 -0.6651  0.6097  0.1065
  113MOL0     C15160   4.920   1.420   3.130  0.0241 -0.7208  0.1992
  113MOL0     C15161   4.956   1.502   3.258 -0.1154 -0.2166  0.8137
  113MOL0     C15162   4.832   1.541   3.327  0.0634 -0.4967  0.2410
  113MOL0     C15163   4.869   1.603   3.473 -0.3772  0.1683  0.6211
  113MOL0     C15164   4.735   1.587   3.541  0.2399  0.0755 -0.6339
  113MOL0    Cl15165   4.601   1.665   3.461 -0.1739  0.1094  0.1913
  113MOL0     C15166   5.478   1.341   2.737 -0.8576 -0.6589 -0.5265
  113MOL0     C15167   5.596   1.294   2.687  0.3755  1.1158  0.3302
  113MOL0     O15168   5.894   1.476   2.611  0.1449 -0.0887 -0.7295
  113MOL0     C15169   6.014   1.162   2.512  0.4973 -1.1415  1.0217
  113MOL0     C15170   6.108   1.103   2.426 -0.0138  0.2403  0.1054
  113MOL0     N15171   6.635   1.243   1.882  0.3435  0.4778  0.8019
  113MOL0     N15172   6.741   1.255   1.800 -0.0062 -0.8517 -0.6737
  113MOL0     C15173   7.869   1.522   1.635  0.0841 -0.6194 -0.5858
  113MOL0     C15174   7.984   1.568   1.582  0.1956 -0.7145  0.2077
  113MOL0     C15175   8.278   1.864   1.429 -0.2821 -0.8609 -0.0377
  113MOL0     C15176   8.296   1.855   1.288  0.4690 -0.0330 -0.4735
  113MOL0     C15177   8.419   1.898   1.230  0.7236 -0.3628 -0.1064
  113MOL0     C15178   8.517   1.957   1.300 -0.4149 -0.8874  0.0820
  113MOL0     O15179   8.637   2.005   1.245 -0.7693  1.0220  0.1270
  113MOL0     C15180   8.668   1.990   1.108 -0.1467 -0.2032  0.8316
  113MOL0     C15181   8.808   2.036   1.067 -0.1988 -0.4129  0.0337
  113MOL0     C15182   8.854   2.184   1.067 -0.0735 -0.2330 -0.8446
  113MOL0     C15183   8.895   2.244   1.203  0.5490 -0.2958 -0.5465
  113MOL0     C15184   9.029   2.199   1.256  0.3982 -0.1949  0.3902
  113MOL0     C15185   9.143   2.170   1.279 -0.2305 -0.6244 -0.2152
  113MOL0     C15186   8.493   1.986   1.435 -0.6850 -0.0342  0.6483
  113MOL0     C15187   8.375   1.944   1.492 -0.7260  0.3105 -0.1835
  113MOL0     H15188   7.869   1.801   1.363  0.4608 -0.4516 -0.2329
  113MOL0     H15189   7.643   1.722   1.452 -1.0693  1.8163  1.9254
  113MOL0     H15190   7.626   1.636   1.784 -2.3449  1.4540  1.6087
  113MOL0     H15191   7.508   1.677   1.661 -0.7176 -2.3398 -3.4344
  113MOL0     H15192   7.359   1.491   1.726  0.4032  2.6085 -0.7268
  113MOL0     H15193   7.479   1.407   1.814 -0.4354 -1.5071  0.0180
  113MOL0     H15194   7.495   1.583   1.985 -0.1115 -0.5677 -0.5050
  113MOL0     H15195   7.354   1.679   1.907 -1.7963 -1.4252 -1.3427
  113MOL0     H15196   7.330   1.398   1.986 -0.7880 -0.4940  2.2780
  113MOL0     H15197   7.323   1.514   2.111 -4.1121 -3.0996  1.2729
  113MOL0     H15198   7.137   1.632   2.017  1.4885  0.8425  1.0965
  113MOL0     H15199   7.178   1.576   1.856  2.4443  0.2016  1.4873
  113MOL0     H15200   7.090   1.343   2.039  2.8803 -3.8119 -3.0487
  113MOL0     H15201   6.965   1.463   1.984  0.0994 -0.0488  1.9513
  113MOL0     H15202   7.015   1.410   1.756  3.5517  1.8362 -0.1219
  113MOL0     H15203   7.167   1.337   1.798  1.2336 -2.3856  2.3748
  113MOL0     H15204   7.045   1.148   1.896 -0.1610  1.4604  2.1462
  113MOL0     H15205   6.985   1.174   1.729 -1.9020  0.8519 -0.0491
  113MOL0     H15206   6.884   1.153   2.076 -1.6903  1.6824  2.4893
  113MOL0     H15207   6.678   1.105   2.178 -1.3492 -0.7376  0.4792
  113MOL0     H15208   6.539   1.219   2.162 -1.1620  1.0934 -2.9084
  113MOL0     H15209   6.586   0.928   2.028 -0.4233  0.1930  0.8762
  113MOL0     H15210   6.454   1.038   1.991  1.4220  1.9023 -0.5733
  113MOL0     H15211   6.509   0.963   2.285  0.4108 -0.8960 -0.3244
  113MOL0     H15212   6.450   0.841   2.185  2.9817  0.2979  2.4522
  113MOL0     H15213   6.256   0.939   2.290 -0.5893  0.1703  0.2140
  113MOL0     H15214   6.255   1.004   2.126  1.8166 -3.9048 -1.8172
  113MOL0     H15215   6.281   1.375   2.350 -1.8092  1.3307 -0.9892
  113MOL0     H15216   6.269   1.528   2.541  1.2156 -0.6642 -0.2688
  113MOL0     H15217   6.122   1.576   2.449 -0.2432  0.3426  0.2141
  113MOL0     H15218   6.117   1.555   2.622 -0.9602  1.7922 -1.9974
  113MOL0     H15219   5.810   1.412   2.924 -1.2530  2.8087  1.6159
  113MOL0     H15220   5.591   1.512   3.015 -0.0313 -1.6694 -0.1606
  113MOL0     H15221   5.196   1.366   2.851  0.5374  2.8955 -1.5841
  113MOL0     H15222   5.286   1.297   2.998 -0.0584 -0.8782 -2.2132
  113MOL0     H15223   5.210   1.484   3.120  1.6429 -0.5738 -0.2958
  113MOL0     H15224   5.120   1.551   2.989  0.7023  0.7386  1.0872
  113MOL0     H15225   5.068   1.270   3.124 -2.5707 -1.3052 -1.1997
  113MOL0     H15226   4.998   1.308   2.967 -0.3958  2.6725 -1.0359
  113MOL0     H15227   4.864   1.468   3.050  0.0701  0.3438  0.7856
  113MOL0     H15228   4.842   1.352   3.164 -1.3446  1.1709  0.9857
  113MOL0     H15229   5.018   1.586   3.226 -2.5740  1.4547  0.1255
  113MOL0     H15230   5.010   1.438   3.329  2.2351  0.9707  0.2144
  113MOL0     H15231   4.786   1.609   3.255 -0.8599 -2.2550 -0.9039
  113MOL0     H15232   4.764   1.455   3.338  1.4488 -1.7329 -0.4322
  113MOL0     H15233   4.892   1.710   3.467  0.6880 -0.1354 -1.3172
  113MOL0     H15234   4.946   1.547   3.527 -0.3236  0.6660  1.0738
  113MOL0     H15235   4.740   1.632   3.641 -1.2566  0.1166 -0.5466
  113MOL0     H15236   4.703   1.483   3.557 -2.9916  1.3770  3.0458
  113MOL0     H15237   5.380   1.314   2.698 -1.1699 -0.8540  0.3674
  113MOL0     H15238   5.595   1.225   2.603 -0.8051  0.9297  0.4915
  113MOL0     H15239   5.935   1.096   2.545  0.2427 -1.6903 -0.5803
  113MOL0     H15240   6.101   0.997   2.405 -0.6622  0.3196 -0.1097
  113MOL0     H15241   7.863   1.438   1.704  0.0525 -0.7715 -0.7730
  113MOL0     H15242   8.086   1.536   1.603  0.5682 -0.6675 -1.3780
  113MOL0     H15243   8.214   1.804   1.239  0.3661 -1.6248  1.2557
  113MOL0     H15244   8.434   1.885   1.123  2.0050 -0.1804  0.0281
  113MOL0     H15245   8.636   1.891   1.076 -0.6368 -0.0252  0.7447
  113MOL0     H15246   8.589   2.043   1.054 -1.7608 -1.5337  1.7959
  113MOL0     H15247   8.822   1.996   0.966 -1.2885 -1.6363  0.3378
  113MOL0     H15248   8.883   1.989   1.131  2.6955 -0.5660 -3.1846
  113MOL0     H15249   8.768   2.241   1.033 -1.1907 -0.2342  1.7673
  113MOL0     H15250   8.938   2.197   0.997  0.6700  0.1870  0.1025
  113MOL0     H15251   8.812   2.226   1.271  2.0740 -0.4385  1.3672
  113MOL0     H15252   8.907   2.352   1.194  1.2623  0.2448  4.3555
  113MOL0     H15253   9.245   2.143   1.300  1.0885  1.9066 -2.7910
  113MOL0     H15254   8.576   2.038   1.481 -1.3960  3.3175 -1.4844
  113MOL0     H15255   8.364   1.960   1.599  0.5241 -3.3800  0.6741
  114MOL0     O15256   9.468   7.286   8.159  0.7137 -0.4368  0.1326
  114MOL0     C15257   9.525   7.395   8.187 -0.4368 -0.6127  1.3427
  114MOL0     O15258   9.571   7.482   8.091 -0.4317  0.7102  0.4499
  114MOL0     C15259   9.550   7.469   7.962  0.0752  0.1010 -0.2372
  114MOL0     C15260   9.646   7.505   7.870 -0.2326  0.9681 -0.4015
  114MOL0     C15261   9.616   7.493   7.735 -0.4669 -0.3861 -0.4344
  114MOL0     C15262   9.496   7.456   7.686 -0.3619 -0.1655  0.5423
  114MOL0     O15263   9.479   7.453   7.555  1.0389 -0.5700 -0.4784
  114MOL0     C15264   9.583   7.419   7.464  1.1257  0.2146 -0.2074
  114MOL0     C15265   9.518   7.378   7.323  0.6213  0.9368 -0.5694
  114MOL0     C15266   9.608   7.417   7.198  0.0053  0.5024  0.5847
  114MOL0     C15267   9.562   7.350   7.073  0.3906 -0.4187  0.7763
  114MOL0     C15268   9.671   7.368   6.956  0.7325  0.8187 -0.0163
  114MOL0     C15269   9.642   7.307   6.821 -0.5730 -0.0444  0.3441
  114MOL0     C15270   9.766   7.316   6.723 -0.7654  0.0117  0.0113
  114MOL0     C15271   9.734   7.306   6.573 -0.1640  0.8940  0.3394
  114MOL0     N15272   9.683   7.172   6.536  0.3591 -0.1039 -0.5393
  114MOL0     C15273   9.763   7.063   6.528  0.0209  0.3265 -0.9258
  114MOL0     C15274   9.668   6.964   6.521  0.4353 -0.1983  0.3144
  114MOL0     C15275   9.694   6.819   6.486 -0.1333  0.8259  0.0551
  114MOL0     C15276   9.618   6.774   6.359  0.0291  0.5118  0.1641
  114MOL0     C15277   9.580   6.634   6.357 -0.9836  0.3446  0.0306
  114MOL0     C15278   9.689   6.529   6.363  0.1099  0.1141 -0.9733
  114MOL0     O15279   9.787   6.563   6.264 -0.2515 -0.5822  0.6151
  114MOL0     C15280   9.895   6.477   6.244  0.0777  0.6144 -0.0761
  114MOL0     C15281   9.949   6.476   6.123 -0.2550 -0.2415  0.2034
  114MOL0     C15282  10.066   6.399   6.093 -0.5668 -0.5102  1.8575
  114MOL0     C15283  10.129   6.422   5.948 -0.4467  0.7133 -0.0347
  114MOL0     C15284  10.124   6.317   6.186  0.6123 -0.4233  0.2615
  114MOL0     C15285  10.246   6.243   6.173 -0.2044  0.6830 -0.4054
  114MOL0     O15286  10.305   6.209   6.296  0.6016  0.0331  0.2820
  114MOL0     C15287  10.422   6.142   6.316 -0.2245 -1.2283 -0.0668
  114MOL0     C15288  10.433   6.084   6.438  0.1895  0.2478  0.2155
  114MOL0     C15289  10.555   6.032   6.485 -0.5346 -0.1978  0.0693
  114MOL0     C15290  10.672   6.064   6.410  0.0895  0.8968  1.1582
  114MOL0     O15291  10.800   6.019   6.440 -0.3615 -0.0444  0.3353
  114MOL0     C15292  10.814   5.951   6.568  0.1186 -0.4279  0.2748
  114MOL0     C15293  10.958   5.926   6.605 -0.3928  0.6337  0.7786
  114MOL0     C15294  11.029   6.061   6.651 -0.0417 -0.0331  0.9602
  114MOL0     C15295  11.183   6.050   6.652 -0.0736 -0.2600  0.2848
  114MOL0     C15296  11.256   6.183   6.657  0.9205  0.2211  0.9310
  114MOL0     C15297  11.273   6.243   6.520  0.0513  0.0635 -0.4374
  114MOL0     C15298  11.377   6.349   6.502 -1.3147 -0.0762 -0.4223
  114MOL0     C15299  11.352   6.441   6.390  0.4631  0.2943  0.2136
  114MOL0    Cl15300  11.194   6.521   6.417  0.3931  0.0504 -0.1991
  114MOL0     C15301  10.670   6.129   6.285  0.6740 -0.5053  0.6818
  114MOL0     C15302  10.538   6.168   6.240 -0.0285  0.5119 -0.0232
  114MOL0     O15303  10.291   6.199   6.062 -0.0898  0.1396 -1.3801
  114MOL0     C15304  10.054   6.313   6.304 -0.2841  0.3323  0.3054
  114MOL0     C15305   9.948   6.388   6.341 -0.3749  0.8626  0.9000
  114MOL0     N15306   9.540   7.008   6.530 -0.2848  0.2498 -0.0649
  114MOL0     N15307   9.550   7.134   6.536 -0.5628 -0.4643 -0.1202
  114MOL0     C15308   9.399   7.423   7.774 -0.6174  0.8558 -0.3563
  114MOL0     C15309   9.422   7.433   7.914 -0.2881 -0.2031  1.0068
  114MOL0     C15310   9.519   7.440   8.332  0.0731  0.5413 -0.3029
  114MOL0     C15311   9.573   7.566   8.376  0.5442  0.3195 -0.1757
  114MOL0     C15312   9.564   7.609   8.509 -0.6776 -0.3797  0.0074
  114MOL0     C15313   9.519   7.521   8.607  0.4475 -0.0984 -0.6102
  114MOL0     O15314   9.497   7.558   8.740 -0.2068  0.3448  1.0937
  114MOL0     C15315   9.469   7.691   8.766 -0.2216 -0.6189 -0.4328
  114MOL0     C15316   9.478   7.704   8.916 -0.7708 -0.0987 -0.8930
  114MOL0     C15317   9.459   7.841   8.982  0.0515 -0.8806  0.0640
  114MOL0     C15318   9.402   7.831   9.130  0.6486  0.2240 -0.5049
  114MOL0     C15319   9.257   7.824   9.137 -0.3113  0.4217 -0.7167
  114MOL0     C15320   9.132   7.814   9.138  0.0164 -0.0573 -0.4634
  114MOL0     C15321   9.479   7.392   8.563 -0.2860  0.0753 -0.3204
  114MOL0     C15322   9.474   7.355   8.427  0.3906 -0.0386  0.0987
  114MOL0     H15323   9.748   7.525   7.904  0.9601 -1.1299 -2.4813
  114MOL0     H15324   9.707   7.518   7.680 -3.2067  4.4669 -3.5281
  114MOL0     H15325   9.636   7.514   7.452 -1.3312  1.9221  1.5463
  114MOL0     H15326   9.653   7.339   7.489  1.4606  0.2470 -1.0251
  114MOL0     H15327   9.497   7.271   7.315 -1.4896  1.1508  1.1466
  114MOL0     H15328   9.428   7.439   7.311 -0.7137 -1.0119 -0.8832
  114MOL0     H15329   9.598   7.526   7.196 -0.6936  0.4397  0.4804
  114MOL0     H15330   9.714   7.394   7.214 -0.9113 -3.5948  2.2054
  114MOL0     H15331   9.547   7.243   7.088  1.5518 -1.1137 -2.1911
  114MOL0     H15332   9.463   7.385   7.043  0.2203 -2.1989 -0.9626
  114MOL0     H15333   9.688   7.476   6.958  0.8696  0.8208 -0.9384
  114MOL0     H15334   9.758   7.317   7.000 -1.3671 -0.9325  2.3999
  114MOL0     H15335   9.620   7.203   6.846  0.3446 -0.3718 -0.1451
  114MOL0     H15336   9.552   7.359   6.787  0.5911  2.0101  0.1871
  114MOL0     H15337   9.806   7.414   6.747 -0.6322 -0.6216  2.6559
  114MOL0     H15338   9.832   7.233   6.748 -0.6509  0.3962  1.0100
  114MOL0     H15339   9.830   7.307   6.520  0.1708 -2.2539  0.7104
  114MOL0     H15340   9.679   7.393   6.535 -2.7494 -0.9323 -0.4423
  114MOL0     H15341   9.870   7.045   6.527 -0.0741 -0.3510 -0.2135
  114MOL0     H15342   9.800   6.799   6.467 -0.2340 -0.0387  0.3650
  114MOL0     H15343   9.663   6.758   6.571 -2.2969  1.1643 -0.4470
  114MOL0     H15344   9.668   6.814   6.270  0.6637 -0.7969 -0.0811
  114MOL0     H15345   9.522   6.827   6.358 -0.7639 -0.7868  2.1303
  114MOL0     H15346   9.515   6.620   6.270 -2.7070 -1.7155  1.5334
  114MOL0     H15347   9.514   6.615   6.442 -0.9740 -2.6021 -0.5107
  114MOL0     H15348   9.638   6.434   6.344 -1.2642  0.4759  0.6411
  114MOL0     H15349   9.726   6.527   6.465 -1.1333  2.8496 -0.3864
  114MOL0     H15350   9.897   6.536   6.049  1.0051  0.6511 -0.0176
  114MOL0     H15351  10.076   6.504   5.899 -0.4361  0.1808 -0.9530
  114MOL0     H15352  10.235   6.447   5.955  0.2466 -2.2581  2.5106
  114MOL0     H15353  10.124   6.327   5.893  2.1177 -0.3491  1.3618
  114MOL0     H15354  10.347   6.076   6.504 -1.3073  0.1918 -1.6546
  114MOL0     H15355  10.553   5.983   6.582 -0.5776  3.1361  1.8785
  114MOL0     H15356  10.787   6.000   6.661  0.2851 -2.5882  1.5195
  114MOL0     H15357  10.762   5.855   6.557  0.5038 -0.5308 -0.8986
  114MOL0     H15358  10.964   5.843   6.676 -0.5785  0.2193  0.3190
  114MOL0     H15359  11.009   5.887   6.516  0.2255  0.5833  1.1477
  114MOL0     H15360  10.996   6.084   6.752 -1.2587 -2.6460  1.2403
  114MOL0     H15361  10.994   6.139   6.582 -0.9177 -1.9454 -0.8728
  114MOL0     H15362  11.215   5.996   6.741  1.4281  0.9163  0.5057
  114MOL0     H15363  11.215   6.001   6.560 -0.9621 -0.3429  0.0039
  114MOL0     H15364  11.354   6.168   6.704  0.4486 -0.7207  1.6286
  114MOL0     H15365  11.208   6.255   6.723  0.0235  0.1273  0.3924
  114MOL0     H15366  11.300   6.168   6.445  0.2610 -1.5569  1.1960
  114MOL0     H15367  11.170   6.277   6.505 -0.6664 -2.1961 -1.0804
  114MOL0     H15368  11.479   6.315   6.483 -1.4411  0.6771 -2.6469
  114MOL0     H15369  11.374   6.401   6.598 -3.3396 -0.2186 -0.3608
  114MOL0     H15370  11.352   6.390   6.293 -0.9147  2.3951 -0.9592
  114MOL0     H15371  11.424   6.524   6.391 -1.2229  1.8318  1.6177
  114MOL0     H15372  10.744   6.150   6.208 -2.0768  4.1367 -1.1696
  114MOL0     H15373  10.533   6.213   6.142  0.0186  1.0690  0.2264
  114MOL0     H15374  10.093   6.257   6.389 -0.3109 -0.2682 -0.0720
  114MOL0     H15375   9.905   6.372   6.439  0.7996 -0.9966  1.1577
  114MOL0     H15376   9.305   7.387   7.734 -0.0768 -0.8385 -0.1801
  114MOL0     H15377   9.334   7.411   7.974 -1.2433 -1.2272 -0.6772
  114MOL0     H15378   9.611   7.641   8.307 -0.6963 -1.8245 -3.3784
  114MOL0     H15379   9.589   7.711   8.537  1.0022 -0.9007  0.5121
  114MOL0     H15380   9.550   7.750   8.721  0.7326 -2.1616 -0.8094
  114MOL0     H15381   9.371   7.722   8.729  0.5126 -1.3544 -3.1946
  114MOL0     H15382   9.566   7.656   8.959  0.5905  4.5434  2.3169
  114MOL0     H15383   9.398   7.643   8.959 -1.2476  1.1695  0.0934
  114MOL0     H15384   9.405   7.906   8.911 -1.7737 -0.1208  2.0443
  114MOL0     H15385   9.562   7.877   8.980  0.2353 -1.3810  0.4244
  114MOL0     H15386   9.431   7.919   9.189  2.2801  0.8734 -2.2067
  114MOL0     H15387   9.449   7.753   9.191  0.1689  1.5322  1.6500
  114MOL0     H15388   9.027   7.816   9.156 -0.6557 -2.0896 -3.4017
  114MOL0     H15389   9.451   7.340   8.654  2.6559  1.0666  1.2750
  114MOL0     H15390   9.430   7.258   8.405 -1.3315  1.0435 -1.6044
  115MOL0     O15391  10.989   7.601   2.743  0.0556  0.5679  0.1288
  115MOL0     C15392  10.948   7.686   2.818  0.7426 -0.7875  0.0371
  115MOL0     O15393  10.824   7.753   2.800 -0.5476 -0.0826  0.1884
  115MOL0     C15394  10.748   7.723   2.690  0.2321 -0.1058 -0.8895
  115MOL0     C15395  10.803   7.724   2.563  0.2518  0.0227 -1.4568
  115MOL0     C15396  10.739   7.696   2.441  0.3027 -0.6201  0.0870
  115MOL0     C15397  10.612   7.651   2.454  1.0946  0.5339  0.0346
  115MOL0     O15398  10.539   7.619   2.341 -0.4253 -0.6562  0.6435
  115MOL0     C15399  10.597   7.522   2.257 -1.1189 -0.4101 -1.1264
  115MOL0     C15400  10.502   7.480   2.153  0.3588 -0.3802 -0.2487
  115MOL0     C15401  10.433   7.593   2.080 -0.0400  0.1912  0.5725
  115MOL0     C15402  10.515   7.660   1.977 -0.4656 -0.3175 -1.0466
  115MOL0     C15403  10.450   7.748   1.874  0.1776 -0.4362  0.4229
  115MOL0     C15404  10.550   7.823   1.785  0.1714 -0.3740  0.1825
  115MOL0     C15405  10.498   7.956   1.723  1.6638  0.6556 -0.2460
  115MOL0     C15406  10.364   7.929   1.645 -0.0009 -0.0997  0.0542
  115MOL0     N15407  10.301   8.062   1.616  0.0183  0.1985 -0.2926
  115MOL0     C15408  10.243   8.148   1.706 -0.1782  0.6160 -0.7333
  115MOL0     C15409  10.160   8.216   1.629  0.8231 -0.9100 -0.7522
  115MOL0     C15410  10.063   8.328   1.683  0.5403 -0.1477 -0.1236
  115MOL0     C15411  10.146   8.452   1.742  0.1128  0.7076 -0.3513
  115MOL0     C15412  10.054   8.550   1.809  0.3611 -0.3918 -0.2894
  115MOL0     C15413   9.985   8.641   1.701 -0.8550  0.3569  0.2289
  115MOL0     O15414   9.958   8.774   1.753  0.7130 -0.5084  0.6867
  115MOL0     C15415   9.923   8.873   1.662  0.6755  0.1949  0.3948
  115MOL0     C15416   9.881   9.000   1.712 -0.4395  0.2054 -0.0539
  115MOL0     C15417   9.832   9.098   1.639  0.0013 -0.4336 -0.2296
  115MOL0     C15418   9.800   9.237   1.698 -0.1157  1.0498  0.1739
  115MOL0     C15419   9.838   9.076   1.500  0.6168 -0.7487 -0.1181
  115MOL0     C15420   9.792   9.184   1.419 -0.0310  0.4154  0.4568
  115MOL0     O15421   9.871   9.219   1.317 -0.1746 -0.2229  0.0805
  115MOL0     C15422   9.815   9.314   1.215  0.4923 -0.4497 -0.1156
  115MOL0     C15423   9.692   9.294   1.149  0.3707  0.1963 -0.2931
  115MOL0     C15424   9.654   9.375   1.041  0.2131 -0.0196  0.8886
  115MOL0     C15425   9.717   9.493   1.005 -0.3154  0.2286 -0.9039
  115MOL0     O15426   9.661   9.559   0.897 -0.9203 -0.2837  0.2877
  115MOL0     C15427   9.709   9.689   0.862 -0.5570 -0.4786  0.4252
  115MOL0     C15428   9.592   9.781   0.814 -0.4909  0.0885 -0.8493
  115MOL0     C15429   9.634   9.913   0.753  0.1057  0.0265 -0.0906
  115MOL0     C15430   9.520   9.995   0.692 -0.3296 -0.2189 -0.2157
  115MOL0     C15431   9.583  10.117   0.624 -0.1183 -0.2569 -0.1916
  115MOL0     C15432   9.489  10.239   0.613  0.0762 -0.7578 -0.0488
  115MOL0     C15433   9.564  10.367   0.580 -0.8329  0.1193 -0.1377
  115MOL0     C15434   9.483  10.495   0.590 -0.5157 -0.2001 -0.5061
  115MOL0    Cl15435   9.595  10.628   0.545  0.2895 -0.4132  0.2772
  115MOL0     C15436   9.837   9.513   1.073 -0.4825 -0.1271  0.1420
  115MOL0     C15437   9.884   9.424   1.169 -0.1921 -0.3586  0.1990
  115MOL0     O15438   9.676   9.221   1.436 -0.4585  0.2021 -0.0876
  115MOL0     C15439   9.884   8.963   1.435  0.3780  0.2389 -0.2423
  115MOL0     C15440   9.912   8.859   1.521 -0.3971  0.0285  0.9387
  115MOL0     N15441  10.166   8.188   1.503  0.3710  0.2956 -0.2646
  115MOL0     N15442  10.233   8.078   1.499 -1.0165 -0.6573 -0.1646
  115MOL0     C15443  10.550   7.645   2.575 -0.0855  0.0725 -0.3849
  115MOL0     C15444  10.618   7.684   2.696  0.8553 -0.1394  0.1697
  115MOL0     C15445  11.033   7.721   2.938 -0.5022 -0.1944  0.3900
  115MOL0     C15446  11.133   7.635   2.981 -0.7402 -0.1875  0.5559
  115MOL0     C15447  11.212   7.663   3.088 -0.4319 -0.0539  0.1481
  115MOL0     C15448  11.191   7.773   3.164 -0.1054 -0.0270 -0.3137
  115MOL0     O15449  11.275   7.798   3.270  0.2490 -0.6627  1.0159
  115MOL0     C15450  11.238   7.901   3.365  0.6395  0.5077  0.1552
  115MOL0     C15451  11.328   7.887   3.490 -0.1838  0.9359 -0.4365
  115MOL0     C15452  11.462   7.959   3.474 -0.5054  0.2704 -0.6528
  115MOL0     C15453  11.581   7.865   3.459 -0.4541  1.1686 -0.2604
  115MOL0     C15454  11.592   7.781   3.582 -0.3116 -0.9390  1.1694
  115MOL0     C15455  11.576   7.721   3.687  1.4356  0.9877 -0.3466
  115MOL0     C15456  11.080   7.857   3.129 -1.1818 -0.7143 -0.1221
  115MOL0     C15457  11.011   7.832   3.019  0.7944  0.3047  0.8912
  115MOL0     H15458  10.899   7.770   2.539  2.3725 -2.3754  1.5766
  115MOL0     H15459  10.797   7.716   2.351  0.8744 -2.7977 -0.0611
  115MOL0     H15460  10.690   7.558   2.211 -1.6926  2.9229  0.0782
  115MOL0     H15461  10.613   7.433   2.318 -2.1467  0.3118  0.2214
  115MOL0     H15462  10.542   7.403   2.086  0.4639 -2.3837  1.9878
  115MOL0     H15463  10.421   7.424   2.200 -1.0167  1.2126 -0.6068
  115MOL0     H15464  10.357   7.547   2.016 -0.1376  0.5686  0.4145
  115MOL0     H15465  10.384   7.660   2.151  0.2829  2.5356 -1.2815
  115MOL0     H15466  10.582   7.722   2.038 -0.9709  2.1231 -2.7917
  115MOL0     H15467  10.582   7.594   1.920 -1.1388 -0.9157 -1.1495
  115MOL0     H15468  10.390   7.705   1.793  0.8873  0.9675 -0.9149
  115MOL0     H15469  10.381   7.818   1.922 -1.8035 -2.5447  0.8094
  115MOL0     H15470  10.641   7.840   1.844  0.5321 -0.2383 -0.4022
  115MOL0     H15471  10.576   7.749   1.708 -1.1752 -2.4955  1.6605
  115MOL0     H15472  10.484   8.037   1.794 -0.1727 -1.2175  1.6940
  115MOL0     H15473  10.579   7.983   1.655  1.1194 -0.0895 -1.2178
  115MOL0     H15474  10.293   7.864   1.696  0.1911 -0.1297  0.2905
  115MOL0     H15475  10.380   7.876   1.551  0.3732  1.9262 -1.1029
  115MOL0     H15476  10.263   8.155   1.812 -3.2381 -3.4476  0.3913
  115MOL0     H15477  10.004   8.367   1.599 -1.5053 -1.1608  0.7735
  115MOL0     H15478  10.001   8.294   1.766 -1.3011  1.5725 -0.7016
  115MOL0     H15479  10.212   8.492   1.664  1.9281 -0.2382  0.6364
  115MOL0     H15480  10.213   8.415   1.820 -0.7313  1.0167  0.5429
  115MOL0     H15481  10.111   8.615   1.876  1.5900 -1.3099 -0.4162
  115MOL0     H15482   9.978   8.497   1.867  2.7045 -2.8305  0.7645
  115MOL0     H15483   9.892   8.590   1.671  0.0230 -2.0771  1.3835
  115MOL0     H15484  10.056   8.644   1.618  2.7507  0.5239  3.0643
  115MOL0     H15485   9.895   9.012   1.819 -3.4810 -0.3478  0.4828
  115MOL0     H15486   9.705   9.277   1.662  1.4350  2.2782 -2.9338
  115MOL0     H15487   9.799   9.243   1.807  0.8626  1.9320  0.1475
  115MOL0     H15488   9.880   9.302   1.661  0.9942 -0.8352 -0.9681
  115MOL0     H15489   9.630   9.212   1.184  0.7952  0.0671  0.1589
  115MOL0     H15490   9.571   9.337   0.982  0.8163  1.4136 -0.9904
  115MOL0     H15491   9.757   9.750   0.939  2.0973 -2.8995  0.8434
  115MOL0     H15492   9.786   9.680   0.785 -2.2779 -0.5062 -1.3540
  115MOL0     H15493   9.529   9.722   0.746 -0.2046 -1.0523 -0.1448
  115MOL0     H15494   9.522   9.809   0.893 -0.5021  2.0061 -1.5029
  115MOL0     H15495   9.711   9.888   0.679 -0.2154 -1.0352 -0.0749
  115MOL0     H15496   9.688   9.969   0.830 -1.8701 -1.8129  2.8119
  115MOL0     H15497   9.468   9.928   0.622  3.0636 -3.6846  0.2682
  115MOL0     H15498   9.436  10.017   0.759 -0.2527  0.6044 -0.3774
  115MOL0     H15499   9.618  10.092   0.524  1.4030  0.0499  0.2456
  115MOL0     H15500   9.671  10.150   0.679  0.9400  0.7886 -2.3914
  115MOL0     H15501   9.417  10.219   0.533 -1.1692 -1.2176  1.1739
  115MOL0     H15502   9.429  10.249   0.703  0.8301  0.7928  0.3192
  115MOL0     H15503   9.590  10.357   0.475  0.8071 -0.8256  0.3223
  115MOL0     H15504   9.659  10.380   0.633 -1.1737  1.2352  0.2365
  115MOL0     H15505   9.440  10.513   0.689 -0.0577  1.2160 -0.5365
  115MOL0     H15506   9.402  10.496   0.516 -1.4369  1.3073  0.4409
  115MOL0     H15507   9.897   9.602   1.057  1.7451 -1.2686  1.5598
  115MOL0     H15508   9.981   9.453   1.207 -0.5190  3.5957 -1.4429
  115MOL0     H15509   9.891   8.957   1.327  2.1849  2.0901 -0.2760
  115MOL0     H15510   9.935   8.762   1.477 -2.6550 -1.3490  2.5964
  115MOL0     H15511  10.445   7.617   2.581  0.6857 -3.3638 -1.0901
  115MOL0     H15512  10.556   7.695   2.785  0.4283  2.5364 -0.3546
  115MOL0     H15513  11.155   7.547   2.922 -0.1222  2.0295 -2.7465
  115MOL0     H15514  11.284   7.601   3.141  0.1951  0.7383  0.2391
  115MOL0     H15515  11.249   8.003   3.327 -3.0420  1.0443  0.1388
  115MOL0     H15516  11.129   7.896   3.378  0.5242 -2.9719 -1.0261
  115MOL0     H15517  11.335   7.779   3.504 -3.2152  0.9304  1.8433
  115MOL0     H15518  11.280   7.935   3.575 -0.4356 -1.4586  0.8359
  115MOL0     H15519  11.483   8.000   3.573  0.2804 -0.5033 -0.4895
  115MOL0     H15520  11.454   8.038   3.399 -0.1709 -0.6185 -1.6609
  115MOL0     H15521  11.670   7.928   3.454 -0.3871  1.3234  1.8931
  115MOL0     H15522  11.582   7.800   3.372 -3.4834  1.0647 -0.3206
  115MOL0     H15523  11.569   7.660   3.775  0.4906  1.4059 -0.1229
  115MOL0     H15524  11.057   7.953   3.173  2.0330  1.2915 -2.4134
  115MOL0     H15525  10.933   7.902   2.989  3.9766  2.0437 -4.8481
  116MOL0     O15526   8.272   9.230   1.857  0.3757  0.1609 -0.1809
  116MOL0     C15527   8.307   9.131   1.791 -0.4119 -0.8716 -0.7471
  116MOL0     O15528   8.360   9.011   1.842 -0.4134 -0.5123 -0.6065
  116MOL0     C15529   8.388   8.989   1.976 -0.0423  0.9377 -0.7502
  116MOL0     C15530   8.403   8.851   2.014 -0.7834 -0.0369 -0.0641
  116MOL0     C15531   8.435   8.810   2.141  0.0762  0.0248  0.3609
  116MOL0     C15532   8.440   8.896   2.251  0.1586 -0.3324  0.3032
  116MOL0     O15533   8.448   8.844   2.379 -0.3177  0.1076 -0.1488
  116MOL0     C15534   8.426   8.931   2.488  0.2770  0.2436 -0.4028
  116MOL0     C15535   8.430   8.841   2.611  0.4308 -0.0580 -0.2907
  116MOL0     C15536   8.379   8.911   2.738 -0.6692 -0.3549 -0.1381
  116MOL0     C15537   8.232   8.941   2.739 -0.2584  0.8490  0.7826
  116MOL0     C15538   8.139   8.828   2.728 -0.1072 -0.3294 -0.3172
  116MOL0     C15539   7.998   8.879   2.782  0.4511 -0.1337  0.0797
  116MOL0     C15540   7.891   8.763   2.788  0.6851  1.1380  0.3501
  116MOL0     C15541   7.756   8.819   2.817  0.1095 -0.3689 -0.4229
  116MOL0     N15542   7.677   8.711   2.876  0.0675  0.1335 -0.4513
  116MOL0     C15543   7.578   8.630   2.813  0.1053  0.0942 -0.6793
  116MOL0     C15544   7.525   8.544   2.911 -0.2749 -0.0551  0.1948
  116MOL0     C15545   7.426   8.440   2.897 -0.0068 -0.1537 -0.0402
  116MOL0     C15546   7.290   8.512   2.889 -0.0729 -0.1687  0.2167
  116MOL0     C15547   7.179   8.404   2.858 -0.1603  0.1139  0.2968
  116MOL0     C15548   7.043   8.463   2.886 -0.0533  0.0477 -0.3699
  116MOL0     O15549   6.948   8.360   2.869  0.2610 -0.7511 -0.1663
  116MOL0     C15550   6.818   8.391   2.870  0.1416  0.4661 -0.3511
  116MOL0     C15551   6.777   8.518   2.918  0.8997  0.2507 -0.7615
  116MOL0     C15552   6.639   8.544   2.933  0.0787 -0.3831 -0.2232
  116MOL0     C15553   6.598   8.674   3.000 -0.1380 -0.1089  0.1649
  116MOL0     C15554   6.540   8.464   2.879  0.8047 -0.3432  0.5511
  116MOL0     C15555   6.391   8.493   2.873 -0.9600  1.3188 -0.6471
  116MOL0     O15556   6.321   8.397   2.812 -0.0786 -0.0968 -0.3591
  116MOL0     C15557   6.192   8.382   2.866 -0.7577 -0.6416  0.5569
  116MOL0     C15558   6.166   8.348   3.005 -0.3582 -0.4117 -0.7362
  116MOL0     C15559   6.036   8.353   3.054 -0.2127  0.8154  0.6288
  116MOL0     C15560   5.931   8.388   2.968 -0.1887 -0.1633  0.6930
  116MOL0     O15561   5.797   8.406   3.024 -1.1711  0.1167 -0.4596
  116MOL0     C15562   5.689   8.340   2.949  0.7934  0.0682 -0.3879
  116MOL0     C15563   5.684   8.187   2.948 -0.1994 -0.0716  0.8749
  116MOL0     C15564   5.702   8.125   3.085  0.7576 -0.2138  0.0994
  116MOL0     C15565   5.573   8.114   3.165 -0.1578 -0.0296 -0.2099
  116MOL0     C15566   5.581   8.088   3.316  0.6903  0.0643  0.4888
  116MOL0     C15567   5.628   7.949   3.357  0.0005  0.2062 -0.2369
  116MOL0     C15568   5.538   7.834   3.314 -0.3404  0.9755 -0.3041
  116MOL0     C15569   5.610   7.700   3.364 -0.0746  0.4506 -0.2338
  116MOL0    Cl15570   5.777   7.706   3.291 -0.0231  0.1405  0.0504
  116MOL0     C15571   5.958   8.413   2.835 -0.0952 -0.9395  0.4500
  116MOL0     C15572   6.083   8.406   2.786  0.3866 -0.2152 -0.0383
  116MOL0     O15573   6.340   8.594   2.928 -0.3693 -0.3020 -0.2536
  116MOL0     C15574   6.588   8.350   2.810  0.0039  0.0731  0.3412
  116MOL0     C15575   6.725   8.305   2.814  0.5873 -0.7844  0.5911
  116MOL0     N15576   7.584   8.562   3.026 -0.2317  0.2789 -0.0559
  116MOL0     N15577   7.677   8.660   3.006  0.4477  0.7436 -0.1266
  116MOL0     C15578   8.433   9.034   2.215  0.5056 -0.3400  0.5830
  116MOL0     C15579   8.411   9.077   2.077  0.1202 -0.3058  0.5954
  116MOL0     C15580   8.283   9.125   1.646  0.5410 -0.9164  0.4677
  116MOL0     C15581   8.197   9.221   1.584  0.3485  0.0169 -0.1361
  116MOL0     C15582   8.183   9.226   1.445 -0.0763 -0.0902  0.3599
  116MOL0     C15583   8.256   9.137   1.368  0.4797 -0.0608  1.0198
  116MOL0     O15584   8.243   9.127   1.233  0.2350  0.1837 -0.8180
  116MOL0     C15585   8.159   9.229   1.172 -0.2504  0.3239 -0.9377
  116MOL0     C15586   8.169   9.205   1.027 -0.8498 -0.1691 -0.4316
  116MOL0     C15587   8.309   9.238   0.973  0.8125  0.6039  0.8157
  116MOL0     C15588   8.315   9.388   0.927  0.5593  0.1469  0.6168
  116MOL0     C15589   8.444   9.429   0.878 -0.3026 -0.3131 -0.1341
  116MOL0     C15590   8.560   9.444   0.836 -0.1679  0.1290  0.4549
  116MOL0     C15591   8.336   9.034   1.429 -0.4272  0.2909  0.2298
  116MOL0     C15592   8.346   9.028   1.566  0.4940 -0.1395 -0.9567
  116MOL0     H15593   8.400   8.771   1.940  0.4293  0.4798 -0.7057
  116MOL0     H15594   8.432   8.704   2.161 -0.8183 -0.2144 -0.8530
  116MOL0     H15595   8.498   9.014   2.501  3.9100 -2.8010  0.7509
  116MOL0     H15596   8.322   8.962   2.474  0.6133  1.0704 -1.2681
  116MOL0     H15597   8.380   8.744   2.600  0.0067 -0.0205  1.1315
  116MOL0     H15598   8.530   8.812   2.642 -0.0659 -1.2999  0.2164
  116MOL0     H15599   8.401   8.851   2.827 -1.1288  2.0891  1.7276
  116MOL0     H15600   8.427   9.008   2.757 -2.8834  0.1896  3.8051
  116MOL0     H15601   8.206   9.000   2.828 -2.3670  0.0887  0.7263
  116MOL0     H15602   8.197   9.005   2.658 -0.1862  0.2977  0.3125
  116MOL0     H15603   8.137   8.778   2.631  2.8257  0.5080 -0.9017
  116MOL0     H15604   8.172   8.752   2.800  0.7195  0.0853 -0.2455
  116MOL0     H15605   7.999   8.914   2.886 -0.9005 -2.6837  1.0519
  116MOL0     H15606   7.961   8.962   2.722  0.4534  0.7615  1.2756
  116MOL0     H15607   7.873   8.713   2.692  0.4451  2.8225 -0.5240
  116MOL0     H15608   7.909   8.683   2.860  2.8673 -0.0676 -1.4118
  116MOL0     H15609   7.705   8.860   2.729 -0.7403  1.5623  0.8991
  116MOL0     H15610   7.756   8.909   2.880  2.7197 -1.1688  0.8891
  116MOL0     H15611   7.564   8.643   2.706  1.7708  3.8774 -0.6283
  116MOL0     H15612   7.445   8.398   2.798  1.6077  1.0203 -0.2834
  116MOL0     H15613   7.422   8.364   2.976  1.5685 -0.8916 -0.6275
  116MOL0     H15614   7.302   8.590   2.812  1.9313 -0.0192  0.6215
  116MOL0     H15615   7.275   8.546   2.992  3.4775 -5.2519  2.8562
  116MOL0     H15616   7.198   8.314   2.918 -0.5683 -1.1578 -1.4188
  116MOL0     H15617   7.186   8.380   2.752 -3.1732 -0.2428  0.0809
  116MOL0     H15618   7.034   8.551   2.822  2.8537  1.0222  0.3889
  116MOL0     H15619   7.037   8.501   2.988  0.4695 -1.5590  0.2879
  116MOL0     H15620   6.848   8.593   2.950  1.3528 -1.1130  1.6903
  116MOL0     H15621   6.517   8.647   3.069 -2.6331 -2.2009 -3.2312
  116MOL0     H15622   6.679   8.735   3.042  0.0892 -0.3744  0.1086
  116MOL0     H15623   6.544   8.737   2.928 -1.3149  0.3542  1.4027
  116MOL0     H15624   6.245   8.331   3.077 -0.0189  1.7968 -0.5043
  116MOL0     H15625   6.003   8.335   3.156  0.1931 -1.5343  0.4036
  116MOL0     H15626   5.595   8.363   3.000  1.8887  1.8651  0.9524
  116MOL0     H15627   5.685   8.381   2.847  0.2554  1.5034  0.1898
  116MOL0     H15628   5.587   8.163   2.902  0.3949 -1.0152  0.0751
  116MOL0     H15629   5.759   8.150   2.877 -1.4150 -0.5751 -0.2059
  116MOL0     H15630   5.781   8.177   3.141 -1.1565 -0.2194  3.0607
  116MOL0     H15631   5.733   8.022   3.069  1.8216  0.2672 -1.0511
  116MOL0     H15632   5.516   8.206   3.145  1.5493  1.0762 -0.2028
  116MOL0     H15633   5.503   8.046   3.115 -0.1560  0.9385 -1.5920
  116MOL0     H15634   5.477   8.105   3.348 -0.9553 -2.7568 -2.6161
  116MOL0     H15635   5.646   8.167   3.354 -0.2466  1.4622 -0.6782
  116MOL0     H15636   5.726   7.934   3.311  1.0735 -0.4534  2.1158
  116MOL0     H15637   5.639   7.943   3.465  0.3800 -0.6103 -0.3158
  116MOL0     H15638   5.534   7.829   3.205 -0.6762 -0.7627 -0.2370
  116MOL0     H15639   5.437   7.848   3.354  0.0336 -3.4387  2.9228
  116MOL0     H15640   5.553   7.610   3.341 -1.7919  1.2994  0.5233
  116MOL0     H15641   5.621   7.691   3.472 -0.7929  0.0219 -0.1915
  116MOL0     H15642   5.876   8.454   2.778  0.9075 -0.5519 -0.7668
  116MOL0     H15643   6.104   8.451   2.689 -1.8033  4.4433  1.3851
  116MOL0     H15644   6.521   8.292   2.746  2.0220  1.3648 -3.2612
  116MOL0     H15645   6.742   8.208   2.769 -1.7532 -1.5819  1.2710
  116MOL0     H15646   8.437   9.116   2.286 -0.2129  2.3142 -2.2362
  116MOL0     H15647   8.414   9.184   2.059  2.9110 -0.5501 -0.8185
  116MOL0     H15648   8.142   9.288   1.650  0.3449  0.3106 -0.4360
  116MOL0     H15649   8.119   9.310   1.418 -0.1220 -0.3512 -0.3522
  116MOL0     H15650   8.054   9.229   1.203  0.0813 -0.1014  0.2100
  116MOL0     H15651   8.215   9.318   1.201  2.9789 -1.1564 -2.1450
  116MOL0     H15652   8.095   9.269   0.976  1.4222  2.1463 -1.0703
  116MOL0     H15653   8.131   9.104   1.008 -0.9082 -0.4154  0.9232
  116MOL0     H15654   8.313   9.186   0.877  0.9627  0.9659  0.6228
  116MOL0     H15655   8.391   9.197   1.033  1.0983  0.8302  0.5825
  116MOL0     H15656   8.278   9.463   0.998 -1.3419 -0.0154 -0.1573
  116MOL0     H15657   8.254   9.386   0.837  2.2774 -2.0389 -0.6034
  116MOL0     H15658   8.659   9.453   0.799 -0.5673 -0.9705 -0.9750
  116MOL0     H15659   8.368   8.944   1.376  0.7002  0.8955 -0.1513
  116MOL0     H15660   8.422   8.963   1.607  0.2238  0.7976  1.1602
  117MOL0     O15661   1.334   9.335   6.413  0.3869 -0.6659 -0.6107
  117MOL0     C15662   1.371   9.448   6.386 -0.3361  0.1519 -0.3782
  117MOL0     O15663   1.294   9.556   6.410  0.5439 -0.0873 -0.4348
  117MOL0     C15664   1.157   9.546   6.432  0.3843  0.0627  0.2938
  117MOL0     C15665   1.103   9.502   6.554  0.3067  0.7032  0.0433
  117MOL0     C15666   0.968   9.504   6.583  0.3034 -0.2347 -0.5087
  117MOL0     C15667   0.879   9.545   6.488  0.8835 -0.1731 -0.0193
  117MOL0     O15668   0.746   9.512   6.520  0.1044  0.3532  1.1913
  117MOL0     C15669   0.645   9.516   6.419  0.3166 -0.5827  0.7606
  117MOL0     C15670   0.591   9.660   6.396  0.1752  0.3343  0.0393
  117MOL0     C15671   0.461   9.696   6.465  0.5566 -0.6059  0.4066
  117MOL0     C15672   0.423   9.842   6.436 -1.1444  0.2735  0.5910
  117MOL0     C15673   0.330   9.896   6.542 -0.4344 -0.1562 -0.1242
  117MOL0     C15674   0.191   9.830   6.537  0.5878  0.6918 -0.7490
  117MOL0     C15675   0.125   9.836   6.676 -0.7290 -0.5397  0.1961
  117MOL0     C15676   0.190   9.742   6.778 -0.4409  0.0018 -0.6290
  117MOL0     N15677   0.094   9.703   6.887  0.6386  0.0654  0.1609
  117MOL0     C15678   0.126   9.612   6.987 -0.5953  0.1531  0.6527
  117MOL0     C15679   0.032   9.641   7.080  0.2178  0.6763  0.0644
  117MOL0     C15680   0.029   9.562   7.206 -0.6052  0.2218 -0.0062
  117MOL0     C15681  -0.049   9.429   7.197  0.1839 -0.1183  0.0736
  117MOL0     C15682  -0.197   9.452   7.179 -0.6766  0.7634  0.8904
  117MOL0     C15683  -0.266   9.321   7.148 -0.5436 -0.1041 -0.4524
  117MOL0     O15684  -0.258   9.224   7.260 -0.3245 -0.4431  1.1983
  117MOL0     C15685  -0.363   9.194   7.340 -0.1929 -0.1794 -0.8493
  117MOL0     C15686  -0.349   9.189   7.485 -0.2339  0.3870  0.4282
  117MOL0     C15687  -0.450   9.177   7.577  0.1873  0.0994 -1.3876
  117MOL0     C15688  -0.421   9.206   7.723  0.0379  0.8374  0.8192
  117MOL0     C15689  -0.580   9.166   7.519 -0.3360 -0.0343 -0.7273
  117MOL0     C15690  -0.703   9.156   7.599  0.4869 -0.8150 -0.0253
  117MOL0     O15691  -0.819   9.187   7.533  0.1475  0.2346 -0.9148
  117MOL0     C15692  -0.943   9.178   7.595 -1.4128  1.4055  0.7358
  117MOL0     C15693  -1.040   9.098   7.531 -0.2663 -0.0866  0.5044
  117MOL0     C15694  -1.161   9.101   7.594  0.1039 -0.3464 -0.0491
  117MOL0     C15695  -1.190   9.171   7.712 -0.1755 -0.5032 -0.7654
  117MOL0     O15696  -1.310   9.159   7.782 -0.3535  0.0105  0.5957
  117MOL0     C15697  -1.427   9.116   7.719 -0.3229 -0.1832  0.0099
  117MOL0     C15698  -1.538   9.160   7.819  0.5819 -0.5913 -0.6357
  117MOL0     C15699  -1.675   9.161   7.747 -0.8509 -0.5569 -0.1417
  117MOL0     C15700  -1.799   9.195   7.828 -0.0525 -0.3932 -0.7455
  117MOL0     C15701  -1.778   9.324   7.903  0.2483 -1.1211  0.3784
  117MOL0     C15702  -1.891   9.343   7.999  0.6098 -0.3997 -0.4896
  117MOL0     C15703  -1.852   9.455   8.097  0.4268 -0.2433  0.4273
  117MOL0     C15704  -1.911   9.597   8.076  0.2806  0.7975 -0.1622
  117MOL0    Cl15705  -1.849   9.675   7.926 -0.2524 -0.3992 -0.3553
  117MOL0     C15706  -1.095   9.251   7.771  0.0151  0.0524 -0.0975
  117MOL0     C15707  -0.969   9.245   7.714 -0.4515 -0.4467  0.0141
  117MOL0     O15708  -0.698   9.131   7.718  0.9143 -0.3859 -0.4916
  117MOL0     C15709  -0.597   9.188   7.380 -1.0554 -0.9174  0.4103
  117MOL0     C15710  -0.489   9.200   7.293 -0.0097 -0.3562  0.0371
  117MOL0     N15711  -0.057   9.736   7.042 -0.4993  0.0641 -0.3082
  117MOL0     N15712  -0.011   9.776   6.935 -0.0656  0.3529  0.2902
  117MOL0     C15713   0.930   9.595   6.365  0.0635 -0.3617 -0.0325
  117MOL0     C15714   1.069   9.592   6.334  0.9257 -0.7480  0.3083
  117MOL0     C15715   1.501   9.471   6.317  0.1655 -0.9023  0.4203
  117MOL0     C15716   1.540   9.593   6.255  0.2031 -0.6877  0.0721
  117MOL0     C15717   1.662   9.615   6.196  0.6885  0.2474 -0.3029
  117MOL0     C15718   1.755   9.521   6.196 -0.0514  0.2478 -0.7601
  117MOL0     O15719   1.873   9.554   6.143 -0.2603  0.2739  0.5644
  117MOL0     C15720   1.961   9.448   6.120  0.8363  0.0076 -0.7038
  117MOL0     C15721   2.096   9.510   6.069  0.0585  0.0912 -0.0156
  117MOL0     C15722   2.082   9.610   5.955 -0.0039 -0.6491 -0.4218
  117MOL0     C15723   2.208   9.649   5.872  0.5098  0.8174 -0.1829
  117MOL0     C15724   2.322   9.699   5.950  0.1393  0.2997  0.0678
  117MOL0     C15725   2.408   9.742   6.023  0.2759  0.4199 -0.8121
  117MOL0     C15726   1.724   9.393   6.253  0.0331  0.5142  0.0387
  117MOL0     C15727   1.602   9.369   6.321  0.6182  0.3701  0.0083
  117MOL0     H15728   1.180   9.476   6.626  1.5370  0.5000 -1.2930
  117MOL0     H15729   0.936   9.479   6.684 -2.2839  0.6200 -1.0378
  117MOL0     H15730   0.668   9.475   6.320 -1.9334  1.6896 -0.8304
  117MOL0     H15731   0.560   9.454   6.448  0.1619 -1.9352 -2.2090
  117MOL0     H15732   0.675   9.728   6.413  2.1058 -2.1460  0.9960
  117MOL0     H15733   0.572   9.671   6.289 -3.1948 -1.6307  0.2797
  117MOL0     H15734   0.383   9.639   6.414 -0.4524  1.4330 -0.4427
  117MOL0     H15735   0.458   9.666   6.570  0.5305 -3.8772 -0.4199
  117MOL0     H15736   0.509   9.910   6.439 -1.7942  1.0838  1.7864
  117MOL0     H15737   0.371   9.847   6.340 -1.3559  2.8517  0.7600
  117MOL0     H15738   0.372   9.870   6.639 -4.6205 -1.1097  1.6598
  117MOL0     H15739   0.319  10.004   6.539  3.4395  0.3776 -0.5944
  117MOL0     H15740   0.126   9.887   6.470 -2.2992  0.3108  1.5769
  117MOL0     H15741   0.193   9.729   6.495 -0.1553  1.4501 -2.7397
  117MOL0     H15742   0.123   9.940   6.708  2.2820  0.2709 -1.9179
  117MOL0     H15743   0.019   9.806   6.671 -0.6550 -0.6710 -0.7610
  117MOL0     H15744   0.265   9.795   6.838 -2.1621 -0.8191  2.4679
  117MOL0     H15745   0.231   9.647   6.741  0.2770 -0.0301  0.2218
  117MOL0     H15746   0.209   9.542   6.995  0.2719  1.3329  2.8317
  117MOL0     H15747   0.129   9.537   7.242  0.3057  1.3363 -1.6352
  117MOL0     H15748  -0.006   9.623   7.290 -1.2525 -0.3086  0.1272
  117MOL0     H15749  -0.039   9.376   7.293 -0.6282  2.9871  2.0127
  117MOL0     H15750  -0.012   9.367   7.115 -1.6990 -0.0079 -0.9074
  117MOL0     H15751  -0.228   9.527   7.106 -2.2530 -0.7103  0.0074
  117MOL0     H15752  -0.228   9.483   7.279 -2.2019  2.4138 -0.0436
  117MOL0     H15753  -0.220   9.274   7.061 -1.8194 -1.6683 -0.3413
  117MOL0     H15754  -0.366   9.348   7.113  1.1971  4.4989 -2.6803
  117MOL0     H15755  -0.248   9.194   7.523 -0.3568  0.0934  0.8119
  117MOL0     H15756  -0.475   9.298   7.747  2.9908  2.3087  2.4214
  117MOL0     H15757  -0.429   9.127   7.798 -2.9157  2.4093  2.3143
  117MOL0     H15758  -0.316   9.238   7.729  0.7578 -1.5247  2.1676
  117MOL0     H15759  -1.030   9.033   7.446 -0.9950 -0.9924  1.0895
  117MOL0     H15760  -1.250   9.047   7.562 -0.2661 -0.9822  1.8687
  117MOL0     H15761  -1.434   9.169   7.623 -1.2003 -0.4261 -0.0643
  117MOL0     H15762  -1.422   9.007   7.719  0.6502 -0.1799  2.2318
  117MOL0     H15763  -1.527   9.102   7.911 -2.2699  1.6215  1.2680
  117MOL0     H15764  -1.511   9.260   7.855 -1.0970 -0.6078  0.7951
  117MOL0     H15765  -1.690   9.063   7.700  1.8963 -1.0562 -0.1388
  117MOL0     H15766  -1.672   9.222   7.656  1.5339 -2.1268 -1.2196
  117MOL0     H15767  -1.880   9.209   7.756 -0.6053 -1.1290 -0.2736
  117MOL0     H15768  -1.825   9.116   7.898 -1.4364 -0.4436 -1.2877
  117MOL0     H15769  -1.779   9.410   7.835 -0.6456  0.8525  2.7289
  117MOL0     H15770  -1.684   9.316   7.959  0.6857  0.0125 -0.1524
  117MOL0     H15771  -1.988   9.350   7.950  0.4470  0.9822 -0.0006
  117MOL0     H15772  -1.888   9.252   8.060  1.0740 -0.7359 -1.0014
  117MOL0     H15773  -1.746   9.480   8.089 -0.1053  2.0381 -0.3330
  117MOL0     H15774  -1.867   9.428   8.201  0.4354 -3.7579 -0.3717
  117MOL0     H15775  -1.885   9.663   8.160  1.8682  1.1758 -0.9291
  117MOL0     H15776  -2.021   9.596   8.072  0.1026 -4.0898  0.7013
  117MOL0     H15777  -1.115   9.305   7.863  0.0065  3.0548 -1.7546
  117MOL0     H15778  -0.884   9.288   7.766 -0.1877 -0.4681 -0.4019
  117MOL0     H15779  -0.692   9.190   7.326  0.7538  0.4105 -3.0630
  117MOL0     H15780  -0.501   9.190   7.185  1.4434  0.1377 -0.1920
  117MOL0     H15781   0.865   9.634   6.287  3.2453  2.0154 -1.7667
  117MOL0     H15782   1.112   9.631   6.242 -4.2313 -3.2681 -3.7686
  117MOL0     H15783   1.469   9.676   6.252  1.8027  0.7257  0.0783
  117MOL0     H15784   1.680   9.712   6.150 -3.4774  2.4203  1.9770
  117MOL0     H15785   1.992   9.399   6.213  1.4906  1.6004 -0.0420
  117MOL0     H15786   1.909   9.381   6.051 -1.2965  1.3183 -0.4733
  117MOL0     H15787   2.166   9.430   6.043  0.3738  0.8845 -1.6998
  117MOL0     H15788   2.126   9.566   6.158  0.2134 -0.9896  0.6390
  117MOL0     H15789   2.035   9.701   5.994  1.0078 -0.0997 -0.4551
  117MOL0     H15790   2.007   9.570   5.886 -0.8887 -2.7487  1.5860
  117MOL0     H15791   2.192   9.711   5.783 -1.1470 -0.6932 -0.9953
  117MOL0     H15792   2.246   9.560   5.821  1.1439  0.9535  0.0450
  117MOL0     H15793   2.484   9.775   6.091  2.2702 -3.1714 -1.0091
  117MOL0     H15794   1.790   9.308   6.247  1.2253  1.4701 -1.0411
  117MOL0     H15795   1.595   9.275   6.373 -0.2545  0.4991  0.1371
  118MOL0     O15796   7.225   8.166   8.776 -0.2988 -0.3513  0.0125
  118MOL0     C15797   7.105   8.183   8.745  0.2673 -0.5140 -0.0091
  118MOL0     O15798   6.997   8.210   8.834 -0.9878 -0.2462  0.3842
  118MOL0     C15799   7.030   8.206   8.961  0.5803 -0.9242 -0.0510
  118MOL0     C15800   7.103   8.304   9.023 -0.3241  0.2594 -0.7342
  118MOL0     C15801   7.136   8.300   9.157  0.3007 -0.5157  0.3970
  118MOL0     C15802   7.101   8.189   9.234  0.3084 -0.1146 -0.3376
  118MOL0     O15803   7.155   8.180   9.362 -0.3059 -0.2872 -0.0252
  118MOL0     C15804   7.157   8.049   9.422 -0.2738 -0.5065 -0.6951
  118MOL0     C15805   7.230   8.052   9.557 -0.2288 -1.0489  0.5614
  118MOL0     C15806   7.200   7.931   9.654  1.3923 -0.0592  0.1950
  118MOL0     C15807   7.238   7.793   9.587  0.7254  0.2115  0.8367
  118MOL0     C15808   7.202   7.675   9.684 -0.8359 -0.4214  0.3988
  118MOL0     C15809   7.297   7.663   9.805  0.2360  0.1313 -0.0012
  118MOL0     C15810   7.284   7.527   9.867 -0.3499  0.7537  0.2005
  118MOL0     C15811   7.388   7.473   9.958 -0.7862 -0.0314  0.0660
  118MOL0     N15812   7.381   7.328   9.979 -0.5096  0.1151 -0.9916
  118MOL0     C15813   7.268   7.268  10.024 -0.3657  0.4684  0.6063
  118MOL0     C15814   7.303   7.146  10.072 -0.2401 -0.9034  0.5004
  118MOL0     C15815   7.195   7.052  10.124 -0.3723  0.2651  0.4704
  118MOL0     C15816   7.251   6.976  10.247 -0.4339  0.0358 -0.4077
  118MOL0     C15817   7.257   7.074  10.371  0.5622  0.7165 -0.2042
  118MOL0     C15818   7.314   7.010  10.493  0.4922  0.0673  0.4175
  118MOL0     O15819   7.227   6.897  10.525 -0.3778 -0.4134  0.0813
  118MOL0     C15820   7.159   6.899  10.645  0.0408  0.6836  0.1669
  118MOL0     C15821   7.149   6.997  10.747  1.3476  0.4436 -0.3963
  118MOL0     C15822   7.081   6.964  10.869  0.6038 -0.5915 -0.3787
  118MOL0     C15823   7.120   7.048  10.994 -0.4512 -0.0824  0.0943
  118MOL0     C15824   7.006   6.842  10.882 -0.5625  0.1491  0.2233
  118MOL0     C15825   6.929   6.785  10.991  0.2772  0.2296 -0.3915
  118MOL0     O15826   6.904   6.652  10.996 -0.4681  0.3524 -0.2266
  118MOL0     C15827   6.890   6.588  11.117  0.3515 -0.3249 -0.6689
  118MOL0     C15828   6.765   6.542  11.157 -0.8476  0.7099  0.3233
  118MOL0     C15829   6.752   6.499  11.285 -0.0750  0.2143 -0.3727
  118MOL0     C15830   6.860   6.506  11.376 -0.0739  0.9068 -0.1546
  118MOL0     O15831   6.858   6.469  11.508  0.5059 -0.2277 -0.4916
  118MOL0     C15832   6.743   6.400  11.555  1.4702 -0.0311  0.0742
  118MOL0     C15833   6.728   6.256  11.500 -0.0002 -0.3359  0.7108
  118MOL0     C15834   6.855   6.168  11.508  1.0604 -0.2844 -0.3961
  118MOL0     C15835   6.840   6.030  11.447 -0.3767 -0.1052 -0.1541
  118MOL0     C15836   6.737   5.933  11.509 -0.4067  0.4677 -0.1768
  118MOL0     C15837   6.781   5.888  11.650 -1.6005 -0.0257 -0.1209
  118MOL0     C15838   6.702   5.763  11.696  0.2314  0.3786 -1.2408
  118MOL0     C15839   6.732   5.639  11.618  0.4154  0.9301 -1.4724
  118MOL0    Cl15840   6.896   5.593  11.660 -0.0418  0.0666  0.3523
  118MOL0     C15841   6.986   6.534  11.334 -0.8817  0.9304  0.3109
  118MOL0     C15842   6.996   6.587  11.206  0.3300  0.6440  0.1534
  118MOL0     O15843   6.898   6.857  11.082 -0.2534  0.9316 -0.2164
  118MOL0     C15844   7.012   6.759  10.774  0.1531 -0.2048  0.1001
  118MOL0     C15845   7.085   6.784  10.660  0.6546 -0.0940  0.3744
  118MOL0     N15846   7.437   7.144  10.079  0.6007  0.3204 -0.0399
  118MOL0     N15847   7.481   7.246  10.012  0.8342 -0.0061  0.2275
  118MOL0     C15848   7.024   8.085   9.177  1.1843  0.2308 -0.4717
  118MOL0     C15849   6.998   8.089   9.041  0.3222 -0.1143  0.6967
  118MOL0     C15850   7.072   8.184   8.598 -0.1386  0.1178  0.0280
  118MOL0     C15851   7.156   8.120   8.506  0.4524  0.5137  0.1325
  118MOL0     C15852   7.117   8.099   8.367  0.1812  0.4748 -0.0990
  118MOL0     C15853   6.986   8.130   8.324  0.0719 -0.7549 -1.1550
  118MOL0     O15854   6.924   8.111   8.203 -0.3722 -0.3630  0.3726
  118MOL0     C15855   6.998   8.159   8.088  0.3260 -0.3569  1.0255
  118MOL0     C15856   7.022   8.040   7.992  0.0954  0.5919 -0.0889
  118MOL0     C15857   7.130   7.952   8.041 -0.4813 -0.5808  0.5647
  118MOL0     C15858   7.173   7.848   7.931  0.0816 -0.0705 -1.0388
  118MOL0     C15859   7.250   7.737   7.989 -0.4434  0.0736 -0.8886
  118MOL0     C15860   7.329   7.645   8.011 -0.2771  0.5643 -0.4816
  118MOL0     C15861   6.911   8.193   8.419  0.5628  0.1745  0.2352
  118MOL0     C15862   6.942   8.219   8.548 -0.7567 -0.8157 -0.0608
  118MOL0     H15863   7.120   8.400   8.975 -0.5140  0.4059 -0.5129
  118MOL0     H15864   7.195   8.381   9.198 -1.2850  0.3590  1.0448
  118MOL0     H15865   7.054   8.021   9.448 -1.1106 -0.1284 -3.2830
  118MOL0     H15866   7.216   7.980   9.361  1.3604  3.1570 -3.6030
  118MOL0     H15867   7.335   8.057   9.525 -0.0270 -0.2526  1.3263
  118MOL0     H15868   7.197   8.145   9.602  0.1727 -1.1599  1.0980
  118MOL0     H15869   7.251   7.940   9.750  3.7804  0.8651 -1.0600
  118MOL0     H15870   7.092   7.929   9.670  1.2192 -0.0657 -0.8707
  118MOL0     H15871   7.177   7.776   9.498 -0.6557  0.4222  1.7129
  118MOL0     H15872   7.343   7.783   9.559  0.4815 -1.4730  0.4191
  118MOL0     H15873   7.098   7.690   9.716 -1.3113  0.2569 -1.3571
  118MOL0     H15874   7.219   7.580   9.633 -3.1559 -0.9810  0.5574
  118MOL0     H15875   7.401   7.681   9.776  0.1205  0.4247 -0.2373
  118MOL0     H15876   7.267   7.745   9.871 -1.8490 -0.8824  0.3800
  118MOL0     H15877   7.184   7.536   9.911 -0.2357  0.2869  0.5678
  118MOL0     H15878   7.280   7.448   9.792  0.8173  0.9932 -0.1354
  118MOL0     H15879   7.370   7.514  10.058  1.3662 -1.5391  1.1635
  118MOL0     H15880   7.489   7.503   9.930 -0.1461 -1.9732  0.1440
  118MOL0     H15881   7.167   7.307  10.025 -0.8446 -0.7425  0.9748
  118MOL0     H15882   7.098   7.101  10.137 -0.4227  0.2060  0.3113
  118MOL0     H15883   7.176   6.973  10.051 -0.6956 -0.6540  1.5189
  118MOL0     H15884   7.346   6.924  10.229 -0.8814 -1.3922  1.0838
  118MOL0     H15885   7.187   6.893  10.279  0.6683 -0.7437 -0.1655
  118MOL0     H15886   7.156   7.109  10.393  0.3539  1.1248 -1.7329
  118MOL0     H15887   7.316   7.164  10.351  2.6447 -0.6387 -0.5255
  118MOL0     H15888   7.323   7.074  10.582 -2.7659 -1.1619  1.7874
  118MOL0     H15889   7.412   6.961  10.486 -1.0803 -3.1106 -1.1286
  118MOL0     H15890   7.191   7.096  10.735 -3.0801  2.5666 -0.3346
  118MOL0     H15891   7.029   7.097  11.030 -0.8969  0.4951 -1.6778
  118MOL0     H15892   7.160   6.975  11.065 -2.2794 -1.4756 -0.2284
  118MOL0     H15893   7.195   7.123  10.969 -0.2970 -1.0470 -2.7119
  118MOL0     H15894   6.685   6.546  11.084  0.7251 -1.0689 -1.6510
  118MOL0     H15895   6.649   6.481  11.314 -0.0709 -0.5648 -0.8086
  118MOL0     H15896   6.751   6.400  11.664  1.2972 -0.8739  0.0936
  118MOL0     H15897   6.655   6.466  11.558  1.6473  0.2886  4.3574
  118MOL0     H15898   6.641   6.212  11.551 -0.3464 -0.2937  0.1597
  118MOL0     H15899   6.698   6.270  11.396  3.3126  0.0092 -0.3036
  118MOL0     H15900   6.868   6.164  11.616 -1.3120  4.7063  0.3809
  118MOL0     H15901   6.940   6.219  11.460 -0.8889  4.5029  0.6871
  118MOL0     H15902   6.819   6.034  11.340 -1.5189  0.2054  0.0665
  118MOL0     H15903   6.937   5.980  11.457 -0.5429 -0.3714  0.1580
  118MOL0     H15904   6.741   5.839  11.454 -0.3159 -1.6871  3.2294
  118MOL0     H15905   6.641   5.985  11.505 -0.2098  0.8812  0.3421
  118MOL0     H15906   6.889   5.872  11.653 -1.1100  2.7068 -0.4349
  118MOL0     H15907   6.764   5.963  11.728  0.2835  2.0185 -1.5442
  118MOL0     H15908   6.600   5.801  11.691 -1.0944 -2.0148  2.7869
  118MOL0     H15909   6.728   5.754  11.802  2.9235 -0.9855 -1.9240
  118MOL0     H15910   6.725   5.644  11.509 -0.3031 -0.6278 -1.5250
  118MOL0     H15911   6.654   5.566  11.641 -0.9308  3.0122  1.1538
  118MOL0     H15912   7.066   6.521  11.406 -1.0202 -0.3918  0.2600
  118MOL0     H15913   7.089   6.634  11.177  2.4649 -2.6725  1.0682
  118MOL0     H15914   6.962   6.663  10.784  2.0100 -1.3391 -0.8637
  118MOL0     H15915   7.086   6.711  10.581 -1.4593  0.0376  0.1799
  118MOL0     H15916   6.995   7.994   9.229 -0.2327  0.0436 -1.5367
  118MOL0     H15917   6.930   8.017   8.995  0.2667 -2.1018  3.6164
  118MOL0     H15918   7.252   8.081   8.539 -0.1685 -1.0859  0.1538
  118MOL0     H15919   7.184   8.048   8.298 -0.0175 -1.5095  1.0769
  118MOL0     H15920   6.944   8.244   8.045  1.5837  1.2555  2.4891
  118MOL0     H15921   7.095   8.207   8.108 -1.1077  3.1524  0.2397
  118MOL0     H15922   7.072   8.089   7.909  0.2701 -1.1666 -1.0707
  118MOL0     H15923   6.927   7.990   7.970  1.4320 -1.9231 -0.4967
  118MOL0     H15924   7.089   7.897   8.125  0.8446 -3.3538 -0.4889
  118MOL0     H15925   7.218   8.012   8.067 -1.0607 -0.3902  2.2001
  118MOL0     H15926   7.231   7.899   7.853  0.5863  0.8777 -0.0660
  118MOL0     H15927   7.085   7.803   7.883 -1.0784 -0.6842  1.5194
  118MOL0     H15928   7.404   7.571   8.030  1.3976  2.3480  0.1808
  118MOL0     H15929   6.815   8.220   8.376  1.4005 -0.4529 -2.2245
  118MOL0     H15930   6.867   8.268   8.609  0.1093 -0.5876  0.8419
  119MOL0     O15931   6.493   6.140   5.515 -0.9283  0.3636 -0.4104
  119MOL0     C15932   6.614   6.156   5.524  0.0340  1.1785  0.6184
  119MOL0     O15933   6.680   6.262   5.476  0.3925  0.1274  0.7880
  119MOL0     C15934   6.604   6.353   5.409  0.5351  0.1275 -0.6161
  119MOL0     C15935   6.549   6.459   5.475  0.2601  0.3467  0.0335
  119MOL0     C15936   6.466   6.546   5.405 -0.4221 -0.3445  0.5752
  119MOL0     C15937   6.458   6.531   5.265  1.6443 -0.9400  0.0139
  119MOL0     O15938   6.378   6.624   5.197 -0.2337  0.1469 -0.3857
  119MOL0     C15939   6.452   6.699   5.098 -0.3839 -0.9181  0.9127
  119MOL0     C15940   6.354   6.763   4.995 -0.3734 -0.5086  0.0869
  119MOL0     C15941   6.441   6.791   4.871 -0.0470  0.0921  0.4195
  119MOL0     C15942   6.352   6.784   4.747 -1.6997 -0.3715 -1.3833
  119MOL0     C15943   6.429   6.805   4.613 -0.4192  0.2742 -0.3134
  119MOL0     C15944   6.515   6.934   4.610  0.0749 -0.4067 -0.9586
  119MOL0     C15945   6.584   6.939   4.478 -0.0073  0.4058  1.9476
  119MOL0     C15946   6.641   7.082   4.470  0.5465  1.0382 -0.5568
  119MOL0     N15947   6.549   7.173   4.402 -0.8210 -0.3643  0.0839
  119MOL0     C15948   6.591   7.291   4.334 -0.1858  0.4732 -0.0180
  119MOL0     C15949   6.487   7.316   4.253 -0.4208 -0.6946  0.1746
  119MOL0     C15950   6.465   7.420   4.144  0.5349 -0.0427  0.6383
  119MOL0     C15951   6.526   7.371   4.017  1.0162  0.1703 -0.1924
  119MOL0     C15952   6.564   7.484   3.921 -0.1679  0.5759  0.2621
  119MOL0     C15953   6.451   7.589   3.891 -0.7871  0.3738 -0.8124
  119MOL0     O15954   6.440   7.615   3.753  0.7291 -0.2145 -0.5098
  119MOL0     C15955   6.350   7.718   3.716  0.9430  0.8969 -0.8072
  119MOL0     C15956   6.305   7.724   3.585 -0.3732  0.1081 -0.3128
  119MOL0     C15957   6.215   7.818   3.536 -0.3321  1.0718  0.0879
  119MOL0     C15958   6.197   7.811   3.387 -0.3563  0.7155  0.0356
  119MOL0     C15959   6.170   7.917   3.624  0.2110 -0.5473 -0.6263
  119MOL0     C15960   6.084   8.024   3.577  0.1333 -0.6421  0.2777
  119MOL0     O15961   6.062   8.125   3.670  0.0393 -1.1704 -0.1653
  119MOL0     C15962   5.972   8.232   3.652  0.7465 -0.3706 -0.1430
  119MOL0     C15963   5.964   8.331   3.754 -0.6622  0.6912  0.5370
  119MOL0     C15964   5.895   8.450   3.745  0.0523 -0.4240  0.2123
  119MOL0     C15965   5.812   8.474   3.635  0.3677  0.0671 -0.2362
  119MOL0     O15966   5.733   8.584   3.616 -0.2601  0.4541 -0.1292
  119MOL0     C15967   5.765   8.706   3.687  0.4808 -0.7731  0.2237
  119MOL0     C15968   5.678   8.828   3.662  0.0147 -0.4787  0.1206
  119MOL0     C15969   5.625   8.835   3.512  0.5645  0.5299  0.2230
  119MOL0     C15970   5.562   8.973   3.491  0.6241 -1.1621  0.1388
  119MOL0     C15971   5.654   9.096   3.508  0.2474 -0.6646 -0.8404
  119MOL0     C15972   5.591   9.227   3.464  0.0382 -0.1996  0.0829
  119MOL0     C15973   5.686   9.351   3.473 -0.0514  0.1561  0.1461
  119MOL0     C15974   5.614   9.480   3.436  1.8132 -0.0674  0.3159
  119MOL0    Cl15975   5.587   9.487   3.258  0.0739  0.1070  0.0439
  119MOL0     C15976   5.807   8.376   3.535  0.0175  0.0206 -0.3788
  119MOL0     C15977   5.896   8.266   3.540  0.5371  0.0648  0.2586
  119MOL0     O15978   6.053   8.029   3.456 -0.3838  0.1683  0.1178
  119MOL0     C15979   6.212   7.914   3.759  0.1769  0.4050 -0.5091
  119MOL0     C15980   6.303   7.816   3.803  0.2688 -0.6681 -0.3375
  119MOL0     N15981   6.382   7.236   4.292 -0.1659 -0.6372  0.2402
  119MOL0     N15982   6.420   7.152   4.380  1.0803 -0.4472  0.6213
  119MOL0     C15983   6.515   6.429   5.200 -0.3529  0.1048  0.1490
  119MOL0     C15984   6.589   6.346   5.274  0.8032  0.8075 -0.3968
  119MOL0     C15985   6.683   6.052   5.612 -0.3933 -0.1242  0.1483
  119MOL0     C15986   6.617   5.945   5.676 -0.1529  0.3218 -0.5038
  119MOL0     C15987   6.707   5.869   5.756  0.7472 -0.0518 -0.1872
  119MOL0     C15988   6.842   5.889   5.777 -0.4260 -0.7758 -0.0347
  119MOL0     O15989   6.922   5.806   5.851 -0.0869  0.2643  0.2124
  119MOL0     C15990   6.868   5.677   5.886 -0.2453 -0.0743  0.1006
  119MOL0     C15991   6.975   5.612   5.981 -0.0451  0.1966 -1.4154
  119MOL0     C15992   6.908   5.487   6.039 -0.4913  0.9902  0.1785
  119MOL0     C15993   7.013   5.414   6.123  0.6163  0.4761  0.5467
  119MOL0     C15994   6.956   5.294   6.178 -0.9314  1.1114 -0.2791
  119MOL0     C15995   6.897   5.195   6.219  0.2297 -0.4581 -0.2444
  119MOL0     C15996   6.900   6.000   5.711 -0.7325 -0.0575  0.0950
  119MOL0     C15997   6.821   6.082   5.632  0.6246  0.4792  0.7065
  119MOL0     H15998   6.570   6.469   5.582 -1.1318 -0.6563  0.4232
  119MOL0     H15999   6.428   6.637   5.450 -0.3677 -0.1235  0.1742
  119MOL0     H16000   6.513   6.772   5.152  1.4433 -0.9773 -0.9541
  119MOL0     H16001   6.522   6.640   5.038  0.1586  0.5212  0.1062
  119MOL0     H16002   6.279   6.686   4.973 -1.6558 -0.2335  3.0634
  119MOL0     H16003   6.304   6.853   5.030  0.2549 -0.0079 -0.2769
  119MOL0     H16004   6.489   6.889   4.879 -1.0892  0.5764  0.9936
  119MOL0     H16005   6.517   6.713   4.857 -3.0924 -3.2245  0.8666
  119MOL0     H16006   6.307   6.685   4.742 -2.0812 -0.4202  1.5414
  119MOL0     H16007   6.277   6.864   4.754  1.6818  2.9804  0.5826
  119MOL0     H16008   6.492   6.717   4.597  0.8748  1.7052 -4.3442
  119MOL0     H16009   6.349   6.805   4.538 -1.4220  0.7737  0.7284
  119MOL0     H16010   6.445   7.014   4.636 -1.9932 -2.2184 -0.6855
  119MOL0     H16011   6.592   6.921   4.687  0.1727 -1.7780 -1.2563
  119MOL0     H16012   6.674   6.876   4.477  2.4388  3.6472  1.9784
  119MOL0     H16013   6.520   6.929   4.389  0.8379 -0.2019  1.3813
  119MOL0     H16014   6.732   7.078   4.409  0.4593 -1.5909 -0.6468
  119MOL0     H16015   6.672   7.121   4.567  1.6708  2.5393 -1.4732
  119MOL0     H16016   6.680   7.351   4.344 -0.7095  1.2714 -0.0120
  119MOL0     H16017   6.361   7.435   4.114  1.4033  0.1343 -2.6752
  119MOL0     H16018   6.504   7.511   4.190 -1.2867  0.0331  2.1820
  119MOL0     H16019   6.451   7.309   3.968  0.9149 -0.3844  0.6458
  119MOL0     H16020   6.616   7.310   4.027  2.8923  2.4457 -1.7825
  119MOL0     H16021   6.595   7.442   3.825 -0.8706  0.1482  0.2129
  119MOL0     H16022   6.650   7.544   3.951  3.6277 -3.4851 -1.4650
  119MOL0     H16023   6.476   7.674   3.956  0.8863 -1.0045  0.4747
  119MOL0     H16024   6.356   7.542   3.917  0.6131 -2.2270  0.0145
  119MOL0     H16025   6.341   7.648   3.516  0.6857  0.6701 -0.3977
  119MOL0     H16026   6.228   7.711   3.357 -1.3451  0.4025  0.0130
  119MOL0     H16027   6.090   7.824   3.367 -0.5826  0.9280  1.2570
  119MOL0     H16028   6.255   7.884   3.329  2.4996 -0.5598  1.1250
  119MOL0     H16029   6.032   8.315   3.837 -0.8391 -1.0851  0.3836
  119MOL0     H16030   5.889   8.517   3.830 -0.8673 -1.4399  0.9660
  119MOL0     H16031   5.761   8.681   3.794 -2.1870 -3.5193 -0.3661
  119MOL0     H16032   5.869   8.724   3.659  0.0558  0.0297 -0.8623
  119MOL0     H16033   5.589   8.832   3.725 -1.1210 -0.9194 -1.3923
  119MOL0     H16034   5.743   8.910   3.695  0.5993 -1.0117  0.3079
  119MOL0     H16035   5.549   8.758   3.493  0.3124  0.1723  2.4228
  119MOL0     H16036   5.710   8.827   3.444  0.9322 -0.9936  0.8121
  119MOL0     H16037   5.523   8.975   3.389  2.1159  1.9389 -0.4864
  119MOL0     H16038   5.478   8.982   3.560  0.4268  3.5015 -0.3937
  119MOL0     H16039   5.752   9.079   3.462  2.4112 -2.0337  3.6858
  119MOL0     H16040   5.680   9.108   3.613 -1.7675 -2.3970 -0.0880
  119MOL0     H16041   5.558   9.210   3.361 -0.7687  0.6741  0.1862
  119MOL0     H16042   5.502   9.248   3.524 -0.0196 -0.2241  0.0048
  119MOL0     H16043   5.773   9.351   3.407 -0.5878 -0.4562 -0.5768
  119MOL0     H16044   5.716   9.370   3.577 -3.6506  0.6938  1.2237
  119MOL0     H16045   5.674   9.565   3.470  0.1677  1.3207 -0.0489
  119MOL0     H16046   5.519   9.480   3.490  1.4679 -0.7420 -0.2666
  119MOL0     H16047   5.731   8.394   3.459 -0.8873  1.6784  0.8446
  119MOL0     H16048   5.894   8.200   3.453  1.1977 -0.8740  0.9327
  119MOL0     H16049   6.186   7.981   3.840  2.5654  1.5969 -0.6232
  119MOL0     H16050   6.335   7.811   3.906 -2.7185 -0.1444  0.7086
  119MOL0     H16051   6.488   6.408   5.097  3.8045  3.2780 -1.8759
  119MOL0     H16052   6.640   6.262   5.228  1.3927  1.5313 -1.1029
  119MOL0     H16053   6.509   5.950   5.673 -0.0841  2.1572 -1.4233
  119MOL0     H16054   6.660   5.783   5.804  0.0781  0.3888 -0.0445
  119MOL0     H16055   6.775   5.697   5.939 -0.2982  0.7444 -0.2846
  119MOL0     H16056   6.832   5.613   5.805  1.5010 -0.2367 -0.6013
  119MOL0     H16057   7.006   5.678   6.062  1.4989 -0.4618 -1.4432
  119MOL0     H16058   7.064   5.594   5.920 -0.5860 -1.5271 -1.7549
  119MOL0     H16059   6.861   5.433   5.956  3.1338 -1.5979 -0.3860
  119MOL0     H16060   6.831   5.515   6.112  0.6294 -0.6812  2.1119
  119MOL0     H16061   7.065   5.466   6.204 -0.8297  1.5105  0.8632
  119MOL0     H16062   7.098   5.388   6.060 -1.4992 -1.5810 -1.6579
  119MOL0     H16063   6.843   5.111   6.257 -2.5109  1.5578  0.6627
  119MOL0     H16064   7.007   6.015   5.696 -0.8741  0.2193 -0.6684
  119MOL0     H16065   6.865   6.170   5.587  1.9531 -0.6562 -0.2867
  120MOL0     O16066  10.320   1.300   0.048  0.6762  0.1626  0.6446
  120MOL0     C16067  10.371   1.406   0.044  0.3074  0.0739  0.2392
  120MOL0     O16068  10.395   1.482   0.158 -0.0067  0.5184 -0.0298
  120MOL0     C16069  10.396   1.414   0.279 -0.1532 -0.1181 -0.6328
  120MOL0     C16070  10.452   1.294   0.311  0.7075  0.1527 -0.0057
  120MOL0     C16071  10.443   1.240   0.444  0.4191  0.0818  0.7433
  120MOL0     C16072  10.381   1.309   0.550  0.0629 -0.5695  0.3662
  120MOL0     O16073  10.379   1.262   0.679 -0.4976 -0.0421  0.6241
  120MOL0     C16074  10.422   1.345   0.787  0.7807  0.3443 -1.1324
  120MOL0     C16075  10.461   1.260   0.915  0.1601 -0.8782  0.8149
  120MOL0     C16076  10.563   1.149   0.884  0.7477 -0.2992  0.3869
  120MOL0     C16077  10.601   1.094   1.021  0.8684 -0.0734  0.1043
  120MOL0     C16078  10.689   0.963   1.011 -0.0177  0.0049 -0.1213
  120MOL0     C16079  10.704   0.890   1.135 -0.5292  0.1852 -1.4714
  120MOL0     C16080  10.787   0.770   1.126  0.3584  0.2039  0.3226
  120MOL0     C16081  10.760   0.650   1.216  0.0369  0.1619  0.3427
  120MOL0     N16082  10.754   0.682   1.360  0.5897 -0.2568  0.3607
  120MOL0     C16083  10.860   0.720   1.439 -0.2426  0.3038 -0.1450
  120MOL0     C16084  10.819   0.698   1.568 -0.6735  0.7816 -0.5095
  120MOL0     C16085  10.900   0.712   1.692 -0.0302  0.1921 -0.0978
  120MOL0     C16086  10.805   0.702   1.805 -0.1672  0.5028  0.0035
  120MOL0     C16087  10.877   0.727   1.940 -0.2470 -0.5928  0.3466
  120MOL0     C16088  10.966   0.854   1.953  0.5028  0.5294 -0.0446
  120MOL0     O16089  11.018   0.859   2.087  0.1032  0.1510 -0.0207
  120MOL0     C16090  11.143   0.918   2.109  0.2632 -0.6450  0.1887
  120MOL0     C16091  11.225   0.983   2.011 -0.9380 -0.4318 -0.3109
  120MOL0     C16092  11.356   1.030   2.046 -0.6579  0.3887 -0.1396
  120MOL0     C16093  11.433   1.097   1.934  0.1262 -0.4531 -0.4199
  120MOL0     C16094  11.403   1.026   2.182  0.0241  0.7532 -0.4505
  120MOL0     C16095  11.528   1.087   2.236  0.2129  0.4983  0.7512
  120MOL0     O16096  11.595   1.192   2.173 -0.0267  0.2892 -0.0526
  120MOL0     C16097  11.697   1.263   2.237  0.8351 -0.3130  0.6276
  120MOL0     C16098  11.792   1.313   2.148  1.5023 -0.3524 -0.2565
  120MOL0     C16099  11.905   1.374   2.201 -0.3792  0.3224  0.6211
  120MOL0     C16100  11.915   1.413   2.336 -0.0193  0.1093  0.4701
  120MOL0     O16101  12.014   1.494   2.387 -0.6276  1.2114 -0.2289
  120MOL0     C16102  12.144   1.499   2.318 -0.0257  0.0356 -0.3859
  120MOL0     C16103  12.260   1.547   2.414  0.0105 -1.2688  0.3264
  120MOL0     C16104  12.396   1.551   2.354  0.3547  0.1473  1.7362
  120MOL0     C16105  12.499   1.602   2.461 -0.6080  0.0335  0.6227
  120MOL0     C16106  12.640   1.608   2.403  0.5383 -0.3692 -0.3219
  120MOL0     C16107  12.732   1.701   2.485 -1.2328 -0.9477  0.3025
  120MOL0     C16108  12.865   1.701   2.418 -0.6423 -0.3462  0.3353
  120MOL0     C16109  12.976   1.750   2.501  0.0929  0.4010  0.1166
  120MOL0    Cl16110  12.975   1.924   2.515  0.8295 -0.4285  0.0537
  120MOL0     C16111  11.813   1.368   2.417  0.4804 -0.9399  0.3550
  120MOL0     C16112  11.707   1.283   2.379  0.3654  0.0523  1.2174
  120MOL0     O16113  11.569   1.026   2.337 -0.3887 -0.6033 -0.8768
  120MOL0     C16114  11.311   0.962   2.277 -0.3582  0.6053 -0.1522
  120MOL0     C16115  11.187   0.913   2.239 -0.5436  1.3126 -0.2835
  120MOL0     N16116  10.687   0.658   1.560  0.6266  0.8789  0.4243
  120MOL0     N16117  10.647   0.652   1.438  0.1243 -0.2378  1.2444
  120MOL0     C16118  10.334   1.430   0.517 -0.1100 -0.1618  1.2624
  120MOL0     C16119  10.331   1.481   0.387 -0.1648 -0.1610 -0.8258
  120MOL0     C16120  10.406   1.450  -0.094 -0.1714 -0.5684 -1.0145
  120MOL0     C16121  10.389   1.582  -0.130  0.2731 -0.6913  0.5265
  120MOL0     C16122  10.399   1.615  -0.263 -0.8968  0.4883 -0.3720
  120MOL0     C16123  10.437   1.517  -0.361  0.1311 -1.0120  0.8831
  120MOL0     O16124  10.443   1.568  -0.496 -0.3289 -0.0059 -0.1330
  120MOL0     C16125  10.506   1.488  -0.598  0.1778 -0.1765  0.4045
  120MOL0     C16126  10.524   1.565  -0.734  0.2847 -0.8425 -0.6547
  120MOL0     C16127  10.405   1.544  -0.829  0.6385  0.3327 -0.6573
  120MOL0     C16128  10.418   1.606  -0.959  0.3934 -0.0497  0.3659
  120MOL0     C16129  10.400   1.754  -0.962 -0.6294 -0.9481  0.1904
  120MOL0     C16130  10.395   1.877  -0.958 -0.0779  0.0155  0.3577
  120MOL0     C16131  10.471   1.395  -0.325  0.3894  0.8602  0.0229
  120MOL0     C16132  10.443   1.357  -0.195 -0.2047 -0.2402  0.3688
  120MOL0     H16133  10.501   1.233   0.237 -1.5349 -1.0509 -0.5898
  120MOL0     H16134  10.486   1.142   0.463 -1.6839 -1.3414 -1.1914
  120MOL0     H16135  10.500   1.411   0.748 -1.5968  4.0171 -0.1729
  120MOL0     H16136  10.338   1.411   0.811  0.1466 -0.4548 -1.1211
  120MOL0     H16137  10.501   1.337   0.981  0.9511 -0.5401 -0.0366
  120MOL0     H16138  10.364   1.222   0.949 -1.0894 -0.4648 -1.9415
  120MOL0     H16139  10.505   1.087   0.815  0.9044 -0.8963  0.7843
  120MOL0     H16140  10.660   1.178   0.842  0.8555 -0.0756  0.7908
  120MOL0     H16141  10.661   1.157   1.086  3.8971 -1.8057 -0.8356
  120MOL0     H16142  10.514   1.067   1.082 -0.9598  2.2062 -1.3194
  120MOL0     H16143  10.643   0.897   0.936  0.6881 -1.4882  0.7214
  120MOL0     H16144  10.788   0.994   0.976 -0.7706  0.5205 -1.9522
  120MOL0     H16145  10.754   0.957   1.206  1.1919  0.2549 -2.6803
  120MOL0     H16146  10.610   0.867   1.185  0.3010  1.0770  0.6085
  120MOL0     H16147  10.772   0.735   1.023 -1.6599  4.5367 -1.0823
  120MOL0     H16148  10.889   0.800   1.149  0.2097 -1.2982  3.3947
  120MOL0     H16149  10.845   0.583   1.199  2.0800  2.6478  0.1843
  120MOL0     H16150  10.670   0.596   1.185 -2.1091  2.6490  1.8517
  120MOL0     H16151  10.958   0.759   1.411 -0.3816 -0.4057 -1.7672
  120MOL0     H16152  10.968   0.627   1.703  0.1399  0.4663  1.1927
  120MOL0     H16153  10.966   0.799   1.690  1.4643 -0.8222  1.7795
  120MOL0     H16154  10.760   0.602   1.811 -5.6516  2.7209  1.8189
  120MOL0     H16155  10.721   0.770   1.788  0.3406  1.2337  0.3520
  120MOL0     H16156  10.944   0.644   1.964  1.8206  1.2445  1.3628
  120MOL0     H16157  10.793   0.734   2.009  0.6367 -1.4474  1.5509
  120MOL0     H16158  10.904   0.943   1.950  0.2438  0.4446  1.6751
  120MOL0     H16159  11.038   0.861   1.871 -2.1787 -0.2820 -2.6202
  120MOL0     H16160  11.189   1.001   1.910 -1.8740 -0.4503  0.0119
  120MOL0     H16161  11.419   1.204   1.945 -2.3417 -0.4963 -2.2796
  120MOL0     H16162  11.539   1.072   1.937 -0.2104 -1.9289  1.3829
  120MOL0     H16163  11.383   1.069   1.841 -1.2664  0.7693 -0.0818
  120MOL0     H16164  11.800   1.284   2.044  0.8583  0.4796 -0.5447
  120MOL0     H16165  11.988   1.396   2.134  1.2773 -2.7854  1.4533
  120MOL0     H16166  12.169   1.397   2.287  0.1843  0.5485 -2.0175
  120MOL0     H16167  12.136   1.560   2.227  0.3700 -0.4907 -0.7823
  120MOL0     H16168  12.230   1.645   2.452  2.5233  0.2459 -1.3034
  120MOL0     H16169  12.266   1.476   2.497 -1.5514 -0.2652  1.3597
  120MOL0     H16170  12.395   1.627   2.275 -0.4813 -3.2627 -1.8048
  120MOL0     H16171  12.435   1.453   2.325  1.2174  0.3343  2.2177
  120MOL0     H16172  12.463   1.694   2.508 -1.3794 -1.3243  2.8579
  120MOL0     H16173  12.496   1.519   2.533 -3.0822  0.0061  0.5629
  120MOL0     H16174  12.636   1.643   2.299 -2.1621  1.7434  0.3601
  120MOL0     H16175  12.684   1.509   2.415 -1.3350 -1.0963  1.0509
  120MOL0     H16176  12.697   1.805   2.490  1.6034  0.1225 -0.1338
  120MOL0     H16177  12.740   1.654   2.583 -0.2297 -0.9224  0.2414
  120MOL0     H16178  12.863   1.757   2.324  0.9078  0.7858  0.9314
  120MOL0     H16179  12.889   1.598   2.388 -1.2684 -0.4195  0.0697
  120MOL0     H16180  13.074   1.727   2.458 -0.4274 -0.2442 -0.7549
  120MOL0     H16181  12.970   1.718   2.605  0.2576  3.4251  1.1535
  120MOL0     H16182  11.828   1.404   2.518  0.7770  3.1938 -0.9756
  120MOL0     H16183  11.630   1.258   2.451  0.0323  0.9051  1.1711
  120MOL0     H16184  11.349   0.964   2.379 -0.7014  2.6534 -0.0241
  120MOL0     H16185  11.119   0.860   2.305  1.3595 -1.4146 -0.3294
  120MOL0     H16186  10.297   1.501   0.591  1.1129 -0.0693  1.8103
  120MOL0     H16187  10.303   1.582   0.359  3.2593  0.9771 -0.5729
  120MOL0     H16188  10.363   1.660  -0.060  0.9982  1.5032 -1.5197
  120MOL0     H16189  10.387   1.714  -0.307  2.4930  0.9103 -0.6147
  120MOL0     H16190  10.600   1.446  -0.561  2.9756  3.1811 -2.3171
  120MOL0     H16191  10.439   1.402  -0.614  0.6634 -0.1890 -1.8333
  120MOL0     H16192  10.612   1.530  -0.789  1.3646  1.9851 -0.8705
  120MOL0     H16193  10.544   1.669  -0.706 -0.0471 -0.7276 -0.8340
  120MOL0     H16194  10.320   1.575  -0.768  1.0292  0.3329 -0.0925
  120MOL0     H16195  10.412   1.437  -0.851 -1.2232  0.2101 -0.7762
  120MOL0     H16196  10.346   1.562  -1.029 -1.1930  0.9187  1.3305
  120MOL0     H16197  10.514   1.579  -1.005  1.5257  4.1011 -0.1292
  120MOL0     H16198  10.369   1.980  -0.969  0.4098  0.1866  0.7823
  120MOL0     H16199  10.483   1.308  -0.389 -1.1602  0.5114  0.1840
  120MOL0     H16200  10.467   1.254  -0.170  2.2927  0.8662  3.1744
  121MOL0     O16201   9.266   2.909   1.310 -0.0605 -0.1004  0.5229
  121MOL0     C16202   9.321   2.852   1.400  0.6633  0.4209 -0.3889
  121MOL0     O16203   9.271   2.762   1.487 -0.1318 -0.0992 -0.2812
  121MOL0     C16204   9.142   2.721   1.484 -0.6989  0.1652 -0.3087
  121MOL0     C16205   9.035   2.810   1.484 -0.1887  0.2327  0.3782
  121MOL0     C16206   8.899   2.774   1.490 -0.7455  0.3793  0.1483
  121MOL0     C16207   8.878   2.637   1.477  0.7323 -0.5465  0.3447
  121MOL0     O16208   8.742   2.607   1.475  0.2707 -0.2442  0.3252
  121MOL0     C16209   8.706   2.483   1.544 -0.0264 -0.4274 -0.2739
  121MOL0     C16210   8.554   2.466   1.534  0.2001  0.0718 -0.4569
  121MOL0     C16211   8.501   2.501   1.393  0.1209  0.6714  0.6793
  121MOL0     C16212   8.562   2.416   1.279 -0.5767  0.4299  0.8991
  121MOL0     C16213   8.503   2.438   1.142 -0.6291 -0.3700 -0.3945
  121MOL0     C16214   8.367   2.372   1.125 -0.4859  0.3742 -0.0516
  121MOL0     C16215   8.373   2.225   1.088  0.3222  0.1080  0.0725
  121MOL0     C16216   8.242   2.159   1.078  0.0436 -0.4731  1.1863
  121MOL0     N16217   8.153   2.201   0.973 -0.2666 -0.6312 -0.1627
  121MOL0     C16218   8.083   2.316   0.971 -0.5603  0.5633 -0.3024
  121MOL0     C16219   7.992   2.297   0.870 -0.1890  0.0974 -0.1648
  121MOL0     C16220   7.887   2.397   0.838  0.2643 -0.6835 -1.5119
  121MOL0     C16221   7.747   2.339   0.874  0.1194  0.5687 -0.3573
  121MOL0     C16222   7.646   2.441   0.838  0.5438 -0.0357 -0.4976
  121MOL0     C16223   7.618   2.453   0.683  0.4813 -0.1810 -0.4308
  121MOL0     O16224   7.565   2.329   0.637  0.1032 -0.3442  0.5320
  121MOL0     C16225   7.538   2.313   0.504 -0.1791 -0.3198 -0.5487
  121MOL0     C16226   7.492   2.190   0.463 -0.7246 -0.8084  1.1963
  121MOL0     C16227   7.467   2.160   0.333 -0.2657 -0.3295  0.5948
  121MOL0     C16228   7.415   2.025   0.311  0.3806 -0.6611  0.5206
  121MOL0     C16229   7.496   2.252   0.231 -0.5749  0.2601 -0.0591
  121MOL0     C16230   7.464   2.227   0.082 -0.7138  0.0884  0.1224
  121MOL0     O16231   7.496   2.330   0.004 -0.1092  0.0378  0.8239
  121MOL0     C16232   7.572   2.308  -0.112 -0.8819  0.4706  0.2226
  121MOL0     C16233   7.713   2.351  -0.116 -0.6007  0.2468 -0.8133
  121MOL0     C16234   7.781   2.337  -0.230 -0.9508 -0.8050  0.0585
  121MOL0     C16235   7.734   2.279  -0.340 -0.1068  0.6912  0.4793
  121MOL0     O16236   7.815   2.263  -0.445  0.6062 -0.0813  0.3325
  121MOL0     C16237   7.858   2.129  -0.467 -0.1067  0.2311  0.2875
  121MOL0     C16238   7.971   2.112  -0.561 -0.0111 -0.1650 -1.0493
  121MOL0     C16239   8.058   2.232  -0.599 -0.1166  0.6857 -0.7000
  121MOL0     C16240   8.168   2.186  -0.695 -0.1812 -0.1999 -0.1236
  121MOL0     C16241   8.287   2.279  -0.699 -0.0515 -0.1218  0.2557
  121MOL0     C16242   8.236   2.404  -0.771  0.6421  0.5712  0.9562
  121MOL0     C16243   8.348   2.522  -0.776 -0.2543 -0.0905  0.1790
  121MOL0     C16244   8.285   2.649  -0.839 -0.3934 -0.5276  0.0023
  121MOL0    Cl16245   8.197   2.627  -1.007  0.0275  0.1909  0.0495
  121MOL0     C16246   7.598   2.242  -0.349 -0.2377 -0.7785 -0.0688
  121MOL0     C16247   7.520   2.254  -0.230 -0.1067 -0.1122  0.1796
  121MOL0     O16248   7.427   2.119   0.042  0.5145 -0.5065  0.3533
  121MOL0     C16249   7.535   2.388   0.277 -0.4502  0.8023  0.0831
  121MOL0     C16250   7.559   2.417   0.409  0.8334  0.2922  0.5007
  121MOL0     N16251   8.013   2.185   0.801 -0.1783 -0.0477  0.3508
  121MOL0     N16252   8.114   2.136   0.861  1.1494 -0.0657 -0.3409
  121MOL0     C16253   8.987   2.546   1.487  0.4921  0.6539  0.4217
  121MOL0     C16254   9.113   2.584   1.483 -0.0680 -0.2773 -0.1319
  121MOL0     C16255   9.440   2.904   1.454  0.7103  0.1894 -0.8190
  121MOL0     C16256   9.471   2.905   1.594  0.0326  0.2320  0.0554
  121MOL0     C16257   9.598   2.954   1.630 -0.0439  0.4876  0.4150
  121MOL0     C16258   9.689   3.004   1.537 -0.1119  0.2897 -0.1204
  121MOL0     O16259   9.808   3.054   1.574  0.0535  0.8742  0.6192
  121MOL0     C16260   9.847   3.085   1.706 -0.2681  0.7972 -1.0356
  121MOL0     C16261   9.754   3.182   1.783  0.4336  1.0803 -0.2826
  121MOL0     C16262   9.743   3.328   1.727 -0.4360 -0.6132 -0.1459
  121MOL0     C16263   9.708   3.422   1.848  0.4125 -0.4646 -0.3157
  121MOL0     C16264   9.567   3.408   1.880 -0.0868  0.0810 -0.0506
  121MOL0     C16265   9.455   3.407   1.918 -0.0991  0.1852  0.2313
  121MOL0     C16266   9.663   2.990   1.405  0.0058  0.4685  0.9718
  121MOL0     C16267   9.534   2.942   1.363 -0.4858 -0.4687  0.0167
  121MOL0     H16268   9.066   2.914   1.487 -2.0584  0.9755 -2.2257
  121MOL0     H16269   8.819   2.846   1.503 -2.2571 -1.1845 -0.1304
  121MOL0     H16270   8.763   2.403   1.497  0.0420 -1.6911  1.8556
  121MOL0     H16271   8.738   2.486   1.649  0.5239  0.3617 -0.4580
  121MOL0     H16272   8.531   2.363   1.564  0.7613 -0.4087 -1.6523
  121MOL0     H16273   8.513   2.550   1.593  0.8247  0.2197 -0.2306
  121MOL0     H16274   8.392   2.498   1.404  0.3401  0.1139  3.2519
  121MOL0     H16275   8.524   2.605   1.370  1.8636  0.2921  0.5839
  121MOL0     H16276   8.670   2.430   1.281 -0.4107  0.3918 -2.4447
  121MOL0     H16277   8.559   2.313   1.318 -2.5571 -0.4813 -1.3871
  121MOL0     H16278   8.491   2.546   1.129  1.3034 -0.1667 -0.7569
  121MOL0     H16279   8.577   2.392   1.076  1.0419  2.9882 -1.0953
  121MOL0     H16280   8.297   2.394   1.206 -3.7251 -3.6472 -1.4033
  121MOL0     H16281   8.324   2.420   1.036  2.2560 -0.1836 -1.7943
  121MOL0     H16282   8.429   2.219   0.994  3.3829 -1.6700  1.8491
  121MOL0     H16283   8.434   2.166   1.156 -0.5512 -1.9081 -0.8316
  121MOL0     H16284   8.185   2.175   1.170  1.0781  0.5942  1.6566
  121MOL0     H16285   8.265   2.053   1.059 -2.0967 -0.5386 -1.8548
  121MOL0     H16286   8.100   2.404   1.031  3.0393  0.4348 -0.9187
  121MOL0     H16287   7.908   2.489   0.893  1.7640 -2.9631  2.0200
  121MOL0     H16288   7.890   2.424   0.732  1.0406  0.7552 -1.1514
  121MOL0     H16289   7.754   2.322   0.981  0.2090 -1.1218 -0.6111
  121MOL0     H16290   7.720   2.238   0.841  1.0591  0.2852 -0.2953
  121MOL0     H16291   7.666   2.536   0.889 -1.5690 -1.1392  2.6686
  121MOL0     H16292   7.549   2.405   0.873  0.4078 -0.9891 -1.7488
  121MOL0     H16293   7.717   2.478   0.643 -0.1129  1.4584 -0.9439
  121MOL0     H16294   7.549   2.535   0.662  0.6851  0.1952  0.3292
  121MOL0     H16295   7.481   2.119   0.544 -0.3159 -1.2514  0.8730
  121MOL0     H16296   7.488   1.967   0.254 -1.0919  1.0367 -3.5013
  121MOL0     H16297   7.394   1.975   0.406 -0.1528  0.1665  0.8436
  121MOL0     H16298   7.322   2.040   0.255  0.8961 -1.9445 -0.7562
  121MOL0     H16299   7.750   2.392  -0.023 -1.4946  1.4973 -0.9905
  121MOL0     H16300   7.881   2.378  -0.243 -0.5833 -1.8654 -0.6275
  121MOL0     H16301   7.888   2.087  -0.371  0.5573 -0.8051 -0.3473
  121MOL0     H16302   7.774   2.075  -0.510 -1.0994 -2.7770  5.2550
  121MOL0     H16303   8.039   2.030  -0.534  3.7477  3.0858  0.4197
  121MOL0     H16304   7.928   2.068  -0.650 -2.3009 -0.8000  0.2925
  121MOL0     H16305   8.089   2.274  -0.503  1.2669 -0.0035 -0.8094
  121MOL0     H16306   7.995   2.310  -0.642 -2.7101 -0.8140  0.1235
  121MOL0     H16307   8.198   2.086  -0.661 -0.5756 -0.1024  0.5421
  121MOL0     H16308   8.128   2.173  -0.796 -2.5204  3.0925  0.2059
  121MOL0     H16309   8.375   2.252  -0.758  1.3673  3.3267  0.5435
  121MOL0     H16310   8.316   2.315  -0.600  0.0005  1.1129 -0.1920
  121MOL0     H16311   8.207   2.373  -0.872  1.8825 -0.4496  0.8745
  121MOL0     H16312   8.148   2.445  -0.721  0.8166  0.4831  1.3409
  121MOL0     H16313   8.435   2.493  -0.836 -0.9449  1.7181 -1.8409
  121MOL0     H16314   8.375   2.556  -0.676 -0.9343  0.3769  0.2031
  121MOL0     H16315   8.366   2.721  -0.850  0.5499 -1.7912 -1.8664
  121MOL0     H16316   8.217   2.703  -0.772 -0.5179 -0.9861  0.2518
  121MOL0     H16317   7.552   2.188  -0.431  2.3775 -5.4792  1.1932
  121MOL0     H16318   7.421   2.211  -0.222  1.4373 -4.3830 -0.8907
  121MOL0     H16319   7.556   2.464   0.203  1.2104  1.1672  0.8921
  121MOL0     H16320   7.592   2.519   0.429  0.3519  0.3804  0.8758
  121MOL0     H16321   8.971   2.439   1.502 -0.5031  0.8134  0.5641
  121MOL0     H16322   9.200   2.518   1.487 -0.0695 -0.2168  1.1047
  121MOL0     H16323   9.394   2.868   1.661 -0.3145 -1.4316 -1.1904
  121MOL0     H16324   9.622   2.948   1.736  3.0803  0.6936 -0.1756
  121MOL0     H16325   9.859   2.990   1.760  0.7527  1.3086 -0.3238
  121MOL0     H16326   9.952   3.114   1.710  0.3780 -1.4501 -0.2536
  121MOL0     H16327   9.797   3.191   1.884  0.5766 -0.8827 -0.1372
  121MOL0     H16328   9.650   3.148   1.786  1.2451 -1.7002 -1.1265
  121MOL0     H16329   9.660   3.346   1.658  2.3654  0.6827 -3.4066
  121MOL0     H16330   9.835   3.348   1.672 -1.1058 -1.8605 -1.7832
  121MOL0     H16331   9.725   3.527   1.821  0.5614 -0.1254  0.9868
  121MOL0     H16332   9.778   3.396   1.929  1.3552  0.7860 -0.6950
  121MOL0     H16333   9.357   3.378   1.948 -1.4892  1.2383 -2.9091
  121MOL0     H16334   9.729   3.026   1.327 -1.2968 -1.1546 -1.0135
  121MOL0     H16335   9.507   2.938   1.258  1.5668  1.2455 -0.6490
  122MOL0     O16336   0.665  10.829   0.825  0.3945 -0.1566  0.6529
  122MOL0     C16337   0.653  10.854   0.942 -0.3113  0.0864  0.8011
  122MOL0     O16338   0.589  10.959   0.995 -1.3307 -0.0695 -0.1782
  122MOL0     C16339   0.538  11.048   0.907 -0.2371 -1.2774 -0.3604
  122MOL0     C16340   0.400  11.076   0.897  0.2975  0.0365  0.4231
  122MOL0     C16341   0.350  11.170   0.804 -1.0267  0.5056  0.4573
  122MOL0     C16342   0.436  11.238   0.725 -0.2830  0.5186 -0.2771
  122MOL0     O16343   0.407  11.324   0.621  0.2265 -0.5129 -0.1870
  122MOL0     C16344   0.272  11.376   0.617 -0.5008  0.3560 -0.5143
  122MOL0     C16345   0.264  11.513   0.552  0.7447  0.1030 -0.7031
  122MOL0     C16346   0.140  11.585   0.609  0.4877 -0.2121 -0.2114
  122MOL0     C16347   0.011  11.513   0.589  0.2855  0.0980 -0.3893
  122MOL0     C16348  -0.101  11.596   0.641  0.8201 -1.0313  0.4826
  122MOL0     C16349  -0.229  11.532   0.684 -0.0311  0.0935 -0.6648
  122MOL0     C16350  -0.315  11.473   0.563 -0.0881 -0.1006  0.7825
  122MOL0     C16351  -0.361  11.577   0.461  0.1526  0.2992 -0.0438
  122MOL0     N16352  -0.443  11.511   0.355  0.1466 -0.8338 -0.1857
  122MOL0     C16353  -0.575  11.464   0.375  0.2997  0.6081 -0.3252
  122MOL0     C16354  -0.613  11.426   0.250 -0.0357 -0.6267 -0.1053
  122MOL0     C16355  -0.753  11.366   0.229  0.0223 -0.2612 -0.1611
  122MOL0     C16356  -0.787  11.369   0.080  0.4247  0.0699 -0.0285
  122MOL0     C16357  -0.926  11.297   0.045 -0.0958 -0.2348  0.1264
  122MOL0     C16358  -0.958  11.323  -0.104  0.5451  1.1020 -0.4018
  122MOL0     O16359  -1.018  11.452  -0.122  0.0907  0.3454  0.8894
  122MOL0     C16360  -1.152  11.448  -0.133  0.6813  0.4332  0.0770
  122MOL0     C16361  -1.242  11.477  -0.027  0.0979  0.7016 -0.6205
  122MOL0     C16362  -1.377  11.460  -0.025  1.1876 -0.5896  0.0739
  122MOL0     C16363  -1.445  11.504   0.101 -0.1678  0.3689 -0.2227
  122MOL0     C16364  -1.431  11.411  -0.143  1.0395 -0.8812  0.4789
  122MOL0     C16365  -1.579  11.407  -0.167 -0.9052 -0.2960 -0.1503
  122MOL0     O16366  -1.661  11.475  -0.084 -0.4934 -0.3327 -0.1747
  122MOL0     C16367  -1.761  11.395  -0.027 -0.3400 -0.3771  0.1078
  122MOL0     C16368  -1.860  11.464   0.041  0.6597 -0.5785 -0.4344
  122MOL0     C16369  -1.975  11.411   0.091  0.8832  0.1316 -0.5748
  122MOL0     C16370  -1.999  11.276   0.074  0.1379 -0.1890 -0.0519
  122MOL0     O16371  -2.120  11.222   0.121 -0.0846 -0.1325 -0.4945
  122MOL0     C16372  -2.140  11.079   0.123 -0.3893 -0.6623  0.1030
  122MOL0     C16373  -2.273  11.048   0.181  0.5658 -0.2874 -0.2745
  122MOL0     C16374  -2.302  10.900   0.180 -0.6843  0.3354  0.0280
  122MOL0     C16375  -2.430  10.864   0.259 -0.9309  0.1296 -0.3335
  122MOL0     C16376  -2.458  10.715   0.259 -0.0427 -0.0292 -0.4781
  122MOL0     C16377  -2.594  10.676   0.326 -1.2178  0.5314  0.0681
  122MOL0     C16378  -2.613  10.524   0.328 -0.6092  0.0588  0.0445
  122MOL0     C16379  -2.755  10.488   0.362 -0.4505 -0.2666 -0.1070
  122MOL0    Cl16380  -2.781  10.323   0.349  0.0525 -0.3134  0.0451
  122MOL0     C16381  -1.897  11.195   0.031  0.1617 -0.0007 -0.3552
  122MOL0     C16382  -1.777  11.253  -0.029  0.1483 -0.2237  0.0969
  122MOL0     O16383  -1.614  11.353  -0.274 -0.6887  0.2485 -0.1493
  122MOL0     C16384  -1.347  11.387  -0.252 -0.4046  0.0425  1.0233
  122MOL0     C16385  -1.213  11.403  -0.251  1.3352  0.7210  0.4308
  122MOL0     N16386  -0.507  11.437   0.163 -0.2100  0.4177  0.2728
  122MOL0     N16387  -0.409  11.482   0.224 -1.0962 -0.0068 -0.2331
  122MOL0     C16388   0.571  11.216   0.739 -0.1959  0.0890  0.0192
  122MOL0     C16389   0.625  11.127   0.833  0.6498  0.1419  0.2631
  122MOL0     C16390   0.729  10.754   1.026 -0.0410 -0.1890 -0.0246
  122MOL0     C16391   0.691  10.737   1.160  0.9890  0.9330 -0.0027
  122MOL0     C16392   0.744  10.631   1.244 -0.5057  0.3847  0.6624
  122MOL0     C16393   0.837  10.537   1.190  0.1068  0.0757  0.2726
  122MOL0     O16394   0.901  10.438   1.254  0.7161  0.1564  0.0583
  122MOL0     C16395   0.837  10.377   1.370  0.1867 -0.1011  0.2133
  122MOL0     C16396   0.934  10.280   1.420  0.8399 -0.0406  0.8369
  122MOL0     C16397   0.945  10.140   1.341  0.4373  1.1111 -0.0761
  122MOL0     C16398   0.808  10.066   1.348  0.4272  0.3549 -0.5367
  122MOL0     C16399   0.821   9.920   1.325 -0.2596 -1.1261 -0.1306
  122MOL0     C16400   0.835   9.806   1.298  0.2917  0.0497 -0.9039
  122MOL0     C16401   0.871  10.552   1.057  0.6335  0.0730  1.0244
  122MOL0     C16402   0.823  10.663   0.976  0.4207 -0.0614 -0.5688
  122MOL0     H16403   0.337  11.017   0.964  1.3522 -0.5571  0.9149
  122MOL0     H16404   0.242  11.180   0.796 -1.6130 -3.1599  1.5665
  122MOL0     H16405   0.202  11.304   0.573 -2.1927  2.3261 -1.2051
  122MOL0     H16406   0.249  11.387   0.723  3.6471 -0.3389  0.6472
  122MOL0     H16407   0.354  11.569   0.579  0.6013 -1.0173  2.5734
  122MOL0     H16408   0.249  11.508   0.444 -1.4805  0.0616 -0.4522
  122MOL0     H16409   0.154  11.586   0.718 -0.4836 -1.6186 -0.0380
  122MOL0     H16410   0.126  11.684   0.567 -0.4176 -0.0832  0.3560
  122MOL0     H16411  -0.010  11.500   0.482  1.3670 -0.8268 -0.5045
  122MOL0     H16412   0.021  11.413   0.632  2.8471 -0.0620 -1.2191
  122MOL0     H16413  -0.069  11.640   0.736 -1.4978  0.0296  0.8466
  122MOL0     H16414  -0.125  11.676   0.571 -0.1505  0.1352  2.0630
  122MOL0     H16415  -0.201  11.463   0.764  0.9310  1.2075 -0.0067
  122MOL0     H16416  -0.293  11.610   0.726 -0.4294  0.2551 -1.5479
  122MOL0     H16417  -0.254  11.397   0.514 -3.1481  0.0922 -4.0257
  122MOL0     H16418  -0.399  11.423   0.612  0.1752 -0.0292  1.3184
  122MOL0     H16419  -0.269  11.624   0.423  1.3533 -0.0639  2.2618
  122MOL0     H16420  -0.435  11.645   0.504 -0.3296 -0.3528  0.1764
  122MOL0     H16421  -0.633  11.470   0.466  0.7454  1.5217 -0.0921
  122MOL0     H16422  -0.753  11.262   0.263 -3.7494 -0.1256  0.6808
  122MOL0     H16423  -0.827  11.424   0.286  1.9152  3.8974 -1.5668
  122MOL0     H16424  -0.710  11.314   0.025 -1.8560 -2.3588 -1.0086
  122MOL0     H16425  -0.788  11.475   0.051  2.2257  0.5203  1.3765
  122MOL0     H16426  -1.002  11.346   0.107  1.6757  0.1471  2.1033
  122MOL0     H16427  -0.927  11.191   0.072 -2.6335 -1.1136 -2.7441
  122MOL0     H16428  -1.030  11.242  -0.116  0.4044  1.1094  0.3707
  122MOL0     H16429  -0.870  11.304  -0.166  4.7723  1.6738  4.7141
  122MOL0     H16430  -1.203  11.502   0.071 -1.9468 -2.2245  1.1127
  122MOL0     H16431  -1.381  11.511   0.189 -1.2040  1.2377  0.4870
  122MOL0     H16432  -1.500  11.596   0.079 -0.8924 -0.4163 -1.8935
  122MOL0     H16433  -1.520  11.429   0.129  0.3949 -0.1857 -0.1635
  122MOL0     H16434  -1.849  11.572   0.052 -0.5229 -0.5418  0.6700
  122MOL0     H16435  -2.055  11.470   0.135  0.9099 -0.7834  0.7552
  122MOL0     H16436  -2.131  11.053   0.017  0.5359 -0.9687  0.2429
  122MOL0     H16437  -2.064  11.025   0.181  1.4774 -0.4509 -1.9992
  122MOL0     H16438  -2.270  11.081   0.285 -0.9253 -5.6674  1.7837
  122MOL0     H16439  -2.356  11.107   0.142  1.8494  1.1486 -0.9521
  122MOL0     H16440  -2.221  10.850   0.233 -1.2006 -1.2226 -0.5917
  122MOL0     H16441  -2.306  10.851   0.082  2.5809 -1.9206  0.8307
  122MOL0     H16442  -2.414  10.888   0.365  0.2061 -0.8262 -0.2754
  122MOL0     H16443  -2.511  10.928   0.222 -0.9523  0.3654  0.1050
  122MOL0     H16444  -2.371  10.664   0.300 -1.0493 -2.4279 -1.1577
  122MOL0     H16445  -2.470  10.690   0.153 -2.3416 -2.6688  0.2965
  122MOL0     H16446  -2.600  10.712   0.428  3.2500 -1.7283  1.3881
  122MOL0     H16447  -2.680  10.717   0.273 -1.3470 -1.5477 -1.4799
  122MOL0     H16448  -2.540  10.478   0.396 -0.4199  2.1703  1.3739
  122MOL0     H16449  -2.591  10.474   0.234  1.0027 -1.6417  1.2481
  122MOL0     H16450  -2.817  10.535   0.286  0.0171 -0.8436 -0.8580
  122MOL0     H16451  -2.781  10.518   0.464 -1.7633 -0.4145 -0.3702
  122MOL0     H16452  -1.907  11.088   0.023 -2.5461  0.0044  1.6476
  122MOL0     H16453  -1.702  11.191  -0.077 -0.7752 -2.2680  1.1554
  122MOL0     H16454  -1.386  11.368  -0.351 -1.8246  1.3946  1.2808
  122MOL0     H16455  -1.157  11.379  -0.340  0.3411 -0.2930  0.0533
  122MOL0     H16456   0.644  11.269   0.679 -0.3707  0.3431  0.0250
  122MOL0     H16457   0.733  11.113   0.840  0.6136 -0.3090  0.0115
  122MOL0     H16458   0.624  10.815   1.195  2.1806  2.1395 -0.3751
  122MOL0     H16459   0.724  10.643   1.350 -0.2651  2.5996  0.5070
  122MOL0     H16460   0.836  10.457   1.445 -1.5503  1.9356 -1.8401
  122MOL0     H16461   0.732  10.352   1.347 -0.3801  4.2929 -3.3097
  122MOL0     H16462   0.921  10.262   1.527  0.1082  1.5868  1.0633
  122MOL0     H16463   1.028  10.336   1.420  0.5291  0.5076 -0.1619
  122MOL0     H16464   1.026  10.079   1.383  0.1733 -0.8602 -2.2361
  122MOL0     H16465   0.966  10.162   1.236 -1.8708  1.6426 -0.4731
  122MOL0     H16466   0.746  10.107   1.268 -0.3923  1.3244  0.5574
  122MOL0     H16467   0.763  10.082   1.447  0.6717  1.1617 -0.5451
  122MOL0     H16468   0.851   9.703   1.272  0.5913 -0.1152 -0.1133
  122MOL0     H16469   0.944  10.480   1.021 -1.0908 -1.6483  0.7953
  122MOL0     H16470   0.860  10.668   0.874  1.0459  1.2840 -0.2988
  123MOL0     O16471   3.247  10.767   7.438 -0.2625  0.6429 -0.6701
  123MOL0     C16472   3.327  10.853   7.482 -0.1147  0.3292  0.5113
  123MOL0     O16473   3.287  10.955   7.557  0.6677 -0.3590 -0.0301
  123MOL0     C16474   3.163  10.963   7.614  0.3059  0.5547  0.0656
  123MOL0     C16475   3.044  10.971   7.537 -0.1084 -0.2763 -0.0209
  123MOL0     C16476   2.922  11.000   7.598  0.3949 -0.0777 -0.6420
  123MOL0     C16477   2.915  11.017   7.739  0.3119 -0.3844  0.4338
  123MOL0     O16478   2.788  11.045   7.794 -0.3128  0.2775 -0.3825
  123MOL0     C16479   2.784  11.134   7.910  0.5005 -1.3920 -0.0590
  123MOL0     C16480   2.825  11.272   7.875 -0.7326  0.0638 -0.3398
  123MOL0     C16481   2.739  11.341   7.774  0.3816 -1.0069 -0.2778
  123MOL0     C16482   2.609  11.399   7.824  0.1643  0.1041  0.1314
  123MOL0     C16483   2.623  11.549   7.868 -0.5065  0.2372 -0.5026
  123MOL0     C16484   2.496  11.608   7.931 -0.0023  0.8893  0.1081
  123MOL0     C16485   2.518  11.757   7.965  0.8505 -0.1242  0.3534
  123MOL0     C16486   2.380  11.810   8.028  0.3900 -0.1869 -0.8769
  123MOL0     N16487   2.269  11.798   7.940  0.3156 -0.0700 -0.1896
  123MOL0     C16488   2.161  11.711   7.955 -1.1554  0.3240 -0.1255
  123MOL0     C16489   2.081  11.738   7.854  0.9901  0.2195 -1.1427
  123MOL0     C16490   1.947  11.681   7.821 -0.5003 -0.1130 -0.3923
  123MOL0     C16491   1.961  11.559   7.731  0.9604 -0.1215 -0.4973
  123MOL0     C16492   1.830  11.473   7.718  0.2923  0.1268  0.1858
  123MOL0     C16493   1.727  11.548   7.630  0.0106 -0.1133 -0.5514
  123MOL0     O16494   1.639  11.628   7.707  0.0663 -0.4112  1.0852
  123MOL0     C16495   1.524  11.675   7.646  0.2511 -1.2344 -0.4114
  123MOL0     C16496   1.478  11.633   7.526  0.0946 -0.7505  0.2137
  123MOL0     C16497   1.358  11.684   7.480  0.1001 -0.1131 -0.0265
  123MOL0     C16498   1.325  11.643   7.340  0.0826 -0.3342  0.0619
  123MOL0     C16499   1.280  11.770   7.559 -0.9415 -0.0080 -0.7339
  123MOL0     C16500   1.140  11.800   7.521  0.1931 -1.2445 -0.2013
  123MOL0     O16501   1.075  11.898   7.597 -0.3817 -0.0700 -0.1964
  123MOL0     C16502   0.956  11.943   7.551  0.8457  0.6442  0.7857
  123MOL0     C16503   0.930  12.002   7.428  0.5880  0.3854 -0.6214
  123MOL0     C16504   0.799  12.020   7.388  0.1895  0.2394 -0.2982
  123MOL0     C16505   0.691  12.006   7.477 -0.4655  1.1862  0.7949
  123MOL0     O16506   0.570  12.065   7.440  0.1852  0.6267  0.3254
  123MOL0     C16507   0.450  12.031   7.516  0.0502  0.5754  0.6450
  123MOL0     C16508   0.319  12.097   7.453 -0.8148  1.0103  0.0452
  123MOL0     C16509   0.275  12.024   7.320 -0.4510  0.1478 -0.0952
  123MOL0     C16510   0.132  12.063   7.272 -0.0634 -0.8433  0.2163
  123MOL0     C16511   0.107  12.022   7.125 -0.4973 -0.2311 -0.3927
  123MOL0     C16512   0.199  12.069   7.011 -0.1462  0.2078 -0.2803
  123MOL0     C16513   0.198  12.225   6.990 -0.2708 -0.2934 -0.2457
  123MOL0     C16514   0.327  12.274   6.933  1.0019  0.3697 -0.1739
  123MOL0    Cl16515   0.460  12.261   7.045  0.1923  0.2493  0.1391
  123MOL0     C16516   0.716  11.958   7.607 -0.5593 -0.7123 -0.9764
  123MOL0     C16517   0.843  11.915   7.637  0.1755 -0.6584 -0.4056
  123MOL0     O16518   1.074  11.730   7.441  0.6480 -0.0705 -1.0135
  123MOL0     C16519   1.331  11.823   7.675  0.0813 -0.3815 -0.4242
  123MOL0     C16520   1.452  11.768   7.721 -0.0615  0.5616 -0.7165
  123MOL0     N16521   2.129  11.837   7.773 -0.0882  0.6533  0.0226
  123MOL0     N16522   2.247  11.868   7.822 -0.2443  0.6952 -0.1804
  123MOL0     C16523   3.034  11.005   7.812 -0.2526  0.8316 -1.1077
  123MOL0     C16524   3.151  10.976   7.747  0.1948 -0.8042  0.3066
  123MOL0     C16525   3.474  10.849   7.463  0.3367  0.5555 -1.1382
  123MOL0     C16526   3.561  10.962   7.487  0.2066  0.8684 -0.5428
  123MOL0     C16527   3.694  10.956   7.470 -0.0957  0.7475 -0.2687
  123MOL0     C16528   3.751  10.839   7.420  0.7404  0.0670  0.8968
  123MOL0     O16529   3.888  10.846   7.410 -0.3955  0.0347  0.1440
  123MOL0     C16530   3.951  10.767   7.309  0.7343  0.1880 -0.6218
  123MOL0     C16531   3.917  10.806   7.170 -0.2034 -0.0436  0.1935
  123MOL0     C16532   4.014  10.749   7.058 -0.1249 -0.4944 -0.2359
  123MOL0     C16533   3.961  10.771   6.914 -0.1681 -0.3824 -0.5445
  123MOL0     C16534   3.945  10.912   6.872  0.0775  0.4080  0.1322
  123MOL0     C16535   3.957  11.024   6.826 -0.3469  1.0261  0.0695
  123MOL0     C16536   3.667  10.728   7.392 -0.2536  0.5239  0.3794
  123MOL0     C16537   3.531  10.735   7.419  0.0714  0.2143 -0.9894
  123MOL0     H16538   3.058  10.962   7.430 -2.4943 -4.4980 -0.2251
  123MOL0     H16539   2.832  11.032   7.546  0.4138  2.2396  0.6109
  123MOL0     H16540   2.678  11.140   7.937  0.4337 -2.7820  0.0522
  123MOL0     H16541   2.844  11.102   7.996  0.4437  1.5838  1.2053
  123MOL0     H16542   2.826  11.339   7.962 -1.1241 -0.0584 -0.2395
  123MOL0     H16543   2.927  11.264   7.837 -0.7846  2.7962 -1.2521
  123MOL0     H16544   2.798  11.422   7.731  1.2190 -1.4595 -0.0031
  123MOL0     H16545   2.716  11.265   7.698 -0.3777  0.9990 -2.1601
  123MOL0     H16546   2.540  11.405   7.740 -0.7108  3.2714  0.9175
  123MOL0     H16547   2.578  11.339   7.910  2.1135  1.3283  1.7995
  123MOL0     H16548   2.711  11.566   7.931  0.8847 -3.5182 -1.1841
  123MOL0     H16549   2.646  11.598   7.773 -2.2650  1.7415 -0.2150
  123MOL0     H16550   2.421  11.606   7.851  1.7182 -2.5831 -1.6690
  123MOL0     H16551   2.450  11.556   8.016  1.5171  0.6751  0.8197
  123MOL0     H16552   2.599  11.780   8.035  1.1607 -1.2412  0.3847
  123MOL0     H16553   2.537  11.805   7.869 -0.3629  3.2334  1.6370
  123MOL0     H16554   2.389  11.915   8.059  1.5638  0.0903 -2.0126
  123MOL0     H16555   2.367  11.754   8.120  0.3930 -1.5967 -1.6988
  123MOL0     H16556   2.135  11.641   8.033  0.1391  1.7086  1.6341
  123MOL0     H16557   1.904  11.658   7.919  1.0871 -0.9935  0.1246
  123MOL0     H16558   1.881  11.752   7.770 -0.1745 -0.3746 -1.1977
  123MOL0     H16559   2.035  11.490   7.773 -1.7041 -1.9035  1.5749
  123MOL0     H16560   2.008  11.593   7.638  2.4186 -0.4123  0.1137
  123MOL0     H16561   1.794  11.434   7.814  0.6739 -0.2369  0.1861
  123MOL0     H16562   1.868  11.391   7.656  0.8390  1.0367 -0.7335
  123MOL0     H16563   1.661  11.470   7.591  1.3315 -0.1835 -2.8651
  123MOL0     H16564   1.768  11.596   7.540  1.1971 -1.7514 -0.9339
  123MOL0     H16565   1.520  11.551   7.468  2.4704 -0.5598  1.5370
  123MOL0     H16566   1.400  11.572   7.305  0.0711  0.2857 -1.2589
  123MOL0     H16567   1.231  11.588   7.344  2.3310 -4.5012  2.0156
  123MOL0     H16568   1.321  11.727   7.270 -4.7491 -1.0348 -0.8538
  123MOL0     H16569   1.013  12.000   7.358 -0.1351  2.4848 -1.6408
  123MOL0     H16570   0.786  12.076   7.297  1.5117  1.8869  0.4648
  123MOL0     H16571   0.441  11.922   7.511 -1.5978  0.6971  0.0661
  123MOL0     H16572   0.468  12.064   7.618 -2.1853 -0.1610  1.3474
  123MOL0     H16573   0.233  12.099   7.522 -1.3946  0.4065 -0.6432
  123MOL0     H16574   0.338  12.202   7.432 -0.4267  0.8438 -0.4399
  123MOL0     H16575   0.288  11.916   7.332 -1.3034 -0.5439 -3.8705
  123MOL0     H16576   0.347  12.065   7.249  1.1509  0.6963  1.7728
  123MOL0     H16577   0.059  12.010   7.335  0.6979 -0.6776  1.2507
  123MOL0     H16578   0.134  12.170   7.293  0.1561 -1.0971  1.5842
  123MOL0     H16579   0.007  12.064   7.111 -1.4974 -2.6083 -0.8512
  123MOL0     H16580   0.099  11.914   7.116  1.9027 -0.4243 -0.7148
  123MOL0     H16581   0.299  12.026   7.016 -0.3544 -0.4487 -1.5795
  123MOL0     H16582   0.154  12.025   6.922  1.2247 -1.8440 -0.0332
  123MOL0     H16583   0.178  12.280   7.083 -0.7540  0.3563 -0.7231
  123MOL0     H16584   0.114  12.242   6.922 -1.7662  0.3763  1.7051
  123MOL0     H16585   0.318  12.379   6.902 -1.5882 -0.3140 -2.0341
  123MOL0     H16586   0.356  12.220   6.843  4.0436 -0.2422  1.0562
  123MOL0     H16587   0.641  11.967   7.685  1.1762 -1.9484  0.9146
  123MOL0     H16588   0.863  11.879   7.737 -2.7182 -3.3936 -0.6519
  123MOL0     H16589   1.272  11.883   7.743 -0.3185  2.1751 -2.8616
  123MOL0     H16590   1.498  11.790   7.817 -1.9220  1.2659  0.0720
  123MOL0     H16591   3.033  10.995   7.920  1.9985  1.9023 -0.9244
  123MOL0     H16592   3.246  10.979   7.799  0.2790  1.9285  0.0967
  123MOL0     H16593   3.506  11.051   7.518 -1.8035 -0.7514  0.8308
  123MOL0     H16594   3.756  11.044   7.484  1.7178 -0.6889  1.1365
  123MOL0     H16595   4.056  10.777   7.338 -0.2120  3.7931  2.3433
  123MOL0     H16596   3.920  10.663   7.326 -0.7229  0.9187  1.8633
  123MOL0     H16597   3.946  10.912   7.168  1.2295 -0.3977  0.7078
  123MOL0     H16598   3.811  10.785   7.151  0.4500  0.1601 -5.0975
  123MOL0     H16599   4.017  10.639   7.060 -1.1713 -0.5378 -0.5350
  123MOL0     H16600   4.111  10.798   7.067 -0.3718 -0.1264  0.4519
  123MOL0     H16601   3.866  10.718   6.899 -2.7168  3.1900  1.4488
  123MOL0     H16602   4.033  10.728   6.843  0.9021  2.7059 -1.4738
  123MOL0     H16603   3.955  11.122   6.783 -0.8474  0.5498 -1.0420
  123MOL0     H16604   3.707  10.636   7.351 -0.1222  0.6623  0.1977
  123MOL0     H16605   3.478  10.641   7.408  0.0103  0.1843 -0.4729
  124MOL0     O16606   9.425   5.296   9.376  0.0736 -0.1244 -0.2541
  124MOL0     C16607   9.424   5.415   9.379  0.4815  0.5232 -0.2620
  124MOL0     O16608   9.309   5.497   9.371 -0.2920 -0.8469 -0.2989
  124MOL0     C16609   9.189   5.439   9.383 -0.1882 -0.8697 -0.3261
  124MOL0     C16610   9.140   5.398   9.516  0.3677 -0.4958  0.0337
  124MOL0     C16611   9.038   5.307   9.511 -0.8119  0.5495 -0.2824
  124MOL0     C16612   8.983   5.257   9.388 -0.7731  0.1946 -0.4703
  124MOL0     O16613   8.882   5.164   9.390  0.2258 -0.2254 -0.1598
  124MOL0     C16614   8.770   5.179   9.295 -0.6588 -0.0215 -0.5277
  124MOL0     C16615   8.645   5.113   9.364 -0.0519 -0.0776  0.7864
  124MOL0     C16616   8.517   5.143   9.288  0.2873 -0.4593 -0.3098
  124MOL0     C16617   8.393   5.070   9.353  0.0381  0.4886 -0.0467
  124MOL0     C16618   8.273   5.076   9.253 -0.7081  0.0515 -1.2132
  124MOL0     C16619   8.148   4.996   9.300  0.9117  0.0971 -0.0616
  124MOL0     C16620   8.030   5.033   9.209 -0.0248 -0.2489 -0.4941
  124MOL0     C16621   7.898   4.996   9.260  0.1680 -0.3758  0.7618
  124MOL0     N16622   7.881   4.850   9.211  0.2587 -0.8264 -0.1790
  124MOL0     C16623   7.885   4.742   9.298 -0.2260  0.1763 -0.5628
  124MOL0     C16624   7.869   4.632   9.219  1.2454 -1.5136  0.2390
  124MOL0     C16625   7.866   4.490   9.268 -0.2149 -0.2994  0.8889
  124MOL0     C16626   7.736   4.457   9.338  0.0022 -0.2096 -0.0519
  124MOL0     C16627   7.611   4.529   9.292  0.7833 -0.1420 -0.6715
  124MOL0     C16628   7.512   4.521   9.407 -0.4640  0.9209 -0.3098
  124MOL0     O16629   7.487   4.382   9.449 -0.4167  0.6731  0.2655
  124MOL0     C16630   7.466   4.363   9.579  0.3348  0.5415  1.0373
  124MOL0     C16631   7.563   4.284   9.648  0.3359  0.3148 -0.2371
  124MOL0     C16632   7.525   4.212   9.769  0.4857  0.0354  0.0195
  124MOL0     C16633   7.628   4.103   9.816  0.0695 -0.2250  0.2707
  124MOL0     C16634   7.399   4.230   9.817  1.1294 -0.2978 -0.6706
  124MOL0     C16635   7.362   4.180   9.957  0.2778 -0.8870 -0.0863
  124MOL0     O16636   7.237   4.219   9.995  0.3367 -0.0658  0.8861
  124MOL0     C16637   7.181   4.178  10.109  0.1189  0.1510  0.0147
  124MOL0     C16638   7.221   4.219  10.239  0.3723  0.2789  0.4576
  124MOL0     C16639   7.143   4.178  10.348 -0.1031  0.3537 -0.4698
  124MOL0     C16640   7.014   4.133  10.330  0.2307 -0.2437  0.5392
  124MOL0     O16641   6.929   4.103  10.435 -0.0456  0.0801  0.1641
  124MOL0     C16642   6.936   3.967  10.481 -0.5109  0.5622 -1.3739
  124MOL0     C16643   6.806   3.952  10.556  0.3847 -0.3014 -0.7260
  124MOL0     C16644   6.780   3.806  10.591 -0.1172  0.2435 -0.0803
  124MOL0     C16645   6.642   3.791  10.662  0.9581  0.3583 -1.0785
  124MOL0     C16646   6.614   3.643  10.694 -0.7486 -0.2513  0.7691
  124MOL0     C16647   6.502   3.615  10.789  0.9212  0.2728 -0.1585
  124MOL0     C16648   6.465   3.473  10.808 -0.2198  0.7632 -0.7727
  124MOL0     C16649   6.421   3.413  10.669  0.2946  0.1456  0.4059
  124MOL0    Cl16650   6.271   3.490  10.617  0.3074 -0.4543  0.0722
  124MOL0     C16651   6.969   4.110  10.204  0.7961  0.7245  0.1293
  124MOL0     C16652   7.049   4.128  10.100 -0.6826  0.0060  1.1811
  124MOL0     O16653   7.429   4.110  10.028 -0.1745 -0.4136 -0.2267
  124MOL0     C16654   7.309   4.336   9.764  0.2315  0.0451 -0.8734
  124MOL0     C16655   7.343   4.388   9.639  0.7829  0.0632  0.1323
  124MOL0     N16656   7.848   4.672   9.084  0.0985 -0.1707  0.0406
  124MOL0     N16657   7.856   4.802   9.083  0.0486  0.4237 -0.3376
  124MOL0     C16658   9.032   5.300   9.260 -0.0792  1.3657 -0.1464
  124MOL0     C16659   9.138   5.392   9.261  0.6401 -0.8030 -1.1435
  124MOL0     C16660   9.554   5.489   9.422 -0.5850  0.1875 -0.1116
  124MOL0     C16661   9.560   5.631   9.408 -0.8612  0.9353  0.1611
  124MOL0     C16662   9.664   5.696   9.477 -0.2043 -0.6656 -0.2907
  124MOL0     C16663   9.763   5.630   9.553  0.5222 -0.0024 -0.6008
  124MOL0     O16664   9.861   5.684   9.627  0.5021 -0.5376  0.2539
  124MOL0     C16665   9.857   5.826   9.655 -0.0612 -0.0316 -0.0901
  124MOL0     C16666   9.915   5.907   9.538  0.3425 -0.3088  0.6557
  124MOL0     C16667  10.049   5.853   9.476  0.1766  1.4896 -0.1218
  124MOL0     C16668  10.115   5.959   9.390 -0.2572  0.3960  0.3815
  124MOL0     C16669  10.036   5.989   9.272  0.8391 -0.2837 -0.2941
  124MOL0     C16670   9.987   6.010   9.161 -0.1091 -0.4854 -0.3426
  124MOL0     C16671   9.756   5.493   9.549  0.5507  1.3070  0.3172
  124MOL0     C16672   9.660   5.423   9.481  0.8050 -0.4892  0.5767
  124MOL0     H16673   9.194   5.432   9.603 -0.6388  1.1087  0.0566
  124MOL0     H16674   9.004   5.258   9.602 -2.0117  1.6314 -0.1352
  124MOL0     H16675   8.741   5.283   9.277 -0.1947  0.0369 -0.9361
  124MOL0     H16676   8.785   5.123   9.202  1.1020  0.7631 -0.7556
  124MOL0     H16677   8.654   5.004   9.362  1.5468  0.0263 -0.7403
  124MOL0     H16678   8.646   5.144   9.469  3.5287 -0.6999  1.0897
  124MOL0     H16679   8.491   5.249   9.292 -2.6344 -1.0793 -0.7375
  124MOL0     H16680   8.538   5.119   9.183  0.5609 -2.6616  0.2056
  124MOL0     H16681   8.410   4.962   9.366  2.6413  0.4936 -2.4216
  124MOL0     H16682   8.356   5.120   9.442 -0.9218  0.9581 -0.6937
  124MOL0     H16683   8.234   5.177   9.240  1.3113  0.9583 -0.6050
  124MOL0     H16684   8.312   5.042   9.157  2.5712  1.1630 -0.4244
  124MOL0     H16685   8.155   4.887   9.305 -1.8383 -0.0963  2.8825
  124MOL0     H16686   8.135   5.037   9.401  1.2241 -0.2110  0.1047
  124MOL0     H16687   8.032   5.142   9.193  1.3567 -0.3424 -1.0995
  124MOL0     H16688   8.060   4.989   9.113  0.8964  1.4237 -1.0123
  124MOL0     H16689   7.815   5.050   9.213 -0.4933 -2.4377 -0.5628
  124MOL0     H16690   7.878   5.018   9.365 -0.2542 -2.9529  1.2784
  124MOL0     H16691   7.911   4.743   9.403  0.8835  0.2380 -0.8185
  124MOL0     H16692   7.888   4.429   9.180  1.0879 -0.6245  1.4132
  124MOL0     H16693   7.948   4.469   9.337 -0.3959  1.3288  1.6388
  124MOL0     H16694   7.746   4.469   9.446  0.9025 -0.8786 -0.0421
  124MOL0     H16695   7.721   4.349   9.329  0.1431 -0.6027  3.1127
  124MOL0     H16696   7.560   4.483   9.207 -0.6345 -0.3581  0.2626
  124MOL0     H16697   7.627   4.634   9.265 -0.4141 -0.4078 -2.6322
  124MOL0     H16698   7.419   4.574   9.388 -0.6855  0.9095  0.6683
  124MOL0     H16699   7.553   4.571   9.495 -1.7748 -1.2617  1.6740
  124MOL0     H16700   7.651   4.254   9.591 -0.3321 -0.5249 -0.8408
  124MOL0     H16701   7.585   4.003   9.828  1.1813 -0.7108  0.3139
  124MOL0     H16702   7.716   4.093   9.751  0.4706  0.6898  0.6698
  124MOL0     H16703   7.679   4.122   9.911  1.8898  3.2939 -1.2231
  124MOL0     H16704   7.321   4.257  10.253  0.5404  0.2665 -0.6684
  124MOL0     H16705   7.157   4.196  10.454 -1.7426 -1.7524  0.1824
  124MOL0     H16706   6.943   3.884  10.410  0.1521  0.6472 -1.4192
  124MOL0     H16707   7.022   3.955  10.547 -1.3950 -3.6579 -0.7207
  124MOL0     H16708   6.796   4.017  10.644  1.5561  0.5741 -1.2157
  124MOL0     H16709   6.728   3.986  10.487  0.2370 -2.0549 -1.4814
  124MOL0     H16710   6.862   3.779  10.658 -0.6574  1.5894  1.1920
  124MOL0     H16711   6.768   3.741  10.504  0.4490 -1.5802  1.1581
  124MOL0     H16712   6.651   3.847  10.756  1.6862 -1.6517  0.1043
  124MOL0     H16713   6.558   3.836  10.608 -1.4948  0.7898  2.6846
  124MOL0     H16714   6.702   3.593  10.735  1.4322  2.0524 -0.7685
  124MOL0     H16715   6.599   3.592  10.598  2.0377 -1.3148  0.8157
  124MOL0     H16716   6.530   3.660  10.885 -2.2815  4.4724 -0.9017
  124MOL0     H16717   6.414   3.668  10.752  2.4659  1.3484 -2.5123
  124MOL0     H16718   6.387   3.467  10.885  2.6398  0.4720  2.3220
  124MOL0     H16719   6.555   3.418  10.837 -0.0238  1.3555 -0.2203
  124MOL0     H16720   6.404   3.306  10.688  5.1931 -1.2314 -1.2426
  124MOL0     H16721   6.495   3.422  10.589  0.1139  2.7580  0.4580
  124MOL0     H16722   6.871   4.065  10.195  0.6436  1.1553 -0.4651
  124MOL0     H16723   7.027   4.090  10.001 -0.2514 -0.5273  1.2912
  124MOL0     H16724   7.218   4.369   9.813  2.0162  0.7047  2.2842
  124MOL0     H16725   7.262   4.446   9.596  0.3091 -0.6423  0.0406
  124MOL0     H16726   8.982   5.254   9.176  4.1763 -3.5153 -0.4795
  124MOL0     H16727   9.165   5.435   9.165 -0.6142 -3.4212 -2.7818
  124MOL0     H16728   9.484   5.691   9.358 -2.3776  1.0904  2.4791
  124MOL0     H16729   9.672   5.803   9.459  1.3064 -0.4006  1.6736
  124MOL0     H16730   9.753   5.855   9.668 -0.3603 -1.5875  1.3042
  124MOL0     H16731   9.923   5.854   9.739 -0.1809 -0.5621  0.1812
  124MOL0     H16732   9.923   6.011   9.570  1.6965  0.3553 -1.6130
  124MOL0     H16733   9.846   5.899   9.454  2.0347  1.1007 -0.9430
  124MOL0     H16734  10.023   5.768   9.412 -3.9719 -0.5461  3.6708
  124MOL0     H16735  10.127   5.819   9.545 -1.5495  0.0249  1.2236
  124MOL0     H16736  10.210   5.914   9.360 -0.8408  0.2477 -1.3877
  124MOL0     H16737  10.144   6.048   9.447  0.2195 -0.3923  1.3984
  124MOL0     H16738   9.958   6.022   9.058  1.5101 -1.7526 -0.9915
  124MOL0     H16739   9.828   5.435   9.606  1.9831 -0.2723 -2.8536
  124MOL0     H16740   9.654   5.315   9.490 -1.7457 -0.2738  2.5713
  125MOL0     O16741   1.436   5.718   1.991 -0.1662 -0.3479 -0.7903
  125MOL0     C16742   1.494   5.690   2.091 -0.7238 -0.2217 -0.9575
  125MOL0     O16743   1.442   5.637   2.201  0.0576  0.6131  0.0057
  125MOL0     C16744   1.301   5.636   2.204 -0.0130  0.8959  0.3509
  125MOL0     C16745   1.242   5.506   2.213  0.8675  0.3118 -0.6172
  125MOL0     C16746   1.110   5.494   2.247  0.4902 -0.1579  0.3757
  125MOL0     C16747   1.028   5.601   2.253 -0.0389  0.6541  0.2835
  125MOL0     O16748   0.893   5.581   2.295 -0.2408 -0.3932  0.1367
  125MOL0     C16749   0.798   5.686   2.291 -0.3517  0.4980  0.6731
  125MOL0     C16750   0.813   5.760   2.421  1.2056  0.4399  0.9784
  125MOL0     C16751   0.717   5.879   2.448  0.6554 -0.3390  0.0249
  125MOL0     C16752   0.735   5.935   2.590 -0.3565 -0.2082  0.3073
  125MOL0     C16753   0.650   6.055   2.641 -0.2633  0.5993 -0.7994
  125MOL0     C16754   0.703   6.110   2.780  0.5038 -0.5147  0.1762
  125MOL0     C16755   0.649   6.015   2.889 -0.2385 -0.0945 -0.5811
  125MOL0     C16756   0.503   6.054   2.907  0.1832  0.1621 -0.9026
  125MOL0     N16757   0.462   5.985   3.029  0.6617  0.4784  0.2462
  125MOL0     C16758   0.455   5.847   3.049 -0.6768  0.5321  0.1214
  125MOL0     C16759   0.431   5.830   3.174 -0.6416  0.2234 -0.6323
  125MOL0     C16760   0.445   5.700   3.246  0.6479 -0.2404 -0.5445
  125MOL0     C16761   0.307   5.645   3.281  0.5091 -0.4596  0.6909
  125MOL0     C16762   0.310   5.515   3.373 -1.1074  0.1226 -0.1691
  125MOL0     C16763   0.163   5.482   3.419 -1.0877  0.4676 -0.9530
  125MOL0     O16764   0.104   5.424   3.310 -0.7163  0.3092 -0.0132
  125MOL0     C16765  -0.033   5.400   3.320 -0.3869  0.3538 -0.4095
  125MOL0     C16766  -0.117   5.431   3.432  0.1622 -0.3254 -0.1920
  125MOL0     C16767  -0.255   5.389   3.440 -0.0539  1.3099 -0.2607
  125MOL0     C16768  -0.338   5.434   3.564 -0.0315  0.9309  0.4777
  125MOL0     C16769  -0.299   5.299   3.328  0.6404 -0.0491  0.1620
  125MOL0     C16770  -0.435   5.244   3.339  0.8453 -0.4015 -0.5539
  125MOL0     O16771  -0.491   5.185   3.224 -0.9159  0.2411  0.0843
  125MOL0     C16772  -0.608   5.120   3.221  0.2357  0.1510 -0.4807
  125MOL0     C16773  -0.636   5.021   3.310  0.0706 -0.3225 -0.0325
  125MOL0     C16774  -0.748   4.943   3.300  0.2517 -0.1875 -0.2999
  125MOL0     C16775  -0.838   4.963   3.200 -0.0254 -0.2314  0.7012
  125MOL0     O16776  -0.954   4.890   3.206 -0.2578  0.5401  0.0392
  125MOL0     C16777  -1.070   4.946   3.136  0.2899  0.3085  0.3024
  125MOL0     C16778  -1.195   4.878   3.195  0.2992  0.0449 -0.5595
  125MOL0     C16779  -1.194   4.727   3.166 -0.5550  0.1080 -0.1119
  125MOL0     C16780  -1.331   4.656   3.187  0.1746 -0.7106 -0.6473
  125MOL0     C16781  -1.334   4.501   3.160 -0.2304  0.0212  0.8192
  125MOL0     C16782  -1.356   4.459   3.010 -0.2450  0.8427 -0.0880
  125MOL0     C16783  -1.331   4.300   2.991  0.7307 -0.3090 -0.6302
  125MOL0     C16784  -1.183   4.267   3.008  0.0464 -0.0306  0.0073
  125MOL0    Cl16785  -1.144   4.099   3.045  0.3918 -0.2880  0.0342
  125MOL0     C16786  -0.806   5.054   3.101  0.0113  1.0663  0.4330
  125MOL0     C16787  -0.698   5.139   3.116  0.0254  0.3954  0.6735
  125MOL0     O16788  -0.505   5.255   3.443 -0.3239  0.0851 -0.1026
  125MOL0     C16789  -0.213   5.262   3.227  0.1972 -0.3169 -0.4824
  125MOL0     C16790  -0.089   5.326   3.220 -0.2878  0.1004  0.2608
  125MOL0     N16791   0.437   5.958   3.233  0.2792 -0.0799  0.4885
  125MOL0     N16792   0.442   6.049   3.146  0.3898  0.3917  0.3533
  125MOL0     C16793   1.076   5.728   2.212  0.4987  0.7820 -0.6253
  125MOL0     C16794   1.214   5.747   2.191 -0.2362 -0.2959  0.4116
  125MOL0     C16795   1.635   5.721   2.098  0.0161 -0.0782 -0.1816
  125MOL0     C16796   1.716   5.764   1.980  0.1839 -0.3423  0.0354
  125MOL0     C16797   1.849   5.799   1.996 -0.4763 -0.2146  0.5848
  125MOL0     C16798   1.915   5.790   2.118 -1.1790  0.2166 -0.0279
  125MOL0     O16799   2.050   5.832   2.102  0.1950  0.3451 -0.1652
  125MOL0     C16800   2.139   5.824   2.210 -0.0279 -0.4092 -0.2285
  125MOL0     C16801   2.252   5.924   2.186  0.3532 -0.0481  0.1800
  125MOL0     C16802   2.204   6.074   2.168 -0.1967  0.3870 -0.1310
  125MOL0     C16803   2.071   6.123   2.241 -0.5782 -0.1476  0.6613
  125MOL0     C16804   2.044   6.264   2.203 -1.1335 -0.3942 -0.4215
  125MOL0     C16805   2.044   6.381   2.162  0.1762 -0.1035 -0.3809
  125MOL0     C16806   1.842   5.759   2.230  0.1476 -0.4011  0.4480
  125MOL0     C16807   1.704   5.725   2.225  0.2479 -0.7349  0.0407
  125MOL0     H16808   1.308   5.422   2.197  0.7396  0.5972 -2.9582
  125MOL0     H16809   1.074   5.393   2.268  0.2796 -0.1655 -0.0081
  125MOL0     H16810   0.806   5.758   2.208 -1.7191 -1.0357 -0.8707
  125MOL0     H16811   0.706   5.627   2.282  0.2336 -0.2850 -0.5163
  125MOL0     H16812   0.786   5.675   2.484 -2.9198 -0.8729 -2.1388
  125MOL0     H16813   0.919   5.774   2.444  2.0323 -4.3466  1.0947
  125MOL0     H16814   0.749   5.966   2.389  1.9531  0.9183  2.4597
  125MOL0     H16815   0.611   5.863   2.423  1.4033 -0.4454 -3.6002
  125MOL0     H16816   0.719   5.853   2.661 -2.0712 -0.0667  0.1362
  125MOL0     H16817   0.839   5.965   2.606 -1.0354  1.7065  1.6295
  125MOL0     H16818   0.669   6.130   2.563  0.3798  0.9368 -0.3274
  125MOL0     H16819   0.544   6.029   2.646  0.1067 -0.7717  0.7001
  125MOL0     H16820   0.810   6.130   2.795 -0.3075  1.4180  5.5821
  125MOL0     H16821   0.661   6.210   2.792 -1.8974 -1.3462 -0.8194
  125MOL0     H16822   0.658   5.913   2.850  2.2896 -0.0454 -0.3110
  125MOL0     H16823   0.715   6.020   2.975  2.8827  1.8684 -2.8409
  125MOL0     H16824   0.441   6.040   2.819  1.1455 -3.1971 -1.1758
  125MOL0     H16825   0.491   6.160   2.933 -1.3807 -0.7017  2.5743
  125MOL0     H16826   0.471   5.768   2.976  1.1419 -0.7589  1.8167
  125MOL0     H16827   0.502   5.634   3.180  1.6831 -1.4442  1.4823
  125MOL0     H16828   0.500   5.723   3.338  0.1528 -0.1374 -0.2755
  125MOL0     H16829   0.248   5.619   3.193 -0.4653 -1.9183  1.7152
  125MOL0     H16830   0.250   5.711   3.347 -1.8113 -1.3374 -0.3259
  125MOL0     H16831   0.375   5.529   3.459 -0.5243 -1.5759 -0.3075
  125MOL0     H16832   0.338   5.439   3.300 -1.0271 -0.0753  0.0689
  125MOL0     H16833   0.109   5.574   3.443  0.3776  1.9268 -2.8918
  125MOL0     H16834   0.172   5.416   3.506  1.5427  0.6253 -1.0136
  125MOL0     H16835  -0.082   5.491   3.515  1.9729 -1.8532  0.2058
  125MOL0     H16836  -0.287   5.512   3.620  1.0462 -0.8319  2.0682
  125MOL0     H16837  -0.434   5.475   3.532  0.0881 -0.2660 -1.6599
  125MOL0     H16838  -0.359   5.356   3.638  1.6055  1.2394  1.3120
  125MOL0     H16839  -0.584   4.996   3.402  0.8489 -0.3271 -0.4577
  125MOL0     H16840  -0.753   4.866   3.375  2.6354 -0.0261  0.1122
  125MOL0     H16841  -1.074   5.054   3.151 -0.4802  0.1899  1.0920
  125MOL0     H16842  -1.056   4.921   3.031  2.3707  2.2831  0.0328
  125MOL0     H16843  -1.197   4.879   3.304  0.5925 -0.6121 -0.5421
  125MOL0     H16844  -1.285   4.934   3.169  0.1742  0.3609  0.4904
  125MOL0     H16845  -1.131   4.679   3.241 -1.6832 -1.4848 -0.1222
  125MOL0     H16846  -1.161   4.707   3.064  0.3091  1.3415 -0.0922
  125MOL0     H16847  -1.378   4.675   3.284 -0.3837  1.1215 -1.2371
  125MOL0     H16848  -1.401   4.691   3.111 -1.0938  1.2003  1.2881
  125MOL0     H16849  -1.407   4.449   3.223 -0.1681 -0.4850  0.4810
  125MOL0     H16850  -1.241   4.451   3.188 -1.3457 -2.5971  0.2351
  125MOL0     H16851  -1.460   4.474   2.979 -0.4630  1.1745  0.8002
  125MOL0     H16852  -1.287   4.521   2.952 -1.9242  1.0853 -1.9641
  125MOL0     H16853  -1.358   4.252   2.896  3.4595 -0.2701 -1.5068
  125MOL0     H16854  -1.389   4.260   3.074  1.8418  1.1815  0.9460
  125MOL0     H16855  -1.143   4.313   3.099  0.4377  1.8503 -1.0610
  125MOL0     H16856  -1.130   4.300   2.918  1.3327  3.9953  2.0022
  125MOL0     H16857  -0.874   5.076   3.020  0.5547  1.5849  0.1126
  125MOL0     H16858  -0.687   5.223   3.048 -3.1954  1.2438  1.0342
  125MOL0     H16859  -0.230   5.204   3.137 -0.7199 -2.8917  1.2280
  125MOL0     H16860  -0.029   5.299   3.134 -0.8607  1.2776 -0.5348
  125MOL0     H16861   1.015   5.817   2.226  0.6129  0.4054  3.8105
  125MOL0     H16862   1.243   5.847   2.161 -2.3870 -0.1109 -1.2764
  125MOL0     H16863   1.669   5.761   1.883  0.4465  3.2444 -0.3241
  125MOL0     H16864   1.903   5.844   1.913 -0.7432 -1.9511 -0.5640
  125MOL0     H16865   2.096   5.845   2.308  0.9257  0.4879  0.0141
  125MOL0     H16866   2.191   5.728   2.214  0.8450  0.0097 -0.9017
  125MOL0     H16867   2.316   5.896   2.102  0.5604  4.3978 -1.4262
  125MOL0     H16868   2.315   5.916   2.275  1.4157  0.2283 -0.5212
  125MOL0     H16869   2.209   6.098   2.061  1.7130 -1.9445 -0.6467
  125MOL0     H16870   2.284   6.129   2.218  3.0240 -1.0156 -3.2754
  125MOL0     H16871   2.075   6.127   2.350  0.2082 -2.3311  0.7739
  125MOL0     H16872   1.979   6.071   2.214 -2.9458  2.7847  2.4862
  125MOL0     H16873   2.033   6.481   2.127 -1.2812  0.0868  0.5608
  125MOL0     H16874   1.887   5.737   2.326 -0.0494  0.5263  0.7659
  125MOL0     H16875   1.646   5.721   2.317  0.2928  3.2350  0.4097
  126MOL0     O16876   3.524   4.075   1.931 -0.4518  0.1867 -0.4774
  126MOL0     C16877   3.644   4.060   1.962  0.5450 -0.3447 -0.0395
  126MOL0     O16878   3.711   4.144   2.045  0.1922 -0.0246  0.2765
  126MOL0     C16879   3.643   4.259   2.079  0.2182  0.8946  0.9008
  126MOL0     C16880   3.556   4.250   2.191  0.6794 -0.1218  0.1341
  126MOL0     C16881   3.491   4.365   2.228  0.0699 -0.6295 -0.5785
  126MOL0     C16882   3.506   4.489   2.161 -0.0641  0.4822  0.4167
  126MOL0     O16883   3.435   4.603   2.193 -0.1740 -0.0556  0.4104
  126MOL0     C16884   3.405   4.621   2.329  0.1895 -0.2559  0.1230
  126MOL0     C16885   3.345   4.760   2.343 -0.4034  0.3454  0.7729
  126MOL0     C16886   3.308   4.802   2.480  0.3242  0.5647  0.3012
  126MOL0     C16887   3.163   4.767   2.526  0.2815  0.4174  0.7222
  126MOL0     C16888   3.149   4.630   2.583 -0.4756  0.3697  0.1490
  126MOL0     C16889   3.011   4.627   2.664  0.4664  0.1373 -0.3482
  126MOL0     C16890   2.998   4.488   2.735 -0.3943  0.4261 -0.5618
  126MOL0     C16891   2.873   4.492   2.826 -0.3830  0.5026 -0.3370
  126MOL0     N16892   2.906   4.533   2.954 -0.1828 -0.0707 -1.2225
  126MOL0     C16893   2.959   4.463   3.059  0.9466 -0.1863 -0.3416
  126MOL0     C16894   2.937   4.530   3.173  0.1204 -0.6586  0.7140
  126MOL0     C16895   2.967   4.491   3.313  0.0059  0.6978 -0.0048
  126MOL0     C16896   3.106   4.531   3.370 -0.4014 -0.3066  0.1484
  126MOL0     C16897   3.126   4.442   3.493  0.2627 -0.7915  0.5259
  126MOL0     C16898   3.231   4.511   3.585 -0.4630  0.7562  0.3215
  126MOL0     O16899   3.269   4.419   3.688  0.3805  0.0776  0.3607
  126MOL0     C16900   3.387   4.453   3.740 -0.7472 -0.2975  0.0291
  126MOL0     C16901   3.399   4.548   3.836 -1.6555  0.4925  0.7402
  126MOL0     C16902   3.518   4.573   3.897  0.3696  0.1479 -0.7860
  126MOL0     C16903   3.526   4.697   3.981 -0.1890 -0.0100 -0.0840
  126MOL0     C16904   3.630   4.493   3.859 -1.1756 -0.0946  0.4377
  126MOL0     C16905   3.764   4.516   3.914  0.5314  0.4148  0.0417
  126MOL0     O16906   3.866   4.527   3.819  0.7582  0.6954  0.4457
  126MOL0     C16907   3.999   4.543   3.857 -0.1723  0.0262  0.5066
  126MOL0     C16908   4.040   4.588   3.983 -0.4034 -0.0954 -0.1832
  126MOL0     C16909   4.173   4.616   4.013  0.0520 -0.4464  0.3641
  126MOL0     C16910   4.276   4.599   3.920  0.4501  0.1504  0.0217
  126MOL0     O16911   4.405   4.613   3.949 -0.1192 -0.0791  0.2234
  126MOL0     C16912   4.469   4.739   3.949 -0.5327 -0.9722 -0.1072
  126MOL0     C16913   4.557   4.750   4.069 -0.1524  0.4558  0.0630
  126MOL0     C16914   4.497   4.797   4.199  0.4391  1.0276 -0.2858
  126MOL0     C16915   4.623   4.787   4.304 -0.3914 -0.4330 -0.8749
  126MOL0     C16916   4.606   4.847   4.447 -0.1080  0.1128 -0.1898
  126MOL0     C16917   4.489   4.789   4.534 -0.5536  0.7705 -0.1431
  126MOL0     C16918   4.506   4.642   4.562  0.2646 -0.2802 -0.3124
  126MOL0     C16919   4.375   4.559   4.594 -0.9593 -0.1518  0.3647
  126MOL0    Cl16920   4.283   4.648   4.726 -0.5728 -0.0721  0.0893
  126MOL0     C16921   4.236   4.545   3.792  0.0217  0.5500  0.5100
  126MOL0     C16922   4.102   4.518   3.765 -0.0052  0.0438 -0.4023
  126MOL0     O16923   3.782   4.497   4.034  0.4701  0.2656  0.2239
  126MOL0     C16924   3.615   4.404   3.752  0.3115  0.7800 -0.6206
  126MOL0     C16925   3.499   4.381   3.686 -0.1949 -0.6689 -0.4856
  126MOL0     N16926   2.872   4.649   3.138 -0.4544  0.6543 -0.8488
  126MOL0     N16927   2.863   4.652   3.010  0.0687  0.3510 -0.4733
  126MOL0     C16928   3.590   4.496   2.052 -0.0948 -0.1171  0.2097
  126MOL0     C16929   3.669   4.383   2.016 -0.0685  0.2065 -0.2939
  126MOL0     C16930   3.709   3.953   1.898  0.1448  0.3686  0.2962
  126MOL0     C16931   3.656   3.902   1.779  0.2800  0.0717  0.1413
  126MOL0     C16932   3.721   3.804   1.708 -0.0859  0.4541 -0.1201
  126MOL0     C16933   3.851   3.758   1.746  0.2962 -0.1668 -0.1292
  126MOL0     O16934   3.932   3.670   1.675  0.6979  0.1516  0.2886
  126MOL0     C16935   3.864   3.539   1.666 -0.2998 -0.9622  0.1423
  126MOL0     C16936   3.957   3.429   1.607  0.2039 -0.6074 -0.5347
  126MOL0     C16937   4.070   3.405   1.710  1.1526  0.4599  0.1482
  126MOL0     C16938   4.174   3.321   1.633 -0.7055  0.1262 -0.3417
  126MOL0     C16939   4.283   3.303   1.736  0.6139  0.1907  0.7933
  126MOL0     C16940   4.371   3.293   1.820  0.5884  0.3269 -0.4151
  126MOL0     C16941   3.912   3.822   1.856  0.1584  0.1525 -0.3175
  126MOL0     C16942   3.839   3.910   1.938  0.4111  0.7996  0.4330
  126MOL0     H16943   3.540   4.153   2.237  1.8555 -0.1633  0.4706
  126MOL0     H16944   3.421   4.362   2.311 -1.5474  1.0530 -1.7991
  126MOL0     H16945   3.338   4.543   2.366 -1.3927 -0.0612 -2.1415
  126MOL0     H16946   3.496   4.620   2.390 -0.5304 -0.9496  1.2118
  126MOL0     H16947   3.421   4.832   2.311 -0.4267 -0.4397 -1.1383
  126MOL0     H16948   3.257   4.757   2.278  0.0754  1.5641  0.0237
  126MOL0     H16949   3.377   4.760   2.554  0.3393  2.2374  1.3048
  126MOL0     H16950   3.329   4.909   2.485  4.0567  0.0516 -1.1112
  126MOL0     H16951   3.146   4.842   2.604  0.5025  1.7561 -0.4840
  126MOL0     H16952   3.093   4.774   2.443  1.5877 -2.1820 -0.7334
  126MOL0     H16953   3.147   4.552   2.506  0.9891  2.5548 -2.2513
  126MOL0     H16954   3.233   4.615   2.652  0.2012  1.5107 -0.3951
  126MOL0     H16955   2.998   4.700   2.745  3.4017  0.3507  0.0359
  126MOL0     H16956   2.943   4.649   2.581 -0.2591 -0.5582  0.0480
  126MOL0     H16957   2.988   4.406   2.663  0.9302 -1.6842  1.5333
  126MOL0     H16958   3.090   4.461   2.788 -0.5345 -1.1560 -1.0848
  126MOL0     H16959   2.830   4.392   2.825  0.1862  0.2039  1.5120
  126MOL0     H16960   2.798   4.564   2.792 -0.8770  0.1454 -0.0054
  126MOL0     H16961   3.006   4.366   3.046 -0.5656 -0.8543 -1.0645
  126MOL0     H16962   2.889   4.532   3.378  1.1135 -1.1528  2.6472
  126MOL0     H16963   2.943   4.385   3.321  2.1255  0.2078  0.1621
  126MOL0     H16964   3.112   4.636   3.401  0.8160 -0.5791  0.8866
  126MOL0     H16965   3.182   4.519   3.292  0.9566 -3.1827  1.7559
  126MOL0     H16966   3.147   4.336   3.475 -1.3690 -0.9838 -0.4620
  126MOL0     H16967   3.035   4.443   3.555 -0.7811  3.4777 -0.7617
  126MOL0     H16968   3.189   4.602   3.628 -2.0762  0.1575  0.0523
  126MOL0     H16969   3.320   4.534   3.524 -1.4756 -1.5195 -2.2384
  126MOL0     H16970   3.311   4.612   3.841 -1.9321  0.1887 -0.0898
  126MOL0     H16971   3.608   4.679   4.051 -0.8654 -4.0050 -0.0955
  126MOL0     H16972   3.547   4.785   3.919  3.4207  0.5655  1.6813
  126MOL0     H16973   3.429   4.717   4.027 -0.7752 -2.4288 -0.1090
  126MOL0     H16974   3.976   4.613   4.067 -0.0859  2.0956 -0.5515
  126MOL0     H16975   4.184   4.651   4.115 -6.3723 -1.9192  2.0322
  126MOL0     H16976   4.545   4.749   3.872  1.3946  3.4260  1.9703
  126MOL0     H16977   4.392   4.817   3.961 -0.4501 -0.8505 -0.3863
  126MOL0     H16978   4.602   4.651   4.086  1.8632  1.3161 -0.0239
  126MOL0     H16979   4.626   4.832   4.050  0.7562  0.0805  1.5141
  126MOL0     H16980   4.408   4.741   4.230 -0.2179  1.0881 -1.9264
  126MOL0     H16981   4.473   4.903   4.186 -2.8186  0.1988 -2.4803
  126MOL0     H16982   4.676   4.691   4.297 -0.7839 -0.7386  0.1448
  126MOL0     H16983   4.703   4.853   4.272 -0.1931  0.1122  0.6837
  126MOL0     H16984   4.594   4.955   4.445  0.4003  0.5374  5.1082
  126MOL0     H16985   4.699   4.823   4.499 -0.4404  0.2838  0.4860
  126MOL0     H16986   4.489   4.839   4.631  0.1875 -1.0908  0.8704
  126MOL0     H16987   4.394   4.801   4.481 -1.8011  0.1240  1.8264
  126MOL0     H16988   4.584   4.619   4.636 -1.3144 -1.4989  1.0334
  126MOL0     H16989   4.540   4.591   4.471 -0.7060  1.4961 -1.7495
  126MOL0     H16990   4.382   4.452   4.616  3.5436  0.0630  0.9631
  126MOL0     H16991   4.323   4.564   4.498  0.4759  2.9816 -0.3700
  126MOL0     H16992   4.315   4.512   3.726  1.1443  1.6182  1.2840
  126MOL0     H16993   4.075   4.485   3.665  0.6033  0.9130 -0.8666
  126MOL0     H16994   3.699   4.341   3.724 -0.9860 -2.3934  1.9698
  126MOL0     H16995   3.501   4.303   3.610  1.5430  1.1136 -2.4070
  126MOL0     H16996   3.602   4.594   2.007  1.4632  0.3169  1.4950
  126MOL0     H16997   3.740   4.376   1.934  1.0187  3.0494  0.3087
  126MOL0     H16998   3.554   3.918   1.747  0.2272  0.6060  0.5669
  126MOL0     H16999   3.671   3.785   1.613  0.7914  1.9620 -0.9175
  126MOL0     H17000   3.853   3.505   1.770  0.5280 -0.1405  0.5243
  126MOL0     H17001   3.769   3.546   1.614 -2.3717  1.6964  3.7978
  126MOL0     H17002   4.003   3.474   1.518 -0.3405 -0.1068 -0.5666
  126MOL0     H17003   3.903   3.338   1.577  0.1208 -0.5110 -0.6807
  126MOL0     H17004   4.031   3.340   1.789  0.5923  0.5954 -0.0079
  126MOL0     H17005   4.110   3.493   1.761  0.4317 -0.0568  1.6704
  126MOL0     H17006   4.202   3.373   1.541 -0.0637  0.8002  0.2265
  126MOL0     H17007   4.128   3.225   1.608 -0.8033 -0.3798  1.6082
  126MOL0     H17008   4.430   3.294   1.909  0.1402 -2.0676 -0.0190
  126MOL0     H17009   4.013   3.793   1.884 -0.1332  1.0092  1.7927
  126MOL0     H17010   3.872   3.943   2.036 -3.8785 -0.1888  2.4506
  127MOL0     O17011   9.466   8.874   6.964  0.0186 -0.5251 -0.2584
  127MOL0     C17012   9.403   8.793   7.042 -0.4429 -0.3901  0.3125
  127MOL0     O17013   9.277   8.754   7.042 -0.0660 -0.7816 -0.6643
  127MOL0     C17014   9.194   8.804   6.950 -0.3172  0.8573  0.6887
  127MOL0     C17015   9.171   8.946   6.922 -0.1894  0.1113 -0.6410
  127MOL0     C17016   9.092   8.979   6.813  1.2374  0.2469  0.2975
  127MOL0     C17017   9.014   8.873   6.752  0.6497 -0.8534 -0.2886
  127MOL0     O17018   8.929   8.908   6.651  0.2007  0.1064  0.0014
  127MOL0     C17019   8.931   8.834   6.524  0.3360  0.0111 -0.0832
  127MOL0     C17020   8.784   8.824   6.486 -0.4122  0.8244  0.0649
  127MOL0     C17021   8.778   8.746   6.350  0.2256 -0.8519 -0.4119
  127MOL0     C17022   8.632   8.710   6.317  0.3334 -0.2696 -0.0625
  127MOL0     C17023   8.555   8.831   6.267  0.2027  0.4240  0.3381
  127MOL0     C17024   8.409   8.783   6.253  0.9369 -0.2261  0.1522
  127MOL0     C17025   8.310   8.876   6.180 -0.0783  0.4755  1.1294
  127MOL0     C17026   8.317   8.866   6.023  1.0984  0.0169  0.0831
  127MOL0     N17027   8.217   8.961   5.966  0.1625  0.6729 -0.2768
  127MOL0     C17028   8.087   8.927   5.932 -0.0322 -0.4790  0.7156
  127MOL0     C17029   8.052   9.027   5.836 -0.3366  0.3502 -0.4058
  127MOL0     C17030   7.925   9.034   5.754 -0.4963  0.7220  1.1268
  127MOL0     C17031   7.811   9.046   5.848 -0.4406 -0.0590 -0.5974
  127MOL0     C17032   7.670   9.068   5.777 -0.4434 -0.2461 -0.5937
  127MOL0     C17033   7.557   9.105   5.880 -0.4124  0.7339 -0.3103
  127MOL0     O17034   7.522   8.990   5.956 -0.1363  1.4648  0.2139
  127MOL0     C17035   7.413   8.905   5.917  0.1433 -1.0710 -0.2294
  127MOL0     C17036   7.378   8.802   6.002 -0.1217  0.2311  0.2936
  127MOL0     C17037   7.258   8.725   5.980 -0.3837 -0.4738  0.9289
  127MOL0     C17038   7.250   8.608   6.080  0.1248  0.2027 -1.1135
  127MOL0     C17039   7.175   8.751   5.873 -0.0614 -0.1780 -0.2834
  127MOL0     C17040   7.065   8.674   5.834 -0.1917 -0.2048  0.1990
  127MOL0     O17041   7.039   8.568   5.909  0.2870 -0.2944 -0.7348
  127MOL0     C17042   6.920   8.496   5.883 -0.0383  0.0257 -0.1347
  127MOL0     C17043   6.830   8.466   5.990 -0.3758 -0.5142 -0.4279
  127MOL0     C17044   6.705   8.403   5.980 -0.0727 -0.0412  0.4923
  127MOL0     C17045   6.667   8.362   5.849  0.0818  0.1734 -0.1217
  127MOL0     O17046   6.556   8.289   5.804  0.2815  0.6213 -0.1508
  127MOL0     C17047   6.441   8.287   5.884 -0.7871 -1.1983 -0.2521
  127MOL0     C17048   6.333   8.390   5.841 -0.4126  0.3935 -0.3770
  127MOL0     C17049   6.266   8.341   5.705 -0.2703  1.2670 -0.3930
  127MOL0     C17050   6.149   8.422   5.664 -0.6109  0.1781  0.1823
  127MOL0     C17051   6.107   8.388   5.526 -0.1043  0.0349  0.4016
  127MOL0     C17052   5.993   8.474   5.455 -0.2065  1.2245  0.8709
  127MOL0     C17053   5.854   8.463   5.534 -1.1948  0.3801 -0.5317
  127MOL0     C17054   5.739   8.431   5.448 -0.1278  0.1261  0.4675
  127MOL0    Cl17055   5.609   8.370   5.561  0.3501 -0.4180  0.0792
  127MOL0     C17056   6.761   8.382   5.748  0.1123  0.1262  0.5305
  127MOL0     C17057   6.882   8.446   5.756  0.2520 -0.6718  0.1215
  127MOL0     O17058   7.004   8.700   5.732 -0.3254 -0.4529 -0.1460
  127MOL0     C17059   7.195   8.870   5.801 -0.6746 -0.8982 -0.4550
  127MOL0     C17060   7.305   8.945   5.829 -0.0673 -0.2575  0.1515
  127MOL0     N17061   8.149   9.129   5.840 -0.1377  0.1451  0.4500
  127MOL0     N17062   8.240   9.092   5.929  0.3291 -0.0643  0.7710
  127MOL0     C17063   9.016   8.739   6.786 -0.5033  0.0425 -0.7794
  127MOL0     C17064   9.116   8.711   6.880  0.4836  0.3665 -0.7544
  127MOL0     C17065   9.492   8.695   7.107  0.0827  0.0712  0.2807
  127MOL0     C17066   9.635   8.702   7.101  0.8608  0.1133  0.0116
  127MOL0     C17067   9.716   8.627   7.192 -0.7741 -0.3139  0.6963
  127MOL0     C17068   9.659   8.538   7.281  0.7191 -0.5840  0.4088
  127MOL0     O17069   9.743   8.448   7.339  0.5926 -0.8106 -0.4096
  127MOL0     C17070   9.722   8.308   7.295  0.7559 -0.2791 -0.4031
  127MOL0     C17071   9.818   8.204   7.364  0.8051  0.4729 -0.4770
  127MOL0     C17072   9.732   8.096   7.427  0.0154  0.8718  0.1499
  127MOL0     C17073   9.803   8.002   7.520 -0.0796  0.1865  0.5917
  127MOL0     C17074   9.713   7.888   7.549 -0.1601 -1.2311  0.3394
  127MOL0     C17075   9.624   7.807   7.556 -0.3945  0.5504  0.3342
  127MOL0     C17076   9.518   8.527   7.285 -0.2396 -0.3015  0.6071
  127MOL0     C17077   9.437   8.606   7.201 -0.4846  0.1486 -0.3320
  127MOL0     H17078   9.221   9.030   6.968  0.1979  0.4224 -1.6082
  127MOL0     H17079   9.070   9.082   6.790  2.3037  0.0804 -1.7139
  127MOL0     H17080   8.983   8.897   6.452  4.1678 -2.9724 -0.2205
  127MOL0     H17081   8.991   8.743   6.516 -0.8568 -0.6077 -2.8304
  127MOL0     H17082   8.727   8.766   6.559  0.1736 -2.0434 -1.5884
  127MOL0     H17083   8.742   8.924   6.477  2.0651  1.8663 -0.6311
  127MOL0     H17084   8.831   8.798   6.270  0.2754  1.5161  1.0739
  127MOL0     H17085   8.841   8.659   6.369 -0.8498 -1.4954  0.3492
  127MOL0     H17086   8.636   8.636   6.236 -1.8232 -0.8534  0.2977
  127MOL0     H17087   8.577   8.663   6.399  2.1648 -2.9069 -0.2267
  127MOL0     H17088   8.557   8.918   6.333  2.3770  0.4358  0.3458
  127MOL0     H17089   8.596   8.865   6.171  3.0252 -2.6059  0.2805
  127MOL0     H17090   8.401   8.681   6.213 -0.3049  0.5181 -1.6147
  127MOL0     H17091   8.381   8.794   6.358  0.6896  1.3415 -0.0474
  127MOL0     H17092   8.212   8.846   6.219  0.6152 -2.3328  0.8706
  127MOL0     H17093   8.324   8.980   6.212  0.3626  0.6553  0.3660
  127MOL0     H17094   8.275   8.765   6.019 -0.1177  0.4140  1.7715
  127MOL0     H17095   8.415   8.871   5.976  0.2538 -1.3196 -1.9564
  127MOL0     H17096   8.035   8.833   5.947  0.4877 -0.8103  0.4681
  127MOL0     H17097   7.943   9.124   5.696 -2.8874  0.4233 -0.2184
  127MOL0     H17098   7.925   8.949   5.685  4.3402 -0.7795  2.5877
  127MOL0     H17099   7.827   9.130   5.916 -1.3109 -1.7263  1.8050
  127MOL0     H17100   7.800   8.953   5.905 -2.8542 -1.1390 -2.5898
  127MOL0     H17101   7.650   8.982   5.712  0.4865  0.3375 -1.6671
  127MOL0     H17102   7.675   9.143   5.698 -1.2340  0.4569  0.0034
  127MOL0     H17103   7.467   9.146   5.832 -3.2208 -3.1048  1.1533
  127MOL0     H17104   7.594   9.183   5.946  1.2970 -0.0438 -0.3127
  127MOL0     H17105   7.444   8.777   6.084 -1.3208 -0.5898  1.0467
  127MOL0     H17106   7.300   8.518   6.041 -0.6805 -0.1990 -1.2288
  127MOL0     H17107   7.298   8.647   6.170  0.0532  1.0081 -1.4218
  127MOL0     H17108   7.151   8.573   6.110  0.8492  0.1254  1.4456
  127MOL0     H17109   6.866   8.512   6.081 -0.8523 -0.2635 -0.3679
  127MOL0     H17110   6.650   8.397   6.074  1.5282  3.3639  1.8359
  127MOL0     H17111   6.405   8.185   5.895  1.8177 -1.9561  2.4607
  127MOL0     H17112   6.471   8.321   5.984  0.9874 -3.0515 -0.0754
  127MOL0     H17113   6.255   8.383   5.917 -0.3276  2.3013 -0.0659
  127MOL0     H17114   6.371   8.493   5.841  1.3175 -0.1918  1.2777
  127MOL0     H17115   6.249   8.234   5.719 -3.8188  2.0801  3.6033
  127MOL0     H17116   6.334   8.344   5.619  1.0484 -1.9695  0.3896
  127MOL0     H17117   6.067   8.409   5.735 -0.6496  0.1192  0.1268
  127MOL0     H17118   6.164   8.531   5.665 -4.8524  0.9220  0.1683
  127MOL0     H17119   6.070   8.285   5.521 -2.2814  0.7980 -3.3300
  127MOL0     H17120   6.197   8.389   5.463 -0.4176  0.1153 -0.0484
  127MOL0     H17121   6.012   8.580   5.441 -0.0782  0.9713 -1.1362
  127MOL0     H17122   5.985   8.422   5.359 -1.8274 -3.1604  3.1149
  127MOL0     H17123   5.833   8.560   5.580 -2.2003 -0.2943  0.5045
  127MOL0     H17124   5.846   8.385   5.611 -0.2988 -1.5614 -2.2998
  127MOL0     H17125   5.764   8.349   5.380  0.5237 -0.6157  1.5799
  127MOL0     H17126   5.707   8.511   5.380 -1.0268 -1.9955 -1.7427
  127MOL0     H17127   6.746   8.347   5.646  2.6622  2.2095 -0.6986
  127MOL0     H17128   6.944   8.459   5.668  1.5439 -0.5778  1.0202
  127MOL0     H17129   7.116   8.910   5.739 -1.8191  1.4498  2.2678
  127MOL0     H17130   7.294   9.039   5.776 -0.8388 -1.3031 -1.6564
  127MOL0     H17131   8.945   8.665   6.750 -2.2464  1.7949 -1.1155
  127MOL0     H17132   9.128   8.607   6.907  2.3497  0.4446 -1.1396
  127MOL0     H17133   9.680   8.773   7.033 -0.7082  0.0560 -1.1381
  127MOL0     H17134   9.823   8.638   7.175 -0.8472  1.3254  1.1904
  127MOL0     H17135   9.617   8.279   7.303  0.8238 -0.2517  0.9702
  127MOL0     H17136   9.732   8.312   7.186 -0.2696 -1.7225 -0.5645
  127MOL0     H17137   9.877   8.263   7.434 -1.2294  0.5456  1.2702
  127MOL0     H17138   9.885   8.159   7.290 -0.0813 -0.1346 -0.9237
  127MOL0     H17139   9.692   8.045   7.339 -0.9183  1.4981  0.1873
  127MOL0     H17140   9.642   8.137   7.475 -0.7788 -2.8372  2.2051
  127MOL0     H17141   9.826   8.065   7.606  0.6175 -0.4863  0.9111
  127MOL0     H17142   9.893   7.963   7.472 -0.0268  0.9640  0.0460
  127MOL0     H17143   9.552   7.729   7.571 -0.8561  0.9541  0.2347
  127MOL0     H17144   9.477   8.455   7.356  1.0205 -1.1868  0.4656
  127MOL0     H17145   9.336   8.576   7.225 -0.3366 -1.0979 -1.1920
  128MOL0     O17146   4.500   9.281   3.175 -0.3612 -0.9814 -0.8063
  128MOL0     C17147   4.583   9.296   3.087 -1.2149 -0.3275 -1.1900
  128MOL0     O17148   4.575   9.256   2.945  0.2874  0.0981  0.2244
  128MOL0     C17149   4.448   9.242   2.894 -0.4776  0.5855 -0.2618
  128MOL0     C17150   4.439   9.274   2.754  0.3100 -0.0866  0.9223
  128MOL0     C17151   4.315   9.273   2.689 -0.0947 -0.0295  0.9001
  128MOL0     C17152   4.196   9.240   2.749 -0.4789 -1.4216 -0.8217
  128MOL0     O17153   4.079   9.244   2.679  0.4816 -0.3891 -0.1353
  128MOL0     C17154   3.958   9.193   2.738  0.1657  0.2922  0.0013
  128MOL0     C17155   3.859   9.178   2.628  0.4241  0.4246  0.5826
  128MOL0     C17156   3.749   9.077   2.691  1.1864  0.2581  0.9303
  128MOL0     C17157   3.644   9.034   2.583  0.5701  0.1382  0.0624
  128MOL0     C17158   3.518   8.955   2.642 -0.3322  0.2915 -0.7298
  128MOL0     C17159   3.420   8.908   2.525  0.4357 -0.2489  0.5906
  128MOL0     C17160   3.360   9.034   2.456  0.4691  0.8737  0.0386
  128MOL0     C17161   3.254   9.019   2.348  0.3641  0.3343  0.2681
  128MOL0     N17162   3.154   8.917   2.402  0.2224 -0.0143  0.2741
  128MOL0     C17163   3.063   8.913   2.504  0.1059 -1.1303  0.3436
  128MOL0     C17164   2.982   8.804   2.492  0.3939 -0.1516  0.5386
  128MOL0     C17165   2.886   8.767   2.601 -0.0235  0.1440  0.0544
  128MOL0     C17166   2.745   8.814   2.585 -0.0398  0.3205  0.0912
  128MOL0     C17167   2.662   8.754   2.469 -1.1426  0.3471 -0.1442
  128MOL0     C17168   2.535   8.830   2.447 -0.0045  0.1686 -0.4361
  128MOL0     O17169   2.450   8.798   2.558 -0.4971 -0.1549 -0.6174
  128MOL0     C17170   2.322   8.847   2.560  0.2279  0.0737 -0.2463
  128MOL0     C17171   2.266   8.902   2.447  0.2589 -0.5548 -0.8117
  128MOL0     C17172   2.136   8.965   2.450 -0.5104  0.3491  0.2889
  128MOL0     C17173   2.100   9.052   2.333 -0.2365  0.7238  1.0997
  128MOL0     C17174   2.051   8.947   2.561 -0.0049  0.2945 -0.7860
  128MOL0     C17175   1.914   9.006   2.572 -1.3237 -0.0027 -0.6336
  128MOL0     O17176   1.848   9.024   2.454  0.1334 -0.0204 -0.2763
  128MOL0     C17177   1.726   9.098   2.442  0.5513  0.5660  0.4773
  128MOL0     C17178   1.616   9.076   2.523 -0.0649 -0.4089 -0.4526
  128MOL0     C17179   1.505   9.153   2.526  0.7861 -0.2532  0.7588
  128MOL0     C17180   1.496   9.257   2.429 -0.7852  0.2813 -0.5888
  128MOL0     O17181   1.383   9.325   2.437 -0.3458  0.4505 -0.3395
  128MOL0     C17182   1.384   9.439   2.357  0.0991  0.0004  0.8895
  128MOL0     C17183   1.243   9.486   2.387 -0.0115 -0.1537  0.8345
  128MOL0     C17184   1.232   9.618   2.314  0.4843 -2.1012  0.3328
  128MOL0     C17185   1.103   9.691   2.357 -0.5049 -0.1638 -0.6404
  128MOL0     C17186   1.069   9.823   2.300 -0.9848 -0.3498 -0.0854
  128MOL0     C17187   1.046   9.820   2.148  0.7539  0.2383  0.6893
  128MOL0     C17188   0.988   9.957   2.099 -0.8445  1.0955 -0.7178
  128MOL0     C17189   0.845   9.981   2.148 -0.2694 -0.1453 -0.5029
  128MOL0    Cl17190   0.739  10.085   2.043 -0.4259 -0.1956  0.1227
  128MOL0     C17191   1.609   9.282   2.342 -0.3117 -0.2640 -0.5480
  128MOL0     C17192   1.725   9.201   2.343  0.7250 -0.2391  0.0616
  128MOL0     O17193   1.873   9.041   2.685 -1.3292 -0.1145  0.4720
  128MOL0     C17194   2.110   8.890   2.675 -0.8744  0.0092 -0.2978
  128MOL0     C17195   2.236   8.838   2.672 -0.5518  0.9720 -0.4451
  128MOL0     N17196   3.028   8.737   2.385 -0.2674 -0.3340 -0.4814
  128MOL0     N17197   3.124   8.802   2.332  0.2986 -0.1094  0.1456
  128MOL0     C17198   4.206   9.207   2.891 -0.5171 -0.1873  0.5694
  128MOL0     C17199   4.332   9.199   2.958  0.1173 -0.1668  0.2218
  128MOL0     C17200   4.716   9.339   3.129 -0.9529 -0.3948 -0.5151
  128MOL0     C17201   4.815   9.382   3.038  0.0534  0.2447  0.0179
  128MOL0     C17202   4.948   9.403   3.083  0.3623 -1.7034  0.1791
  128MOL0     C17203   4.986   9.383   3.216  0.0110 -0.4337  0.1902
  128MOL0     O17204   5.116   9.402   3.261 -0.1179  0.4397 -0.5032
  128MOL0     C17205   5.220   9.371   3.168  0.1458  0.0857  0.6548
  128MOL0     C17206   5.242   9.219   3.140  0.1038 -0.6434  0.2756
  128MOL0     C17207   5.141   9.148   3.047  1.0835 -0.2122 -0.7644
  128MOL0     C17208   5.188   9.010   3.006  0.3885 -0.0943 -0.2712
  128MOL0     C17209   5.219   8.994   2.863 -0.4111 -0.3785  0.7175
  128MOL0     C17210   5.238   8.978   2.739 -0.2246  0.1091 -0.2653
  128MOL0     C17211   4.891   9.333   3.299  0.0751  0.0216  0.4559
  128MOL0     C17212   4.752   9.312   3.269  0.5910  0.3473  0.8528
  128MOL0     H17213   4.524   9.306   2.696 -1.0022  0.3009 -0.8703
  128MOL0     H17214   4.300   9.293   2.583  0.0298 -3.1100  0.2271
  128MOL0     H17215   3.979   9.106   2.800  2.9134  1.0258  0.2409
  128MOL0     H17216   3.924   9.277   2.799 -0.4431 -1.7171  2.5977
  128MOL0     H17217   3.812   9.269   2.589  2.3979  1.2702  0.0998
  128MOL0     H17218   3.914   9.130   2.547  2.0189 -1.0734  2.4569
  128MOL0     H17219   3.798   8.994   2.744  0.0574  0.6611  2.6649
  128MOL0     H17220   3.692   9.125   2.771 -0.5718  1.9038 -1.2056
  128MOL0     H17221   3.597   9.125   2.543 -1.2266 -0.4490  0.7135
  128MOL0     H17222   3.686   8.985   2.495 -0.8768 -0.0365 -0.5573
  128MOL0     H17223   3.552   8.862   2.689 -2.3699  1.3050  3.1844
  128MOL0     H17224   3.466   9.014   2.719 -1.0450 -1.1870 -0.0232
  128MOL0     H17225   3.471   8.849   2.448 -1.7802 -0.6953 -0.6320
  128MOL0     H17226   3.337   8.842   2.554 -1.1106  2.4418  2.7572
  128MOL0     H17227   3.315   9.099   2.531  0.2109  1.2523 -0.4371
  128MOL0     H17228   3.447   9.082   2.410 -0.2586  0.8486 -1.4419
  128MOL0     H17229   3.307   8.981   2.260 -0.6376  1.5775 -0.9099
  128MOL0     H17230   3.211   9.113   2.314  0.8599  0.5740  0.2948
  128MOL0     H17231   3.061   8.988   2.582  1.2489 -0.8048  0.0846
  128MOL0     H17232   2.887   8.658   2.608 -2.1627 -0.1340 -2.4415
  128MOL0     H17233   2.920   8.802   2.699 -0.6277 -1.3253  0.8191
  128MOL0     H17234   2.743   8.923   2.578  3.5928  0.4775 -0.2930
  128MOL0     H17235   2.697   8.785   2.679  2.2498  0.6514  1.4399
  128MOL0     H17236   2.645   8.647   2.479 -3.6289  0.5905 -1.0537
  128MOL0     H17237   2.727   8.776   2.383  1.1861 -2.0462  0.8555
  128MOL0     H17238   2.494   8.801   2.350  1.9104 -0.2932 -1.1412
  128MOL0     H17239   2.555   8.937   2.434 -1.6455  0.3585 -1.7184
  128MOL0     H17240   2.317   8.928   2.355 -1.8574  1.4170 -1.5364
  128MOL0     H17241   2.043   9.143   2.353 -1.2241  0.9543 -2.2160
  128MOL0     H17242   2.191   9.083   2.280 -1.5261  1.3347 -0.8607
  128MOL0     H17243   2.053   8.994   2.253  1.1236  2.1099 -0.7973
  128MOL0     H17244   1.628   9.005   2.605  0.4442  0.8700  0.6141
  128MOL0     H17245   1.428   9.139   2.600 -0.2766  1.7033  0.0990
  128MOL0     H17246   1.467   9.499   2.395  0.0739  0.1488  0.7128
  128MOL0     H17247   1.390   9.441   2.248 -2.6400  1.2593  0.6748
  128MOL0     H17248   1.169   9.416   2.349  0.2063 -0.5818  1.1951
  128MOL0     H17249   1.221   9.510   2.491  0.1917 -2.9943  1.5958
  128MOL0     H17250   1.209   9.602   2.208 -3.5988  0.1069  0.6566
  128MOL0     H17251   1.309   9.695   2.323 -1.7626  1.1275 -3.8671
  128MOL0     H17252   1.013   9.629   2.353  0.0297 -1.1892  1.5149
  128MOL0     H17253   1.113   9.713   2.464 -0.2058 -2.0125 -0.2569
  128MOL0     H17254   1.152   9.892   2.319  0.3105 -1.1616 -2.3852
  128MOL0     H17255   0.985   9.862   2.358  0.4356  0.4524  1.5146
  128MOL0     H17256   1.144   9.798   2.105  0.8598  0.3729  0.8599
  128MOL0     H17257   0.974   9.740   2.127 -1.0786  2.2533 -1.1473
  128MOL0     H17258   0.980   9.951   1.990  2.8390 -3.1524 -1.0379
  128MOL0     H17259   1.047  10.043   2.130  2.0495 -1.1188  0.3924
  128MOL0     H17260   0.855  10.031   2.245  3.7969  2.9456 -2.2605
  128MOL0     H17261   0.793   9.886   2.169  0.5797 -0.4627  0.2421
  128MOL0     H17262   1.611   9.373   2.283  0.4182 -0.0475 -0.2117
  128MOL0     H17263   1.806   9.218   2.273  1.4555 -0.2848  0.8751
  128MOL0     H17264   2.050   8.874   2.764  1.5292 -1.6707  1.1688
  128MOL0     H17265   2.279   8.787   2.758 -1.9204 -0.3169 -0.4914
  128MOL0     H17266   4.124   9.174   2.954  2.3531 -3.1771  3.1102
  128MOL0     H17267   4.348   9.172   3.062  0.1902  2.8500  1.0914
  128MOL0     H17268   4.799   9.403   2.933  3.4369 -0.3389 -0.7330
  128MOL0     H17269   5.025   9.454   3.026  1.6233 -2.5581  1.0470
  128MOL0     H17270   5.209   9.426   3.074 -1.1159  0.2811  0.8950
  128MOL0     H17271   5.314   9.415   3.202  0.1774  0.8298 -0.3392
  128MOL0     H17272   5.238   9.167   3.237  0.5724 -5.6977 -2.0595
  128MOL0     H17273   5.349   9.206   3.121  0.6100  1.1209  1.6744
  128MOL0     H17274   5.117   9.218   2.966 -0.5938  0.3084  0.1339
  128MOL0     H17275   5.042   9.134   3.091  0.9612  0.3480 -0.8465
  128MOL0     H17276   5.109   8.937   3.027  1.2696 -1.4450 -1.4329
  128MOL0     H17277   5.272   8.977   3.068 -0.0639  1.0690  1.0035
  128MOL0     H17278   5.247   8.964   2.633 -0.4659  2.0766 -0.5885
  128MOL0     H17279   4.920   9.308   3.401  0.6814  1.7168  0.7241
  128MOL0     H17280   4.683   9.280   3.346  2.2141  0.5211  2.4675
  129MOL0     O17281   2.605   3.539   8.513  1.0916  0.0809  0.5648
  129MOL0     C17282   2.657   3.548   8.405 -0.3798  0.8742  0.6758
  129MOL0     O17283   2.662   3.661   8.324 -0.5006 -0.7856  0.6142
  129MOL0     C17284   2.556   3.741   8.328 -0.4578  0.3037  0.1299
  129MOL0     C17285   2.432   3.719   8.374  0.4120  1.0676 -0.3056
  129MOL0     C17286   2.332   3.819   8.364  0.6465  0.3842  0.8578
  129MOL0     C17287   2.368   3.943   8.321 -0.8736 -0.2202  0.1021
  129MOL0     O17288   2.271   4.039   8.323  0.9630  0.0762  0.4235
  129MOL0     C17289   2.312   4.178   8.294 -0.4798 -0.4976 -0.4776
  129MOL0     C17290   2.197   4.280   8.286  0.4441 -0.7535  0.7747
  129MOL0     C17291   2.105   4.238   8.165 -0.9970  1.0696 -0.4721
  129MOL0     C17292   2.014   4.352   8.151  0.4019 -0.0323  0.4615
  129MOL0     C17293   1.930   4.350   8.021 -0.3927 -0.5900  0.2936
  129MOL0     C17294   1.797   4.277   8.034  0.3424  1.0502  0.3631
  129MOL0     C17295   1.725   4.230   7.901 -0.4398  0.0661 -0.6575
  129MOL0     C17296   1.799   4.126   7.823 -0.0750  0.3818  0.1251
  129MOL0     N17297   1.835   4.015   7.915 -0.5190  0.2168  0.9751
  129MOL0     C17298   1.778   3.893   7.920 -0.0887  0.3202  0.0094
  129MOL0     C17299   1.845   3.810   8.001  0.5863 -0.2367 -0.0988
  129MOL0     C17300   1.818   3.666   8.030 -0.3788 -0.1021 -0.4828
  129MOL0     C17301   1.704   3.660   8.136  0.2237  0.2554 -0.6927
  129MOL0     C17302   1.753   3.680   8.280  0.6230  0.1818 -0.1756
  129MOL0     C17303   1.631   3.707   8.374 -0.6650  0.0198  0.0155
  129MOL0     O17304   1.670   3.689   8.514 -0.7014 -0.0305  0.8227
  129MOL0     C17305   1.579   3.725   8.603 -0.2600 -0.0498  0.0337
  129MOL0     C17306   1.503   3.634   8.666  1.0042  0.7757 -0.4738
  129MOL0     C17307   1.388   3.670   8.743 -0.2145 -0.6468 -0.4866
  129MOL0     C17308   1.296   3.564   8.795  0.4786 -0.9490  0.1275
  129MOL0     C17309   1.363   3.808   8.767 -0.1429 -0.5527 -0.8091
  129MOL0     C17310   1.246   3.870   8.838  0.3448 -0.1944  0.7245
  129MOL0     O17311   1.269   3.976   8.916  0.5663  0.4592 -0.3808
  129MOL0     C17312   1.164   4.049   8.968  0.2290  0.4704  0.2205
  129MOL0     C17313   1.170   4.185   8.933  0.4657 -0.0887  0.3922
  129MOL0     C17314   1.063   4.266   8.981 -1.1242 -0.7020 -0.1239
  129MOL0     C17315   0.954   4.211   9.052  0.8359  0.5198 -0.5853
  129MOL0     O17316   0.857   4.290   9.098 -0.6069  0.4899 -0.3444
  129MOL0     C17317   0.909   4.395   9.179  0.1584  0.3636 -0.2966
  129MOL0     C17318   0.793   4.433   9.280  0.6179  0.0992 -0.0145
  129MOL0     C17319   0.795   4.581   9.329 -0.7385 -0.3783  0.2044
  129MOL0     C17320   0.668   4.624   9.411  0.2867 -0.2409  0.2332
  129MOL0     C17321   0.660   4.774   9.439  0.0853 -0.3099 -0.3296
  129MOL0     C17322   0.777   4.811   9.536 -0.3407 -0.4162 -0.3877
  129MOL0     C17323   0.758   4.945   9.608  0.7310  0.2049  0.2602
  129MOL0     C17324   0.724   5.057   9.507  0.6141  0.9562  0.5015
  129MOL0    Cl17325   0.836   5.071   9.375 -0.1864 -0.1138 -0.1854
  129MOL0     C17326   0.941   4.076   9.078 -0.0019  2.0466  1.4326
  129MOL0     C17327   1.046   3.996   9.038 -0.7225  0.0962  0.1074
  129MOL0     O17328   1.140   3.813   8.829  0.6756  0.7370 -0.4051
  129MOL0     C17329   1.448   3.895   8.706  0.0027 -0.7864 -0.1034
  129MOL0     C17330   1.551   3.858   8.620  0.4874  0.6416 -0.4207
  129MOL0     N17331   1.959   3.881   8.037 -0.3497 -0.0949  0.2440
  129MOL0     N17332   1.952   4.008   7.986 -0.0804  0.0730  0.3304
  129MOL0     C17333   2.505   3.970   8.282  0.3500 -0.5706 -0.6202
  129MOL0     C17334   2.588   3.862   8.271  0.4960 -0.3449 -0.1757
  129MOL0     C17335   2.755   3.433   8.374  0.6128  0.3617  0.9945
  129MOL0     C17336   2.774   3.334   8.466 -0.1235 -0.7445 -1.0084
  129MOL0     C17337   2.860   3.224   8.434  0.3332 -0.6886 -0.4602
  129MOL0     C17338   2.945   3.227   8.318 -0.0579 -0.3038 -0.4835
  129MOL0     O17339   3.041   3.131   8.299  0.4709 -0.1295  0.2374
  129MOL0     C17340   3.146   3.136   8.202  0.2324 -0.1432 -0.2895
  129MOL0     C17341   3.129   3.022   8.107 -0.3835 -0.6789 -0.5941
  129MOL0     C17342   3.254   3.017   8.023 -0.1400  0.6990 -0.2860
  129MOL0     C17343   3.330   2.883   8.049  1.3551 -0.0180  0.6877
  129MOL0     C17344   3.393   2.889   8.175 -0.3225 -0.9646 -0.7312
  129MOL0     C17345   3.441   2.911   8.289  0.5185 -0.6040  0.4113
  129MOL0     C17346   2.920   3.339   8.232  0.1855  1.2134  0.6273
  129MOL0     C17347   2.832   3.435   8.255  0.7452 -0.2552  0.4164
  129MOL0     H17348   2.405   3.615   8.391 -1.1815  1.4728 -0.1834
  129MOL0     H17349   2.230   3.786   8.382  0.9098 -1.7534 -1.1791
  129MOL0     H17350   2.377   4.214   8.374 -3.1993 -1.4622  2.3912
  129MOL0     H17351   2.366   4.187   8.199 -0.0822  2.1960 -0.0709
  129MOL0     H17352   2.141   4.282   8.380 -0.9484  2.3247  0.0093
  129MOL0     H17353   2.243   4.378   8.270  1.5978 -1.5061 -0.7723
  129MOL0     H17354   2.165   4.230   8.074  1.5109  0.2589  1.1492
  129MOL0     H17355   2.049   4.147   8.186 -1.5812  2.1752  3.6765
  129MOL0     H17356   1.943   4.350   8.235 -1.3082 -0.4243 -0.9392
  129MOL0     H17357   2.060   4.452   8.156  0.0332  0.1304  0.6225
  129MOL0     H17358   1.925   4.455   7.993 -0.3837 -0.2652  1.4541
  129MOL0     H17359   1.978   4.291   7.942 -0.2736 -0.1163  0.0060
  129MOL0     H17360   1.803   4.192   8.103  5.3229  0.6732 -0.1598
  129MOL0     H17361   1.736   4.350   8.088 -1.1786 -1.4158  2.1792
  129MOL0     H17362   1.630   4.190   7.936 -0.4886  0.4146 -0.3814
  129MOL0     H17363   1.701   4.317   7.840  1.9754  0.0496 -1.7605
  129MOL0     H17364   1.893   4.171   7.789 -0.2126  0.5816  0.0001
  129MOL0     H17365   1.743   4.086   7.738 -0.6828  1.0503  0.1950
  129MOL0     H17366   1.688   3.853   7.874 -1.6633 -2.0659  4.5246
  129MOL0     H17367   1.798   3.613   7.937 -0.6123 -1.8736  0.5274
  129MOL0     H17368   1.909   3.620   8.072 -0.2950  1.4683  1.2044
  129MOL0     H17369   1.646   3.568   8.135 -1.0344  0.9852  0.6938
  129MOL0     H17370   1.631   3.735   8.103 -1.0298 -1.1720 -1.2429
  129MOL0     H17371   1.818   3.766   8.299  1.1409 -0.2846  0.2188
  129MOL0     H17372   1.810   3.592   8.312  0.1061 -0.6118 -1.3558
  129MOL0     H17373   1.546   3.643   8.348 -0.4203 -1.6223  2.7973
  129MOL0     H17374   1.604   3.812   8.367  0.9016  0.3247 -4.1910
  129MOL0     H17375   1.527   3.530   8.649  0.3967  0.2416  1.5555
  129MOL0     H17376   1.340   3.465   8.783  1.5891 -0.4162 -0.3723
  129MOL0     H17377   1.282   3.581   8.902  1.2826  3.3286 -0.2464
  129MOL0     H17378   1.198   3.556   8.746  1.2141  0.7995 -1.8000
  129MOL0     H17379   1.244   4.232   8.869 -0.2905  0.8551  0.1898
  129MOL0     H17380   1.067   4.373   8.967  2.8179  0.3914  5.8525
  129MOL0     H17381   0.999   4.365   9.233 -0.6520 -2.2857 -0.2550
  129MOL0     H17382   0.930   4.476   9.109 -2.6441  1.2386 -0.2446
  129MOL0     H17383   0.700   4.426   9.223 -0.7228  0.8263  1.9470
  129MOL0     H17384   0.781   4.360   9.360  0.9882 -0.6324 -0.6230
  129MOL0     H17385   0.798   4.655   9.248 -0.2922  0.2865  0.8178
  129MOL0     H17386   0.887   4.603   9.385 -0.6125  0.0769 -0.1731
  129MOL0     H17387   0.575   4.614   9.353  1.0353  1.8515 -1.4500
  129MOL0     H17388   0.668   4.570   9.506  3.9623  2.9190  2.2876
  129MOL0     H17389   0.569   4.786   9.498 -0.1170 -2.9746  0.0023
  129MOL0     H17390   0.649   4.844   9.355  1.8280  0.8824  0.3590
  129MOL0     H17391   0.796   4.735   9.613  0.5814  0.6639  0.4844
  129MOL0     H17392   0.870   4.819   9.479  0.6857  3.9971  1.4446
  129MOL0     H17393   0.850   4.978   9.657  0.4453 -0.6228  1.3986
  129MOL0     H17394   0.671   4.937   9.675  1.4210 -1.5577  1.0148
  129MOL0     H17395   0.720   5.155   9.554  0.2981  2.0413 -1.6762
  129MOL0     H17396   0.624   5.030   9.471  1.0173 -0.9047  0.6319
  129MOL0     H17397   0.847   4.033   9.112  0.2417  0.4805  0.2269
  129MOL0     H17398   1.045   3.887   9.043 -0.5958 -0.0073 -1.5004
  129MOL0     H17399   1.434   4.001   8.725  3.0169 -0.1591 -0.8646
  129MOL0     H17400   1.612   3.927   8.563 -1.7285  2.6734 -0.5178
  129MOL0     H17401   2.544   4.060   8.236 -1.9644  1.1062  0.4672
  129MOL0     H17402   2.684   3.869   8.221  0.4679 -0.4804 -0.2493
  129MOL0     H17403   2.741   3.326   8.570  3.1531  1.0640  0.3105
  129MOL0     H17404   2.864   3.148   8.511  0.4562  1.4529  1.7834
  129MOL0     H17405   3.155   3.237   8.160 -1.0023  0.2722  0.3788
  129MOL0     H17406   3.242   3.112   8.249 -0.0430 -0.9501 -0.1362
  129MOL0     H17407   3.042   3.041   8.044 -0.2992  3.6128  0.2671
  129MOL0     H17408   3.119   2.928   8.163  0.4529 -0.7717 -0.5998
  129MOL0     H17409   3.327   3.098   8.037 -0.5770  0.9572  0.5614
  129MOL0     H17410   3.225   3.014   7.917  0.0819 -2.2713 -0.3320
  129MOL0     H17411   3.410   2.858   7.979  0.7363 -0.9649  0.3142
  129MOL0     H17412   3.262   2.798   8.044 -0.8173  1.6151  0.8342
  129MOL0     H17413   3.462   2.931   8.392  4.4334 -1.3003 -0.0841
  129MOL0     H17414   2.977   3.358   8.141 -0.3327 -1.2574 -0.3023
  129MOL0     H17415   2.822   3.526   8.197  0.0218 -0.5487  0.0635
  130MOL0     O17416   5.893   0.766   6.019 -0.7172 -0.1743 -0.0713
  130MOL0     C17417   5.865   0.833   5.920 -1.0752  0.4182  0.5673
  130MOL0     O17418   5.751   0.833   5.836 -0.0349  0.1654 -0.4293
  130MOL0     C17419   5.631   0.761   5.856  0.1382 -0.0348  0.4991
  130MOL0     C17420   5.607   0.647   5.944  0.2400  0.1657 -0.5444
  130MOL0     C17421   5.479   0.580   5.948 -0.4293  0.2978 -0.5187
  130MOL0     C17422   5.373   0.614   5.860 -0.1528 -0.5116 -0.5735
  130MOL0     O17423   5.259   0.540   5.855  0.1523 -0.8936 -0.2051
  130MOL0     C17424   5.230   0.488   5.723 -0.2647 -0.5207  0.7403
  130MOL0     C17425   5.100   0.415   5.733  0.7875  0.0243 -0.0301
  130MOL0     C17426   5.100   0.291   5.633 -0.0624 -1.1362 -0.1366
  130MOL0     C17427   5.135   0.149   5.672 -0.1485 -0.7616 -0.5235
  130MOL0     C17428   5.121   0.054   5.551  0.1319 -0.0889 -0.4638
  130MOL0     C17429   5.156  -0.090   5.584 -0.5646  0.5860  0.3115
  130MOL0     C17430   5.115  -0.141   5.723  0.2321  0.2231  0.4979
  130MOL0     C17431   5.160  -0.274   5.764 -0.2685  0.3697 -0.2856
  130MOL0     N17432   5.073  -0.331   5.872 -0.0573  0.0380 -0.7449
  130MOL0     C17433   5.086  -0.302   6.006 -0.1821 -0.1121 -0.7735
  130MOL0     C17434   4.975  -0.371   6.055 -1.0103 -0.4266  0.4209
  130MOL0     C17435   4.955  -0.362   6.207 -0.2232  0.6642 -0.0354
  130MOL0     C17436   4.927  -0.507   6.259  0.5806  0.7414 -0.5096
  130MOL0     C17437   5.065  -0.585   6.260  0.2472 -0.0509  0.0542
  130MOL0     C17438   5.045  -0.724   6.305 -0.9144  1.0802  0.7233
  130MOL0     O17439   5.163  -0.808   6.287 -0.4005  0.1830  0.0610
  130MOL0     C17440   5.130  -0.938   6.311  0.2203  0.4802  0.4897
  130MOL0     C17441   5.008  -0.990   6.355  0.2618 -0.7071  0.0939
  130MOL0     C17442   4.980  -1.130   6.365  0.6035 -0.4006 -0.5734
  130MOL0     C17443   4.845  -1.171   6.427  0.4978  0.4029  0.2604
  130MOL0     C17444   5.086  -1.224   6.353 -0.0340 -0.4542  0.3216
  130MOL0     C17445   5.069  -1.370   6.347  1.2151 -0.6746 -0.0673
  130MOL0     O17446   5.186  -1.434   6.357  0.5678  0.4827 -0.7221
  130MOL0     C17447   5.186  -1.558   6.311  0.0218  0.6888 -0.6197
  130MOL0     C17448   5.240  -1.659   6.403 -0.4833 -0.6725  0.4895
  130MOL0     C17449   5.267  -1.790   6.356  0.6763 -1.1502 -0.1795
  130MOL0     C17450   5.225  -1.818   6.225 -0.0999 -0.4026  0.7240
  130MOL0     O17451   5.278  -1.933   6.173 -0.2034 -0.5470 -0.9211
  130MOL0     C17452   5.404  -1.904   6.113 -0.1408 -0.3122  0.7930
  130MOL0     C17453   5.536  -1.951   6.186 -0.0392  0.2788 -0.6107
  130MOL0     C17454   5.549  -2.106   6.193 -0.5449  0.5561 -0.4436
  130MOL0     C17455   5.643  -2.168   6.296  0.5502  0.1921 -0.3433
  130MOL0     C17456   5.640  -2.327   6.304  0.1328 -0.9511 -0.9892
  130MOL0     C17457   5.718  -2.387   6.425 -0.1665 -0.3568  0.0674
  130MOL0     C17458   5.678  -2.534   6.439  0.1804  0.7632  0.0833
  130MOL0     C17459   5.659  -2.561   6.589  0.3879  0.5751 -0.1100
  130MOL0    Cl17460   5.529  -2.455   6.644 -0.1865 -0.0663 -0.4813
  130MOL0     C17461   5.160  -1.720   6.139 -0.1547  0.3040 -0.0015
  130MOL0     C17462   5.148  -1.588   6.173  0.2402 -0.8836 -0.3666
  130MOL0     O17463   4.959  -1.420   6.321 -0.7717 -0.6982 -0.1676
  130MOL0     C17464   5.211  -1.163   6.311 -0.4685  0.4951  0.4545
  130MOL0     C17465   5.224  -1.033   6.285 -0.1548 -0.1597  0.6716
  130MOL0     N17466   4.910  -0.455   5.966 -0.0189  0.2118 -0.3999
  130MOL0     N17467   4.967  -0.422   5.854 -0.2860  0.8311 -1.0980
  130MOL0     C17468   5.398   0.721   5.770 -0.4666  0.4168  0.5166
  130MOL0     C17469   5.520   0.794   5.773  0.3704 -0.1619 -0.6685
  130MOL0     C17470   5.978   0.919   5.862 -0.0782 -0.0010 -0.2401
  130MOL0     C17471   6.109   0.905   5.917 -0.6280  0.5806  0.2936
  130MOL0     C17472   6.218   0.968   5.861  0.6498 -1.6190  0.9611
  130MOL0     C17473   6.203   1.053   5.754 -0.5816  0.1970 -0.4826
  130MOL0     O17474   6.311   1.126   5.695  0.8140  0.2839  0.8887
  130MOL0     C17475   6.447   1.076   5.722  1.5443  0.1684  0.4902
  130MOL0     C17476   6.489   1.137   5.862  0.2457 -0.0558  0.2820
  130MOL0     C17477   6.635   1.091   5.894 -0.6036  0.3237 -0.7926
  130MOL0     C17478   6.672   1.113   6.038 -0.3491  0.2403  0.5165
  130MOL0     C17479   6.581   1.035   6.126  0.8666  0.1284  0.2134
  130MOL0     C17480   6.493   0.987   6.182 -0.4221  0.2558 -0.0129
  130MOL0     C17481   6.074   1.061   5.690 -0.6575  0.2325 -0.1933
  130MOL0     C17482   5.968   0.990   5.743  0.4671  0.8484  0.8639
  130MOL0     H17483   5.691   0.619   6.007 -0.1364  0.2084 -0.0242
  130MOL0     H17484   5.471   0.493   6.013  0.6065 -0.4551 -1.3577
  130MOL0     H17485   5.223   0.573   5.655 -0.0632 -1.6579 -0.7383
  130MOL0     H17486   5.308   0.423   5.681  0.6749  0.5270  0.8218
  130MOL0     H17487   5.080   0.385   5.836 -0.9442  2.2881  0.3667
  130MOL0     H17488   5.019   0.482   5.703 -0.5375 -2.2320 -1.8034
  130MOL0     H17489   5.000   0.283   5.589  1.4919 -1.3724 -4.0008
  130MOL0     H17490   5.166   0.328   5.555  2.0830 -1.3798  1.4747
  130MOL0     H17491   5.242   0.150   5.699  0.8459  0.8016 -3.9340
  130MOL0     H17492   5.076   0.115   5.757 -0.5463  0.3853 -0.3208
  130MOL0     H17493   5.014   0.063   5.531 -0.2253  0.4562  1.4937
  130MOL0     H17494   5.184   0.088   5.468  4.2357 -1.8756  1.6365
  130MOL0     H17495   5.106  -0.147   5.505 -1.0531  1.7873 -0.2832
  130MOL0     H17496   5.263  -0.105   5.567 -0.6491 -0.8741  0.9491
  130MOL0     H17497   5.145  -0.071   5.802 -0.4142  1.7305 -0.5382
  130MOL0     H17498   5.007  -0.146   5.737  0.4336 -0.7060  1.9773
  130MOL0     H17499   5.261  -0.261   5.802  0.1093  2.1217 -1.7093
  130MOL0     H17500   5.162  -0.340   5.677 -3.2572  0.0237 -0.2205
  130MOL0     H17501   5.134  -0.217   6.056  0.4085 -0.4679 -0.7179
  130MOL0     H17502   5.034  -0.309   6.260  0.5102 -1.0941  0.7223
  130MOL0     H17503   4.862  -0.307   6.221 -2.0598 -2.0535 -0.7422
  130MOL0     H17504   4.853  -0.567   6.205 -0.4430  0.3486  1.2597
  130MOL0     H17505   4.895  -0.496   6.363 -0.6706  0.1761 -0.8227
  130MOL0     H17506   5.136  -0.535   6.327  1.9855 -3.2808  0.8427
  130MOL0     H17507   5.110  -0.581   6.160  1.8562 -1.1405  0.6835
  130MOL0     H17508   4.957  -0.768   6.259 -1.1441 -0.4331  2.4919
  130MOL0     H17509   5.021  -0.720   6.412 -2.7635  0.0280  0.3817
  130MOL0     H17510   4.926  -0.929   6.390  0.8228 -0.9373  1.9180
  130MOL0     H17511   4.806  -1.263   6.383  1.9186  0.4086 -1.0984
  130MOL0     H17512   4.864  -1.179   6.534 -1.0785  0.5418  0.5746
  130MOL0     H17513   4.766  -1.097   6.412 -1.8473 -1.9989 -0.0495
  130MOL0     H17514   5.272  -1.633   6.503 -2.9361  1.2518  0.8796
  130MOL0     H17515   5.321  -1.861   6.419  0.0551 -1.2386  0.2591
  130MOL0     H17516   5.400  -1.943   6.011 -3.6459  1.5837  0.0420
  130MOL0     H17517   5.427  -1.798   6.099 -0.0030 -0.1002  2.3764
  130MOL0     H17518   5.629  -1.920   6.138  0.7004 -2.6956 -1.2475
  130MOL0     H17519   5.536  -1.894   6.280 -1.9251  0.9675 -0.9701
  130MOL0     H17520   5.578  -2.130   6.091 -0.3491  0.0914 -0.2833
  130MOL0     H17521   5.449  -2.144   6.215 -0.8308  1.0895 -0.8040
  130MOL0     H17522   5.744  -2.154   6.257  1.0319 -1.3310  0.2871
  130MOL0     H17523   5.617  -2.120   6.392  1.0811  1.0806 -0.6299
  130MOL0     H17524   5.685  -2.363   6.210  0.8423  1.6152 -1.7265
  130MOL0     H17525   5.533  -2.345   6.316  0.1021  0.6461  1.9191
  130MOL0     H17526   5.824  -2.378   6.403 -0.4094 -2.5220 -2.5970
  130MOL0     H17527   5.687  -2.330   6.513 -1.3020  0.1766 -0.6573
  130MOL0     H17528   5.749  -2.610   6.406 -2.8799 -2.3093 -0.1108
  130MOL0     H17529   5.580  -2.553   6.393  0.4853  3.4175 -1.8923
  130MOL0     H17530   5.747  -2.550   6.652 -0.4640 -0.9062  1.4043
  130MOL0     H17531   5.616  -2.660   6.601  0.7924  0.1157 -2.1158
  130MOL0     H17532   5.143  -1.746   6.035 -3.4990  0.4562  0.4199
  130MOL0     H17533   5.102  -1.514   6.108 -2.6807 -2.1941  0.0454
  130MOL0     H17534   5.305  -1.218   6.300 -0.5632  0.5876 -1.0389
  130MOL0     H17535   5.316  -0.985   6.253  0.3118 -0.7797  1.0321
  130MOL0     H17536   5.326   0.738   5.691 -4.2276 -1.4646  3.2252
  130MOL0     H17537   5.542   0.875   5.703  0.6874 -1.8930 -2.6827
  130MOL0     H17538   6.120   0.847   6.008 -0.2409 -2.3205 -1.4558
  130MOL0     H17539   6.312   0.934   5.902  0.3816 -1.8493  1.3967
  130MOL0     H17540   6.445   0.966   5.726  1.7233  0.0413 -1.8133
  130MOL0     H17541   6.528   1.088   5.650  1.6745  2.5498  0.9600
  130MOL0     H17542   6.424   1.092   5.938  0.4472 -1.0326 -0.1144
  130MOL0     H17543   6.473   1.246   5.866 -0.6414 -0.0548 -1.9763
  130MOL0     H17544   6.705   1.140   5.826  2.3188 -0.6233  1.3254
  130MOL0     H17545   6.643   0.984   5.873  0.7721  0.3890 -0.6639
  130MOL0     H17546   6.640   1.215   6.062 -2.1873 -0.3846  0.8296
  130MOL0     H17547   6.778   1.089   6.049 -0.7281 -1.2840  1.0698
  130MOL0     H17548   6.415   0.944   6.242  0.2133  0.8699  1.2841
  130MOL0     H17549   6.057   1.115   5.597 -1.7984  0.0964 -0.0792
  130MOL0     H17550   5.876   0.999   5.685 -0.3831  3.6214  2.4334
  131MOL0     O17551   9.730   5.153  10.958 -0.8355 -0.7464  0.2443
  131MOL0     C17552   9.710   5.035  10.988 -0.6928 -0.5454  0.0587
  131MOL0     O17553   9.665   4.938  10.903  0.5570 -0.1861 -0.4424
  131MOL0     C17554   9.600   4.959  10.785  1.0358  0.7077  0.2390
  131MOL0     C17555   9.455   4.955  10.777 -0.3035 -0.5468 -0.5048
  131MOL0     C17556   9.400   4.998  10.654 -0.0898  0.1559  0.2871
  131MOL0     C17557   9.471   5.047  10.549 -0.1025 -0.4763 -0.3969
  131MOL0     O17558   9.388   5.098  10.446 -0.2368 -0.0238  0.2151
  131MOL0     C17559   9.444   5.142  10.323 -0.0195 -0.1320  0.6982
  131MOL0     C17560   9.340   5.141  10.219  1.0912 -0.8914  0.7210
  131MOL0     C17561   9.229   5.244  10.246 -0.0609  0.5541  0.6320
  131MOL0     C17562   9.272   5.390  10.274  0.3745 -1.4420  0.7100
  131MOL0     C17563   9.140   5.477  10.265  0.2972 -0.1839  0.6635
  131MOL0     C17564   9.179   5.623  10.280  0.1363  0.4159 -0.2478
  131MOL0     C17565   9.260   5.649  10.413  0.6610  0.6471 -0.4330
  131MOL0     C17566   9.273   5.797  10.446 -0.2077 -1.2427 -1.3630
  131MOL0     N17567   9.148   5.865  10.481 -0.2876  0.2432  0.9006
  131MOL0     C17568   9.138   6.003  10.490 -0.1362 -0.2040 -0.3205
  131MOL0     C17569   9.006   6.025  10.523  0.4788  0.1844 -1.3299
  131MOL0     C17570   8.930   6.147  10.540 -0.4852 -0.4785 -1.0265
  131MOL0     C17571   8.876   6.186  10.405  0.4897  0.0352  1.4688
  131MOL0     C17572   8.755   6.274  10.430  0.4322  0.0518 -0.0586
  131MOL0     C17573   8.697   6.354  10.315 -0.4479  0.3247 -0.5462
  131MOL0     O17574   8.637   6.247  10.238  0.1796 -0.0273  0.0963
  131MOL0     C17575   8.507   6.281  10.195 -0.0493  0.2416 -0.8978
  131MOL0     C17576   8.466   6.404  10.152  0.0507  0.0314 -0.1234
  131MOL0     C17577   8.338   6.423  10.097 -0.0472  0.6642 -0.0918
  131MOL0     C17578   8.306   6.567  10.068 -0.0248 -0.0223 -0.9756
  131MOL0     C17579   8.253   6.317  10.071 -0.4795 -0.1225 -0.3886
  131MOL0     C17580   8.120   6.332   9.998 -0.0543  0.7640 -0.2104
  131MOL0     O17581   8.025   6.237  10.030  0.1566 -0.0199  0.6308
  131MOL0     C17582   7.898   6.246   9.981  0.1068 -0.3334  0.4865
  131MOL0     C17583   7.829   6.369   9.951 -1.1990  0.1279 -0.0898
  131MOL0     C17584   7.709   6.370   9.883  0.3859  0.2931 -0.4228
  131MOL0     C17585   7.642   6.249   9.854 -0.0698 -0.0937  0.3905
  131MOL0     O17586   7.522   6.236   9.785 -0.0432 -0.8237 -0.1151
  131MOL0     C17587   7.431   6.351   9.793 -0.3629 -0.5216 -1.0106
  131MOL0     C17588   7.291   6.305   9.756 -0.4303  1.2040  0.1776
  131MOL0     C17589   7.203   6.425   9.753 -0.4376 -0.4866  0.4307
  131MOL0     C17590   7.067   6.405   9.697 -0.2640  0.4577  0.1354
  131MOL0     C17591   6.993   6.291   9.773  0.2831 -0.4871  0.4318
  131MOL0     C17592   6.840   6.308   9.745  0.0446  0.0675  0.1283
  131MOL0     C17593   6.760   6.193   9.795  0.5777  0.6359 -0.7398
  131MOL0     C17594   6.624   6.179   9.732 -0.0503  0.8494  0.2337
  131MOL0    Cl17595   6.630   6.140   9.557  0.2405  0.0252  0.0035
  131MOL0     C17596   7.703   6.127   9.882  0.9174 -0.1286  1.1427
  131MOL0     C17597   7.836   6.131   9.931  0.8677 -0.4241  0.1509
  131MOL0     O17598   8.113   6.409   9.903 -0.4378  0.4155  0.0916
  131MOL0     C17599   8.296   6.189  10.113 -0.2919 -0.4531  0.4656
  131MOL0     C17600   8.422   6.172  10.178 -0.4125 -0.6818  1.0330
  131MOL0     N17601   8.947   5.899  10.527 -0.1103  0.1552  0.7912
  131MOL0     N17602   9.032   5.799  10.511 -0.2901  0.8300 -0.1916
  131MOL0     C17603   9.606   5.038  10.556 -0.4001 -0.5432 -0.1285
  131MOL0     C17604   9.674   4.995  10.669  0.5032  0.7146  0.2004
  131MOL0     C17605   9.728   4.981  11.124 -0.2134 -0.8158 -0.9201
  131MOL0     C17606   9.652   4.863  11.164  0.6666 -0.2220  0.4278
  131MOL0     C17607   9.644   4.827  11.293 -0.1626  1.1494  0.0958
  131MOL0     C17608   9.729   4.885  11.391 -1.0856  0.2242  0.2198
  131MOL0     O17609   9.718   4.843  11.523  0.1406 -0.6042 -0.9949
  131MOL0     C17610   9.716   4.934  11.639  0.1752 -0.1223 -0.0009
  131MOL0     C17611   9.591   4.930  11.713  0.1180  0.1039 -0.2625
  131MOL0     C17612   9.467   4.992  11.646 -1.1059 -0.0092 -0.2238
  131MOL0     C17613   9.358   5.017  11.756 -1.0473 -0.5859  1.1792
  131MOL0     C17614   9.241   4.936  11.720 -0.3276  0.2018  0.0639
  131MOL0     C17615   9.139   4.879  11.683 -1.1439  0.6328  0.7682
  131MOL0     C17616   9.835   4.974  11.343  0.1401 -0.1916 -0.3703
  131MOL0     C17617   9.825   5.034  11.214  0.5296  0.2650 -0.8067
  131MOL0     H17618   9.388   4.929  10.859 -2.4203 -1.3597 -2.4056
  131MOL0     H17619   9.291   5.003  10.656 -0.1286  3.4006  4.5697
  131MOL0     H17620   9.484   5.244  10.333 -0.4816  0.4385 -2.3766
  131MOL0     H17621   9.518   5.068  10.293 -2.1146 -2.8394  1.8427
  131MOL0     H17622   9.399   5.170  10.131  4.1733  1.4404  3.3292
  131MOL0     H17623   9.301   5.040  10.199 -2.5842  0.4069  0.6876
  131MOL0     H17624   9.168   5.241  10.155 -0.1579 -2.5462  0.7076
  131MOL0     H17625   9.161   5.203  10.321 -1.7158  3.7312  1.0696
  131MOL0     H17626   9.324   5.386  10.370 -0.5339 -1.7773  1.1993
  131MOL0     H17627   9.343   5.420  10.197  0.4701  1.5795  1.8287
  131MOL0     H17628   9.083   5.467  10.172 -1.8020  0.9784  1.7335
  131MOL0     H17629   9.077   5.454  10.352  1.2241  1.3714  1.7887
  131MOL0     H17630   9.224   5.645  10.182  1.2841  2.9309  0.7664
  131MOL0     H17631   9.086   5.681  10.285 -1.1195 -1.3921 -1.3455
  131MOL0     H17632   9.213   5.591  10.493  2.8408 -0.8052 -0.1250
  131MOL0     H17633   9.359   5.603  10.398  0.2284 -0.3805 -0.2181
  131MOL0     H17634   9.320   5.844  10.359  0.9456 -2.2816 -1.3350
  131MOL0     H17635   9.336   5.813  10.533 -0.7168 -0.6403 -1.0999
  131MOL0     H17636   9.221   6.073  10.483  2.3755 -2.7955  1.4845
  131MOL0     H17637   8.855   6.124  10.616 -0.1533 -0.3201 -0.6503
  131MOL0     H17638   9.006   6.218  10.574  3.7719 -4.5818 -1.0030
  131MOL0     H17639   8.846   6.095  10.353 -0.7646 -0.1531  2.4892
  131MOL0     H17640   8.956   6.231  10.346  0.9127 -2.8872 -0.3828
  131MOL0     H17641   8.773   6.338  10.517  2.5483  0.8018 -0.9688
  131MOL0     H17642   8.686   6.199  10.471  0.0975 -0.6673 -1.8730
  131MOL0     H17643   8.776   6.405  10.259 -1.8405 -0.6603 -3.5937
  131MOL0     H17644   8.630   6.427  10.361 -1.0052 -1.3497  1.4777
  131MOL0     H17645   8.521   6.493  10.182 -1.5569  0.3442  2.0789
  131MOL0     H17646   8.203   6.582  10.102  0.1438  1.7946 -1.1405
  131MOL0     H17647   8.377   6.630  10.122 -0.1921 -1.0334  0.4755
  131MOL0     H17648   8.314   6.577   9.959 -0.8518 -1.2505 -1.1724
  131MOL0     H17649   7.877   6.464   9.973 -2.1147  0.0593  2.4848
  131MOL0     H17650   7.660   6.463   9.855  0.7459  0.5776 -0.1052
  131MOL0     H17651   7.425   6.392   9.894 -1.6932 -3.9220  0.4674
  131MOL0     H17652   7.464   6.431   9.726  0.8998  0.1260  0.3221
  131MOL0     H17653   7.282   6.242   9.667 -1.3062  0.6358  0.6478
  131MOL0     H17654   7.255   6.244   9.840 -1.7996  0.7906 -0.6698
  131MOL0     H17655   7.263   6.499   9.699  0.8277 -3.1463 -2.1079
  131MOL0     H17656   7.192   6.455   9.858  1.2955 -0.8615  0.7678
  131MOL0     H17657   7.024   6.506   9.695 -0.4021  0.3888 -1.2503
  131MOL0     H17658   7.083   6.374   9.594  1.1338  0.9683  0.1774
  131MOL0     H17659   7.011   6.301   9.880  3.1003  0.1438 -0.0151
  131MOL0     H17660   7.024   6.190   9.745 -0.7420 -0.9425  0.8829
  131MOL0     H17661   6.810   6.402   9.792  0.0602 -2.2582  5.4791
  131MOL0     H17662   6.833   6.310   9.636 -0.2133  2.1204  0.1572
  131MOL0     H17663   6.742   6.198   9.902  1.1414 -0.7473 -0.5598
  131MOL0     H17664   6.818   6.101   9.780  1.1661  0.7588  0.6182
  131MOL0     H17665   6.560   6.268   9.735 -2.1191 -0.4572 -2.3494
  131MOL0     H17666   6.574   6.091   9.771  2.4506 -0.5759  0.4440
  131MOL0     H17667   7.659   6.031   9.860 -1.0803  0.8973  0.3868
  131MOL0     H17668   7.885   6.036   9.946  4.0343  0.8359 -1.3282
  131MOL0     H17669   8.234   6.102  10.094 -0.2746 -0.7789  1.8500
  131MOL0     H17670   8.456   6.076  10.216 -0.0911 -1.1040 -0.2506
  131MOL0     H17671   9.654   5.075  10.466 -0.4433  1.1791  0.5096
  131MOL0     H17672   9.782   5.003  10.672  0.7792 -0.6905 -2.7431
  131MOL0     H17673   9.587   4.812  11.093  1.1224  0.8969 -0.8400
  131MOL0     H17674   9.567   4.756  11.323  0.4421  0.1421 -0.7176
  131MOL0     H17675   9.797   4.912  11.710 -0.0267 -0.0786  0.2409
  131MOL0     H17676   9.735   5.036  11.604  0.4288  0.4094  1.6426
  131MOL0     H17677   9.622   4.979  11.806  1.7121  3.6317 -2.4270
  131MOL0     H17678   9.561   4.832  11.752 -0.1372  0.1377 -0.3708
  131MOL0     H17679   9.433   4.934  11.559  1.4953  0.2428 -1.5070
  131MOL0     H17680   9.493   5.086  11.596 -2.3808  1.5206  1.8458
  131MOL0     H17681   9.334   5.122  11.770  1.5490  1.0761 -4.1137
  131MOL0     H17682   9.392   4.974  11.850  0.8706 -3.1849 -0.5320
  131MOL0     H17683   9.055   4.822  11.651 -0.2144 -1.5519  1.9411
  131MOL0     H17684   9.905   5.024  11.409 -2.3403  0.3045  2.1227
  131MOL0     H17685   9.893   5.107  11.170  0.8956  0.7292  0.4965
  132MOL0     O17686   5.354   2.268   5.671 -1.0178 -0.0780  0.4118
  132MOL0     C17687   5.457   2.205   5.659 -0.9032 -0.0227  0.5894
  132MOL0     O17688   5.490   2.118   5.556  0.3752 -0.5951  0.4067
  132MOL0     C17689   5.408   2.087   5.454  0.5706 -0.4449 -0.5160
  132MOL0     C17690   5.478   2.010   5.353 -0.6350 -1.2432 -0.5300
  132MOL0     C17691   5.402   1.962   5.248 -1.0188 -0.8836 -0.3323
  132MOL0     C17692   5.267   1.984   5.241 -0.1531  1.2051  0.6323
  132MOL0     O17693   5.204   1.942   5.123 -0.0872  0.4425  0.2827
  132MOL0     C17694   5.065   1.970   5.096  0.1347  0.0925  0.5806
  132MOL0     C17695   5.011   1.895   4.974  0.1271  1.3263  0.6918
  132MOL0     C17696   4.871   1.946   4.932  0.1035  0.1519 -1.2037
  132MOL0     C17697   4.843   1.893   4.785  0.3858  0.8281  0.5585
  132MOL0     C17698   4.752   1.968   4.696 -0.6791 -0.3824 -0.1949
  132MOL0     C17699   4.602   1.928   4.717 -0.3889 -0.5512  0.1009
  132MOL0     C17700   4.512   2.055   4.715  0.0315  0.1306 -0.3249
  132MOL0     C17701   4.367   2.024   4.755  0.1013  0.4431  0.2459
  132MOL0     N17702   4.288   2.151   4.765  0.6002 -0.4490 -0.5312
  132MOL0     C17703   4.250   2.233   4.870  0.0698  0.1088 -0.3542
  132MOL0     C17704   4.194   2.337   4.805 -0.2428  0.9389 -0.6773
  132MOL0     C17705   4.137   2.448   4.877  0.3846 -0.8955 -0.2012
  132MOL0     C17706   3.981   2.452   4.852 -0.7052 -0.6744 -0.5233
  132MOL0     C17707   3.954   2.532   4.724  0.6000 -0.9023 -0.5052
  132MOL0     C17708   3.804   2.539   4.691  0.4961 -0.7763  0.7489
  132MOL0     O17709   3.736   2.630   4.785 -0.3886 -0.2843  1.1803
  132MOL0     C17710   3.600   2.612   4.794  0.1085  0.5654  0.8270
  132MOL0     C17711   3.537   2.657   4.915  0.3733  0.9284  1.4651
  132MOL0     C17712   3.397   2.622   4.935  0.0760  0.9796 -0.4044
  132MOL0     C17713   3.340   2.675   5.067 -0.4119 -0.3450 -0.1226
  132MOL0     C17714   3.327   2.538   4.850 -0.4087 -0.9096  0.1140
  132MOL0     C17715   3.180   2.526   4.870  0.0807 -0.7280 -0.1798
  132MOL0     O17716   3.114   2.531   4.745  0.4862 -0.1084  0.2770
  132MOL0     C17717   2.976   2.512   4.723  1.2818  0.5529  0.5253
  132MOL0     C17718   2.882   2.512   4.822 -0.0367  0.3168 -0.0210
  132MOL0     C17719   2.748   2.501   4.797 -0.1148  0.0507 -0.1281
  132MOL0     C17720   2.704   2.476   4.672  0.2417  0.3583  0.2574
  132MOL0     O17721   2.576   2.437   4.623  0.0866  0.2866  0.1087
  132MOL0     C17722   2.497   2.354   4.705 -0.3346  0.5824 -0.4866
  132MOL0     C17723   2.372   2.317   4.624 -0.1525  0.0504 -0.1379
  132MOL0     C17724   2.307   2.192   4.702  0.2193  0.0637  0.0053
  132MOL0     C17725   2.200   2.111   4.633 -1.1355 -0.5027  0.8653
  132MOL0     C17726   2.142   1.996   4.712 -0.6480  0.7905  0.4675
  132MOL0     C17727   2.033   1.928   4.638 -0.1918 -0.6736  1.3217
  132MOL0     C17728   1.957   1.824   4.721  0.0954 -0.2458  0.3694
  132MOL0     C17729   1.909   1.704   4.645 -0.2496  0.5585 -0.4930
  132MOL0    Cl17730   1.802   1.728   4.509 -0.4866 -0.1222  0.1525
  132MOL0     C17731   2.794   2.483   4.561  0.3878 -0.4624 -0.9966
  132MOL0     C17732   2.932   2.507   4.591  0.0073 -0.6176 -0.1170
  132MOL0     O17733   3.124   2.505   4.974  0.0639  1.4598  0.4908
  132MOL0     C17734   3.392   2.500   4.736  0.3845  0.3263 -0.0916
  132MOL0     C17735   3.520   2.530   4.700 -0.0217  0.2127 -0.8901
  132MOL0     N17736   4.191   2.318   4.672 -0.6260  0.4831  0.3118
  132MOL0     N17737   4.253   2.209   4.647  0.1739  0.3069 -0.4105
  132MOL0     C17738   5.202   2.076   5.332  0.2566 -0.4808  0.2369
  132MOL0     C17739   5.270   2.110   5.448  0.0855 -0.0508  0.5438
  132MOL0     C17740   5.555   2.218   5.776  0.5157  0.2524 -0.1439
  132MOL0     C17741   5.637   2.108   5.816 -0.9758 -0.3220 -0.3312
  132MOL0     C17742   5.709   2.129   5.941 -0.4546  0.1880 -0.2744
  132MOL0     C17743   5.701   2.252   6.005 -0.9735  0.0884  0.1079
  132MOL0     O17744   5.784   2.254   6.114  0.5368 -0.8825 -0.0107
  132MOL0     C17745   5.826   2.384   6.175  0.7922 -0.0650  0.3684
  132MOL0     C17746   5.948   2.441   6.098 -0.1172  0.1276  0.3793
  132MOL0     C17747   6.071   2.346   6.089  0.7774 -0.7065 -0.4590
  132MOL0     C17748   6.201   2.415   6.069 -0.7075  0.2529  0.2502
  132MOL0     C17749   6.206   2.473   5.932  1.1934 -0.1419 -0.0986
  132MOL0     C17750   6.201   2.545   5.832  0.1832  0.5735  0.3965
  132MOL0     C17751   5.631   2.358   5.955  0.4389 -0.4124 -1.2719
  132MOL0     C17752   5.554   2.342   5.844  1.1730  1.2900 -0.0121
  132MOL0     H17753   5.583   1.984   5.361  0.3305  2.4707  1.5005
  132MOL0     H17754   5.447   1.902   5.169  0.6520  0.2729 -0.2950
  132MOL0     H17755   5.005   1.963   5.187  0.9765  0.2160  1.1475
  132MOL0     H17756   5.064   2.077   5.072 -3.0086 -0.1636 -0.9148
  132MOL0     H17757   5.082   1.918   4.894  0.1955  0.2092  0.4141
  132MOL0     H17758   5.015   1.787   4.990  0.3027  1.1136 -0.7398
  132MOL0     H17759   4.795   1.918   5.004  0.7855 -0.6935 -0.7914
  132MOL0     H17760   4.887   2.054   4.927  3.2146  0.0389  2.1961
  132MOL0     H17761   4.937   1.895   4.731  0.2899  0.8233  0.3908
  132MOL0     H17762   4.812   1.789   4.798 -0.3443  0.6343 -2.1722
  132MOL0     H17763   4.778   2.069   4.727  2.9324 -1.9590  2.5808
  132MOL0     H17764   4.778   1.956   4.590  2.5205  2.4099  0.1013
  132MOL0     H17765   4.568   1.861   4.637 -2.6581  1.8386 -1.0614
  132MOL0     H17766   4.594   1.875   4.813  3.1487  1.2597  1.5808
  132MOL0     H17767   4.556   2.136   4.775 -0.4917  1.0190 -1.1074
  132MOL0     H17768   4.499   2.096   4.615 -0.3644  1.8787  0.3961
  132MOL0     H17769   4.357   1.961   4.844 -1.3222  0.3417  0.0306
  132MOL0     H17770   4.322   1.958   4.681 -2.1893  0.2496  1.6989
  132MOL0     H17771   4.266   2.213   4.976  0.2481  1.0412 -0.1947
  132MOL0     H17772   4.144   2.435   4.985 -0.3451  1.1504  0.1396
  132MOL0     H17773   4.187   2.543   4.860 -1.2993  0.4441  1.8267
  132MOL0     H17774   3.935   2.509   4.934  1.9936  1.2601 -0.2158
  132MOL0     H17775   3.933   2.354   4.853 -3.4816  0.5729  0.7800
  132MOL0     H17776   4.005   2.493   4.635 -0.9353 -0.5298 -1.5986
  132MOL0     H17777   3.985   2.635   4.741 -1.0265 -0.2955 -0.9957
  132MOL0     H17778   3.759   2.439   4.697 -0.7005 -0.5190 -1.9829
  132MOL0     H17779   3.790   2.571   4.587 -0.6899 -1.1780  0.7719
  132MOL0     H17780   3.591   2.708   4.994  1.0437  2.1617  0.2519
  132MOL0     H17781   3.386   2.771   5.091 -1.8127  0.4432 -0.4701
  132MOL0     H17782   3.234   2.697   5.048  0.5287  1.4957 -4.1514
  132MOL0     H17783   3.351   2.605   5.151  1.2309  2.7162  2.4583
  132MOL0     H17784   2.909   2.512   4.927 -3.5513 -1.4976  1.0125
  132MOL0     H17785   2.672   2.505   4.874 -0.0273  0.8546 -0.0797
  132MOL0     H17786   2.553   2.264   4.735 -0.6131  0.7281  0.5052
  132MOL0     H17787   2.481   2.414   4.795  3.6919  1.5266 -0.2202
  132MOL0     H17788   2.307   2.404   4.633 -0.1745 -0.0240  0.4722
  132MOL0     H17789   2.401   2.292   4.522 -2.0799  2.7966 -1.4761
  132MOL0     H17790   2.253   2.225   4.792 -0.3498 -1.5356  0.2681
  132MOL0     H17791   2.386   2.123   4.731  1.9017  2.2534  0.9276
  132MOL0     H17792   2.125   2.186   4.605  0.8882  1.5517  0.6399
  132MOL0     H17793   2.242   2.074   4.539 -0.5582  0.2234  0.8326
  132MOL0     H17794   2.103   2.037   4.805 -1.1278 -0.6624  0.9246
  132MOL0     H17795   2.214   1.920   4.743  0.1504  1.7209  0.9622
  132MOL0     H17796   1.962   2.000   4.597 -0.2873 -1.4059  0.1470
  132MOL0     H17797   2.078   1.875   4.553 -1.6535 -0.9550  0.6902
  132MOL0     H17798   1.872   1.869   4.773 -2.5276 -1.6237 -2.3989
  132MOL0     H17799   2.028   1.794   4.798  0.1790  0.0223  0.3958
  132MOL0     H17800   1.870   1.638   4.724  0.2594  3.0504  1.9983
  132MOL0     H17801   1.998   1.654   4.604 -0.8933 -2.1995  1.2327
  132MOL0     H17802   2.760   2.483   4.458 -0.9603 -0.0176 -0.5818
  132MOL0     H17803   3.008   2.515   4.513 -0.1690 -1.7311 -0.4178
  132MOL0     H17804   3.346   2.443   4.656  0.6415  2.1193 -1.5892
  132MOL0     H17805   3.569   2.484   4.615 -0.3457  0.4258 -1.1888
  132MOL0     H17806   5.095   2.097   5.331 -0.3137 -2.9985 -0.6631
  132MOL0     H17807   5.215   2.165   5.524  0.1579  1.4960 -0.4854
  132MOL0     H17808   5.646   2.018   5.757 -1.5486  1.1837 -2.8434
  132MOL0     H17809   5.777   2.053   5.977 -2.0035 -0.4810  1.4084
  132MOL0     H17810   5.755   2.467   6.179  2.1635  1.3402 -1.9827
  132MOL0     H17811   5.846   2.371   6.282  0.1142  3.5822  1.0603
  132MOL0     H17812   5.992   2.523   6.156 -0.2474  1.7694 -1.7241
  132MOL0     H17813   5.909   2.476   6.002  0.1404  0.8821  0.5395
  132MOL0     H17814   6.049   2.273   6.011 -2.2423 -1.6351  1.1339
  132MOL0     H17815   6.076   2.290   6.184  1.7209 -2.2352 -1.3647
  132MOL0     H17816   6.282   2.342   6.074  0.2781  1.4259  2.9541
  132MOL0     H17817   6.217   2.493   6.144  1.1851 -1.2362  1.4853
  132MOL0     H17818   6.206   2.601   5.741  0.0904  3.6716  2.1488
  132MOL0     H17819   5.621   2.454   6.005  2.1418  1.2276 -3.8433
  132MOL0     H17820   5.492   2.425   5.810  0.3403  0.3064 -0.9611
  133MOL0     O17821   4.130   1.415   8.966  0.2463  0.1027 -0.4895
  133MOL0     C17822   4.120   1.464   8.857  0.5452 -0.3042  0.6049
  133MOL0     O17823   4.214   1.445   8.760  0.0420 -0.3029  0.5758
  133MOL0     C17824   4.325   1.372   8.781 -0.1772 -0.0138 -0.0059
  133MOL0     C17825   4.363   1.258   8.700 -0.2777 -0.5869 -0.2750
  133MOL0     C17826   4.488   1.202   8.708 -0.6521 -0.7344  0.1415
  133MOL0     C17827   4.583   1.252   8.801 -0.7552 -0.7825 -0.9991
  133MOL0     O17828   4.710   1.195   8.808  0.8557 -0.0657  0.5297
  133MOL0     C17829   4.820   1.269   8.750  0.1282 -0.1458 -0.2042
  133MOL0     C17830   4.935   1.173   8.723  0.0214 -0.4016 -0.1745
  133MOL0     C17831   5.064   1.252   8.693 -0.4679 -0.9104  0.3286
  133MOL0     C17832   5.068   1.301   8.542  0.3520  0.1618 -0.2137
  133MOL0     C17833   5.219   1.351   8.518 -0.1574 -0.2679 -0.4571
  133MOL0     C17834   5.266   1.396   8.379 -0.4733 -0.2657  0.1101
  133MOL0     C17835   5.419   1.451   8.389  0.7212  0.9906 -0.2497
  133MOL0     C17836   5.454   1.518   8.263 -0.1896  0.1488 -0.2688
  133MOL0     N17837   5.590   1.568   8.253 -0.0517 -0.4301 -0.2163
  133MOL0     C17838   5.708   1.497   8.268 -0.2631  0.2762 -0.4677
  133MOL0     C17839   5.813   1.576   8.254 -0.1546  0.1809 -0.3153
  133MOL0     C17840   5.963   1.545   8.267 -0.3929 -0.9427 -0.4846
  133MOL0     C17841   5.996   1.535   8.420  0.6336  0.1835 -0.2243
  133MOL0     C17842   6.143   1.535   8.431  0.2737  1.0022  0.4357
  133MOL0     C17843   6.179   1.557   8.575  0.4037 -0.4304  0.6388
  133MOL0     O17844   6.160   1.433   8.638 -0.2452  0.6840 -0.1553
  133MOL0     C17845   6.271   1.363   8.684 -0.0497 -0.2900  0.2780
  133MOL0     C17846   6.260   1.281   8.793  0.2230 -0.0841 -0.0554
  133MOL0     C17847   6.380   1.215   8.847  1.7088 -0.1318  0.2009
  133MOL0     C17848   6.366   1.128   8.975 -0.4342  0.7888  0.0033
  133MOL0     C17849   6.503   1.233   8.780  0.0447 -0.4525 -0.4456
  133MOL0     C17850   6.617   1.157   8.823  0.4985 -0.2341  0.1085
  133MOL0     O17851   6.696   1.226   8.914 -0.0603 -0.3637 -0.2536
  133MOL0     C17852   6.812   1.164   8.971 -0.3175  0.3438 -0.3261
  133MOL0     C17853   6.883   1.244   9.058  0.6472 -0.0448 -0.1992
  133MOL0     C17854   7.011   1.199   9.105  0.3712 -0.3830  0.2319
  133MOL0     C17855   7.061   1.071   9.086 -0.6365 -0.7392  0.9746
  133MOL0     O17856   7.192   1.049   9.132 -0.1045  0.2840  1.0600
  133MOL0     C17857   7.224   0.909   9.164  0.4542 -0.1998  0.3466
  133MOL0     C17858   7.363   0.905   9.227  1.2120 -0.1209  0.4307
  133MOL0     C17859   7.380   0.795   9.323  0.7426  0.7656  0.6460
  133MOL0     C17860   7.495   0.822   9.422 -0.8006  0.5867 -0.1810
  133MOL0     C17861   7.512   0.698   9.525  0.9074 -0.1239  0.5750
  133MOL0     C17862   7.637   0.703   9.605 -0.3194 -0.0455 -0.0830
  133MOL0     C17863   7.763   0.689   9.519  0.0004  0.3850  0.2290
  133MOL0     C17864   7.861   0.585   9.581 -0.8257  0.8006 -0.2513
  133MOL0    Cl17865   7.931   0.646   9.732 -0.1166  0.0109 -0.2960
  133MOL0     C17866   6.975   0.983   9.018  0.0359  0.3980 -0.5724
  133MOL0     C17867   6.853   1.029   8.965 -0.3890  0.0419  0.1193
  133MOL0     O17868   6.649   1.048   8.768 -0.2489  0.1421  0.0873
  133MOL0     C17869   6.510   1.309   8.664  1.1415 -0.8796  0.6582
  133MOL0     C17870   6.389   1.371   8.614 -0.5436  0.4948 -0.7715
  133MOL0     N17871   5.748   1.699   8.224  0.3336 -0.5019  0.1552
  133MOL0     N17872   5.622   1.701   8.232 -1.2309  0.5745 -0.2328
  133MOL0     C17873   4.549   1.356   8.891 -0.0998  1.0159  0.2286
  133MOL0     C17874   4.428   1.419   8.881  0.0358 -0.1184  0.6601
  133MOL0     C17875   3.997   1.541   8.825 -0.5687  0.7564  0.3382
  133MOL0     C17876   4.011   1.636   8.726 -0.7544 -0.6242  0.1707
  133MOL0     C17877   3.899   1.712   8.675  0.1398  0.9501 -0.3208
  133MOL0     C17878   3.776   1.695   8.736  0.9838 -0.4781  0.2208
  133MOL0     O17879   3.656   1.768   8.704 -0.2995 -0.1439  0.4913
  133MOL0     C17880   3.672   1.847   8.587 -0.2908 -2.1272  0.6109
  133MOL0     C17881   3.535   1.896   8.570  0.0203  0.1726  0.2237
  133MOL0     C17882   3.534   2.005   8.468  0.2252  0.4317  0.5259
  133MOL0     C17883   3.395   2.049   8.427  0.3560 -0.7107  0.3272
  133MOL0     C17884   3.400   2.127   8.298  1.3689 -1.0183 -1.2609
  133MOL0     C17885   3.408   2.202   8.201  0.5247  0.8541 -0.6103
  133MOL0     C17886   3.756   1.595   8.832  0.3554 -0.7909  0.6587
  133MOL0     C17887   3.865   1.526   8.883 -0.2476  0.6867 -0.3120
  133MOL0     H17888   4.296   1.228   8.621  0.8209  0.5525 -1.6876
  133MOL0     H17889   4.513   1.121   8.640 -1.0196 -0.0603 -0.8151
  133MOL0     H17890   4.798   1.329   8.661  0.9697  0.6230  0.0886
  133MOL0     H17891   4.847   1.334   8.834  0.9241 -0.0180 -0.5552
  133MOL0     H17892   4.949   1.107   8.808 -1.9628 -0.6308  0.0163
  133MOL0     H17893   4.902   1.116   8.636  2.3889  0.8490 -2.0155
  133MOL0     H17894   5.095   1.324   8.768  0.6475 -2.3100  1.2769
  133MOL0     H17895   5.149   1.183   8.694  0.0710 -0.2593  0.1626
  133MOL0     H17896   5.043   1.222   8.471 -0.4443 -0.9617  1.2405
  133MOL0     H17897   5.007   1.391   8.536  2.7478  1.9274  0.2686
  133MOL0     H17898   5.231   1.438   8.582  0.6531 -0.7213  0.0185
  133MOL0     H17899   5.287   1.268   8.542 -1.4116 -1.4193 -0.7207
  133MOL0     H17900   5.264   1.311   8.310  1.1544 -0.9970  0.9075
  133MOL0     H17901   5.195   1.465   8.334 -2.3197 -2.7929 -1.1198
  133MOL0     H17902   5.424   1.521   8.473 -0.1113 -0.1114  0.7547
  133MOL0     H17903   5.488   1.370   8.417  1.5594  2.2149  1.4143
  133MOL0     H17904   5.382   1.600   8.257 -1.4599 -0.7597  1.5003
  133MOL0     H17905   5.434   1.448   8.181  0.3098  0.0248 -0.2913
  133MOL0     H17906   5.717   1.393   8.295  1.3747  0.6878  0.7198
  133MOL0     H17907   5.980   1.447   8.223 -2.9815 -1.9484  0.5936
  133MOL0     H17908   6.026   1.625   8.227  1.0244  0.0531  3.2534
  133MOL0     H17909   5.955   1.444   8.464  0.0785  1.0228  1.0559
  133MOL0     H17910   5.944   1.619   8.466  0.0105  0.3775 -1.2673
  133MOL0     H17911   6.181   1.624   8.380 -2.9519  2.7255  0.7496
  133MOL0     H17912   6.190   1.440   8.405 -1.6396 -0.1692  1.0286
  133MOL0     H17913   6.116   1.628   8.629 -1.0016  1.2718 -2.8811
  133MOL0     H17914   6.278   1.598   8.593  0.6587 -1.8338  2.7321
  133MOL0     H17915   6.168   1.270   8.850  0.8795 -2.4509  0.6649
  133MOL0     H17916   6.414   1.191   9.050 -1.0471  0.2072  0.8969
  133MOL0     H17917   6.261   1.113   9.001 -0.6083 -0.9678 -1.5081
  133MOL0     H17918   6.410   1.029   8.960 -1.5162  0.4216 -0.8861
  133MOL0     H17919   6.858   1.345   9.088 -2.0276 -0.6460 -0.1861
  133MOL0     H17920   7.072   1.270   9.159 -0.5380  0.1633  0.5665
  133MOL0     H17921   7.154   0.860   9.232 -0.6697  0.5111 -0.2516
  133MOL0     H17922   7.208   0.860   9.067  0.9666  1.6699 -0.7420
  133MOL0     H17923   7.436   0.876   9.151  1.9811 -1.1423  1.5317
  133MOL0     H17924   7.380   1.001   9.278 -1.1735  1.3102 -1.2705
  133MOL0     H17925   7.404   0.707   9.263 -4.8997 -0.8784  0.2180
  133MOL0     H17926   7.288   0.792   9.382  0.7719  0.4985  0.6802
  133MOL0     H17927   7.581   0.831   9.355  0.9043 -0.4514  1.7436
  133MOL0     H17928   7.486   0.905   9.492  0.8861 -0.5072  1.4219
  133MOL0     H17929   7.504   0.602   9.474  0.4896  1.4172 -2.5268
  133MOL0     H17930   7.428   0.704   9.596  0.7471  0.9502  0.3228
  133MOL0     H17931   7.642   0.788   9.674  3.1167 -2.1102  2.5404
  133MOL0     H17932   7.632   0.627   9.683 -0.3227  0.3143  0.2750
  133MOL0     H17933   7.814   0.785   9.513 -0.8244  0.9174  1.3877
  133MOL0     H17934   7.739   0.656   9.418 -2.7093  1.5927  0.4122
  133MOL0     H17935   7.952   0.561   9.525 -0.8745 -3.2336  1.1152
  133MOL0     H17936   7.808   0.489   9.581  1.7524 -0.8404  3.1266
  133MOL0     H17937   7.012   0.884   8.995 -1.2895 -0.0250 -0.9920
  133MOL0     H17938   6.795   0.958   8.908  0.6907  0.0913 -1.0846
  133MOL0     H17939   6.601   1.315   8.606 -0.4396 -3.4347 -2.3894
  133MOL0     H17940   6.405   1.441   8.531  1.2561  0.9990 -0.0518
  133MOL0     H17941   4.614   1.409   8.960 -0.3778 -0.1371  1.4220
  133MOL0     H17942   4.413   1.512   8.935  0.8996 -0.0181  0.7381
  133MOL0     H17943   4.102   1.648   8.669 -2.0900 -0.9584 -2.1659
  133MOL0     H17944   3.918   1.789   8.600 -2.1463 -0.5798 -2.6543
  133MOL0     H17945   3.756   1.913   8.610  0.2795 -1.7328 -2.2672
  133MOL0     H17946   3.711   1.789   8.504  1.1926 -2.8363  1.7587
  133MOL0     H17947   3.503   1.938   8.666 -1.0721 -0.9940  0.3925
  133MOL0     H17948   3.468   1.814   8.543 -0.9187  1.0817 -0.3284
  133MOL0     H17949   3.580   1.958   8.381 -1.9542 -0.3286 -0.2773
  133MOL0     H17950   3.593   2.085   8.514  1.2545  0.2679 -0.4527
  133MOL0     H17951   3.343   2.100   8.508  0.4791 -1.0979  0.6497
  133MOL0     H17952   3.327   1.965   8.411 -1.5110  1.0878 -1.9023
  133MOL0     H17953   3.405   2.267   8.117  0.3855  1.4296 -0.1648
  133MOL0     H17954   3.655   1.583   8.870 -0.7957  1.1441 -1.5686
  133MOL0     H17955   3.864   1.460   8.969 -3.0488  1.7612  0.5748
  134MOL0     O17956  10.534   7.166  10.430  0.1282  0.1767 -0.3486
  134MOL0     C17957  10.626   7.127  10.363  0.0552  0.1778  0.3814
  134MOL0     O17958  10.619   7.024  10.271 -0.3141 -0.3274  0.6398
  134MOL0     C17959  10.496   6.961  10.247  0.5855  0.3798 -0.1469
  134MOL0     C17960  10.420   6.894  10.347 -0.5265  0.7315  0.5466
  134MOL0     C17961  10.292   6.853  10.333 -0.4362  0.0983 -0.3735
  134MOL0     C17962  10.225   6.876  10.220  0.2853  0.1222  0.2721
  134MOL0     O17963  10.094   6.838  10.215 -0.3859 -0.8621  0.0878
  134MOL0     C17964  10.039   6.805  10.091  0.1280 -0.0571 -1.1191
  134MOL0     C17965   9.904   6.732  10.133  0.9630 -0.2480 -0.0560
  134MOL0     C17966   9.841   6.707  10.002 -0.2620  0.9017  0.2108
  134MOL0     C17967   9.695   6.655  10.031  0.4166  0.0444 -0.4597
  134MOL0     C17968   9.693   6.534  10.123 -0.0457 -0.3006 -0.3265
  134MOL0     C17969   9.549   6.476  10.130  0.4910  0.4671 -0.2348
  134MOL0     C17970   9.468   6.540  10.241 -0.3183  0.4064  0.0250
  134MOL0     C17971   9.327   6.471  10.263  0.1011 -0.1171 -0.3548
  134MOL0     N17972   9.242   6.535  10.358  0.3970  1.0606 -0.3109
  134MOL0     C17973   9.245   6.508  10.492  0.3940  0.2811 -0.5525
  134MOL0     C17974   9.157   6.593  10.546 -0.2665  0.5872 -0.2192
  134MOL0     C17975   9.137   6.600  10.701  0.2059  1.3545  0.0976
  134MOL0     C17976   9.220   6.700  10.787 -0.8378  0.4206  0.2255
  134MOL0     C17977   9.377   6.694  10.760 -0.3051 -0.1425 -0.0278
  134MOL0     C17978   9.446   6.605  10.866  0.7740  0.1967  0.5075
  134MOL0     O17979   9.391   6.468  10.866 -0.5441 -0.1821 -0.0456
  134MOL0     C17980   9.451   6.379  10.772 -0.0382 -0.0019 -1.0525
  134MOL0     C17981   9.535   6.408  10.665 -0.0585 -0.1078  0.5650
  134MOL0     C17982   9.576   6.293  10.587  0.2649  0.3110 -0.0866
  134MOL0     C17983   9.662   6.326  10.467 -0.0957  0.1769 -0.1693
  134MOL0     C17984   9.522   6.164  10.599  0.1705  0.4492  0.0505
  134MOL0     C17985   9.578   6.049  10.520 -0.1452  0.6112 -0.0266
  134MOL0     O17986   9.679   5.982  10.580 -0.0715  1.5002  0.3154
  134MOL0     C17987   9.743   5.887  10.508  0.2998  0.1085 -0.7264
  134MOL0     C17988   9.678   5.773  10.460  0.5113  0.0174 -0.1573
  134MOL0     C17989   9.744   5.674  10.387  0.2135  0.0837  0.3346
  134MOL0     C17990   9.878   5.686  10.365  0.1179  0.4891  0.5001
  134MOL0     O17991   9.946   5.578  10.311 -0.5645  0.3308  0.6143
  134MOL0     C17992  10.087   5.546  10.355  0.0461 -0.4612  0.0311
  134MOL0     C17993  10.142   5.415  10.297  0.4340  0.3379  0.2519
  134MOL0     C17994  10.096   5.287  10.385 -0.3232 -0.8992 -0.9443
  134MOL0     C17995  10.013   5.177  10.314 -0.2647 -0.4938  0.0125
  134MOL0     C17996  10.024   5.039  10.389 -0.1091 -0.1239  0.1624
  134MOL0     C17997  10.008   4.918  10.293 -0.3473  0.0375 -1.2673
  134MOL0     C17998   9.870   4.899  10.227  0.2282 -0.8027  0.1974
  134MOL0     C17999   9.834   4.989  10.102 -0.0715  0.7152 -0.3379
  134MOL0    Cl18000   9.681   4.939  10.029 -0.0786  0.0386 -0.3204
  134MOL0     C18001   9.951   5.795  10.413 -0.4934 -0.5035  0.1616
  134MOL0     C18002   9.882   5.900  10.485  0.4371  0.0979 -0.3134
  134MOL0     O18003   9.522   6.033  10.411  0.2319  0.5725 -0.0504
  134MOL0     C18004   9.421   6.145  10.695  0.4455 -0.1150  0.4803
  134MOL0     C18005   9.397   6.248  10.783 -0.1453  0.8026 -0.7533
  134MOL0     N18006   9.103   6.674  10.452  0.5064  0.1716  0.2316
  134MOL0     N18007   9.152   6.637  10.336  0.2386 -0.3517  0.2127
  134MOL0     C18008  10.288   6.938  10.111  0.0620 -0.2466  0.4778
  134MOL0     C18009  10.425   6.975  10.125  1.0183 -0.4400  0.6374
  134MOL0     C18010  10.763   7.183  10.393 -0.0099  1.2280  0.3423
  134MOL0     C18011  10.770   7.277  10.502 -0.0007 -0.2755 -0.6676
  134MOL0     C18012  10.890   7.318  10.538 -1.0155  0.7386 -0.8319
  134MOL0     C18013  11.008   7.259  10.484 -0.6936  0.3755 -0.1130
  134MOL0     O18014  11.126   7.294  10.550 -0.7699 -0.3039 -0.1803
  134MOL0     C18015  11.249   7.253  10.496  0.1100 -0.5044  0.3913
  134MOL0     C18016  11.350   7.315  10.587  0.7524  0.5883 -0.9400
  134MOL0     C18017  11.495   7.275  10.554 -0.0999 -0.0220 -0.2262
  134MOL0     C18018  11.540   7.144  10.628  0.2406 -0.4552 -0.1672
  134MOL0     C18019  11.685   7.113  10.623 -0.1815 -0.3515  0.9514
  134MOL0     C18020  11.808   7.119  10.629  1.0804  0.0267  1.2642
  134MOL0     C18021  11.002   7.163  10.379  0.8539 -1.8154  0.2424
  134MOL0     C18022  10.877   7.129  10.340 -0.1260 -0.8742 -0.3205
  134MOL0     H18023  10.461   6.880  10.446  2.5258 -2.7816 -0.9804
  134MOL0     H18024  10.237   6.811  10.416 -0.3572  4.2657  2.1047
  134MOL0     H18025  10.009   6.899  10.044 -1.4008  0.4095  0.6725
  134MOL0     H18026  10.101   6.738  10.031 -0.3463 -1.5910  0.0330
  134MOL0     H18027   9.910   6.638  10.188 -0.7345 -0.1255  0.3918
  134MOL0     H18028   9.843   6.810  10.179 -1.1898 -1.3730 -0.8168
  134MOL0     H18029   9.847   6.786   9.927  0.7687 -1.3127 -2.2483
  134MOL0     H18030   9.910   6.630   9.963  0.5374  0.3500  2.5365
  134MOL0     H18031   9.640   6.736  10.080 -0.4019 -0.0271 -1.2420
  134MOL0     H18032   9.637   6.638   9.940 -1.4421  0.9399  0.4956
  134MOL0     H18033   9.771   6.463  10.092  0.7393  0.2000  0.4496
  134MOL0     H18034   9.713   6.560  10.227 -5.6506  0.1981  0.9553
  134MOL0     H18035   9.502   6.487  10.032  1.6586 -0.4469 -0.9163
  134MOL0     H18036   9.551   6.371  10.159  1.7836  0.2794 -0.9499
  134MOL0     H18037   9.520   6.541  10.337  2.9061  0.3255 -1.5874
  134MOL0     H18038   9.458   6.643  10.206  3.3509  0.4169 -1.4356
  134MOL0     H18039   9.345   6.369  10.297 -4.3225 -1.1218 -0.4452
  134MOL0     H18040   9.268   6.471  10.171  1.1632  1.2242 -1.0785
  134MOL0     H18041   9.289   6.432  10.555 -3.0562 -0.8670  0.6709
  134MOL0     H18042   9.032   6.624  10.716 -1.6233 -4.2056 -1.5121
  134MOL0     H18043   9.145   6.496  10.733 -3.1210  1.5076  1.8185
  134MOL0     H18044   9.199   6.690  10.894  2.2155 -2.7316  0.7143
  134MOL0     H18045   9.186   6.802  10.765  3.5944  1.4217 -3.2204
  134MOL0     H18046   9.423   6.792  10.775 -1.2567 -0.0342  2.8409
  134MOL0     H18047   9.395   6.670  10.655  2.0839 -5.7774  1.2810
  134MOL0     H18048   9.421   6.651  10.962  0.5573 -1.6463  1.3753
  134MOL0     H18049   9.554   6.615  10.860  0.6741  1.4395  0.5913
  134MOL0     H18050   9.584   6.503  10.645  0.6078 -0.0495  2.2784
  134MOL0     H18051   9.666   6.434  10.456 -2.7079  0.4722  1.1139
  134MOL0     H18052   9.763   6.298  10.502 -0.3656  1.1097  1.4766
  134MOL0     H18053   9.634   6.276  10.374  1.3546 -0.4009 -0.3261
  134MOL0     H18054   9.575   5.748  10.482  0.2704 -0.3895 -1.6242
  134MOL0     H18055   9.695   5.584  10.352  3.4577 -0.9413 -2.0268
  134MOL0     H18056  10.149   5.623  10.309 -2.1607  0.5715 -1.3537
  134MOL0     H18057  10.096   5.544  10.464 -0.7138  4.0841  0.3743
  134MOL0     H18058  10.100   5.410  10.197 -0.5879 -0.0629  0.6818
  134MOL0     H18059  10.251   5.424  10.295  0.3378  2.2680  1.5295
  134MOL0     H18060  10.042   5.337  10.465  2.5197  1.4997 -0.3464
  134MOL0     H18061  10.183   5.246  10.436 -0.6313 -0.2247  0.1465
  134MOL0     H18062   9.907   5.203  10.309 -0.4589 -0.9845  1.3001
  134MOL0     H18063  10.047   5.182  10.210 -0.5081 -2.1193 -0.1693
  134MOL0     H18064   9.954   5.040  10.472  1.9282  0.2979  1.9633
  134MOL0     H18065  10.127   5.033  10.425 -0.1256  3.0277  0.9839
  134MOL0     H18066  10.090   4.918  10.220  0.7489  0.3272 -0.0846
  134MOL0     H18067  10.026   4.829  10.354 -1.7371 -1.0342 -2.3508
  134MOL0     H18068   9.788   4.918  10.298 -0.8243 -1.7977 -0.7275
  134MOL0     H18069   9.870   4.796  10.192  3.2706 -0.6958 -0.3862
  134MOL0     H18070   9.913   4.987  10.026  3.0302 -0.7750  2.6663
  134MOL0     H18071   9.808   5.094  10.118 -4.1172 -0.2576  0.9005
  134MOL0     H18072  10.055   5.810  10.389 -0.5556  0.9783  0.6783
  134MOL0     H18073   9.937   5.983  10.528 -2.9595  2.2030  0.2772
  134MOL0     H18074   9.374   6.047  10.690  1.3968 -0.6199  1.0773
  134MOL0     H18075   9.326   6.238  10.864  0.2989  2.7802 -0.0601
  134MOL0     H18076  10.233   6.976  10.025  1.1081  4.3711  1.5686
  134MOL0     H18077  10.482   7.029  10.051 -0.1285 -1.4205 -1.0469
  134MOL0     H18078  10.683   7.298  10.564 -0.2029 -2.9708  0.0728
  134MOL0     H18079  10.897   7.384  10.624 -0.4736 -0.8702  0.4225
  134MOL0     H18080  11.258   7.145  10.480 -1.8549 -0.5509 -0.7079
  134MOL0     H18081  11.271   7.303  10.401 -1.2857  1.6839  1.1663
  134MOL0     H18082  11.325   7.302  10.692  4.0705 -0.9226 -0.2176
  134MOL0     H18083  11.335   7.423  10.588 -3.1230  0.2026 -1.1272
  134MOL0     H18084  11.573   7.350  10.570 -0.1116  0.4915 -2.3923
  134MOL0     H18085  11.499   7.249  10.448 -1.1358  0.6668 -0.4518
  134MOL0     H18086  11.487   7.057  10.588  1.9488 -1.3668 -0.5386
  134MOL0     H18087  11.512   7.157  10.732  0.2236 -0.2682 -0.1950
  134MOL0     H18088  11.915   7.117  10.632  1.0821 -2.1061  1.2533
  134MOL0     H18089  11.079   7.110  10.323 -1.4234 -3.5585 -1.4592
  134MOL0     H18090  10.883   7.053  10.263 -3.2904  0.7255 -2.3489
  135MOL0     O18091   8.072   4.439   0.707 -0.1465 -0.6013  0.2172
  135MOL0     C18092   8.087   4.433   0.584 -0.2223 -0.5183 -1.3839
  135MOL0     O18093   7.984   4.432   0.494 -0.2953  0.3854 -0.1027
  135MOL0     C18094   7.855   4.456   0.543  0.9398  0.4844  0.2046
  135MOL0     C18095   7.822   4.587   0.571  0.3618 -0.1033  0.0329
  135MOL0     C18096   7.691   4.627   0.598 -0.6693 -0.4245  0.2260
  135MOL0     C18097   7.592   4.529   0.605  0.4371  0.0169  0.3087
  135MOL0     O18098   7.455   4.538   0.626 -0.0879 -0.7184  0.6950
  135MOL0     C18099   7.407   4.671   0.682 -0.3205  0.5531  0.1690
  135MOL0     C18100   7.251   4.669   0.659 -0.3297 -1.1166 -0.6292
  135MOL0     C18101   7.187   4.793   0.713 -1.0014  0.0964 -0.1556
  135MOL0     C18102   7.155   4.786   0.867 -0.0971 -0.1463  0.6110
  135MOL0     C18103   7.113   4.925   0.930 -0.0526 -0.5772 -0.3822
  135MOL0     C18104   7.001   4.990   0.851 -0.8024  0.0565  0.3642
  135MOL0     C18105   6.967   5.110   0.944  0.2840  0.0740  0.1368
  135MOL0     C18106   6.877   5.207   0.860 -0.2261  0.6400  0.7955
  135MOL0     N18107   6.741   5.163   0.890 -0.2436  0.4086 -0.5066
  135MOL0     C18108   6.658   5.082   0.822 -0.8395  0.4266 -0.1987
  135MOL0     C18109   6.534   5.089   0.882 -0.1578 -0.2951  0.5561
  135MOL0     C18110   6.413   5.004   0.838 -0.4823 -0.2916 -0.2373
  135MOL0     C18111   6.373   5.004   0.693 -0.5562  0.6012  0.7908
  135MOL0     C18112   6.349   5.141   0.640 -0.0968 -0.9457  0.0165
  135MOL0     C18113   6.295   5.141   0.500 -0.3283  0.1949  0.0432
  135MOL0     O18114   6.158   5.086   0.486 -0.6808 -0.7021 -0.0947
  135MOL0     C18115   6.049   5.160   0.529 -0.6536  0.4902 -0.0327
  135MOL0     C18116   5.949   5.100   0.596 -0.4809 -0.7444 -0.6411
  135MOL0     C18117   5.831   5.177   0.633 -0.2722 -0.0862 -0.2665
  135MOL0     C18118   5.746   5.109   0.739 -0.4558 -0.1259 -0.2192
  135MOL0     C18119   5.827   5.322   0.612 -0.3265  1.0290 -0.3863
  135MOL0     C18120   5.715   5.408   0.671 -0.6363 -0.0884  0.2920
  135MOL0     O18121   5.591   5.357   0.687  0.2654 -0.9312  0.0497
  135MOL0     C18122   5.491   5.439   0.735 -0.5051 -0.6823  1.0409
  135MOL0     C18123   5.444   5.548   0.659 -0.0323 -0.2304 -0.0916
  135MOL0     C18124   5.372   5.646   0.709  1.0749  0.6909  0.8464
  135MOL0     C18125   5.320   5.640   0.841 -0.2071  0.1619  0.4474
  135MOL0     O18126   5.241   5.743   0.891 -0.0818 -0.1106 -0.4727
  135MOL0     C18127   5.126   5.712   0.970 -0.3856 -0.1611  0.4009
  135MOL0     C18128   5.030   5.611   0.901  0.3036 -0.4633 -0.4884
  135MOL0     C18129   4.968   5.668   0.780 -0.3783 -1.2906 -0.2061
  135MOL0     C18130   4.893   5.566   0.709  0.4960  0.2925  0.0075
  135MOL0     C18131   4.983   5.467   0.631  0.7703  0.6583  0.2304
  135MOL0     C18132   5.081   5.522   0.522  0.2076 -0.6463  0.3236
  135MOL0     C18133   5.022   5.627   0.416 -0.3788  1.1263 -0.3638
  135MOL0     C18134   5.123   5.643   0.303  0.4859 -0.4115 -0.8743
  135MOL0    Cl18135   5.258   5.751   0.360  0.2857  0.4962  0.1518
  135MOL0     C18136   5.362   5.529   0.918 -0.2897 -0.3360  0.1920
  135MOL0     C18137   5.441   5.425   0.866 -0.0330 -0.1327  0.0682
  135MOL0     O18138   5.754   5.530   0.699  0.1544  0.3214  0.6149
  135MOL0     C18139   5.938   5.380   0.544  0.0883 -0.4246 -0.6055
  135MOL0     C18140   6.046   5.299   0.499  1.1185 -0.2423 -0.2341
  135MOL0     N18141   6.538   5.187   0.972  0.7813  0.4866 -0.9191
  135MOL0     N18142   6.656   5.228   0.982  0.2974 -0.2946 -0.2828
  135MOL0     C18143   7.625   4.395   0.572  0.4818  0.4653 -0.4250
  135MOL0     C18144   7.756   4.359   0.547 -0.1126 -0.0953  0.1027
  135MOL0     C18145   8.226   4.421   0.533  0.6950 -0.0277  0.4625
  135MOL0     C18146   8.253   4.425   0.394  0.2442 -0.6751  0.7215
  135MOL0     C18147   8.383   4.413   0.355  0.7362 -0.9438  0.0394
  135MOL0     C18148   8.488   4.406   0.441 -0.5579  0.2397  0.3205
  135MOL0     O18149   8.614   4.397   0.380 -0.4518  0.1955 -0.6712
  135MOL0     C18150   8.713   4.322   0.448  0.6163  0.3882 -0.3353
  135MOL0     C18151   8.836   4.326   0.364  0.6439  0.7166  0.3499
  135MOL0     C18152   8.919   4.459   0.375  0.0023  0.4664  0.5859
  135MOL0     C18153   9.038   4.464   0.275 -0.0611 -0.3938 -0.0953
  135MOL0     C18154   8.992   4.485   0.135  0.7360 -0.6367 -0.2279
  135MOL0     C18155   8.953   4.502   0.021  0.4631 -0.4391  1.0361
  135MOL0     C18156   8.466   4.404   0.576 -0.5502 -0.4892 -0.3787
  135MOL0     C18157   8.332   4.418   0.626 -1.3832 -0.3557  0.3284
  135MOL0     H18158   7.897   4.662   0.545  0.0992 -0.2078 -1.0873
  135MOL0     H18159   7.657   4.729   0.604 -3.9006 -1.3924  0.3981
  135MOL0     H18160   7.438   4.693   0.785  0.4122  2.5717 -0.4448
  135MOL0     H18161   7.445   4.759   0.630 -0.4998  2.8285  3.5878
  135MOL0     H18162   7.242   4.665   0.550 -1.9835 -2.0912 -0.4995
  135MOL0     H18163   7.205   4.581   0.705 -1.0896  1.4601  4.1387
  135MOL0     H18164   7.245   4.880   0.683  0.2423 -1.5861 -3.0484
  135MOL0     H18165   7.089   4.803   0.666 -0.3645 -0.1597 -1.5910
  135MOL0     H18166   7.068   4.724   0.893 -0.6907  1.0292  1.5327
  135MOL0     H18167   7.241   4.751   0.924  0.4482 -0.0402 -0.1411
  135MOL0     H18168   7.099   4.911   1.037  0.5957 -1.9744 -0.4527
  135MOL0     H18169   7.206   4.982   0.928 -0.0056 -0.6030  0.6563
  135MOL0     H18170   7.038   5.020   0.753 -2.5332 -2.0502 -1.0374
  135MOL0     H18171   6.911   4.928   0.840  0.2757 -1.7434  1.1243
  135MOL0     H18172   6.911   5.081   1.033 -2.1638  0.8713 -1.0285
  135MOL0     H18173   7.059   5.160   0.975 -0.4878  0.5841  1.6733
  135MOL0     H18174   6.902   5.206   0.754  3.6626 -1.3047  1.5489
  135MOL0     H18175   6.888   5.305   0.907  1.6625  0.2556  1.2607
  135MOL0     H18176   6.684   5.018   0.739 -1.5286  1.2252 -1.0611
  135MOL0     H18177   6.420   4.898   0.863 -1.9570 -0.1672  0.8100
  135MOL0     H18178   6.325   5.040   0.891 -1.0375  2.4583 -2.7410
  135MOL0     H18179   6.284   4.941   0.688 -1.4024  1.4975  3.2018
  135MOL0     H18180   6.451   4.970   0.624 -4.8385 -2.5913 -3.0792
  135MOL0     H18181   6.438   5.205   0.645 -2.2674  2.2877  2.4325
  135MOL0     H18182   6.274   5.177   0.712  0.7247 -1.6889  1.2926
  135MOL0     H18183   6.359   5.089   0.428  1.4221 -1.9313  2.8943
  135MOL0     H18184   6.293   5.244   0.464  0.0282  0.8514  1.8009
  135MOL0     H18185   5.958   4.994   0.614 -1.1982 -0.7260 -0.1521
  135MOL0     H18186   5.644   5.095   0.701  0.2761 -2.5329 -1.4656
  135MOL0     H18187   5.779   5.010   0.768 -1.8483 -1.4353 -2.7190
  135MOL0     H18188   5.738   5.171   0.829 -0.7441  0.8480 -0.8958
  135MOL0     H18189   5.469   5.553   0.553 -0.1768  2.9718 -0.0836
  135MOL0     H18190   5.337   5.733   0.654  0.4216 -0.7328 -1.0893
  135MOL0     H18191   5.162   5.679   1.068  0.1956  0.1249  0.2904
  135MOL0     H18192   5.074   5.805   0.993 -2.5513 -0.3012 -3.1844
  135MOL0     H18193   5.081   5.517   0.878  0.4765 -1.0755  2.0397
  135MOL0     H18194   4.946   5.586   0.967 -0.0325 -4.1499 -2.0227
  135MOL0     H18195   5.042   5.713   0.712 -2.1306  0.3117 -1.1627
  135MOL0     H18196   4.909   5.754   0.813  1.7113  0.0946  0.1668
  135MOL0     H18197   4.829   5.501   0.769 -0.8696  1.9529  0.4370
  135MOL0     H18198   4.820   5.613   0.642 -0.8484  0.6561  1.6565
  135MOL0     H18199   4.916   5.400   0.577  0.6433  1.2036 -0.3080
  135MOL0     H18200   5.049   5.399   0.684  1.7286 -0.2794 -2.0568
  135MOL0     H18201   5.161   5.572   0.579 -2.8245  3.1675  1.6377
  135MOL0     H18202   5.129   5.444   0.462 -1.7225 -2.0951  0.5724
  135MOL0     H18203   5.004   5.725   0.463  2.0374  2.3502 -1.8174
  135MOL0     H18204   4.927   5.596   0.371 -0.1977  1.6332 -1.0989
  135MOL0     H18205   5.083   5.693   0.214 -2.2241  1.7896  1.3914
  135MOL0     H18206   5.175   5.549   0.285 -2.3022 -2.6962  1.9007
  135MOL0     H18207   5.336   5.526   1.024 -0.9545 -1.1826  0.0222
  135MOL0     H18208   5.464   5.339   0.927 -1.7669 -1.8343 -1.5514
  135MOL0     H18209   5.948   5.483   0.514  0.4387 -0.6765 -1.3620
  135MOL0     H18210   6.126   5.345   0.442  3.2394 -0.0957  2.6348
  135MOL0     H18211   7.542   4.326   0.581  0.1571  1.0723  1.8158
  135MOL0     H18212   7.778   4.259   0.513 -1.8561  0.3616 -2.6235
  135MOL0     H18213   8.178   4.436   0.317  0.3991 -0.5516  0.5884
  135MOL0     H18214   8.388   4.442   0.250 -1.9037  1.1528  0.3626
  135MOL0     H18215   8.744   4.370   0.542 -0.9098  3.6449 -1.3588
  135MOL0     H18216   8.676   4.220   0.462 -0.8176  0.8692 -0.4368
  135MOL0     H18217   8.802   4.316   0.261 -1.9007 -0.0257  1.1909
  135MOL0     H18218   8.902   4.242   0.390  2.8089  2.0435 -0.6061
  135MOL0     H18219   8.954   4.454   0.479 -1.1477 -1.5574  0.9135
  135MOL0     H18220   8.853   4.546   0.371 -0.7542 -0.1467 -0.6092
  135MOL0     H18221   9.103   4.376   0.280  2.3866  1.4255  3.0446
  135MOL0     H18222   9.104   4.543   0.309 -1.0845 -0.6276  2.6713
  135MOL0     H18223   8.904   4.515  -0.073 -0.4886  2.7965  1.8637
  135MOL0     H18224   8.544   4.406   0.651 -1.2036  2.1311  0.3507
  135MOL0     H18225   8.314   4.438   0.731 -2.1416  2.2805 -0.2311
  136MOL0     O18226   0.596   8.909   3.778  1.3763  0.6281  0.1004
  136MOL0     C18227   0.556   8.941   3.888  0.0175  0.2132 -0.0705
  136MOL0     O18228   0.630   8.927   4.009  0.0676 -0.7326 -0.7212
  136MOL0     C18229   0.736   8.840   4.035 -0.0550  0.8047  0.5135
  136MOL0     C18230   0.828   8.805   3.938 -0.3356 -0.0908 -1.3666
  136MOL0     C18231   0.919   8.705   3.960  0.2954  0.5504 -0.3476
  136MOL0     C18232   0.924   8.636   4.085  0.2954  0.5777  0.3654
  136MOL0     O18233   1.022   8.530   4.115 -0.3528  0.4349  0.2500
  136MOL0     C18234   1.021   8.466   4.240 -0.2590  0.4293 -0.8975
  136MOL0     C18235   1.123   8.349   4.243 -0.0409 -0.2245 -0.8990
  136MOL0     C18236   1.082   8.232   4.155  0.0132  0.3932 -0.4662
  136MOL0     C18237   1.166   8.104   4.174  0.0516  0.3012  0.1363
  136MOL0     C18238   1.158   8.017   4.049  0.4803 -0.3168  0.1875
  136MOL0     C18239   1.029   7.943   4.020  0.1600 -0.3679 -0.0712
  136MOL0     C18240   1.046   7.789   3.999 -0.7990 -0.8965  0.3685
  136MOL0     C18241   0.915   7.727   3.974  0.7212  1.1078 -0.6417
  136MOL0     N18242   0.844   7.796   3.872 -0.0085  0.5257  0.4270
  136MOL0     C18243   0.880   7.804   3.734  1.0107 -0.5741 -0.0318
  136MOL0     C18244   0.796   7.886   3.670  1.1072 -0.1154 -0.2770
  136MOL0     C18245   0.781   7.909   3.520  0.1910 -1.1598  0.2682
  136MOL0     C18246   0.707   8.044   3.483  0.9460  0.6070 -0.0188
  136MOL0     C18247   0.699   8.069   3.341  0.0550 -0.7136  0.7734
  136MOL0     C18248   0.606   8.195   3.308  0.0222 -0.1157  0.4398
  136MOL0     O18249   0.657   8.316   3.369  0.0262 -0.0949  0.7875
  136MOL0     C18250   0.579   8.435   3.347 -1.0941  0.7806 -0.4583
  136MOL0     C18251   0.452   8.431   3.279 -0.3664 -0.5295 -0.9139
  136MOL0     C18252   0.370   8.542   3.273  0.3961 -0.6358 -0.2145
  136MOL0     C18253   0.243   8.529   3.204 -0.3533 -0.2776 -0.2929
  136MOL0     C18254   0.403   8.665   3.325 -0.5233 -0.0777 -0.2810
  136MOL0     C18255   0.332   8.798   3.314 -0.1713  0.2692 -0.4572
  136MOL0     O18256   0.198   8.809   3.266 -0.6265  0.2909 -0.7304
  136MOL0     C18257   0.139   8.929   3.258  0.4500 -0.2395  0.5263
  136MOL0     C18258   0.065   8.974   3.148 -0.2509  0.7367 -0.4785
  136MOL0     C18259  -0.013   9.090   3.149 -0.3408 -0.1511 -0.1931
  136MOL0     C18260  -0.030   9.168   3.266 -0.8023 -0.1277  0.5244
  136MOL0     O18261  -0.108   9.279   3.269  0.1051  0.0903  0.2611
  136MOL0     C18262  -0.037   9.398   3.312 -0.2278 -0.7066  0.0394
  136MOL0     C18263   0.095   9.428   3.232 -0.2423  0.2048 -0.1805
  136MOL0     C18264   0.175   9.549   3.253  0.9575 -0.1003  0.6839
  136MOL0     C18265   0.205   9.589   3.389 -0.6984  0.5327 -0.2076
  136MOL0     C18266   0.290   9.487   3.470  0.3512 -0.2725  0.2856
  136MOL0     C18267   0.325   9.549   3.601 -0.8618  1.2331  0.2414
  136MOL0     C18268   0.381   9.462   3.712  0.7854  1.5159 -0.0265
  136MOL0     C18269   0.533   9.422   3.706  0.8228  1.0922 -0.0393
  136MOL0    Cl18270   0.579   9.311   3.840  0.4155  0.2358 -0.1856
  136MOL0     C18271   0.031   9.115   3.378 -0.6416  0.0261 -0.6666
  136MOL0     C18272   0.118   9.006   3.372  0.1035 -0.5577 -0.1539
  136MOL0     O18273   0.401   8.895   3.337 -0.7300 -0.5422 -0.3622
  136MOL0     C18274   0.529   8.664   3.398 -0.0588 -1.5166  0.3383
  136MOL0     C18275   0.618   8.555   3.400 -0.3530 -0.5376 -1.1454
  136MOL0     N18276   0.698   7.920   3.769 -0.2948  0.4338  0.1703
  136MOL0     N18277   0.732   7.871   3.886  0.5431  0.0404 -0.0024
  136MOL0     C18278   0.828   8.665   4.182 -0.2780  0.3466 -0.1076
  136MOL0     C18279   0.737   8.769   4.153  0.3782 -0.0864 -0.6946
  136MOL0     C18280   0.420   8.997   3.881 -0.4839 -0.3412 -0.4094
  136MOL0     C18281   0.337   8.995   3.999  0.3606  0.6474  0.0345
  136MOL0     C18282   0.223   9.069   4.000 -0.1895 -0.2449 -0.2800
  136MOL0     C18283   0.165   9.122   3.883 -0.1307  0.2209  0.7725
  136MOL0     O18284   0.041   9.171   3.898 -0.1825 -0.0864  0.7552
  136MOL0     C18285  -0.037   9.216   3.793  0.7017  0.6053  0.4736
  136MOL0     C18286  -0.014   9.360   3.751  0.5551  0.5694 -0.3750
  136MOL0     C18287  -0.050   9.469   3.849  0.5368  0.4266 -0.0597
  136MOL0     C18288  -0.154   9.561   3.790  0.5993 -0.1110  0.6379
  136MOL0     C18289  -0.234   9.601   3.906 -0.0151 -0.7213 -0.2695
  136MOL0     C18290  -0.291   9.666   3.988 -0.4564 -0.3212  1.0560
  136MOL0     C18291   0.235   9.105   3.760  0.4849  0.1788 -1.2415
  136MOL0     C18292   0.365   9.045   3.765 -0.0895  0.0359  0.3813
  136MOL0     H18293   0.823   8.857   3.843 -1.3070  0.2386 -1.1514
  136MOL0     H18294   0.994   8.689   3.883  3.3714  3.2609  1.7812
  136MOL0     H18295   1.039   8.545   4.314 -1.4124  0.9170 -1.1112
  136MOL0     H18296   0.925   8.424   4.273 -0.5403  1.4425 -0.3977
  136MOL0     H18297   1.222   8.393   4.225 -0.1526 -0.7787 -3.2042
  136MOL0     H18298   1.114   8.308   4.343 -0.2797 -1.3142 -1.3527
  136MOL0     H18299   0.980   8.196   4.171  0.1418 -0.0416 -0.5908
  136MOL0     H18300   1.083   8.270   4.052 -0.4067  0.7099 -0.3507
  136MOL0     H18301   1.268   8.138   4.194  0.3780  1.1070 -2.5300
  136MOL0     H18302   1.119   8.044   4.253 -2.1163 -1.6104 -2.4200
  136MOL0     H18303   1.170   8.090   3.968  0.4056 -0.2981  0.1924
  136MOL0     H18304   1.241   7.948   4.034 -0.9891 -2.4701  1.4114
  136MOL0     H18305   0.952   7.976   4.090  2.1126 -0.9796  2.5447
  136MOL0     H18306   1.000   7.984   3.923  2.2286 -0.9986 -1.0279
  136MOL0     H18307   1.108   7.760   3.914  0.8363 -0.6055  1.4103
  136MOL0     H18308   1.084   7.741   4.089 -0.3110 -3.6962 -1.2253
  136MOL0     H18309   0.864   7.737   4.071 -0.3196 -2.9181 -0.6035
  136MOL0     H18310   0.919   7.618   3.964  0.3414  1.2043 -2.0273
  136MOL0     H18311   0.964   7.751   3.690  0.4514  0.4511 -2.5383
  136MOL0     H18312   0.880   7.911   3.473  0.0103  1.0784 -0.1270
  136MOL0     H18313   0.725   7.827   3.473 -0.5879  0.3716 -1.6462
  136MOL0     H18314   0.748   8.136   3.523 -0.1188  1.5829 -1.0778
  136MOL0     H18315   0.602   8.042   3.516 -0.1844  0.5383 -3.2093
  136MOL0     H18316   0.666   7.981   3.285  1.4698 -1.4471  1.0167
  136MOL0     H18317   0.797   8.096   3.301 -0.9902  4.9030  1.2770
  136MOL0     H18318   0.504   8.180   3.345  0.2162 -0.4829  0.8299
  136MOL0     H18319   0.602   8.207   3.199  3.2747  3.0562  0.4999
  136MOL0     H18320   0.417   8.340   3.230 -2.4750 -1.0510  1.3721
  136MOL0     H18321   0.238   8.431   3.155  1.6534 -1.0060  0.8516
  136MOL0     H18322   0.158   8.536   3.272 -0.4402 -3.4623  0.0734
  136MOL0     H18323   0.240   8.603   3.123  0.4355  0.7605  0.6031
  136MOL0     H18324   0.066   8.897   3.071 -0.5519 -1.4320  1.5870
  136MOL0     H18325  -0.060   9.115   3.054  0.8820  1.9688 -0.2998
  136MOL0     H18326  -0.101   9.486   3.297 -2.0710 -2.0824 -0.5360
  136MOL0     H18327  -0.018   9.404   3.420  0.0330 -1.6192  0.0528
  136MOL0     H18328   0.156   9.340   3.252 -1.7046 -1.8013 -3.6374
  136MOL0     H18329   0.073   9.416   3.125  0.0054 -1.1794 -0.0995
  136MOL0     H18330   0.109   9.625   3.211 -2.1378 -3.3195 -0.7759
  136MOL0     H18331   0.262   9.542   3.188  0.4758 -1.8332  0.1766
  136MOL0     H18332   0.265   9.679   3.369  2.2862 -1.1927  0.4525
  136MOL0     H18333   0.109   9.616   3.436 -1.6120 -0.2290 -1.5597
  136MOL0     H18334   0.381   9.459   3.415 -1.0563 -1.7625 -1.4300
  136MOL0     H18335   0.240   9.391   3.488  0.3805 -0.5911 -1.1973
  136MOL0     H18336   0.394   9.629   3.572 -0.4201 -0.5680 -4.7037
  136MOL0     H18337   0.240   9.608   3.635 -0.9652  2.1430 -1.4447
  136MOL0     H18338   0.319   9.377   3.742  1.0142  0.0580 -3.3004
  136MOL0     H18339   0.387   9.532   3.797  1.6365  0.6443  0.6641
  136MOL0     H18340   0.608   9.502   3.708  1.5469  0.4204  0.4504
  136MOL0     H18341   0.549   9.385   3.604 -0.3126  0.2188  0.0891
  136MOL0     H18342   0.005   9.163   3.472 -2.6434  1.1152 -1.7143
  136MOL0     H18343   0.165   8.967   3.462  2.8302  1.2848 -0.6470
  136MOL0     H18344   0.553   8.751   3.457 -3.3474 -0.5898  0.4719
  136MOL0     H18345   0.716   8.565   3.446 -0.4424  0.4452 -1.1586
  136MOL0     H18346   0.807   8.601   4.267 -1.2661 -0.8252 -1.1881
  136MOL0     H18347   0.660   8.794   4.226  2.1252 -0.2388  1.2925
  136MOL0     H18348   0.377   8.950   4.089 -0.3808  1.6783  0.9130
  136MOL0     H18349   0.164   9.069   4.091 -3.4368 -2.4971 -2.1838
  136MOL0     H18350  -0.029   9.153   3.704  0.8394  2.4904 -0.9291
  136MOL0     H18351  -0.134   9.208   3.842  1.8478  0.1230  2.8031
  136MOL0     H18352  -0.063   9.370   3.653  2.5598 -0.1361 -1.4994
  136MOL0     H18353   0.089   9.358   3.714  0.1480 -1.3208 -1.5380
  136MOL0     H18354   0.043   9.522   3.871  1.3520 -1.1508  0.4773
  136MOL0     H18355  -0.095   9.413   3.932  1.3010  0.6408  0.5183
  136MOL0     H18356  -0.216   9.517   3.711 -0.1595  1.7352  0.1481
  136MOL0     H18357  -0.104   9.637   3.729  1.5399 -3.6807 -3.5644
  136MOL0     H18358  -0.351   9.726   4.053 -0.9991 -1.3402  1.5295
  136MOL0     H18359   0.178   9.134   3.673 -4.1566  2.0486  2.0089
  136MOL0     H18360   0.414   9.037   3.668 -2.7935  0.0245 -1.0902
  137MOL0     O18361  10.180   2.053   0.773  0.5090 -0.2437 -0.7638
  137MOL0     C18362  10.210   2.039   0.897  0.7308 -0.1222  0.3849
  137MOL0     O18363  10.147   2.100   1.000 -0.5238 -0.1978 -0.2637
  137MOL0     C18364  10.033   2.175   0.972  0.5177  0.0335  0.3277
  137MOL0     C18365  10.047   2.316   0.954  0.0634 -0.4923  0.4944
  137MOL0     C18366   9.928   2.388   0.931  0.7671  0.3715  1.0537
  137MOL0     C18367   9.797   2.333   0.912  0.1043 -1.0193  0.7321
  137MOL0     O18368   9.677   2.397   0.875  0.1575  0.1345  0.0499
  137MOL0     C18369   9.678   2.534   0.853 -0.5832 -0.2401  0.1060
  137MOL0     C18370   9.538   2.576   0.805  0.5823 -0.3710 -0.7747
  137MOL0     C18371   9.546   2.701   0.729 -0.7998 -0.4298 -0.3824
  137MOL0     C18372   9.410   2.773   0.723 -0.4103 -0.0801  0.1028
  137MOL0     C18373   9.423   2.911   0.661  0.6622  0.2047 -0.4315
  137MOL0     C18374   9.484   2.914   0.524  1.3666  1.1736  0.0488
  137MOL0     C18375   9.474   3.054   0.472 -0.8556  0.5469 -1.1193
  137MOL0     C18376   9.491   3.048   0.320  0.3132 -0.9714  0.4034
  137MOL0     N18377   9.496   3.187   0.270  0.8508  0.1111  0.1426
  137MOL0     C18378   9.594   3.274   0.318  0.2218 -0.1285  0.7266
  137MOL0     C18379   9.539   3.391   0.291 -0.5164  0.2191  0.8119
  137MOL0     C18380   9.597   3.525   0.334  0.3595 -0.1789  0.0545
  137MOL0     C18381   9.486   3.635   0.354 -0.7560  0.5108  0.2088
  137MOL0     C18382   9.543   3.778   0.385 -0.5837  0.2863 -0.1507
  137MOL0     C18383   9.449   3.879   0.326  0.0264  0.1014  0.2321
  137MOL0     O18384   9.331   3.911   0.400 -0.2781  0.7280 -0.4116
  137MOL0     C18385   9.322   4.023   0.471  0.7965  0.2431  0.1586
  137MOL0     C18386   9.414   4.096   0.534 -0.2456 -0.2435 -0.4189
  137MOL0     C18387   9.392   4.198   0.624  0.1196 -1.3543  0.2114
  137MOL0     C18388   9.499   4.275   0.690  0.1656  0.6820  0.0505
  137MOL0     C18389   9.255   4.228   0.656  0.5389  0.0470  0.8706
  137MOL0     C18390   9.204   4.324   0.752  0.0747 -0.0756 -0.0435
  137MOL0     O18391   9.093   4.397   0.710 -0.3302 -0.1061  0.5045
  137MOL0     C18392   9.044   4.478   0.803 -0.1656 -0.2646 -0.4813
  137MOL0     C18393   8.972   4.434   0.918  0.5975 -0.1396 -0.4566
  137MOL0     C18394   8.903   4.522   1.000  0.2152  0.5355 -0.3964
  137MOL0     C18395   8.905   4.657   0.977  0.5127  0.7914 -0.4451
  137MOL0     O18396   8.847   4.744   1.061  0.3811 -0.0941  0.4239
  137MOL0     C18397   8.718   4.696   1.110  0.4760 -0.3403  0.1757
  137MOL0     C18398   8.629   4.812   1.148  1.2802  0.8369 -0.2210
  137MOL0     C18399   8.614   4.929   1.048  0.0096 -0.5141  0.4975
  137MOL0     C18400   8.575   4.896   0.901  0.0828  0.1572  0.2254
  137MOL0     C18401   8.425   4.870   0.894 -0.4136  0.7402  0.0013
  137MOL0     C18402   8.403   4.802   0.756  0.3862  0.5496  1.3787
  137MOL0     C18403   8.248   4.804   0.728  0.6060 -0.1095  0.3148
  137MOL0     C18404   8.163   4.933   0.718 -0.2887 -0.4699  0.2785
  137MOL0    Cl18405   7.986   4.897   0.712  0.3743 -0.4905  0.2826
  137MOL0     C18406   8.973   4.701   0.853  0.8320 -0.2557 -0.1242
  137MOL0     C18407   9.040   4.612   0.772  0.1080 -0.3503  0.3393
  137MOL0     O18408   9.266   4.346   0.856  0.1976 -0.1603  0.7742
  137MOL0     C18409   9.156   4.161   0.588  0.0026  0.8743  0.8413
  137MOL0     C18410   9.187   4.054   0.507  0.5216  0.0674  0.6352
  137MOL0     N18411   9.423   3.372   0.220 -0.6485 -0.6452 -0.2279
  137MOL0     N18412   9.388   3.247   0.213  0.6173  0.1218  0.4044
  137MOL0     C18413   9.786   2.195   0.936  1.2382 -0.1230 -0.8708
  137MOL0     C18414   9.900   2.110   0.966 -0.3061  0.2165  0.7076
  137MOL0     C18415  10.324   1.939   0.920 -0.3541 -0.2286 -0.0798
  137MOL0     C18416  10.384   1.849   0.823 -0.0527 -0.6081 -0.3887
  137MOL0     C18417  10.496   1.767   0.857 -0.1830 -0.1243  0.1883
  137MOL0     C18418  10.550   1.760   0.984 -1.1154 -0.1191 -0.3791
  137MOL0     O18419  10.656   1.681   1.020  0.0059 -0.7724  0.1722
  137MOL0     C18420  10.722   1.614   0.916  0.3841 -0.6676  0.2263
  137MOL0     C18421  10.854   1.541   0.945 -0.3986 -0.1379 -0.0218
  137MOL0     C18422  10.895   1.444   0.828  0.3872  0.3146  0.5903
  137MOL0     C18423  11.023   1.362   0.853 -1.1707  0.4962 -0.4127
  137MOL0     C18424  11.157   1.443   0.859  0.0776 -0.2014  0.5630
  137MOL0     C18425  11.264   1.502   0.839  0.2667 -0.4801 -0.7144
  137MOL0     C18426  10.498   1.850   1.074 -0.0508 -0.4190  0.4302
  137MOL0     C18427  10.384   1.932   1.043 -0.8024 -0.9063  0.3256
  137MOL0     H18428  10.144   2.363   0.952 -1.1116  2.0951 -1.9747
  137MOL0     H18429   9.943   2.495   0.921  0.3386  0.3592  0.2061
  137MOL0     H18430   9.690   2.589   0.947  1.4431 -1.3221  0.5360
  137MOL0     H18431   9.763   2.558   0.788  0.4735  0.7696  1.7749
  137MOL0     H18432   9.497   2.502   0.736  2.7918 -3.1366  0.6320
  137MOL0     H18433   9.460   2.580   0.881  2.7694 -0.8260  1.6771
  137MOL0     H18434   9.624   2.762   0.777 -0.3149 -0.5403 -1.0216
  137MOL0     H18435   9.565   2.675   0.625 -4.7672 -1.7725 -0.9483
  137MOL0     H18436   9.340   2.720   0.658 -0.8665  0.6730 -0.0261
  137MOL0     H18437   9.362   2.786   0.820 -1.9348  1.8178 -0.8516
  137MOL0     H18438   9.327   2.961   0.667  1.7669  2.5066 -0.8905
  137MOL0     H18439   9.484   2.971   0.729  0.6415 -0.5452  0.2710
  137MOL0     H18440   9.583   2.870   0.504  1.6655  2.3893 -1.2367
  137MOL0     H18441   9.415   2.856   0.462 -0.3058  1.9265  1.1381
  137MOL0     H18442   9.377   3.094   0.502 -1.2728 -0.8626 -0.5099
  137MOL0     H18443   9.562   3.100   0.519  0.2270 -1.4907 -1.0343
  137MOL0     H18444   9.408   2.999   0.268  0.7357 -1.6378  0.3385
  137MOL0     H18445   9.589   3.005   0.296  1.1929  1.8752 -1.7205
  137MOL0     H18446   9.684   3.241   0.369  2.6622 -0.4738 -3.3134
  137MOL0     H18447   9.651   3.504   0.426  1.2041  2.1871  0.1571
  137MOL0     H18448   9.671   3.563   0.264  2.1506 -1.8590  0.9537
  137MOL0     H18449   9.426   3.607   0.441  2.8047 -1.9677  2.1509
  137MOL0     H18450   9.416   3.625   0.270 -0.9469 -2.9010  0.6435
  137MOL0     H18451   9.640   3.802   0.341  0.1300  1.1919  1.7945
  137MOL0     H18452   9.555   3.798   0.492 -1.5084 -0.2223  0.0618
  137MOL0     H18453   9.427   3.847   0.223  1.3154  3.3231 -1.1703
  137MOL0     H18454   9.500   3.975   0.315  0.4543  0.0752  1.7237
  137MOL0     H18455   9.509   4.063   0.492 -0.6063 -0.3648 -1.1519
  137MOL0     H18456   9.599   4.241   0.661  0.2617 -0.4757  1.6074
  137MOL0     H18457   9.508   4.375   0.647  5.0002  1.4737  2.2034
  137MOL0     H18458   9.490   4.270   0.799  2.4427  0.1600  0.2766
  137MOL0     H18459   8.974   4.331   0.951  0.5248  1.4082  5.4020
  137MOL0     H18460   8.864   4.480   1.092  2.3463  1.8887  1.2209
  137MOL0     H18461   8.673   4.642   1.026  0.4924  1.1211 -0.8004
  137MOL0     H18462   8.737   4.633   1.197 -2.1466  0.8830  1.7451
  137MOL0     H18463   8.528   4.775   1.166  1.6282  0.1189  0.2894
  137MOL0     H18464   8.660   4.854   1.244  2.2322 -1.0903  0.3464
  137MOL0     H18465   8.712   4.978   1.044  0.8912 -2.2777 -1.0826
  137MOL0     H18466   8.542   5.007   1.074 -2.2396 -2.3987  0.1941
  137MOL0     H18467   8.615   4.976   0.839  1.7410 -0.5520  0.3093
  137MOL0     H18468   8.621   4.806   0.859 -1.0840 -0.2803 -0.1434
  137MOL0     H18469   8.359   4.956   0.910 -2.3623 -0.4816 -1.0366
  137MOL0     H18470   8.391   4.796   0.967 -0.7776 -1.3436 -2.1478
  137MOL0     H18471   8.452   4.867   0.683 -3.2159  2.0622  0.0812
  137MOL0     H18472   8.428   4.696   0.747 -0.8029  0.3295  0.4074
  137MOL0     H18473   8.201   4.747   0.808  1.1839  0.8453  1.3541
  137MOL0     H18474   8.224   4.744   0.640 -1.2830  2.1878 -0.8481
  137MOL0     H18475   8.197   4.987   0.630  2.1486 -1.2904  0.6417
  137MOL0     H18476   8.179   4.999   0.804 -1.0106  0.0283  0.0327
  137MOL0     H18477   8.947   4.793   0.802  0.5479 -0.4938 -0.4145
  137MOL0     H18478   9.079   4.655   0.681  2.9229  0.7636  1.9659
  137MOL0     H18479   9.053   4.181   0.615  0.6121  4.6321  0.9662
  137MOL0     H18480   9.103   4.006   0.458  0.3032  2.1148 -1.1564
  137MOL0     H18481   9.690   2.144   0.950  2.1971 -1.8759 -0.3174
  137MOL0     H18482   9.880   2.007   0.994  0.2737 -0.4948 -1.3258
  137MOL0     H18483  10.345   1.846   0.722  2.2289  1.8258 -1.4690
  137MOL0     H18484  10.540   1.714   0.773  2.2280  2.4790 -0.3506
  137MOL0     H18485  10.657   1.536   0.875 -0.2563  0.6308 -1.3881
  137MOL0     H18486  10.728   1.685   0.832 -0.6578 -0.1175  0.6001
  137MOL0     H18487  10.853   1.477   1.034  2.4262 -1.7604 -1.0458
  137MOL0     H18488  10.929   1.620   0.939 -0.4944 -0.1366 -4.0077
  137MOL0     H18489  10.905   1.501   0.735 -2.2048 -0.9589 -0.5581
  137MOL0     H18490  10.810   1.378   0.809 -0.4939  1.4647  0.4121
  137MOL0     H18491  11.028   1.274   0.789 -1.9839  1.2374 -1.5353
  137MOL0     H18492  11.016   1.313   0.951  1.0606  2.2836  0.7311
  137MOL0     H18493  11.338   1.577   0.822  2.2730 -2.6380 -2.0802
  137MOL0     H18494  10.541   1.845   1.173 -0.3101  0.5865  0.6025
  137MOL0     H18495  10.345   1.988   1.128 -0.1962  1.0551 -0.6227
  138MOL0     O18496   6.379   5.365   4.341 -0.4132  0.9338 -0.7909
  138MOL0     C18497   6.373   5.475   4.290  0.2706 -0.3427  0.5029
  138MOL0     O18498   6.257   5.544   4.260 -0.2176 -1.3697 -0.5883
  138MOL0     C18499   6.143   5.476   4.259 -0.2353 -0.1185  0.3249
  138MOL0     C18500   6.095   5.406   4.370  0.1671  0.3142 -0.3854
  138MOL0     C18501   5.964   5.350   4.363 -0.6153 -0.0239  0.3179
  138MOL0     C18502   5.880   5.362   4.250  0.6650 -0.5576 -0.6814
  138MOL0     O18503   5.754   5.309   4.238  0.1391 -0.3804  0.1083
  138MOL0     C18504   5.720   5.200   4.313 -0.0802  1.0742 -0.3194
  138MOL0     C18505   5.585   5.142   4.276  0.6141  0.3174  0.2981
  138MOL0     C18506   5.567   5.018   4.349  0.0820 -0.8169 -0.5690
  138MOL0     C18507   5.567   5.017   4.497  0.5129 -1.0760 -0.1244
  138MOL0     C18508   5.508   4.876   4.552  0.5862 -0.5366  0.0544
  138MOL0     C18509   5.462   4.909   4.702  0.0372  0.7465 -0.0853
  138MOL0     C18510   5.577   4.940   4.800  0.2008 -0.4728  0.2103
  138MOL0     C18511   5.651   4.815   4.853  0.3160 -0.1371  0.0484
  138MOL0     N18512   5.563   4.703   4.865  0.2358 -0.0148  0.9334
  138MOL0     C18513   5.532   4.606   4.765  0.8410  0.1712  0.1152
  138MOL0     C18514   5.410   4.562   4.804 -0.2221  0.1325  0.0763
  138MOL0     C18515   5.344   4.446   4.727 -0.3035 -0.5492 -0.1455
  138MOL0     C18516   5.303   4.330   4.823  0.6105  0.1267 -0.0647
  138MOL0     C18517   5.213   4.221   4.760  0.0724  0.0485 -0.4562
  138MOL0     C18518   5.159   4.113   4.862 -0.0585  0.4686  0.6511
  138MOL0     O18519   5.163   3.989   4.789 -0.9204  0.2375  0.1209
  138MOL0     C18520   5.049   3.951   4.735  0.1500  0.4347  0.7973
  138MOL0     C18521   5.071   3.834   4.661  0.6859 -0.1774  0.1240
  138MOL0     C18522   4.971   3.782   4.574 -0.6240  0.2013 -0.4430
  138MOL0     C18523   5.003   3.659   4.499 -0.3018  0.0304  0.4501
  138MOL0     C18524   4.846   3.848   4.553 -0.3914  0.5130 -0.7877
  138MOL0     C18525   4.745   3.806   4.450 -0.6582  1.1525  0.5037
  138MOL0     O18526   4.645   3.895   4.409 -0.7172  0.6421  0.0281
  138MOL0     C18527   4.549   3.855   4.321 -0.2933 -0.6382 -0.2210
  138MOL0     C18528   4.585   3.816   4.190  0.0331 -0.5571  0.1263
  138MOL0     C18529   4.485   3.764   4.108 -0.9997 -0.2258  0.0358
  138MOL0     C18530   4.352   3.767   4.155  0.2598  0.4817 -0.4662
  138MOL0     O18531   4.247   3.722   4.072 -0.9621 -0.3368  0.3673
  138MOL0     C18532   4.191   3.828   3.995  0.9745  0.5964 -0.1926
  138MOL0     C18533   4.132   3.775   3.868 -1.2641  0.6803 -0.9690
  138MOL0     C18534   4.019   3.678   3.895  0.4718 -1.1113 -0.8996
  138MOL0     C18535   3.929   3.656   3.762 -0.3036 -0.3966  0.6068
  138MOL0     C18536   3.817   3.548   3.790  0.2381  0.3855  0.0301
  138MOL0     C18537   3.751   3.516   3.655 -0.1561 -0.7507 -0.7706
  138MOL0     C18538   3.637   3.423   3.663  0.1564  0.4677  0.6313
  138MOL0     C18539   3.573   3.396   3.525  0.1697  0.0052 -0.4331
  138MOL0    Cl18540   3.457   3.251   3.534 -0.1089 -0.0227 -0.1416
  138MOL0     C18541   4.318   3.816   4.285 -0.5031 -0.6334  0.1433
  138MOL0     C18542   4.421   3.858   4.368  0.5042  0.2260 -0.4304
  138MOL0     O18543   4.749   3.690   4.414 -0.3584 -0.5481  0.4592
  138MOL0     C18544   4.834   3.968   4.631  0.1087  0.3545  0.1637
  138MOL0     C18545   4.925   4.020   4.718 -0.5726  0.4565  0.4982
  138MOL0     N18546   5.372   4.616   4.921 -0.4183  0.0662  0.8151
  138MOL0     N18547   5.472   4.693   4.964  0.0937  0.0261  0.0538
  138MOL0     C18548   5.934   5.432   4.141  1.0431  0.9598 -0.1305
  138MOL0     C18549   6.057   5.491   4.152  0.4502 -0.5096 -0.0527
  138MOL0     C18550   6.507   5.545   4.252  0.1712 -0.1904  0.2623
  138MOL0     C18551   6.626   5.477   4.269  0.1458 -0.0304 -0.3341
  138MOL0     C18552   6.748   5.534   4.227  0.3317  0.2345 -1.3375
  138MOL0     C18553   6.750   5.659   4.173  1.0590  0.0284  0.3488
  138MOL0     O18554   6.868   5.707   4.129 -0.0911  0.3283 -0.2789
  138MOL0     C18555   6.887   5.824   4.045 -0.0280 -0.4657  0.0070
  138MOL0     C18556   6.818   5.800   3.907 -1.6400  0.0143  0.3947
  138MOL0     C18557   6.882   5.676   3.831  0.5216 -0.0228  0.2700
  138MOL0     C18558   6.797   5.627   3.710 -0.7752  0.4442  0.5624
  138MOL0     C18559   6.864   5.508   3.661 -1.1647 -0.2114  1.0786
  138MOL0     C18560   6.926   5.417   3.603 -0.2154  0.2836 -0.5742
  138MOL0     C18561   6.635   5.733   4.172  0.4228  0.1953  0.0570
  138MOL0     C18562   6.508   5.674   4.206 -0.0510 -0.3023 -0.0290
  138MOL0     H18563   6.154   5.419   4.461  0.1929  4.1670 -0.7668
  138MOL0     H18564   5.933   5.307   4.458  1.2688 -1.2052  0.4488
  138MOL0     H18565   5.798   5.126   4.294  0.4427  2.1323 -2.5293
  138MOL0     H18566   5.725   5.226   4.419  1.7265 -0.6357  0.0912
  138MOL0     H18567   5.501   5.207   4.303 -1.0867 -1.7795  0.2689
  138MOL0     H18568   5.581   5.129   4.168  2.8074 -0.1414  0.2356
  138MOL0     H18569   5.470   4.983   4.314 -0.2806  0.3414 -0.7703
  138MOL0     H18570   5.639   4.945   4.312  1.1372  1.1196 -2.5802
  138MOL0     H18571   5.663   5.043   4.540  0.8426 -0.2031 -1.3140
  138MOL0     H18572   5.498   5.098   4.524  2.2036 -0.1896  1.7439
  138MOL0     H18573   5.421   4.851   4.491 -0.2846 -0.6445  1.3015
  138MOL0     H18574   5.570   4.789   4.570  1.4756  0.8358  5.5751
  138MOL0     H18575   5.402   4.999   4.686  0.2583  1.1401  1.2399
  138MOL0     H18576   5.393   4.830   4.734 -0.8467  0.4432 -2.4854
  138MOL0     H18577   5.654   4.999   4.749 -2.6559  1.4749 -2.2027
  138MOL0     H18578   5.554   5.008   4.883  0.8162 -0.8000  0.6603
  138MOL0     H18579   5.687   4.831   4.955 -2.7863  1.1546  1.0777
  138MOL0     H18580   5.729   4.777   4.787 -1.9790  1.3847 -3.9152
  138MOL0     H18581   5.583   4.584   4.672 -0.2987 -1.2026 -0.2197
  138MOL0     H18582   5.260   4.496   4.678  0.8238  2.4028  0.7133
  138MOL0     H18583   5.410   4.419   4.643  1.2339  0.0413  0.8267
  138MOL0     H18584   5.250   4.377   4.907  2.7298  1.3402  0.6777
  138MOL0     H18585   5.398   4.282   4.847  0.3405 -0.5663 -0.3638
  138MOL0     H18586   5.270   4.176   4.677 -0.3936 -3.1382  0.7971
  138MOL0     H18587   5.122   4.266   4.720  0.6879  1.3186 -0.4839
  138MOL0     H18588   5.061   4.135   4.906  1.1835  1.3934  3.1911
  138MOL0     H18589   5.221   4.099   4.951 -1.0192 -1.0698  1.1202
  138MOL0     H18590   5.170   3.790   4.665  1.2332  0.9239 -0.8222
  138MOL0     H18591   4.930   3.580   4.513 -0.8353  0.3951 -0.2100
  138MOL0     H18592   5.004   3.673   4.390 -0.5274 -3.3618 -0.0790
  138MOL0     H18593   5.099   3.617   4.529  0.2154 -0.8563 -2.1332
  138MOL0     H18594   4.686   3.814   4.152 -1.4301  0.7843 -4.4489
  138MOL0     H18595   4.508   3.747   4.003 -2.2331 -0.9827 -0.1209
  138MOL0     H18596   4.110   3.868   4.057  0.4236 -0.3769 -0.2682
  138MOL0     H18597   4.265   3.904   3.966  2.2220 -0.1501  0.9415
  138MOL0     H18598   4.105   3.864   3.809 -0.2438  0.8259 -1.2264
  138MOL0     H18599   4.212   3.721   3.817 -2.2213 -1.9918  0.2013
  138MOL0     H18600   3.949   3.722   3.966  1.1693 -0.4176 -0.6368
  138MOL0     H18601   4.053   3.579   3.929  1.8281 -0.3552  0.0106
  138MOL0     H18602   3.882   3.747   3.724  0.8473 -0.5342 -1.2831
  138MOL0     H18603   3.987   3.609   3.682 -2.9520 -1.7349 -0.6233
  138MOL0     H18604   3.745   3.591   3.861  0.6844  2.0927 -0.5292
  138MOL0     H18605   3.869   3.458   3.826 -1.4658 -1.1917 -1.2253
  138MOL0     H18606   3.728   3.610   3.603  0.9926  0.4696  0.8302
  138MOL0     H18607   3.821   3.468   3.587  0.0649 -0.1242 -0.9973
  138MOL0     H18608   3.560   3.466   3.728 -0.1499 -1.6536  1.7742
  138MOL0     H18609   3.667   3.326   3.705  1.8640  0.6989  0.0223
  138MOL0     H18610   3.651   3.385   3.450  0.3521  0.3207 -0.2915
  138MOL0     H18611   3.512   3.484   3.500 -0.6450 -0.0918  1.0670
  138MOL0     H18612   4.217   3.794   4.318 -0.9303 -0.5667 -1.0778
  138MOL0     H18613   4.402   3.908   4.463  1.3558  2.6528 -1.4647
  138MOL0     H18614   4.740   4.023   4.626  0.9878  1.9546  0.5556
  138MOL0     H18615   4.896   4.112   4.768  3.3320  2.4917 -0.5325
  138MOL0     H18616   5.876   5.440   4.050 -2.3308 -1.2104  1.6197
  138MOL0     H18617   6.088   5.569   4.083  1.6383  0.9632  2.0379
  138MOL0     H18618   6.629   5.372   4.299  0.4121  0.0650 -0.0174
  138MOL0     H18619   6.838   5.480   4.253  0.6162  2.0427  1.9499
  138MOL0     H18620   6.858   5.917   4.096  1.7359 -1.2204  2.6123
  138MOL0     H18621   6.993   5.845   4.026 -0.1722 -0.0761 -0.3829
  138MOL0     H18622   6.842   5.892   3.853  0.7547 -1.3910 -1.1229
  138MOL0     H18623   6.709   5.792   3.910 -1.6962 -1.0789 -2.2348
  138MOL0     H18624   6.895   5.594   3.902 -2.4549  0.2446  1.2631
  138MOL0     H18625   6.982   5.697   3.793 -0.1040  0.8916 -0.9513
  138MOL0     H18626   6.796   5.695   3.624 -0.1151  0.2400  0.3926
  138MOL0     H18627   6.695   5.613   3.749 -0.3928 -1.7185  0.8781
  138MOL0     H18628   6.968   5.329   3.558 -1.6513 -0.5544 -0.3218
  138MOL0     H18629   6.635   5.831   4.127 -1.3826  0.4946  0.6214
  138MOL0     H18630   6.413   5.721   4.182 -1.1487 -2.0038  0.7733
  139MOL0     O18631   2.418   7.767   4.195  0.8634 -0.1947  0.5368
  139MOL0     C18632   2.298   7.750   4.192 -0.2806  0.2084 -0.7823
  139MOL0     O18633   2.207   7.835   4.242  0.1443  0.1530 -0.5136
  139MOL0     C18634   2.264   7.934   4.324  0.0329  0.3898 -0.6582
  139MOL0     C18635   2.285   7.900   4.458  0.0400  0.0751  0.7951
  139MOL0     C18636   2.357   7.984   4.538 -0.0702 -0.6067  0.0280
  139MOL0     C18637   2.407   8.114   4.494 -0.0086  0.8551  0.6536
  139MOL0     O18638   2.467   8.214   4.562 -0.8778 -0.2423 -0.6453
  139MOL0     C18639   2.485   8.196   4.702 -0.1548  0.6784 -0.3582
  139MOL0     C18640   2.559   8.302   4.772  0.3130 -0.9844  0.0561
  139MOL0     C18641   2.457   8.419   4.796 -0.1178 -0.5922 -0.1936
  139MOL0     C18642   2.533   8.552   4.846  0.7981  0.1381  0.8875
  139MOL0     C18643   2.437   8.648   4.920 -0.3197  0.5134  0.2654
  139MOL0     C18644   2.303   8.667   4.850  0.0642 -0.1132  0.5298
  139MOL0     C18645   2.256   8.820   4.874  0.4406 -0.6221 -0.1173
  139MOL0     C18646   2.139   8.852   4.782 -1.1816  0.7545  0.9909
  139MOL0     N18647   2.083   8.985   4.810  0.1742 -0.3757 -0.3238
  139MOL0     C18648   1.966   9.036   4.745 -1.3380 -0.8032 -0.0085
  139MOL0     C18649   1.959   9.172   4.774  0.9701  0.3290 -0.9016
  139MOL0     C18650   1.858   9.275   4.740 -0.5560 -0.3826 -0.1712
  139MOL0     C18651   1.796   9.350   4.864  0.4831  0.0350  1.0206
  139MOL0     C18652   1.655   9.397   4.829 -0.7048 -0.3368 -0.1578
  139MOL0     C18653   1.589   9.490   4.936 -0.6189 -0.1685  0.1575
  139MOL0     O18654   1.472   9.546   4.878  0.0220 -0.0940  0.4676
  139MOL0     C18655   1.399   9.656   4.924 -0.1750  0.2826  0.0262
  139MOL0     C18656   1.432   9.750   5.020  0.1872  0.2383  0.1511
  139MOL0     C18657   1.348   9.849   5.076  0.3979 -0.9646 -0.4935
  139MOL0     C18658   1.405   9.946   5.175 -0.0534  0.2779  0.0571
  139MOL0     C18659   1.209   9.839   5.040 -0.9324 -0.5419  0.5276
  139MOL0     C18660   1.106   9.918   5.107 -0.1201 -0.4398  0.7635
  139MOL0     O18661   0.998   9.837   5.133 -0.8302 -0.2726 -0.2265
  139MOL0     C18662   0.890   9.905   5.172  0.5691 -0.6887  0.4113
  139MOL0     C18663   0.820   9.853   5.276 -0.0765 -0.1211 -0.2500
  139MOL0     C18664   0.692   9.908   5.312 -0.5285  0.0188  0.9161
  139MOL0     C18665   0.637  10.016   5.235 -0.3096 -0.4991 -0.5322
  139MOL0     O18666   0.503  10.057   5.250 -0.4676 -0.1328 -0.1748
  139MOL0     C18667   0.404   9.969   5.313 -0.2692 -0.3319 -0.0515
  139MOL0     C18668   0.264  10.018   5.300 -0.1179 -0.6621  0.1445
  139MOL0     C18669   0.244  10.151   5.362  0.4549 -0.6488  1.1398
  139MOL0     C18670   0.113  10.212   5.324  0.2957 -0.1136 -0.2092
  139MOL0     C18671   0.099  10.353   5.386  0.0136  0.4795  0.1072
  139MOL0     C18672  -0.045  10.406   5.399  0.8711  0.5930  0.7172
  139MOL0     C18673  -0.129  10.407   5.272 -0.7732  1.0740 -0.6066
  139MOL0     C18674  -0.278  10.436   5.291  0.8703 -0.0103 -0.2412
  139MOL0    Cl18675  -0.360  10.401   5.136 -0.2473  0.1015 -0.1064
  139MOL0     C18676   0.721  10.080   5.144 -0.2635 -0.0118  0.7705
  139MOL0     C18677   0.841  10.018   5.104 -0.0921 -1.0814 -0.3395
  139MOL0     O18678   1.127  10.038   5.137  0.1762 -0.8611  0.0403
  139MOL0     C18679   1.173   9.754   4.932 -0.3238 -0.8658 -0.3328
  139MOL0     C18680   1.269   9.661   4.886 -0.5919 -0.0107  0.2601
  139MOL0     N18681   2.066   9.197   4.860  0.3866  0.1652  0.7588
  139MOL0     N18682   2.136   9.092   4.879 -0.1780  0.2500  0.0535
  139MOL0     C18683   2.370   8.153   4.362  0.0292  1.0723 -0.7287
  139MOL0     C18684   2.303   8.061   4.281  0.7571 -0.8426 -0.3689
  139MOL0     C18685   2.260   7.611   4.152 -0.3372  0.2715 -0.6624
  139MOL0     C18686   2.362   7.531   4.088 -0.2956 -0.6063  0.1199
  139MOL0     C18687   2.346   7.395   4.065 -0.4512 -0.4274 -0.3166
  139MOL0     C18688   2.234   7.338   4.108 -0.0365 -0.0814 -0.3610
  139MOL0     O18689   2.215   7.208   4.080  0.3902 -0.3902  0.1533
  139MOL0     C18690   2.207   7.121   4.196 -0.2969 -0.6820  0.1320
  139MOL0     C18691   2.104   7.018   4.201 -0.0842  0.2856  0.9687
  139MOL0     C18692   1.970   7.058   4.141  1.0403 -0.8543  0.0336
  139MOL0     C18693   1.863   6.943   4.172 -0.1417 -0.1882  0.4808
  139MOL0     C18694   1.737   6.979   4.102 -0.4815  0.1962 -0.0861
  139MOL0     C18695   1.638   7.010   4.048  0.5079 -0.5729  0.9285
  139MOL0     C18696   2.127   7.412   4.169  0.3348  0.6434 -0.7249
  139MOL0     C18697   2.136   7.551   4.183 -0.2385  1.0183  0.7444
  139MOL0     H18698   2.250   7.805   4.498  1.2871 -1.5244 -1.6779
  139MOL0     H18699   2.383   7.949   4.638  0.9142 -0.4437 -0.1678
  139MOL0     H18700   2.392   8.166   4.750 -0.2301  2.0973  0.4591
  139MOL0     H18701   2.540   8.104   4.722 -0.9428  0.3229  0.1880
  139MOL0     H18702   2.602   8.275   4.869 -0.8248  0.1870  0.9364
  139MOL0     H18703   2.637   8.338   4.703 -1.6360  2.4574 -0.5747
  139MOL0     H18704   2.412   8.431   4.697  1.3971  1.5858 -0.6975
  139MOL0     H18705   2.386   8.392   4.875 -0.4421  0.1235 -0.2378
  139MOL0     H18706   2.621   8.526   4.906  0.6805 -2.0005  0.1928
  139MOL0     H18707   2.568   8.602   4.756 -2.5989  1.6861  0.2938
  139MOL0     H18708   2.405   8.613   5.019  1.1100 -1.1138  0.1931
  139MOL0     H18709   2.486   8.746   4.929 -1.9891  1.4353 -0.1936
  139MOL0     H18710   2.315   8.646   4.743 -1.1066 -1.2318  0.5976
  139MOL0     H18711   2.225   8.607   4.897 -2.1637  1.2215 -1.2654
  139MOL0     H18712   2.220   8.833   4.977 -1.1089  2.4391 -0.8911
  139MOL0     H18713   2.336   8.892   4.855  0.2590 -0.3547  0.1070
  139MOL0     H18714   2.060   8.777   4.777 -0.5327 -0.0915  2.6617
  139MOL0     H18715   2.177   8.857   4.679 -2.6602 -0.8915  0.3253
  139MOL0     H18716   1.887   8.979   4.697 -0.5044 -0.6819 -1.5755
  139MOL0     H18717   1.906   9.343   4.669  1.4496 -0.9700  0.5579
  139MOL0     H18718   1.786   9.212   4.686  0.3402 -3.3942  1.8891
  139MOL0     H18719   1.859   9.434   4.894  1.1326 -0.2360  0.4370
  139MOL0     H18720   1.783   9.279   4.945  3.4870  0.4373  1.9827
  139MOL0     H18721   1.585   9.317   4.803  1.0368 -1.0708 -3.0258
  139MOL0     H18722   1.659   9.470   4.747 -0.7692 -0.0907  0.0573
  139MOL0     H18723   1.659   9.568   4.967  0.1623 -0.4802 -0.7750
  139MOL0     H18724   1.567   9.423   5.019 -0.6729 -0.7421 -0.3184
  139MOL0     H18725   1.537   9.741   5.049  0.9380  0.7482 -2.1610
  139MOL0     H18726   1.356  10.043   5.184 -1.1029 -0.1850 -0.5365
  139MOL0     H18727   1.400   9.900   5.274 -3.6867  1.6059  0.6258
  139MOL0     H18728   1.508   9.968   5.143  0.6664 -3.0961 -0.3246
  139MOL0     H18729   0.852   9.766   5.332 -2.6834  0.4460  2.3709
  139MOL0     H18730   0.629   9.865   5.389 -2.2568  2.2349  0.8209
  139MOL0     H18731   0.418   9.868   5.274 -1.8802 -0.5463 -0.1444
  139MOL0     H18732   0.430   9.953   5.418 -3.0947 -2.6861  0.4096
  139MOL0     H18733   0.245  10.017   5.192  2.7135 -2.0795 -0.4243
  139MOL0     H18734   0.192   9.943   5.335  0.8595 -1.7354 -0.0801
  139MOL0     H18735   0.321  10.224   5.336 -0.5360 -0.7957 -2.8299
  139MOL0     H18736   0.248  10.145   5.472  2.4627  3.1788  1.4454
  139MOL0     H18737   0.101  10.224   5.215 -3.1739  2.1435  0.2730
  139MOL0     H18738   0.042  10.139   5.361  2.1777 -3.4987 -2.7224
  139MOL0     H18739   0.162  10.417   5.324 -0.2074 -0.5672 -1.2358
  139MOL0     H18740   0.137  10.355   5.489  0.7569 -0.7029 -0.1189
  139MOL0     H18741  -0.101  10.354   5.477 -0.4114  1.0751  0.1475
  139MOL0     H18742  -0.035  10.505   5.445  0.8391  0.9421 -0.0054
  139MOL0     H18743  -0.124  10.309   5.223 -2.3063  1.5016 -1.6781
  139MOL0     H18744  -0.075  10.474   5.204 -0.7254  1.0648 -0.5784
  139MOL0     H18745  -0.300  10.535   5.332  0.7321 -1.4062  3.4802
  139MOL0     H18746  -0.320  10.362   5.360  1.5317 -0.7756 -0.6521
  139MOL0     H18747   0.686  10.169   5.092  3.6340  1.0342 -0.4245
  139MOL0     H18748   0.904  10.066   5.030 -0.6147 -1.1420 -0.8391
  139MOL0     H18749   1.075   9.747   4.885  0.0311  0.4927 -1.3111
  139MOL0     H18750   1.250   9.595   4.802  1.6431 -1.1373  0.5515
  139MOL0     H18751   2.409   8.249   4.328 -0.0141  1.3111 -0.1120
  139MOL0     H18752   2.272   8.086   4.179  2.5352  2.2721 -0.3005
  139MOL0     H18753   2.440   7.589   4.038  0.3282  0.3591  2.1178
  139MOL0     H18754   2.420   7.339   4.008  1.2734  2.2865 -0.9162
  139MOL0     H18755   2.306   7.077   4.209 -0.0324 -0.4075 -0.8412
  139MOL0     H18756   2.188   7.173   4.291 -0.3319 -0.5412  0.0488
  139MOL0     H18757   2.087   6.980   4.302 -0.4665 -1.2514  0.3473
  139MOL0     H18758   2.140   6.929   4.149 -2.6975 -0.5057  0.3571
  139MOL0     H18759   1.990   7.059   4.034  1.3856  2.4751 -0.0005
  139MOL0     H18760   1.940   7.157   4.177  1.1933 -0.0580 -1.9324
  139MOL0     H18761   1.853   6.906   4.274  1.1067  1.3341  1.1941
  139MOL0     H18762   1.905   6.855   4.121  0.0777 -1.3440  2.5262
  139MOL0     H18763   1.556   7.057   3.998  0.4482  1.2048  2.5807
  139MOL0     H18764   2.037   7.367   4.210  1.7317 -1.4522  0.2401
  139MOL0     H18765   2.043   7.601   4.208 -1.8708 -1.0925 -0.6944
  140MOL0     O18766   9.468   7.934   7.874 -0.6914  0.4267  0.1342
  140MOL0     C18767   9.568   8.003   7.898 -0.8847 -0.1402 -0.3694
  140MOL0     O18768   9.582   8.139   7.862  0.5064  0.5471 -0.1790
  140MOL0     C18769   9.497   8.202   7.769 -0.4270  0.3430 -0.3992
  140MOL0     C18770   9.506   8.341   7.756  0.7693 -0.1227  0.0438
  140MOL0     C18771   9.431   8.412   7.667  0.0380 -0.9412  0.6443
  140MOL0     C18772   9.340   8.354   7.576  0.2154 -0.4780  0.9983
  140MOL0     O18773   9.259   8.420   7.489 -0.2685  0.3351  0.1036
  140MOL0     C18774   9.203   8.549   7.522  0.1945  0.5815 -0.4160
  140MOL0     C18775   9.072   8.566   7.439 -0.0169  0.3050  0.1536
  140MOL0     C18776   8.944   8.481   7.455  0.8587 -0.3475 -0.0302
  140MOL0     C18777   8.808   8.556   7.425 -0.9230 -0.8981  0.5988
  140MOL0     C18778   8.682   8.473   7.440  0.3083 -0.9714 -0.3854
  140MOL0     C18779   8.654   8.433   7.585 -0.3820  0.3266 -0.3253
  140MOL0     C18780   8.563   8.318   7.578  0.1713 -0.3426  0.3764
  140MOL0     C18781   8.503   8.265   7.716 -0.4802  0.2487 -0.1855
  140MOL0     N18782   8.450   8.129   7.726 -0.6685  0.1816  0.1616
  140MOL0     C18783   8.499   8.010   7.767 -0.6312  0.8522 -0.5618
  140MOL0     C18784   8.403   7.913   7.745  0.4349 -0.0657 -0.2857
  140MOL0     C18785   8.408   7.765   7.791 -0.5238 -0.8105 -0.0900
  140MOL0     C18786   8.302   7.728   7.900 -0.0269 -0.0629  0.3036
  140MOL0     C18787   8.314   7.598   7.975  0.1589 -0.1827 -0.2252
  140MOL0     C18788   8.177   7.557   8.032  0.4281 -0.2678 -0.2895
  140MOL0     O18789   8.145   7.657   8.129  0.0370 -0.3665 -0.1493
  140MOL0     C18790   8.024   7.657   8.192 -0.3332  0.0551 -0.0851
  140MOL0     C18791   7.986   7.765   8.272 -0.8766  0.2796 -0.5419
  140MOL0     C18792   7.869   7.770   8.344 -0.6637  0.0978  0.5184
  140MOL0     C18793   7.846   7.887   8.444  0.3614 -0.0985 -0.4707
  140MOL0     C18794   7.777   7.659   8.336  0.4548 -0.2496 -0.7800
  140MOL0     C18795   7.644   7.660   8.400 -0.8516 -0.0932  0.5098
  140MOL0     O18796   7.574   7.782   8.398 -0.0929 -0.3369 -0.3082
  140MOL0     C18797   7.444   7.778   8.436  0.9150  0.1509  0.7402
  140MOL0     C18798   7.398   7.759   8.562 -0.2770  0.4142 -0.0154
  140MOL0     C18799   7.266   7.740   8.605  0.0084  0.3611 -0.2565
  140MOL0     C18800   7.174   7.756   8.498 -0.1226  0.3271 -0.2872
  140MOL0     O18801   7.036   7.781   8.513  0.0506 -0.1685 -0.4423
  140MOL0     C18802   6.981   7.816   8.639 -0.4125  0.2687 -0.5601
  140MOL0     C18803   6.827   7.840   8.608 -0.0922  0.1747  0.7203
  140MOL0     C18804   6.758   7.909   8.720  1.0598  0.2544 -0.1530
  140MOL0     C18805   6.615   7.964   8.685 -0.5671 -0.2261 -0.1660
  140MOL0     C18806   6.549   7.997   8.816  1.3675  0.2944 -0.1947
  140MOL0     C18807   6.596   8.131   8.877 -0.5261  0.0581 -0.1904
  140MOL0     C18808   6.600   8.109   9.029 -0.7031  0.5206  1.3449
  140MOL0     C18809   6.667   8.231   9.093 -0.5269 -0.0517 -0.2018
  140MOL0    Cl18810   6.681   8.204   9.268  0.4329 -0.3506 -0.8638
  140MOL0     C18811   7.224   7.775   8.365 -0.2244 -0.0626 -0.1820
  140MOL0     C18812   7.357   7.795   8.338  0.7880 -0.1587  0.9390
  140MOL0     O18813   7.590   7.548   8.433 -0.4639 -0.5310  0.9655
  140MOL0     C18814   7.809   7.558   8.253  0.2707  0.8639 -0.5270
  140MOL0     C18815   7.933   7.553   8.183 -0.6448 -0.8323 -0.1220
  140MOL0     N18816   8.292   7.975   7.686  0.6129  0.2444  0.3365
  140MOL0     N18817   8.333   8.100   7.668 -0.0685 -0.0509 -0.9772
  140MOL0     C18818   9.344   8.213   7.581 -0.0877 -0.1280  0.4278
  140MOL0     C18819   9.422   8.138   7.666  0.3377 -0.1549 -0.4136
  140MOL0     C18820   9.682   7.941   7.978 -0.5442  0.2108  0.3960
  140MOL0     C18821   9.806   8.001   7.993 -0.7205 -0.1412  0.6146
  140MOL0     C18822   9.907   7.939   8.070  0.5864  0.6787 -0.5595
  140MOL0     C18823   9.884   7.815   8.132 -0.3050  0.5415 -0.0752
  140MOL0     O18824   9.965   7.754   8.231  0.2486 -0.2855  0.6424
  140MOL0     C18825  10.102   7.740   8.192  0.4226  0.4191  0.1515
  140MOL0     C18826  10.180   7.722   8.317  0.4001  0.1218  0.1372
  140MOL0     C18827  10.131   7.584   8.382 -0.0640 -0.2878 -0.1747
  140MOL0     C18828  10.209   7.564   8.514 -0.5029 -0.6212  1.0911
  140MOL0     C18829  10.353   7.593   8.521 -0.2142 -0.3159 -0.1587
  140MOL0     C18830  10.471   7.603   8.515  0.5296  0.0542 -0.6075
  140MOL0     C18831   9.762   7.748   8.101 -1.5317 -0.2391 -0.1524
  140MOL0     C18832   9.668   7.805   8.021  1.0181  0.2108  0.3427
  140MOL0     H18833   9.563   8.401   7.827 -0.7591  0.7144  0.5969
  140MOL0     H18834   9.449   8.519   7.657  2.4235 -1.4824 -1.6463
  140MOL0     H18835   9.182   8.551   7.630  0.7083  0.2665 -0.3047
  140MOL0     H18836   9.279   8.621   7.490  0.6913 -0.6714 -2.1863
  140MOL0     H18837   9.036   8.668   7.453 -0.7149 -0.3753  4.7349
  140MOL0     H18838   9.111   8.551   7.338 -2.1157 -1.8770 -0.4239
  140MOL0     H18839   8.949   8.387   7.400  2.4824 -1.6917  2.2160
  140MOL0     H18840   8.937   8.448   7.559 -0.4427 -0.0210  0.0008
  140MOL0     H18841   8.801   8.651   7.477 -3.2681  1.1022 -2.9608
  140MOL0     H18842   8.814   8.592   7.322  0.0694  2.4168  1.6843
  140MOL0     H18843   8.589   8.524   7.413 -1.5377 -2.3801  2.7401
  140MOL0     H18844   8.692   8.386   7.374 -0.7626 -1.7328  0.4125
  140MOL0     H18845   8.749   8.415   7.635  0.1127 -0.9869 -1.6432
  140MOL0     H18846   8.598   8.512   7.636 -1.7131 -1.3985  1.0159
  140MOL0     H18847   8.484   8.347   7.508  1.4742 -0.0134 -1.0112
  140MOL0     H18848   8.611   8.231   7.533  0.3584  0.5345 -1.2041
  140MOL0     H18849   8.429   8.339   7.749  2.1756  3.9176 -1.6763
  140MOL0     H18850   8.595   8.282   7.773 -0.3968 -0.1876 -0.1904
  140MOL0     H18851   8.597   7.997   7.812 -0.5461  0.4013 -0.8654
  140MOL0     H18852   8.391   7.706   7.700 -0.3113 -0.2500 -0.5007
  140MOL0     H18853   8.504   7.744   7.839  0.9334 -0.4992 -2.6687
  140MOL0     H18854   8.203   7.736   7.852 -1.0234 -2.6212  1.7029
  140MOL0     H18855   8.297   7.813   7.968 -2.2061  0.3382 -0.2904
  140MOL0     H18856   8.386   7.612   8.056  0.4412 -0.2294 -0.4641
  140MOL0     H18857   8.346   7.513   7.913 -1.8742 -1.8440  0.9018
  140MOL0     H18858   8.176   7.452   8.063  2.2162 -0.6020 -1.2122
  140MOL0     H18859   8.095   7.564   7.959  0.6395 -0.5217 -0.5518
  140MOL0     H18860   8.059   7.843   8.291 -2.2928  1.0193  2.4441
  140MOL0     H18861   7.788   7.859   8.532 -0.5472  1.1576 -0.6431
  140MOL0     H18862   7.943   7.930   8.471 -0.1052 -1.0404  3.1452
  140MOL0     H18863   7.786   7.962   8.391 -1.8574 -3.3833 -2.9814
  140MOL0     H18864   7.469   7.744   8.642  1.6878  1.9764 -1.3641
  140MOL0     H18865   7.238   7.710   8.706  0.8249 -0.7616 -0.3434
  140MOL0     H18866   6.996   7.747   8.722 -1.2554  1.2355  0.4342
  140MOL0     H18867   7.022   7.907   8.685 -1.1367  0.3762 -0.1127
  140MOL0     H18868   6.811   7.900   8.518 -1.0689  0.2002  0.8994
  140MOL0     H18869   6.777   7.743   8.595  1.0597 -0.4708  0.9525
  140MOL0     H18870   6.821   7.996   8.740  0.6368  0.8094 -1.1868
  140MOL0     H18871   6.756   7.846   8.809 -1.5952  0.5746  0.0946
  140MOL0     H18872   6.601   8.048   8.616  2.3805 -0.0974 -0.7189
  140MOL0     H18873   6.558   7.886   8.636  2.5799 -1.1466 -2.6502
  140MOL0     H18874   6.580   7.917   8.883  0.5405 -0.8541 -1.1483
  140MOL0     H18875   6.441   7.986   8.829  1.2818  1.0238 -0.2088
  140MOL0     H18876   6.698   8.151   8.843 -0.5325  0.1755 -0.1398
  140MOL0     H18877   6.528   8.209   8.843 -2.5175 -3.2162 -4.7988
  140MOL0     H18878   6.666   8.024   9.049 -1.1349 -0.3421 -0.5906
  140MOL0     H18879   6.500   8.086   9.068 -0.6815 -0.6150  0.7717
  140MOL0     H18880   6.602   8.319   9.086  1.6552  1.8005  1.0680
  140MOL0     H18881   6.765   8.248   9.047 -0.8842  1.2695 -0.5289
  140MOL0     H18882   7.142   7.783   8.294 -1.8923 -0.1033  1.6430
  140MOL0     H18883   7.387   7.816   8.236  2.9403 -1.5472  1.2262
  140MOL0     H18884   7.736   7.478   8.246 -0.2711  1.3430 -0.4043
  140MOL0     H18885   7.946   7.469   8.115 -1.3126  0.5645 -2.0671
  140MOL0     H18886   9.282   8.154   7.515 -0.5723  0.5171  0.2989
  140MOL0     H18887   9.427   8.030   7.663  2.8886 -0.1336  0.2386
  140MOL0     H18888   9.824   8.098   7.947  1.1714 -1.3035 -1.2867
  140MOL0     H18889  10.001   7.994   8.073 -0.3460  2.3066 -0.0655
  140MOL0     H18890  10.110   7.647   8.135  3.1638 -0.7801  2.2191
  140MOL0     H18891  10.135   7.819   8.125  1.0953 -1.8405 -2.3548
  140MOL0     H18892  10.190   7.808   8.383 -0.7969 -0.0195  0.5318
  140MOL0     H18893  10.278   7.705   8.271 -0.0708  1.8496 -1.6353
  140MOL0     H18894  10.165   7.504   8.317  4.3278  1.5789 -0.5412
  140MOL0     H18895  10.022   7.588   8.395 -0.1798 -0.6372 -1.0212
  140MOL0     H18896  10.188   7.461   8.545  1.6182 -1.0761  1.1610
  140MOL0     H18897  10.166   7.623   8.595  1.8498 -1.2184  2.8997
  140MOL0     H18898  10.578   7.607   8.507  0.7991  0.8148  2.2080
  140MOL0     H18899   9.743   7.647   8.137 -1.8588  0.2131  1.0133
  140MOL0     H18900   9.584   7.743   7.989  1.4910 -0.0301 -0.4890
  141MOL0     O18901   9.955   6.837   1.480  0.7893  0.2595 -0.1036
  141MOL0     C18902   9.932   6.785   1.375 -0.4840  0.4529  0.1076
  141MOL0     O18903  10.018   6.695   1.316 -0.1208  0.3205  0.9883
  141MOL0     C18904  10.153   6.721   1.330  0.6250 -0.0285  0.0219
  141MOL0     C18905  10.206   6.804   1.240 -0.6146  0.3078  0.3205
  141MOL0     C18906  10.346   6.834   1.246  0.0883  0.3367 -0.1315
  141MOL0     C18907  10.432   6.766   1.332 -0.6026  0.2117 -0.0995
  141MOL0     O18908  10.559   6.794   1.316 -0.2096 -0.0415  0.5461
  141MOL0     C18909  10.640   6.844   1.432  1.0036  0.0394 -0.0736
  141MOL0     C18910  10.789   6.808   1.403  0.4010  1.1215 -0.9575
  141MOL0     C18911  10.870   6.891   1.503  0.0016  0.3000 -0.1339
  141MOL0     C18912  10.971   6.815   1.588 -1.0242  0.5253  0.3116
  141MOL0     C18913  11.049   6.905   1.695  0.1627  0.3307 -0.3442
  141MOL0     C18914  11.046   6.850   1.841  0.3514 -0.3522 -0.4271
  141MOL0     C18915  11.151   6.926   1.931 -0.4902  0.1212 -0.8118
  141MOL0     C18916  11.303   6.892   1.888 -0.3510 -0.3055  0.0566
  141MOL0     N18917  11.333   6.746   1.877 -0.0795  0.2588 -0.6671
  141MOL0     C18918  11.335   6.649   1.976 -0.2586  0.2638 -0.8461
  141MOL0     C18919  11.405   6.546   1.928 -0.2125 -0.3173  0.0104
  141MOL0     C18920  11.451   6.422   1.999 -0.5293  0.3567 -1.0776
  141MOL0     C18921  11.363   6.296   1.985 -0.1154 -0.3937 -0.9105
  141MOL0     C18922  11.364   6.230   1.848  0.1851 -0.4978  0.4564
  141MOL0     C18923  11.483   6.134   1.825 -0.1024 -1.0010  0.3875
  141MOL0     O18924  11.528   6.059   1.935 -0.4265 -1.0976 -0.9727
  141MOL0     C18925  11.622   5.959   1.918  0.5306  0.7435  0.1589
  141MOL0     C18926  11.638   5.880   2.031 -0.7874  0.1083 -0.0170
  141MOL0     C18927  11.724   5.774   2.042 -0.5802 -0.1299  0.8467
  141MOL0     C18928  11.729   5.688   2.163 -0.6319 -0.2491  0.2321
  141MOL0     C18929  11.802   5.747   1.931 -0.7952  0.5227 -0.0707
  141MOL0     C18930  11.903   5.643   1.911  0.9491  0.4450 -0.1481
  141MOL0     O18931  11.914   5.568   1.795 -0.5271  0.0039  0.5789
  141MOL0     C18932  11.994   5.457   1.783 -0.9488 -1.0128  0.1463
  141MOL0     C18933  12.038   5.422   1.653 -0.6502 -0.2754  0.0587
  141MOL0     C18934  12.134   5.324   1.633  0.5234  0.2085 -1.2724
  141MOL0     C18935  12.189   5.254   1.735 -0.2107  0.8591 -0.9403
  141MOL0     O18936  12.268   5.150   1.697 -0.5895 -0.0743 -0.4058
  141MOL0     C18937  12.367   5.097   1.791 -0.0565 -0.1619  0.0245
  141MOL0     C18938  12.485   5.048   1.720 -0.6667  0.1251  0.0860
  141MOL0     C18939  12.442   4.933   1.627 -0.6318 -0.2214 -0.4976
  141MOL0     C18940  12.565   4.880   1.558 -0.2620 -0.7036  0.2917
  141MOL0     C18941  12.577   4.734   1.502 -0.1351 -0.8789  0.1221
  141MOL0     C18942  12.478   4.725   1.384 -0.5298 -0.7999  0.4953
  141MOL0     C18943  12.494   4.582   1.328 -0.2942 -1.1798  0.1907
  141MOL0     C18944  12.384   4.562   1.228 -0.0113  0.3678  0.2951
  141MOL0    Cl18945  12.380   4.394   1.154  0.1631  0.2693 -0.4761
  141MOL0     C18946  12.147   5.284   1.868 -1.3337 -0.0770 -0.1335
  141MOL0     C18947  12.058   5.387   1.886  0.0355  0.2566 -0.6264
  141MOL0     O18948  11.983   5.625   2.000 -0.2713  0.0471  0.2373
  141MOL0     C18949  11.791   5.821   1.809  0.3092 -0.2268  0.2285
  141MOL0     C18950  11.692   5.920   1.805  0.2632 -0.4337  0.2374
  141MOL0     N18951  11.452   6.582   1.807  0.0705 -0.0196  0.0528
  141MOL0     N18952  11.403   6.697   1.779  0.2672  0.3747  0.1533
  141MOL0     C18953  10.376   6.690   1.437  0.0444 -0.1954 -0.1845
  141MOL0     C18954  10.237   6.669   1.432 -0.7180  0.1458 -0.5646
  141MOL0     C18955   9.798   6.788   1.316 -0.2229  0.1823 -0.0765
  141MOL0     C18956   9.710   6.898   1.350  0.1568 -1.2931  0.8320
  141MOL0     C18957   9.591   6.910   1.281 -0.0853 -0.4602 -0.5633
  141MOL0     C18958   9.553   6.812   1.183  0.4174 -0.1365 -0.0923
  141MOL0     O18959   9.431   6.815   1.130  0.2863 -0.5648  0.7668
  141MOL0     C18960   9.317   6.860   1.214 -0.7533  0.3194  0.4152
  141MOL0     C18961   9.189   6.788   1.174  0.5698  0.7744  0.4263
  141MOL0     C18962   9.192   6.635   1.182  0.7468 -0.4134 -0.3981
  141MOL0     C18963   9.050   6.565   1.183 -1.1916  1.1520 -0.0708
  141MOL0     C18964   8.986   6.594   1.053  0.2507  1.0916 -0.1469
  141MOL0     C18965   8.922   6.626   0.957 -0.6053 -0.0232 -0.0731
  141MOL0     C18966   9.628   6.699   1.155 -0.2754 -0.5840  0.7037
  141MOL0     C18967   9.755   6.693   1.216 -0.2500  0.2008 -0.3537
  141MOL0     H18968  10.146   6.860   1.169 -2.1487 -0.2953  1.0968
  141MOL0     H18969  10.380   6.917   1.185  2.6788  0.1225  0.8952
  141MOL0     H18970  10.618   6.948   1.455  1.7694  0.0262  0.8121
  141MOL0     H18971  10.607   6.791   1.523 -1.5179  0.3815 -0.7076
  141MOL0     H18972  10.804   6.701   1.416 -0.6634  1.1026  0.3863
  141MOL0     H18973  10.803   6.843   1.301  0.2831  3.6820 -0.1885
  141MOL0     H18974  10.920   6.965   1.441 -0.7087 -0.3220 -1.5032
  141MOL0     H18975  10.815   6.948   1.578  0.3312  0.3123  0.1034
  141MOL0     H18976  10.932   6.724   1.635  2.4844 -0.3741  1.8180
  141MOL0     H18977  11.041   6.764   1.521 -1.2214  1.4173 -0.6001
  141MOL0     H18978  11.155   6.915   1.668 -0.1619  0.5416 -1.6258
  141MOL0     H18979  11.010   7.007   1.696  0.7021  0.5524  1.8958
  141MOL0     H18980  10.953   6.876   1.893 -0.0690 -1.8103 -0.3969
  141MOL0     H18981  11.050   6.741   1.848 -2.9396 -0.5376 -0.0210
  141MOL0     H18982  11.127   7.032   1.917  0.4091  0.3191 -0.8613
  141MOL0     H18983  11.172   6.905   2.036 -3.6535  3.3265  0.6692
  141MOL0     H18984  11.368   6.922   1.970  0.3316 -1.3990 -0.0649
  141MOL0     H18985  11.332   6.944   1.796 -0.9707  0.0172  0.0407
  141MOL0     H18986  11.283   6.645   2.071 -1.3498  0.4550 -1.4144
  141MOL0     H18987  11.552   6.389   1.974 -0.9106 -1.5177 -0.3263
  141MOL0     H18988  11.455   6.457   2.103  1.3352 -0.9132 -0.6640
  141MOL0     H18989  11.266   6.336   2.016  0.1554 -1.9055  2.2591
  141MOL0     H18990  11.405   6.228   2.060  0.3958 -0.5904 -1.3700
  141MOL0     H18991  11.366   6.303   1.766 -3.8136 -1.6990 -0.9549
  141MOL0     H18992  11.274   6.168   1.848 -1.5858  1.8866 -0.6354
  141MOL0     H18993  11.567   6.195   1.793 -2.2166  1.2025 -1.3418
  141MOL0     H18994  11.459   6.070   1.740 -1.7435  1.6514 -1.2780
  141MOL0     H18995  11.569   5.910   2.110  0.2701 -0.6386  1.2212
  141MOL0     H18996  11.697   5.584   2.151 -2.8257  0.4079 -0.0503
  141MOL0     H18997  11.830   5.684   2.206 -1.0453  4.4423  2.2189
  141MOL0     H18998  11.666   5.734   2.239 -0.1345 -0.4923  0.8058
  141MOL0     H18999  11.983   5.463   1.569  1.6340 -3.3192 -3.2627
  141MOL0     H19000  12.165   5.294   1.534  0.6455 -0.7650 -0.9495
  141MOL0     H19001  12.395   5.172   1.866  2.0329  1.5101 -2.2432
  141MOL0     H19002  12.311   5.015   1.837 -1.1703 -0.1570 -1.2636
  141MOL0     H19003  12.524   5.135   1.666 -0.5231 -1.0213 -1.7616
  141MOL0     H19004  12.549   4.998   1.794 -2.9976 -4.8749 -0.8477
  141MOL0     H19005  12.365   4.953   1.552 -1.6879 -1.8352  0.0987
  141MOL0     H19006  12.396   4.853   1.686  0.3366  0.7759  1.7407
  141MOL0     H19007  12.601   4.954   1.485  0.6320 -1.7475 -0.3584
  141MOL0     H19008  12.640   4.891   1.636  0.4905  1.7960 -0.6785
  141MOL0     H19009  12.543   4.667   1.582 -0.6123 -0.7704  0.0106
  141MOL0     H19010  12.680   4.709   1.472 -0.6691 -0.9665 -1.7537
  141MOL0     H19011  12.377   4.730   1.428 -0.2277  0.3643  1.1156
  141MOL0     H19012  12.490   4.794   1.300  2.4262 -0.6774  0.9344
  141MOL0     H19013  12.467   4.512   1.408  1.2558 -0.2659  1.5663
  141MOL0     H19014  12.583   4.554   1.270 -1.3585 -2.3140 -0.9772
  141MOL0     H19015  12.406   4.639   1.153  4.6174  1.9383  2.8890
  141MOL0     H19016  12.285   4.585   1.268 -1.2657 -3.1400 -0.4918
  141MOL0     H19017  12.189   5.243   1.959  3.6416  0.3287 -1.9361
  141MOL0     H19018  12.020   5.405   1.986 -2.5276  0.1134 -1.5080
  141MOL0     H19019  11.837   5.788   1.717  1.3939 -0.2444  0.7644
  141MOL0     H19020  11.685   5.982   1.716  0.4661 -0.5953  0.1083
  141MOL0     H19021  10.440   6.645   1.512  3.8977  0.3182 -2.8303
  141MOL0     H19022  10.218   6.595   1.509 -1.0539 -1.3179 -1.9975
  141MOL0     H19023   9.745   6.974   1.418  1.9385  1.3680 -2.7109
  141MOL0     H19024   9.534   7.000   1.300  1.2985  0.2183  0.5929
  141MOL0     H19025   9.338   6.834   1.318  2.2904  2.5848  0.5134
  141MOL0     H19026   9.314   6.969   1.214 -1.8260  0.3220  2.0695
  141MOL0     H19027   9.171   6.819   1.070  0.5547 -2.7741 -0.7676
  141MOL0     H19028   9.109   6.835   1.231 -0.5484  1.7380 -1.8146
  141MOL0     H19029   9.232   6.602   1.278  1.1146 -1.0231 -0.7553
  141MOL0     H19030   9.250   6.602   1.095 -0.1070 -1.0493 -0.7377
  141MOL0     H19031   8.985   6.601   1.263 -0.5179  0.6382  0.7256
  141MOL0     H19032   9.073   6.460   1.204  0.8728  1.4161 -0.7379
  141MOL0     H19033   8.877   6.674   0.872  1.4472  2.4014  0.0787
  141MOL0     H19034   9.593   6.635   1.074  0.3221  2.6713 -2.3629
  141MOL0     H19035   9.823   6.612   1.190  0.5512  0.9900 -0.7441
  142MOL0     O19036   1.781   2.798   0.506  0.9531  1.0093 -0.2425
  142MOL0     C19037   1.905   2.798   0.513 -0.0917  0.1226 -0.1972
  142MOL0     O19038   1.983   2.907   0.521  0.0326 -0.1933 -0.3395
  142MOL0     C19039   1.934   3.037   0.507 -0.0411  0.3319 -0.3276
  142MOL0     C19040   1.968   3.131   0.604 -0.3349 -1.0223 -0.2455
  142MOL0     C19041   1.941   3.265   0.574 -0.1964 -0.3645 -0.2284
  142MOL0     C19042   1.871   3.306   0.458 -0.1865  0.1109  0.3209
  142MOL0     O19043   1.857   3.433   0.432  0.0643 -0.3602  0.3663
  142MOL0     C19044   1.847   3.487   0.300 -0.2766 -0.7666 -0.9182
  142MOL0     C19045   1.868   3.638   0.289  0.2403 -0.4590  0.0341
  142MOL0     C19046   1.827   3.684   0.148  0.9298 -0.7038  0.3281
  142MOL0     C19047   1.744   3.813   0.145  0.4185  0.9191  0.5442
  142MOL0     C19048   1.721   3.842  -0.009 -0.3349  0.3317  0.4665
  142MOL0     C19049   1.733   3.994  -0.038 -0.3258  0.1967  0.1807
  142MOL0     C19050   1.649   4.085   0.047  0.1525 -0.1741 -0.4752
  142MOL0     C19051   1.614   4.211  -0.034  0.3372  0.6749  0.7131
  142MOL0     N19052   1.515   4.187  -0.144  0.5934 -0.0640  0.4538
  142MOL0     C19053   1.540   4.218  -0.271 -0.3071 -0.6716  0.0515
  142MOL0     C19054   1.451   4.146  -0.346  0.6352  0.5176  0.6654
  142MOL0     C19055   1.458   4.134  -0.499  0.1518 -0.1346 -0.0711
  142MOL0     C19056   1.323   4.135  -0.566  0.2241  0.2360 -0.5344
  142MOL0     C19057   1.323   4.118  -0.727  0.2064  0.3831  0.2510
  142MOL0     C19058   1.191   4.074  -0.782 -0.1544  0.0385 -0.5517
  142MOL0     O19059   1.172   3.952  -0.714  0.1262 -0.3295 -1.0595
  142MOL0     C19060   1.083   3.849  -0.752  0.0227 -0.9964 -0.1092
  142MOL0     C19061   1.085   3.741  -0.665 -0.0848 -0.0831  0.9205
  142MOL0     C19062   1.015   3.625  -0.694 -0.2757 -0.2773 -0.7076
  142MOL0     C19063   1.042   3.507  -0.598  0.4989 -0.3170 -0.0450
  142MOL0     C19064   0.937   3.622  -0.813  0.0156 -0.2824 -0.5210
  142MOL0     C19065   0.846   3.510  -0.847  0.7503  0.1666 -0.1588
  142MOL0     O19066   0.764   3.527  -0.955  0.2244 -0.8871  0.2773
  142MOL0     C19067   0.654   3.446  -0.962  0.3252 -0.3597 -1.1561
  142MOL0     C19068   0.516   3.494  -0.960  0.6538 -0.5301  0.0815
  142MOL0     C19069   0.405   3.401  -0.966 -0.0468  0.4719 -0.6622
  142MOL0     C19070   0.427   3.264  -0.983 -0.3241 -0.6946 -0.9128
  142MOL0     O19071   0.329   3.175  -1.007 -0.1479  0.2607  0.0132
  142MOL0     C19072   0.239   3.156  -0.899 -0.9255  0.1341  0.1049
  142MOL0     C19073   0.088   3.179  -0.936 -0.4994 -0.1454  0.0350
  142MOL0     C19074   0.030   3.091  -1.052  0.0146 -0.7292 -0.7493
  142MOL0     C19075  -0.124   3.093  -1.036 -0.1578  1.5234  0.5672
  142MOL0     C19076  -0.204   3.005  -1.133 -0.1947 -0.0667 -0.0204
  142MOL0     C19077  -0.342   3.001  -1.079  0.0756  0.4467  0.2788
  142MOL0     C19078  -0.434   2.914  -1.168 -0.5943 -0.0294  0.4286
  142MOL0     C19079  -0.576   2.940  -1.124  0.1518  0.5755 -1.6106
  142MOL0    Cl19080  -0.687   2.855  -1.230  0.1373  0.4131  0.5170
  142MOL0     C19081   0.557   3.224  -1.002  0.6627  0.6244 -0.8706
  142MOL0     C19082   0.670   3.314  -0.981 -1.0375  0.9846  0.1247
  142MOL0     O19083   0.866   3.399  -0.793 -0.0785  0.2520 -0.1358
  142MOL0     C19084   0.940   3.743  -0.901  0.8620  0.0104  0.4215
  142MOL0     C19085   1.007   3.856  -0.868  0.2034 -0.0137  0.0916
  142MOL0     N19086   1.371   4.078  -0.257 -0.1357 -0.4534  0.9283
  142MOL0     N19087   1.403   4.107  -0.139 -0.8414  0.3257 -0.6057
  142MOL0     C19088   1.828   3.203   0.374  0.6880 -0.0909 -0.2795
  142MOL0     C19089   1.856   3.070   0.402 -0.3956 -0.5026  0.2095
  142MOL0     C19090   1.972   2.662   0.498 -0.5891 -0.3231  0.7206
  142MOL0     C19091   1.907   2.539   0.514 -0.1639  0.1443  0.2014
  142MOL0     C19092   1.977   2.418   0.494  0.7073  0.6615 -0.6380
  142MOL0     C19093   2.113   2.413   0.470 -1.5180 -0.2503 -0.2293
  142MOL0     O19094   2.190   2.306   0.462  1.0637 -0.4149  0.3429
  142MOL0     C19095   2.197   2.233   0.580  0.0425  0.0515 -0.8773
  142MOL0     C19096   2.265   2.097   0.549  0.5385 -0.7747 -0.8721
  142MOL0     C19097   2.410   2.133   0.503 -0.0280 -0.1781 -0.4107
  142MOL0     C19098   2.493   2.005   0.482  0.5376  0.0954  0.0193
  142MOL0     C19099   2.637   2.034   0.503 -0.2937 -1.0237 -0.2245
  142MOL0     C19100   2.753   2.069   0.499 -0.2949 -0.2881 -0.3505
  142MOL0     C19101   2.175   2.532   0.460  0.2346 -0.7103 -0.0815
  142MOL0     C19102   2.108   2.655   0.468  0.7093 -0.6279 -0.5803
  142MOL0     H19103   2.019   3.097   0.694 -0.5276 -0.6087  0.0187
  142MOL0     H19104   1.974   3.340   0.645 -2.0667 -0.1313  0.4563
  142MOL0     H19105   1.917   3.443   0.228  1.4640 -1.3785  1.0240
  142MOL0     H19106   1.753   3.459   0.252 -1.9155  0.1447  1.5656
  142MOL0     H19107   1.804   3.695   0.357 -0.9341  0.0174 -1.4117
  142MOL0     H19108   1.975   3.654   0.300  0.4350  1.0044 -3.0893
  142MOL0     H19109   1.907   3.711   0.079 -2.0457  2.9228 -2.1040
  142MOL0     H19110   1.764   3.606   0.106  0.2310 -1.2634  2.3219
  142MOL0     H19111   1.650   3.807   0.201 -0.1689  1.6273 -0.3230
  142MOL0     H19112   1.804   3.891   0.193  1.1747  0.2566  0.6877
  142MOL0     H19113   1.797   3.799  -0.075  0.4628 -0.2347  1.7115
  142MOL0     H19114   1.625   3.799  -0.038  1.2435 -2.9651 -0.2983
  142MOL0     H19115   1.838   4.021  -0.024 -0.3069 -0.4015  1.3135
  142MOL0     H19116   1.710   4.010  -0.143 -2.4679 -0.3249  0.5192
  142MOL0     H19117   1.555   4.036   0.074 -2.4938  4.8207  0.7732
  142MOL0     H19118   1.704   4.103   0.139 -0.2494  0.0708 -0.2813
  142MOL0     H19119   1.700   4.261  -0.080  0.9411  2.8896  3.9332
  142MOL0     H19120   1.573   4.289   0.031 -1.7014 -1.7586  2.5786
  142MOL0     H19121   1.617   4.280  -0.317 -0.4833 -0.4948 -0.0066
  142MOL0     H19122   1.531   4.208  -0.532  0.7142  0.2846  1.9683
  142MOL0     H19123   1.495   4.032  -0.516 -1.1876 -0.8742  1.2062
  142MOL0     H19124   1.294   4.239  -0.547 -0.2480  0.1260 -0.6476
  142MOL0     H19125   1.251   4.071  -0.514 -0.6327  1.4108 -0.2184
  142MOL0     H19126   1.396   4.044  -0.760 -1.8505 -1.1934 -0.9617
  142MOL0     H19127   1.359   4.209  -0.776  1.8792 -0.6050 -0.4323
  142MOL0     H19128   1.198   4.060  -0.891  3.5553 -0.3495 -0.3813
  142MOL0     H19129   1.109   4.139  -0.751  0.1159 -1.0902  2.9976
  142MOL0     H19130   1.147   3.743  -0.577 -0.1435  2.5742  0.9642
  142MOL0     H19131   1.068   3.416  -0.653  1.7064  0.4432 -0.7871
  142MOL0     H19132   1.110   3.537  -0.518 -2.3041  0.9025  2.0441
  142MOL0     H19133   0.948   3.480  -0.549 -0.1818  0.3689 -0.9400
  142MOL0     H19134   0.492   3.599  -0.945 -1.7267 -0.7508 -1.6269
  142MOL0     H19135   0.301   3.426  -0.944 -0.7306 -2.4151 -0.1729
  142MOL0     H19136   0.256   3.049  -0.882  0.4878  0.1088 -1.2498
  142MOL0     H19137   0.270   3.216  -0.813  3.7793 -3.8427  1.6014
  142MOL0     H19138   0.044   3.149  -0.841 -1.5377 -2.9447 -1.2117
  142MOL0     H19139   0.066   3.282  -0.963 -3.0602 -0.5197  0.4459
  142MOL0     H19140   0.058   2.986  -1.053 -0.9348 -0.9858 -1.4174
  142MOL0     H19141   0.069   3.134  -1.145  0.7230  0.8590  0.2330
  142MOL0     H19142  -0.157   3.065  -0.936 -1.4809 -2.4702 -0.7679
  142MOL0     H19143  -0.156   3.196  -1.052  0.7601  1.7058 -0.1856
  142MOL0     H19144  -0.161   2.904  -1.135 -3.3214 -1.5412 -2.8374
  142MOL0     H19145  -0.207   3.048  -1.234 -0.2697 -1.3007 -0.5587
  142MOL0     H19146  -0.337   2.962  -0.977  2.6519 -2.0565 -0.6667
  142MOL0     H19147  -0.378   3.103  -1.062  0.6648  0.4650  1.5851
  142MOL0     H19148  -0.396   2.812  -1.176  3.0826  1.2331  0.0079
  142MOL0     H19149  -0.434   2.957  -1.269  0.8223 -0.0314  0.4165
  142MOL0     H19150  -0.598   3.047  -1.113  1.4370  0.6099  3.0666
  142MOL0     H19151  -0.596   2.901  -1.023  2.8424  1.5200 -0.6172
  142MOL0     H19152   0.589   3.121  -1.014 -0.9541 -0.0230  0.1686
  142MOL0     H19153   0.769   3.270  -0.979 -2.0179 -1.4406 -1.1567
  142MOL0     H19154   0.880   3.740  -0.991  2.0042  0.3449 -0.3667
  142MOL0     H19155   1.001   3.949  -0.923  0.8284  0.0963  0.2078
  142MOL0     H19156   1.766   3.220   0.286 -2.7168  3.7679  2.4286
  142MOL0     H19157   1.828   2.999   0.325 -1.5867 -0.1334  0.2963
  142MOL0     H19158   1.807   2.545   0.554 -0.2421 -0.5344  0.1262
  142MOL0     H19159   1.915   2.330   0.510 -0.1173  0.8556 -2.4845
  142MOL0     H19160   2.255   2.285   0.656 -0.6321  1.0507 -1.0144
  142MOL0     H19161   2.095   2.208   0.611  1.0738  0.8390  3.9917
  142MOL0     H19162   2.205   2.042   0.477 -2.2640 -0.1740  0.8634
  142MOL0     H19163   2.269   2.031   0.636 -0.6875 -0.0269 -0.2195
  142MOL0     H19164   2.444   2.189   0.591 -1.8357  1.2320 -0.5527
  142MOL0     H19165   2.408   2.196   0.413 -0.2904  2.6735  1.4429
  142MOL0     H19166   2.478   1.963   0.382 -0.8135  2.8627 -1.0500
  142MOL0     H19167   2.468   1.929   0.557  1.8695  0.2274  0.6280
  142MOL0     H19168   2.857   2.094   0.504 -0.4332  0.1555  0.5808
  142MOL0     H19169   2.281   2.524   0.437  0.1640 -2.5865  0.0602
  142MOL0     H19170   2.164   2.747   0.451  0.9125 -0.2862  1.6367
  143MOL0     O19171  11.204   0.065   9.827 -0.4784  0.6202  0.9054
  143MOL0     C19172  11.141   0.041   9.726  0.3694 -0.3629 -0.1848
  143MOL0     O19173  11.014   0.097   9.700 -0.6457 -0.1707  0.0685
  143MOL0     C19174  10.973   0.200   9.773  0.1640  0.2131  0.0796
  143MOL0     C19175  11.018   0.328   9.742 -0.2009 -0.2791  0.1068
  143MOL0     C19176  10.964   0.429   9.823 -0.0540 -0.6127 -0.0512
  143MOL0     C19177  10.864   0.403   9.914  0.4523  0.1827 -0.4420
  143MOL0     O19178  10.819   0.511   9.990  0.7455  0.6859  0.6882
  143MOL0     C19179  10.879   0.519  10.115  0.9473 -0.1009 -0.2795
  143MOL0     C19180  10.765   0.523  10.216 -0.7703  0.9419  0.1613
  143MOL0     C19181  10.680   0.646  10.223 -0.6821  0.2462  0.7053
  143MOL0     C19182  10.597   0.657  10.352 -0.7803  0.2118  0.2323
  143MOL0     C19183  10.505   0.775  10.367  0.5413  1.1330 -0.4124
  143MOL0     C19184  10.559   0.918  10.335  0.2834 -0.6670 -0.2957
  143MOL0     C19185  10.459   1.035  10.355  1.0150 -0.2134  0.7960
  143MOL0     C19186  10.328   1.024  10.273 -0.6769  1.1584 -0.2091
  143MOL0     N19187  10.248   1.143  10.296 -0.1498 -0.0735 -0.7227
  143MOL0     C19188  10.142   1.167  10.382  0.2779 -0.5806 -1.2214
  143MOL0     C19189  10.111   1.295  10.365  0.2270  0.2429  0.2892
  143MOL0     C19190   9.988   1.357  10.410  0.0790  0.4310  0.5107
  143MOL0     C19191   9.990   1.396  10.560  0.5719 -0.6081  0.4029
  143MOL0     C19192   9.982   1.295  10.671  0.8503  0.4078  0.4985
  143MOL0     C19193   9.914   1.350  10.800  0.0241  0.2878 -0.4981
  143MOL0     O19194   9.981   1.284  10.906  0.0937  0.4152  0.0105
  143MOL0     C19195   9.933   1.289  11.025 -0.0952 -0.8407 -0.4908
  143MOL0     C19196   9.801   1.309  11.065 -0.7461  0.8706 -0.4333
  143MOL0     C19197   9.753   1.289  11.201 -0.4318  0.1605  0.9459
  143MOL0     C19198   9.608   1.288  11.219 -0.0001  0.0034  0.4655
  143MOL0     C19199   9.855   1.256  11.300 -0.6026  0.3054  0.8117
  143MOL0     C19200   9.830   1.225  11.443  0.1734 -0.4502 -0.6870
  143MOL0     O19201   9.910   1.129  11.497 -0.4641  0.0621  0.3689
  143MOL0     C19202   9.929   1.127  11.638  0.4659 -0.5776  0.7823
  143MOL0     C19203  10.018   1.213  11.708  0.0909 -0.3477 -0.0960
  143MOL0     C19204  10.037   1.210  11.850  0.2519 -0.5474  0.0319
  143MOL0     C19205   9.972   1.114  11.928  0.0521 -0.3679  0.7197
  143MOL0     O19206   9.985   1.106  12.065  0.1278 -0.9742  0.0580
  143MOL0     C19207  10.066   1.207  12.130  0.5590 -0.0515  1.1299
  143MOL0     C19208  10.105   1.165  12.270  1.1604  0.3001  0.5291
  143MOL0     C19209   9.985   1.130  12.353  0.2685  0.5329  0.1881
  143MOL0     C19210  10.021   0.996  12.438  0.8245 -0.2504  0.6302
  143MOL0     C19211  10.129   1.026  12.533 -0.3641  0.3017  0.2065
  143MOL0     C19212  10.154   0.893  12.606  0.4003 -0.5803  0.0284
  143MOL0     C19213  10.270   0.917  12.695 -0.3395  0.2971 -0.4090
  143MOL0     C19214  10.299   0.787  12.755  0.5727  0.0780 -0.6895
  143MOL0    Cl19215  10.155   0.717  12.837 -0.0356 -0.0172 -0.2741
  143MOL0     C19216   9.884   1.022  11.854 -0.4354  0.8811  0.1677
  143MOL0     C19217   9.863   1.027  11.710  0.4575  1.2022  0.1276
  143MOL0     O19218   9.726   1.275  11.496  0.9057  0.0794  0.2648
  143MOL0     C19219   9.993   1.238  11.256  0.5665 -0.6540  0.6238
  143MOL0     C19220  10.023   1.256  11.120  0.3428  0.8905  0.0538
  143MOL0     N19221  10.209   1.359  10.288 -0.2180 -0.5767  0.0288
  143MOL0     N19222  10.286   1.264  10.247 -0.1154 -0.6997  0.5013
  143MOL0     C19223  10.819   0.274   9.943 -0.1145 -0.1607  0.2778
  143MOL0     C19224  10.881   0.172   9.879 -0.3926 -0.1928 -0.1467
  143MOL0     C19225  11.205  -0.044   9.616 -0.2368 -0.5052 -0.4342
  143MOL0     C19226  11.344  -0.078   9.615  0.0393  0.1903 -0.3151
  143MOL0     C19227  11.405  -0.166   9.515  0.8647 -0.3396 -0.2203
  143MOL0     C19228  11.325  -0.211   9.413 -0.0579 -0.0056 -0.0605
  143MOL0     O19229  11.372  -0.291   9.312  0.2685  0.6647 -0.5634
  143MOL0     C19230  11.506  -0.313   9.290  0.6163 -0.1784  0.2534
  143MOL0     C19231  11.533  -0.379   9.159  0.6619  0.1063  0.7734
  143MOL0     C19232  11.470  -0.316   9.030  0.1746 -0.8737 -0.4036
  143MOL0     C19233  11.436  -0.408   8.923  1.0069  0.2843  0.7456
  143MOL0     C19234  11.388  -0.321   8.808 -0.5145  0.2052  0.1320
  143MOL0     C19235  11.368  -0.254   8.708 -0.9917  0.4563 -0.2518
  143MOL0     C19236  11.185  -0.186   9.415 -0.3658  1.1481  0.4273
  143MOL0     C19237  11.134  -0.098   9.517 -0.1035 -0.3920 -0.2471
  143MOL0     H19238  11.108   0.339   9.682  2.1299  0.8956  3.5303
  143MOL0     H19239  11.010   0.527   9.814 -0.4964 -0.4864 -1.1176
  143MOL0     H19240  10.940   0.429  10.131 -0.2294 -1.2499 -1.9270
  143MOL0     H19241  10.947   0.605  10.117  1.4734 -0.5057 -0.3298
  143MOL0     H19242  10.701   0.439  10.186 -0.5326  1.3589 -1.6074
  143MOL0     H19243  10.802   0.500  10.317 -0.9706  1.9327  0.4716
  143MOL0     H19244  10.747   0.732  10.228  1.7591 -1.6090  1.9407
  143MOL0     H19245  10.616   0.660  10.136  0.9803  3.2057 -0.1887
  143MOL0     H19246  10.536   0.566  10.353 -0.8454  0.2131 -1.2064
  143MOL0     H19247  10.667   0.665  10.435 -0.2974 -0.2482 -0.1222
  143MOL0     H19248  10.415   0.765  10.304 -0.7015  2.3542  1.0867
  143MOL0     H19249  10.470   0.782  10.470  1.2530  3.0261 -0.2575
  143MOL0     H19250  10.658   0.949  10.371 -0.1363  3.8887 -2.3293
  143MOL0     H19251  10.571   0.923  10.226 -3.9304  0.0779 -0.8797
  143MOL0     H19252  10.435   1.049  10.461  1.4021 -1.5505  1.0730
  143MOL0     H19253  10.505   1.123  10.308 -0.0204 -0.3663 -0.5862
  143MOL0     H19254  10.264   0.939  10.299 -1.1151  1.7563  0.7044
  143MOL0     H19255  10.345   1.014  10.165 -2.7787 -0.9408 -0.4433
  143MOL0     H19256  10.081   1.100  10.441  1.1586  0.3916  0.8837
  143MOL0     H19257   9.973   1.444  10.346 -0.1697 -1.0525 -1.5553
  143MOL0     H19258   9.903   1.291  10.391 -0.8710  1.7014  0.1671
  143MOL0     H19259   9.900   1.459  10.564 -0.9982 -2.7771  1.1571
  143MOL0     H19260  10.070   1.467  10.583  0.5204 -0.8742  1.4416
  143MOL0     H19261  10.088   1.275  10.692  0.6286 -0.1837  1.1244
  143MOL0     H19262   9.929   1.211  10.625  0.3523  0.5362  0.8327
  143MOL0     H19263   9.805   1.346  10.806 -0.0600  1.8941 -0.5475
  143MOL0     H19264   9.944   1.454  10.814 -0.3453  0.1873  1.3056
  143MOL0     H19265   9.728   1.321  10.986 -2.6567  0.1716  1.1450
  143MOL0     H19266   9.577   1.211  11.291  0.6976 -2.0822 -1.3656
  143MOL0     H19267   9.562   1.384  11.248  0.0150  0.1642 -0.0262
  143MOL0     H19268   9.556   1.249  11.131  1.4807  0.8158 -0.8294
  143MOL0     H19269  10.079   1.274  11.643 -0.4524 -0.9245 -1.1664
  143MOL0     H19270  10.112   1.277  11.891 -2.3219  3.1082 -0.6737
  143MOL0     H19271  10.166   1.193  12.089  0.6708  1.0289  1.0212
  143MOL0     H19272  10.007   1.298  12.115 -1.0709 -1.3010 -0.5650
  143MOL0     H19273  10.174   1.080  12.261 -1.7041 -2.0870 -0.4543
  143MOL0     H19274  10.159   1.251  12.310  0.2069  1.3441 -0.3738
  143MOL0     H19275   9.896   1.103  12.294 -0.2781  3.5992 -0.5332
  143MOL0     H19276   9.964   1.205  12.429 -1.7970 -1.7127  2.0255
  143MOL0     H19277   9.929   0.964  12.487 -0.0477  0.8101 -0.2529
  143MOL0     H19278  10.051   0.916  12.370  3.4678  0.2910  1.0455
  143MOL0     H19279  10.106   1.102  12.608  3.2489  0.9481  0.8823
  143MOL0     H19280  10.218   1.055  12.476 -1.0024 -1.1645 -1.6194
  143MOL0     H19281  10.064   0.881  12.667  1.9126 -0.7256  2.3403
  143MOL0     H19282  10.170   0.818  12.527 -1.0574  0.5390 -1.4140
  143MOL0     H19283  10.251   0.989  12.776  2.4841  0.0607  0.5496
  143MOL0     H19284  10.362   0.947  12.645  1.0757 -1.3836  1.0862
  143MOL0     H19285  10.372   0.801  12.835 -0.9915 -1.3602  1.0566
  143MOL0     H19286  10.340   0.717  12.682  2.6681  0.5146  0.0085
  143MOL0     H19287   9.836   0.951  11.920 -2.2179  1.2130 -0.7163
  143MOL0     H19288   9.803   0.958  11.651  0.7174  0.0977  1.1292
  143MOL0     H19289  10.066   1.210  11.331  2.8004 -2.5468 -2.0583
  143MOL0     H19290  10.127   1.258  11.089 -0.0386  3.2441 -1.2739
  143MOL0     H19291  10.759   0.254  10.031  3.3324 -0.3138  2.7996
  143MOL0     H19292  10.875   0.069   9.911  2.6862 -1.0463 -1.8561
  143MOL0     H19293  11.419  -0.027   9.674  2.2651 -0.7180 -2.1683
  143MOL0     H19294  11.510  -0.192   9.509  0.7933 -1.3843  1.9585
  143MOL0     H19295  11.565  -0.221   9.283 -0.2606  0.2825 -2.5995
  143MOL0     H19296  11.550  -0.382   9.363  2.9479  1.4377  0.4790
  143MOL0     H19297  11.483  -0.476   9.167 -0.3195  0.2656 -2.1852
  143MOL0     H19298  11.641  -0.391   9.150  0.3217 -3.1402 -0.0415
  143MOL0     H19299  11.529  -0.231   8.993  1.6814 -0.9683  1.6539
  143MOL0     H19300  11.373  -0.274   9.059 -0.2879 -2.1287 -0.0788
  143MOL0     H19301  11.361  -0.482   8.953  0.2890  0.7830  0.2314
  143MOL0     H19302  11.521  -0.465   8.886 -0.6243 -0.9759 -1.2613
  143MOL0     H19303  11.328  -0.205   8.621 -0.4223 -1.2463 -1.5453
  143MOL0     H19304  11.133  -0.223   9.327  1.5526 -2.5906  0.6800
  143MOL0     H19305  11.031  -0.064   9.510  0.3597  0.9798 -0.6702
  144MOL0     O19306   2.313   5.435   8.667  0.2584 -0.1288  0.0332
  144MOL0     C19307   2.363   5.551   8.661 -0.4320  0.0293 -0.1017
  144MOL0     O19308   2.294   5.661   8.617 -0.1264 -0.4600  0.1103
  144MOL0     C19309   2.163   5.645   8.587 -0.6518 -0.4255  0.2557
  144MOL0     C19310   2.114   5.556   8.488 -0.3151  0.1344 -0.0796
  144MOL0     C19311   1.985   5.566   8.452  0.3752  0.1852 -0.2328
  144MOL0     C19312   1.886   5.645   8.513 -0.3129 -0.3092  0.0478
  144MOL0     O19313   1.753   5.630   8.476 -0.0984  0.0549 -0.1161
  144MOL0     C19314   1.652   5.718   8.529  0.1641 -1.1296  0.2254
  144MOL0     C19315   1.509   5.681   8.493  0.1686  0.1031 -0.1332
  144MOL0     C19316   1.456   5.770   8.380  0.3901 -0.6216 -0.6122
  144MOL0     C19317   1.306   5.728   8.355  0.1747 -0.0518 -0.3357
  144MOL0     C19318   1.250   5.808   8.248  0.0290 -0.1184 -0.4902
  144MOL0     C19319   1.247   5.962   8.261 -0.0582  0.7211  0.1878
  144MOL0     C19320   1.194   6.019   8.131 -0.8579  1.0987 -0.0300
  144MOL0     C19321   1.303   6.014   8.017  0.0560  0.8719  0.0520
  144MOL0     N19322   1.262   6.098   7.908 -0.2540 -0.6640  0.0764
  144MOL0     C19323   1.156   6.069   7.833 -0.8424 -0.2623  0.6136
  144MOL0     C19324   1.161   6.168   7.739 -1.2505 -0.1891  0.1724
  144MOL0     C19325   1.051   6.177   7.635  0.3914  0.2068 -0.0722
  144MOL0     C19326   0.959   6.302   7.646 -0.2453 -0.8399 -0.3499
  144MOL0     C19327   0.882   6.312   7.775  0.3304 -0.1574  0.1896
  144MOL0     C19328   0.779   6.199   7.820  0.0224  0.1927 -0.4219
  144MOL0     O19329   0.850   6.105   7.904 -0.1402 -0.4286 -0.1424
  144MOL0     C19330   0.797   6.087   8.031  0.1331  0.1525  0.5586
  144MOL0     C19331   0.834   6.152   8.145 -0.2982 -0.4525  0.9844
  144MOL0     C19332   0.785   6.125   8.275 -0.0802  0.9246  0.1628
  144MOL0     C19333   0.845   6.202   8.392 -0.0037 -0.1265  0.0869
  144MOL0     C19334   0.681   6.024   8.278 -0.3325  1.2303 -0.2323
  144MOL0     C19335   0.615   5.975   8.407  0.1978 -1.5404 -0.8145
  144MOL0     O19336   0.537   5.867   8.396 -0.4237  0.1904  0.2026
  144MOL0     C19337   0.467   5.813   8.501  1.1747  0.4882  0.4980
  144MOL0     C19338   0.378   5.889   8.574 -0.8810 -0.6957 -0.6578
  144MOL0     C19339   0.303   5.829   8.680 -0.3932  0.0969  0.3062
  144MOL0     C19340   0.323   5.695   8.710  0.4450  0.4730  0.3795
  144MOL0     O19341   0.250   5.628   8.805  0.2069 -0.4040  0.3433
  144MOL0     C19342   0.196   5.711   8.912 -0.1342 -0.4493  0.1738
  144MOL0     C19343   0.049   5.768   8.876 -0.2210  0.4041  0.0771
  144MOL0     C19344  -0.062   5.663   8.908 -0.4222  0.4461 -0.4283
  144MOL0     C19345  -0.199   5.698   8.879  0.9704  0.7928 -0.4074
  144MOL0     C19346  -0.251   5.825   8.943  0.3718 -0.3133 -0.4365
  144MOL0     C19347  -0.265   5.802   9.092  0.1460 -0.5767 -0.5234
  144MOL0     C19348  -0.349   5.899   9.174 -0.5168 -0.6409  0.3697
  144MOL0     C19349  -0.496   5.893   9.155 -0.1638  0.3261  0.2012
  144MOL0    Cl19350  -0.587   5.736   9.167  0.2112 -0.1312  0.1693
  144MOL0     C19351   0.412   5.624   8.628  0.3919 -0.1732  0.2901
  144MOL0     C19352   0.486   5.677   8.527 -0.3361 -0.3131  0.5454
  144MOL0     O19353   0.617   6.051   8.505 -0.5248 -0.4842 -0.2307
  144MOL0     C19354   0.643   5.949   8.162 -0.3133 -0.9085  0.1780
  144MOL0     C19355   0.698   5.984   8.042  0.4932  1.0635  0.0392
  144MOL0     N19356   1.266   6.262   7.765 -0.4950  0.6427 -0.3557
  144MOL0     N19357   1.331   6.206   7.859 -0.0385 -0.1565  0.1393
  144MOL0     C19358   1.930   5.734   8.619 -0.3208 -0.1387 -0.1289
  144MOL0     C19359   2.069   5.736   8.653  0.4142  0.9109  1.1110
  144MOL0     C19360   2.503   5.572   8.700 -0.2121  0.1883 -1.0135
  144MOL0     C19361   2.554   5.703   8.711 -0.2685  0.2627 -0.8378
  144MOL0     C19362   2.678   5.731   8.757 -0.5404  0.0650  0.4962
  144MOL0     C19363   2.759   5.625   8.798 -0.5107 -0.7354 -0.2323
  144MOL0     O19364   2.889   5.640   8.844 -0.2904 -0.4614 -0.1599
  144MOL0     C19365   2.947   5.773   8.834 -0.2824 -0.1321 -0.0036
  144MOL0     C19366   3.096   5.778   8.871  0.2444 -1.2087 -0.2091
  144MOL0     C19367   3.180   5.697   8.782  0.4968 -0.3075 -0.8282
  144MOL0     C19368   3.335   5.725   8.808 -0.8778 -0.1264 -0.2456
  144MOL0     C19369   3.413   5.675   8.691  0.0714  0.4789 -0.3701
  144MOL0     C19370   3.470   5.647   8.592 -1.1675  0.2351 -0.3228
  144MOL0     C19371   2.711   5.497   8.795 -0.3252  0.5447  0.6294
  144MOL0     C19372   2.587   5.463   8.747  0.2528  0.3816  0.6716
  144MOL0     H19373   2.173   5.487   8.429  0.4469 -0.4249  1.2887
  144MOL0     H19374   1.947   5.490   8.385  1.3988 -0.9963  0.4746
  144MOL0     H19375   1.673   5.727   8.636 -0.3255 -0.4841  0.2702
  144MOL0     H19376   1.689   5.816   8.499  0.5677 -0.7231  1.9877
  144MOL0     H19377   1.503   5.577   8.463 -0.6808  0.0973  0.0404
  144MOL0     H19378   1.437   5.684   8.575  1.0450 -2.7480  0.8485
  144MOL0     H19379   1.474   5.875   8.404  1.1633  0.2515 -4.3431
  144MOL0     H19380   1.524   5.751   8.296  0.4604  0.8260 -0.8992
  144MOL0     H19381   1.314   5.621   8.334  0.0704 -0.1400  0.0685
  144MOL0     H19382   1.236   5.732   8.439 -2.1918 -1.2573 -2.1083
  144MOL0     H19383   1.306   5.788   8.157  0.2037 -0.3674 -0.3274
  144MOL0     H19384   1.144   5.788   8.232 -0.9920  1.9382  2.7061
  144MOL0     H19385   1.172   5.981   8.338 -1.0610  1.3490 -0.9106
  144MOL0     H19386   1.340   6.014   8.286  0.6525 -0.3350 -0.1638
  144MOL0     H19387   1.102   5.974   8.092 -0.3225  2.2722 -2.8778
  144MOL0     H19388   1.179   6.126   8.148  2.9561  1.2709  3.6051
  144MOL0     H19389   1.327   5.914   7.979  0.9243  1.1801 -0.2422
  144MOL0     H19390   1.403   6.050   8.042  1.0110 -0.6841 -1.3155
  144MOL0     H19391   1.083   5.989   7.835  0.7848 -1.8158  0.5794
  144MOL0     H19392   1.113   6.196   7.547  3.7580  1.9922  2.4623
  144MOL0     H19393   0.982   6.092   7.635  0.8265 -0.1467 -0.2969
  144MOL0     H19394   0.894   6.312   7.559  0.8505  0.1983 -1.0939
  144MOL0     H19395   1.019   6.394   7.646  0.9168 -1.5804 -0.7466
  144MOL0     H19396   0.831   6.409   7.776  2.8826  1.3189 -1.2916
  144MOL0     H19397   0.954   6.314   7.857  0.5503  1.6372 -0.0155
  144MOL0     H19398   0.738   6.158   7.726 -0.4962  0.5410 -0.3535
  144MOL0     H19399   0.700   6.251   7.876 -0.6071  1.2409 -2.1853
  144MOL0     H19400   0.918   6.220   8.138 -0.7750  0.0706  0.0490
  144MOL0     H19401   0.849   6.119   8.463  2.9848 -0.6336 -0.5390
  144MOL0     H19402   0.945   6.238   8.369 -0.6742  0.7924 -1.5720
  144MOL0     H19403   0.779   6.280   8.431 -0.7231 -0.5892 -0.1709
  144MOL0     H19404   0.347   5.990   8.548 -0.6605 -0.2496  0.7479
  144MOL0     H19405   0.234   5.897   8.729 -2.5035 -3.0446  2.1099
  144MOL0     H19406   0.186   5.645   8.999  0.3355 -0.6582  0.0746
  144MOL0     H19407   0.266   5.789   8.942  0.9689 -0.8976 -1.0662
  144MOL0     H19408   0.040   5.855   8.942  0.6714 -1.0167  2.2081
  144MOL0     H19409   0.038   5.795   8.771 -4.2568  0.2689  0.3198
  144MOL0     H19410  -0.049   5.647   9.016 -2.0223  1.2891 -0.0935
  144MOL0     H19411  -0.028   5.568   8.865 -0.7413 -1.6345  3.5012
  144MOL0     H19412  -0.215   5.703   8.771  1.2075  0.4584 -0.4603
  144MOL0     H19413  -0.260   5.616   8.918  1.6320  1.1348  1.4733
  144MOL0     H19414  -0.341   5.866   8.896  0.6365 -1.4140 -1.9710
  144MOL0     H19415  -0.179   5.906   8.933 -1.8194  1.5262 -2.6980
  144MOL0     H19416  -0.321   5.708   9.099  3.2156 -2.6521 -1.6318
  144MOL0     H19417  -0.160   5.799   9.123  0.2938  0.8276 -0.8347
  144MOL0     H19418  -0.309   5.998   9.150 -0.1247 -0.4896  1.5949
  144MOL0     H19419  -0.332   5.882   9.280  0.6807 -1.1974  0.1000
  144MOL0     H19420  -0.521   5.922   9.053  0.2060 -1.1336 -0.3333
  144MOL0     H19421  -0.535   5.969   9.223  3.4287  3.5856 -1.0291
  144MOL0     H19422   0.423   5.517   8.645 -4.0397 -0.8174  0.2523
  144MOL0     H19423   0.555   5.604   8.485  0.6565  1.2876 -0.6994
  144MOL0     H19424   0.555   5.885   8.172 -0.2464 -1.5736 -2.5174
  144MOL0     H19425   0.655   5.933   7.956 -0.8615  3.6714 -0.9342
  144MOL0     H19426   1.867   5.807   8.666 -1.1718  0.7363 -2.4994
  144MOL0     H19427   2.103   5.795   8.738  0.3866 -0.1854  1.8990
  144MOL0     H19428   2.491   5.788   8.685 -0.0484  1.2657  1.6397
  144MOL0     H19429   2.701   5.837   8.760  1.5642 -0.3718  1.4362
  144MOL0     H19430   2.939   5.802   8.728 -1.8712  0.4689  0.2470
  144MOL0     H19431   2.894   5.842   8.901  0.9144  1.2623 -0.4507
  144MOL0     H19432   3.101   5.742   8.974 -0.1217  0.9472  0.6074
  144MOL0     H19433   3.128   5.883   8.874 -0.9320 -0.8252 -0.5799
  144MOL0     H19434   3.144   5.710   8.680  0.6837 -2.0085 -1.1408
  144MOL0     H19435   3.165   5.595   8.819  0.7163 -0.3843 -0.9492
  144MOL0     H19436   3.369   5.682   8.903 -1.3955 -1.7789 -0.7818
  144MOL0     H19437   3.351   5.833   8.815  1.2423 -0.3540 -0.8248
  144MOL0     H19438   3.509   5.611   8.499 -5.4765  0.6811 -2.5914
  144MOL0     H19439   2.775   5.411   8.815  1.1083  1.0753 -1.4272
  144MOL0     H19440   2.552   5.360   8.743 -0.1787  0.4528  2.1035
  145MOL0     O19441   7.402   8.010   3.594  0.2561  0.0946 -0.1325
  145MOL0     C19442   7.404   8.117   3.657  0.0923 -0.5310 -0.0095
  145MOL0     O19443   7.296   8.180   3.699  0.7453  0.0533  0.0794
  145MOL0     C19444   7.179   8.118   3.733  0.7405 -0.1162 -0.7589
  145MOL0     C19445   7.170   7.981   3.764 -0.4698  0.1604  0.1230
  145MOL0     C19446   7.046   7.920   3.800 -0.6379  0.3604  0.0214
  145MOL0     C19447   6.927   8.002   3.787 -0.3891  0.3658 -0.2983
  145MOL0     O19448   6.807   7.949   3.796 -0.1484 -0.0435 -0.0421
  145MOL0     C19449   6.789   7.817   3.731 -0.1485  0.5442 -0.0156
  145MOL0     C19450   6.760   7.825   3.581 -0.5089  0.4360 -0.3824
  145MOL0     C19451   6.649   7.937   3.558  1.0350 -0.4298  0.1736
  145MOL0     C19452   6.605   7.934   3.416  0.5171  0.3487  0.6771
  145MOL0     C19453   6.698   8.029   3.328  0.4370  0.0363  0.0690
  145MOL0     C19454   6.653   8.037   3.185  0.4882 -0.0961  0.1359
  145MOL0     C19455   6.541   8.131   3.154  0.4767 -0.3832 -0.7948
  145MOL0     C19456   6.486   8.112   3.018  1.0425  0.1498 -0.5295
  145MOL0     N19457   6.400   7.994   3.003  0.1409  0.0174  0.2190
  145MOL0     C19458   6.260   7.987   3.022  0.1114 -0.3089 -0.7325
  145MOL0     C19459   6.232   7.854   2.990 -0.1216 -0.2701 -0.6109
  145MOL0     C19460   6.092   7.813   2.976  0.4181 -0.0291  0.2762
  145MOL0     C19461   6.036   7.875   2.844 -1.1644 -0.1355 -0.3449
  145MOL0     C19462   5.896   7.823   2.812 -0.3451 -0.2858 -0.7352
  145MOL0     C19463   5.846   7.872   2.677  0.1658 -0.7359 -0.5060
  145MOL0     O19464   5.789   8.003   2.681  0.2809 -0.5922  0.8298
  145MOL0     C19465   5.732   8.054   2.562 -0.3523  0.6172 -0.2205
  145MOL0     C19466   5.689   8.190   2.568  1.4726 -0.0714 -0.0996
  145MOL0     C19467   5.614   8.255   2.467  0.6054  0.0174 -0.6809
  145MOL0     C19468   5.561   8.392   2.513 -0.2602 -0.5546  0.2968
  145MOL0     C19469   5.582   8.175   2.354  0.2280  0.2580  0.1734
  145MOL0     C19470   5.514   8.225   2.243  0.1878  0.3118 -0.1029
  145MOL0     O19471   5.576   8.221   2.120 -0.2830  0.2433  0.3071
  145MOL0     C19472   5.518   8.279   2.012  0.1245  0.0979 -0.6964
  145MOL0     C19473   5.614   8.344   1.931  0.3617 -0.6761  0.4513
  145MOL0     C19474   5.579   8.401   1.803 -0.0527  0.5994 -0.0508
  145MOL0     C19475   5.449   8.392   1.754  0.5396 -0.0501 -0.3825
  145MOL0     O19476   5.413   8.472   1.648  0.6039 -0.0815 -0.4926
  145MOL0     C19477   5.509   8.508   1.547 -0.5421  0.2777  0.4736
  145MOL0     C19478   5.434   8.567   1.425 -0.4100  0.5664 -0.5406
  145MOL0     C19479   5.530   8.593   1.301  0.1457  0.1635 -0.3522
  145MOL0     C19480   5.456   8.581   1.170 -0.6391 -0.0567  0.0765
  145MOL0     C19481   5.540   8.635   1.053 -0.1260 -0.8129 -0.9210
  145MOL0     C19482   5.468   8.635   0.929 -0.1312  0.1272  0.4958
  145MOL0     C19483   5.449   8.496   0.860  0.1468 -1.1076 -0.9465
  145MOL0     C19484   5.344   8.491   0.753  0.4653  0.5555  0.3154
  145MOL0    Cl19485   5.185   8.563   0.808  0.1328 -0.1646 -0.5118
  145MOL0     C19486   5.348   8.325   1.833  0.5683 -0.1561 -0.1044
  145MOL0     C19487   5.381   8.263   1.961 -0.7872  1.2641  0.4081
  145MOL0     O19488   5.410   8.281   2.265  0.0432  0.2153  0.3146
  145MOL0     C19489   5.636   8.044   2.339 -0.8974 -0.7578 -0.3364
  145MOL0     C19490   5.699   7.984   2.451 -0.1286  0.1709  0.4104
  145MOL0     N19491   6.351   7.783   2.965  0.3639  0.2881 -1.1030
  145MOL0     N19492   6.445   7.872   2.964  0.0101 -0.2857  0.3865
  145MOL0     C19493   6.944   8.139   3.753 -0.2601 -0.3035  0.3178
  145MOL0     C19494   7.066   8.196   3.730 -0.6373  0.9099 -0.3937
  145MOL0     C19495   7.529   8.180   3.681 -0.4491 -0.6111 -0.2756
  145MOL0     C19496   7.653   8.112   3.645  0.1813 -0.3874 -0.2913
  145MOL0     C19497   7.770   8.162   3.687 -0.2375 -0.2664  0.7289
  145MOL0     C19498   7.772   8.280   3.769  0.4065 -0.1930 -0.0850
  145MOL0     O19499   7.892   8.323   3.816 -0.3560 -0.5216  0.1333
  145MOL0     C19500   7.928   8.463   3.810 -0.5732 -0.0977 -0.5123
  145MOL0     C19501   7.988   8.498   3.944  0.2457 -0.3460  0.5015
  145MOL0     C19502   8.059   8.379   4.015 -0.5793 -0.8735  0.1632
  145MOL0     C19503   8.131   8.443   4.128 -0.0743 -0.1705 -0.6443
  145MOL0     C19504   8.177   8.351   4.222  0.4352  0.0593 -0.2599
  145MOL0     C19505   8.229   8.279   4.306 -1.1143  0.1546  0.9312
  145MOL0     C19506   7.657   8.359   3.794  0.2705 -0.0009  0.6311
  145MOL0     C19507   7.534   8.306   3.761  0.8956  0.3769  0.3562
  145MOL0     H19508   7.261   7.923   3.761  0.8447  1.9795 -4.5939
  145MOL0     H19509   7.043   7.815   3.828  0.6220  1.0605  3.1311
  145MOL0     H19510   6.865   7.739   3.743 -1.8246 -1.0209  0.7778
  145MOL0     H19511   6.706   7.772   3.787  0.6640  2.4680  3.0045
  145MOL0     H19512   6.856   7.843   3.531 -1.1141  2.3629 -0.9123
  145MOL0     H19513   6.728   7.723   3.556  1.6223 -0.7296  1.1984
  145MOL0     H19514   6.561   7.921   3.621 -1.5614  4.3897 -1.6857
  145MOL0     H19515   6.683   8.038   3.586  0.3256  0.2020 -1.1583
  145MOL0     H19516   6.592   7.833   3.377  0.4901  0.4973  0.3005
  145MOL0     H19517   6.502   7.970   3.419 -0.5265 -2.3689  0.4312
  145MOL0     H19518   6.694   8.125   3.379 -3.6234  1.8299 -3.0235
  145MOL0     H19519   6.802   7.996   3.322  0.4814  0.3636 -1.3357
  145MOL0     H19520   6.731   8.082   3.122  0.1607  1.0621  0.5378
  145MOL0     H19521   6.644   7.934   3.147  3.3913 -0.6684  0.7396
  145MOL0     H19522   6.465   8.113   3.231 -0.5574 -0.9409 -1.9096
  145MOL0     H19523   6.579   8.233   3.167  0.3719 -0.5805  1.4396
  145MOL0     H19524   6.552   8.119   2.931  0.2468  0.5645 -1.1154
  145MOL0     H19525   6.414   8.193   3.004 -0.8370 -0.8148  2.5594
  145MOL0     H19526   6.195   8.073   3.024 -1.5934 -1.3958 -3.3803
  145MOL0     H19527   6.074   7.706   2.986 -2.7057  0.2529 -0.9909
  145MOL0     H19528   6.040   7.860   3.060  0.3823 -0.8168  0.7075
  145MOL0     H19529   6.112   7.856   2.767 -0.9955 -1.3264  0.0908
  145MOL0     H19530   6.031   7.984   2.851  0.7761 -0.0824  0.5148
  145MOL0     H19531   5.828   7.841   2.896  0.6146 -0.1360  0.0283
  145MOL0     H19532   5.899   7.715   2.795  0.6202 -1.3129  4.2939
  145MOL0     H19533   5.777   7.794   2.645  1.0482 -1.4012 -0.8418
  145MOL0     H19534   5.930   7.873   2.607  0.7413  2.6191  0.0724
  145MOL0     H19535   5.703   8.243   2.662 -2.7878  1.0153  0.1162
  145MOL0     H19536   5.641   8.446   2.564 -0.8609  1.9209 -1.2251
  145MOL0     H19537   5.550   8.453   2.422  0.3413  0.1291  0.6658
  145MOL0     H19538   5.485   8.374   2.589 -0.7245  2.3813  0.6341
  145MOL0     H19539   5.713   8.340   1.974  0.8624 -1.6180 -0.7453
  145MOL0     H19540   5.650   8.450   1.737  0.1357 -2.2572 -2.1635
  145MOL0     H19541   5.587   8.579   1.576  2.4971 -1.2602 -3.1208
  145MOL0     H19542   5.570   8.421   1.522 -1.3136  0.2583 -1.5000
  145MOL0     H19543   5.356   8.492   1.406  1.1140 -1.3987  0.4594
  145MOL0     H19544   5.388   8.664   1.445 -0.4662  0.2433  1.0938
  145MOL0     H19545   5.613   8.522   1.303 -1.8581 -2.3939 -2.0511
  145MOL0     H19546   5.573   8.692   1.317  0.3342 -0.3934  3.6482
  145MOL0     H19547   5.424   8.478   1.151 -0.7894  0.3922 -2.4497
  145MOL0     H19548   5.372   8.651   1.175 -0.5412  0.1232 -0.6558
  145MOL0     H19549   5.639   8.591   1.035  0.4281 -0.8701  1.8302
  145MOL0     H19550   5.569   8.737   1.078 -0.4242 -0.7877 -0.6883
  145MOL0     H19551   5.372   8.687   0.934  0.4330  1.2837 -0.2584
  145MOL0     H19552   5.524   8.698   0.860  2.8524 -1.8955  0.8997
  145MOL0     H19553   5.432   8.410   0.924  0.0677  0.4569  1.2547
  145MOL0     H19554   5.540   8.482   0.801 -1.4930 -0.2800 -3.9021
  145MOL0     H19555   5.334   8.386   0.725  1.3724  1.1452 -2.5417
  145MOL0     H19556   5.375   8.553   0.668 -0.1026  0.2499 -0.1257
  145MOL0     H19557   5.250   8.334   1.787  0.9491 -3.0593 -1.7209
  145MOL0     H19558   5.297   8.221   2.016 -0.1347  1.5010  1.5983
  145MOL0     H19559   5.633   7.988   2.246  1.2110  1.1472 -1.6593
  145MOL0     H19560   5.733   7.882   2.444  0.4582  0.4023 -0.2588
  145MOL0     H19561   6.855   8.194   3.724 -0.1216 -0.4617 -0.4299
  145MOL0     H19562   7.084   8.301   3.708  2.3767  0.3558 -1.1234
  145MOL0     H19563   7.639   8.035   3.569 -1.9215  0.8298 -1.2430
  145MOL0     H19564   7.858   8.100   3.680 -0.5041 -0.6978  1.1176
  145MOL0     H19565   8.004   8.467   3.732  0.7227 -2.5065  0.5078
  145MOL0     H19566   7.850   8.536   3.787  0.1586  0.4310 -1.4134
  145MOL0     H19567   7.908   8.520   4.016 -0.3211  1.5809 -0.6256
  145MOL0     H19568   8.047   8.588   3.924  1.3859 -1.3431 -0.8216
  145MOL0     H19569   8.126   8.343   3.936 -1.5189  0.2027 -1.1632
  145MOL0     H19570   7.991   8.299   4.044  0.0149 -1.2256  0.6236
  145MOL0     H19571   8.055   8.491   4.189  0.8551 -0.8892  1.1450
  145MOL0     H19572   8.205   8.517   4.095  0.7080 -0.4505  0.4181
  145MOL0     H19573   8.289   8.213   4.366  0.2527 -1.4980 -2.0482
  145MOL0     H19574   7.664   8.455   3.844  0.3261  0.5687 -0.4485
  145MOL0     H19575   7.441   8.360   3.780 -0.0584 -1.2382  0.4908
  146MOL0     O19576  11.272   5.806  11.047 -0.2846 -0.0688 -0.4027
  146MOL0     C19577  11.318   5.729  10.963  1.3176  0.0979  0.2462
  146MOL0     O19578  11.279   5.601  10.943 -0.4365 -0.0101  0.2725
  146MOL0     C19579  11.172   5.547  11.010  0.7149 -0.4849 -0.2285
  146MOL0     C19580  11.054   5.609  11.036  0.4645 -0.0045 -1.1412
  146MOL0     C19581  10.958   5.533  11.115 -0.0131 -0.1776  0.1502
  146MOL0     C19582  10.982   5.398  11.149  0.2912  0.0770 -1.1494
  146MOL0     O19583  10.881   5.333  11.217  0.0618  0.3909  0.0166
  146MOL0     C19584  10.867   5.387  11.342 -0.9519  0.8327 -0.8559
  146MOL0     C19585  10.762   5.299  11.413  0.7719  0.4173  0.9240
  146MOL0     C19586  10.681   5.208  11.322  0.1190  0.1914 -0.4541
  146MOL0     C19587  10.546   5.152  11.376  0.0393  0.2321 -0.7313
  146MOL0     C19588  10.550   5.082  11.519 -0.1146  0.5165  0.3163
  146MOL0     C19589  10.650   4.963  11.527 -0.2059  0.0570 -0.1645
  146MOL0     C19590  10.630   4.885  11.659 -0.0690 -0.3993  0.2896
  146MOL0     C19591  10.728   4.780  11.683  0.0194 -0.6807  0.4360
  146MOL0     N19592  10.729   4.674  11.581  0.8055 -0.2379  0.7082
  146MOL0     C19593  10.776   4.681  11.455 -0.0502 -0.0563  0.5609
  146MOL0     C19594  10.707   4.583  11.386 -0.9481 -0.5010 -0.7551
  146MOL0     C19595  10.730   4.551  11.239 -0.1560  0.1159  0.2836
  146MOL0     C19596  10.632   4.621  11.147  0.0875 -0.7998  1.2121
  146MOL0     C19597  10.489   4.573  11.147  0.2961 -0.1039 -0.5293
  146MOL0     C19598  10.398   4.615  11.035  0.4301  0.7691  0.5360
  146MOL0     O19599  10.377   4.750  11.016  0.3474 -1.1784  0.5754
  146MOL0     C19600  10.457   4.818  10.927 -0.4856  0.0372 -0.0796
  146MOL0     C19601  10.475   4.954  10.956  1.3135  0.2192 -0.3684
  146MOL0     C19602  10.578   5.034  10.897 -0.0130 -0.6690  0.8343
  146MOL0     C19603  10.585   5.179  10.948 -0.2510  0.8206 -0.2038
  146MOL0     C19604  10.652   4.982  10.790  0.4026  0.4877  0.2389
  146MOL0     C19605  10.750   5.054  10.712  0.4372  0.4459  0.6451
  146MOL0     O19606  10.812   5.152  10.786 -0.3444  0.1216 -0.3075
  146MOL0     C19607  10.922   5.196  10.725  0.6400  0.7936 -1.2378
  146MOL0     C19608  10.905   5.290  10.631 -0.1010 -0.2589  0.0520
  146MOL0     C19609  11.013   5.351  10.561 -0.5951  0.2137 -0.5161
  146MOL0     C19610  11.141   5.301  10.579 -0.4874 -0.2829  0.0597
  146MOL0     O19611  11.241   5.349  10.503  0.7513 -0.0545 -0.0901
  146MOL0     C19612  11.294   5.472  10.552 -0.3067 -1.0843 -0.1914
  146MOL0     C19613  11.432   5.500  10.484  0.3387  0.0181 -0.7587
  146MOL0     C19614  11.537   5.392  10.523  0.2268  0.9995 -0.2780
  146MOL0     C19615  11.578   5.409  10.665 -0.9391 -0.3267 -0.2377
  146MOL0     C19616  11.674   5.302  10.718 -0.1929 -0.4574 -0.5176
  146MOL0     C19617  11.751   5.372  10.836  0.5951  0.2113  0.2490
  146MOL0     C19618  11.870   5.283  10.894 -0.6286 -0.3449 -0.2653
  146MOL0     C19619  11.832   5.150  10.965  0.3385  0.0351 -0.6390
  146MOL0    Cl19620  11.966   5.104  11.070 -0.1363  0.0051 -0.6113
  146MOL0     C19621  11.163   5.212  10.682 -0.0487  1.2019 -0.0419
  146MOL0     C19622  11.054   5.159  10.755 -0.7130  0.1848 -1.0153
  146MOL0     O19623  10.773   5.025  10.593 -0.1758  0.2370 -0.3198
  146MOL0     C19624  10.639   4.838  10.759  0.4296 -0.8237  0.7135
  146MOL0     C19625  10.541   4.760  10.824 -0.1620 -0.1925 -0.7849
  146MOL0     N19626  10.624   4.509  11.479  0.4874 -0.1221  1.2698
  146MOL0     N19627  10.639   4.568  11.596 -0.5194 -0.1126  0.4126
  146MOL0     C19628  11.097   5.332  11.114  0.8136 -0.3333  0.6668
  146MOL0     C19629  11.192   5.412  11.037  0.2334 -0.3401 -1.0077
  146MOL0     C19630  11.434   5.782  10.887  0.1139 -0.4367  0.4413
  146MOL0     C19631  11.472   5.728  10.770  0.5131 -0.0894 -0.2174
  146MOL0     C19632  11.589   5.775  10.709 -0.1972 -0.1415  0.9727
  146MOL0     C19633  11.660   5.884  10.749 -0.8669  0.3495  0.6533
  146MOL0     O19634  11.771   5.921  10.674 -0.0741  0.5304  1.1254
  146MOL0     C19635  11.860   6.009  10.731 -1.9202 -0.2490  0.2464
  146MOL0     C19636  11.986   6.004  10.660 -0.6564 -0.4459  1.0181
  146MOL0     C19637  12.091   5.890  10.711  0.8118 -0.2349 -1.1819
  146MOL0     C19638  12.180   5.934  10.831 -0.0895 -0.1537 -0.5365
  146MOL0     C19639  12.292   5.834  10.849 -0.0521  0.4005 -0.1613
  146MOL0     C19640  12.371   5.743  10.877  0.2388 -0.9018  0.5721
  146MOL0     C19641  11.617   5.948  10.866  0.4820  0.1168  0.4887
  146MOL0     C19642  11.504   5.898  10.929  0.9338  0.0144  1.1476
  146MOL0     H19643  11.029   5.710  11.005  0.6455 -0.7996 -4.2832
  146MOL0     H19644  10.867   5.587  11.140  0.9066  1.2208  0.5975
  146MOL0     H19645  10.960   5.377  11.399 -2.0077  0.7543  0.9179
  146MOL0     H19646  10.846   5.494  11.345  0.0210  1.0306  1.4126
  146MOL0     H19647  10.817   5.243  11.489  0.9437  2.3721  2.3128
  146MOL0     H19648  10.701   5.369  11.470 -2.2438 -1.4278  0.1848
  146MOL0     H19649  10.651   5.265  11.234 -1.0760 -0.0085 -0.1922
  146MOL0     H19650  10.741   5.124  11.286  1.6876  0.4803  1.2800
  146MOL0     H19651  10.477   5.235  11.396 -0.1702 -0.2174  0.5346
  146MOL0     H19652  10.505   5.091  11.295  1.0863  1.8675 -2.5818
  146MOL0     H19653  10.584   5.154  11.594  2.4460  0.9231 -1.1038
  146MOL0     H19654  10.447   5.052  11.540 -1.2144  4.0920  0.7220
  146MOL0     H19655  10.634   4.883  11.455  2.4190  0.4480 -1.2672
  146MOL0     H19656  10.749   5.008  11.523 -0.0868  0.0945  2.0641
  146MOL0     H19657  10.634   4.959  11.740 -1.8623  2.4501 -2.0548
  146MOL0     H19658  10.528   4.847  11.666 -1.3540  2.5190 -1.1430
  146MOL0     H19659  10.720   4.736  11.783 -1.9311 -3.4057 -0.7888
  146MOL0     H19660  10.824   4.834  11.690 -0.3255 -0.0068  0.1176
  146MOL0     H19661  10.844   4.755  11.415  1.3632 -1.8154 -0.4176
  146MOL0     H19662  10.837   4.562  11.219  0.2912  1.1861  2.8321
  146MOL0     H19663  10.713   4.445  11.219 -2.2099  0.2328  1.0957
  146MOL0     H19664  10.675   4.615  11.047  0.7280  1.1182  1.3241
  146MOL0     H19665  10.627   4.730  11.158  1.3422 -0.6027  0.1107
  146MOL0     H19666  10.441   4.597  11.242  0.4992  0.1279 -0.4833
  146MOL0     H19667  10.489   4.467  11.120 -0.6715 -0.4928  0.9085
  146MOL0     H19668  10.301   4.577  11.067  0.2151  1.9432  1.3158
  146MOL0     H19669  10.422   4.569  10.939 -1.2240  2.4588 -0.7597
  146MOL0     H19670  10.404   4.982  11.033  0.5272  1.1884 -1.4210
  146MOL0     H19671  10.675   5.187  11.009 -0.9174  1.4143  0.7214
  146MOL0     H19672  10.588   5.253  10.868 -0.7109  0.7418 -0.2959
  146MOL0     H19673  10.505   5.189  11.022 -0.2943 -2.4157  0.3216
  146MOL0     H19674  10.800   5.304  10.604 -0.6777 -1.6859  1.4285
  146MOL0     H19675  10.996   5.419  10.478  0.0082  2.6570  1.2374
  146MOL0     H19676  11.220   5.547  10.522 -0.6326 -0.2777  2.4002
  146MOL0     H19677  11.290   5.471  10.661  2.9181 -0.5346  0.0356
  146MOL0     H19678  11.430   5.488  10.376  0.8560 -1.2808 -0.6446
  146MOL0     H19679  11.468   5.600  10.507 -1.4086  0.5775 -0.2802
  146MOL0     H19680  11.627   5.407  10.462 -0.1254  2.8086 -0.4201
  146MOL0     H19681  11.504   5.289  10.510 -2.8470  1.7347  0.7959
  146MOL0     H19682  11.614   5.511  10.684 -4.4682  1.1328 -0.6011
  146MOL0     H19683  11.494   5.390  10.733  1.2212 -3.0298  1.9414
  146MOL0     H19684  11.736   5.253  10.643  0.7682  2.5328 -1.8504
  146MOL0     H19685  11.608   5.228  10.764 -0.8417 -0.1078 -0.8709
  146MOL0     H19686  11.789   5.468  10.802  0.0029  0.3855  0.0717
  146MOL0     H19687  11.674   5.400  10.908  0.6085  0.5523  0.1325
  146MOL0     H19688  11.924   5.348  10.963  2.7765 -2.0504 -1.1346
  146MOL0     H19689  11.938   5.269  10.810 -1.8816 -1.6214 -1.1169
  146MOL0     H19690  11.809   5.067  10.897 -3.5672  0.3923  0.0097
  146MOL0     H19691  11.745   5.164  11.029 -0.7491 -0.2247 -2.0073
  146MOL0     H19692  11.264   5.177  10.700  0.5741  3.0945  0.3947
  146MOL0     H19693  11.075   5.086  10.832 -1.9079  1.7282  0.8707
  146MOL0     H19694  10.695   4.791  10.679 -0.0416 -0.0246 -0.0920
  146MOL0     H19695  10.527   4.660  10.785 -1.2113 -1.2737  2.0423
  146MOL0     H19696  11.120   5.236  11.159 -1.7291 -0.7422  1.2498
  146MOL0     H19697  11.290   5.374  11.009  0.3260 -0.2866 -0.7634
  146MOL0     H19698  11.413   5.656  10.714  1.4893  0.0765 -1.4993
  146MOL0     H19699  11.630   5.732  10.619  3.5300  0.2596  2.3181
  146MOL0     H19700  11.824   6.112  10.730  2.0547  1.3134 -0.3654
  146MOL0     H19701  11.878   5.982  10.835  1.8501 -1.3616 -0.5413
  146MOL0     H19702  12.034   6.102  10.666  1.6823 -1.5129  0.8856
  146MOL0     H19703  11.966   5.988  10.553  0.9615 -1.8534  0.8807
  146MOL0     H19704  12.150   5.865  10.624  1.0881 -1.1001 -0.7560
  146MOL0     H19705  12.034   5.804  10.747 -2.3249  2.3606  0.6581
  146MOL0     H19706  12.122   5.938  10.923  0.4971  2.5775 -0.1909
  146MOL0     H19707  12.221   6.033  10.811 -1.6157  0.3580 -1.2710
  146MOL0     H19708  12.438   5.663  10.897 -1.1153 -2.5129 -0.9888
  146MOL0     H19709  11.669   6.029  10.915  1.0387 -2.2616  4.1708
  146MOL0     H19710  11.474   5.932  11.027  0.3660 -4.8045  2.9120
  147MOL0     O19711   2.317   8.251  10.463  0.1041  0.0749  0.1282
  147MOL0     C19712   2.383   8.221  10.365  0.1795 -0.4202  1.2219
  147MOL0     O19713   2.343   8.233  10.231  0.3637  0.0975  0.4738
  147MOL0     C19714   2.236   8.304  10.189 -0.3501 -0.2030 -0.1085
  147MOL0     C19715   2.110   8.235  10.188  0.8438 -0.1413 -0.1735
  147MOL0     C19716   1.995   8.300  10.142 -0.4054 -1.3858  0.2076
  147MOL0     C19717   2.006   8.433  10.097  1.0707  0.1446  0.1567
  147MOL0     O19718   1.887   8.491  10.060 -0.8994  0.2708  0.0456
  147MOL0     C19719   1.859   8.622  10.108  1.1665  0.2413 -0.3261
  147MOL0     C19720   1.712   8.667  10.080  0.2417  0.5479  0.6457
  147MOL0     C19721   1.637   8.644  10.205  0.1229 -0.5124 -0.1161
  147MOL0     C19722   1.489   8.694  10.197 -0.0534 -1.0592 -0.0911
  147MOL0     C19723   1.421   8.683  10.342 -0.0433 -0.1210  0.1858
  147MOL0     C19724   1.267   8.697  10.340  0.4692 -1.4521 -0.3170
  147MOL0     C19725   1.234   8.835  10.292  0.4053 -0.1908  0.3924
  147MOL0     C19726   1.094   8.876  10.315 -0.1807 -0.5937  0.9159
  147MOL0     N19727   0.992   8.793  10.252 -0.6723 -0.7370  0.3052
  147MOL0     C19728   0.909   8.703  10.312 -1.0304  0.1955 -0.3443
  147MOL0     C19729   0.823   8.671  10.217  0.3393  0.9867 -1.2249
  147MOL0     C19730   0.724   8.561  10.227  0.0728  0.6335  0.6618
  147MOL0     C19731   0.591   8.599  10.167 -0.1715  0.8154  1.4774
  147MOL0     C19732   0.477   8.611  10.272  0.4163 -0.3401  0.5339
  147MOL0     C19733   0.330   8.615  10.213 -0.8322  0.4375 -0.4402
  147MOL0     O19734   0.235   8.612  10.318  0.2495  0.4802  1.0040
  147MOL0     C19735   0.166   8.489  10.323 -0.4844 -0.6350 -1.4173
  147MOL0     C19736   0.048   8.475  10.239 -0.6150  0.7398 -0.3468
  147MOL0     C19737  -0.026   8.361  10.236  0.4520  0.2510 -0.0065
  147MOL0     C19738  -0.129   8.350  10.133  0.3533 -0.3296 -1.0836
  147MOL0     C19739   0.011   8.255  10.324 -0.4219  0.5963 -0.1903
  147MOL0     C19740  -0.061   8.121  10.324  0.1530  0.3673 -0.2213
  147MOL0     O19741  -0.200   8.121  10.298  0.6030  0.1914  0.1378
  147MOL0     C19742  -0.273   8.007  10.294 -0.7436 -0.8303  0.4891
  147MOL0     C19743  -0.407   8.032  10.278 -0.6942  0.6199 -0.6838
  147MOL0     C19744  -0.507   7.932  10.278  0.4438 -0.4856 -1.1244
  147MOL0     C19745  -0.475   7.800  10.311 -0.4218  0.2018 -0.0932
  147MOL0     O19746  -0.572   7.701  10.333 -0.0024 -0.4738  0.4047
  147MOL0     C19747  -0.708   7.725  10.310 -0.1261 -0.0608 -0.2816
  147MOL0     C19748  -0.787   7.600  10.343  0.4439  0.2895 -0.2167
  147MOL0     C19749  -0.931   7.624  10.341  0.2936  0.6945  0.0224
  147MOL0     C19750  -1.012   7.498  10.383  0.7227 -0.0205 -0.7555
  147MOL0     C19751  -1.159   7.530  10.410 -0.4229 -0.4977 -0.3534
  147MOL0     C19752  -1.200   7.564  10.549  0.7111 -0.4338 -0.3537
  147MOL0     C19753  -1.345   7.627  10.551  0.3083 -0.4385  0.5899
  147MOL0     C19754  -1.376   7.686  10.685 -0.0799  0.5415  0.5989
  147MOL0    Cl19755  -1.540   7.764  10.688  0.1672 -0.1028  0.2421
  147MOL0     C19756  -0.336   7.774  10.309 -1.0483  0.0428 -0.1963
  147MOL0     C19757  -0.236   7.872  10.297  0.6015  0.3856  0.2761
  147MOL0     O19758   0.007   8.034  10.372 -0.4622  0.1254 -0.3812
  147MOL0     C19759   0.127   8.268  10.407 -0.1513 -0.4269  0.4869
  147MOL0     C19760   0.200   8.384  10.410  0.0889 -0.8868  0.7111
  147MOL0     N19761   0.844   8.744  10.104 -0.2703 -0.0678  0.1382
  147MOL0     N19762   0.945   8.814  10.125  0.3402  0.4929  0.2605
  147MOL0     C19763   2.125   8.504  10.112  0.1790 -0.3819 -0.2007
  147MOL0     C19764   2.240   8.437  10.155  1.0128 -1.0972 -0.6187
  147MOL0     C19765   2.506   8.157  10.390  0.3795  0.4618  0.2926
  147MOL0     C19766   2.619   8.147  10.301  0.5009 -0.0447  0.5812
  147MOL0     C19767   2.736   8.073  10.337  1.1579  0.7129 -0.2522
  147MOL0     C19768   2.732   8.011  10.464 -0.8555  0.2942  0.6484
  147MOL0     O19769   2.848   7.945  10.484  0.3470  0.4015 -0.0675
  147MOL0     C19770   2.875   7.880  10.613  0.7544  0.1143 -0.3341
  147MOL0     C19771   2.813   7.748  10.634  0.1490  0.9208  0.0084
  147MOL0     C19772   2.906   7.633  10.584  0.8744 -0.9612 -0.5265
  147MOL0     C19773   2.883   7.615  10.436 -0.6528 -0.3882  0.5748
  147MOL0     C19774   2.924   7.486  10.389  0.6728  0.2178  0.2489
  147MOL0     C19775   2.938   7.378  10.332 -0.0866  0.5765 -0.8122
  147MOL0     C19776   2.623   8.018  10.552 -0.5810 -0.3014  1.1726
  147MOL0     C19777   2.516   8.092  10.511 -0.5594 -0.3283 -1.1036
  147MOL0     H19778   2.105   8.128  10.206  0.5786  0.2080  2.1685
  147MOL0     H19779   1.901   8.245  10.140 -0.9840 -0.3838 -0.5927
  147MOL0     H19780   1.884   8.624  10.215 -2.4379 -0.2529  0.6425
  147MOL0     H19781   1.924   8.696  10.060  1.1403  0.5816  0.1488
  147MOL0     H19782   1.705   8.773  10.051  0.2311  0.0955 -1.0898
  147MOL0     H19783   1.673   8.611   9.995 -1.5493  2.3905  0.1474
  147MOL0     H19784   1.636   8.537  10.228  0.2803 -0.2282  1.2775
  147MOL0     H19785   1.696   8.683  10.288  0.5747  0.5869 -0.9323
  147MOL0     H19786   1.487   8.793  10.152  1.7090 -1.1388 -0.4224
  147MOL0     H19787   1.427   8.628  10.135 -0.4878 -0.4679 -0.2934
  147MOL0     H19788   1.453   8.583  10.373  3.0189  0.9302  0.7772
  147MOL0     H19789   1.466   8.750  10.415 -0.5141 -0.6266  0.9534
  147MOL0     H19790   1.202   8.623  10.291 -0.7259 -0.6606  0.0257
  147MOL0     H19791   1.226   8.697  10.442  0.1730 -2.4610 -0.4205
  147MOL0     H19792   1.284   8.920  10.340 -1.6242  0.3812  1.6119
  147MOL0     H19793   1.243   8.843  10.183 -2.7296  0.0417  0.0547
  147MOL0     H19794   1.086   8.981  10.285  1.0999 -1.0527 -1.2028
  147MOL0     H19795   1.085   8.868  10.424 -0.6651 -2.0731  0.7781
  147MOL0     H19796   0.921   8.654  10.408  0.0386 -0.4044 -0.7596
  147MOL0     H19797   0.763   8.471  10.178  0.9913  3.0651 -3.5814
  147MOL0     H19798   0.706   8.539  10.333  1.8118  0.8097  1.0245
  147MOL0     H19799   0.566   8.511  10.107 -1.0025  2.2017 -0.2723
  147MOL0     H19800   0.587   8.688  10.104 -0.8038  1.0424  1.8359
  147MOL0     H19801   0.492   8.696  10.340  1.2366 -1.1426  1.3873
  147MOL0     H19802   0.484   8.518  10.329  1.0477  0.2828  1.5012
  147MOL0     H19803   0.311   8.527  10.150  1.2541  0.4456 -1.1348
  147MOL0     H19804   0.313   8.699  10.145 -2.0192  0.4122 -0.2091
  147MOL0     H19805   0.035   8.551  10.163 -0.4665  1.2394  0.1194
  147MOL0     H19806  -0.114   8.257  10.077  1.2972 -1.2415  0.6230
  147MOL0     H19807  -0.222   8.336  10.190  0.6061 -1.5809 -0.9443
  147MOL0     H19808  -0.135   8.438  10.068  2.6396  1.4490  0.9232
  147MOL0     H19809  -0.430   8.137  10.258 -0.3081  0.3636 -2.6631
  147MOL0     H19810  -0.606   7.972  10.260 -0.0367  0.9713  3.4346
  147MOL0     H19811  -0.733   7.803  10.382 -5.0986  0.4471 -2.1462
  147MOL0     H19812  -0.735   7.751  10.207 -3.2078  2.1901  0.9262
  147MOL0     H19813  -0.758   7.529  10.265  2.4635 -0.0682  0.7716
  147MOL0     H19814  -0.758   7.567  10.443  0.9762  2.1687  0.3017
  147MOL0     H19815  -0.951   7.647  10.236  1.4516 -0.4321 -0.4715
  147MOL0     H19816  -0.965   7.709  10.402 -1.0617  0.5211 -0.4555
  147MOL0     H19817  -1.007   7.424  10.302 -2.3756 -0.4510 -0.6410
  147MOL0     H19818  -0.972   7.438  10.465 -2.8021 -2.7254 -0.7456
  147MOL0     H19819  -1.213   7.437  10.389 -0.5824 -0.3848 -0.4485
  147MOL0     H19820  -1.195   7.606  10.339  1.2872  2.2579  1.5020
  147MOL0     H19821  -1.202   7.466  10.597  0.5388 -1.0725 -1.6222
  147MOL0     H19822  -1.125   7.635  10.585  2.2604 -1.1519 -2.0418
  147MOL0     H19823  -1.422   7.551  10.531 -1.1076  1.0722  0.1328
  147MOL0     H19824  -1.344   7.708  10.478  1.9215 -1.9132 -1.1072
  147MOL0     H19825  -1.308   7.765  10.717  0.3922  0.5924 -0.4793
  147MOL0     H19826  -1.372   7.606  10.759  1.1077  0.5448  0.5654
  147MOL0     H19827  -0.311   7.669  10.310  0.9303  0.4618 -0.7629
  147MOL0     H19828  -0.135   7.834  10.310  0.1311 -0.9350  0.2874
  147MOL0     H19829   0.159   8.184  10.468  1.1936 -0.5307 -0.3233
  147MOL0     H19830   0.293   8.378  10.466  0.0283  1.1036  1.0795
  147MOL0     H19831   2.131   8.609  10.085 -2.3298  0.1110  0.9341
  147MOL0     H19832   2.326   8.502  10.161 -2.0090  3.4191 -0.8518
  147MOL0     H19833   2.631   8.207  10.212  3.2349 -0.8551  0.3118
  147MOL0     H19834   2.819   8.060  10.269  2.7853  4.1252  0.8822
  147MOL0     H19835   2.981   7.881  10.639  1.1332  0.5417 -1.7998
  147MOL0     H19836   2.830   7.939  10.693 -1.6804 -2.2509  0.2001
  147MOL0     H19837   2.712   7.736  10.594 -0.6106  1.3725  1.6953
  147MOL0     H19838   2.810   7.736  10.743 -0.2814 -0.5764 -0.1496
  147MOL0     H19839   2.882   7.544  10.643 -1.4947  0.9280  1.5418
  147MOL0     H19840   3.012   7.653  10.602  1.1931 -3.3976  0.7811
  147MOL0     H19841   2.934   7.694  10.379  2.3648 -1.5391  1.4798
  147MOL0     H19842   2.777   7.627  10.413 -0.5476 -0.1393  0.1923
  147MOL0     H19843   2.943   7.281  10.288 -1.4072  0.4710 -0.7605
  147MOL0     H19844   2.626   7.982  10.655 -1.2935  0.7383  1.5751
  147MOL0     H19845   2.454   8.103  10.599  0.3646 -3.6357  0.0970
  148MOL0     O19846   3.285   5.722   3.415  0.1124 -0.5814 -0.1364
  148MOL0     C19847   3.365   5.724   3.514  0.5102  1.1556 -0.0495
  148MOL0     O19848   3.370   5.828   3.605 -0.2476  0.8937  0.5451
  148MOL0     C19849   3.262   5.908   3.632  0.7999  0.1803  0.8496
  148MOL0     C19850   3.123   5.878   3.619 -0.2232 -0.2598  0.4409
  148MOL0     C19851   3.030   5.969   3.652  0.2029 -0.3951 -0.6496
  148MOL0     C19852   3.065   6.097   3.701 -0.0544  0.8016 -0.3921
  148MOL0     O19853   2.961   6.184   3.727  0.0971  0.2471  0.3402
  148MOL0     C19854   2.986   6.316   3.778 -0.7551  0.0823 -0.3863
  148MOL0     C19855   2.852   6.373   3.811 -0.6534  0.0168  1.8539
  148MOL0     C19856   2.773   6.291   3.915 -0.0044  0.3620  0.2959
  148MOL0     C19857   2.638   6.357   3.938 -0.3361  0.8110 -0.4838
  148MOL0     C19858   2.531   6.261   3.979  0.9069  0.9398  0.0382
  148MOL0     C19859   2.436   6.313   4.072 -0.0920 -0.4884 -0.3057
  148MOL0     C19860   2.312   6.218   4.088  0.3570 -1.1474 -0.8345
  148MOL0     C19861   2.342   6.110   4.188 -0.9818  0.7826 -0.2960
  148MOL0     N19862   2.339   6.151   4.325  1.1258  0.7125 -0.6879
  148MOL0     C19863   2.448   6.180   4.404 -0.1829 -0.3325  0.5776
  148MOL0     C19864   2.408   6.203   4.530  0.6683  0.0450 -0.1387
  148MOL0     C19865   2.494   6.244   4.650  0.0158 -0.5126  0.1138
  148MOL0     C19866   2.617   6.147   4.681  0.3337 -0.8569 -0.1614
  148MOL0     C19867   2.661   6.163   4.827  0.4904  0.8012 -0.0298
  148MOL0     C19868   2.793   6.098   4.840 -0.0830 -0.0544 -0.4790
  148MOL0     O19869   2.899   6.190   4.786  0.8474 -0.4986  0.5926
  148MOL0     C19870   3.031   6.148   4.779  0.2036 -0.1870 -1.1227
  148MOL0     C19871   3.113   6.228   4.710  0.1127 -0.2695 -0.4279
  148MOL0     C19872   3.251   6.205   4.707  0.1070  0.1746 -0.2548
  148MOL0     C19873   3.341   6.300   4.642 -0.7653 -0.6248  0.2132
  148MOL0     C19874   3.304   6.081   4.771  1.3924 -0.6138  0.5482
  148MOL0     C19875   3.439   6.032   4.762  0.0957 -0.7872 -0.3853
  148MOL0     O19876   3.484   5.970   4.879  0.6848 -0.3337 -0.1570
  148MOL0     C19877   3.610   5.924   4.883  0.6941 -0.2129  0.2729
  148MOL0     C19878   3.713   6.002   4.928 -0.2837 -0.5043 -1.1932
  148MOL0     C19879   3.849   5.953   4.933  0.1530  0.1714 -0.6741
  148MOL0     C19880   3.876   5.826   4.880 -0.6649 -0.9038  0.4729
  148MOL0     O19881   4.007   5.775   4.882 -0.7380  0.3112 -0.4698
  148MOL0     C19882   4.008   5.665   4.979  0.4151 -0.9646  0.1878
  148MOL0     C19883   4.148   5.628   5.010  0.2373 -0.3087  0.6520
  148MOL0     C19884   4.222   5.551   4.896  0.2642 -0.4511 -0.5138
  148MOL0     C19885   4.369   5.517   4.939  0.5707 -0.4011 -0.3617
  148MOL0     C19886   4.371   5.415   5.059  0.2456 -1.7539 -0.1187
  148MOL0     C19887   4.295   5.282   5.040 -0.6258 -0.1268 -0.2877
  148MOL0     C19888   4.349   5.172   5.134 -0.1096 -0.1907  0.2921
  148MOL0     C19889   4.332   5.033   5.079  0.6920  0.4933 -0.6444
  148MOL0    Cl19890   4.395   4.994   4.914 -0.0765  0.2831 -0.1140
  148MOL0     C19891   3.770   5.745   4.823  0.6302  0.4847 -0.8687
  148MOL0     C19892   3.637   5.790   4.832  0.0536  0.2696 -0.5250
  148MOL0     O19893   3.500   6.033   4.655  0.1178  0.0870 -0.3757
  148MOL0     C19894   3.211   5.999   4.833 -1.3206  0.7086 -0.4281
  148MOL0     C19895   3.077   6.034   4.849 -0.0910  0.3084 -0.5792
  148MOL0     N19896   2.266   6.181   4.529  0.9877 -0.0708 -0.0554
  148MOL0     N19897   2.223   6.159   4.405  1.3452  0.6545 -0.8905
  148MOL0     C19898   3.201   6.116   3.728  0.9635 -0.9127 -0.5861
  148MOL0     C19899   3.299   6.032   3.689 -0.4336  0.4622 -0.1757
  148MOL0     C19900   3.463   5.613   3.528 -0.0660  0.0171  0.0259
  148MOL0     C19901   3.454   5.497   3.448 -0.4315 -0.2817 -0.3937
  148MOL0     C19902   3.545   5.398   3.465 -0.2475  0.3893 -0.1046
  148MOL0     C19903   3.657   5.416   3.545  0.4056  0.1587 -0.2757
  148MOL0     O19904   3.739   5.307   3.562  0.4607 -0.0956 -0.1834
  148MOL0     C19905   3.788   5.288   3.691 -1.0020  0.1023 -0.5598
  148MOL0     C19906   3.857   5.147   3.688 -1.2649 -0.0071 -0.0962
  148MOL0     C19907   3.752   5.044   3.679 -0.5662  0.0287 -0.4595
  148MOL0     C19908   3.819   4.903   3.699  0.5985  0.0210  0.2961
  148MOL0     C19909   3.723   4.801   3.665 -0.7497  0.0752 -0.1004
  148MOL0     C19910   3.635   4.726   3.637  0.4291 -1.0781  0.1475
  148MOL0     C19911   3.679   5.532   3.617  0.5208 -0.0847 -0.4945
  148MOL0     C19912   3.578   5.630   3.611  0.2042  0.3035 -0.4288
  148MOL0     H19913   3.090   5.777   3.594  0.1315 -0.9325  2.5103
  148MOL0     H19914   2.923   5.950   3.647  0.1995 -0.9083  0.8099
  148MOL0     H19915   3.038   6.315   3.874 -2.0863 -0.5991  0.3575
  148MOL0     H19916   3.042   6.383   3.711 -1.4138  1.1517  0.0990
  148MOL0     H19917   2.870   6.479   3.832  0.6934  0.7706 -2.1183
  148MOL0     H19918   2.807   6.375   3.711  1.4501 -1.5271  0.8016
  148MOL0     H19919   2.756   6.192   3.873 -1.8896  1.4410 -1.7114
  148MOL0     H19920   2.841   6.284   4.001  1.5167 -2.4413 -1.0050
  148MOL0     H19921   2.656   6.431   4.016 -1.0281  1.3422 -0.8054
  148MOL0     H19922   2.615   6.416   3.849  3.5152  4.8609  0.8562
  148MOL0     H19923   2.495   6.225   3.882  3.1618  3.0512 -1.7156
  148MOL0     H19924   2.573   6.170   4.023  0.1540  1.1220  1.1808
  148MOL0     H19925   2.487   6.351   4.161  4.3625 -2.5555 -1.7049
  148MOL0     H19926   2.392   6.404   4.030  0.4889  0.3680  0.8998
  148MOL0     H19927   2.225   6.276   4.122  0.2255 -1.0131 -1.3899
  148MOL0     H19928   2.267   6.186   3.993 -0.9460 -0.8382 -0.3490
  148MOL0     H19929   2.437   6.062   4.163 -1.3550 -2.5298  3.6741
  148MOL0     H19930   2.262   6.036   4.185 -1.9209  1.6817  1.2259
  148MOL0     H19931   2.542   6.200   4.354 -0.8341 -0.3329 -0.6952
  148MOL0     H19932   2.536   6.344   4.632  1.5654 -1.0903  0.4316
  148MOL0     H19933   2.440   6.262   4.744  2.0286 -1.3219  1.4783
  148MOL0     H19934   2.708   6.179   4.629  1.5132 -0.6196  1.9188
  148MOL0     H19935   2.605   6.041   4.656  0.2134 -0.8510 -0.1340
  148MOL0     H19936   2.588   6.119   4.896  0.8010 -0.6060 -0.5577
  148MOL0     H19937   2.669   6.269   4.854  0.1444  1.2539 -1.6292
  148MOL0     H19938   2.802   6.006   4.781 -0.9573 -0.1839 -0.4313
  148MOL0     H19939   2.814   6.079   4.946 -2.0568 -2.0161 -0.3626
  148MOL0     H19940   3.075   6.314   4.655  2.4177  2.0325  1.3375
  148MOL0     H19941   3.346   6.297   4.533  3.7198 -1.0771  0.2815
  148MOL0     H19942   3.299   6.400   4.662  1.0651  0.3236 -0.4938
  148MOL0     H19943   3.443   6.295   4.680 -0.0652  0.4665 -1.3696
  148MOL0     H19944   3.699   6.104   4.963 -1.7719 -0.5274 -1.6790
  148MOL0     H19945   3.926   6.016   4.976 -0.8247  0.2687  1.0461
  148MOL0     H19946   3.951   5.690   5.069  0.5269 -1.0918  0.2947
  148MOL0     H19947   3.955   5.581   4.932 -1.2172  0.5860 -0.8870
  148MOL0     H19948   4.207   5.713   5.044 -0.2780 -0.4026  1.8296
  148MOL0     H19949   4.139   5.563   5.098 -2.3732 -1.1469 -0.1260
  148MOL0     H19950   4.228   5.622   4.814  2.5871 -0.3889 -0.3369
  148MOL0     H19951   4.166   5.460   4.870 -0.3809  0.0544 -0.9335
  148MOL0     H19952   4.415   5.464   4.855 -2.2444  2.6868 -4.1950
  148MOL0     H19953   4.429   5.608   4.949  1.7153 -0.7326 -3.2809
  148MOL0     H19954   4.338   5.470   5.147  1.6305  0.0988 -0.7058
  148MOL0     H19955   4.477   5.400   5.082  0.0153 -2.7375  0.4008
  148MOL0     H19956   4.192   5.298   5.070 -0.5420  3.0282 -1.2748
  148MOL0     H19957   4.305   5.255   4.934  0.5249  3.0559 -1.1180
  148MOL0     H19958   4.302   5.179   5.232 -1.4222 -0.5604 -0.2897
  148MOL0     H19959   4.456   5.181   5.151 -0.1003  0.1528  0.0741
  148MOL0     H19960   4.228   5.001   5.089  0.9394  0.4015  2.4601
  148MOL0     H19961   4.392   4.979   5.152  0.7914 -1.6491 -2.1906
  148MOL0     H19962   3.788   5.650   4.774  2.2452 -0.3112  1.0889
  148MOL0     H19963   3.570   5.718   4.787 -0.4979  0.2976  0.2249
  148MOL0     H19964   3.244   5.903   4.870  1.3494  1.3870 -0.8960
  148MOL0     H19965   3.010   5.973   4.909  1.0335 -1.2662 -0.8654
  148MOL0     H19966   3.227   6.215   3.767  0.0770 -1.3039  1.1162
  148MOL0     H19967   3.402   6.062   3.704 -0.3380  0.8261 -1.4043
  148MOL0     H19968   3.375   5.488   3.374  1.5232  3.7176 -3.3681
  148MOL0     H19969   3.542   5.316   3.395  0.8931 -0.3921  0.7336
  148MOL0     H19970   3.863   5.360   3.723 -0.2693 -0.6149 -0.6163
  148MOL0     H19971   3.718   5.300   3.774  1.7434  1.5866  1.6970
  148MOL0     H19972   3.908   5.127   3.783  0.3134  2.0020 -0.4366
  148MOL0     H19973   3.931   5.151   3.607 -1.4831 -2.9174 -0.5382
  148MOL0     H19974   3.713   5.049   3.576  1.0018  1.6759 -1.0285
  148MOL0     H19975   3.672   5.053   3.752  0.1805 -3.2268  0.9336
  148MOL0     H19976   3.848   4.892   3.804  0.2435 -0.0588  0.3848
  148MOL0     H19977   3.910   4.888   3.640  0.6376  2.4631 -0.3430
  148MOL0     H19978   3.554   4.659   3.614  0.1160 -1.0247  1.0526
  148MOL0     H19979   3.765   5.551   3.680 -0.8295 -0.4826  1.5608
  148MOL0     H19980   3.592   5.722   3.667  1.5843 -1.3071  2.1252
  149MOL0     O19981   9.724  11.105  10.487 -0.2946  0.1504 -0.3337
  149MOL0     C19982   9.619  11.150  10.448  0.7459 -0.8552  0.1558
  149MOL0     O19983   9.528  11.232  10.521 -0.5828  0.2191  0.1575
  149MOL0     C19984   9.539  11.301  10.645  0.6757 -0.2834  1.1610
  149MOL0     C19985   9.638  11.276  10.731 -0.4688 -0.4906 -0.7722
  149MOL0     C19986   9.659  11.347  10.856 -0.2547  0.2835  0.4218
  149MOL0     C19987   9.567  11.455  10.868 -1.1400 -0.4464 -0.5308
  149MOL0     O19988   9.587  11.533  10.982  0.2390  0.7858  0.0635
  149MOL0     C19989   9.515  11.502  11.102  0.6447  0.0428  0.8228
  149MOL0     C19990   9.366  11.538  11.093 -0.2323  0.1612 -0.4262
  149MOL0     C19991   9.299  11.526  11.224 -0.5500 -0.0821  0.5547
  149MOL0     C19992   9.166  11.592  11.214  0.1529 -0.5071 -0.3051
  149MOL0     C19993   9.124  11.629  11.352  0.5234 -0.3995 -0.1537
  149MOL0     C19994   8.981  11.695  11.360  0.1845 -0.8345 -0.2294
  149MOL0     C19995   8.972  11.759  11.495  0.4227  0.3526 -0.0665
  149MOL0     C19996   8.855  11.857  11.496 -0.3839 -0.1959  1.5214
  149MOL0     N19997   8.840  11.924  11.631  0.2331  0.6236  0.4361
  149MOL0     C19998   8.768  11.864  11.727  0.0007  0.1401 -0.3063
  149MOL0     C19999   8.821  11.908  11.838  0.7921  0.2140 -0.2470
  149MOL0     C20000   8.797  11.864  11.980 -0.0500  0.1162 -0.4057
  149MOL0     C20001   8.681  11.949  12.045  0.3169 -0.2469 -0.1293
  149MOL0     C20002   8.624  11.883  12.164  0.0191 -0.8778 -0.8930
  149MOL0     C20003   8.501  11.969  12.206 -0.5802  0.1232  1.2364
  149MOL0     O20004   8.380  11.943  12.127 -0.0667  0.1512 -0.4446
  149MOL0     C20005   8.262  12.002  12.160 -0.6978  0.3012 -0.6662
  149MOL0     C20006   8.256  12.100  12.259 -0.5637  0.2897  0.1837
  149MOL0     C20007   8.137  12.174  12.284  0.1072  0.2074  0.3815
  149MOL0     C20008   8.144  12.282  12.392 -0.5500 -0.6190 -0.1302
  149MOL0     C20009   8.022  12.157  12.201 -1.0561  0.0215  0.2853
  149MOL0     C20010   7.901  12.246  12.207 -0.0453  0.0726 -0.3494
  149MOL0     O20011   7.829  12.255  12.099  0.2518  0.2011  0.0692
  149MOL0     C20012   7.717  12.337  12.094 -0.4459 -0.7397  0.1656
  149MOL0     C20013   7.711  12.432  11.999 -0.1700  0.2656  0.4388
  149MOL0     C20014   7.600  12.510  11.985 -0.7025  0.0174 -1.0288
  149MOL0     C20015   7.485  12.496  12.058  0.2565  0.3164  0.4884
  149MOL0     O20016   7.386  12.586  12.026 -0.4543  0.4189 -0.0473
  149MOL0     C20017   7.272  12.583  12.111 -0.8349 -0.2736 -0.1900
  149MOL0     C20018   7.179  12.694  12.051 -0.5254  0.6308  0.4233
  149MOL0     C20019   7.049  12.703  12.128 -0.9712 -0.8472  0.8868
  149MOL0     C20020   6.944  12.788  12.046  0.3517  1.0503  0.2247
  149MOL0     C20021   6.814  12.796  12.126 -0.6214 -0.5094  0.0875
  149MOL0     C20022   6.708  12.871  12.052 -0.5552 -0.1848  0.4928
  149MOL0     C20023   6.590  12.894  12.154  0.0726 -0.8072  0.5660
  149MOL0     C20024   6.485  12.985  12.101 -0.5157 -0.1315 -0.5166
  149MOL0    Cl20025   6.562  13.146  12.055 -0.2032 -0.3041  0.1312
  149MOL0     C20026   7.490  12.390  12.157 -0.6361 -0.4653  1.0946
  149MOL0     C20027   7.611  12.318  12.183  0.3167 -0.6607 -0.1308
  149MOL0     O20028   7.876  12.308  12.312  0.0695 -0.2647  0.3908
  149MOL0     C20029   8.035  12.061  12.094  0.3404 -0.7545  0.4384
  149MOL0     C20030   8.155  11.986  12.082  1.4989  0.4206 -0.2410
  149MOL0     N20031   8.926  11.995  11.804  0.7949  0.3866 -0.6755
  149MOL0     N20032   8.928  12.011  11.679  0.0312  0.7843  0.4881
  149MOL0     C20033   9.467  11.479  10.780  1.0564 -0.1937  0.4485
  149MOL0     C20034   9.444  11.404  10.666  0.0906  0.0220  0.7434
  149MOL0     C20035   9.560  11.082  10.337 -0.7497 -0.7896  1.0908
  149MOL0     C20036   9.427  11.102  10.306  0.5964 -0.5897  0.1600
  149MOL0     C20037   9.362  11.058  10.187 -0.2983  0.3546 -0.4214
  149MOL0     C20038   9.432  10.972  10.103  0.6960  0.4732 -0.4204
  149MOL0     O20039   9.352  10.904  10.011  0.2969  0.2960 -0.0115
  149MOL0     C20040   9.417  10.849   9.899 -1.0536 -0.0874 -0.7061
  149MOL0     C20041   9.336  10.752   9.824 -0.3259  0.1042 -0.2017
  149MOL0     C20042   9.247  10.826   9.721  0.5252 -0.1263  0.5217
  149MOL0     C20043   9.100  10.827   9.762  0.3039 -0.2223  0.4530
  149MOL0     C20044   9.027  10.857   9.641 -0.0966  0.4130  0.5825
  149MOL0     C20045   8.972  10.889   9.539 -0.3929  0.4464 -0.2845
  149MOL0     C20046   9.559  10.948  10.133  0.1737  0.3618 -0.2626
  149MOL0     C20047   9.623  11.015  10.237 -0.4863 -0.4537  0.7706
  149MOL0     H20048   9.712  11.197  10.727 -0.1528 -0.3385  1.1590
  149MOL0     H20049   9.735  11.328  10.931  0.7805 -0.6858 -0.8243
  149MOL0     H20050   9.523  11.398  11.135  0.1802  0.1880  1.4105
  149MOL0     H20051   9.564  11.569  11.173  4.6654 -0.4407 -1.1966
  149MOL0     H20052   9.367  11.642  11.058 -3.0676 -0.1699 -1.8318
  149MOL0     H20053   9.317  11.486  11.010 -3.1641  0.9082  0.6915
  149MOL0     H20054   9.288  11.425  11.263  0.4160 -0.1067  0.8059
  149MOL0     H20055   9.363  11.578  11.296 -0.7129  1.5050 -0.3981
  149MOL0     H20056   9.167  11.686  11.157 -0.7188  1.4275  2.6343
  149MOL0     H20057   9.097  11.520  11.169  1.7051 -2.7928  0.7706
  149MOL0     H20058   9.121  11.552  11.429  0.8227 -0.0167  0.2466
  149MOL0     H20059   9.197  11.707  11.378 -3.3644  2.4882  3.5096
  149MOL0     H20060   8.962  11.771  11.283 -1.8019 -2.0688 -1.0355
  149MOL0     H20061   8.901  11.623  11.342 -0.8985 -0.7012  3.2451
  149MOL0     H20062   8.959  11.690  11.578 -1.7645 -1.9392 -2.1258
  149MOL0     H20063   9.066  11.807  11.524  0.1013 -0.1056  1.8174
  149MOL0     H20064   8.765  11.809  11.456  0.6288 -1.8089  1.0756
  149MOL0     H20065   8.880  11.939  11.428  1.5868  0.2260  2.6662
  149MOL0     H20066   8.694  11.785  11.718  0.9243 -0.9840  1.4174
  149MOL0     H20067   8.763  11.760  11.985 -0.9959  0.4586  1.5246
  149MOL0     H20068   8.891  11.860  12.035 -0.6075 -0.9766  0.5177
  149MOL0     H20069   8.611  11.972  11.964  1.3822 -0.0821 -1.0261
  149MOL0     H20070   8.729  12.045  12.065  1.4477 -1.0185  1.0409
  149MOL0     H20071   8.677  11.895  12.259  0.9805 -1.1356 -1.3780
  149MOL0     H20072   8.607  11.776  12.145 -4.0101 -0.8191  1.2421
  149MOL0     H20073   8.516  12.077  12.214  0.4547 -0.0043  1.0949
  149MOL0     H20074   8.481  11.933  12.307 -2.0468  1.7580  1.5742
  149MOL0     H20075   8.337  12.120  12.329 -0.7739 -0.2469  0.5963
  149MOL0     H20076   8.241  12.304  12.437 -2.5166  1.2792  3.7111
  149MOL0     H20077   8.120  12.378  12.346  2.8234  0.7131  0.6120
  149MOL0     H20078   8.081  12.261  12.478  1.8582  3.3750  2.9722
  149MOL0     H20079   7.790  12.454  11.928 -2.9471  2.8135 -2.1903
  149MOL0     H20080   7.598  12.595  11.916  1.9072  1.1741  0.1830
  149MOL0     H20081   7.229  12.483  12.110  1.0042 -1.1602 -3.2020
  149MOL0     H20082   7.293  12.609  12.216 -2.4345  2.0056 -0.3453
  149MOL0     H20083   7.226  12.791  12.064 -2.7108  2.1434 -1.9437
  149MOL0     H20084   7.164  12.673  11.944  0.6184 -0.7398  0.5001
  149MOL0     H20085   7.061  12.761  12.220  0.0517 -0.3396  0.4493
  149MOL0     H20086   7.014  12.602  12.151 -1.3894 -0.7718  0.5881
  149MOL0     H20087   6.976  12.886  12.009  0.2730  0.8462 -0.3955
  149MOL0     H20088   6.903  12.734  11.960  0.2373  1.8390 -0.2233
  149MOL0     H20089   6.836  12.856  12.214 -1.7292  0.0810 -0.0184
  149MOL0     H20090   6.778  12.697  12.156  0.2005 -1.1427 -0.9291
  149MOL0     H20091   6.752  12.962  12.011 -1.1075  0.5173  1.4394
  149MOL0     H20092   6.678  12.812  11.964  0.4787  1.4430 -1.0199
  149MOL0     H20093   6.623  12.948  12.243 -0.5301  0.7893 -0.1323
  149MOL0     H20094   6.543  12.798  12.178 -1.8357  0.6103  2.8717
  149MOL0     H20095   6.410  12.995  12.180 -0.0711  0.2397 -0.1378
  149MOL0     H20096   6.435  12.936  12.017 -1.6786 -0.5452  0.3785
  149MOL0     H20097   7.410  12.379  12.230 -2.6925 -1.5267 -1.2031
  149MOL0     H20098   7.619  12.250  12.266 -1.0491 -3.6111 -2.2578
  149MOL0     H20099   7.951  12.049  12.026  0.2094  1.4854  0.1320
  149MOL0     H20100   8.165  11.916  12.001 -1.8653 -0.7189  0.1688
  149MOL0     H20101   9.417  11.573  10.800  0.0906 -1.1805  3.1942
  149MOL0     H20102   9.358  11.424  10.603 -1.0161 -3.6414  0.8379
  149MOL0     H20103   9.355  11.166  10.355 -0.4950 -1.0154 -0.8505
  149MOL0     H20104   9.255  11.066  10.172 -0.3256  2.9338  0.6995
  149MOL0     H20105   9.446  10.922   9.822  0.3163  0.6417  0.4499
  149MOL0     H20106   9.510  10.801   9.929  0.2787  1.4819 -2.1013
  149MOL0     H20107   9.273  10.704   9.899 -2.2782  1.3474 -0.9551
  149MOL0     H20108   9.403  10.680   9.778  0.1517  0.3566  0.0880
  149MOL0     H20109   9.260  10.770   9.629  2.0808 -4.8072  3.2553
  149MOL0     H20110   9.286  10.928   9.707  2.4093 -0.8491  0.3134
  149MOL0     H20111   9.071  10.912   9.824 -0.3847 -0.1034 -0.0210
  149MOL0     H20112   9.058  10.734   9.801 -1.8449 -0.4248 -2.0499
  149MOL0     H20113   8.910  10.918   9.456 -1.6076  0.5014  0.6149
  149MOL0     H20114   9.617  10.872  10.081 -1.0743 -1.5888  1.0505
  149MOL0     H20115   9.730  10.998  10.239 -0.6974 -1.7508  2.1733
  150MOL0     O20116   1.365   9.780  10.279 -0.5924 -0.3837  0.3773
  150MOL0     C20117   1.370   9.734  10.395  0.1393  0.4533  0.3571
  150MOL0     O20118   1.484   9.670  10.446 -1.2406 -0.6177 -0.5642
  150MOL0     C20119   1.607   9.669  10.378 -0.4726 -0.7360  0.0433
  150MOL0     C20120   1.651   9.779  10.294 -0.4825  0.2852  0.6796
  150MOL0     C20121   1.785   9.773  10.236  1.0522 -0.2731  0.2891
  150MOL0     C20122   1.868   9.659  10.245 -0.2034  0.5806 -0.0108
  150MOL0     O20123   1.992   9.641  10.189 -0.2528 -0.1295 -0.8529
  150MOL0     C20124   1.987   9.654  10.052 -0.2880 -0.4667 -1.0169
  150MOL0     C20125   2.128   9.654  10.008  0.1265 -0.7355 -0.2310
  150MOL0     C20126   2.151   9.767   9.902  0.3771  0.2372 -0.5492
  150MOL0     C20127   2.261   9.720   9.807  0.4478  0.7680  0.2143
  150MOL0     C20128   2.269   9.811   9.683  0.4208  0.8621 -0.2732
  150MOL0     C20129   2.373   9.759   9.595 -0.0108  0.2938 -0.1125
  150MOL0     C20130   2.371   9.827   9.463  0.6000 -0.2363 -1.5951
  150MOL0     C20131   2.425   9.971   9.462  0.4346 -0.1149  0.3332
  150MOL0     N20132   2.566   9.966   9.478  1.2002 -0.3899 -0.1403
  150MOL0     C20133   2.660  10.027   9.394 -0.4159  0.5038  1.2216
  150MOL0     C20134   2.766  10.052   9.474 -0.7099 -0.7342 -0.7839
  150MOL0     C20135   2.905  10.098   9.427 -0.0088  0.8675 -0.9802
  150MOL0     C20136   2.918  10.250   9.462 -0.0364 -0.1963 -0.2216
  150MOL0     C20137   2.831  10.329   9.358 -0.2803  0.8120 -0.3183
  150MOL0     C20138   2.829  10.481   9.387 -0.9534  0.6588 -0.0757
  150MOL0     O20139   2.739  10.546   9.300  0.0385 -0.1685  0.2160
  150MOL0     C20140   2.651  10.633   9.350  0.2978  0.0752 -0.2993
  150MOL0     C20141   2.523  10.654   9.292 -0.3577 -0.3046 -0.0011
  150MOL0     C20142   2.421  10.739   9.342 -0.2227  0.3687 -0.5832
  150MOL0     C20143   2.282  10.741   9.278 -0.0637  0.2921  0.0372
  150MOL0     C20144   2.453  10.820   9.448 -0.7725  0.2363 -0.8849
  150MOL0     C20145   2.361  10.918   9.521 -0.0150 -0.2087 -0.5215
  150MOL0     O20146   2.382  10.936   9.654  0.0501  0.2078  0.7570
  150MOL0     C20147   2.295  11.032   9.715 -0.0534 -0.4248  0.9171
  150MOL0     C20148   2.262  11.167   9.663 -0.3065  1.2759 -0.6668
  150MOL0     C20149   2.167  11.238   9.735  0.1413 -0.2651 -0.0346
  150MOL0     C20150   2.111  11.201   9.850  0.7272 -0.2263 -0.1626
  150MOL0     O20151   2.031  11.292   9.915  0.2140 -0.3083 -0.2273
  150MOL0     C20152   2.094  11.380  10.011  0.0601 -0.5827 -0.2360
  150MOL0     C20153   1.972  11.439  10.093  0.5128  0.3097 -0.2644
  150MOL0     C20154   2.012  11.491  10.235 -0.0815 -0.2807  0.1471
  150MOL0     C20155   1.915  11.596  10.305 -0.0114 -0.1234 -0.6409
  150MOL0     C20156   1.933  11.610  10.462  0.1660  0.1127 -0.5453
  150MOL0     C20157   2.055  11.693  10.503  0.3772 -0.6867  0.3481
  150MOL0     C20158   2.076  11.679  10.647  0.5642  0.3118 -0.3964
  150MOL0     C20159   2.198  11.740  10.694 -0.5565  0.3772 -0.5091
  150MOL0    Cl20160   2.210  11.910  10.632 -0.0574  0.4547  0.0955
  150MOL0     C20161   2.140  11.068   9.897  0.2494 -0.6400  0.1568
  150MOL0     C20162   2.234  10.986   9.831 -0.7274 -0.3413  0.0456
  150MOL0     O20163   2.275  10.988   9.454 -0.7010 -0.0771 -0.0590
  150MOL0     C20164   2.581  10.799   9.514  0.4183  0.0759  0.5174
  150MOL0     C20165   2.668  10.710   9.459 -0.0102 -0.5646  0.8236
  150MOL0     N20166   2.744  10.001   9.601  0.3745  0.1704  0.3147
  150MOL0     N20167   2.625   9.947   9.602 -0.2575  0.1609  0.5207
  150MOL0     C20168   1.817   9.563  10.326 -0.2537  0.8378  0.3716
  150MOL0     C20169   1.695   9.562  10.390  0.9016  0.1479 -0.2918
  150MOL0     C20170   1.248   9.728  10.481  0.3371  0.1079 -0.3854
  150MOL0     C20171   1.256   9.671  10.617 -0.3849 -0.0121 -0.2359
  150MOL0     C20172   1.139   9.646  10.686  1.2036  0.5472 -0.0071
  150MOL0     C20173   1.017   9.690  10.634  0.1884  1.1524  0.2303
  150MOL0     O20174   0.896   9.669  10.695  0.1382  0.0841  0.3301
  150MOL0     C20175   0.883   9.657  10.838  1.0310  0.4595  1.2155
  150MOL0     C20176   0.761   9.722  10.892  0.2896 -0.5651 -0.0442
  150MOL0     C20177   0.637   9.630  10.910 -1.0597 -0.3186 -0.1981
  150MOL0     C20178   0.511   9.703  10.929  0.4278 -0.6354 -0.5874
  150MOL0     C20179   0.394   9.625  10.981 -0.7058 -0.5211  0.9208
  150MOL0     C20180   0.295   9.557  11.003 -0.2502  0.4299 -0.7588
  150MOL0     C20181   1.011   9.738  10.507  0.7904  0.4178 -0.4593
  150MOL0     C20182   1.120   9.753  10.426 -0.3837 -0.6188  0.3825
  150MOL0     H20183   1.601   9.875  10.287  1.0496  1.0693 -0.0118
  150MOL0     H20184   1.809   9.854  10.168 -1.6845  0.0171 -0.4312
  150MOL0     H20185   1.935   9.568  10.008  2.3303 -1.9734 -1.3901
  150MOL0     H20186   1.944   9.750  10.022  0.0837  0.7024  1.8588
  150MOL0     H20187   2.196   9.664  10.093 -0.9830 -2.4228  0.9281
  150MOL0     H20188   2.163   9.562   9.961  5.1920  1.2571 -0.9677
  150MOL0     H20189   2.062   9.802   9.848 -0.8679 -0.1858  1.1084
  150MOL0     H20190   2.192   9.855   9.951  2.1843  0.2957 -2.0934
  150MOL0     H20191   2.352   9.727   9.869  0.6282  0.1162  0.0208
  150MOL0     H20192   2.251   9.619   9.767  2.4450  1.6433 -2.8057
  150MOL0     H20193   2.172   9.808   9.632  0.3767  1.1625 -0.2117
  150MOL0     H20194   2.272   9.918   9.705 -0.7766  0.9641 -0.4919
  150MOL0     H20195   2.469   9.749   9.645 -0.5812  0.1555  0.9900
  150MOL0     H20196   2.346   9.654   9.576  1.6444 -0.4057  1.1837
  150MOL0     H20197   2.430   9.776   9.387 -1.8400 -1.2261 -2.9109
  150MOL0     H20198   2.271   9.818   9.420  0.4797 -3.3574 -0.8471
  150MOL0     H20199   2.388  10.034   9.543  1.7414  0.7890  0.2582
  150MOL0     H20200   2.404  10.034   9.375  1.8812  1.8683  1.3300
  150MOL0     H20201   2.641  10.040   9.288 -0.9697 -0.7206  1.1533
  150MOL0     H20202   2.979  10.036   9.478 -0.2786  1.9248  0.7878
  150MOL0     H20203   2.928  10.088   9.320  2.4730 -1.6428 -0.3256
  150MOL0     H20204   3.022  10.283   9.452 -0.2178 -0.2002 -3.0784
  150MOL0     H20205   2.883  10.270   9.563  2.9699 -0.0869  0.8922
  150MOL0     H20206   2.724  10.308   9.355 -0.1384  0.1054 -0.4879
  150MOL0     H20207   2.875  10.305   9.261 -1.7307 -0.9778 -0.5916
  150MOL0     H20208   2.930  10.518   9.368 -0.6483 -0.7084 -1.3483
  150MOL0     H20209   2.816  10.494   9.494 -0.3173 -3.0026  0.6002
  150MOL0     H20210   2.513  10.589   9.206  3.0323 -0.7815 -0.1889
  150MOL0     H20211   2.258  10.660   9.209 -2.7162 -2.4750  3.7743
  150MOL0     H20212   2.208  10.732   9.358  0.2058 -2.3995  0.0566
  150MOL0     H20213   2.288  10.842   9.237  3.5758 -0.6659 -2.2425
  150MOL0     H20214   2.315  11.205   9.576 -0.4138  2.8187 -0.0736
  150MOL0     H20215   2.141  11.339   9.703 -2.6472 -1.4784 -1.9883
  150MOL0     H20216   2.155  11.317  10.077  1.7384 -0.3585 -1.4992
  150MOL0     H20217   2.155  11.458   9.966 -1.6312 -0.2379 -2.0513
  150MOL0     H20218   1.921  11.519  10.039  0.0057 -0.3970 -0.8449
  150MOL0     H20219   1.901  11.358  10.108  2.0558 -0.7509  2.0054
  150MOL0     H20220   2.105  11.550  10.235 -0.3931  0.2615  1.3694
  150MOL0     H20221   2.029  11.407  10.303  2.2756  0.2948  0.3676
  150MOL0     H20222   1.929  11.696  10.264  1.3679  0.0113  0.0919
  150MOL0     H20223   1.812  11.573  10.274 -1.4791  2.9733  1.4765
  150MOL0     H20224   1.933  11.514  10.513  0.5573 -0.2209 -1.1694
  150MOL0     H20225   1.840  11.649  10.504  1.7638  2.9644  0.6362
  150MOL0     H20226   2.149  11.662  10.456  0.9061 -0.1008  0.9839
  150MOL0     H20227   2.043  11.793  10.462  0.1001 -1.1189 -0.6410
  150MOL0     H20228   2.083  11.571  10.666 -0.1903  0.1782 -0.8718
  150MOL0     H20229   1.997  11.722  10.709  0.6548 -2.1584  1.5900
  150MOL0     H20230   2.282  11.681  10.658 -1.7109 -0.7228 -1.4689
  150MOL0     H20231   2.201  11.734  10.803 -0.0938 -4.7625 -0.5636
  150MOL0     H20232   2.090  11.030   9.985 -0.7604 -0.6657 -0.4175
  150MOL0     H20233   2.266  10.894   9.878 -1.7447 -1.1065 -0.7419
  150MOL0     H20234   2.605  10.851   9.606  0.7748  0.9469 -0.0607
  150MOL0     H20235   2.767  10.710   9.503 -0.4898  1.0422  1.9707
  150MOL0     H20236   1.865   9.465  10.326 -3.4357 -0.9021 -1.0168
  150MOL0     H20237   1.657   9.477  10.446 -0.1417 -0.1213 -1.3811
  150MOL0     H20238   1.355   9.650  10.655 -0.1264 -3.0406 -2.2475
  150MOL0     H20239   1.139   9.610  10.788  1.7699  1.4671  0.3310
  150MOL0     H20240   0.881   9.550  10.862  2.9349 -0.7705 -3.1227
  150MOL0     H20241   0.969   9.701  10.889  2.2943  0.9753 -1.1848
  150MOL0     H20242   0.723   9.806  10.832 -3.0119 -0.0824  2.4154
  150MOL0     H20243   0.792   9.751  10.993  0.9260 -2.6164  0.3973
  150MOL0     H20244   0.670   9.558  10.985 -0.7344 -1.4994 -1.4222
  150MOL0     H20245   0.623   9.572  10.818  1.2491 -0.6232 -0.4340
  150MOL0     H20246   0.484   9.744  10.831  0.2437 -2.1947 -1.2262
  150MOL0     H20247   0.515   9.787  10.999 -1.2616  1.0153 -2.3655
  150MOL0     H20248   0.199   9.516  11.029 -0.7180  2.2705  0.6986
  150MOL0     H20249   0.914   9.769  10.470  1.6402  3.3061 -0.5594
  150MOL0     H20250   1.108   9.793  10.326 -1.0035  1.5505  1.2779
  151MOL0     O20251   4.618   8.639   4.152  0.1891  0.2449  0.1997
  151MOL0     C20252   4.603   8.719   4.240  0.1807 -0.2559 -1.1721
  151MOL0     O20253   4.706   8.760   4.327  0.2086  0.1256  0.1347
  151MOL0     C20254   4.824   8.693   4.308  0.0268  0.1749  0.1181
  151MOL0     C20255   4.822   8.551   4.312  0.6432  0.1887  0.2007
  151MOL0     C20256   4.942   8.478   4.313 -0.2830 -0.1948  0.2205
  151MOL0     C20257   5.067   8.547   4.298  0.4295  0.6842  0.2911
  151MOL0     O20258   5.190   8.483   4.292  0.4756  0.0327  0.2576
  151MOL0     C20259   5.190   8.340   4.299 -0.4145  0.4664  0.1254
  151MOL0     C20260   5.330   8.284   4.259 -0.6501  0.4377 -1.0105
  151MOL0     C20261   5.437   8.306   4.374 -0.2638  0.2678  0.1420
  151MOL0     C20262   5.579   8.303   4.321 -0.5966 -0.3374 -0.6746
  151MOL0     C20263   5.665   8.339   4.439 -0.4331 -1.2162  0.8767
  151MOL0     C20264   5.813   8.321   4.385  0.3383 -0.8210 -1.0900
  151MOL0     C20265   5.927   8.314   4.492 -0.5094 -0.3399  0.1411
  151MOL0     C20266   6.066   8.264   4.444  0.2710  0.3745 -0.1993
  151MOL0     N20267   6.122   8.347   4.334 -0.0949  0.1948 -0.3646
  151MOL0     C20268   6.244   8.401   4.327  0.8990  1.1023  0.4130
  151MOL0     C20269   6.260   8.451   4.205 -1.2165 -0.2295  0.1342
  151MOL0     C20270   6.375   8.537   4.157 -1.0402  1.3852 -0.2173
  151MOL0     C20271   6.353   8.671   4.215  2.0756 -0.4859  0.1131
  151MOL0     C20272   6.464   8.766   4.177 -0.6274 -0.3025  0.8221
  151MOL0     C20273   6.591   8.761   4.266  0.2217 -0.3063 -0.2927
  151MOL0     O20274   6.691   8.858   4.223 -0.1641  0.9898 -0.0942
  151MOL0     C20275   6.820   8.827   4.266 -0.5099 -0.1661 -0.0147
  151MOL0     C20276   6.858   8.748   4.376 -0.0674 -0.5999 -0.0860
  151MOL0     C20277   6.993   8.714   4.398 -0.1637  0.4125 -0.2037
  151MOL0     C20278   7.022   8.605   4.496  0.1416 -0.6415  0.0723
  151MOL0     C20279   7.088   8.781   4.322  0.1212 -0.5375 -0.1684
  151MOL0     C20280   7.233   8.747   4.338 -0.2835 -1.0269  0.3660
  151MOL0     O20281   7.291   8.738   4.466 -0.8401 -0.6012 -0.4003
  151MOL0     C20282   7.423   8.775   4.475 -0.4583 -0.0808  0.0109
  151MOL0     C20283   7.485   8.887   4.414 -0.4147 -0.4918  0.2009
  151MOL0     C20284   7.613   8.911   4.434  0.1483  0.0245  1.1209
  151MOL0     C20285   7.692   8.844   4.517  0.5484 -1.0892 -0.6091
  151MOL0     O20286   7.823   8.870   4.542  0.2213  0.9379  0.5256
  151MOL0     C20287   7.875   9.004   4.518  0.7101  0.0483 -0.5116
  151MOL0     C20288   8.006   9.041   4.586  0.1757 -0.5133  0.0324
  151MOL0     C20289   8.032   8.965   4.719  0.1465  0.3763 -0.0407
  151MOL0     C20290   8.181   8.983   4.759  1.2026  0.5496  0.8166
  151MOL0     C20291   8.205   9.119   4.826  0.0667 -0.0485 -0.6153
  151MOL0     C20292   8.344   9.143   4.874  0.1455  0.8056 -0.1229
  151MOL0     C20293   8.318   9.272   4.958 -0.4558 -0.6886 -0.5883
  151MOL0     C20294   8.443   9.325   5.018 -0.6258 -0.0708 -0.2440
  151MOL0    Cl20295   8.468   9.506   4.986  0.4519  0.0660  0.2933
  151MOL0     C20296   7.634   8.740   4.589 -0.9535 -0.0785 -0.1972
  151MOL0     C20297   7.500   8.700   4.570  0.3404 -1.0611 -0.0193
  151MOL0     O20298   7.292   8.748   4.231 -0.4143 -0.4129  1.1164
  151MOL0     C20299   7.049   8.875   4.227  0.4981  0.4747  0.0120
  151MOL0     C20300   6.917   8.890   4.195 -0.1019  0.2148  0.7693
  151MOL0     N20301   6.146   8.409   4.129 -1.2542 -0.8587  1.1704
  151MOL0     N20302   6.064   8.359   4.213  0.1744  0.2917  0.6372
  151MOL0     C20303   5.068   8.688   4.298  0.0519  0.5027  0.2359
  151MOL0     C20304   4.946   8.757   4.311 -0.3258 -0.1764 -0.9381
  151MOL0     C20305   4.469   8.766   4.268  0.0371 -0.7450  0.1386
  151MOL0     C20306   4.455   8.858   4.366 -0.4693 -0.4652 -0.3944
  151MOL0     C20307   4.337   8.927   4.390 -0.1465  0.4171  0.6114
  151MOL0     C20308   4.235   8.913   4.295 -0.3557 -0.5002  1.2474
  151MOL0     O20309   4.132   8.996   4.318 -0.5380 -0.3026 -0.2310
  151MOL0     C20310   4.003   8.996   4.252 -0.1722  0.5055  0.0702
  151MOL0     C20311   4.008   9.090   4.138  0.5276  0.6245 -0.5287
  151MOL0     C20312   3.875   9.111   4.061 -1.1393  0.2391 -0.5535
  151MOL0     C20313   3.905   9.131   3.921 -0.2582  0.3200 -0.1744
  151MOL0     C20314   3.787   9.165   3.845  0.6129  0.3663 -0.6016
  151MOL0     C20315   3.681   9.196   3.786 -0.0466 -0.4972  0.7903
  151MOL0     C20316   4.240   8.824   4.185 -0.3816  1.0009 -0.0621
  151MOL0     C20317   4.361   8.748   4.174 -0.2708  0.5322 -0.7860
  151MOL0     H20318   4.729   8.498   4.332  1.5437 -1.1654  0.9706
  151MOL0     H20319   4.942   8.371   4.333 -1.9328 -0.1336  0.7190
  151MOL0     H20320   5.164   8.301   4.397 -3.2452  1.7885 -0.0023
  151MOL0     H20321   5.125   8.288   4.229  0.7395 -2.5559  1.1388
  151MOL0     H20322   5.328   8.179   4.227 -0.7497  0.2156 -0.3101
  151MOL0     H20323   5.354   8.344   4.171 -3.4758  0.6153 -1.7463
  151MOL0     H20324   5.432   8.409   4.409  0.6281  0.0987  0.7958
  151MOL0     H20325   5.417   8.235   4.454  0.5004 -0.7851 -0.5713
  151MOL0     H20326   5.609   8.207   4.278  0.6899 -0.8597  1.2822
  151MOL0     H20327   5.589   8.392   4.258 -1.2573 -0.1355 -0.5033
  151MOL0     H20328   5.650   8.443   4.469 -1.3476 -0.3012 -2.3779
  151MOL0     H20329   5.648   8.274   4.526 -1.5432 -2.8379 -0.4714
  151MOL0     H20330   5.814   8.225   4.333 -4.1784 -0.0082 -3.2053
  151MOL0     H20331   5.825   8.405   4.316 -0.2480 -1.1205 -1.5666
  151MOL0     H20332   5.946   8.418   4.522  0.5731 -0.5656  0.2647
  151MOL0     H20333   5.892   8.257   4.579 -2.2577 -0.7783 -0.8046
  151MOL0     H20334   6.069   8.159   4.414 -0.0268  0.4193 -0.3911
  151MOL0     H20335   6.132   8.263   4.531  0.0337  1.7351  0.0137
  151MOL0     H20336   6.319   8.415   4.405  2.3123 -1.9799 -0.2108
  151MOL0     H20337   6.467   8.494   4.198 -2.2283 -0.1405  0.9521
  151MOL0     H20338   6.394   8.535   4.049 -2.3728 -0.4982 -0.4549
  151MOL0     H20339   6.344   8.660   4.323  3.3411 -1.6164  0.1343
  151MOL0     H20340   6.263   8.712   4.167  1.3201 -0.0386  1.8524
  151MOL0     H20341   6.433   8.870   4.179  1.4677  0.3901  0.1891
  151MOL0     H20342   6.495   8.742   4.075 -0.8629 -1.0298  0.9103
  151MOL0     H20343   6.631   8.660   4.252  0.0011 -0.1931 -1.9294
  151MOL0     H20344   6.567   8.760   4.373  0.9113 -0.1184 -0.1291
  151MOL0     H20345   6.779   8.699   4.432 -1.5538  4.2483  2.6430
  151MOL0     H20346   7.069   8.530   4.432 -2.6780 -1.8974 -0.6574
  151MOL0     H20347   7.092   8.631   4.577  1.1909 -1.9762 -0.3675
  151MOL0     H20348   6.940   8.558   4.551  0.4397  1.8744  2.9333
  151MOL0     H20349   7.422   8.947   4.349  1.5514 -0.5012 -1.8059
  151MOL0     H20350   7.662   8.985   4.373 -1.1421  0.5233  0.6608
  151MOL0     H20351   7.882   9.030   4.411 -3.0035 -1.6468 -1.3325
  151MOL0     H20352   7.795   9.067   4.558 -2.1876 -0.7260 -4.4619
  151MOL0     H20353   8.081   9.008   4.513  2.0548 -1.3200  2.2096
  151MOL0     H20354   8.022   9.148   4.605 -0.1627 -0.7355  1.7247
  151MOL0     H20355   8.003   8.863   4.691 -1.0532  0.6748  0.0649
  151MOL0     H20356   7.969   9.005   4.799  0.7283  0.5068  0.3559
  151MOL0     H20357   8.208   8.911   4.837 -0.4408  0.0385  0.9599
  151MOL0     H20358   8.240   8.967   4.668  0.5824 -1.4615  0.7202
  151MOL0     H20359   8.141   9.122   4.914 -1.2094 -0.1603 -1.5190
  151MOL0     H20360   8.185   9.201   4.756 -3.8614  1.3855  1.8854
  151MOL0     H20361   8.370   9.053   4.930  2.2676  1.2511 -0.3410
  151MOL0     H20362   8.423   9.154   4.800  0.6879 -1.5611  0.0498
  151MOL0     H20363   8.250   9.254   5.041  0.5110 -5.6493 -0.5235
  151MOL0     H20364   8.278   9.347   4.889 -3.7307 -0.9886  0.8316
  151MOL0     H20365   8.532   9.272   4.981 -1.3844 -1.7299  0.1936
  151MOL0     H20366   8.444   9.304   5.126 -2.1557 -2.7577 -0.6626
  151MOL0     H20367   7.689   8.682   4.662  1.2421 -0.7605 -2.2836
  151MOL0     H20368   7.460   8.609   4.614 -1.8534  0.4420  1.3085
  151MOL0     H20369   7.117   8.929   4.162 -2.7696  0.2860 -3.9510
  151MOL0     H20370   6.891   8.966   4.122  1.7157 -1.6181 -1.9758
  151MOL0     H20371   5.160   8.744   4.289 -0.9860  2.5491  1.6943
  151MOL0     H20372   4.936   8.865   4.314 -1.1407 -0.2626 -0.2168
  151MOL0     H20373   4.522   8.885   4.447 -2.1207 -0.0633  0.9096
  151MOL0     H20374   4.336   8.994   4.476  1.1198  0.4211  0.6329
  151MOL0     H20375   3.987   8.895   4.213  0.3109  1.4635 -2.8421
  151MOL0     H20376   3.933   9.019   4.333  0.3240  2.5641 -0.0344
  151MOL0     H20377   4.087   9.056   4.071 -0.0790  0.0910 -0.9967
  151MOL0     H20378   4.032   9.182   4.191  0.9833  1.3148 -1.8728
  151MOL0     H20379   3.826   9.198   4.107  0.8947  1.4104 -0.4850
  151MOL0     H20380   3.798   9.035   4.075 -1.4629  1.0464  3.4005
  151MOL0     H20381   3.945   9.036   3.884 -2.0221 -1.1550  1.4533
  151MOL0     H20382   3.972   9.215   3.903 -1.5261  0.8879 -2.6753
  151MOL0     H20383   3.585   9.227   3.749  1.7758  2.8842 -1.7062
  151MOL0     H20384   4.166   8.827   4.106  0.8540  1.5098 -1.2516
  151MOL0     H20385   4.366   8.674   4.094 -1.2184 -1.7540  1.1447
  152MOL0     O20386   7.717   6.776   8.528  0.0247 -0.3883 -0.1217
  152MOL0     C20387   7.646   6.738   8.439  0.3396  0.5645 -0.0524
  152MOL0     O20388   7.686   6.683   8.326 -0.4456 -1.0227  0.0418
  152MOL0     C20389   7.807   6.627   8.304  0.2898 -0.1162  1.3106
  152MOL0     C20390   7.805   6.512   8.231  0.1469  0.0620 -0.3709
  152MOL0     C20391   7.923   6.437   8.220  0.1865  0.0630  0.3812
  152MOL0     C20392   8.048   6.495   8.250 -0.4365 -0.1202  0.1500
  152MOL0     O20393   8.159   6.433   8.205 -0.3805 -0.0909 -0.4164
  152MOL0     C20394   8.198   6.346   8.312 -0.4233 -0.1651  0.0755
  152MOL0     C20395   8.343   6.306   8.288 -0.3971 -0.7716  0.1317
  152MOL0     C20396   8.438   6.426   8.319  0.1430 -0.3875  0.0699
  152MOL0     C20397   8.578   6.377   8.281 -0.6230 -0.0909  1.1039
  152MOL0     C20398   8.700   6.464   8.320  0.8320  0.0553  0.5325
  152MOL0     C20399   8.835   6.405   8.285 -0.1582  0.4411 -0.0814
  152MOL0     C20400   8.861   6.263   8.342  0.1973 -0.4954  0.5762
  152MOL0     C20401   8.807   6.225   8.488  0.3609 -0.3104  0.4231
  152MOL0     N20402   8.878   6.104   8.539 -0.3284 -0.5371 -0.9084
  152MOL0     C20403   9.011   6.095   8.583 -0.0515  0.7513  0.3345
  152MOL0     C20404   9.026   5.958   8.598  0.8103 -0.5815  0.0648
  152MOL0     C20405   9.147   5.887   8.655  0.0510  0.1569  0.0947
  152MOL0     C20406   9.173   5.760   8.576 -0.5157  0.0055  0.7363
  152MOL0     C20407   9.222   5.795   8.428 -0.1481 -0.4396 -0.1044
  152MOL0     C20408   9.369   5.851   8.414  0.3567  0.0813 -0.3005
  152MOL0     O20409   9.461   5.751   8.476  0.1841 -0.5276  0.4283
  152MOL0     C20410   9.584   5.794   8.527  0.1564  0.0081 -0.0047
  152MOL0     C20411   9.649   5.917   8.501  0.2952 -0.1920 -0.0036
  152MOL0     C20412   9.781   5.949   8.540  0.8631 -0.6825  0.0929
  152MOL0     C20413   9.818   6.089   8.509  0.4776  1.2368 -0.2418
  152MOL0     C20414   9.855   5.851   8.612 -0.1811  0.4170  0.0572
  152MOL0     C20415   9.996   5.861   8.640  0.2918 -0.0426 -0.2297
  152MOL0     O20416  10.069   5.963   8.577  0.2180 -0.0936  0.0045
  152MOL0     C20417  10.198   5.986   8.632  0.3398  0.5339  0.3397
  152MOL0     C20418  10.236   6.108   8.680  0.5114  1.0071 -0.6750
  152MOL0     C20419  10.366   6.140   8.704 -0.1300 -0.6645  0.0022
  152MOL0     C20420  10.467   6.048   8.676 -0.1540 -0.3228  1.0376
  152MOL0     O20421  10.602   6.087   8.710  0.3443 -0.3472 -0.3435
  152MOL0     C20422  10.681   5.969   8.731  0.0383 -0.1381  0.4568
  152MOL0     C20423  10.788   6.013   8.816 -0.7103  0.1910  0.1707
  152MOL0     C20424  10.863   6.130   8.747  0.5649  0.2492 -0.6113
  152MOL0     C20425  11.013   6.139   8.784 -0.2824  0.6553 -0.4282
  152MOL0     C20426  11.087   6.249   8.712  0.5731  0.0160  0.5632
  152MOL0     C20427  11.230   6.284   8.766 -1.2509 -0.3006 -0.5173
  152MOL0     C20428  11.238   6.331   8.913  0.4611  0.1415 -0.8348
  152MOL0     C20429  11.377   6.346   8.971 -0.4128  0.3339 -0.4110
  152MOL0    Cl20430  11.358   6.373   9.146 -0.3214 -0.2617  0.2606
  152MOL0     C20431  10.428   5.924   8.608  1.0665 -0.2215 -0.3486
  152MOL0     C20432  10.291   5.894   8.593 -1.0311  0.8950  0.2053
  152MOL0     O20433  10.037   5.791   8.733 -0.1997  0.9939 -0.3576
  152MOL0     C20434   9.785   5.737   8.656  0.4651  0.1301  0.2057
  152MOL0     C20435   9.654   5.709   8.614  0.2135 -0.1690 -0.1766
  152MOL0     N20436   8.915   5.893   8.558  1.8506 -0.3803 -0.8866
  152MOL0     N20437   8.824   5.975   8.527 -0.5369  0.3097 -0.8572
  152MOL0     C20438   8.045   6.630   8.302  0.0597  0.3994 -0.0284
  152MOL0     C20439   7.921   6.696   8.320  0.1811 -0.6060 -0.2451
  152MOL0     C20440   7.498   6.749   8.462  0.9906 -0.1627  0.3918
  152MOL0     C20441   7.458   6.858   8.540  0.5399 -0.3871  0.8416
  152MOL0     C20442   7.325   6.875   8.567  0.3898 -0.7852  0.5081
  152MOL0     C20443   7.236   6.776   8.523  0.4864 -0.0882 -1.3923
  152MOL0     O20444   7.105   6.786   8.552  0.2752  0.7953  0.1029
  152MOL0     C20445   7.064   6.909   8.610 -0.1018 -0.0407  0.5344
  152MOL0     C20446   6.907   6.903   8.623  1.2674  1.1777 -0.0278
  152MOL0     C20447   6.841   7.028   8.575  0.3760 -1.0066  0.4238
  152MOL0     C20448   6.691   6.998   8.582 -0.0226 -0.7849  0.1329
  152MOL0     C20449   6.617   7.098   8.507  0.6372 -1.0398  0.5893
  152MOL0     C20450   6.562   7.184   8.442  0.8013  0.3330  0.2140
  152MOL0     C20451   7.284   6.665   8.454 -0.5590 -0.3744  0.1476
  152MOL0     C20452   7.414   6.652   8.422  0.6885 -0.1261  0.3338
  152MOL0     H20453   7.711   6.465   8.202 -0.5412  0.2916  1.3723
  152MOL0     H20454   7.927   6.338   8.175  3.8586 -0.0643  0.7043
  152MOL0     H20455   8.181   6.387   8.412 -1.0151 -0.6448  0.1790
  152MOL0     H20456   8.145   6.250   8.318 -1.6748  0.5975  3.0248
  152MOL0     H20457   8.368   6.224   8.356 -0.3598 -0.0842  0.9598
  152MOL0     H20458   8.347   6.269   8.185 -2.7405  1.4121 -0.8374
  152MOL0     H20459   8.411   6.518   8.266  0.6423 -1.1665 -1.6188
  152MOL0     H20460   8.426   6.445   8.426  1.2100 -0.8191  0.2718
  152MOL0     H20461   8.593   6.277   8.322 -0.9448  0.0066  1.4681
  152MOL0     H20462   8.578   6.363   8.173  1.5535 -0.1279  1.0669
  152MOL0     H20463   8.685   6.568   8.289 -2.0156  0.0227  1.4221
  152MOL0     H20464   8.688   6.470   8.429  2.4764 -0.8186  0.7928
  152MOL0     H20465   8.844   6.410   8.176  0.8871  2.3057  0.0649
  152MOL0     H20466   8.912   6.470   8.327  1.9435  0.4555 -3.4716
  152MOL0     H20467   8.816   6.194   8.270  0.4684 -0.3196  0.2381
  152MOL0     H20468   8.968   6.247   8.333 -0.1218 -2.5897 -0.0054
  152MOL0     H20469   8.700   6.201   8.488  0.6570 -2.3428 -3.4596
  152MOL0     H20470   8.836   6.299   8.563 -2.4013  0.6297  0.6495
  152MOL0     H20471   9.087   6.169   8.605  0.9374 -0.5783  1.5226
  152MOL0     H20472   9.230   5.957   8.669 -1.8705  2.1795  2.2674
  152MOL0     H20473   9.117   5.855   8.755 -0.7193 -0.5957 -0.3636
  152MOL0     H20474   9.095   5.683   8.571 -0.2189 -0.2236 -1.7564
  152MOL0     H20475   9.251   5.700   8.624  0.6068 -1.3441 -2.4864
  152MOL0     H20476   9.149   5.866   8.388  0.8771 -0.5122 -2.2528
  152MOL0     H20477   9.206   5.704   8.369  1.4037 -1.3513  0.8379
  152MOL0     H20478   9.381   5.951   8.456  0.8781 -1.1161  2.6385
  152MOL0     H20479   9.384   5.844   8.306  0.8733 -0.5657 -0.1916
  152MOL0     H20480   9.593   5.993   8.448  1.7232  0.0941 -1.1774
  152MOL0     H20481   9.876   6.127   8.594  0.5705  0.1378  0.2154
  152MOL0     H20482   9.882   6.079   8.421  1.1034 -0.3031  0.3483
  152MOL0     H20483   9.734   6.156   8.495  0.7269  1.6756  0.3132
  152MOL0     H20484  10.155   6.177   8.700  1.8213  2.2446  0.5975
  152MOL0     H20485  10.393   6.238   8.740 -0.2522 -1.3338  2.0217
  152MOL0     H20486  10.625   5.896   8.791  1.2049  0.7514  2.7767
  152MOL0     H20487  10.714   5.933   8.634 -5.5915  0.7422 -2.1728
  152MOL0     H20488  10.745   6.041   8.913 -2.9313 -2.7272  0.1619
  152MOL0     H20489  10.856   5.928   8.830 -1.2142 -0.4120 -0.9012
  152MOL0     H20490  10.818   6.219   8.791 -0.7766 -0.8280  0.2729
  152MOL0     H20491  10.856   6.139   8.638  1.8778  0.2671 -0.7162
  152MOL0     H20492  11.012   6.157   8.892 -5.1713 -4.2381  0.8418
  152MOL0     H20493  11.067   6.046   8.760  1.8602  1.6148  0.4243
  152MOL0     H20494  11.031   6.342   8.704 -3.5384 -2.1423  1.7063
  152MOL0     H20495  11.088   6.218   8.607 -2.4580  1.5518 -0.0170
  152MOL0     H20496  11.294   6.195   8.758  0.5945  0.7164  1.7732
  152MOL0     H20497  11.276   6.362   8.705 -1.1245  2.7948  3.1480
  152MOL0     H20498  11.180   6.264   8.977  0.4146  0.8323 -0.1404
  152MOL0     H20499  11.183   6.425   8.925 -1.7048 -1.3326  1.9656
  152MOL0     H20500  11.420   6.435   8.922  1.5737  0.1540  0.8979
  152MOL0     H20501  11.439   6.262   8.940 -1.9403 -1.5661  1.4539
  152MOL0     H20502  10.506   5.862   8.565 -0.0864 -2.0912  0.1172
  152MOL0     H20503  10.260   5.806   8.537 -0.7557  1.2604 -0.5456
  152MOL0     H20504   9.839   5.660   8.711  0.1856 -1.3330 -1.4950
  152MOL0     H20505   9.611   5.618   8.653  3.8851 -1.1351  2.1161
  152MOL0     H20506   8.137   6.685   8.320 -1.2603  3.2692 -1.3320
  152MOL0     H20507   7.914   6.798   8.357  0.6369 -1.0320  1.0492
  152MOL0     H20508   7.517   6.941   8.580 -0.9371  0.8700  0.5144
  152MOL0     H20509   7.302   6.960   8.630 -0.3982 -2.4462  2.5886
  152MOL0     H20510   7.108   6.920   8.710 -1.1681 -0.5560  1.0867
  152MOL0     H20511   7.084   6.996   8.548 -2.3783  0.7061  0.7442
  152MOL0     H20512   6.887   6.890   8.729  1.8970  0.7500  0.0457
  152MOL0     H20513   6.871   6.816   8.567  2.5413 -1.1726  2.5854
  152MOL0     H20514   6.866   7.052   8.471 -3.7150 -2.7236 -1.1462
  152MOL0     H20515   6.872   7.111   8.639  3.9850 -1.8384 -0.0238
  152MOL0     H20516   6.669   6.997   8.689  2.6731 -0.5657  0.7570
  152MOL0     H20517   6.659   6.899   8.549  1.9191 -1.9970  1.6648
  152MOL0     H20518   6.520   7.265   8.385  1.2214  0.6373  0.3346
  152MOL0     H20519   7.224   6.584   8.414  2.3822 -2.3658 -0.5711
  152MOL0     H20520   7.456   6.573   8.361  0.8736 -0.8185  1.3179
  153MOL0     O20521   3.208   8.103   0.751 -0.0484 -0.0809  0.0115
  153MOL0     C20522   3.283   8.183   0.698 -0.2406 -0.7268  1.4422
  153MOL0     O20523   3.413   8.197   0.725  0.4226  0.1698  0.0245
  153MOL0     C20524   3.475   8.118   0.829 -0.7308  0.0615 -0.3000
  153MOL0     C20525   3.582   8.035   0.795  0.2067 -0.4654  0.2222
  153MOL0     C20526   3.650   7.959   0.892 -0.3063 -0.3209  0.0704
  153MOL0     C20527   3.610   7.971   1.023 -1.5340  0.8498  0.3310
  153MOL0     O20528   3.688   7.899   1.115 -0.2411 -0.6032  0.1775
  153MOL0     C20529   3.818   7.956   1.128 -0.3357 -0.2784 -0.1584
  153MOL0     C20530   3.887   7.905   1.262  0.1655  0.3000 -0.2925
  153MOL0     C20531   4.030   7.924   1.266 -0.2606  0.1515 -2.0011
  153MOL0     C20532   4.081   8.061   1.290  0.6496  0.5025 -0.3381
  153MOL0     C20533   4.233   8.070   1.284  0.2634  0.8607  0.9538
  153MOL0     C20534   4.267   8.217   1.289 -1.0796 -0.0061 -0.6581
  153MOL0     C20535   4.415   8.247   1.274 -0.3696 -0.2488  0.2765
  153MOL0     C20536   4.441   8.400   1.257 -0.2672 -0.1622 -0.6895
  153MOL0     N20537   4.365   8.453   1.141  0.4035 -0.2277  0.2725
  153MOL0     C20538   4.251   8.532   1.132 -0.5940  0.3290 -0.9252
  153MOL0     C20539   4.214   8.538   1.001  0.4012  0.6176 -0.8556
  153MOL0     C20540   4.083   8.578   0.944 -0.9481  0.4923  0.5976
  153MOL0     C20541   4.010   8.683   1.025  0.0959  0.9275 -0.1314
  153MOL0     C20542   3.877   8.727   0.961  0.9806  0.5651  0.4499
  153MOL0     C20543   3.888   8.805   0.827  0.0429 -0.0049 -0.6176
  153MOL0     O20544   3.968   8.924   0.843  0.3317  0.1562  0.1345
  153MOL0     C20545   3.935   9.035   0.784  0.2813 -0.0839 -0.2515
  153MOL0     C20546   4.018   9.141   0.814 -0.3047 -0.1234  0.2041
  153MOL0     C20547   3.993   9.267   0.765 -0.4928  0.0582 -1.3658
  153MOL0     C20548   4.077   9.384   0.807 -0.5989 -0.3794  0.4375
  153MOL0     C20549   3.896   9.280   0.659 -0.6113 -0.1802 -0.2256
  153MOL0     C20550   3.865   9.402   0.580  0.0937  0.8901  0.0171
  153MOL0     O20551   3.858   9.512   0.651 -0.7328  0.4024 -0.0219
  153MOL0     C20552   3.786   9.613   0.594  0.3708 -0.1154 -0.5498
  153MOL0     C20553   3.656   9.627   0.643 -0.2284  0.0330 -0.5209
  153MOL0     C20554   3.567   9.721   0.594 -0.2670 -0.5009  0.8074
  153MOL0     C20555   3.606   9.804   0.488  0.3984  0.4903 -0.3807
  153MOL0     O20556   3.511   9.895   0.444 -0.2538 -0.0839 -0.4072
  153MOL0     C20557   3.503   9.913   0.299 -0.4045 -0.2141 -0.7832
  153MOL0     C20558   3.380  10.003   0.279 -0.6359  0.2523 -0.5049
  153MOL0     C20559   3.383  10.035   0.126  0.1130 -0.5890 -0.7585
  153MOL0     C20560   3.382   9.905   0.036  0.2618  1.1972 -0.0411
  153MOL0     C20561   3.330   9.919  -0.103 -0.5557  0.0528 -0.4245
  153MOL0     C20562   3.445   9.980  -0.190  0.5301  1.1047 -0.8903
  153MOL0     C20563   3.546   9.867  -0.234 -0.4082  0.4909 -0.2185
  153MOL0     C20564   3.694   9.925  -0.244 -0.2144 -0.4851  0.0009
  153MOL0    Cl20565   3.714  10.046  -0.368 -0.2113  0.2634 -0.2139
  153MOL0     C20566   3.736   9.793   0.432 -0.3473 -0.2288 -0.2106
  153MOL0     C20567   3.825   9.702   0.490 -0.0834 -0.6353 -0.3541
  153MOL0     O20568   3.857   9.394   0.458 -0.8331  0.9344 -0.2107
  153MOL0     C20569   3.817   9.172   0.630 -0.1079  0.0179 -0.3288
  153MOL0     C20570   3.828   9.048   0.696 -1.8098 -0.5581 -0.1790
  153MOL0     N20571   4.312   8.463   0.931  0.3726  0.6495  0.2698
  153MOL0     N20572   4.396   8.408   1.015  0.4265  0.0459  0.4428
  153MOL0     C20573   3.517   8.068   1.065  1.0797  0.2994 -0.7557
  153MOL0     C20574   3.447   8.134   0.962  1.1876  0.4309 -0.5820
  153MOL0     C20575   3.233   8.284   0.593  0.8992  0.5508  0.5489
  153MOL0     C20576   3.101   8.307   0.590 -0.1482 -0.4319 -0.3691
  153MOL0     C20577   3.047   8.411   0.508 -0.9700  0.1864 -0.3843
  153MOL0     C20578   3.126   8.486   0.421  0.6604 -0.2772 -0.1881
  153MOL0     O20579   3.081   8.589   0.336 -0.1859 -0.0828  0.7045
  153MOL0     C20580   2.967   8.659   0.366  0.2479  0.0297 -0.0631
  153MOL0     C20581   2.950   8.763   0.254 -0.1240  0.3847 -0.8434
  153MOL0     C20582   2.823   8.840   0.284 -0.0887  0.3245 -1.1494
  153MOL0     C20583   2.802   8.954   0.188  0.3156 -0.7527  0.7661
  153MOL0     C20584   2.895   9.064   0.172 -0.4465 -0.4963 -0.0563
  153MOL0     C20585   2.972   9.150   0.135 -0.5902  0.8253  0.1066
  153MOL0     C20586   3.257   8.443   0.414  0.3158 -1.5650 -0.4036
  153MOL0     C20587   3.312   8.353   0.497  0.7870  0.1997  0.0902
  153MOL0     H20588   3.603   8.031   0.689  0.4364 -0.5905  0.2725
  153MOL0     H20589   3.725   7.888   0.859 -0.3031  0.8690 -2.7840
  153MOL0     H20590   3.875   7.915   1.045 -0.7375  1.2531 -1.2342
  153MOL0     H20591   3.818   8.065   1.133 -0.8695 -0.3057  0.8100
  153MOL0     H20592   3.829   7.950   1.343 -0.0749 -0.3412 -0.0990
  153MOL0     H20593   3.860   7.800   1.275  3.2650 -0.3646  1.8045
  153MOL0     H20594   4.080   7.862   1.341  1.2997 -0.1377 -3.2198
  153MOL0     H20595   4.067   7.901   1.166 -2.4976 -4.8246 -1.9602
  153MOL0     H20596   4.037   8.130   1.217  0.0345  0.3522 -0.1186
  153MOL0     H20597   4.042   8.087   1.389 -2.7909 -1.0786 -1.1138
  153MOL0     H20598   4.279   8.005   1.359 -1.2224  0.7278  1.7912
  153MOL0     H20599   4.257   8.049   1.179 -0.4064  1.9497  0.5644
  153MOL0     H20600   4.201   8.265   1.216  0.2018 -1.8637 -3.2022
  153MOL0     H20601   4.239   8.255   1.388 -2.0697 -0.6982 -0.6588
  153MOL0     H20602   4.461   8.216   1.368 -1.6354 -0.9793  0.6853
  153MOL0     H20603   4.462   8.195   1.190  1.7642 -0.8391  1.7565
  153MOL0     H20604   4.543   8.402   1.218 -0.3161 -1.2882 -0.9035
  153MOL0     H20605   4.428   8.468   1.342  0.5061 -0.4222 -0.3580
  153MOL0     H20606   4.203   8.573   1.220  0.7282 -1.3612  0.6424
  153MOL0     H20607   4.116   8.633   0.855 -1.8920  1.2152  0.6740
  153MOL0     H20608   4.026   8.488   0.918  1.2155 -0.6832 -0.3152
  153MOL0     H20609   4.080   8.764   1.048  0.9896  0.5688 -1.4360
  153MOL0     H20610   3.981   8.644   1.123  1.1321 -1.3583 -0.6788
  153MOL0     H20611   3.806   8.780   1.025 -1.3022  0.7648 -2.0404
  153MOL0     H20612   3.826   8.634   0.931 -2.4446  1.5590  2.6034
  153MOL0     H20613   3.791   8.833   0.784  0.4146  0.8667 -0.9178
  153MOL0     H20614   3.940   8.744   0.753  1.1895 -2.8412  2.3008
  153MOL0     H20615   4.093   9.108   0.885  0.5090 -4.3063 -2.2766
  153MOL0     H20616   4.008   9.451   0.859 -1.5762  0.1539 -1.4212
  153MOL0     H20617   4.163   9.361   0.870 -0.8231  0.7498  1.1821
  153MOL0     H20618   4.116   9.440   0.721  1.4211  0.0302  1.5477
  153MOL0     H20619   3.634   9.555   0.721 -5.0430  0.1478 -1.4586
  153MOL0     H20620   3.477   9.725   0.655 -1.2850  0.8065 -0.7113
  153MOL0     H20621   3.592   9.959   0.255  0.8186 -2.5790 -0.9296
  153MOL0     H20622   3.485   9.818   0.248  3.1723 -0.9138 -1.0226
  153MOL0     H20623   3.286   9.952   0.302 -1.0281  1.7840  1.5772
  153MOL0     H20624   3.387  10.098   0.332 -2.7272  0.8636 -1.2325
  153MOL0     H20625   3.473  10.094   0.106  0.4345 -0.7063  0.2719
  153MOL0     H20626   3.291  10.093   0.115 -1.7216 -2.6992  1.9582
  153MOL0     H20627   3.485   9.868   0.034  0.2356  0.9572  1.4490
  153MOL0     H20628   3.319   9.834   0.091  1.7184  0.7351  1.1240
  153MOL0     H20629   3.236   9.975  -0.095  1.4155  3.4671  0.9269
  153MOL0     H20630   3.302   9.819  -0.137 -1.1960 -0.1763  0.7183
  153MOL0     H20631   3.386  10.024  -0.272 -1.4487  2.1993  1.0225
  153MOL0     H20632   3.498  10.051  -0.127 -1.4499  0.8646  1.1891
  153MOL0     H20633   3.533   9.838  -0.339  1.2705 -2.3545  0.2607
  153MOL0     H20634   3.557   9.789  -0.159  4.3448  0.0150 -1.0684
  153MOL0     H20635   3.761   9.842  -0.268 -1.1987 -1.0089 -1.0110
  153MOL0     H20636   3.714   9.981  -0.151 -2.4813  2.7481 -1.2438
  153MOL0     H20637   3.770   9.860   0.353  2.1856  1.1270  1.8458
  153MOL0     H20638   3.927   9.694   0.454 -0.3548  0.8044 -1.5429
  153MOL0     H20639   3.737   9.183   0.557 -1.0726  1.0112  0.8410
  153MOL0     H20640   3.757   8.973   0.662  1.1322 -2.7344 -1.9857
  153MOL0     H20641   3.479   8.089   1.165 -3.1498  3.2570 -2.6937
  153MOL0     H20642   3.364   8.200   0.986  1.4793  0.1074  1.4563
  153MOL0     H20643   3.035   8.244   0.650  0.7818 -1.2522 -0.1876
  153MOL0     H20644   2.940   8.428   0.518 -1.7439 -3.0556 -1.6743
  153MOL0     H20645   2.872   8.604   0.357 -0.1055  0.8426 -1.7529
  153MOL0     H20646   2.970   8.702   0.467  0.4121 -0.2268  0.0412
  153MOL0     H20647   2.928   8.704   0.165 -6.3726  0.8173 -0.0346
  153MOL0     H20648   3.034   8.828   0.229 -0.4669  0.8136 -0.9091
  153MOL0     H20649   2.829   8.884   0.384  1.1807 -0.3586 -0.9012
  153MOL0     H20650   2.733   8.780   0.299  0.3974  0.2982  2.8009
  153MOL0     H20651   2.707   8.990   0.227 -0.9817 -2.3631 -0.7620
  153MOL0     H20652   2.788   8.917   0.086  1.2869 -1.3382  0.8325
  153MOL0     H20653   3.044   9.219   0.096  2.2059 -1.4042  0.9708
  153MOL0     H20654   3.312   8.497   0.337  0.3464  0.8792  1.1987
  153MOL0     H20655   3.410   8.308   0.479  1.4169  1.4541  0.2772
  154MOL0     O20656   7.829  10.140   9.693 -0.2734  0.4355 -0.4285
  154MOL0     C20657   7.867  10.030   9.730 -0.7517  0.6501 -0.4451
  154MOL0     O20658   7.810   9.966   9.834 -0.5168  0.1544  0.5684
  154MOL0     C20659   7.736  10.030   9.921  0.4596  0.1595  0.1594
  154MOL0     C20660   7.623   9.963   9.970 -0.0810  0.7463 -0.9882
  154MOL0     C20661   7.533  10.023  10.068 -0.3240  0.9968 -0.3387
  154MOL0     C20662   7.572  10.145  10.129 -0.5619 -0.0250  0.6442
  154MOL0     O20663   7.504  10.226  10.214 -0.0112  0.2269 -0.1839
  154MOL0     C20664   7.369  10.185  10.245 -0.6954 -1.3709 -0.4249
  154MOL0     C20665   7.296  10.279  10.342  0.3120 -0.4328 -0.6804
  154MOL0     C20666   7.332  10.262  10.493 -0.7856 -0.8424  0.3891
  154MOL0     C20667   7.480  10.244  10.530 -0.4009 -0.1320  0.5538
  154MOL0     C20668   7.506  10.274  10.681  0.2764  0.0221 -0.1095
  154MOL0     C20669   7.655  10.235  10.717 -0.2572 -0.4168 -0.6684
  154MOL0     C20670   7.698  10.285  10.863  1.0295  0.3128 -1.1388
  154MOL0     C20671   7.787  10.198  10.941  0.6174  0.5189 -0.2606
  154MOL0     N20672   7.926  10.231  10.913 -0.2473  0.0954  0.0779
  154MOL0     C20673   7.994  10.344  10.955  0.3816  0.2876 -0.5272
  154MOL0     C20674   8.106  10.345  10.881  0.0105  0.9296  0.3571
  154MOL0     C20675   8.222  10.444  10.884  0.1933  0.0470 -0.4197
  154MOL0     C20676   8.286  10.450  11.023  0.3328 -0.3182 -0.2988
  154MOL0     C20677   8.416  10.529  11.021 -0.4785 -0.3608 -0.0371
  154MOL0     C20678   8.535  10.470  10.938  0.4175 -0.9751 -0.2618
  154MOL0     O20679   8.607  10.588  10.882 -0.0900  0.1995  0.0829
  154MOL0     C20680   8.722  10.564  10.822 -0.8569  0.3300  0.2973
  154MOL0     C20681   8.760  10.431  10.770 -0.2887 -0.3506 -0.5393
  154MOL0     C20682   8.874  10.422  10.703 -0.2934  0.3168  0.6454
  154MOL0     C20683   8.924  10.283  10.662  0.4956  1.0178 -0.3992
  154MOL0     C20684   8.954  10.530  10.678  1.7685 -0.3593 -1.3633
  154MOL0     C20685   9.069  10.521  10.586 -1.0396  0.3897 -0.2962
  154MOL0     O20686   9.180  10.588  10.631 -1.2641  0.0607 -0.3755
  154MOL0     C20687   9.289  10.589  10.560  0.0820  0.1103 -0.7393
  154MOL0     C20688   9.347  10.468  10.528 -0.3419  0.1234  0.0584
  154MOL0     C20689   9.479  10.466  10.482 -0.4704 -0.0239 -0.7926
  154MOL0     C20690   9.545  10.587  10.445 -0.1321  0.0997 -0.0634
  154MOL0     O20691   9.682  10.599  10.393 -0.0510  0.6241  0.1781
  154MOL0     C20692   9.723  10.497  10.301 -0.5608 -0.0454 -0.7829
  154MOL0     C20693   9.676  10.540  10.164  0.2951  0.1833  0.6800
  154MOL0     C20694   9.729  10.449  10.041 -0.4594  0.1560  0.4693
  154MOL0     C20695   9.872  10.490   9.994 -0.3341  0.0710 -0.7562
  154MOL0     C20696   9.931  10.405   9.882  0.7541 -0.1187 -0.3584
  154MOL0     C20697   9.953  10.266   9.925  0.7990 -1.3846 -0.1740
  154MOL0     C20698  10.064  10.189   9.841 -0.3036 -0.7823 -0.2322
  154MOL0     C20699  10.065  10.230   9.692 -1.1030  0.1360 -0.1633
  154MOL0    Cl20700   9.901  10.190   9.639 -0.1638  0.5613 -0.1549
  154MOL0     C20701   9.475  10.715  10.472 -0.3689 -0.5156  0.4737
  154MOL0     C20702   9.353  10.711  10.535 -0.7172  0.9149 -0.2158
  154MOL0     O20703   9.063  10.470  10.473  0.7514 -0.0566 -0.3770
  154MOL0     C20704   8.918  10.652  10.736 -1.0693 -0.2678  0.3994
  154MOL0     C20705   8.800  10.670  10.807  0.5420  1.2899 -0.3188
  154MOL0     N20706   8.103  10.241  10.792  1.1795 -0.2696  0.1949
  154MOL0     N20707   7.999  10.166  10.820  0.7824 -0.2030  0.0205
  154MOL0     C20708   7.695  10.204  10.085  0.1029  0.7156 -0.0594
  154MOL0     C20709   7.775  10.147   9.984 -0.4731 -0.2709 -0.2171
  154MOL0     C20710   7.973   9.967   9.648  0.4603  0.5290  0.4366
  154MOL0     C20711   7.992   9.828   9.656 -0.2680  0.2763  0.3719
  154MOL0     C20712   8.094   9.759   9.585  0.4989  0.4427 -0.1518
  154MOL0     C20713   8.159   9.832   9.484 -0.4406  0.2689 -0.9672
  154MOL0     O20714   8.251   9.772   9.399 -0.5497 -0.1908 -0.3136
  154MOL0     C20715   8.321   9.650   9.440 -0.2043  0.4731  0.0675
  154MOL0     C20716   8.423   9.611   9.342  0.2157  0.0084  0.2512
  154MOL0     C20717   8.456   9.461   9.360 -0.1700 -0.6792 -0.0975
  154MOL0     C20718   8.363   9.378   9.274 -0.2832  0.3862  0.2276
  154MOL0     C20719   8.377   9.236   9.305 -0.4990  0.4327 -0.4985
  154MOL0     C20720   8.376   9.112   9.322 -0.6996 -0.4866  0.3293
  154MOL0     C20721   8.140   9.970   9.468  0.3049  0.0688 -0.7455
  154MOL0     C20722   8.047  10.038   9.548 -0.4205  0.9910  0.1027
  154MOL0     H20723   7.588   9.863   9.947  0.1038  0.2370  0.8193
  154MOL0     H20724   7.444   9.963  10.087  0.7508 -0.3458  0.7397
  154MOL0     H20725   7.321  10.195  10.147 -2.3775 -3.4808  0.0989
  154MOL0     H20726   7.372  10.085  10.291 -0.7424 -2.5574 -2.8602
  154MOL0     H20727   7.324  10.380  10.309 -2.1337  0.3798 -0.4831
  154MOL0     H20728   7.187  10.271  10.334 -0.0228  0.3087  2.0409
  154MOL0     H20729   7.303  10.356  10.541 -0.4877 -1.0930  1.0721
  154MOL0     H20730   7.262  10.183  10.521 -1.0995  0.1831  2.7409
  154MOL0     H20731   7.526  10.147  10.512  1.8915  0.6530  1.7818
  154MOL0     H20732   7.530  10.320  10.470  1.1792  1.1756  3.3156
  154MOL0     H20733   7.485  10.380  10.698 -1.4576 -0.2254 -0.4639
  154MOL0     H20734   7.428  10.225  10.740  2.4665 -1.9654  1.3140
  154MOL0     H20735   7.641  10.127  10.726 -2.3989  0.0039  2.8593
  154MOL0     H20736   7.735  10.249  10.644  1.6784 -5.9901 -0.1247
  154MOL0     H20737   7.743  10.384  10.863  1.2706  0.2161 -2.3101
  154MOL0     H20738   7.605  10.282  10.921  1.5006 -0.9189 -0.4209
  154MOL0     H20739   7.760  10.095  10.916  1.9860 -0.0645  0.5554
  154MOL0     H20740   7.774  10.197  11.050 -0.0751  2.0833 -0.2994
  154MOL0     H20741   7.962  10.422  11.023  0.4355  1.6244 -1.9636
  154MOL0     H20742   8.294  10.433  10.802 -1.8412 -1.0161 -2.1627
  154MOL0     H20743   8.176  10.538  10.852  0.2216  1.3206  2.9005
  154MOL0     H20744   8.322  10.354  11.060  0.6304 -1.7213 -3.8340
  154MOL0     H20745   8.219  10.483  11.102  3.4158  1.3979  1.7824
  154MOL0     H20746   8.457  10.551  11.120  3.2752 -2.3284 -0.9692
  154MOL0     H20747   8.377  10.620  10.974  1.7215  0.2636 -0.7894
  154MOL0     H20748   8.507  10.408  10.852 -3.3071  0.4166 -0.2452
  154MOL0     H20749   8.599  10.409  11.003 -1.2793 -5.2531 -2.2032
  154MOL0     H20750   8.701  10.341  10.783 -1.0082  0.3674  1.6093
  154MOL0     H20751   8.930  10.272  10.553 -0.0103  0.7112 -0.3973
  154MOL0     H20752   9.022  10.275  10.710 -1.2552 -1.3498  3.2429
  154MOL0     H20753   8.866  10.201  10.704  0.8426  2.5409  3.4320
  154MOL0     H20754   9.304  10.372  10.555  0.0426 -0.4157 -1.1913
  154MOL0     H20755   9.543  10.379  10.491  2.6290  2.2641  1.7565
  154MOL0     H20756   9.832  10.492  10.310 -0.6031  1.2331  1.0530
  154MOL0     H20757   9.691  10.398  10.335 -0.4844 -0.2128 -1.1895
  154MOL0     H20758   9.567  10.528  10.164  0.1726  1.2216  0.4585
  154MOL0     H20759   9.694  10.647  10.153 -1.3908  0.6917  2.4331
  154MOL0     H20760   9.667  10.460   9.951  2.4397  2.6816 -1.4057
  154MOL0     H20761   9.728  10.340  10.053  1.6714 -0.1892 -1.6999
  154MOL0     H20762   9.859  10.591   9.955 -0.8986 -0.7570 -2.8018
  154MOL0     H20763   9.936  10.495  10.083  2.5581  1.0956 -2.7597
  154MOL0     H20764  10.023  10.456   9.855 -0.1169  2.5902  1.4140
  154MOL0     H20765   9.869  10.394   9.792 -0.9176 -2.1948  0.9272
  154MOL0     H20766   9.980  10.257  10.030  2.8274  3.5557 -0.0033
  154MOL0     H20767   9.857  10.218   9.905  1.0954 -1.3106 -2.0252
  154MOL0     H20768  10.059  10.080   9.847 -1.1051 -0.8472 -1.6203
  154MOL0     H20769  10.160  10.224   9.879 -0.4034 -0.9552  0.1783
  154MOL0     H20770  10.147  10.188   9.634  0.2400 -1.1747  2.4810
  154MOL0     H20771  10.074  10.338   9.685  1.5690 -0.0531 -0.4191
  154MOL0     H20772   9.519  10.813  10.459 -1.6027  0.3063  2.1831
  154MOL0     H20773   9.305  10.802  10.572  1.2096  1.3326  1.3733
  154MOL0     H20774   8.980  10.741  10.734 -1.8754  0.2891 -0.5930
  154MOL0     H20775   8.768  10.770  10.833  1.1858  0.7786  2.7372
  154MOL0     H20776   7.719  10.301  10.127  0.4409 -0.5227  2.8489
  154MOL0     H20777   7.872  10.182   9.950  1.0815 -2.5586  1.4681
  154MOL0     H20778   7.926   9.780   9.727 -0.2594 -1.3250 -0.6575
  154MOL0     H20779   8.111   9.653   9.601 -0.7909  0.2792  0.1954
  154MOL0     H20780   8.355   9.665   9.543 -2.0105 -0.4434  0.8580
  154MOL0     H20781   8.246   9.570   9.450 -1.2609  1.2966 -1.0056
  154MOL0     H20782   8.511   9.669   9.370 -0.4478  0.3754  1.6878
  154MOL0     H20783   8.390   9.624   9.239 -1.1687  0.5598  0.7410
  154MOL0     H20784   8.443   9.440   9.466  2.1519 -0.8079  0.2049
  154MOL0     H20785   8.558   9.439   9.327 -0.0199 -1.0734  0.6174
  154MOL0     H20786   8.381   9.389   9.167  0.9023 -1.2746  0.2273
  154MOL0     H20787   8.262   9.416   9.293 -1.2396 -1.9717  0.1542
  154MOL0     H20788   8.379   9.006   9.333 -2.9024 -0.4625  1.9198
  154MOL0     H20789   8.199  10.028   9.397  1.8427  2.9700  2.6270
  154MOL0     H20790   8.044  10.147   9.551  0.5796  1.1480  5.0199
  155MOL0     O20791   3.755   5.862   5.825 -0.0096 -0.0038  0.0281
  155MOL0     C20792   3.824   5.952   5.780 -0.7716 -0.3873 -0.5767
  155MOL0     O20793   3.775   6.047   5.684  0.0095  0.4633 -0.1319
  155MOL0     C20794   3.645   6.042   5.644 -0.4169 -0.5901  0.2169
  155MOL0     C20795   3.586   5.940   5.581  0.4335 -0.1190 -0.1357
  155MOL0     C20796   3.447   5.931   5.547 -0.5426 -0.4601  1.0906
  155MOL0     C20797   3.368   6.050   5.572  0.1302 -0.1189 -0.3495
  155MOL0     O20798   3.240   6.080   5.525 -0.6442  0.1219  0.0203
  155MOL0     C20799   3.159   5.968   5.479 -0.2585  0.0979 -0.0467
  155MOL0     C20800   3.020   6.041   5.467 -0.4960 -0.5376  0.4243
  155MOL0     C20801   2.911   5.947   5.426  0.2226 -0.0820  0.0045
  155MOL0     C20802   2.775   6.023   5.418 -0.1534  1.0046  0.3079
  155MOL0     C20803   2.651   5.932   5.401  0.2244 -0.1582 -0.1148
  155MOL0     C20804   2.521   6.022   5.386  0.2297 -0.0853 -0.1522
  155MOL0     C20805   2.400   5.944   5.336 -0.1820  0.6023 -0.2607
  155MOL0     C20806   2.350   5.836   5.439 -0.3051  0.3262 -0.2924
  155MOL0     N20807   2.275   5.748   5.357  0.8025  0.0426 -0.2313
  155MOL0     C20808   2.321   5.666   5.249 -0.1974  0.2269  0.2608
  155MOL0     C20809   2.214   5.608   5.196 -0.7129  0.1903 -0.1747
  155MOL0     C20810   2.214   5.497   5.091  0.6928 -0.2896  0.3161
  155MOL0     C20811   2.080   5.419   5.103 -0.5447 -1.0959  0.3793
  155MOL0     C20812   2.073   5.312   5.224 -0.3421 -0.2081 -0.5383
  155MOL0     C20813   1.927   5.260   5.239 -0.8200 -0.3595  1.2164
  155MOL0     O20814   1.888   5.208   5.111  0.1790 -0.8080 -0.2824
  155MOL0     C20815   1.763   5.233   5.058  0.4361 -0.0827 -0.3197
  155MOL0     C20816   1.637   5.222   5.123  0.4579  0.4062  0.1765
  155MOL0     C20817   1.513   5.233   5.064  0.4663 -0.1893 -0.0875
  155MOL0     C20818   1.392   5.229   5.163  0.9419  0.7613 -0.6138
  155MOL0     C20819   1.511   5.256   4.931  0.4684 -0.1576 -0.2564
  155MOL0     C20820   1.393   5.265   4.848 -0.6235 -0.4282  0.1002
  155MOL0     O20821   1.290   5.189   4.891  0.2903 -0.7338 -0.4423
  155MOL0     C20822   1.172   5.225   4.837  0.0136 -0.8642  0.2424
  155MOL0     C20823   1.129   5.145   4.733 -0.0771 -0.6461  0.3270
  155MOL0     C20824   1.012   5.184   4.668  0.4457  0.0347 -0.1220
  155MOL0     C20825   0.934   5.291   4.705 -0.7013  0.2104 -0.7914
  155MOL0     O20826   0.818   5.330   4.649 -0.1668 -0.1949 -0.4603
  155MOL0     C20827   0.763   5.232   4.567  0.3254  0.0649  0.2301
  155MOL0     C20828   0.625   5.276   4.517  0.3477  0.8336 -0.3073
  155MOL0     C20829   0.642   5.425   4.466 -0.6620  0.5655 -0.2637
  155MOL0     C20830   0.505   5.496   4.442  1.2770  0.4001 -0.2552
  155MOL0     C20831   0.448   5.483   4.305  0.9436 -0.4177 -0.6916
  155MOL0     C20832   0.305   5.550   4.285  0.6244 -0.1953 -0.4187
  155MOL0     C20833   0.315   5.712   4.295 -0.1002  0.2232 -0.1892
  155MOL0     C20834   0.276   5.747   4.443 -0.4225 -0.2944  1.2174
  155MOL0    Cl20835   0.294   5.925   4.453  0.7305 -0.3226 -0.2602
  155MOL0     C20836   0.977   5.372   4.805 -0.4074 -0.5315 -0.0764
  155MOL0     C20837   1.103   5.342   4.867 -0.4061  0.4896 -0.8196
  155MOL0     O20838   1.408   5.314   4.730 -0.4168 -0.2735 -1.2136
  155MOL0     C20839   1.639   5.265   4.863  0.0260 -0.6876  0.7073
  155MOL0     C20840   1.761   5.251   4.923 -0.4470  0.5142 -0.8829
  155MOL0     N20841   2.103   5.647   5.271 -0.7046 -0.2405  0.0947
  155MOL0     N20842   2.136   5.733   5.358 -0.4803 -0.4358  0.6469
  155MOL0     C20843   3.437   6.162   5.629  0.6147  0.5486  0.1330
  155MOL0     C20844   3.570   6.159   5.659  0.2721  0.8888 -0.1433
  155MOL0     C20845   3.969   5.960   5.814  0.7776  0.1525 -1.4652
  155MOL0     C20846   4.022   5.848   5.887 -0.2772  0.1214 -1.0650
  155MOL0     C20847   4.166   5.846   5.910  0.0159  0.1942 -0.9622
  155MOL0     C20848   4.247   5.951   5.877  0.6217  0.0224  0.3728
  155MOL0     O20849   4.380   5.949   5.913  0.5830 -0.0708 -0.0980
  155MOL0     C20850   4.440   5.824   5.882  0.2888 -0.2214 -1.0704
  155MOL0     C20851   4.591   5.858   5.849  0.0605 -1.2152 -0.5685
  155MOL0     C20852   4.669   5.728   5.838  0.3844  0.2550  0.7471
  155MOL0     C20853   4.722   5.673   5.970  0.1080 -0.5892 -0.3110
  155MOL0     C20854   4.823   5.558   5.964  0.1599  0.6282 -0.7214
  155MOL0     C20855   4.903   5.463   5.956 -0.1669 -0.0870  0.0585
  155MOL0     C20856   4.189   6.060   5.805 -0.1776 -0.0554  0.1112
  155MOL0     C20857   4.051   6.062   5.778 -0.0012 -0.8130  0.1518
  155MOL0     H20858   3.642   5.849   5.563 -2.0214 -2.1494  1.7229
  155MOL0     H20859   3.390   5.852   5.499 -3.0203  2.4479 -1.1522
  155MOL0     H20860   3.190   5.930   5.381 -0.4045 -1.5321  0.5036
  155MOL0     H20861   3.163   5.884   5.550  0.1003 -0.6715 -0.9542
  155MOL0     H20862   3.009   6.086   5.567 -0.8814 -1.7532  0.9531
  155MOL0     H20863   3.022   6.124   5.396 -0.3143  0.8496  1.9577
  155MOL0     H20864   2.945   5.912   5.328 -1.2973  1.1446 -1.0043
  155MOL0     H20865   2.905   5.866   5.500  2.9664 -0.0517  0.3572
  155MOL0     H20866   2.765   6.066   5.518  0.3068 -1.1182  1.3300
  155MOL0     H20867   2.766   6.104   5.345 -1.2909  0.3643 -0.2854
  155MOL0     H20868   2.664   5.869   5.312 -2.7767 -3.9597  1.7901
  155MOL0     H20869   2.640   5.871   5.491 -0.9657  2.8291  1.9224
  155MOL0     H20870   2.500   6.057   5.487  1.8823 -1.1482  0.5901
  155MOL0     H20871   2.535   6.111   5.324 -0.9427 -3.4641 -6.0673
  155MOL0     H20872   2.330   6.026   5.318  0.2267  0.6596 -1.7514
  155MOL0     H20873   2.419   5.899   5.238 -1.2993 -3.2667  1.1005
  155MOL0     H20874   2.291   5.881   5.520  0.7517 -1.3959  1.5417
  155MOL0     H20875   2.432   5.782   5.487 -2.4826 -0.2264  3.1518
  155MOL0     H20876   2.427   5.659   5.224 -0.1926  0.5003  0.2002
  155MOL0     H20877   2.221   5.532   4.988  2.2039 -3.0639 -0.6362
  155MOL0     H20878   2.296   5.425   5.093  0.9537  0.0104  1.3528
  155MOL0     H20879   2.055   5.375   5.006  3.2177 -0.6439 -0.9536
  155MOL0     H20880   1.998   5.490   5.119  1.0738  1.6429 -2.4713
  155MOL0     H20881   2.114   5.357   5.316  0.2832 -0.9649 -0.4375
  155MOL0     H20882   2.142   5.229   5.213  1.7214  0.6370  3.8291
  155MOL0     H20883   1.874   5.349   5.273  0.9297  1.5841 -0.7630
  155MOL0     H20884   1.917   5.181   5.314  0.1801 -2.3599 -0.6429
  155MOL0     H20885   1.639   5.194   5.228  0.3033 -3.1092 -0.6283
  155MOL0     H20886   1.339   5.324   5.159 -0.2112  0.5336  3.8978
  155MOL0     H20887   1.321   5.147   5.143 -0.8333  2.1959 -0.4476
  155MOL0     H20888   1.426   5.209   5.265  0.3387 -0.3393 -0.6018
  155MOL0     H20889   1.180   5.064   4.683  1.7978  0.3781  0.4656
  155MOL0     H20890   0.982   5.116   4.589 -2.0373 -1.2191  1.7525
  155MOL0     H20891   0.827   5.210   4.481  2.2935  0.0342  1.6570
  155MOL0     H20892   0.741   5.139   4.620  0.7389 -1.7934 -2.6417
  155MOL0     H20893   0.585   5.217   4.434 -2.1482  0.3516  1.1475
  155MOL0     H20894   0.549   5.270   4.596  0.5593  2.2621  0.0337
  155MOL0     H20895   0.701   5.434   4.374 -1.0047  1.1854 -0.4279
  155MOL0     H20896   0.694   5.492   4.534 -1.2614  1.8614 -1.0376
  155MOL0     H20897   0.428   5.457   4.508 -0.1515 -2.0898 -3.1285
  155MOL0     H20898   0.509   5.600   4.477  1.7289 -0.2797  1.8546
  155MOL0     H20899   0.425   5.376   4.301 -0.4705 -0.1604 -0.2101
  155MOL0     H20900   0.517   5.534   4.237  0.2022  0.4706 -0.7926
  155MOL0     H20901   0.256   5.517   4.193  1.9612 -0.2720 -1.1397
  155MOL0     H20902   0.246   5.505   4.365  3.3763 -3.5129  0.0152
  155MOL0     H20903   0.242   5.766   4.233 -5.0180  0.7770  5.1752
  155MOL0     H20904   0.416   5.749   4.277  0.3309 -1.3837 -1.2697
  155MOL0     H20905   0.347   5.710   4.518 -0.5583 -3.0223  0.0984
  155MOL0     H20906   0.173   5.719   4.465 -0.8191  1.8098  2.3397
  155MOL0     H20907   0.912   5.455   4.830  0.6107  0.0924  0.5599
  155MOL0     H20908   1.150   5.403   4.943  3.0314 -1.5483 -1.0898
  155MOL0     H20909   1.663   5.289   4.760 -1.3035 -1.2440  0.2599
  155MOL0     H20910   1.854   5.263   4.868  0.7977 -1.4895  0.6615
  155MOL0     H20911   3.386   6.258   5.629 -0.8003 -0.1820  0.9241
  155MOL0     H20912   3.616   6.247   5.704  0.7515  0.8655 -0.5773
  155MOL0     H20913   3.953   5.770   5.918  2.0295 -0.4792  3.1898
  155MOL0     H20914   4.214   5.765   5.964 -0.1398 -0.3671 -1.6618
  155MOL0     H20915   4.447   5.763   5.973  2.9185  1.3992 -0.0728
  155MOL0     H20916   4.396   5.773   5.796 -1.1906 -4.1194  1.7129
  155MOL0     H20917   4.632   5.920   5.930  3.0633 -1.3610 -1.8553
  155MOL0     H20918   4.598   5.918   5.758  0.1787  2.8767  1.8836
  155MOL0     H20919   4.759   5.742   5.777 -0.1475  2.6179  0.4078
  155MOL0     H20920   4.609   5.648   5.794  0.2525 -0.9866  3.0704
  155MOL0     H20921   4.636   5.642   6.030 -0.9971  1.2555 -0.8773
  155MOL0     H20922   4.780   5.753   6.016 -0.0002 -0.1302 -0.9564
  155MOL0     H20923   4.966   5.379   5.936 -0.0462  0.1759 -0.6607
  155MOL0     H20924   4.242   6.138   5.751 -1.0188  0.2353 -0.3205
  155MOL0     H20925   4.015   6.147   5.721  0.6355 -0.0560  0.8499
  156MOL0     O20926   2.990   7.393   3.062 -0.0716  0.3273  0.2711
  156MOL0     C20927   3.038   7.436   2.958  0.7203 -0.1383 -0.5418
  156MOL0     O20928   2.970   7.465   2.837 -0.1835 -0.5588  0.6553
  156MOL0     C20929   2.845   7.416   2.821 -0.2393  1.4857 -0.1132
  156MOL0     C20930   2.744   7.509   2.783 -1.0801  0.3801 -0.7520
  156MOL0     C20931   2.619   7.466   2.764  0.8302 -0.3019 -0.1614
  156MOL0     C20932   2.592   7.332   2.777  0.8460  0.1562 -0.0182
  156MOL0     O20933   2.461   7.282   2.769  0.3792 -0.3644 -0.2391
  156MOL0     C20934   2.388   7.262   2.896 -0.2896 -0.5560  0.5000
  156MOL0     C20935   2.316   7.385   2.951 -0.6000 -0.3064 -0.6629
  156MOL0     C20936   2.193   7.436   2.869 -0.2159  0.1112 -1.1489
  156MOL0     C20937   2.086   7.488   2.968 -0.3936  0.0595 -0.1285
  156MOL0     C20938   1.955   7.489   2.890  0.7127  0.4817 -0.8648
  156MOL0     C20939   1.834   7.526   2.985 -0.7395  0.6263  0.1831
  156MOL0     C20940   1.695   7.529   2.915  0.4934  0.3651 -0.6770
  156MOL0     C20941   1.665   7.663   2.845 -0.6268  0.7634  0.4473
  156MOL0     N20942   1.527   7.692   2.808 -0.4300  0.6035 -0.8227
  156MOL0     C20943   1.445   7.610   2.725  0.4062 -0.1875 -0.6492
  156MOL0     C20944   1.327   7.678   2.723  0.3540 -0.1056 -0.3951
  156MOL0     C20945   1.198   7.639   2.655 -0.9295 -0.5160  0.2403
  156MOL0     C20946   1.082   7.573   2.738 -0.7959  0.7034 -0.6229
  156MOL0     C20947   1.123   7.434   2.794 -0.3500 -0.3503  0.4205
  156MOL0     C20948   1.201   7.454   2.928 -0.0522 -0.2195  0.6674
  156MOL0     O20949   1.217   7.321   2.978 -0.9174  0.1483  0.3181
  156MOL0     C20950   1.340   7.321   3.045  1.0226 -0.9275 -0.4946
  156MOL0     C20951   1.364   7.374   3.169  0.9184  0.9585 -0.4915
  156MOL0     C20952   1.476   7.364   3.253  0.5759  0.5993 -0.1170
  156MOL0     C20953   1.465   7.440   3.389  0.4938 -0.1148 -0.0817
  156MOL0     C20954   1.575   7.278   3.208 -0.5861 -0.5397 -0.4920
  156MOL0     C20955   1.698   7.246   3.291  0.1713  0.7754 -0.4384
  156MOL0     O20956   1.805   7.195   3.216 -0.4773  0.1424  0.2342
  156MOL0     C20957   1.918   7.134   3.260 -0.2719  0.1367  0.4046
  156MOL0     C20958   2.038   7.151   3.192 -0.2425 -0.5164  0.0782
  156MOL0     C20959   2.153   7.088   3.237 -0.8431  0.5125  0.3543
  156MOL0     C20960   2.154   7.001   3.353 -1.2020  0.0779 -0.0955
  156MOL0     O20961   2.266   6.932   3.398 -0.1205  0.4212  0.5574
  156MOL0     C20962   2.380   6.916   3.310  0.0556 -0.1996  0.6052
  156MOL0     C20963   2.520   6.928   3.384 -0.0843 -0.4107 -0.5050
  156MOL0     C20964   2.568   6.801   3.464  0.1689  0.4846  0.4113
  156MOL0     C20965   2.483   6.770   3.588  0.4962  0.6532 -0.7535
  156MOL0     C20966   2.523   6.645   3.655  0.2093  0.3892 -0.5298
  156MOL0     C20967   2.481   6.519   3.572 -0.1431 -0.5034  0.7355
  156MOL0     C20968   2.334   6.480   3.577 -0.0692  0.2609  0.5132
  156MOL0     C20969   2.318   6.324   3.563  0.3009 -0.8756 -0.6201
  156MOL0    Cl20970   2.142   6.296   3.549  0.1727  0.1391 -0.6025
  156MOL0     C20971   2.039   6.997   3.425 -0.1234  0.2044  0.4998
  156MOL0     C20972   1.916   7.050   3.370 -0.4718 -0.5732  0.5634
  156MOL0     O20973   1.702   7.271   3.409  0.0816 -0.3274  0.6205
  156MOL0     C20974   1.555   7.214   3.085  0.1075 -0.2259 -0.0082
  156MOL0     C20975   1.442   7.229   3.005 -0.2991  0.2821 -0.1173
  156MOL0     N20976   1.338   7.790   2.809  0.3025 -0.8030  0.6035
  156MOL0     N20977   1.463   7.799   2.864  1.4810  0.8124  0.3740
  156MOL0     C20978   2.696   7.240   2.782  0.6946  0.1538 -0.8463
  156MOL0     C20979   2.825   7.282   2.814 -0.3563  0.7564  1.8154
  156MOL0     C20980   3.178   7.467   2.958  0.8122 -0.6067 -0.0694
  156MOL0     C20981   3.239   7.562   2.868  0.4967 -1.2170 -0.2780
  156MOL0     C20982   3.379   7.594   2.875  0.1789 -0.0633 -0.6435
  156MOL0     C20983   3.457   7.509   2.955  0.2579  0.2794  0.5894
  156MOL0     O20984   3.595   7.517   2.961  0.2694  0.7866  0.0383
  156MOL0     C20985   3.652   7.552   2.838 -0.1606  0.1244 -0.4936
  156MOL0     C20986   3.809   7.521   2.844  1.0000  0.0975  0.7206
  156MOL0     C20987   3.878   7.542   2.980 -0.0225  0.9215  0.0790
  156MOL0     C20988   3.885   7.692   3.002 -0.1819  0.9921  0.6192
  156MOL0     C20989   3.908   7.724   3.140  0.1432  0.2274 -0.0781
  156MOL0     C20990   3.927   7.744   3.252  0.2034 -0.4462 -1.2658
  156MOL0     C20991   3.399   7.414   3.039  0.0737  0.1753 -0.1184
  156MOL0     C20992   3.263   7.392   3.038 -0.5315  0.0139 -1.5613
  156MOL0     H20993   2.775   7.613   2.782 -2.7304  0.9937  1.6221
  156MOL0     H20994   2.547   7.541   2.734  3.4357  3.1649  1.5499
  156MOL0     H20995   2.315   7.182   2.882 -0.8856  0.0982 -0.2616
  156MOL0     H20996   2.470   7.225   2.958  0.6412  3.8208  2.2609
  156MOL0     H20997   2.295   7.376   3.058  0.8029  1.3539 -0.1969
  156MOL0     H20998   2.398   7.456   2.965  0.8269 -2.3561  2.8773
  156MOL0     H20999   2.221   7.518   2.802  0.2963  1.0095  0.1262
  156MOL0     H21000   2.154   7.356   2.805 -1.9291  0.8598 -1.0818
  156MOL0     H21001   2.078   7.425   3.057  0.3369  2.2194  1.5411
  156MOL0     H21002   2.129   7.581   3.006  0.5244 -0.1028 -0.7208
  156MOL0     H21003   1.959   7.564   2.810 -0.6131  2.0848  0.4829
  156MOL0     H21004   1.937   7.396   2.836 -0.8324  1.1339 -1.5464
  156MOL0     H21005   1.835   7.452   3.065 -1.7096  0.3563 -0.0415
  156MOL0     H21006   1.861   7.624   3.025  0.2406  0.6062 -0.3798
  156MOL0     H21007   1.683   7.447   2.844  1.0063 -0.4152  0.1098
  156MOL0     H21008   1.620   7.529   2.994 -0.0685 -0.5545 -1.2067
  156MOL0     H21009   1.731   7.666   2.757  1.8687 -2.7495  1.9522
  156MOL0     H21010   1.696   7.745   2.909  0.0918  3.0778 -2.6140
  156MOL0     H21011   1.478   7.521   2.672 -0.3824 -0.4242 -0.7445
  156MOL0     H21012   1.156   7.729   2.609 -1.6609 -0.8355  0.2604
  156MOL0     H21013   1.225   7.577   2.569 -0.8535 -2.0024  1.2892
  156MOL0     H21014   1.010   7.560   2.657 -0.6395  0.2965 -0.6967
  156MOL0     H21015   1.028   7.639   2.807  0.9202  1.1552  0.3641
  156MOL0     H21016   1.184   7.376   2.724 -0.0978 -1.0662  1.2270
  156MOL0     H21017   1.035   7.375   2.819 -0.0009 -0.7521  0.7100
  156MOL0     H21018   1.136   7.510   2.996 -0.9112 -1.3363  0.7969
  156MOL0     H21019   1.294   7.509   2.912 -1.2118  2.3982  2.2359
  156MOL0     H21020   1.277   7.431   3.201  0.8626  0.3578  0.4560
  156MOL0     H21021   1.559   7.469   3.437 -1.6097  2.2990  3.0063
  156MOL0     H21022   1.399   7.527   3.381  0.8571  0.2084  0.3684
  156MOL0     H21023   1.417   7.375   3.464  0.2298  1.3349  1.0496
  156MOL0     H21024   2.029   7.212   3.103 -0.7045 -1.5660 -0.6162
  156MOL0     H21025   2.237   7.098   3.169 -1.3510 -0.4461 -0.4519
  156MOL0     H21026   2.376   6.819   3.260 -1.7876  1.0058 -1.7818
  156MOL0     H21027   2.389   6.989   3.229  1.4838  0.9618  1.7336
  156MOL0     H21028   2.606   6.957   3.323 -0.4009  1.1249 -0.2575
  156MOL0     H21029   2.512   7.004   3.462 -1.6814 -1.0363 -0.0023
  156MOL0     H21030   2.668   6.820   3.504 -0.4905  0.0895  2.3392
  156MOL0     H21031   2.581   6.715   3.398 -0.9782 -1.4707  2.6184
  156MOL0     H21032   2.479   6.845   3.667  1.8932 -3.1324  3.2930
  156MOL0     H21033   2.381   6.761   3.549  0.7700 -1.4242 -1.1224
  156MOL0     H21034   2.472   6.638   3.752 -0.9022 -1.3341 -1.1859
  156MOL0     H21035   2.632   6.651   3.666  0.7091 -1.0282 -3.6343
  156MOL0     H21036   2.520   6.528   3.470  1.4148 -0.5611  1.3158
  156MOL0     H21037   2.543   6.440   3.614 -1.5767 -1.5938  0.8729
  156MOL0     H21038   2.284   6.517   3.487  0.5107 -2.8364 -1.2027
  156MOL0     H21039   2.288   6.511   3.672  0.4164 -3.5073  2.1702
  156MOL0     H21040   2.361   6.279   3.653 -1.1304  0.7625  0.9614
  156MOL0     H21041   2.369   6.290   3.473 -0.1304 -0.1498 -1.1608
  156MOL0     H21042   2.026   6.936   3.514 -1.2100 -1.0807 -0.4897
  156MOL0     H21043   1.822   7.040   3.423  0.2234  0.6145  2.0892
  156MOL0     H21044   1.638   7.158   3.043  0.2226  1.5443 -2.3493
  156MOL0     H21045   1.438   7.173   2.911  2.2254 -1.0390  0.4524
  156MOL0     H21046   2.672   7.136   2.758 -1.8210  0.5073 -0.2175
  156MOL0     H21047   2.903   7.208   2.828  0.9994  0.8411 -3.3977
  156MOL0     H21048   3.179   7.628   2.805  0.3347  0.0724  1.1536
  156MOL0     H21049   3.410   7.689   2.831 -1.8287 -0.6448 -3.6809
  156MOL0     H21050   3.600   7.491   2.765 -0.2602  0.5019 -0.7433
  156MOL0     H21051   3.634   7.658   2.817 -1.3313 -0.1723 -1.0813
  156MOL0     H21052   3.862   7.575   2.765  1.1598 -0.7610  0.2356
  156MOL0     H21053   3.817   7.415   2.819  2.2973  0.5070 -0.7864
  156MOL0     H21054   3.981   7.505   2.986 -0.2068  0.1853 -0.9966
  156MOL0     H21055   3.826   7.499   3.066  1.4272 -1.6280 -0.2335
  156MOL0     H21056   3.800   7.746   2.959 -0.1184 -0.7741 -1.9812
  156MOL0     H21057   3.966   7.717   2.932  0.2056  0.7824  0.9908
  156MOL0     H21058   3.940   7.760   3.357 -0.5483  0.6072 -1.3154
  156MOL0     H21059   3.452   7.337   3.093 -1.0346 -1.4128 -1.2320
  156MOL0     H21060   3.211   7.315   3.094 -3.2165  3.3789  1.0309
  157MOL0     O21061   9.334   1.156   7.285  0.0840  0.0798  0.5281
  157MOL0     C21062   9.272   1.053   7.317  0.3913  0.7412 -0.0578
  157MOL0     O21063   9.319   0.926   7.285  0.0785  0.2785  0.0151
  157MOL0     C21064   9.455   0.917   7.273  0.0853  0.0775 -0.7957
  157MOL0     C21065   9.528   0.861   7.377 -1.0775 -0.1390 -0.3647
  157MOL0     C21066   9.663   0.848   7.370  0.6188 -0.5126 -0.6375
  157MOL0     C21067   9.730   0.877   7.257  0.0589 -0.5162 -0.2121
  157MOL0     O21068   9.866   0.860   7.264  0.3265  0.0657  0.3588
  157MOL0     C21069   9.942   0.884   7.136  0.4678  0.2077 -0.3390
  157MOL0     C21070  10.067   0.800   7.153 -0.5667  0.0978  0.4984
  157MOL0     C21071  10.165   0.818   7.031  0.6830  0.3012  0.5270
  157MOL0     C21072  10.309   0.857   7.070  0.1680  0.0547  0.4261
  157MOL0     C21073  10.410   0.845   6.949  0.3878 -0.3551 -0.2253
  157MOL0     C21074  10.559   0.849   6.994 -0.3131  0.3483  0.2370
  157MOL0     C21075  10.652   0.881   6.877 -0.1781 -0.1786  0.5027
  157MOL0     C21076  10.793   0.871   6.910  0.3367  0.3862 -0.8754
  157MOL0     N21077  10.877   0.938   6.816 -1.0654  0.6438 -0.0739
  157MOL0     C21078  10.887   1.071   6.806  0.1605  0.2899  0.4370
  157MOL0     C21079  10.976   1.096   6.708 -0.3626 -0.5049 -0.3986
  157MOL0     C21080  11.017   1.237   6.665  0.5432  0.5498 -0.2715
  157MOL0     C21081  11.149   1.265   6.715  0.8851 -0.0198  0.2097
  157MOL0     C21082  11.173   1.414   6.702 -0.3051  0.1057 -0.1660
  157MOL0     C21083  11.319   1.453   6.753  0.4082  0.0145  0.3942
  157MOL0     O21084  11.331   1.593   6.710 -0.2671  0.8760  0.1243
  157MOL0     C21085  11.455   1.649   6.696  0.1479  0.3231 -0.1078
  157MOL0     C21086  11.567   1.592   6.744  0.3692  0.3523  1.6965
  157MOL0     C21087  11.692   1.642   6.722  0.0456 -1.2941  0.3837
  157MOL0     C21088  11.811   1.568   6.784  0.3377 -0.7003  0.2496
  157MOL0     C21089  11.704   1.767   6.652  0.0978 -1.2587  0.9488
  157MOL0     C21090  11.831   1.840   6.631 -0.3003  0.1672  0.5767
  157MOL0     O21091  11.937   1.780   6.572  0.1189  0.3308 -0.7071
  157MOL0     C21092  12.062   1.842   6.550  0.1070 -0.2490  1.0600
  157MOL0     C21093  12.110   1.969   6.595  0.0109 -0.6045 -0.0446
  157MOL0     C21094  12.238   2.003   6.571 -0.6130 -1.3803 -0.5206
  157MOL0     C21095  12.326   1.919   6.515 -0.3671  0.6599  0.7715
  157MOL0     O21096  12.455   1.957   6.509  0.2901  0.2306  0.2292
  157MOL0     C21097  12.560   1.862   6.502  0.7313 -0.5455  0.6713
  157MOL0     C21098  12.684   1.950   6.517 -0.7088 -0.1533 -0.9390
  157MOL0     C21099  12.813   1.876   6.500 -0.2631  0.7788 -0.3862
  157MOL0     C21100  12.929   1.896   6.605  0.5242  0.1851  0.0495
  157MOL0     C21101  13.074   1.863   6.567 -0.6592 -0.0458 -0.2185
  157MOL0     C21102  13.165   1.853   6.690  0.0626  0.1979  0.3637
  157MOL0     C21103  13.255   1.737   6.680 -0.9413  0.8546  0.6309
  157MOL0     C21104  13.357   1.745   6.785  0.8668 -0.2991  0.1497
  157MOL0    Cl21105  13.469   1.603   6.772 -0.0860  0.1035 -0.2358
  157MOL0     C21106  12.282   1.799   6.464  0.7340  0.2266  0.1077
  157MOL0     C21107  12.147   1.760   6.472 -0.3683 -0.4106  0.3473
  157MOL0     O21108  11.818   1.961   6.647  0.7728 -0.3615 -0.6894
  157MOL0     C21109  11.588   1.830   6.602  0.6860 -0.3465 -0.6253
  157MOL0     C21110  11.462   1.764   6.627 -0.1882 -0.9428 -0.1109
  157MOL0     N21111  11.026   0.978   6.667 -0.1037 -0.5133 -0.1696
  157MOL0     N21112  10.971   0.880   6.736 -0.4276  0.3597  0.3166
  157MOL0     C21113   9.665   0.937   7.146  0.1441  0.5723  0.0275
  157MOL0     C21114   9.523   0.946   7.153 -0.1465  0.2461  0.8835
  157MOL0     C21115   9.130   1.060   7.351  0.5222  0.0800  0.3456
  157MOL0     C21116   9.051   0.952   7.356  0.1466  0.5553 -0.1554
  157MOL0     C21117   8.916   0.961   7.410 -0.3503 -0.2179 -0.4785
  157MOL0     C21118   8.869   1.087   7.455 -0.1147 -0.0914  0.7223
  157MOL0     O21119   8.746   1.109   7.517  0.0801  0.7647 -0.1504
  157MOL0     C21120   8.662   0.996   7.550  0.1432 -0.0278  0.2003
  157MOL0     C21121   8.528   1.036   7.616  0.2247 -0.0029  0.1797
  157MOL0     C21122   8.539   1.027   7.777  0.5648  0.0192 -0.2515
  157MOL0     C21123   8.403   1.008   7.842 -0.7218 -0.1614  0.6281
  157MOL0     C21124   8.396   1.061   7.976  0.1389  0.6294 -0.2894
  157MOL0     C21125   8.395   1.119   8.085 -0.3521  0.3100  0.5000
  157MOL0     C21126   8.948   1.198   7.434  0.0819  0.2619 -1.0485
  157MOL0     C21127   9.077   1.186   7.379  0.8117  0.7254 -0.6788
  157MOL0     H21128   9.481   0.836   7.472 -1.1415  1.1012 -0.0516
  157MOL0     H21129   9.715   0.809   7.457 -2.0989  1.2984  1.9921
  157MOL0     H21130   9.888   0.853   7.046  0.6297  0.4355 -0.5159
  157MOL0     H21131   9.968   0.989   7.123  4.6435 -0.9166 -3.4634
  157MOL0     H21132  10.120   0.842   7.239  0.2738  2.5773 -1.0904
  157MOL0     H21133  10.044   0.693   7.161  1.1140 -0.1944  2.2497
  157MOL0     H21134  10.162   0.721   6.981 -1.4315 -1.0293  2.9874
  157MOL0     H21135  10.122   0.895   6.967 -0.2661  1.7483  2.7736
  157MOL0     H21136  10.309   0.960   7.108  1.8920  0.3310 -0.2504
  157MOL0     H21137  10.339   0.793   7.153  2.0059  1.5457  0.9898
  157MOL0     H21138  10.377   0.757   6.892 -1.6346  0.6862 -0.7603
  157MOL0     H21139  10.385   0.931   6.886  0.9171 -0.0649 -0.0395
  157MOL0     H21140  10.570   0.916   7.080 -0.7831 -1.9078  2.1610
  157MOL0     H21141  10.589   0.758   7.046 -0.4187  0.3514  0.3024
  157MOL0     H21142  10.635   0.799   6.806 -0.4760  0.9307 -0.7443
  157MOL0     H21143  10.621   0.972   6.824 -0.8959 -0.9136 -0.3814
  157MOL0     H21144  10.823   0.768   6.932  0.3162  0.5248 -0.1790
  157MOL0     H21145  10.803   0.915   7.010  1.0160 -0.3274 -0.6251
  157MOL0     H21146  10.834   1.154   6.851 -0.9457  0.7522 -1.5915
  157MOL0     H21147  11.012   1.236   6.556 -0.6044  3.8399 -0.3700
  157MOL0     H21148  10.945   1.312   6.699  0.0639 -0.0282 -0.0068
  157MOL0     H21149  11.213   1.201   6.653 -1.8120 -2.4969 -0.2141
  157MOL0     H21150  11.161   1.217   6.813 -0.8387 -2.9057 -0.8573
  157MOL0     H21151  11.096   1.481   6.741  0.3674  0.3961  0.7102
  157MOL0     H21152  11.180   1.438   6.596 -1.7744 -0.6075 -0.4574
  157MOL0     H21153  11.393   1.389   6.704  1.7549 -0.3012  2.6861
  157MOL0     H21154  11.328   1.434   6.860 -4.1725 -0.4312  0.8725
  157MOL0     H21155  11.567   1.500   6.801  2.9786  0.9760  2.8235
  157MOL0     H21156  11.859   1.484   6.734  2.1991  0.0806  0.6361
  157MOL0     H21157  11.887   1.646   6.793 -3.1002  3.2965 -1.5614
  157MOL0     H21158  11.777   1.519   6.875  1.5446  1.2030  1.8133
  157MOL0     H21159  12.044   2.034   6.652 -1.5238 -1.5746 -0.6613
  157MOL0     H21160  12.269   2.099   6.611 -7.3933  1.3342 -0.4024
  157MOL0     H21161  12.556   1.787   6.582  0.6058 -0.3665  0.8327
  157MOL0     H21162  12.559   1.816   6.403  1.8421  2.2695 -0.7544
  157MOL0     H21163  12.677   2.024   6.436 -0.8906  1.2278  0.3001
  157MOL0     H21164  12.675   2.002   6.613  0.5087 -1.0286 -0.3247
  157MOL0     H21165  12.854   1.898   6.401  2.8613 -1.1190  0.3338
  157MOL0     H21166  12.795   1.768   6.502 -0.1016  0.6759 -2.2585
  157MOL0     H21167  12.929   2.002   6.633 -1.5665 -0.0916  1.2753
  157MOL0     H21168  12.900   1.852   6.700 -1.2846 -1.5240 -1.2354
  157MOL0     H21169  13.107   1.943   6.499  0.0001  0.8914  1.1700
  157MOL0     H21170  13.090   1.776   6.502  1.6425 -0.3942  0.6952
  157MOL0     H21171  13.212   1.950   6.709 -1.4737  0.6827  1.9762
  157MOL0     H21172  13.111   1.838   6.784 -1.2071  0.9400 -0.2183
  157MOL0     H21173  13.307   1.740   6.584 -4.2888  1.1267 -1.3181
  157MOL0     H21174  13.199   1.643   6.673 -1.3482  0.9706  2.0714
  157MOL0     H21175  13.315   1.738   6.886  3.0123 -2.3537  0.9988
  157MOL0     H21176  13.418   1.835   6.773 -0.5304  0.7281  0.5325
  157MOL0     H21177  12.351   1.726   6.423 -2.0858 -4.1664  2.3923
  157MOL0     H21178  12.115   1.659   6.450 -2.4209 -0.2782  2.4107
  157MOL0     H21179  11.586   1.919   6.540  0.7448  0.2266  0.1800
  157MOL0     H21180  11.383   1.824   6.582  1.8178  0.6188 -1.7828
  157MOL0     H21181   9.715   0.969   7.055 -0.6719 -1.8510 -1.3583
  157MOL0     H21182   9.462   0.997   7.079  1.4148 -0.9959 -1.3848
  157MOL0     H21183   9.094   0.854   7.338 -1.5214 -0.2121 -0.1175
  157MOL0     H21184   8.876   0.862   7.432  1.3101 -1.3138 -2.1085
  157MOL0     H21185   8.639   0.955   7.452  0.7259  0.0802  0.0183
  157MOL0     H21186   8.721   0.924   7.607 -2.3730 -2.5297 -0.1455
  157MOL0     H21187   8.440   0.983   7.580 -1.5738  3.9419 -1.9094
  157MOL0     H21188   8.500   1.138   7.587 -3.0225 -0.7231  0.4063
  157MOL0     H21189   8.573   1.128   7.805  0.5664  0.4476 -1.7123
  157MOL0     H21190   8.606   0.943   7.797 -0.4566 -0.7050  0.1988
  157MOL0     H21191   8.387   0.900   7.850  0.0095 -0.1053  4.4987
  157MOL0     H21192   8.329   1.064   7.783 -0.9696 -0.4339  0.6772
  157MOL0     H21193   8.389   1.163   8.182  1.8673  2.3126 -0.1714
  157MOL0     H21194   8.915   1.295   7.469 -0.5688  0.0146 -0.9685
  157MOL0     H21195   9.143   1.272   7.373 -0.1004  1.6060  1.1038
  158MOL0     O21196   7.054   8.854   9.592  0.0088  0.5783  0.7636
  158MOL0     C21197   7.124   8.860   9.490 -0.9246  0.6892  0.0046
  158MOL0     O21198   7.249   8.807   9.479  0.2261 -0.1019 -0.6269
  158MOL0     C21199   7.273   8.688   9.536 -0.5367 -0.0120 -0.7028
  158MOL0     C21200   7.184   8.576   9.529 -0.0848  0.7539  0.1757
  158MOL0     C21201   7.230   8.453   9.572 -0.2186  0.6744 -0.0003
  158MOL0     C21202   7.343   8.431   9.647  0.1076 -0.1500  0.1692
  158MOL0     O21203   7.369   8.302   9.678 -0.5100 -0.4892 -0.2859
  158MOL0     C21204   7.481   8.272   9.761 -0.4408 -0.2894  0.2672
  158MOL0     C21205   7.505   8.110   9.755 -0.3082 -0.5601  0.2661
  158MOL0     C21206   7.628   8.081   9.847  0.1358 -0.0447  0.3519
  158MOL0     C21207   7.762   8.102   9.765 -0.1268 -0.3044  0.1971
  158MOL0     C21208   7.893   8.036   9.804  0.9384  0.1540  0.3983
  158MOL0     C21209   8.008   8.104   9.724  0.1280 -0.0207  0.2148
  158MOL0     C21210   8.143   8.057   9.783  0.0237  0.6993  0.8737
  158MOL0     C21211   8.207   8.162   9.877  0.5696  0.2914  0.0821
  158MOL0     N21212   8.267   8.272   9.794  0.1488 -0.3273  0.1019
  158MOL0     C21213   8.394   8.329   9.806 -0.0045  0.1931  0.3475
  158MOL0     C21214   8.410   8.425   9.720  0.5062 -0.3140  0.1667
  158MOL0     C21215   8.542   8.484   9.677 -0.4070  0.4907  0.0694
  158MOL0     C21216   8.552   8.624   9.741  0.6730  0.3569  0.9765
  158MOL0     C21217   8.445   8.718   9.673  0.1181  0.5556  0.0762
  158MOL0     C21218   8.488   8.858   9.686  0.4311  0.5752 -0.1670
  158MOL0     O21219   8.384   8.948   9.632  0.2321  0.1601  0.2521
  158MOL0     C21220   8.387   9.084   9.680 -0.2511  0.8723  0.3088
  158MOL0     C21221   8.266   9.156   9.681 -0.3676 -0.4937  0.0482
  158MOL0     C21222   8.254   9.289   9.727  1.3236  0.2898 -0.2395
  158MOL0     C21223   8.115   9.346   9.742 -0.0285 -0.4095  0.1552
  158MOL0     C21224   8.371   9.359   9.777  0.1674 -0.1019  0.3916
  158MOL0     C21225   8.383   9.497   9.842  0.8329  0.1814  0.4098
  158MOL0     O21226   8.268   9.573   9.850  0.2301  0.2941 -0.4975
  158MOL0     C21227   8.258   9.700   9.902  0.3007 -0.2085 -0.3827
  158MOL0     C21228   8.298   9.814   9.819  0.9238 -0.2737 -0.4242
  158MOL0     C21229   8.278   9.936   9.873  0.9652 -0.5698 -0.0005
  158MOL0     C21230   8.234   9.957  10.005  0.1574 -0.3411  0.3498
  158MOL0     O21231   8.220  10.080  10.051  0.5855 -0.3969 -0.5863
  158MOL0     C21232   8.267  10.197   9.977  1.4021  0.1202 -0.2262
  158MOL0     C21233   8.247  10.319  10.068 -0.0186  0.0797  0.3822
  158MOL0     C21234   8.103  10.352  10.080  0.2270  0.7505  0.1265
  158MOL0     C21235   8.069  10.491  10.115 -0.5071  1.0317  0.3031
  158MOL0     C21236   7.923  10.515  10.117  0.1142 -0.0039 -0.3584
  158MOL0     C21237   7.899  10.647  10.174 -0.4229  0.1637  0.5074
  158MOL0     C21238   7.851  10.650  10.319  0.2503  0.2769  0.6643
  158MOL0     C21239   7.743  10.549  10.368 -0.0011  0.2998 -0.6912
  158MOL0    Cl21240   7.800  10.384  10.428 -0.2538  0.5743  0.0351
  158MOL0     C21241   8.188   9.852  10.082 -0.5205 -0.3874  0.0411
  158MOL0     C21242   8.211   9.718  10.032 -0.2944  0.0995 -0.3778
  158MOL0     O21243   8.500   9.538   9.879  0.2172  0.4925  0.1635
  158MOL0     C21244   8.493   9.288   9.760  0.1225  0.2381  0.0996
  158MOL0     C21245   8.503   9.157   9.714  0.6347 -0.3259 -0.0329
  158MOL0     N21246   8.277   8.448   9.671  0.2835 -0.3009 -0.0326
  158MOL0     N21247   8.197   8.359   9.719 -0.8539 -0.0194 -0.5525
  158MOL0     C21248   7.434   8.545   9.654 -0.4804  1.2265 -0.3509
  158MOL0     C21249   7.403   8.676   9.598 -0.1261 -0.0843 -1.2215
  158MOL0     C21250   7.081   8.940   9.377 -0.2419  0.3109  0.0735
  158MOL0     C21251   7.119   8.896   9.250 -0.1542  1.3689 -0.8411
  158MOL0     C21252   7.073   8.958   9.137 -0.0161  0.4840 -0.0784
  158MOL0     C21253   6.965   9.043   9.148  0.5355  0.4008  0.2459
  158MOL0     O21254   6.908   9.085   9.028 -0.0521 -0.7177 -0.9705
  158MOL0     C21255   6.770   9.122   9.044 -0.2518  0.4126 -0.4031
  158MOL0     C21256   6.675   9.145   8.920 -0.7506 -0.5456  0.1853
  158MOL0     C21257   6.670   9.032   8.828 -0.2998  0.7798 -0.1267
  158MOL0     C21258   6.609   9.082   8.691  0.1065 -0.0192  0.8718
  158MOL0     C21259   6.589   8.977   8.594 -0.3845  0.2745  0.1095
  158MOL0     C21260   6.580   8.882   8.518 -0.2171 -0.8351  0.6503
  158MOL0     C21261   6.912   9.083   9.272 -0.2692 -0.6258  0.0081
  158MOL0     C21262   6.987   9.045   9.390 -0.1026  0.3579  0.7546
  158MOL0     H21263   7.089   8.575   9.477 -1.0256 -1.2736  1.8059
  158MOL0     H21264   7.155   8.375   9.568 -0.8699  1.2814  0.1962
  158MOL0     H21265   7.569   8.317   9.714 -0.1781 -4.1759 -3.6622
  158MOL0     H21266   7.486   8.310   9.863  3.7631 -0.2059  0.2052
  158MOL0     H21267   7.416   8.050   9.775  0.1793 -1.2743  0.3131
  158MOL0     H21268   7.536   8.101   9.650  1.3860  1.7089  0.4865
  158MOL0     H21269   7.622   8.136   9.941 -1.5161 -1.4329  1.1124
  158MOL0     H21270   7.623   7.976   9.877 -1.0526  0.4598  2.0683
  158MOL0     H21271   7.758   8.090   9.656  0.5972  2.2781 -0.1842
  158MOL0     H21272   7.784   8.209   9.775  0.3078 -0.3041 -0.6513
  158MOL0     H21273   7.900   8.055   9.912  0.4012  0.0346  0.4589
  158MOL0     H21274   7.892   7.929   9.782 -3.0839  0.4438 -1.8914
  158MOL0     H21275   8.008   8.082   9.617  1.3400 -0.4124  0.2769
  158MOL0     H21276   7.991   8.210   9.746 -4.0368 -0.1570 -1.3577
  158MOL0     H21277   8.134   7.963   9.837 -0.9455 -0.1290 -0.6371
  158MOL0     H21278   8.217   8.048   9.702  0.7340  3.4129  1.1483
  158MOL0     H21279   8.285   8.123   9.943  1.1180  2.4010  0.7544
  158MOL0     H21280   8.134   8.219   9.935  0.1790  0.4329 -0.5363
  158MOL0     H21281   8.469   8.286   9.872 -1.1596  0.7403  2.0883
  158MOL0     H21282   8.621   8.415   9.710  1.4705  2.9457  0.9795
  158MOL0     H21283   8.552   8.502   9.570 -1.0017  3.0389  0.3864
  158MOL0     H21284   8.656   8.657   9.727 -0.5958  3.9082 -1.3186
  158MOL0     H21285   8.534   8.617   9.849  0.7112 -2.4611  0.8860
  158MOL0     H21286   8.349   8.701   9.722 -0.3248  0.9943 -0.6209
  158MOL0     H21287   8.434   8.683   9.570  2.5936 -2.3075  0.6245
  158MOL0     H21288   8.588   8.874   9.645  0.8531 -0.0948  0.5709
  158MOL0     H21289   8.499   8.879   9.793  1.9313 -0.4353 -0.0981
  158MOL0     H21290   8.173   9.102   9.666  1.4042 -3.4828 -1.2133
  158MOL0     H21291   8.075   9.322   9.841 -1.4310  0.3121 -0.2211
  158MOL0     H21292   8.113   9.455   9.730 -2.2700 -0.2969  1.0336
  158MOL0     H21293   8.030   9.317   9.681 -1.4020  4.1296 -0.4580
  158MOL0     H21294   8.329   9.794   9.717  2.7218 -1.2334  0.2576
  158MOL0     H21295   8.277  10.015   9.799 -2.1636 -1.2927 -0.8879
  158MOL0     H21296   8.372  10.187   9.949  1.2605 -3.1993  0.0877
  158MOL0     H21297   8.216  10.215   9.883  2.1514 -1.2046 -0.9154
  158MOL0     H21298   8.302  10.293  10.160  1.1694 -1.5786 -0.7353
  158MOL0     H21299   8.278  10.409  10.014 -0.2619 -2.4451 -4.5627
  158MOL0     H21300   8.066  10.284  10.157  0.2701  1.4527  0.7814
  158MOL0     H21301   8.056  10.325   9.986  1.9477 -3.4983  0.2591
  158MOL0     H21302   8.096  10.495  10.221 -0.7839 -1.7921  0.5389
  158MOL0     H21303   8.127  10.564  10.056 -0.3413  0.5435 -0.1420
  158MOL0     H21304   7.856  10.448  10.173  0.0146  0.1417 -0.3006
  158MOL0     H21305   7.877  10.500  10.019 -1.6392 -3.8605  0.8314
  158MOL0     H21306   7.985  10.709  10.148 -0.1622 -0.9606 -1.5852
  158MOL0     H21307   7.824  10.690  10.106  1.5823  2.3997 -0.4445
  158MOL0     H21308   7.830  10.752  10.352  1.0904  0.0546  1.9389
  158MOL0     H21309   7.949  10.628  10.361  0.7881  1.9404  0.3246
  158MOL0     H21310   7.661  10.536  10.297 -2.0886  3.9583  0.7696
  158MOL0     H21311   7.702  10.611  10.449  0.3152 -1.8319  1.2172
  158MOL0     H21312   8.145   9.860  10.181 -1.0299  2.3469 -0.3289
  158MOL0     H21313   8.194   9.633  10.097  1.1812  0.2467  0.2316
  158MOL0     H21314   8.591   9.324   9.792  2.0610 -4.0236 -0.2809
  158MOL0     H21315   8.603   9.116   9.717  0.9335  0.4246  0.4288
  158MOL0     H21316   7.535   8.536   9.693 -0.2938  1.4738 -0.7617
  158MOL0     H21317   7.481   8.751   9.596 -1.1045  1.0318  0.3149
  158MOL0     H21318   7.185   8.811   9.232 -1.2593  0.5167 -0.9464
  158MOL0     H21319   7.091   8.923   9.036  2.6898 -1.8014  1.0786
  158MOL0     H21320   6.728   9.048   9.113  1.6785  0.7997  1.2926
  158MOL0     H21321   6.767   9.221   9.091 -0.9184  1.2962 -2.2198
  158MOL0     H21322   6.709   9.237   8.872  1.3739 -1.2528  0.1953
  158MOL0     H21323   6.576   9.158   8.963 -0.9394 -2.2379  0.3641
  158MOL0     H21324   6.616   8.945   8.867 -0.9319  0.3592 -1.8347
  158MOL0     H21325   6.773   9.001   8.811 -0.7588 -0.8003 -0.1122
  158MOL0     H21326   6.668   9.158   8.640 -2.2760  1.3130 -0.0542
  158MOL0     H21327   6.509   9.126   8.700 -0.2009 -0.3442 -0.6983
  158MOL0     H21328   6.559   8.808   8.443 -3.2826  1.7517 -1.3248
  158MOL0     H21329   6.829   9.150   9.289  0.7299  0.6236  0.1481
  158MOL0     H21330   6.956   9.079   9.488 -3.3738  1.8646 -0.6596
  159MOL0     O21331   8.633   6.391   7.379 -0.6256 -0.0158  0.0539
  159MOL0     C21332   8.632   6.477   7.465  0.2171  0.0370  0.5176
  159MOL0     O21333   8.530   6.503   7.547 -0.8539 -0.7176 -0.0292
  159MOL0     C21334   8.414   6.429   7.548 -0.4643  0.9071 -0.7785
  159MOL0     C21335   8.290   6.485   7.580  0.1915 -0.3661 -0.1184
  159MOL0     C21336   8.166   6.420   7.593 -0.4114 -0.1989 -0.9872
  159MOL0     C21337   8.168   6.281   7.566  0.7035 -1.5923  0.2450
  159MOL0     O21338   8.042   6.231   7.565  0.2302  0.1147 -0.4732
  159MOL0     C21339   7.989   6.144   7.458 -1.2162  0.0456  0.1696
  159MOL0     C21340   7.847   6.189   7.411  0.0437  0.3985  0.5435
  159MOL0     C21341   7.742   6.180   7.519  0.1211 -0.1504  0.2297
  159MOL0     C21342   7.604   6.226   7.477  0.0845 -1.0290  0.8383
  159MOL0     C21343   7.503   6.203   7.591 -0.0667  0.4770  0.3459
  159MOL0     C21344   7.507   6.327   7.685  0.5798 -0.4593  0.4439
  159MOL0     C21345   7.408   6.302   7.791  1.0907  1.0612 -0.6003
  159MOL0     C21346   7.416   6.402   7.907 -0.5810  0.2749 -1.0620
  159MOL0     N21347   7.322   6.366   8.023 -0.6514  0.3406 -0.4872
  159MOL0     C21348   7.186   6.322   8.006  0.1897  0.7651  0.2916
  159MOL0     C21349   7.139   6.330   8.132  0.3000 -0.0842  0.3578
  159MOL0     C21350   6.998   6.293   8.172 -0.7814  0.1089  0.5858
  159MOL0     C21351   6.918   6.404   8.241  0.1487 -0.3477  0.9166
  159MOL0     C21352   6.795   6.345   8.313  0.3909 -0.0840  0.0012
  159MOL0     C21353   6.689   6.273   8.212 -0.1349 -0.4985 -0.8089
  159MOL0     O21354   6.727   6.145   8.156  0.4794  0.4772 -0.0111
  159MOL0     C21355   6.642   6.075   8.066  0.1045 -0.0508 -0.8101
  159MOL0     C21356   6.525   6.128   8.001 -0.4583 -0.0855 -0.0125
  159MOL0     C21357   6.449   6.051   7.915 -0.3181  0.4772  0.3968
  159MOL0     C21358   6.338   6.128   7.844  0.2054  0.5686  0.0831
  159MOL0     C21359   6.488   5.917   7.886 -0.3756 -0.3797  0.2305
  159MOL0     C21360   6.405   5.826   7.794  0.7597  0.2663  0.5540
  159MOL0     O21361   6.287   5.876   7.743 -0.2899 -0.1492  0.2006
  159MOL0     C21362   6.171   5.801   7.711  0.1686 -0.0458 -0.3506
  159MOL0     C21363   6.065   5.868   7.654  0.4158 -0.5012  0.6539
  159MOL0     C21364   5.941   5.810   7.622  0.1962 -0.1835  0.0321
  159MOL0     C21365   5.930   5.670   7.638 -0.0886  0.2767  0.0850
  159MOL0     O21366   5.806   5.616   7.596 -0.2183  0.2018  0.6194
  159MOL0     C21367   5.768   5.477   7.614 -0.1301 -0.3266  1.0349
  159MOL0     C21368   5.652   5.459   7.529  0.6262  0.4362  0.8262
  159MOL0     C21369   5.526   5.511   7.593  0.6862  0.2376 -0.4698
  159MOL0     C21370   5.388   5.482   7.532  0.8672 -0.0044  0.1348
  159MOL0     C21371   5.280   5.575   7.584 -0.5937  0.0710  0.4745
  159MOL0     C21372   5.139   5.556   7.519  0.2164  0.2135  0.0830
  159MOL0     C21373   5.049   5.673   7.567  0.5382 -0.6368 -0.1919
  159MOL0     C21374   4.903   5.677   7.511  0.2694 -0.7545 -0.0765
  159MOL0    Cl21375   4.817   5.531   7.539  0.3065  0.3338 -0.0123
  159MOL0     C21376   6.034   5.597   7.695 -0.6840  0.3946 -1.1633
  159MOL0     C21377   6.157   5.660   7.735 -0.8707  0.1047 -0.3967
  159MOL0     O21378   6.444   5.708   7.785  0.6301 -0.3604 -0.3034
  159MOL0     C21379   6.605   5.859   7.945 -0.0136 -0.1094  0.1761
  159MOL0     C21380   6.677   5.941   8.044  0.3515  0.5412 -0.0843
  159MOL0     N21381   7.249   6.363   8.218  0.1796  0.3705 -0.0201
  159MOL0     N21382   7.356   6.384   8.150  0.0783  0.2593 -0.0457
  159MOL0     C21383   8.288   6.212   7.526  0.3564  0.0550 -1.3857
  159MOL0     C21384   8.413   6.280   7.520  0.5692 -0.5854 -0.1620
  159MOL0     C21385   8.747   6.563   7.462 -0.5077  0.3155  0.2768
  159MOL0     C21386   8.752   6.675   7.552 -0.1452 -0.4010  0.6435
  159MOL0     C21387   8.871   6.747   7.559 -0.5088 -0.2466 -0.2400
  159MOL0     C21388   8.980   6.724   7.476  1.1592 -0.9081  0.9347
  159MOL0     O21389   9.087   6.815   7.482 -0.3101 -0.3606 -0.5543
  159MOL0     C21390   9.088   6.931   7.571 -0.1019 -0.1474  0.0745
  159MOL0     C21391   9.231   7.000   7.586 -0.2014 -0.0842  0.2342
  159MOL0     C21392   9.320   6.917   7.679  0.6754  0.0346 -0.3697
  159MOL0     C21393   9.426   6.997   7.744  0.5452 -0.7749 -0.2804
  159MOL0     C21394   9.510   6.919   7.840  0.8079 -0.0394  0.3283
  159MOL0     C21395   9.585   6.861   7.915  0.6116  0.4775 -0.1976
  159MOL0     C21396   8.969   6.617   7.386 -0.8949 -0.1655  0.3009
  159MOL0     C21397   8.860   6.533   7.382  0.0073  0.2400 -0.5872
  159MOL0     H21398   8.285   6.592   7.596 -1.2319  0.2838 -3.7436
  159MOL0     H21399   8.078   6.479   7.618  0.3096  1.9415 -3.1070
  159MOL0     H21400   8.054   6.159   7.371 -2.3813 -1.5537 -1.0373
  159MOL0     H21401   7.988   6.038   7.483  0.1924 -0.2360 -0.8450
  159MOL0     H21402   7.856   6.293   7.378 -1.8796  0.4217 -0.0349
  159MOL0     H21403   7.816   6.137   7.320 -4.4906  1.9422  0.9194
  159MOL0     H21404   7.742   6.076   7.552 -0.2198  0.2122  1.4496
  159MOL0     H21405   7.770   6.249   7.600  1.4210  0.6669 -0.8905
  159MOL0     H21406   7.613   6.333   7.456  0.6475 -1.0324  1.0410
  159MOL0     H21407   7.572   6.170   7.389 -1.5377 -0.3531  0.9591
  159MOL0     H21408   7.403   6.186   7.550  0.1955  0.6918 -0.4036
  159MOL0     H21409   7.530   6.116   7.651 -2.8055  0.8626  2.3342
  159MOL0     H21410   7.604   6.326   7.735  1.3491 -2.2720 -0.9890
  159MOL0     H21411   7.467   6.415   7.633 -4.2879  0.4772  4.9922
  159MOL0     H21412   7.302   6.291   7.765  0.8908  1.0122  0.2173
  159MOL0     H21413   7.426   6.203   7.833  0.5489  1.0324 -0.4267
  159MOL0     H21414   7.383   6.502   7.876  1.1203  2.6971  3.8539
  159MOL0     H21415   7.517   6.419   7.946 -0.5149 -1.1371 -0.5631
  159MOL0     H21416   7.143   6.301   7.909  2.2373 -0.3426 -0.4282
  159MOL0     H21417   6.939   6.260   8.086  1.3944  0.7561 -1.2727
  159MOL0     H21418   7.017   6.210   8.240 -2.7632  0.8151  2.0840
  159MOL0     H21419   6.891   6.480   8.167  3.0939 -0.2206 -0.1546
  159MOL0     H21420   6.986   6.455   8.310  1.0673 -4.0446  2.9996
  159MOL0     H21421   6.733   6.423   8.358 -0.0634  1.3484 -2.8339
  159MOL0     H21422   6.823   6.282   8.397  1.1615  0.8763  0.4919
  159MOL0     H21423   6.648   6.344   8.141  0.2488  0.9684  0.3882
  159MOL0     H21424   6.602   6.241   8.270 -0.2294  0.0578 -0.6434
  159MOL0     H21425   6.504   6.231   8.027  0.2468 -0.1858  1.0536
  159MOL0     H21426   6.245   6.075   7.866 -0.7738  2.2354  0.1198
  159MOL0     H21427   6.324   6.226   7.890 -2.7350  0.0706  0.4667
  159MOL0     H21428   6.350   6.131   7.735 -0.1323 -0.4933  0.0040
  159MOL0     H21429   6.089   5.972   7.635  0.7776 -1.0369 -2.4385
  159MOL0     H21430   5.857   5.861   7.576  1.4911  2.6269  0.5868
  159MOL0     H21431   5.844   5.410   7.572 -1.4472 -0.0445 -2.0287
  159MOL0     H21432   5.734   5.467   7.718 -1.0604 -0.5417  0.7078
  159MOL0     H21433   5.665   5.489   7.424  2.0299  1.5710  1.2929
  159MOL0     H21434   5.632   5.352   7.538 -1.5152  0.5574 -1.3560
  159MOL0     H21435   5.530   5.620   7.601  0.5431  0.1103  2.1178
  159MOL0     H21436   5.524   5.472   7.695  0.3432 -3.3380 -1.7217
  159MOL0     H21437   5.395   5.498   7.425 -2.7292  1.9547  0.0371
  159MOL0     H21438   5.359   5.379   7.556 -1.6702  0.6927  0.3145
  159MOL0     H21439   5.320   5.676   7.571  1.1159 -0.7465 -1.0008
  159MOL0     H21440   5.284   5.564   7.693 -0.8324 -0.4513  0.4309
  159MOL0     H21441   5.142   5.561   7.410 -0.8351 -0.4338  0.0097
  159MOL0     H21442   5.091   5.460   7.541  1.6627 -0.5885 -0.1060
  159MOL0     H21443   5.096   5.764   7.527  0.4654 -0.5072  0.0149
  159MOL0     H21444   5.037   5.685   7.675 -1.8724  1.3103 -0.5808
  159MOL0     H21445   4.900   5.695   7.403  0.9322  0.9193  0.1537
  159MOL0     H21446   4.844   5.762   7.548 -0.4548 -1.4726  0.4445
  159MOL0     H21447   6.022   5.492   7.720 -2.0246  1.3843  3.2582
  159MOL0     H21448   6.228   5.596   7.787  0.6671 -0.6426 -3.2235
  159MOL0     H21449   6.646   5.764   7.911  0.3567  0.5014 -1.1595
  159MOL0     H21450   6.763   5.908   8.101 -1.6302 -0.5515  2.4948
  159MOL0     H21451   8.282   6.105   7.511 -0.4578 -0.4949  2.0199
  159MOL0     H21452   8.503   6.229   7.488  0.7055 -0.3304 -0.1923
  159MOL0     H21453   8.665   6.684   7.616 -0.0060 -0.7727  0.8902
  159MOL0     H21454   8.882   6.827   7.632 -0.7479 -1.1657  0.8366
  159MOL0     H21455   9.018   7.005   7.531 -0.1164  1.0932  2.1941
  159MOL0     H21456   9.048   6.900   7.668 -2.5407 -3.3191 -1.7504
  159MOL0     H21457   9.215   7.099   7.629 -1.0341  0.0148 -0.2855
  159MOL0     H21458   9.272   7.007   7.485  1.2668 -3.2531  0.4784
  159MOL0     H21459   9.361   6.836   7.618  0.5422 -2.2020  2.3159
  159MOL0     H21460   9.261   6.860   7.750  1.0447  0.0391 -0.0543
  159MOL0     H21461   9.384   7.083   7.797 -0.0087 -2.4628  2.2283
  159MOL0     H21462   9.485   7.040   7.663 -0.9486  1.7042 -0.1511
  159MOL0     H21463   9.644   6.817   7.993 -1.0231 -0.9871  0.2770
  159MOL0     H21464   9.057   6.592   7.327 -1.0313 -0.5271  0.2504
  159MOL0     H21465   8.861   6.449   7.313 -0.8100 -3.3592  3.3541
  160MOL0     O21466   6.503   5.057   9.379 -0.1165 -0.0770 -0.9547
  160MOL0     C21467   6.471   4.942   9.343 -0.5359  0.1496 -0.4115
  160MOL0     O21468   6.356   4.883   9.378  0.3421 -0.0431 -1.0450
  160MOL0     C21469   6.258   4.947   9.450  0.0147 -0.2577  0.3874
  160MOL0     C21470   6.127   4.928   9.397  0.4747 -0.4631 -0.2351
  160MOL0     C21471   6.016   4.987   9.458  1.1867  0.9913 -0.3968
  160MOL0     C21472   6.028   5.062   9.574  0.3320 -0.6942 -1.1231
  160MOL0     O21473   5.910   5.080   9.649  0.6898 -0.2022  0.2627
  160MOL0     C21474   5.890   5.189   9.737  0.4457 -0.5130  0.1962
  160MOL0     C21475   5.746   5.199   9.767 -0.0855 -0.6168 -0.4597
  160MOL0     C21476   5.666   5.285   9.667  0.2640 -0.6333  0.5592
  160MOL0     C21477   5.676   5.242   9.523 -0.8663 -0.5146 -0.7072
  160MOL0     C21478   5.593   5.301   9.417  0.8568 -0.1144  1.5984
  160MOL0     C21479   5.609   5.220   9.285  0.3840 -0.5024  0.8305
  160MOL0     C21480   5.527   5.275   9.162  0.1400  0.3812  0.1251
  160MOL0     C21481   5.592   5.411   9.111 -0.7563  0.3389  0.4989
  160MOL0     N21482   5.545   5.452   8.978  0.4258  0.3035 -0.4536
  160MOL0     C21483   5.448   5.541   8.961 -0.4711  0.5728  0.6009
  160MOL0     C21484   5.440   5.569   8.825  0.7453  0.1740  0.3694
  160MOL0     C21485   5.357   5.672   8.751  0.1099  0.0062 -0.0670
  160MOL0     C21486   5.254   5.617   8.653  0.4334  0.7024  0.7056
  160MOL0     C21487   5.150   5.539   8.743  0.1662 -0.3291  0.3201
  160MOL0     C21488   5.030   5.496   8.672 -0.2139  0.1429  0.8043
  160MOL0     O21489   4.948   5.606   8.626 -1.0814  0.2493  0.3125
  160MOL0     C21490   4.843   5.585   8.540 -0.0860 -0.1397 -0.4703
  160MOL0     C21491   4.782   5.693   8.482 -0.1687  0.0351  1.1110
  160MOL0     C21492   4.676   5.674   8.391 -0.0120  0.7268  0.3657
  160MOL0     C21493   4.616   5.797   8.324 -0.4559 -0.9152 -0.2028
  160MOL0     C21494   4.638   5.537   8.360  0.5759  0.0449 -0.0140
  160MOL0     C21495   4.512   5.503   8.278 -0.1146  0.5530 -0.4680
  160MOL0     O21496   4.437   5.613   8.231  0.1138 -0.2816  0.2307
  160MOL0     C21497   4.320   5.607   8.154 -0.0709 -0.0554  0.9599
  160MOL0     C21498   4.272   5.490   8.085 -0.4034 -0.5984  0.3855
  160MOL0     C21499   4.159   5.513   8.005 -0.2319  0.0287  0.5988
  160MOL0     C21500   4.111   5.638   7.975 -0.1877  0.1149  0.0081
  160MOL0     O21501   4.022   5.648   7.876 -0.2435  0.7095  0.3029
  160MOL0     C21502   3.946   5.767   7.862  0.8019  0.2243  0.8158
  160MOL0     C21503   3.844   5.744   7.748 -0.0757  0.1794  0.3138
  160MOL0     C21504   3.903   5.709   7.604  0.4930 -0.3987  0.0071
  160MOL0     C21505   3.806   5.728   7.491 -0.2822  0.4415  0.1554
  160MOL0     C21506   3.865   5.761   7.351  0.5454  0.3306 -0.2033
  160MOL0     C21507   3.985   5.677   7.317 -0.9807  0.3493  0.1790
  160MOL0     C21508   4.030   5.689   7.173  0.2122  0.7170  0.5036
  160MOL0     C21509   4.152   5.602   7.156  0.2457  0.3203  0.1649
  160MOL0    Cl21510   4.122   5.427   7.177 -0.3389 -0.1400  0.1740
  160MOL0     C21511   4.166   5.750   8.039 -0.2405 -0.1111 -0.0082
  160MOL0     C21512   4.268   5.738   8.127 -0.5795 -0.4772 -0.4602
  160MOL0     O21513   4.487   5.380   8.267  0.5282 -0.7008 -0.0226
  160MOL0     C21514   4.705   5.429   8.423  0.3379  0.2583  0.2085
  160MOL0     C21515   4.812   5.449   8.509  0.7278  0.8548 -1.6500
  160MOL0     N21516   5.549   5.503   8.771  0.3838 -0.4814  0.6592
  160MOL0     N21517   5.604   5.437   8.859 -0.4941  0.3862 -0.6498
  160MOL0     C21518   6.163   5.084   9.635  0.9709  0.0315  0.4178
  160MOL0     C21519   6.271   5.030   9.568  0.1689  0.0434  0.5221
  160MOL0     C21520   6.580   4.865   9.255  1.4575  0.5209 -0.7791
  160MOL0     C21521   6.538   4.747   9.182  0.1518  1.1176  0.3063
  160MOL0     C21522   6.631   4.665   9.107 -0.1873 -0.3716 -0.5638
  160MOL0     C21523   6.764   4.700   9.107  0.3972  0.4763  0.8562
  160MOL0     O21524   6.833   4.612   9.036 -0.0951  0.0538  0.2905
  160MOL0     C21525   6.969   4.643   9.002 -0.2028  0.5069 -0.9958
  160MOL0     C21526   7.085   4.578   9.095  0.0811 -0.0818 -0.0337
  160MOL0     C21527   7.046   4.463   9.191 -0.5587 -0.2426 -0.6995
  160MOL0     C21528   7.155   4.406   9.269  0.1104 -0.6051 -0.8379
  160MOL0     C21529   7.260   4.354   9.181 -0.3047 -0.1020  0.5082
  160MOL0     C21530   7.341   4.321   9.095 -0.5802 -0.7638 -0.1436
  160MOL0     C21531   6.805   4.806   9.180  0.1379 -0.2361  0.1455
  160MOL0     C21532   6.714   4.891   9.252  1.0570  0.1810  0.3324
  160MOL0     H21533   6.110   4.854   9.320 -1.4644 -1.9992  1.5536
  160MOL0     H21534   5.913   4.970   9.429  0.8712 -2.0449  1.9695
  160MOL0     H21535   5.940   5.163   9.830 -1.2647 -0.2522  1.2305
  160MOL0     H21536   5.932   5.281   9.696 -0.4899 -0.3672 -0.4887
  160MOL0     H21537   5.705   5.098   9.777  3.9408 -2.2712  2.0338
  160MOL0     H21538   5.723   5.237   9.866 -1.2720  1.2866 -1.4137
  160MOL0     H21539   5.559   5.283   9.693  0.1485  1.3233  0.3918
  160MOL0     H21540   5.702   5.388   9.674  1.6640 -0.7442 -2.8165
  160MOL0     H21541   5.780   5.262   9.496 -0.4240 -0.1342  1.1798
  160MOL0     H21542   5.648   5.137   9.518 -0.4148 -0.7257  0.7388
  160MOL0     H21543   5.486   5.291   9.436  0.8404 -0.7283  1.2291
  160MOL0     H21544   5.616   5.405   9.394  0.9655 -0.4101  0.2816
  160MOL0     H21545   5.711   5.223   9.244  0.3215  0.4150  0.7374
  160MOL0     H21546   5.587   5.115   9.306 -1.8018  0.1262  1.9141
  160MOL0     H21547   5.507   5.195   9.091 -1.4029  0.0993  0.8413
  160MOL0     H21548   5.427   5.300   9.200 -1.4019 -3.0146 -1.2773
  160MOL0     H21549   5.700   5.396   9.108 -0.6566  1.0983 -0.0096
  160MOL0     H21550   5.578   5.483   9.192 -0.7670 -2.0868  2.7545
  160MOL0     H21551   5.384   5.577   9.042 -0.6648 -1.3498  1.3546
  160MOL0     H21552   5.309   5.740   8.822 -2.8201 -0.4532 -1.4237
  160MOL0     H21553   5.431   5.734   8.700  2.7713 -0.2715  3.1530
  160MOL0     H21554   5.301   5.551   8.580 -1.5182  0.3410 -0.2846
  160MOL0     H21555   5.203   5.697   8.598  1.5092  1.5149  0.8377
  160MOL0     H21556   5.124   5.607   8.825 -0.4315 -0.1296 -0.0259
  160MOL0     H21557   5.189   5.446   8.785 -1.6656 -0.9295  0.7695
  160MOL0     H21558   4.968   5.428   8.732 -1.0941  1.1624  1.0693
  160MOL0     H21559   5.074   5.435   8.592  0.6964  0.1765  1.2700
  160MOL0     H21560   4.829   5.784   8.518 -2.7070  1.6373  0.6396
  160MOL0     H21561   4.509   5.810   8.345 -0.3555  0.5840 -0.5264
  160MOL0     H21562   4.661   5.891   8.358 -0.8788 -0.4640 -0.8591
  160MOL0     H21563   4.644   5.808   8.219  0.2033 -1.1278 -0.0543
  160MOL0     H21564   4.302   5.387   8.102  3.7735 -0.1156 -2.6475
  160MOL0     H21565   4.116   5.425   7.957  0.4068 -0.2423  0.5115
  160MOL0     H21566   3.893   5.782   7.956 -3.6869  1.5555 -1.6516
  160MOL0     H21567   4.008   5.856   7.842  3.2710 -1.6244 -0.2367
  160MOL0     H21568   3.764   5.681   7.788  0.0798  1.4080  2.7203
  160MOL0     H21569   3.788   5.836   7.729 -5.0645 -2.5184  0.0900
  160MOL0     H21570   3.922   5.601   7.604 -0.4708 -0.5783 -0.1063
  160MOL0     H21571   3.995   5.767   7.595  0.3831  0.2425  2.3392
  160MOL0     H21572   3.750   5.635   7.475 -0.5079 -0.2848  4.2127
  160MOL0     H21573   3.735   5.800   7.531 -0.9003 -0.4744  0.7345
  160MOL0     H21574   3.887   5.868   7.345 -3.0269  1.1147 -4.0023
  160MOL0     H21575   3.784   5.743   7.280 -1.0358 -1.1944  1.8792
  160MOL0     H21576   4.071   5.696   7.381  2.6342 -3.2298 -3.0683
  160MOL0     H21577   3.955   5.572   7.324 -3.2056  0.9281  0.0598
  160MOL0     H21578   4.040   5.794   7.143 -1.4360  1.8570  3.4850
  160MOL0     H21579   3.953   5.646   7.109  0.2341 -1.3858  1.7908
  160MOL0     H21580   4.225   5.619   7.237  0.4639  3.1693 -0.5284
  160MOL0     H21581   4.197   5.625   7.059 -1.4753  0.5019 -0.6204
  160MOL0     H21582   4.142   5.851   8.008  0.0603  0.8589  2.6846
  160MOL0     H21583   4.309   5.823   8.181 -1.2682 -2.5164  3.6596
  160MOL0     H21584   4.674   5.326   8.409 -0.4398  0.6131 -0.8640
  160MOL0     H21585   4.843   5.363   8.567 -1.7687  2.2490  2.1579
  160MOL0     H21586   6.163   5.137   9.729  0.4158 -1.5549  1.3512
  160MOL0     H21587   6.372   5.039   9.606 -0.2824  1.7900  1.4265
  160MOL0     H21588   6.434   4.717   9.181 -0.0355  1.7499 -0.1426
  160MOL0     H21589   6.595   4.578   9.053  0.7518 -0.7440 -0.6095
  160MOL0     H21590   6.983   4.597   8.903 -1.0091 -2.8309  0.3017
  160MOL0     H21591   6.974   4.752   8.992  0.7845  0.4784 -0.8835
  160MOL0     H21592   7.134   4.654   9.157 -1.9801  1.3494 -0.0536
  160MOL0     H21593   7.164   4.544   9.028 -0.4171  0.6409 -1.0139
  160MOL0     H21594   6.988   4.385   9.140  2.4362 -2.0286 -1.6455
  160MOL0     H21595   6.980   4.509   9.266 -1.1014 -0.6662 -0.9052
  160MOL0     H21596   7.127   4.327   9.340  1.9578  0.3730  1.0904
  160MOL0     H21597   7.204   4.484   9.328  1.9801 -1.2308 -1.4848
  160MOL0     H21598   7.395   4.278   9.013  0.4429 -1.0249  0.6388
  160MOL0     H21599   6.909   4.839   9.183 -0.3217  1.5808 -1.9870
  160MOL0     H21600   6.745   4.978   9.309  1.1045  0.8795 -0.7125
  161MOL0     O21601   6.965   0.725  10.228 -0.0694  0.0935  0.8279
  161MOL0     C21602   6.980   0.837  10.173  0.2587 -0.2583 -0.4706
  161MOL0     O21603   7.079   0.866  10.086 -0.0722 -0.1397 -0.1070
  161MOL0     C21604   7.141   0.765  10.017 -0.3551 -0.8638 -0.3937
  161MOL0     C21605   7.274   0.783   9.977  0.1529 -0.0075  0.0887
  161MOL0     C21606   7.348   0.679   9.915  0.5490 -0.5178  0.6788
  161MOL0     C21607   7.284   0.561   9.884 -0.2271 -0.2367 -0.4463
  161MOL0     O21608   7.361   0.467   9.825 -0.5210  0.2427 -0.6991
  161MOL0     C21609   7.320   0.421   9.690 -0.0016  0.3196 -0.5140
  161MOL0     C21610   7.432   0.337   9.630 -0.2141 -0.0892  0.1941
  161MOL0     C21611   7.496   0.228   9.723  0.0746 -0.1564 -0.0452
  161MOL0     C21612   7.599   0.137   9.647 -0.8784 -0.0717 -0.4511
  161MOL0     C21613   7.721   0.207   9.603  0.4993 -0.8351 -0.1878
  161MOL0     C21614   7.856   0.132   9.618 -0.1921 -0.5396  0.1633
  161MOL0     C21615   7.901   0.079   9.759  0.4571  0.1506  0.0138
  161MOL0     C21616   7.873   0.190   9.866 -0.0657  0.3729  0.1456
  161MOL0     N21617   7.922   0.147   9.994  0.3773  0.5136 -0.1250
  161MOL0     C21618   7.879   0.026  10.050  0.4119 -0.3296 -0.2607
  161MOL0     C21619   7.954   0.016  10.163  0.3877  0.2325 -0.2497
  161MOL0     C21620   7.970  -0.116  10.247 -0.2025 -0.1209 -0.2719
  161MOL0     C21621   7.968  -0.094  10.394 -0.2350  0.7841  0.6433
  161MOL0     C21622   7.969  -0.232  10.471 -0.7109  0.0446 -0.0093
  161MOL0     C21623   8.107  -0.283  10.494 -0.4735  0.4475  1.2018
  161MOL0     O21624   8.108  -0.429  10.507 -0.2200 -0.0439 -0.1032
  161MOL0     C21625   8.061  -0.488  10.626 -0.7070 -0.4820  1.1427
  161MOL0     C21626   8.033  -0.625  10.623  0.2953  0.5002  0.1562
  161MOL0     C21627   7.966  -0.683  10.727 -0.1201  0.9472  0.6891
  161MOL0     C21628   7.908  -0.822  10.697  0.9139 -0.1511 -1.2289
  161MOL0     C21629   7.942  -0.614  10.849  0.6327 -0.0645  0.7083
  161MOL0     C21630   7.872  -0.673  10.972 -0.5051 -0.7937  0.6958
  161MOL0     O21631   7.829  -0.576  11.066  0.3441 -0.4348 -0.7930
  161MOL0     C21632   7.783  -0.644  11.178 -1.1789  0.4644  0.1140
  161MOL0     C21633   7.660  -0.712  11.173 -0.0586  0.2758  0.4486
  161MOL0     C21634   7.620  -0.796  11.279 -0.5603  0.3368 -0.4725
  161MOL0     C21635   7.695  -0.798  11.395 -0.5631 -0.8260 -0.5930
  161MOL0     O21636   7.660  -0.879  11.510  0.3535  0.3353 -0.3282
  161MOL0     C21637   7.739  -1.000  11.514  0.8038 -0.6388  0.3150
  161MOL0     C21638   7.683  -1.117  11.582  0.3832 -0.3025 -0.2815
  161MOL0     C21639   7.535  -1.146  11.536 -0.2972 -0.8332  0.0959
  161MOL0     C21640   7.452  -1.250  11.620 -0.3928 -0.6677  0.1948
  161MOL0     C21641   7.308  -1.276  11.579 -0.3437  0.1583 -1.1033
  161MOL0     C21642   7.264  -1.409  11.650  0.1372 -0.3821 -0.0489
  161MOL0     C21643   7.125  -1.456  11.610 -0.4389  0.3354  0.7260
  161MOL0     C21644   7.101  -1.518  11.468  1.2390 -0.7922 -0.4014
  161MOL0    Cl21645   7.206  -1.654  11.434  0.3258 -0.5981 -0.1493
  161MOL0     C21646   7.815  -0.727  11.399 -0.0022  0.0763 -0.2499
  161MOL0     C21647   7.866  -0.652  11.290  0.5494  1.2775 -0.4640
  161MOL0     O21648   7.875  -0.795  10.987  0.1895 -0.7761  0.6871
  161MOL0     C21649   7.997  -0.483  10.855 -1.3922  0.0189 -0.0699
  161MOL0     C21650   8.043  -0.419  10.744  0.2721 -0.2018 -0.6096
  161MOL0     N21651   8.033   0.130  10.166 -0.4892  0.5575 -0.7530
  161MOL0     N21652   8.013   0.210  10.064 -0.7503  0.3288  0.4991
  161MOL0     C21653   7.144   0.546   9.912 -0.6044 -0.8579 -0.0918
  161MOL0     C21654   7.073   0.652   9.974  0.5446  0.7749 -0.2799
  161MOL0     C21655   6.888   0.943  10.215 -0.4136 -0.2560  0.0943
  161MOL0     C21656   6.818   0.933  10.330  0.5657 -0.3379  0.4566
  161MOL0     C21657   6.742   1.038  10.375  0.7179  0.7986 -0.2268
  161MOL0     C21658   6.726   1.153  10.305  0.5582  1.0020 -0.3948
  161MOL0     O21659   6.637   1.248  10.347 -0.6977 -0.3084 -0.1180
  161MOL0     C21660   6.633   1.285  10.489  0.2412  0.5620  0.5011
  161MOL0     C21661   6.536   1.407  10.493  0.1179  0.6768  0.3291
  161MOL0     C21662   6.557   1.447  10.640 -0.2625  0.5643  0.9857
  161MOL0     C21663   6.455   1.560  10.687 -0.1519  0.4813  0.0348
  161MOL0     C21664   6.509   1.691  10.673  0.7628 -0.3837  0.4692
  161MOL0     C21665   6.548   1.808  10.662  0.0481 -0.2513  0.1269
  161MOL0     C21666   6.804   1.176  10.195  0.1284  0.8459  0.9564
  161MOL0     C21667   6.883   1.067  10.143 -0.4395 -0.1682  0.1817
  161MOL0     H21668   7.329   0.874  10.002  1.3700 -0.9898  1.1534
  161MOL0     H21669   7.448   0.706   9.882 -0.5392  3.1198 -0.1760
  161MOL0     H21670   7.242   0.347   9.710  0.5407  0.0301  0.6415
  161MOL0     H21671   7.295   0.495   9.613 -1.1345 -2.1094 -2.6149
  161MOL0     H21672   7.410   0.295   9.531  0.8661  1.8916 -0.9294
  161MOL0     H21673   7.505   0.413   9.601  0.7486 -0.9251  0.3777
  161MOL0     H21674   7.543   0.273   9.810  1.0053 -3.4215  1.2961
  161MOL0     H21675   7.409   0.173   9.758  0.8811  0.4332  3.1616
  161MOL0     H21676   7.623   0.062   9.724 -3.0660 -0.6634 -0.2755
  161MOL0     H21677   7.548   0.092   9.562 -3.3171  1.6565  0.0262
  161MOL0     H21678   7.692   0.237   9.502 -0.1717  1.3886  0.5953
  161MOL0     H21679   7.730   0.305   9.652 -1.7003 -1.1573  0.9931
  161MOL0     H21680   7.860   0.051   9.544  0.5638  1.8492 -2.6160
  161MOL0     H21681   7.941   0.196   9.591 -0.5057  1.5073  3.5262
  161MOL0     H21682   7.846  -0.015   9.774  0.4059  0.5190  2.5639
  161MOL0     H21683   8.006   0.048   9.760 -0.0191 -1.6344  1.7955
  161MOL0     H21684   7.766   0.210   9.880  0.0526  0.5004  0.9291
  161MOL0     H21685   7.900   0.292   9.838  0.9625  0.0228 -0.1883
  161MOL0     H21686   7.812  -0.052  10.014 -3.1114  1.7099  1.3753
  161MOL0     H21687   7.897  -0.189  10.208 -1.8153  1.9803 -1.4015
  161MOL0     H21688   8.076  -0.142  10.237 -0.1323 -0.2331  0.7378
  161MOL0     H21689   7.876  -0.044  10.428  0.2418  2.0437  0.1370
  161MOL0     H21690   8.053  -0.032  10.422  2.4185 -2.4586  0.4215
  161MOL0     H21691   7.905  -0.301  10.415 -1.4009  0.4642  0.2611
  161MOL0     H21692   7.934  -0.226  10.574  1.4767 -2.5882  1.0197
  161MOL0     H21693   8.153  -0.219  10.569 -0.0606  1.4557  0.1122
  161MOL0     H21694   8.174  -0.259  10.411  0.5291  1.5952  2.3032
  161MOL0     H21695   8.044  -0.671  10.526 -1.0342  0.3172  0.0810
  161MOL0     H21696   7.978  -0.897  10.735 -0.1542 -0.5567  0.0226
  161MOL0     H21697   7.808  -0.835  10.740  2.1068 -0.7724  1.5724
  161MOL0     H21698   7.889  -0.837  10.590 -1.9706 -1.1087 -0.6844
  161MOL0     H21699   7.606  -0.723  11.079  0.3153 -0.6239  0.3307
  161MOL0     H21700   7.539  -0.868  11.279  0.2836 -0.6846  1.0389
  161MOL0     H21701   7.767  -1.031  11.413  0.6836 -1.0049  0.3912
  161MOL0     H21702   7.831  -0.972  11.567 -0.6647  2.7513  1.3163
  161MOL0     H21703   7.747  -1.204  11.565  1.6555  0.1679  1.7226
  161MOL0     H21704   7.694  -1.106  11.690  0.6945  1.8921 -0.4792
  161MOL0     H21705   7.519  -1.170  11.430 -1.0400  1.6349 -0.4141
  161MOL0     H21706   7.480  -1.052  11.545 -2.2819 -1.8853 -0.3710
  161MOL0     H21707   7.508  -1.344  11.615  3.0515  1.1292  1.7146
  161MOL0     H21708   7.461  -1.221  11.725 -1.8260 -1.1506  0.4727
  161MOL0     H21709   7.298  -1.296  11.472 -1.4564 -0.2500 -0.9334
  161MOL0     H21710   7.242  -1.192  11.600 -3.5225 -2.2372 -0.8007
  161MOL0     H21711   7.326  -1.493  11.618  0.0026 -0.7882  0.7476
  161MOL0     H21712   7.265  -1.393  11.758  0.5619 -2.6877  0.3282
  161MOL0     H21713   7.053  -1.373  11.615 -2.3722 -0.8827 -2.9422
  161MOL0     H21714   7.088  -1.539  11.672  0.5132 -1.6525 -1.2540
  161MOL0     H21715   7.115  -1.438  11.395 -0.2583 -0.3034 -0.2061
  161MOL0     H21716   6.997  -1.552  11.466  1.9155 -3.0177 -0.5281
  161MOL0     H21717   7.869  -0.738  11.493  0.2003 -2.8337 -0.6149
  161MOL0     H21718   7.957  -0.595  11.304  1.6830 -0.5062 -0.1997
  161MOL0     H21719   8.004  -0.422  10.944  2.2042  0.6054 -0.6092
  161MOL0     H21720   8.062  -0.317  10.773  2.7067 -0.8901  0.3860
  161MOL0     H21721   7.097   0.449   9.899  1.8990 -1.8308 -3.0449
  161MOL0     H21722   6.967   0.643   9.995  0.5555  1.3456  0.0189
  161MOL0     H21723   6.819   0.840  10.386 -2.4144 -0.8792 -0.2577
  161MOL0     H21724   6.694   1.024  10.471 -1.0192 -0.7064 -1.2631
  161MOL0     H21725   6.588   1.198  10.537  1.1649  0.7485  1.7655
  161MOL0     H21726   6.732   1.310  10.528 -0.5347  3.2292  0.9754
  161MOL0     H21727   6.438   1.379  10.456 -1.4161  2.8856  2.4246
  161MOL0     H21728   6.565   1.501  10.444 -0.4119  2.1826  2.7098
  161MOL0     H21729   6.662   1.479  10.646 -0.1602  0.1168  1.6294
  161MOL0     H21730   6.528   1.366  10.707 -0.9497 -1.7856 -1.9558
  161MOL0     H21731   6.430   1.541  10.792  1.3537  0.9825  0.5183
  161MOL0     H21732   6.358   1.551  10.636 -0.6883  0.5317  1.0183
  161MOL0     H21733   6.595   1.904  10.659  1.3430 -0.8639 -0.1590
  161MOL0     H21734   6.811   1.275  10.150  1.6065  0.3496  0.0194
  161MOL0     H21735   6.944   1.093  10.058 -2.0689  1.3832 -0.5854
  162MOL0     O21736   3.274   8.213   4.687 -0.6015  0.4164 -0.1364
  162MOL0     C21737   3.225   8.124   4.611 -0.3866 -0.0933 -1.1578
  162MOL0     O21738   3.114   8.133   4.527  0.7434  0.1376 -1.0725
  162MOL0     C21739   3.062   8.261   4.510 -0.3180 -0.2091  0.4348
  162MOL0     C21740   3.056   8.330   4.383 -0.3190  0.4373 -0.6706
  162MOL0     C21741   2.994   8.451   4.380  0.3405 -0.6503 -0.3547
  162MOL0     C21742   2.920   8.508   4.489 -1.0416  0.5616  0.1452
  162MOL0     O21743   2.859   8.631   4.482 -0.1371 -0.2596  0.5780
  162MOL0     C21744   2.727   8.627   4.422  0.0798  0.5829  0.4910
  162MOL0     C21745   2.675   8.767   4.404 -0.2113  0.0817 -0.1690
  162MOL0     C21746   2.531   8.777   4.334  0.1668 -0.8930  0.8598
  162MOL0     C21747   2.460   8.915   4.349 -0.9778 -0.4670  0.0210
  162MOL0     C21748   2.319   8.916   4.302 -0.7282  0.4571 -0.7723
  162MOL0     C21749   2.226   8.898   4.423  0.1298  0.4161  0.3185
  162MOL0     C21750   2.070   8.906   4.391 -0.3945 -0.4560  0.3756
  162MOL0     C21751   2.012   9.045   4.363 -0.0384 -0.5985 -0.1672
  162MOL0     N21752   1.918   9.026   4.258  0.6970  0.1100 -0.3181
  162MOL0     C21753   1.783   9.014   4.287  0.6143  0.5110  0.0035
  162MOL0     C21754   1.722   9.030   4.170 -0.2096  0.9638  0.2627
  162MOL0     C21755   1.579   9.050   4.146 -0.5808 -0.3098 -0.5751
  162MOL0     C21756   1.516   9.151   4.243  0.9430  0.2598  0.7993
  162MOL0     C21757   1.377   9.185   4.179  0.7130 -0.3733  0.0101
  162MOL0     C21758   1.294   9.293   4.249 -0.2831 -0.1149  0.2376
  162MOL0     O21759   1.250   9.242   4.377 -0.3026  0.8180 -0.1617
  162MOL0     C21760   1.164   9.317   4.447 -0.4608  0.7815 -0.9809
  162MOL0     C21761   1.076   9.247   4.528  0.5982  1.0302  0.3337
  162MOL0     C21762   0.986   9.305   4.613  0.2101  0.7289  0.5606
  162MOL0     C21763   0.907   9.217   4.700 -0.3459  0.9835 -0.6497
  162MOL0     C21764   0.957   9.444   4.599  0.5645 -0.3695 -0.9761
  162MOL0     C21765   0.860   9.505   4.694  0.4976 -0.1519  0.2378
  162MOL0     O21766   0.765   9.593   4.642 -1.0579 -0.2810  0.4824
  162MOL0     C21767   0.669   9.617   4.739  1.0302  0.7801 -0.5573
  162MOL0     C21768   0.568   9.522   4.763 -0.1861  0.5704 -0.3349
  162MOL0     C21769   0.486   9.538   4.876  0.0074 -0.4447  1.2049
  162MOL0     C21770   0.490   9.654   4.947 -0.2117 -0.5233 -0.0503
  162MOL0     O21771   0.397   9.689   5.037 -0.1501 -0.8264  0.5631
  162MOL0     C21772   0.269   9.631   5.035  0.5515 -0.0449  0.3494
  162MOL0     C21773   0.171   9.703   5.131 -0.6852  0.3845  0.7188
  162MOL0     C21774   0.055   9.610   5.181  1.0782 -0.3848 -0.1548
  162MOL0     C21775  -0.028   9.684   5.293  0.7693 -0.2682 -0.1175
  162MOL0     C21776  -0.110   9.582   5.389  0.3327 -0.4443 -0.1797
  162MOL0     C21777  -0.240   9.641   5.438  0.9907  0.1544  1.1588
  162MOL0     C21778  -0.309   9.547   5.529  0.2794  0.6436  0.6394
  162MOL0     C21779  -0.437   9.613   5.581  0.0959  0.3619 -0.8709
  162MOL0    Cl21780  -0.543   9.621   5.439  0.0032 -0.0058  0.0299
  162MOL0     C21781   0.593   9.741   4.926  0.0186  0.4891 -0.3692
  162MOL0     C21782   0.686   9.725   4.825 -0.2302  0.1578  1.3887
  162MOL0     O21783   0.886   9.488   4.811  0.5918  0.8094  0.1825
  162MOL0     C21784   1.037   9.522   4.515 -0.0784 -0.0077 -0.1424
  162MOL0     C21785   1.143   9.454   4.432  0.2359  0.8334 -1.2716
  162MOL0     N21786   1.817   9.034   4.068 -0.1212 -0.7146  0.6113
  162MOL0     N21787   1.936   9.051   4.122  0.2549  0.0824 -0.6632
  162MOL0     C21788   2.943   8.448   4.614  0.1761  0.8898  0.1987
  162MOL0     C21789   3.001   8.325   4.623  0.1939  0.3230  0.3663
  162MOL0     C21790   3.289   7.986   4.636 -0.4034 -0.3551  0.0298
  162MOL0     C21791   3.261   7.877   4.547 -0.1601 -0.1384  0.3547
  162MOL0     C21792   3.336   7.758   4.556 -0.1928 -0.3862 -0.4849
  162MOL0     C21793   3.429   7.738   4.651  0.3113 -0.0186 -0.0777
  162MOL0     O21794   3.498   7.627   4.654 -1.2016  0.2984 -0.3337
  162MOL0     C21795   3.551   7.579   4.773 -0.7902 -0.1534 -0.1276
  162MOL0     C21796   3.632   7.450   4.728 -0.1783  0.4786 -0.4389
  162MOL0     C21797   3.538   7.326   4.720 -0.3705  0.5647 -0.3563
  162MOL0     C21798   3.597   7.207   4.653  0.1103 -0.2869  0.0713
  162MOL0     C21799   3.490   7.111   4.645  0.1701 -0.2704  0.4933
  162MOL0     C21800   3.403   7.029   4.642  0.7113 -0.1555 -0.6926
  162MOL0     C21801   3.445   7.842   4.751 -0.2109 -0.3603  0.3007
  162MOL0     C21802   3.387   7.969   4.738  1.0936 -0.3579 -0.0165
  162MOL0     H21803   3.093   8.274   4.297 -1.5095  1.0107 -1.5811
  162MOL0     H21804   2.981   8.493   4.281  0.8230 -0.0529 -0.1659
  162MOL0     H21805   2.719   8.578   4.324  0.7119  0.6506  0.3971
  162MOL0     H21806   2.661   8.578   4.493 -1.1086  2.2311  0.5789
  162MOL0     H21807   2.683   8.816   4.501  1.8867  0.0717 -0.2973
  162MOL0     H21808   2.749   8.828   4.351 -0.2777 -0.9379 -1.4997
  162MOL0     H21809   2.535   8.749   4.228 -0.0293  0.8971  0.3562
  162MOL0     H21810   2.462   8.703   4.376  1.2459 -3.5542 -1.6983
  162MOL0     H21811   2.462   8.948   4.453  1.3167  1.0884 -0.4506
  162MOL0     H21812   2.517   8.990   4.294  3.2527 -2.3194  1.4722
  162MOL0     H21813   2.283   9.002   4.244 -1.2737  1.6015  1.1220
  162MOL0     H21814   2.286   8.830   4.245 -2.1512 -1.6524  2.8783
  162MOL0     H21815   2.253   8.804   4.472 -2.6033  0.7221  2.6463
  162MOL0     H21816   2.252   8.974   4.497 -2.1428 -0.9741  2.7200
  162MOL0     H21817   2.033   8.843   4.310 -3.0323  0.3045  0.8918
  162MOL0     H21818   2.013   8.865   4.475  1.1412  2.6440  3.1746
  162MOL0     H21819   2.095   9.113   4.341  0.7193 -0.0724  3.6118
  162MOL0     H21820   1.967   9.091   4.451 -0.4786 -0.8516 -0.2592
  162MOL0     H21821   1.742   8.998   4.386 -0.9469 -1.0463 -0.8348
  162MOL0     H21822   1.559   9.076   4.041  1.1831  0.5775 -0.7255
  162MOL0     H21823   1.532   8.953   4.167  5.0534 -2.7010  3.5673
  162MOL0     H21824   1.573   9.243   4.255  2.0803 -0.2297 -0.5069
  162MOL0     H21825   1.510   9.100   4.339  0.1248  2.0945  1.7763
  162MOL0     H21826   1.322   9.092   4.157  0.7482 -0.2922 -0.4306
  162MOL0     H21827   1.411   9.240   4.091  1.8041  2.8351  2.2544
  162MOL0     H21828   1.213   9.305   4.176  0.2747  0.8067 -0.2484
  162MOL0     H21829   1.353   9.384   4.251 -1.5498  0.8579 -2.1747
  162MOL0     H21830   1.088   9.139   4.526 -2.2204  0.6561 -1.0672
  162MOL0     H21831   0.948   9.212   4.801 -2.1382  0.8614  0.1128
  162MOL0     H21832   0.809   9.261   4.721 -0.4793  0.1686  0.4916
  162MOL0     H21833   0.893   9.117   4.657 -1.5936  1.1470 -0.6704
  162MOL0     H21834   0.558   9.427   4.710 -1.5630 -0.0926  1.0335
  162MOL0     H21835   0.412   9.466   4.908  1.4362 -1.3887  2.5105
  162MOL0     H21836   0.220   9.628   4.937  1.5888 -1.5507 -0.1537
  162MOL0     H21837   0.265   9.527   5.067 -1.3437 -0.3733 -0.7927
  162MOL0     H21838   0.227   9.744   5.216 -0.3834  1.6420 -0.0532
  162MOL0     H21839   0.123   9.783   5.073  1.0971 -0.9332 -2.9006
  162MOL0     H21840   0.116   9.528   5.220  1.7133 -1.5394 -3.2922
  162MOL0     H21841  -0.011   9.563   5.108  0.0076 -1.3060  1.3538
  162MOL0     H21842   0.030   9.759   5.349  1.0916 -1.4501  1.1763
  162MOL0     H21843  -0.097   9.746   5.235 -3.8001 -3.3873  1.4496
  162MOL0     H21844  -0.045   9.552   5.472  0.4129  0.5581  0.1306
  162MOL0     H21845  -0.114   9.487   5.335  2.3943 -0.8831  0.3300
  162MOL0     H21846  -0.231   9.734   5.495  0.4034 -0.7813  2.8451
  162MOL0     H21847  -0.303   9.670   5.353 -0.9973  1.4362  2.9480
  162MOL0     H21848  -0.250   9.515   5.616  0.4419  1.5956  0.8894
  162MOL0     H21849  -0.322   9.451   5.479  0.4717  1.1302 -0.3650
  162MOL0     H21850  -0.412   9.708   5.630  0.5563  0.0321 -0.4610
  162MOL0     H21851  -0.489   9.547   5.651 -1.6078 -1.1604 -3.4283
  162MOL0     H21852   0.599   9.819   5.001  2.4473 -3.0952  3.6093
  162MOL0     H21853   0.765   9.800   4.824 -0.8758  0.9702 -1.7222
  162MOL0     H21854   1.034   9.630   4.518  1.0343  0.0536 -0.7130
  162MOL0     H21855   1.207   9.516   4.370  2.4210 -1.2349 -1.2054
  162MOL0     H21856   2.909   8.494   4.706 -1.1952 -1.5935  1.0423
  162MOL0     H21857   2.995   8.282   4.723  2.4651 -1.2234 -0.0811
  162MOL0     H21858   3.187   7.897   4.469 -0.7183 -2.8000  0.1001
  162MOL0     H21859   3.328   7.680   4.481  1.3028 -0.2577 -0.8112
  162MOL0     H21860   3.633   7.642   4.808  1.7553 -3.8421  1.2388
  162MOL0     H21861   3.483   7.561   4.856  0.5155  0.3683  1.0883
  162MOL0     H21862   3.691   7.420   4.815 -1.3182 -1.6017 -0.2966
  162MOL0     H21863   3.700   7.449   4.643 -2.0168  0.6610 -1.9784
  162MOL0     H21864   3.452   7.365   4.664 -0.9667 -0.1976  0.0119
  162MOL0     H21865   3.499   7.290   4.816 -0.0271  0.6790 -0.1734
  162MOL0     H21866   3.689   7.177   4.704 -0.7559 -1.3374  1.0788
  162MOL0     H21867   3.626   7.239   4.552 -0.2926  0.6885  0.2538
  162MOL0     H21868   3.330   6.951   4.645  1.1585 -0.5474  0.8568
  162MOL0     H21869   3.519   7.842   4.829  1.7053 -0.2715 -1.4398
  162MOL0     H21870   3.406   8.055   4.802  0.6403  0.5347 -1.0573
  163MOL0     O21871   0.403   0.048   7.656  0.1345 -0.1056 -0.2092
  163MOL0     C21872   0.493   0.126   7.629  0.0486  0.1398  0.6330
  163MOL0     O21873   0.529   0.240   7.697  0.1689  0.6573 -0.0164
  163MOL0     C21874   0.435   0.309   7.774  0.0631  0.5798 -0.5032
  163MOL0     C21875   0.311   0.334   7.724 -0.4286 -0.2670  0.2566
  163MOL0     C21876   0.225   0.415   7.795  0.0215 -0.5076  0.3572
  163MOL0     C21877   0.259   0.458   7.925  0.6256  0.4889  0.3994
  163MOL0     O21878   0.178   0.546   7.998  0.2534  0.2514 -0.2606
  163MOL0     C21879   0.066   0.617   7.940 -0.4624  0.3149 -0.1843
  163MOL0     C21880  -0.060   0.543   7.939  0.6040  0.6557  0.1819
  163MOL0     C21881  -0.122   0.475   8.073 -0.4266  0.0783  0.4338
  163MOL0     C21882  -0.206   0.347   8.044  0.2986 -0.4301 -0.4039
  163MOL0     C21883  -0.133   0.233   7.968 -1.0988 -0.2735 -0.6021
  163MOL0     C21884  -0.002   0.176   8.035 -0.4864 -1.2257 -0.3015
  163MOL0     C21885   0.081   0.085   7.944  0.0591  0.0976 -0.9492
  163MOL0     C21886   0.017  -0.036   7.887 -0.4840  0.4555 -0.0832
  163MOL0     N21887  -0.034  -0.017   7.750 -0.9483 -0.4238 -0.9445
  163MOL0     C21888   0.049  -0.006   7.636 -0.3138 -0.2631  0.6339
  163MOL0     C21889  -0.032   0.024   7.536 -1.0500  0.3497  0.6181
  163MOL0     C21890   0.013   0.032   7.397  0.1042  1.0838  0.5478
  163MOL0     C21891   0.145   0.096   7.379 -0.1679  0.2219 -0.0997
  163MOL0     C21892   0.173   0.156   7.233 -0.4305 -0.2227 -0.4187
  163MOL0     C21893   0.320   0.197   7.222  0.1187 -0.5578  0.0484
  163MOL0     O21894   0.339   0.250   7.086 -0.0873 -0.6095 -0.1330
  163MOL0     C21895   0.469   0.267   7.044  0.3113 -0.3473 -0.6326
  163MOL0     C21896   0.490   0.209   6.929  0.2502 -0.7547  0.8031
  163MOL0     C21897   0.618   0.219   6.870 -0.0443 -0.1530 -0.4094
  163MOL0     C21898   0.639   0.141   6.735  0.5217  0.2003 -0.2976
  163MOL0     C21899   0.713   0.301   6.928  0.7652  0.5312 -0.5321
  163MOL0     C21900   0.854   0.314   6.864  0.5195 -0.1949 -0.2696
  163MOL0     O21901   0.940   0.384   6.938 -0.1499 -0.3055 -0.4193
  163MOL0     C21902   1.053   0.437   6.887  0.1513 -0.1388 -0.5367
  163MOL0     C21903   1.047   0.522   6.775 -0.8540  0.4276 -0.2934
  163MOL0     C21904   1.160   0.604   6.740 -0.2656 -0.0651 -0.6010
  163MOL0     C21905   1.281   0.593   6.803 -0.4250 -0.8141  0.2441
  163MOL0     O21906   1.381   0.663   6.751 -0.1769  0.0943  0.1217
  163MOL0     C21907   1.467   0.747   6.829  0.1239  0.2290  0.3690
  163MOL0     C21908   1.597   0.689   6.879  0.0681  0.1703 -0.2017
  163MOL0     C21909   1.675   0.609   6.781 -0.1528  0.6535 -0.1988
  163MOL0     C21910   1.793   0.553   6.862  0.4470 -0.3375 -0.2041
  163MOL0     C21911   1.843   0.425   6.795  0.0585 -0.3533 -0.7317
  163MOL0     C21912   1.867   0.437   6.639 -0.2105  0.4016 -0.2686
  163MOL0     C21913   1.920   0.314   6.558 -0.0635 -0.3896  0.2466
  163MOL0     C21914   1.919   0.347   6.412  0.9225 -0.5578 -0.1734
  163MOL0    Cl21915   1.907   0.189   6.318  0.4795  0.4584 -0.3009
  163MOL0     C21916   1.291   0.500   6.917  0.5884  0.1642  0.3510
  163MOL0     C21917   1.175   0.428   6.958 -0.1949 -0.7427 -0.0720
  163MOL0     O21918   0.888   0.246   6.769  0.0004 -0.1396 -0.0740
  163MOL0     C21919   0.692   0.356   7.058  0.8659  0.0781 -0.3321
  163MOL0     C21920   0.565   0.341   7.114  0.8309  0.5216  1.0257
  163MOL0     N21921  -0.158  -0.000   7.586  0.3418 -0.3187  0.0268
  163MOL0     N21922  -0.156  -0.010   7.718  0.6339  0.0403  0.1119
  163MOL0     C21923   0.388   0.432   7.974  0.1344 -0.3651  0.0112
  163MOL0     C21924   0.473   0.363   7.897  0.1845 -0.6859  0.1986
  163MOL0     C21925   0.576   0.100   7.506 -0.1643 -0.4800  0.5659
  163MOL0     C21926   0.571  -0.026   7.450  0.2402  0.1078 -0.5585
  163MOL0     C21927   0.645  -0.056   7.337 -0.4474  0.0927  0.3740
  163MOL0     C21928   0.741   0.034   7.293 -0.5491  1.2844  1.3716
  163MOL0     O21929   0.815  -0.016   7.183  0.3620  0.1280 -0.5696
  163MOL0     C21930   0.918   0.068   7.153 -0.6401  0.1548  1.1117
  163MOL0     C21931   1.010  -0.017   7.064  0.1112 -0.4216  0.5142
  163MOL0     C21932   1.141   0.054   7.025  0.8708 -0.3913  0.7478
  163MOL0     C21933   1.194   0.025   6.881 -0.5874  0.4581 -0.8942
  163MOL0     C21934   1.317   0.106   6.863  0.2803  1.1028  0.5583
  163MOL0     C21935   1.415   0.173   6.847  0.5126  0.0462  0.4621
  163MOL0     C21936   0.750   0.162   7.354 -0.2287  0.0831  0.4684
  163MOL0     C21937   0.674   0.189   7.465  0.0566 -0.9133  0.1988
  163MOL0     H21938   0.283   0.281   7.633 -1.7644  0.7929  0.0232
  163MOL0     H21939   0.125   0.432   7.756  0.4344  1.0463 -0.0516
  163MOL0     H21940   0.048   0.702   8.006 -3.4829 -0.4696  0.1846
  163MOL0     H21941   0.084   0.649   7.838 -2.3109  0.1765 -0.5964
  163MOL0     H21942  -0.126   0.623   7.906 -3.0005 -1.1284  2.4136
  163MOL0     H21943  -0.051   0.466   7.861  0.0528  0.2542  0.5104
  163MOL0     H21944  -0.044   0.451   8.145  1.5580 -1.4409 -2.0483
  163MOL0     H21945  -0.184   0.553   8.118 -1.6334 -0.4848 -0.1779
  163MOL0     H21946  -0.241   0.309   8.140  0.9295  3.4461  1.5355
  163MOL0     H21947  -0.294   0.367   7.982 -0.6783 -1.6077  0.5485
  163MOL0     H21948  -0.205   0.152   7.949 -0.2779 -0.9570 -0.9033
  163MOL0     H21949  -0.100   0.266   7.869  2.1244 -1.4313 -0.0544
  163MOL0     H21950   0.073   0.251   8.063 -0.1290 -1.8198  0.3779
  163MOL0     H21951  -0.028   0.121   8.126 -0.1273 -1.4642 -0.3382
  163MOL0     H21952   0.135   0.147   7.872  3.8738 -1.5696  0.2477
  163MOL0     H21953   0.157   0.034   8.003 -1.7498 -1.0034  0.5706
  163MOL0     H21954  -0.069  -0.066   7.948  0.6126 -1.1326  0.7725
  163MOL0     H21955   0.092  -0.115   7.894 -0.3367  0.7301  2.3567
  163MOL0     H21956   0.156  -0.022   7.625 -0.2925  0.1014  0.2613
  163MOL0     H21957   0.013  -0.070   7.357  0.6219  1.1300  0.4147
  163MOL0     H21958  -0.061   0.092   7.344  3.1164  1.1660 -4.1523
  163MOL0     H21959   0.224   0.025   7.403  0.1686 -0.6322 -3.2638
  163MOL0     H21960   0.154   0.177   7.452  1.8313 -0.1791  0.1486
  163MOL0     H21961   0.103   0.237   7.208 -1.9216 -0.2584  3.0321
  163MOL0     H21962   0.150   0.074   7.164 -1.6019 -1.3284  1.1957
  163MOL0     H21963   0.384   0.110   7.240  1.0106  0.3368  1.2709
  163MOL0     H21964   0.341   0.274   7.296 -0.8565 -0.6826  0.4789
  163MOL0     H21965   0.406   0.162   6.877  1.2700 -0.8465 -0.8297
  163MOL0     H21966   0.657   0.211   6.653  1.2369 -1.5155 -1.6713
  163MOL0     H21967   0.728   0.081   6.755  1.2905  1.5182  0.4154
  163MOL0     H21968   0.551   0.079   6.717 -0.2489  0.8967  0.8777
  163MOL0     H21969   0.967   0.521   6.702 -1.2954 -1.7936  0.1725
  163MOL0     H21970   1.156   0.675   6.658  2.6608  0.4846 -0.3880
  163MOL0     H21971   1.494   0.832   6.764 -0.3658  0.7293  0.8105
  163MOL0     H21972   1.416   0.778   6.920  2.5920 -0.3371  2.0404
  163MOL0     H21973   1.653   0.772   6.922  1.3162 -1.1187  0.7916
  163MOL0     H21974   1.559   0.638   6.968  0.1710  3.9188  2.1866
  163MOL0     H21975   1.688   0.672   6.693 -1.7629  2.2313  0.6327
  163MOL0     H21976   1.607   0.530   6.746 -1.2158  0.3111  2.3994
  163MOL0     H21977   1.873   0.627   6.873 -1.4122  1.5730  1.3814
  163MOL0     H21978   1.761   0.515   6.960 -3.4116  1.8352 -0.4210
  163MOL0     H21979   1.767   0.347   6.809  0.2562 -0.3155  0.6411
  163MOL0     H21980   1.940   0.406   6.841  0.5450  3.5282  0.2137
  163MOL0     H21981   1.774   0.471   6.591 -1.1332 -0.5506  0.7767
  163MOL0     H21982   1.941   0.517   6.633  0.0771  0.0799 -1.0858
  163MOL0     H21983   1.850   0.233   6.578  0.8519 -1.3693 -0.4485
  163MOL0     H21984   2.024   0.298   6.588  0.6530  0.7814 -1.4352
  163MOL0     H21985   2.014   0.399   6.397  1.6185 -0.9180  2.3909
  163MOL0     H21986   1.845   0.422   6.383  2.3383  1.5147  1.2905
  163MOL0     H21987   1.387   0.478   6.962  1.7375 -0.1326 -2.0817
  163MOL0     H21988   1.190   0.371   7.050  1.5751  2.1461  1.6189
  163MOL0     H21989   0.767   0.413   7.112  0.7328 -0.0286 -0.0358
  163MOL0     H21990   0.538   0.381   7.211 -2.0304 -0.7136  0.8399
  163MOL0     H21991   0.434   0.471   8.064  3.4537  2.4734 -2.6323
  163MOL0     H21992   0.577   0.344   7.923  0.5443 -2.5892 -2.2832
  163MOL0     H21993   0.507  -0.103   7.492  4.0211 -1.1055  3.7468
  163MOL0     H21994   0.649  -0.152   7.287  1.0354  0.3365 -0.0411
  163MOL0     H21995   0.895   0.155   7.091  3.8101  0.2213 -0.8804
  163MOL0     H21996   0.973   0.100   7.242  1.4794  2.5399 -0.9039
  163MOL0     H21997   0.949  -0.048   6.979 -0.6745 -1.2273  1.3566
  163MOL0     H21998   1.034  -0.101   7.129 -0.0176  0.7986  2.1923
  163MOL0     H21999   1.199   0.023   7.112 -1.3573  0.7343  2.7239
  163MOL0     H22000   1.116   0.160   7.033  1.2819 -0.0286 -1.7190
  163MOL0     H22001   1.107   0.061   6.826 -2.7257 -0.7968  1.4566
  163MOL0     H22002   1.206  -0.083   6.868  0.2368 -0.0283  2.7648
  163MOL0     H22003   1.504   0.230   6.825  1.1451 -0.8743  0.5853
  163MOL0     H22004   0.809   0.244   7.313 -1.7577  0.0432 -1.9866
  163MOL0     H22005   0.684   0.293   7.496 -1.5893 -0.4539 -0.6730
  164MOL0     O22006   8.187  10.016   8.567  0.2610 -0.6935 -0.9704
  164MOL0     C22007   8.280  10.089   8.526  0.5650 -0.0035  0.3203
  164MOL0     O22008   8.331  10.073   8.405 -0.4993 -0.1707 -0.2145
  164MOL0     C22009   8.315   9.955   8.331  0.2671 -0.2070 -0.4992
  164MOL0     C22010   8.352   9.964   8.201 -0.6036 -0.0067  0.3296
  164MOL0     C22011   8.323   9.867   8.109  0.8624  0.2778 -0.2498
  164MOL0     C22012   8.273   9.741   8.144 -0.8832  0.6889 -0.0286
  164MOL0     O22013   8.236   9.641   8.053 -0.4951 -0.1422 -0.4043
  164MOL0     C22014   8.263   9.667   7.917  0.0430 -0.2022  1.0397
  164MOL0     C22015   8.140   9.703   7.836  0.3471  0.4708  0.9053
  164MOL0     C22016   7.998   9.669   7.895  0.5546  1.0787 -0.8636
  164MOL0     C22017   7.886   9.698   7.799  0.4707  0.0080  0.2738
  164MOL0     C22018   7.748   9.671   7.852  0.1347  0.3859  0.8056
  164MOL0     C22019   7.711   9.515   7.869 -0.2662 -0.4439  0.6023
  164MOL0     C22020   7.570   9.506   7.913  0.7081  0.2606 -0.6141
  164MOL0     C22021   7.505   9.378   7.867  0.2249 -0.7590  0.0337
  164MOL0     N22022   7.369   9.376   7.917 -0.5894  0.4884 -0.0114
  164MOL0     C22023   7.255   9.405   7.850  0.2216 -0.1338 -0.1713
  164MOL0     C22024   7.154   9.380   7.940  0.2687  0.1454 -0.2720
  164MOL0     C22025   7.001   9.416   7.920 -0.0744  0.7392  0.2120
  164MOL0     C22026   6.961   9.450   7.772 -0.0769  0.5802  0.2360
  164MOL0     C22027   6.806   9.474   7.748  0.2952 -0.9205 -0.2740
  164MOL0     C22028   6.731   9.346   7.711  0.4898  0.0183 -0.5129
  164MOL0     O22029   6.784   9.233   7.770  0.3022  0.0142  0.3434
  164MOL0     C22030   6.731   9.101   7.751  0.4323 -0.6005 -0.1045
  164MOL0     C22031   6.784   9.005   7.836  0.3400  0.5869 -0.1623
  164MOL0     C22032   6.738   8.870   7.833  0.6908 -0.1588 -0.6948
  164MOL0     C22033   6.813   8.761   7.901  0.1287  0.6813  0.0655
  164MOL0     C22034   6.617   8.845   7.759  0.8499  0.2481 -0.4243
  164MOL0     C22035   6.552   8.713   7.768 -0.5709 -1.3261  0.5183
  164MOL0     O22036   6.634   8.615   7.733 -0.3463  0.1020  1.1005
  164MOL0     C22037   6.614   8.480   7.775 -0.1599 -0.4938  0.4887
  164MOL0     C22038   6.638   8.442   7.901  1.6824 -0.7366  0.5476
  164MOL0     C22039   6.626   8.304   7.942  0.0868 -0.0823  0.7442
  164MOL0     C22040   6.613   8.207   7.835  0.1428 -0.0469  1.4163
  164MOL0     O22041   6.623   8.071   7.849  0.1299 -0.3049  0.9714
  164MOL0     C22042   6.629   8.014   7.976 -0.0184 -0.1103  0.2399
  164MOL0     C22043   6.591   7.869   7.969  0.8677 -0.1240 -0.7708
  164MOL0     C22044   6.712   7.777   7.924 -0.6395 -0.3473  0.8838
  164MOL0     C22045   6.653   7.640   7.901 -0.0359  0.3204 -0.2286
  164MOL0     C22046   6.757   7.530   7.872  0.6056  1.4358 -0.5482
  164MOL0     C22047   6.886   7.576   7.801  0.4037 -0.3494 -0.4039
  164MOL0     C22048   6.974   7.462   7.738 -0.2830  0.2698 -0.1318
  164MOL0     C22049   7.059   7.504   7.629 -0.5555  0.0942  0.3697
  164MOL0    Cl22050   7.164   7.640   7.686 -0.1075 -0.1405  0.3593
  164MOL0     C22051   6.615   8.251   7.700  1.1013  0.1161 -0.2307
  164MOL0     C22052   6.609   8.382   7.676 -0.2643 -0.9252 -0.1204
  164MOL0     O22053   6.433   8.703   7.784  0.0380  0.2045 -0.2289
  164MOL0     C22054   6.561   8.946   7.682  0.5917 -0.2968 -0.0264
  164MOL0     C22055   6.616   9.073   7.676  1.1914  0.3071  1.1403
  164MOL0     N22056   7.208   9.328   8.058 -0.2330  0.1650  0.9887
  164MOL0     N22057   7.336   9.334   8.042 -0.0891 -0.7551 -0.2239
  164MOL0     C22058   8.239   9.727   8.282 -0.2535  0.7452  0.1554
  164MOL0     C22059   8.262   9.832   8.374 -0.1001  0.6571 -0.5501
  164MOL0     C22060   8.336  10.194   8.606  0.1376  0.2498  0.1054
  164MOL0     C22061   8.471  10.225   8.584  0.0884 -0.3064 -0.1992
  164MOL0     C22062   8.536  10.328   8.661 -0.1579  1.0089 -0.5613
  164MOL0     C22063   8.469  10.392   8.765  0.0017  0.6433 -0.6835
  164MOL0     O22064   8.547  10.473   8.844 -0.1216  0.0745  0.2610
  164MOL0     C22065   8.514  10.456   8.984  0.4562  0.9249  0.0047
  164MOL0     C22066   8.628  10.509   9.070 -0.5258  1.3464 -0.3624
  164MOL0     C22067   8.661  10.653   9.036 -0.3318 -0.6670  0.3377
  164MOL0     C22068   8.753  10.721   9.135 -0.3866  0.7142  0.6692
  164MOL0     C22069   8.886  10.644   9.126  0.6840 -0.2152 -0.5960
  164MOL0     C22070   8.982  10.576   9.143  0.4247 -0.1313 -0.4045
  164MOL0     C22071   8.335  10.359   8.785  0.6747 -0.5408 -0.1269
  164MOL0     C22072   8.265  10.261   8.709 -0.2130 -0.2104  0.2287
  164MOL0     H22073   8.388  10.055   8.156  1.8207 -0.7097  0.7334
  164MOL0     H22074   8.317   9.901   8.006  0.9159  1.3297  0.0787
  164MOL0     H22075   8.341   9.735   7.880 -1.4021 -0.0117 -1.9839
  164MOL0     H22076   8.300   9.573   7.876  1.6310  0.5122  0.7372
  164MOL0     H22077   8.133   9.812   7.829 -2.5440  0.7027  4.4722
  164MOL0     H22078   8.149   9.647   7.743  0.4004 -2.5042  2.5883
  164MOL0     H22079   7.991   9.567   7.932 -4.1449  1.9051  1.1764
  164MOL0     H22080   7.983   9.722   7.989 -5.2976 -0.8457 -0.3351
  164MOL0     H22081   7.896   9.801   7.763 -1.1939 -0.8255 -2.9230
  164MOL0     H22082   7.889   9.623   7.720 -4.1302 -0.6514  0.4146
  164MOL0     H22083   7.740   9.715   7.952 -0.7414 -1.7697  1.7346
  164MOL0     H22084   7.680   9.730   7.789 -0.0294  0.1349  0.7456
  164MOL0     H22085   7.733   9.464   7.775 -0.7278  1.4830 -0.6086
  164MOL0     H22086   7.775   9.467   7.944  0.0441 -0.5797  0.2528
  164MOL0     H22087   7.579   9.516   8.022  0.5012 -1.2005 -0.4536
  164MOL0     H22088   7.515   9.590   7.868  2.1020  0.5374 -1.8680
  164MOL0     H22089   7.564   9.297   7.911  1.5408  0.5793  0.8250
  164MOL0     H22090   7.520   9.360   7.760  1.7478 -0.4086  0.1734
  164MOL0     H22091   7.250   9.433   7.745  1.4642  2.0967  0.3023
  164MOL0     H22092   6.950   9.325   7.952 -0.5107  0.9540  0.1320
  164MOL0     H22093   6.974   9.497   7.988 -0.9141 -1.6403  2.9559
  164MOL0     H22094   6.995   9.363   7.715  1.3558  1.0551  0.3431
  164MOL0     H22095   7.024   9.531   7.735  2.0569 -1.3585 -0.6477
  164MOL0     H22096   6.785   9.552   7.673  0.3399 -1.3765 -0.7657
  164MOL0     H22097   6.766   9.510   7.843  0.6309 -0.2547 -0.3727
  164MOL0     H22098   6.736   9.333   7.602  2.8387  0.5413 -0.5279
  164MOL0     H22099   6.627   9.354   7.741  1.1690  0.2152  1.9989
  164MOL0     H22100   6.878   9.038   7.879 -0.9819  3.8234  0.5414
  164MOL0     H22101   6.747   8.719   7.977  0.3937  1.2651  0.6211
  164MOL0     H22102   6.830   8.683   7.826  3.3496 -1.5858  2.8579
  164MOL0     H22103   6.907   8.788   7.949 -0.1965  0.0734  1.0588
  164MOL0     H22104   6.656   8.516   7.979  2.6322  0.1308 -0.4651
  164MOL0     H22105   6.632   8.270   8.045 -3.5078 -1.2160  0.7126
  164MOL0     H22106   6.728   8.023   8.023 -0.2107 -2.0265  1.1183
  164MOL0     H22107   6.576   8.070   8.053  1.5185 -2.1790  2.9658
  164MOL0     H22108   6.555   7.833   8.066  1.1347  2.6455  0.4358
  164MOL0     H22109   6.507   7.860   7.900  0.8590 -3.0466 -0.4939
  164MOL0     H22110   6.789   7.782   8.001  0.3920  0.9739 -0.1779
  164MOL0     H22111   6.761   7.812   7.832  1.0301 -2.1375  1.0247
  164MOL0     H22112   6.589   7.607   7.984 -0.6752 -3.5255 -2.0421
  164MOL0     H22113   6.589   7.649   7.813 -1.2699 -4.8213 -0.1596
  164MOL0     H22114   6.718   7.450   7.809  3.0490 -0.7049  0.4546
  164MOL0     H22115   6.783   7.494   7.972  0.8459 -3.5950 -2.1508
  164MOL0     H22116   6.853   7.634   7.715  0.3146 -0.6259 -0.5578
  164MOL0     H22117   6.946   7.644   7.862 -2.9631  0.6543  2.1049
  164MOL0     H22118   6.895   7.393   7.705 -0.3890 -0.1069  0.8923
  164MOL0     H22119   7.047   7.412   7.802 -0.8097 -3.2088 -1.9735
  164MOL0     H22120   7.004   7.517   7.535  0.2621 -3.7084 -0.8167
  164MOL0     H22121   7.120   7.421   7.593  0.3754  1.1719 -0.6288
  164MOL0     H22122   6.604   8.180   7.619 -1.3325 -0.9857  0.9698
  164MOL0     H22123   6.594   8.411   7.572  1.5485 -0.4431 -0.2865
  164MOL0     H22124   6.466   8.924   7.634  0.0607  0.0695  0.8231
  164MOL0     H22125   6.570   9.153   7.619  4.1779  1.2764 -0.1075
  164MOL0     H22126   8.171   9.647   8.308 -0.3682  0.6450 -0.4375
  164MOL0     H22127   8.225   9.808   8.473  3.6905 -0.3202  0.7995
  164MOL0     H22128   8.534  10.171   8.514  0.4635 -1.8252  1.2489
  164MOL0     H22129   8.639  10.348   8.632  0.1606  0.9624  0.5203
  164MOL0     H22130   8.426  10.519   9.003  0.1805  0.8004 -0.8155
  164MOL0     H22131   8.488  10.351   9.001 -0.4736  1.1602  0.1386
  164MOL0     H22132   8.717  10.446   9.057 -2.0923 -1.0054 -0.2733
  164MOL0     H22133   8.598  10.509   9.175  0.9023 -0.7079  0.0999
  164MOL0     H22134   8.571  10.715   9.024  1.7305  2.5737  0.5641
  164MOL0     H22135   8.711  10.652   8.938  0.8664 -0.5626  0.9394
  164MOL0     H22136   8.705  10.724   9.233  1.2156  1.9470  1.4610
  164MOL0     H22137   8.780  10.825   9.119  2.6859 -0.0868 -0.1308
  164MOL0     H22138   9.067  10.513   9.159 -1.3212 -2.2494  1.1425
  164MOL0     H22139   8.267  10.414   8.850  2.5287  2.1176 -0.2648
  164MOL0     H22140   8.163  10.241   8.739 -0.4927  2.1560  1.0646
  165MOL0     O22141   3.219   3.825   8.129  0.1143 -1.0559 -0.1814
  165MOL0     C22142   3.158   3.744   8.197  0.4627  0.4671  0.2508
  165MOL0     O22143   3.030   3.757   8.235 -0.5991  0.6030  0.3341
  165MOL0     C22144   2.968   3.868   8.197  0.0479 -0.7359 -0.6954
  165MOL0     C22145   2.935   3.893   8.073 -1.5541 -1.0494 -0.0250
  165MOL0     C22146   2.862   4.007   8.037  0.7841  0.8907  0.1321
  165MOL0     C22147   2.811   4.084   8.140  0.0838  0.2504 -0.4823
  165MOL0     O22148   2.718   4.182   8.132 -0.4101 -0.3844  0.2509
  165MOL0     C22149   2.645   4.195   8.003 -0.4386 -0.7380 -1.3074
  165MOL0     C22150   2.727   4.311   7.930  0.0257  0.6725  0.0187
  165MOL0     C22151   2.657   4.347   7.803  0.5615 -0.3737 -0.2906
  165MOL0     C22152   2.595   4.238   7.707  0.0096  0.1726 -0.3625
  165MOL0     C22153   2.547   4.295   7.574  0.0475 -0.5488  0.3632
  165MOL0     C22154   2.654   4.346   7.479  0.0126 -0.0774  0.2563
  165MOL0     C22155   2.590   4.434   7.368  0.3877  0.2389 -0.5812
  165MOL0     C22156   2.564   4.574   7.405 -0.3338 -0.8921 -0.5337
  165MOL0     N22157   2.559   4.661   7.284 -0.0591 -0.7985 -0.5242
  165MOL0     C22158   2.585   4.792   7.301  0.5690  0.1356 -0.5574
  165MOL0     C22159   2.546   4.850   7.184  0.2490 -0.0937  0.5295
  165MOL0     C22160   2.555   5.000   7.151  0.0372 -0.0913 -0.0507
  165MOL0     C22161   2.431   5.058   7.221  0.4681  0.4214  0.2765
  165MOL0     C22162   2.403   5.178   7.141  0.4327 -1.0041 -0.2674
  165MOL0     C22163   2.264   5.234   7.186 -0.1154 -0.0576 -0.0067
  165MOL0     O22164   2.227   5.348   7.109  0.0052  0.3463  0.1731
  165MOL0     C22165   2.093   5.383   7.092 -0.6891  0.3015  0.3127
  165MOL0     C22166   2.014   5.413   7.203 -0.0747  0.9751  0.1501
  165MOL0     C22167   1.876   5.429   7.191  1.1005 -0.2051 -0.0689
  165MOL0     C22168   1.799   5.436   7.328 -0.4652  0.2976 -0.4992
  165MOL0     C22169   1.817   5.432   7.060 -0.3891  0.0830 -0.5370
  165MOL0     C22170   1.684   5.448   7.014  0.9586 -0.2501  0.1426
  165MOL0     O22171   1.653   5.452   6.877 -0.1176  0.3453  0.0995
  165MOL0     C22172   1.534   5.474   6.818 -0.0248 -1.2902 -0.4757
  165MOL0     C22173   1.428   5.537   6.886  0.8992 -0.0805 -0.0062
  165MOL0     C22174   1.311   5.570   6.821  0.2282  0.0474  0.5303
  165MOL0     C22175   1.283   5.528   6.694 -0.1316 -0.0366  0.7113
  165MOL0     O22176   1.159   5.545   6.645  0.1673 -0.5945  0.5003
  165MOL0     C22177   1.109   5.471   6.520  0.1176 -0.0907 -0.1778
  165MOL0     C22178   0.961   5.496   6.519 -0.3981 -0.3383 -0.5292
  165MOL0     C22179   0.876   5.393   6.586  0.2411 -0.4798  0.3521
  165MOL0     C22180   0.728   5.425   6.589 -0.2103 -0.6377  0.2933
  165MOL0     C22181   0.638   5.310   6.647 -0.3189  0.4531 -0.2021
  165MOL0     C22182   0.495   5.316   6.611  0.6176  0.4081 -0.9032
  165MOL0     C22183   0.414   5.440   6.670  0.2249 -0.7869 -0.0007
  165MOL0     C22184   0.267   5.423   6.661 -0.2267  0.1755 -0.1434
  165MOL0    Cl22185   0.206   5.254   6.693  0.1416  0.6681 -0.1789
  165MOL0     C22186   1.392   5.471   6.627 -0.0072 -0.3674 -0.4277
  165MOL0     C22187   1.521   5.438   6.689  0.2477 -0.3779  0.4031
  165MOL0     O22188   1.602   5.455   7.103  1.0864 -0.2285  0.2661
  165MOL0     C22189   1.910   5.428   6.949  0.0149  0.0264 -0.5102
  165MOL0     C22190   2.042   5.398   6.966  0.0058 -0.7523 -1.6051
  165MOL0     N22191   2.490   4.760   7.100  0.4693 -0.0647  0.7517
  165MOL0     N22192   2.492   4.651   7.169  0.1108 -0.3746  0.7894
  165MOL0     C22193   2.861   4.065   8.270  0.4900 -0.1125 -0.1488
  165MOL0     C22194   2.941   3.958   8.301 -0.2019 -0.1213 -0.0901
  165MOL0     C22195   3.231   3.627   8.247 -0.3730 -0.0893 -0.6924
  165MOL0     C22196   3.368   3.620   8.211  0.2422  0.0327 -0.0326
  165MOL0     C22197   3.444   3.506   8.238  0.0414 -0.1837 -0.2206
  165MOL0     C22198   3.398   3.402   8.325 -0.2867 -0.4077 -0.1751
  165MOL0     O22199   3.453   3.288   8.372 -0.6221  0.2593  0.0374
  165MOL0     C22200   3.582   3.256   8.319 -1.2418 -0.4347  0.7057
  165MOL0     C22201   3.704   3.317   8.393  0.0565 -0.9169  0.2629
  165MOL0     C22202   3.834   3.230   8.375  0.5095  0.0303 -1.0852
  165MOL0     C22203   3.878   3.218   8.229 -0.4249 -0.7015 -0.0824
  165MOL0     C22204   3.813   3.113   8.159  0.2547  0.7827  1.0558
  165MOL0     C22205   3.757   3.025   8.093 -0.0243 -1.0643 -0.2200
  165MOL0     C22206   3.264   3.423   8.372 -0.6938 -0.2355  0.2444
  165MOL0     C22207   3.182   3.527   8.332 -0.3799  0.6605 -0.2658
  165MOL0     H22208   2.957   3.820   7.996 -2.9502 -0.3075 -1.1921
  165MOL0     H22209   2.830   4.040   7.939  1.5193  0.4603 -0.2606
  165MOL0     H22210   2.635   4.106   7.940 -0.2206 -0.5500 -1.6076
  165MOL0     H22211   2.543   4.232   8.022  0.0839  1.3036 -2.2004
  165MOL0     H22212   2.735   4.403   7.990  1.8431  1.0463 -0.7332
  165MOL0     H22213   2.828   4.275   7.909 -0.0538 -0.7928  1.9095
  165MOL0     H22214   2.577   4.414   7.838 -0.1509 -0.6236 -1.3902
  165MOL0     H22215   2.723   4.412   7.744  0.2203 -1.1047 -1.5128
  165MOL0     H22216   2.679   4.171   7.688 -0.0103  0.3388 -1.0574
  165MOL0     H22217   2.523   4.174   7.759  1.7554 -0.4324  1.4379
  165MOL0     H22218   2.493   4.219   7.516 -3.0472  1.0287  0.9778
  165MOL0     H22219   2.482   4.377   7.606 -0.7773 -0.4532 -1.4184
  165MOL0     H22220   2.732   4.401   7.534  0.0820 -0.7457  0.8427
  165MOL0     H22221   2.699   4.260   7.427 -4.3319 -0.5564 -3.2578
  165MOL0     H22222   2.664   4.431   7.288  1.8074 -0.6635  0.6997
  165MOL0     H22223   2.492   4.396   7.337  0.1365  0.7828 -0.4602
  165MOL0     H22224   2.641   4.608   7.474 -2.2173 -1.9105  2.2556
  165MOL0     H22225   2.472   4.588   7.462  1.0335 -0.4190  1.6429
  165MOL0     H22226   2.645   4.823   7.385  2.3204 -2.4944 -0.7362
  165MOL0     H22227   2.651   5.045   7.177  0.9189 -0.0882 -3.0157
  165MOL0     H22228   2.545   4.995   7.043  1.0677 -0.4876 -0.1421
  165MOL0     H22229   2.450   5.080   7.326  0.9143  1.0608  0.0725
  165MOL0     H22230   2.343   4.993   7.225  0.4769  0.3188 -0.8239
  165MOL0     H22231   2.394   5.163   7.033 -0.4350  1.7961 -0.6635
  165MOL0     H22232   2.485   5.250   7.147  0.4220 -1.1317  2.8952
  165MOL0     H22233   2.272   5.267   7.290  1.0013  2.1290 -0.7202
  165MOL0     H22234   2.181   5.163   7.178 -0.4248 -0.0227  2.2674
  165MOL0     H22235   2.065   5.423   7.298  0.3171  2.6144 -0.2110
  165MOL0     H22236   1.724   5.358   7.347 -2.8667  3.2192  3.4594
  165MOL0     H22237   1.881   5.431   7.401  1.2195  3.3036 -1.9988
  165MOL0     H22238   1.751   5.533   7.338 -0.7933  0.0536  0.3931
  165MOL0     H22239   1.427   5.578   6.986  0.5882  0.1158 -0.0891
  165MOL0     H22240   1.227   5.621   6.867 -1.1947 -1.7561  0.0917
  165MOL0     H22241   1.146   5.502   6.422 -2.4114 -1.9602 -1.8405
  165MOL0     H22242   1.137   5.367   6.537  1.0905  0.5049  2.3299
  165MOL0     H22243   0.929   5.590   6.566  1.9092 -0.4967  1.5357
  165MOL0     H22244   0.935   5.496   6.412 -2.3582  3.2273 -0.1998
  165MOL0     H22245   0.911   5.378   6.688  0.0779  0.8994  0.6196
  165MOL0     H22246   0.883   5.296   6.536 -0.9681  0.0207 -0.8519
  165MOL0     H22247   0.714   5.518   6.643 -1.3709  0.1987 -1.3575
  165MOL0     H22248   0.700   5.453   6.487  0.6309  1.1877  0.5239
  165MOL0     H22249   0.652   5.310   6.756  0.5345  5.7884  0.0039
  165MOL0     H22250   0.670   5.209   6.621 -0.5885 -0.4783  2.7255
  165MOL0     H22251   0.492   5.323   6.502 -1.6592 -0.0547 -0.9105
  165MOL0     H22252   0.462   5.219   6.651  2.6684  0.0420  0.0187
  165MOL0     H22253   0.434   5.527   6.606 -3.5466  0.0165 -0.3292
  165MOL0     H22254   0.444   5.455   6.774  3.9163 -0.1299 -0.9924
  165MOL0     H22255   0.230   5.459   6.565  1.4455  0.8277 -0.5911
  165MOL0     H22256   0.225   5.473   6.749  1.0245  0.8283  0.1153
  165MOL0     H22257   1.373   5.434   6.527  2.0255  1.4892 -1.5635
  165MOL0     H22258   1.603   5.392   6.635  0.4236 -0.4350  0.7180
  165MOL0     H22259   1.870   5.440   6.849 -0.8311 -1.0301 -0.3074
  165MOL0     H22260   2.107   5.382   6.880  2.2305 -0.4911 -0.0556
  165MOL0     H22261   2.828   4.130   8.351  0.2782 -1.7776  1.1419
  165MOL0     H22262   2.971   3.926   8.401 -3.0175 -2.6100  0.1053
  165MOL0     H22263   3.424   3.686   8.146  0.3317  1.4174  1.3850
  165MOL0     H22264   3.545   3.502   8.200 -0.3054 -0.3310 -1.1501
  165MOL0     H22265   3.596   3.148   8.328  0.2594 -0.2120  1.4225
  165MOL0     H22266   3.600   3.282   8.214  2.5153 -0.3469  1.2100
  165MOL0     H22267   3.678   3.310   8.499  1.3328 -2.0059  0.5257
  165MOL0     H22268   3.728   3.422   8.372  3.1551 -1.1960  1.8808
  165MOL0     H22269   3.819   3.131   8.419  1.9757 -0.6856 -2.1115
  165MOL0     H22270   3.906   3.291   8.432 -2.1021  0.7146  1.7313
  165MOL0     H22271   3.986   3.203   8.226 -0.0649  1.5809  0.2221
  165MOL0     H22272   3.845   3.309   8.179 -2.3601 -0.3727  1.6469
  165MOL0     H22273   3.712   2.937   8.052 -0.2233 -1.2382  0.3724
  165MOL0     H22274   3.231   3.349   8.444 -1.0034  0.8589  1.2456
  165MOL0     H22275   3.079   3.526   8.367 -0.6164  0.9676 -0.9434
  166MOL0     O22276   8.668   9.995   5.827 -0.1692 -0.8385 -0.1971
  166MOL0     C22277   8.636  10.064   5.731 -0.3792  0.2794 -0.4637
  166MOL0     O22278   8.715  10.079   5.623  0.4149 -0.2313  0.2117
  166MOL0     C22279   8.831  10.015   5.605  0.8064  0.6530  0.4947
  166MOL0     C22280   8.949  10.088   5.567  0.7020 -0.1497  0.0575
  166MOL0     C22281   9.064  10.015   5.536 -0.6565 -0.2029 -0.2878
  166MOL0     C22282   9.061   9.878   5.549  0.2870  0.0787 -0.1744
  166MOL0     O22283   9.181   9.811   5.528  0.0837  0.7940 -0.5864
  166MOL0     C22284   9.293   9.868   5.449 -0.9973 -1.1849  0.1307
  166MOL0     C22285   9.382   9.750   5.403 -0.1343 -0.4173  0.0472
  166MOL0     C22286   9.516   9.803   5.340 -0.4549 -0.0251  0.3619
  166MOL0     C22287   9.638   9.705   5.372  0.3548 -0.2990  0.2109
  166MOL0     C22288   9.742   9.707   5.260  0.5012  0.2718  0.2799
  166MOL0     C22289   9.703   9.620   5.146 -0.6254 -0.0560  0.5593
  166MOL0     C22290   9.824   9.626   5.044 -0.0935 -0.0593 -0.2300
  166MOL0     C22291   9.880   9.481   5.017 -0.2609  0.2663  1.0438
  166MOL0     N22292   9.996   9.490   4.925  0.1686 -0.2535  0.2388
  166MOL0     C22293  10.118   9.540   4.951 -0.4830 -0.2234  0.4643
  166MOL0     C22294  10.182   9.522   4.841 -1.3232  0.4799  0.4804
  166MOL0     C22295  10.315   9.587   4.811  0.3986 -0.8098 -0.4389
  166MOL0     C22296  10.422   9.510   4.899 -1.0146 -0.4263 -0.2132
  166MOL0     C22297  10.560   9.589   4.913  0.4139  0.0173 -0.1303
  166MOL0     C22298  10.617   9.622   4.773  0.6293  0.5469 -0.2168
  166MOL0     O22299  10.724   9.709   4.795 -0.1489 -0.5187 -0.2301
  166MOL0     C22300  10.850   9.650   4.777 -0.6663 -0.3568  0.1765
  166MOL0     C22301  10.943   9.615   4.876  1.4408 -0.5524 -0.2560
  166MOL0     C22302  11.073   9.591   4.855 -0.6781 -0.7047  0.3287
  166MOL0     C22303  11.166   9.580   4.976  0.1358  0.3963 -0.6128
  166MOL0     C22304  11.120   9.571   4.719  0.2704 -0.4359 -1.0177
  166MOL0     C22305  11.251   9.519   4.684  0.0724 -0.4227  0.8275
  166MOL0     O22306  11.298   9.421   4.769 -0.0117 -0.2097  0.9195
  166MOL0     C22307  11.431   9.386   4.766  0.2283 -0.4561  1.2059
  166MOL0     C22308  11.484   9.344   4.892 -0.9043 -0.3182 -0.8387
  166MOL0     C22309  11.619   9.300   4.902  0.5098  0.2607  0.3480
  166MOL0     C22310  11.691   9.275   4.782 -0.9268 -0.5456  0.7431
  166MOL0     O22311  11.820   9.226   4.794 -0.2087 -1.2777  0.3558
  166MOL0     C22312  11.870   9.119   4.710 -0.0595  0.4246 -0.2651
  166MOL0     C22313  11.819   8.984   4.741  0.1248  0.3213  0.5511
  166MOL0     C22314  11.822   8.935   4.894  0.1659  0.1494  0.7488
  166MOL0     C22315  11.712   8.830   4.907  0.0182  0.0974 -0.3125
  166MOL0     C22316  11.579   8.906   4.941 -0.0051 -0.6061 -0.8710
  166MOL0     C22317  11.468   8.801   4.950 -0.5071  0.9508  0.5129
  166MOL0     C22318  11.332   8.860   4.980 -0.0501 -0.0410  0.4512
  166MOL0     C22319  11.221   8.780   4.911  0.1905  0.3114 -0.0656
  166MOL0    Cl22320  11.054   8.874   4.903 -0.0840  0.0639  0.2172
  166MOL0     C22321  11.638   9.313   4.653  0.2428  0.1425  0.7848
  166MOL0     C22322  11.512   9.368   4.650 -0.0842  0.3687  0.8450
  166MOL0     O22323  11.322   9.572   4.596  0.4533 -0.6796 -0.4403
  166MOL0     C22324  11.023   9.604   4.616 -0.6723 -0.0016 -0.0417
  166MOL0     C22325  10.898   9.647   4.645  0.0026 -0.1617 -0.3250
  166MOL0     N22326  10.115   9.454   4.751  0.3451 -0.4226  0.3404
  166MOL0     N22327   9.996   9.438   4.799 -0.1615 -0.0111  0.4690
  166MOL0     C22328   8.956   9.806   5.606 -0.3864 -0.0501 -0.2872
  166MOL0     C22329   8.833   9.874   5.620 -0.3883 -0.5797 -0.5987
  166MOL0     C22330   8.512  10.147   5.734  0.8281  0.0340 -1.0545
  166MOL0     C22331   8.489  10.243   5.636  0.6378  0.0270  0.9703
  166MOL0     C22332   8.367  10.316   5.625 -0.4051 -0.0117 -0.7031
  166MOL0     C22333   8.265  10.279   5.715 -0.4743  0.8032  0.6537
  166MOL0     O22334   8.150  10.340   5.678  0.9195  0.0210 -0.3613
  166MOL0     C22335   8.050  10.356   5.778  0.9820  0.5581  0.3752
  166MOL0     C22336   7.926  10.433   5.713  0.2188 -0.2491 -0.0925
  166MOL0     C22337   7.835  10.499   5.824 -0.3959  0.2935 -0.9302
  166MOL0     C22338   7.729  10.403   5.869  0.2490 -0.0889 -0.2451
  166MOL0     C22339   7.638  10.463   5.972 -0.6262 -0.2508  0.5048
  166MOL0     C22340   7.563  10.510   6.058  0.2178  0.4994 -0.7704
  166MOL0     C22341   8.282  10.183   5.813 -0.7479  0.5126 -0.8693
  166MOL0     C22342   8.411  10.120   5.827  0.5744 -0.2961  0.6651
  166MOL0     H22343   8.931  10.195   5.556  3.4453  0.2233 -1.9225
  166MOL0     H22344   9.151  10.072   5.505 -1.3720  1.4232  0.5784
  166MOL0     H22345   9.251   9.922   5.363 -0.6966 -1.0753  0.0508
  166MOL0     H22346   9.353   9.936   5.510 -0.8405 -1.1257 -0.0870
  166MOL0     H22347   9.405   9.691   5.492  0.4530  2.5989  2.0468
  166MOL0     H22348   9.344   9.685   5.323  1.1499  0.5697 -1.4061
  166MOL0     H22349   9.501   9.813   5.232 -0.5437 -1.4447  0.2273
  166MOL0     H22350   9.541   9.899   5.387  1.9435 -0.6040  0.3876
  166MOL0     H22351   9.680   9.752   5.462 -2.4962 -0.6809  1.8469
  166MOL0     H22352   9.602   9.607   5.404 -0.3628  0.3548  1.4645
  166MOL0     H22353   9.755   9.803   5.209  1.1689 -1.8034 -3.9095
  166MOL0     H22354   9.838   9.663   5.289  0.7179 -0.2944 -1.1955
  166MOL0     H22355   9.685   9.514   5.169 -2.3029  0.0963  0.1300
  166MOL0     H22356   9.615   9.661   5.096  1.1856  1.6450 -1.4118
  166MOL0     H22357   9.776   9.660   4.952 -2.5906  0.3019  1.1150
  166MOL0     H22358   9.910   9.689   5.069  0.0351  1.5359 -3.9859
  166MOL0     H22359   9.803   9.414   4.978  1.1865 -1.5591  1.1917
  166MOL0     H22360   9.913   9.433   5.109  0.3167 -1.0241  0.1855
  166MOL0     H22361  10.150   9.591   5.042  1.7591  0.4051 -0.6251
  166MOL0     H22362  10.337   9.584   4.704  2.4480 -0.7109 -0.0722
  166MOL0     H22363  10.312   9.693   4.840 -3.3825 -0.0654 -2.8580
  166MOL0     H22364  10.444   9.406   4.875 -0.5349 -0.6810  1.2285
  166MOL0     H22365  10.376   9.498   4.998  0.3104  1.5856  0.7130
  166MOL0     H22366  10.630   9.525   4.969 -0.3024 -0.4592  0.2479
  166MOL0     H22367  10.547   9.687   4.960 -2.8250  0.5752 -1.8774
  166MOL0     H22368  10.532   9.672   4.725 -2.8779 -1.8736  2.9795
  166MOL0     H22369  10.651   9.542   4.707  2.4858  4.0100 -3.9786
  166MOL0     H22370  10.905   9.621   4.978  1.0235 -2.9110 -0.2175
  166MOL0     H22371  11.267   9.616   4.954  2.3036 -4.2237  0.6694
  166MOL0     H22372  11.126   9.642   5.057  2.1398  2.1909 -0.9149
  166MOL0     H22373  11.176   9.477   5.009 -0.7376  0.9055  1.4431
  166MOL0     H22374  11.443   9.353   4.992  1.8051  0.0498  0.3203
  166MOL0     H22375  11.651   9.280   5.003 -1.2796  3.1853  1.6333
  166MOL0     H22376  11.837   9.141   4.608 -0.6175  1.9947  0.2230
  166MOL0     H22377  11.979   9.128   4.717 -0.3004  2.8314  1.9635
  166MOL0     H22378  11.712   8.980   4.716 -0.5343 -1.9965  3.1840
  166MOL0     H22379  11.887   8.917   4.688 -0.3709 -1.2428  1.7774
  166MOL0     H22380  11.809   9.022   4.959 -0.5429  0.9659 -0.4455
  166MOL0     H22381  11.926   8.906   4.911  0.5508 -0.4642 -2.1374
  166MOL0     H22382  11.700   8.781   4.810  3.0167 -1.1225 -0.1705
  166MOL0     H22383  11.733   8.762   4.990 -2.2451  1.8345  1.8017
  166MOL0     H22384  11.557   8.990   4.876 -2.0707 -0.4137 -0.0087
  166MOL0     H22385  11.593   8.936   5.045  1.6558 -0.8965 -0.9708
  166MOL0     H22386  11.473   8.761   4.848 -1.2204  3.0430 -0.4132
  166MOL0     H22387  11.489   8.725   5.026 -1.3757 -1.3428 -1.4142
  166MOL0     H22388  11.328   8.962   4.942  0.3201  0.0483  0.6473
  166MOL0     H22389  11.318   8.856   5.088 -1.3990 -1.2581  0.2698
  166MOL0     H22390  11.213   8.686   4.966 -0.9852  0.1985 -0.4053
  166MOL0     H22391  11.253   8.760   4.808 -1.1686 -0.5790 -0.3417
  166MOL0     H22392  11.699   9.285   4.568  0.3222 -1.3961  1.3148
  166MOL0     H22393  11.471   9.382   4.551 -0.8539  0.2696  1.1402
  166MOL0     H22394  11.051   9.592   4.511  1.6129 -2.1283  0.7174
  166MOL0     H22395  10.822   9.669   4.571  0.1231 -1.3939 -0.8276
  166MOL0     H22396   8.963   9.699   5.623  0.2371  0.0392  0.0220
  166MOL0     H22397   8.742   9.822   5.649  0.4763 -0.4438  2.6616
  166MOL0     H22398   8.563  10.246   5.556 -0.6344  1.5524 -0.2178
  166MOL0     H22399   8.357  10.408   5.568  0.7455  1.1514  0.8826
  166MOL0     H22400   8.008  10.264   5.821  3.4427 -0.2213  1.2770
  166MOL0     H22401   8.087  10.414   5.863 -2.8118  3.3228  0.4222
  166MOL0     H22402   7.879  10.369   5.638 -0.6044 -0.1075  0.2862
  166MOL0     H22403   7.963  10.511   5.646  3.1610 -2.1369 -0.8533
  166MOL0     H22404   7.769  10.579   5.791  1.2401  1.6598 -1.0192
  166MOL0     H22405   7.890  10.538   5.911 -0.3431 -2.3336  0.3253
  166MOL0     H22406   7.786  10.327   5.923 -0.1603  0.5253  1.0831
  166MOL0     H22407   7.671  10.375   5.781  0.7200 -0.3792 -0.4688
  166MOL0     H22408   7.524  10.552   6.148 -0.1784  1.7360 -1.5060
  166MOL0     H22409   8.200  10.154   5.878 -1.1763  1.5858 -0.9090
  166MOL0     H22410   8.412  10.046   5.907  0.1101 -0.0999  0.8492
  167MOL0     O22411   1.965   2.691   3.087 -0.0779 -0.0541  0.1962
  167MOL0     C22412   1.908   2.589   3.062  0.0177  0.4988  0.4037
  167MOL0     O22413   1.917   2.514   2.944  0.1547 -0.2476 -0.2113
  167MOL0     C22414   2.005   2.541   2.847  0.8220  0.2791 -0.3480
  167MOL0     C22415   2.149   2.528   2.864 -0.5391 -0.8699  1.2156
  167MOL0     C22416   2.233   2.555   2.755 -0.7008  0.3288 -0.5317
  167MOL0     C22417   2.180   2.564   2.619 -0.3708  0.4074 -0.3970
  167MOL0     O22418   2.252   2.594   2.510  1.4038 -0.7791 -0.4444
  167MOL0     C22419   2.390   2.623   2.514 -0.1059 -0.6063 -1.4667
  167MOL0     C22420   2.427   2.696   2.390 -1.0759  0.1054 -0.1284
  167MOL0     C22421   2.462   2.606   2.270 -1.1423 -0.4311 -1.0991
  167MOL0     C22422   2.349   2.519   2.203  0.4124 -0.3421 -0.2636
  167MOL0     C22423   2.397   2.438   2.087  0.6932 -0.2039  0.1608
  167MOL0     C22424   2.309   2.318   2.049  0.1411 -0.6683  0.1220
  167MOL0     C22425   2.172   2.344   1.984  0.2200  0.0461 -0.4014
  167MOL0     C22426   2.104   2.208   1.961  0.5898 -0.7330 -0.2395
  167MOL0     N22427   1.964   2.206   1.914 -0.1397  0.1559  0.3415
  167MOL0     C22428   1.864   2.127   1.975  0.5903  0.4995  0.7873
  167MOL0     C22429   1.746   2.167   1.915 -0.3292  0.2563 -0.9860
  167MOL0     C22430   1.610   2.127   1.935  0.4323 -0.0023  0.0968
  167MOL0     C22431   1.605   1.981   1.961 -0.2347 -0.0894 -0.3367
  167MOL0     C22432   1.462   1.926   1.975  0.2838 -0.3014 -0.1051
  167MOL0     C22433   1.364   2.005   2.066  0.9814  0.1320  0.4391
  167MOL0     O22434   1.253   1.912   2.062 -0.2575 -0.5665 -0.3545
  167MOL0     C22435   1.147   1.934   2.153 -0.4665 -0.1835  0.5771
  167MOL0     C22436   1.144   2.039   2.246 -0.7273 -1.1882 -0.6568
  167MOL0     C22437   1.031   2.058   2.331  0.3611  0.1847  0.2342
  167MOL0     C22438   1.037   2.156   2.451  0.2063 -0.8705 -0.1134
  167MOL0     C22439   0.911   1.988   2.306 -0.4431 -0.1725  0.5707
  167MOL0     C22440   0.775   2.002   2.389 -1.0308 -0.0532 -0.8109
  167MOL0     O22441   0.686   1.901   2.379  0.0983  0.2251 -0.3297
  167MOL0     C22442   0.561   1.899   2.435 -0.2794  0.5314 -0.5968
  167MOL0     C22443   0.518   1.786   2.510 -1.2183  0.4023  0.7548
  167MOL0     C22444   0.391   1.774   2.550  0.4781 -0.3511 -1.3323
  167MOL0     C22445   0.286   1.866   2.521 -0.5395 -0.2687 -0.5843
  167MOL0     O22446   0.148   1.854   2.555 -0.4726  0.1957  0.3344
  167MOL0     C22447   0.091   1.726   2.584 -0.4584 -1.1649  0.8918
  167MOL0     C22448   0.100   1.638   2.455 -0.5222  0.4993 -0.8594
  167MOL0     C22449  -0.015   1.656   2.355 -0.6955  0.0869  0.4341
  167MOL0     C22450  -0.022   1.560   2.238  0.0836 -0.7373  0.9814
  167MOL0     C22451  -0.111   1.437   2.278 -0.3379 -0.3634 -0.7103
  167MOL0     C22452  -0.260   1.452   2.235  0.3999 -0.1042 -1.0620
  167MOL0     C22453  -0.345   1.329   2.262  0.5631 -0.0017 -0.9581
  167MOL0     C22454  -0.393   1.340   2.402  0.1577 -0.3002  0.2744
  167MOL0    Cl22455  -0.504   1.195   2.432  0.2190 -0.2431  0.1760
  167MOL0     C22456   0.326   1.971   2.439  0.3776  0.1260  0.0861
  167MOL0     C22457   0.462   1.991   2.394 -0.2270  0.1124  0.3428
  167MOL0     O22458   0.758   2.109   2.443  0.5215 -0.5013 -0.4950
  167MOL0     C22459   0.921   1.892   2.203 -0.4055  0.2820 -0.5347
  167MOL0     C22460   1.035   1.862   2.133 -0.7309  0.0813  0.0793
  167MOL0     N22461   1.781   2.280   1.836  0.7506  0.0655 -0.1016
  167MOL0     N22462   1.907   2.299   1.832 -0.3271 -0.2794  0.0994
  167MOL0     C22463   2.043   2.579   2.609 -0.1032 -0.4424  0.1947
  167MOL0     C22464   1.955   2.553   2.716  0.1060  0.3089 -0.3301
  167MOL0     C22465   1.813   2.532   3.165 -0.4598 -0.6396 -0.5397
  167MOL0     C22466   1.799   2.582   3.294 -0.3326  1.3169  0.5085
  167MOL0     C22467   1.698   2.526   3.380  0.2267  0.6475  0.0688
  167MOL0     C22468   1.618   2.413   3.347  0.4588  0.0960  0.8177
  167MOL0     O22469   1.525   2.345   3.419 -0.0354  0.6832  0.7066
  167MOL0     C22470   1.498   2.403   3.551  0.4410 -0.2985  0.4102
  167MOL0     C22471   1.380   2.334   3.624 -0.1929  0.5623  0.0773
  167MOL0     C22472   1.262   2.314   3.530 -1.2590  0.1598 -0.0914
  167MOL0     C22473   1.167   2.206   3.570  0.0878  0.5723 -0.8368
  167MOL0     C22474   1.060   2.197   3.470 -0.1251  0.4340  0.3020
  167MOL0     C22475   0.966   2.174   3.393 -0.2300 -0.7150  0.5154
  167MOL0     C22476   1.644   2.365   3.217 -0.0359 -0.2554  0.5689
  167MOL0     C22477   1.733   2.423   3.127  0.3184 -0.3551  0.1175
  167MOL0     H22478   2.200   2.524   2.960 -1.7152  2.7214  2.1654
  167MOL0     H22479   2.339   2.558   2.777 -0.6862  0.3486 -0.6009
  167MOL0     H22480   2.410   2.697   2.592 -2.5782  0.9103 -2.1429
  167MOL0     H22481   2.448   2.531   2.529 -0.2746 -0.2051  2.5762
  167MOL0     H22482   2.360   2.782   2.378 -0.5115  0.5352 -0.2524
  167MOL0     H22483   2.515   2.748   2.428 -1.1136  0.3319 -0.3487
  167MOL0     H22484   2.501   2.674   2.193 -1.2565  2.1898  0.9999
  167MOL0     H22485   2.541   2.538   2.304 -0.6760  1.0778  1.0792
  167MOL0     H22486   2.308   2.444   2.272 -1.1924 -0.9989 -1.8427
  167MOL0     H22487   2.260   2.581   2.187  0.4788  0.2906  1.4988
  167MOL0     H22488   2.416   2.504   2.002 -0.5586 -1.8722 -1.5075
  167MOL0     H22489   2.481   2.378   2.123  0.2656 -1.6824 -1.1721
  167MOL0     H22490   2.357   2.242   1.987  0.0314 -0.5140 -0.1557
  167MOL0     H22491   2.290   2.270   2.145 -1.8818 -1.2655 -0.5342
  167MOL0     H22492   2.119   2.410   2.053 -2.6745  0.2204 -2.5964
  167MOL0     H22493   2.184   2.396   1.889  0.5109  0.6391 -0.0420
  167MOL0     H22494   2.103   2.165   2.062  0.4505  1.7632  0.8775
  167MOL0     H22495   2.170   2.156   1.891 -1.8277 -1.0511 -2.4106
  167MOL0     H22496   1.871   2.064   2.063 -1.2947 -2.3980 -0.9555
  167MOL0     H22497   1.575   2.179   2.025 -0.2248  0.2015 -0.2688
  167MOL0     H22498   1.547   2.147   1.848 -1.2359  0.6754  1.3885
  167MOL0     H22499   1.649   1.958   2.058  0.5689  1.8042 -0.2165
  167MOL0     H22500   1.650   1.920   1.883  0.2593 -0.1657  0.0060
  167MOL0     H22501   1.460   1.822   2.007  1.1874  0.7371  3.8275
  167MOL0     H22502   1.430   1.917   1.871 -2.5072  0.9938  0.5496
  167MOL0     H22503   1.338   2.101   2.019 -0.6290 -0.0238  0.9673
  167MOL0     H22504   1.405   2.032   2.164  1.9351  0.7226 -0.0986
  167MOL0     H22505   1.224   2.110   2.261 -2.4694  0.4373  1.6303
  167MOL0     H22506   1.135   2.193   2.484 -1.1441  1.3166  1.7052
  167MOL0     H22507   0.966   2.237   2.437  0.0261 -1.0287 -0.1117
  167MOL0     H22508   1.011   2.094   2.537  1.0907  1.7421  2.1926
  167MOL0     H22509   0.593   1.709   2.522 -1.1836  0.1303 -0.9268
  167MOL0     H22510   0.367   1.685   2.608 -0.2718  0.6889  0.0053
  167MOL0     H22511   0.145   1.679   2.667  0.2574 -2.0775 -0.0578
  167MOL0     H22512  -0.012   1.751   2.612  0.4723  6.5264 -0.4860
  167MOL0     H22513   0.193   1.657   2.401 -0.3895  1.2288 -0.3853
  167MOL0     H22514   0.095   1.533   2.487 -2.3612  0.7475 -0.1893
  167MOL0     H22515  -0.017   1.759   2.321  2.0521 -0.5695 -2.1856
  167MOL0     H22516  -0.115   1.646   2.398 -1.1943  0.1803 -0.6784
  167MOL0     H22517  -0.062   1.600   2.145 -1.4914 -1.4187  1.3459
  167MOL0     H22518   0.078   1.524   2.214 -0.7262 -1.3118 -1.8007
  167MOL0     H22519  -0.108   1.409   2.384 -0.9450  0.6729 -0.4027
  167MOL0     H22520  -0.063   1.355   2.224  3.2489  1.3534 -0.4401
  167MOL0     H22521  -0.313   1.540   2.273  2.3663  0.7058 -0.0811
  167MOL0     H22522  -0.264   1.471   2.127  1.6100  0.0950 -1.0846
  167MOL0     H22523  -0.298   1.232   2.244 -0.1234 -0.6362  0.4974
  167MOL0     H22524  -0.425   1.327   2.187  0.8671  0.9333 -1.3217
  167MOL0     H22525  -0.446   1.434   2.416  1.1205  0.1251  1.2005
  167MOL0     H22526  -0.316   1.340   2.479  0.0744  0.3803  0.3590
  167MOL0     H22527   0.247   2.044   2.426  0.9176  0.6027 -0.5415
  167MOL0     H22528   0.495   2.084   2.348 -1.1445  0.2502 -0.0563
  167MOL0     H22529   0.848   1.814   2.184  2.9729 -3.2255 -0.1404
  167MOL0     H22530   1.025   1.782   2.061 -1.0733 -1.6365  1.9432
  167MOL0     H22531   1.999   2.605   2.513 -2.1584 -0.7932  0.9975
  167MOL0     H22532   1.847   2.555   2.705 -0.0445  2.6585  0.8141
  167MOL0     H22533   1.848   2.676   3.316 -1.5755  2.1227 -0.0329
  167MOL0     H22534   1.702   2.564   3.481  4.1754  3.0471 -0.7967
  167MOL0     H22535   1.593   2.400   3.604 -1.6358  2.3259  4.9236
  167MOL0     H22536   1.470   2.508   3.535  2.1414  0.4357  1.9532
  167MOL0     H22537   1.341   2.381   3.715  0.4945 -0.9576  1.2031
  167MOL0     H22538   1.420   2.236   3.654 -0.0815  1.4503  3.2634
  167MOL0     H22539   1.293   2.286   3.429 -3.4672 -4.6519  0.2441
  167MOL0     H22540   1.211   2.410   3.540 -1.2293  0.2654 -0.9031
  167MOL0     H22541   1.130   2.232   3.670  0.2762  1.9326 -1.1094
  167MOL0     H22542   1.219   2.110   3.584 -0.1038  0.8380  2.4518
  167MOL0     H22543   0.890   2.160   3.319 -0.0919  0.3459  0.1673
  167MOL0     H22544   1.597   2.275   3.177 -2.8635  0.3507  2.2131
  167MOL0     H22545   1.755   2.370   3.034  2.2571 -0.4985  0.6095
  168MOL0     O22546   7.146   1.823   9.969  0.5140 -0.1334  0.2536
  168MOL0     C22547   7.218   1.870   9.880  0.1601 -0.6841  0.1254
  168MOL0     O22548   7.171   1.904   9.757 -0.6070 -0.0413  0.1271
  168MOL0     C22549   7.041   1.871   9.726  0.1075 -0.0241  0.4699
  168MOL0     C22550   6.932   1.963   9.735  0.1690  0.3662 -0.2787
  168MOL0     C22551   6.801   1.924   9.700  0.2529  0.1690 -1.4973
  168MOL0     C22552   6.779   1.788   9.670  0.4540 -0.5758  0.2305
  168MOL0     O22553   6.660   1.729   9.640  0.6056  0.3080 -0.1652
  168MOL0     C22554   6.544   1.809   9.631 -0.7725  0.0796 -0.5546
  168MOL0     C22555   6.445   1.715   9.567 -0.0899  1.0344  1.0294
  168MOL0     C22556   6.312   1.777   9.518 -0.6343  0.1220  0.4180
  168MOL0     C22557   6.212   1.667   9.485 -0.5378  0.1414  0.6984
  168MOL0     C22558   6.068   1.719   9.488 -0.4002 -0.2778 -0.1820
  168MOL0     C22559   5.978   1.618   9.433  0.3739 -0.0971  0.8696
  168MOL0     C22560   5.833   1.666   9.467 -0.1006 -0.0208 -0.6077
  168MOL0     C22561   5.728   1.595   9.387  0.4749  0.2579 -0.1039
  168MOL0     N22562   5.588   1.622   9.438  0.0101 -0.6252  1.1683
  168MOL0     C22563   5.553   1.614   9.570  0.8904 -0.5212 -0.7069
  168MOL0     C22564   5.411   1.629   9.561 -0.0197  0.4109  0.1782
  168MOL0     C22565   5.316   1.657   9.685  0.2771  0.2181 -0.2370
  168MOL0     C22566   5.185   1.587   9.657  0.2698 -0.6656  0.1978
  168MOL0     C22567   5.079   1.608   9.762 -0.1142  0.6300  0.2795
  168MOL0     C22568   4.943   1.554   9.713  1.0327  0.2973  0.2419
  168MOL0     O22569   4.868   1.636   9.631  0.2680  0.0313 -0.1861
  168MOL0     C22570   4.797   1.740   9.697 -0.5768 -0.1955  0.2416
  168MOL0     C22571   4.836   1.875   9.667 -0.2047 -0.8972  0.1579
  168MOL0     C22572   4.759   1.979   9.702  0.3259  0.0896 -0.5292
  168MOL0     C22573   4.820   2.118   9.677 -0.2996  0.4118  0.2013
  168MOL0     C22574   4.644   1.959   9.782  0.3033 -0.5730  0.1478
  168MOL0     C22575   4.546   2.056   9.828  0.2916  0.6316  0.7802
  168MOL0     O22576   4.425   2.000   9.861 -0.2056  0.0033  0.4745
  168MOL0     C22577   4.322   2.075   9.921 -0.7503  0.5763  0.5313
  168MOL0     C22578   4.279   2.195   9.858 -0.5220 -1.4006  0.7121
  168MOL0     C22579   4.173   2.259   9.917 -0.3282 -0.4337  1.3245
  168MOL0     C22580   4.095   2.203  10.014 -0.0643  0.5249 -0.8834
  168MOL0     O22581   3.979   2.256  10.062 -0.7330 -0.0444 -0.3301
  168MOL0     C22582   3.931   2.375   9.994 -0.1270  0.2577  0.4216
  168MOL0     C22583   3.797   2.395  10.057 -0.1505 -0.7586 -0.0545
  168MOL0     C22584   3.705   2.294  10.005 -0.1278  0.4924 -0.6167
  168MOL0     C22585   3.559   2.331  10.035  0.2493  0.0298 -1.2169
  168MOL0     C22586   3.455   2.242   9.962  1.3984 -0.2417 -0.1699
  168MOL0     C22587   3.502   2.096   9.976  0.6404 -0.2552  0.8383
  168MOL0     C22588   3.404   1.995   9.904 -0.6923  0.4399 -0.4512
  168MOL0     C22589   3.475   1.856   9.907  0.7711  0.5568 -0.2428
  168MOL0    Cl22590   3.381   1.733   9.805 -0.3503 -0.0810 -0.2084
  168MOL0     C22591   4.131   2.080  10.069 -0.1392  0.3326  0.1439
  168MOL0     C22592   4.254   2.022  10.031 -0.4645  0.3055  1.1867
  168MOL0     O22593   4.587   2.169   9.858  0.8662 -0.6437  0.5708
  168MOL0     C22594   4.620   1.821   9.819  0.3847 -0.8804 -0.3455
  168MOL0     C22595   4.689   1.714   9.769  0.2747  0.6811  0.3001
  168MOL0     N22596   5.372   1.640   9.425 -0.4995  0.4938 -0.4081
  168MOL0     N22597   5.481   1.636   9.362  0.5508 -0.6689 -0.4044
  168MOL0     C22598   6.891   1.700   9.660  0.3639 -0.8685 -0.2310
  168MOL0     C22599   7.019   1.744   9.685  0.5263  0.4329  0.6272
  168MOL0     C22600   7.358   1.903   9.913  0.3347 -0.5087  0.2356
  168MOL0     C22601   7.441   2.003   9.840  0.6504  0.5746 -0.4653
  168MOL0     C22602   7.574   2.033   9.883 -0.3081 -0.0084 -0.4726
  168MOL0     C22603   7.628   1.970   9.998  0.3887 -0.2968  0.3597
  168MOL0     O22604   7.753   2.006  10.029 -0.6135  0.3474 -0.8782
  168MOL0     C22605   7.853   2.024   9.925 -0.1990 -0.4449  0.1160
  168MOL0     C22606   7.988   2.034   9.991 -0.2795 -0.6723  0.0427
  168MOL0     C22607   8.105   2.087   9.899  0.1310  1.0169  0.2423
  168MOL0     C22608   8.137   1.991   9.789 -0.7958  0.3999  0.4852
  168MOL0     C22609   8.270   1.923   9.821 -0.1989 -0.3777  0.1539
  168MOL0     C22610   8.377   1.870   9.863 -0.0177  0.4758  0.0985
  168MOL0     C22611   7.553   1.873  10.065  0.2858  0.0784  0.3132
  168MOL0     C22612   7.425   1.842  10.021  0.6840 -0.3696  0.1327
  168MOL0     H22613   6.955   2.068   9.754  1.7423  0.0716 -0.4166
  168MOL0     H22614   6.714   1.986   9.723 -1.3166 -2.2120 -0.5540
  168MOL0     H22615   6.499   1.841   9.725 -2.7005  2.9948 -2.3220
  168MOL0     H22616   6.550   1.895   9.564 -4.3055  1.5818  0.8328
  168MOL0     H22617   6.494   1.671   9.479  1.0381  1.8882  1.2000
  168MOL0     H22618   6.427   1.632   9.635 -1.1486  0.5510  0.1817
  168MOL0     H22619   6.257   1.839   9.589 -1.3669 -2.9523  2.7529
  168MOL0     H22620   6.335   1.835   9.428 -0.4650 -0.5166  0.0479
  168MOL0     H22621   6.237   1.623   9.388 -0.5002  3.1217 -0.7619
  168MOL0     H22622   6.218   1.593   9.565  1.4280  1.9610  2.3597
  168MOL0     H22623   6.037   1.744   9.590  1.4290 -1.3783  0.7046
  168MOL0     H22624   6.067   1.814   9.433  2.4057  1.1090  1.8355
  168MOL0     H22625   5.988   1.605   9.325  0.8910  1.4804  0.6964
  168MOL0     H22626   6.002   1.525   9.485 -0.8073 -1.3254 -0.6740
  168MOL0     H22627   5.815   1.645   9.573 -0.2051 -0.4154 -0.6989
  168MOL0     H22628   5.818   1.772   9.446 -1.8450 -0.6635 -3.1974
  168MOL0     H22629   5.743   1.489   9.408 -0.2063  0.5485  2.1319
  168MOL0     H22630   5.734   1.619   9.281  1.7120  1.5526  0.2205
  168MOL0     H22631   5.621   1.601   9.654  1.3713  2.2749 -0.5759
  168MOL0     H22632   5.357   1.611   9.775 -0.6419 -0.1327  0.0197
  168MOL0     H22633   5.301   1.764   9.702 -2.5617 -0.2727  0.8479
  168MOL0     H22634   5.199   1.479   9.648  0.0790 -0.7505  0.8648
  168MOL0     H22635   5.149   1.634   9.566  1.6718  1.0217  0.4672
  168MOL0     H22636   5.066   1.713   9.788  0.6417  0.8382 -0.1640
  168MOL0     H22637   5.112   1.552   9.851  2.0871  2.6040  0.7971
  168MOL0     H22638   4.892   1.534   9.808 -1.1237  2.3428 -0.4038
  168MOL0     H22639   4.946   1.454   9.667 -1.3912  1.4865 -2.8765
  168MOL0     H22640   4.932   1.897   9.622 -1.1934  0.8333 -1.2700
  168MOL0     H22641   4.872   2.141   9.770  0.5425  0.4367 -0.2655
  168MOL0     H22642   4.886   2.106   9.591 -2.1691 -0.7713 -1.1554
  168MOL0     H22643   4.735   2.185   9.657 -2.4289 -2.3182 -0.5795
  168MOL0     H22644   4.337   2.252   9.786  2.2349 -2.6206  1.8348
  168MOL0     H22645   4.150   2.363   9.897 -2.8206 -1.3636 -1.2018
  168MOL0     H22646   3.992   2.466   9.998 -1.4525  1.2051 -0.3775
  168MOL0     H22647   3.917   2.350   9.888 -0.7902 -1.7039  0.9391
  168MOL0     H22648   3.811   2.379  10.164  1.2250 -3.3885 -0.5523
  168MOL0     H22649   3.746   2.486  10.024 -2.5428 -0.3924  3.9765
  168MOL0     H22650   3.728   2.210  10.071 -1.7468  1.5654  1.4518
  168MOL0     H22651   3.707   2.275   9.897 -1.7703  0.7368 -0.7233
  168MOL0     H22652   3.537   2.328  10.142 -0.8711  1.2422 -1.3893
  168MOL0     H22653   3.551   2.437  10.010  0.0450  1.4593  3.8493
  168MOL0     H22654   3.464   2.274   9.858 -0.5882  1.0818  0.0093
  168MOL0     H22655   3.354   2.258  10.002  1.3782  1.0332 -0.6778
  168MOL0     H22656   3.597   2.071   9.928 -0.2049  0.6258 -1.4443
  168MOL0     H22657   3.503   2.073  10.083  3.1031 -0.6137  0.7822
  168MOL0     H22658   3.378   2.031   9.804  1.5476  0.7087 -0.9877
  168MOL0     H22659   3.316   1.983   9.969  1.0077  2.0987  2.3744
  168MOL0     H22660   3.493   1.821  10.009  0.4159 -1.9858 -0.9839
  168MOL0     H22661   3.574   1.859   9.861  0.3347  0.8747 -1.1935
  168MOL0     H22662   4.065   2.041  10.146 -3.1414  0.7340 -2.0481
  168MOL0     H22663   4.287   1.931  10.081  0.9006  0.3792  0.4763
  168MOL0     H22664   4.547   1.792   9.894  1.3307  0.0073  0.9640
  168MOL0     H22665   4.654   1.617   9.802 -0.9278  0.9916  0.0228
  168MOL0     H22666   6.881   1.593   9.645  1.1967 -1.4639  2.7218
  168MOL0     H22667   7.103   1.676   9.671 -1.2111 -1.4375 -1.4963
  168MOL0     H22668   7.396   2.059   9.758 -1.1428  1.2514  0.9223
  168MOL0     H22669   7.625   2.098   9.814  0.8671 -3.5729 -3.2947
  168MOL0     H22670   7.843   1.942   9.853  0.0266  1.6892 -2.5453
  168MOL0     H22671   7.828   2.117   9.872  2.1775 -0.4129 -1.0868
  168MOL0     H22672   8.006   1.932  10.027  0.8505 -1.4993 -2.5926
  168MOL0     H22673   7.977   2.105  10.074  1.3267 -0.3366 -0.0032
  168MOL0     H22674   8.189   2.119   9.961 -0.7419  0.9551  1.5042
  168MOL0     H22675   8.065   2.177   9.850 -2.0965 -0.4637 -0.8468
  168MOL0     H22676   8.145   2.043   9.694 -0.2433  0.7485  0.7204
  168MOL0     H22677   8.056   1.918   9.781 -0.7466  0.2780  1.0643
  168MOL0     H22678   8.472   1.839   9.903 -1.4678 -2.5091  1.5258
  168MOL0     H22679   7.588   1.817  10.151 -0.9513 -1.9782 -0.4579
  168MOL0     H22680   7.375   1.764  10.077  1.3605 -3.4451 -3.2005
  169MOL0     O22681  11.066   0.107   1.097 -0.4886 -0.4168  1.2349
  169MOL0     C22682  11.011   0.211   1.137  0.8995  0.3858  0.0038
  169MOL0     O22683  10.882   0.257   1.105  0.5937 -0.0958 -0.3914
  169MOL0     C22684  10.824   0.196   1.001 -0.0353  0.4838 -0.5320
  169MOL0     C22685  10.852   0.227   0.869 -0.4867  0.7373 -0.1246
  169MOL0     C22686  10.778   0.164   0.764  0.0257  0.1615  0.9589
  169MOL0     C22687  10.671   0.076   0.801 -0.0714 -0.8319  0.9498
  169MOL0     O22688  10.590   0.027   0.698  0.1350 -0.4952  0.1049
  169MOL0     C22689  10.467  -0.048   0.727  0.0613 -0.1981 -0.0335
  169MOL0     C22690  10.376  -0.054   0.604 -0.1771 -0.3068 -0.3703
  169MOL0     C22691  10.235  -0.026   0.636  0.1408 -0.5128 -0.1361
  169MOL0     C22692  10.163  -0.147   0.704 -0.0656 -0.4027  0.2147
  169MOL0     C22693  10.013  -0.158   0.671  0.3618  0.2740 -0.0766
  169MOL0     C22694   9.926  -0.035   0.711  0.8825 -0.6675 -0.1654
  169MOL0     C22695   9.775  -0.056   0.675 -1.6581 -0.2249  0.4060
  169MOL0     C22696   9.714  -0.185   0.742  0.3850 -0.4882  0.1558
  169MOL0     N22697   9.726  -0.201   0.887  0.0200 -0.7539 -0.0397
  169MOL0     C22698   9.736  -0.105   0.990  0.1410  0.0766  0.7912
  169MOL0     C22699   9.708  -0.160   1.107 -0.3075  0.0520 -0.2703
  169MOL0     C22700   9.686  -0.090   1.239 -0.0649 -0.5461  0.0883
  169MOL0     C22701   9.791   0.014   1.283 -0.3092 -0.5519  0.6203
  169MOL0     C22702   9.734   0.107   1.394 -0.4150 -0.2903  0.7292
  169MOL0     C22703   9.715   0.032   1.524 -0.7138  0.1855  0.1113
  169MOL0     O22704   9.657   0.116   1.622 -0.3012  0.2674 -0.0900
  169MOL0     C22705   9.522   0.124   1.640 -0.6806 -0.3327  0.1538
  169MOL0     C22706   9.424   0.066   1.550  0.1004  0.1714  0.8017
  169MOL0     C22707   9.286   0.076   1.566 -0.1338  0.2617 -0.5652
  169MOL0     C22708   9.190   0.019   1.465 -1.0307 -0.5574 -0.3511
  169MOL0     C22709   9.248   0.113   1.694 -0.3447  0.0577  0.0097
  169MOL0     C22710   9.118   0.065   1.756  0.2424  0.4537  0.2100
  169MOL0     O22711   9.084   0.126   1.870 -1.0076 -0.0367  0.2005
  169MOL0     C22712   8.971   0.083   1.926  0.2145 -0.4920  0.0712
  169MOL0     C22713   8.868   0.179   1.945  1.1168 -0.7118  0.6561
  169MOL0     C22714   8.745   0.146   2.006 -0.2288  0.3057 -0.6727
  169MOL0     C22715   8.736   0.021   2.078 -0.4116 -0.3558  0.0380
  169MOL0     O22716   8.636  -0.028   2.158 -0.8107  0.2824  0.7436
  169MOL0     C22717   8.508   0.028   2.148  0.2838  0.2742  0.5039
  169MOL0     C22718   8.433   0.022   2.276 -0.0461 -0.5189  0.0624
  169MOL0     C22719   8.434  -0.118   2.335 -0.4913  0.2363  0.6109
  169MOL0     C22720   8.321  -0.121   2.440  0.2977  0.3837  0.0142
  169MOL0     C22721   8.311  -0.247   2.521  1.1338  0.6378 -1.1872
  169MOL0     C22722   8.167  -0.274   2.583 -0.1226  0.9237  0.3649
  169MOL0     C22723   8.065  -0.328   2.478 -0.3419 -0.1318  0.3811
  169MOL0     C22724   7.920  -0.317   2.517 -0.6746 -1.0268  0.8487
  169MOL0    Cl22725   7.863  -0.137   2.517  0.3776  0.2346  0.2616
  169MOL0     C22726   8.847  -0.057   2.068  0.4239  0.9103  0.6839
  169MOL0     C22727   8.958  -0.037   1.989 -0.8153  0.4982  0.8088
  169MOL0     O22728   9.057  -0.029   1.703 -0.6113 -0.2283 -0.1073
  169MOL0     C22729   9.345   0.180   1.779  0.7737 -0.7363  0.5149
  169MOL0     C22730   9.479   0.188   1.748 -0.3342 -0.7874  0.2284
  169MOL0     N22731   9.707  -0.296   1.079  0.1546  0.2098 -0.0821
  169MOL0     N22732   9.705  -0.315   0.961  0.1507 -0.0018 -0.0209
  169MOL0     C22733  10.645   0.048   0.932 -0.3915  0.5381 -0.3816
  169MOL0     C22734  10.721   0.103   1.032 -0.5609 -0.0626  0.0851
  169MOL0     C22735  11.087   0.284   1.251 -0.0113  1.1904  0.4880
  169MOL0     C22736  11.021   0.383   1.324  0.5387  0.2143  0.5648
  169MOL0     C22737  11.096   0.468   1.406 -0.7559 -0.2679 -0.3816
  169MOL0     C22738  11.232   0.429   1.428  0.6899  0.1271  0.3867
  169MOL0     O22739  11.319   0.482   1.514 -0.4232  0.6722 -0.1354
  169MOL0     C22740  11.283   0.550   1.632  0.0664  1.0891  0.1179
  169MOL0     C22741  11.391   0.542   1.736 -0.2751 -0.5212  0.2503
  169MOL0     C22742  11.353   0.617   1.860 -0.0065  0.1538  0.0984
  169MOL0     C22743  11.444   0.605   1.978  0.4620 -0.2211 -0.2844
  169MOL0     C22744  11.551   0.708   1.984  0.3515  0.7599 -0.2110
  169MOL0     C22745  11.634   0.791   1.980 -0.3003 -0.1544  1.0562
  169MOL0     C22746  11.298   0.328   1.348 -0.1941  0.3527  0.0582
  169MOL0     C22747  11.221   0.263   1.255 -0.1054 -0.3301 -0.5499
  169MOL0     H22748  10.938   0.292   0.857  1.6274 -1.7160  0.7609
  169MOL0     H22749  10.781   0.192   0.659 -2.3574  1.0910  1.0708
  169MOL0     H22750  10.487  -0.150   0.761 -0.7580 -0.2216  0.4124
  169MOL0     H22751  10.410  -0.003   0.809  2.3962  1.0683  0.9880
  169MOL0     H22752  10.406   0.029   0.540 -2.1571  0.4535 -0.4005
  169MOL0     H22753  10.398  -0.150   0.556  1.6014 -0.8777  1.4415
  169MOL0     H22754  10.238   0.061   0.703 -2.4388 -0.2250 -0.3021
  169MOL0     H22755  10.178   0.009   0.550 -0.0778  1.3550  0.7254
  169MOL0     H22756  10.210  -0.235   0.661  0.9378  0.2801 -0.1191
  169MOL0     H22757  10.184  -0.144   0.812  1.9052  0.4028 -0.1540
  169MOL0     H22758   9.987  -0.159   0.565 -1.9674  0.3175  0.4419
  169MOL0     H22759   9.982  -0.246   0.728  0.3494 -0.0956 -0.6465
  169MOL0     H22760   9.928  -0.013   0.818 -0.3115  4.0852 -0.9010
  169MOL0     H22761   9.951   0.056   0.657 -0.5096  1.6381  2.7636
  169MOL0     H22762   9.726   0.033   0.714  2.7945  2.7617 -0.0778
  169MOL0     H22763   9.753  -0.043   0.568 -1.7018  1.4436  0.5977
  169MOL0     H22764   9.747  -0.279   0.696 -1.3002 -0.8645 -0.3887
  169MOL0     H22765   9.608  -0.184   0.715  0.6925 -1.1515 -1.1832
  169MOL0     H22766   9.746   0.001   0.970  2.4287 -0.7183 -3.3660
  169MOL0     H22767   9.604  -0.021   1.218 -0.2674 -0.7176  0.3082
  169MOL0     H22768   9.669  -0.153   1.327  3.7970  0.7623  1.9847
  169MOL0     H22769   9.840   0.075   1.207 -0.1120 -0.0287  1.1542
  169MOL0     H22770   9.861  -0.052   1.335 -2.0076 -3.3451 -0.4624
  169MOL0     H22771   9.643   0.157   1.359  0.4495  0.4595 -0.4998
  169MOL0     H22772   9.796   0.191   1.426  2.0567 -1.9680  0.5673
  169MOL0     H22773   9.808  -0.008   1.566 -2.3172 -2.2309  1.6130
  169MOL0     H22774   9.655  -0.059   1.513  2.5546 -2.2576  0.6632
  169MOL0     H22775   9.457   0.021   1.457  1.4020 -0.1734  1.4199
  169MOL0     H22776   9.177  -0.087   1.486 -2.1169 -0.0752  1.7049
  169MOL0     H22777   9.091   0.064   1.474 -1.3066 -1.4442  1.2372
  169MOL0     H22778   9.233   0.048   1.368 -1.0779  1.3141  0.1502
  169MOL0     H22779   8.887   0.272   1.893 -2.5252  0.6272  1.3812
  169MOL0     H22780   8.668   0.223   2.006 -0.0639  0.4790 -0.2056
  169MOL0     H22781   8.508   0.134   2.121  1.6911  0.5083  1.3416
  169MOL0     H22782   8.447  -0.025   2.075  0.3338  1.5983 -0.5307
  169MOL0     H22783   8.470   0.088   2.356  0.0976 -2.7796  1.9600
  169MOL0     H22784   8.332   0.045   2.242  0.4792 -0.7076 -1.6932
  169MOL0     H22785   8.533  -0.134   2.378 -0.7223 -1.5788  0.5341
  169MOL0     H22786   8.410  -0.191   2.257  1.4114  1.7586 -1.5048
  169MOL0     H22787   8.327  -0.030   2.500 -0.2950  0.0538  0.5885
  169MOL0     H22788   8.227  -0.120   2.385  0.3238  1.1519 -0.0294
  169MOL0     H22789   8.371  -0.228   2.611 -3.2405  0.0780  2.2071
  169MOL0     H22790   8.365  -0.330   2.475  1.6410 -1.2257  2.3977
  169MOL0     H22791   8.182  -0.351   2.659 -0.9309 -0.7040 -1.0688
  169MOL0     H22792   8.126  -0.194   2.645  0.8658  0.6714  1.3657
  169MOL0     H22793   8.088  -0.433   2.459 -0.6903  0.2609 -2.9182
  169MOL0     H22794   8.079  -0.277   2.382 -2.1809 -1.7221 -0.8130
  169MOL0     H22795   7.901  -0.365   2.614 -2.0616  2.4051  2.4513
  169MOL0     H22796   7.858  -0.371   2.446 -1.6430  0.4233  0.5523
  169MOL0     H22797   8.828  -0.155   2.113  0.5810  1.0162  0.9884
  169MOL0     H22798   9.040  -0.108   1.996  1.7195  3.1850  0.3396
  169MOL0     H22799   9.310   0.213   1.877 -3.7469 -1.6872 -0.5737
  169MOL0     H22800   9.551   0.250   1.800  1.5019  0.2153 -3.2552
  169MOL0     H22801  10.559  -0.013   0.959  0.4875  0.0476  1.5191
  169MOL0     H22802  10.700   0.106   1.139  0.0078  2.7851  0.2161
  169MOL0     H22803  10.914   0.397   1.318  0.8012  2.9459  0.6299
  169MOL0     H22804  11.066   0.557   1.460 -1.6176 -0.2830 -0.8139
  169MOL0     H22805  11.273   0.658   1.617 -3.7635  1.4371  3.5242
  169MOL0     H22806  11.193   0.515   1.683  0.8341  1.0346  1.4750
  169MOL0     H22807  11.475   0.590   1.685  0.3649  0.1787  1.9086
  169MOL0     H22808  11.413   0.436   1.750  0.7304 -0.7286 -2.3271
  169MOL0     H22809  11.252   0.589   1.893 -2.1124  3.0018 -3.1676
  169MOL0     H22810  11.336   0.724   1.844 -2.3777  0.4830  3.6462
  169MOL0     H22811  11.485   0.508   2.006  2.0286  0.4585 -0.1374
  169MOL0     H22812  11.381   0.626   2.064 -0.4672  3.3731 -1.6712
  169MOL0     H22813  11.707   0.869   1.966 -1.9279  0.8350 -3.8380
  169MOL0     H22814  11.405   0.323   1.365 -0.6124  0.0638  3.0830
  169MOL0     H22815  11.271   0.193   1.188  2.1999  1.0164 -0.3175
  170MOL0     O22816   2.889   4.477   2.369 -0.3711  0.1235  0.5969
  170MOL0     C22817   2.814   4.541   2.287 -1.0441  0.1376  0.1556
  170MOL0     O22818   2.683   4.584   2.311  0.3429  0.0200 -0.1969
  170MOL0     C22819   2.624   4.566   2.438  0.6784  1.0679 -0.2662
  170MOL0     C22820   2.603   4.667   2.531  0.5970 -0.2902 -1.0075
  170MOL0     C22821   2.546   4.628   2.658 -0.3783 -0.6688  0.5948
  170MOL0     C22822   2.512   4.493   2.681  0.3225  0.2473 -1.4017
  170MOL0     O22823   2.443   4.470   2.794 -0.5360 -0.0026 -0.8716
  170MOL0     C22824   2.374   4.345   2.819  0.0533  0.3348 -0.6533
  170MOL0     C22825   2.445   4.229   2.893  0.0904 -0.8534 -0.3338
  170MOL0     C22826   2.352   4.109   2.903 -0.1311  0.0619 -0.6905
  170MOL0     C22827   2.415   4.012   3.017 -0.5640  0.2584  0.4086
  170MOL0     C22828   2.322   3.898   3.047  0.7811 -0.4712  1.2379
  170MOL0     C22829   2.393   3.775   2.990  0.6609  0.0826  0.6657
  170MOL0     C22830   2.289   3.658   2.988 -0.3422 -0.1490 -0.5280
  170MOL0     C22831   2.257   3.602   3.129 -0.2048  0.0023 -0.3632
  170MOL0     N22832   2.227   3.461   3.128 -0.1303 -0.7224  0.2475
  170MOL0     C22833   2.099   3.416   3.136 -0.6760 -0.4366 -0.4004
  170MOL0     C22834   2.114   3.282   3.161  0.8168  0.0994  0.5653
  170MOL0     C22835   1.987   3.190   3.171 -0.6307 -0.3453  0.4165
  170MOL0     C22836   2.014   3.043   3.162 -0.7566 -0.3811  0.2578
  170MOL0     C22837   2.087   2.997   3.031  0.4603  0.2160 -0.9063
  170MOL0     C22838   2.009   3.008   2.901  0.9633 -0.5429 -1.1711
  170MOL0     O22839   2.094   2.998   2.778 -0.0447 -0.0264  0.5201
  170MOL0     C22840   2.025   3.007   2.655 -0.3891 -0.2803 -0.0837
  170MOL0     C22841   2.098   2.962   2.544 -0.5740  0.7567  0.6754
  170MOL0     C22842   2.036   2.966   2.412  0.1704  0.4898 -0.5321
  170MOL0     C22843   2.111   2.905   2.298 -0.2464 -0.0286  0.2981
  170MOL0     C22844   1.912   3.035   2.396  0.0367 -0.5994 -1.2404
  170MOL0     C22845   1.837   3.059   2.261 -0.3677  0.4578 -0.0127
  170MOL0     O22846   1.705   3.072   2.272  0.2201  0.8537 -1.3111
  170MOL0     C22847   1.632   3.150   2.179 -0.1148  0.6456 -0.1044
  170MOL0     C22848   1.681   3.259   2.095 -0.0579 -0.3669 -1.0279
  170MOL0     C22849   1.599   3.334   2.013  0.5536 -0.0911  0.6946
  170MOL0     C22850   1.464   3.302   2.001 -0.4635 -0.4719  0.2973
  170MOL0     O22851   1.384   3.371   1.921  1.0036 -0.0668 -0.3662
  170MOL0     C22852   1.374   3.317   1.783 -0.7347 -0.3452 -0.8604
  170MOL0     C22853   1.229   3.320   1.754 -0.9613  0.2883 -0.2818
  170MOL0     C22854   1.197   3.245   1.630 -0.1424 -0.4383  0.4539
  170MOL0     C22855   1.046   3.257   1.608 -0.8320  0.3520 -0.0214
  170MOL0     C22856   1.002   3.159   1.489 -0.1172  0.6722 -0.3741
  170MOL0     C22857   0.861   3.195   1.437 -0.1312  0.3469 -1.3400
  170MOL0     C22858   0.757   3.152   1.532 -0.3959 -0.8855 -0.5557
  170MOL0     C22859   0.619   3.178   1.490  0.0927  0.1599 -0.4859
  170MOL0    Cl22860   0.499   3.042   1.553 -0.1143  0.2428 -0.2307
  170MOL0     C22861   1.410   3.198   2.085 -1.2547  0.1328 -0.3213
  170MOL0     C22862   1.494   3.121   2.169  0.2825  0.2275 -0.8086
  170MOL0     O22863   1.898   3.076   2.157  0.1013  0.4343 -0.0127
  170MOL0     C22864   1.842   3.068   2.513 -0.0292 -0.4404  0.3843
  170MOL0     C22865   1.890   3.052   2.644 -0.7456  0.2453  0.0167
  170MOL0     N22866   2.245   3.256   3.178  0.5583 -0.8343  0.1590
  170MOL0     N22867   2.314   3.358   3.154 -0.4438  0.2689 -0.1755
  170MOL0     C22868   2.547   4.395   2.591 -0.2777  0.2246 -0.3041
  170MOL0     C22869   2.598   4.427   2.460 -0.0183  0.6870 -1.1176
  170MOL0     C22870   2.874   4.577   2.148  0.1659 -0.5191  0.1282
  170MOL0     C22871   3.005   4.572   2.113 -0.1726  0.4069 -0.8347
  170MOL0     C22872   3.046   4.601   1.979  1.2395  0.3548 -0.2084
  170MOL0     C22873   2.948   4.632   1.879 -0.3460  0.1184  0.4348
  170MOL0     O22874   2.980   4.665   1.743  0.5500 -0.1780 -0.5915
  170MOL0     C22875   3.108   4.716   1.709 -0.2726  0.5420 -0.5387
  170MOL0     C22876   3.190   4.603   1.641 -0.3028 -0.5166 -0.3171
  170MOL0     C22877   3.328   4.658   1.606 -0.2218 -0.5764  0.3835
  170MOL0     C22878   3.408   4.582   1.493  0.4927 -0.8868 -0.1962
  170MOL0     C22879   3.418   4.438   1.510  0.1799 -0.1615  0.5367
  170MOL0     C22880   3.411   4.317   1.500  0.4563 -0.1860  0.1126
  170MOL0     C22881   2.815   4.643   1.923 -1.0037 -0.5846 -0.0256
  170MOL0     C22882   2.782   4.618   2.049  0.6882 -0.1543 -0.0809
  170MOL0     H22883   2.631   4.768   2.505  1.9668  0.6400  3.2724
  170MOL0     H22884   2.537   4.700   2.739  1.0648 -1.8957  1.9234
  170MOL0     H22885   2.282   4.372   2.872  1.2639 -0.9598  2.3068
  170MOL0     H22886   2.332   4.314   2.723  1.8489 -0.9286 -1.0831
  170MOL0     H22887   2.539   4.208   2.842  1.2570  1.5945  0.6364
  170MOL0     H22888   2.469   4.253   2.997  0.5185  2.5880 -1.1244
  170MOL0     H22889   2.255   4.146   2.936 -0.7026  0.8594 -3.0539
  170MOL0     H22890   2.330   4.061   2.807  4.3223 -0.8530 -1.5109
  170MOL0     H22891   2.514   3.987   2.978 -0.9181  3.0157 -2.7023
  170MOL0     H22892   2.417   4.072   3.108 -0.4613  0.4048  0.3102
  170MOL0     H22893   2.294   3.872   3.150 -7.8453 -1.5337 -0.6036
  170MOL0     H22894   2.224   3.924   3.006  2.4616  1.2526 -2.0579
  170MOL0     H22895   2.406   3.788   2.882  4.1126 -0.1139  0.9377
  170MOL0     H22896   2.484   3.751   3.046 -0.3027  0.1297  2.3264
  170MOL0     H22897   2.193   3.690   2.945 -0.8616 -0.7038  0.1802
  170MOL0     H22898   2.331   3.577   2.928  1.2071  0.1075  0.1745
  170MOL0     H22899   2.175   3.658   3.175 -0.3452  0.1475 -0.7857
  170MOL0     H22900   2.354   3.620   3.177 -1.1557 -0.8345  2.0170
  170MOL0     H22901   2.004   3.467   3.123 -0.2094  0.7348  0.6573
  170MOL0     H22902   1.919   3.215   3.252 -0.7512  1.6756 -0.2416
  170MOL0     H22903   1.928   3.215   3.083 -1.3864 -1.1287  0.6847
  170MOL0     H22904   1.920   2.989   3.176 -0.6437 -0.6044  0.1518
  170MOL0     H22905   2.077   3.017   3.247 -0.0830 -1.6519 -0.5856
  170MOL0     H22906   2.119   2.893   3.040 -0.3637  0.0696  0.5757
  170MOL0     H22907   2.181   3.053   3.024  0.5140 -0.0168 -2.2472
  170MOL0     H22908   1.971   3.111   2.896 -0.0129 -0.8546 -0.5233
  170MOL0     H22909   1.930   2.933   2.891 -3.1820  2.8370  2.1796
  170MOL0     H22910   2.195   2.915   2.559  0.3111  1.8609 -1.1605
  170MOL0     H22911   2.133   2.799   2.314  2.3232  0.0363 -2.0547
  170MOL0     H22912   2.054   2.912   2.204 -0.8269 -1.8322  0.4714
  170MOL0     H22913   2.203   2.961   2.279  1.0340 -1.9030  0.6980
  170MOL0     H22914   1.779   3.304   2.110  0.2292 -0.2835 -2.9270
  170MOL0     H22915   1.644   3.414   1.956 -0.3410 -1.1488 -1.6207
  170MOL0     H22916   1.438   3.377   1.719 -0.4075 -1.0267 -1.1870
  170MOL0     H22917   1.412   3.215   1.771 -0.1966 -0.1252 -1.0346
  170MOL0     H22918   1.171   3.299   1.844 -2.4645 -0.5303 -1.3988
  170MOL0     H22919   1.202   3.421   1.721 -1.7301 -0.3560 -1.7439
  170MOL0     H22920   1.234   3.142   1.640  0.3997 -0.0352  3.3426
  170MOL0     H22921   1.247   3.296   1.547  1.4381 -1.0399  0.9897
  170MOL0     H22922   0.990   3.240   1.700  2.4924 -3.8802  1.5639
  170MOL0     H22923   1.027   3.360   1.577 -0.7616 -0.1098 -1.6892
  170MOL0     H22924   1.009   3.057   1.526 -1.6231 -0.4233 -2.8394
  170MOL0     H22925   1.073   3.170   1.407  2.4701 -1.0240  1.4912
  170MOL0     H22926   0.859   3.302   1.418  2.0709  0.5698 -0.5725
  170MOL0     H22927   0.834   3.139   1.347  0.9931  1.2853 -2.2908
  170MOL0     H22928   0.778   3.190   1.632  4.9995 -1.8999 -1.0078
  170MOL0     H22929   0.766   3.044   1.541  1.2432 -1.1240 -3.6887
  170MOL0     H22930   0.616   3.189   1.381  1.3757  5.5594 -0.2458
  170MOL0     H22931   0.586   3.272   1.535 -2.6083 -0.8594 -0.1565
  170MOL0     H22932   1.304   3.178   2.093 -1.0657 -0.1780  2.7312
  170MOL0     H22933   1.448   3.040   2.225  0.5990  0.9087  0.4504
  170MOL0     H22934   1.746   3.116   2.506  1.4156  2.6089 -0.0787
  170MOL0     H22935   1.833   3.093   2.727 -0.6390  0.7393 -0.1558
  170MOL0     H22936   2.534   4.294   2.628 -0.3104  0.6938  1.0157
  170MOL0     H22937   2.617   4.357   2.379 -0.5778 -0.7747 -0.0217
  170MOL0     H22938   3.075   4.531   2.186 -1.2530 -1.0746 -0.5945
  170MOL0     H22939   3.150   4.609   1.949  0.8383  0.7456 -1.5580
  170MOL0     H22940   3.091   4.791   1.630  0.9539 -1.7588 -3.1621
  170MOL0     H22941   3.162   4.761   1.792 -0.2378 -1.3167  0.4959
  170MOL0     H22942   3.126   4.572   1.558 -0.7425 -0.6387  0.0684
  170MOL0     H22943   3.209   4.518   1.708  0.0553 -0.2477 -0.0721
  170MOL0     H22944   3.389   4.655   1.697  0.4271  1.3400  0.0739
  170MOL0     H22945   3.317   4.759   1.565 -0.1976 -1.0810 -0.9131
  170MOL0     H22946   3.508   4.623   1.479 -0.5767  1.1673 -2.5803
  170MOL0     H22947   3.344   4.599   1.406  1.9201  1.3158 -0.9129
  170MOL0     H22948   3.418   4.210   1.504  1.1610 -0.4738 -4.0987
  170MOL0     H22949   2.731   4.662   1.856 -0.6717 -2.4262 -1.0372
  170MOL0     H22950   2.676   4.610   2.074  0.8966 -3.6114  0.2628
  171MOL0     O22951   8.500  10.672   8.037 -0.1966  0.2532  0.1519
  171MOL0     C22952   8.400  10.719   8.092 -0.0774  1.3928  0.3062
  171MOL0     O22953   8.377  10.850   8.114  1.3221  0.2874  0.1530
  171MOL0     C22954   8.477  10.944   8.116  0.3524 -0.1775 -0.3927
  171MOL0     C22955   8.500  10.998   8.238 -0.5438 -0.1072 -0.0755
  171MOL0     C22956   8.603  11.095   8.259 -0.0533 -0.2035 -0.2124
  171MOL0     C22957   8.689  11.132   8.157 -0.0827 -0.2140  0.0975
  171MOL0     O22958   8.788  11.221   8.184  0.0144 -0.3534 -0.2477
  171MOL0     C22959   8.858  11.195   8.301 -0.5546 -0.6349 -0.3189
  171MOL0     C22960   8.994  11.254   8.285  0.0108  0.8471  0.7956
  171MOL0     C22961   9.089  11.210   8.392  0.5955  0.4833  0.0308
  171MOL0     C22962   9.235  11.252   8.353  0.6490 -0.2536  0.0452
  171MOL0     C22963   9.337  11.213   8.457  0.2451  0.0746 -0.3783
  171MOL0     C22964   9.323  11.269   8.604  0.4351  0.0965  0.2814
  171MOL0     C22965   9.446  11.285   8.695  0.6536 -0.7877  0.0317
  171MOL0     C22966   9.518  11.159   8.741 -0.0409 -0.3641  0.4606
  171MOL0     N22967   9.636  11.196   8.818 -0.0798  0.2784  0.7823
  171MOL0     C22968   9.652  11.278   8.930 -0.9151  0.3479 -0.3377
  171MOL0     C22969   9.776  11.257   8.974 -0.3791 -1.3868  0.5964
  171MOL0     C22970   9.841  11.334   9.086 -0.2997 -0.0990  0.1539
  171MOL0     C22971   9.915  11.252   9.188  0.3808 -0.6698 -0.5492
  171MOL0     C22972  10.028  11.170   9.119  0.3975 -0.5414  0.0266
  171MOL0     C22973  10.147  11.152   9.205  0.4970  0.7869 -1.0240
  171MOL0     O22974  10.108  11.077   9.324  0.2927  0.0876  0.7844
  171MOL0     C22975  10.206  11.066   9.423 -0.3263  0.6733 -0.0349
  171MOL0     C22976  10.151  11.048   9.544 -0.3709  0.0803  0.5623
  171MOL0     C22977  10.227  11.006   9.658 -0.8430 -0.7869  0.1073
  171MOL0     C22978  10.153  10.990   9.790  0.0269 -0.2977  0.8009
  171MOL0     C22979  10.370  10.982   9.637 -0.3482 -0.0652 -0.8568
  171MOL0     C22980  10.468  10.944   9.739  0.4157  0.0350  0.2252
  171MOL0     O22981  10.578  10.864   9.706  0.5744 -0.2130 -0.4965
  171MOL0     C22982  10.663  10.799   9.792 -1.4669  0.8919  0.9454
  171MOL0     C22983  10.767  10.714   9.723 -0.1205 -0.0803  0.0989
  171MOL0     C22984  10.853  10.637   9.793  0.4064  0.5980  0.4983
  171MOL0     C22985  10.853  10.637   9.933 -0.3000  0.5031  0.2303
  171MOL0     O22986  10.930  10.555  10.013  0.2119 -1.3647  0.6717
  171MOL0     C22987  11.061  10.512   9.964 -0.5062  0.1914  0.0197
  171MOL0     C22988  11.133  10.458  10.087  0.7972  0.1865 -0.1023
  171MOL0     C22989  11.248  10.369  10.070  0.3529  0.3900  0.5105
  171MOL0     C22990  11.381  10.439  10.030 -0.0535  0.1851 -0.5364
  171MOL0     C22991  11.406  10.483   9.886  0.4378  0.0749  0.4795
  171MOL0     C22992  11.354  10.384   9.774  0.2750  0.3617  0.6427
  171MOL0     C22993  11.425  10.419   9.648  0.4362 -0.9029 -0.3167
  171MOL0     C22994  11.361  10.343   9.534 -0.5265  0.2753 -0.8731
  171MOL0    Cl22995  11.178  10.370   9.519  0.1404  0.3987 -0.5378
  171MOL0     C22996  10.774  10.729   9.995 -1.2175 -0.6033  0.0311
  171MOL0     C22997  10.683  10.810   9.926  0.2296  0.3094  0.4943
  171MOL0     O22998  10.447  11.000   9.847 -0.4653  0.6532  1.0044
  171MOL0     C22999  10.427  11.015   9.513  0.0949  0.6824 -0.0847
  171MOL0     C23000  10.342  11.069   9.409 -0.0660 -0.1547  0.8913
  171MOL0     N23001   9.836  11.170   8.888 -0.4602  0.8173  0.6819
  171MOL0     N23002   9.755  11.131   8.803  0.1639 -0.3278 -0.3550
  171MOL0     C23003   8.667  11.061   8.037 -0.0233 -0.1564  0.6948
  171MOL0     C23004   8.566  10.971   8.019  0.1961  0.6767 -0.7473
  171MOL0     C23005   8.286  10.625   8.134 -1.0900  0.7120  1.1031
  171MOL0     C23006   8.157  10.673   8.159 -0.0512  0.0548 -0.2645
  171MOL0     C23007   8.061  10.596   8.209  0.2698  1.3305 -0.0173
  171MOL0     C23008   8.084  10.456   8.230 -0.2081 -0.8646 -0.2407
  171MOL0     O23009   7.978  10.396   8.284  0.9611 -0.3884 -0.2398
  171MOL0     C23010   7.991  10.260   8.336 -0.8781 -0.4716  0.0412
  171MOL0     C23011   7.860  10.221   8.407  0.0452 -0.6499 -0.5597
  171MOL0     C23012   7.735  10.222   8.317 -0.2905  1.4315 -0.1073
  171MOL0     C23013   7.612  10.236   8.406  0.0249 -0.1642  0.0475
  171MOL0     C23014   7.594  10.106   8.478  1.0003  0.7017 -0.7977
  171MOL0     C23015   7.584   9.993   8.522 -1.1639 -0.3932  0.1063
  171MOL0     C23016   8.203  10.399   8.198 -0.0504 -0.3131 -0.3636
  171MOL0     C23017   8.310  10.483   8.158 -0.0659  0.2049  0.1049
  171MOL0     H23018   8.433  10.962   8.316 -3.0262  2.2423 -0.9901
  171MOL0     H23019   8.606  11.141   8.357 -0.3966  1.9480 -1.1394
  171MOL0     H23020   8.806  11.251   8.379 -0.8240  1.8084 -2.1484
  171MOL0     H23021   8.860  11.087   8.320 -0.4337 -1.4589 -4.0734
  171MOL0     H23022   9.030  11.210   8.192 -3.8152 -2.1297  0.4544
  171MOL0     H23023   8.995  11.364   8.281  1.0998  0.7999 -1.4681
  171MOL0     H23024   9.058  11.248   8.490  1.9905  2.9306 -0.4002
  171MOL0     H23025   9.081  11.101   8.400 -2.8425  0.5228 -0.9976
  171MOL0     H23026   9.258  11.203   8.258 -1.7965 -0.6308 -0.3999
  171MOL0     H23027   9.244  11.357   8.323 -1.1075 -0.1265 -0.1427
  171MOL0     H23028   9.323  11.107   8.479  0.2079  0.3934  1.3520
  171MOL0     H23029   9.438  11.223   8.417  0.3723 -1.8808 -0.6413
  171MOL0     H23030   9.276  11.368   8.598  0.3435  0.1910  2.0565
  171MOL0     H23031   9.251  11.200   8.648  0.7038  0.2999  1.0482
  171MOL0     H23032   9.517  11.336   8.628 -1.7884 -1.9340 -3.7858
  171MOL0     H23033   9.413  11.344   8.781 -0.1717 -1.9901  0.5623
  171MOL0     H23034   9.553  11.104   8.653  1.5338  1.6993 -0.2930
  171MOL0     H23035   9.452  11.096   8.800 -1.9095  0.2191 -0.8978
  171MOL0     H23036   9.587  11.352   8.975 -3.1763 -0.6763 -1.7824
  171MOL0     H23037   9.906  11.411   9.046 -1.9997 -0.6201 -4.1431
  171MOL0     H23038   9.756  11.382   9.136 -2.5049 -2.9851 -0.5328
  171MOL0     H23039   9.855  11.182   9.247  1.1707  0.6168  1.9735
  171MOL0     H23040   9.961  11.320   9.261  1.9187 -3.8819  1.7465
  171MOL0     H23041  10.069  11.227   9.036  0.7729  0.0351  0.5986
  171MOL0     H23042  10.000  11.068   9.088  0.4714 -1.0853  1.6309
  171MOL0     H23043  10.196  11.249   9.219 -1.7614  1.7316  1.3750
  171MOL0     H23044  10.212  11.087   9.147  0.0641  0.0615 -0.7129
  171MOL0     H23045  10.043  11.055   9.541 -0.2237  2.7894 -0.1942
  171MOL0     H23046  10.172  10.894   9.839  2.2260 -0.4715 -0.2854
  171MOL0     H23047  10.184  11.066   9.863  0.3797 -0.4524  0.8125
  171MOL0     H23048  10.045  10.998   9.775 -0.1335 -0.2695  1.9048
  171MOL0     H23049  10.757  10.708   9.615 -0.0241 -0.0921  0.0905
  171MOL0     H23050  10.918  10.567   9.741  1.6047 -0.5371  3.3389
  171MOL0     H23051  11.054  10.427   9.896  0.2384  0.3134 -0.2264
  171MOL0     H23052  11.120  10.592   9.919 -2.3187  0.7665 -1.4470
  171MOL0     H23053  11.158  10.544  10.150 -0.7795 -0.1407  1.0567
  171MOL0     H23054  11.067  10.394  10.146  3.7586 -1.8718  1.1842
  171MOL0     H23055  11.224  10.301   9.987  1.2318  1.4136 -0.6010
  171MOL0     H23056  11.267  10.308  10.159 -2.6726 -0.2719  0.8216
  171MOL0     H23057  11.374  10.528  10.093 -2.8537  0.9912 -1.8408
  171MOL0     H23058  11.466  10.378  10.062 -0.8157 -0.9548 -0.6314
  171MOL0     H23059  11.514  10.485   9.870  0.1330 -2.1361 -3.0643
  171MOL0     H23060  11.364  10.581   9.863  0.0382 -0.6888 -2.4565
  171MOL0     H23061  11.380  10.280   9.795 -0.2417  0.3293  1.1393
  171MOL0     H23062  11.246  10.394   9.759  0.4662  0.7222 -0.5721
  171MOL0     H23063  11.533  10.402   9.643  0.4287 -0.6322 -2.3303
  171MOL0     H23064  11.395  10.524   9.635 -1.5839 -1.1021  2.1038
  171MOL0     H23065  11.376  10.236   9.551  1.2244  0.4560 -1.0191
  171MOL0     H23066  11.417  10.362   9.442 -0.5576 -2.3796 -1.5134
  171MOL0     H23067  10.778  10.725  10.103  1.1060 -3.1487 -0.0351
  171MOL0     H23068  10.619  10.871   9.989  1.3002  1.7961  0.1908
  171MOL0     H23069  10.535  11.014   9.514  0.1619 -2.2936 -0.9579
  171MOL0     H23070  10.403  11.103   9.325 -2.0431 -1.1493 -1.0276
  171MOL0     H23071   8.731  11.069   7.949 -0.3258 -1.9582  0.2839
  171MOL0     H23072   8.571  10.909   7.930 -1.6830  1.0826 -1.1748
  171MOL0     H23073   8.130  10.776   8.136  1.7127  0.7562  0.6132
  171MOL0     H23074   7.962  10.628   8.241  0.2535  1.9690 -0.6908
  171MOL0     H23075   8.010  10.181   8.263  0.8743  0.0467 -0.1036
  171MOL0     H23076   8.071  10.252   8.411 -2.5435 -0.5663  1.8891
  171MOL0     H23077   7.851  10.297   8.485  0.6455 -2.1674  1.0634
  171MOL0     H23078   7.863  10.117   8.440  1.2988 -0.7471 -0.9474
  171MOL0     H23079   7.716  10.137   8.250 -1.3105  0.7004  1.0832
  171MOL0     H23080   7.740  10.313   8.257 -3.1618  2.8056  1.5106
  171MOL0     H23081   7.527  10.263   8.342 -1.9936  1.1541  3.0711
  171MOL0     H23082   7.618  10.310   8.485  0.1488 -0.6034  0.4538
  171MOL0     H23083   7.599   9.893   8.558  0.3607 -0.5374 -0.8455
  171MOL0     H23084   8.229  10.295   8.218 -1.6837 -1.0411 -1.7464
  171MOL0     H23085   8.409  10.447   8.135  0.2738  1.2101 -0.0461
  172MOL0     O23086   6.812   5.020   4.598  0.4800 -0.2307  0.0330
  172MOL0     C23087   6.829   5.140   4.620 -0.1869 -0.4248  0.0991
  172MOL0     O23088   6.767   5.211   4.723  0.0166 -0.2422 -0.0206
  172MOL0     C23089   6.664   5.136   4.788 -0.5325 -0.7127  0.0878
  172MOL0     C23090   6.698   5.076   4.909  0.4854  0.8575  0.2260
  172MOL0     C23091   6.604   4.998   4.980  0.2703  0.3568  0.2908
  172MOL0     C23092   6.471   4.989   4.937  0.1113  0.9187 -0.8075
  172MOL0     O23093   6.384   4.906   5.018 -0.1021 -0.0996  0.3933
  172MOL0     C23094   6.268   4.858   4.948  0.5234 -0.3067 -0.4613
  172MOL0     C23095   6.234   4.730   5.031 -0.0137 -0.5096 -0.1616
  172MOL0     C23096   6.117   4.777   5.119 -0.3574  0.3742 -0.6554
  172MOL0     C23097   6.051   4.651   5.191  0.7005 -1.1351  0.3276
  172MOL0     C23098   5.917   4.674   5.248  0.0080 -0.6706  0.5518
  172MOL0     C23099   5.851   4.544   5.307 -1.0457 -0.0829 -0.8276
  172MOL0     C23100   5.730   4.590   5.394  0.8424  0.5188 -0.1040
  172MOL0     C23101   5.610   4.648   5.331 -0.5193 -0.0324 -0.3968
  172MOL0     N23102   5.499   4.649   5.430  0.4941  0.0061 -0.6803
  172MOL0     C23103   5.475   4.748   5.517 -0.4931 -0.5824 -0.2309
  172MOL0     C23104   5.358   4.727   5.573  0.2809  0.0378 -0.2788
  172MOL0     C23105   5.265   4.807   5.665 -0.6331 -0.1892  0.4183
  172MOL0     C23106   5.209   4.940   5.611 -0.5298 -0.9269 -0.1292
  172MOL0     C23107   5.084   4.893   5.526 -0.0226  0.1486 -0.5149
  172MOL0     C23108   5.009   5.004   5.449  0.5280  1.0724  0.4216
  172MOL0     O23109   5.011   5.115   5.534  0.5259 -0.1330 -0.5022
  172MOL0     C23110   4.950   5.228   5.500 -0.0795 -1.1106  1.0581
  172MOL0     C23111   4.848   5.243   5.403 -0.6823 -0.7963 -0.4873
  172MOL0     C23112   4.788   5.373   5.377 -0.1291 -0.5923 -0.0139
  172MOL0     C23113   4.692   5.381   5.260  0.4627 -0.0746 -0.1104
  172MOL0     C23114   4.840   5.493   5.443  0.8428  0.1776 -0.3401
  172MOL0     C23115   4.793   5.635   5.414  0.7720  0.4243 -0.7053
  172MOL0     O23116   4.858   5.728   5.484  0.3745 -0.0448  0.4195
  172MOL0     C23117   4.815   5.856   5.473 -0.1926  0.3772  0.2518
  172MOL0     C23118   4.683   5.899   5.488 -0.3940  0.2232  0.1612
  172MOL0     C23119   4.637   6.029   5.471  0.8215  0.4950 -0.5161
  172MOL0     C23120   4.728   6.130   5.446 -0.1783  0.2543 -0.3834
  172MOL0     O23121   4.677   6.259   5.435 -0.1131 -0.6061  0.2213
  172MOL0     C23122   4.762   6.346   5.354 -0.0821 -0.1873  0.2481
  172MOL0     C23123   4.707   6.496   5.341 -0.0412  0.2155  0.5540
  172MOL0     C23124   4.564   6.503   5.296  0.0487  0.4312  0.9219
  172MOL0     C23125   4.525   6.654   5.299  0.0161  0.1095 -1.0631
  172MOL0     C23126   4.380   6.679   5.246 -0.2220  0.4377 -0.9245
  172MOL0     C23127   4.308   6.796   5.304 -0.0723 -0.3025 -0.8800
  172MOL0     C23128   4.170   6.805   5.248  0.5427  0.3284  0.0763
  172MOL0     C23129   4.106   6.940   5.275  0.2817  0.4448 -0.2643
  172MOL0    Cl23130   3.949   6.954   5.188 -0.4702  0.4494 -0.3623
  172MOL0     C23131   4.863   6.086   5.414 -0.6335 -0.3397 -1.2056
  172MOL0     C23132   4.910   5.954   5.429  0.2749 -0.0946  0.2435
  172MOL0     O23133   4.703   5.658   5.333  0.5708  0.6766  0.3320
  172MOL0     C23134   4.953   5.471   5.536  0.4931  0.4327  0.9607
  172MOL0     C23135   5.002   5.344   5.561  0.0314  0.0042  0.3716
  172MOL0     N23136   5.308   4.618   5.509  0.6869  0.2451 -0.4058
  172MOL0     N23137   5.392   4.568   5.419  0.3785 -0.5551  0.1929
  172MOL0     C23138   6.437   5.052   4.816  0.4083 -0.9331 -0.2010
  172MOL0     C23139   6.534   5.131   4.746  0.0472  0.4253 -0.0921
  172MOL0     C23140   6.921   5.219   4.537 -0.8647  0.7629 -0.3214
  172MOL0     C23141   7.008   5.150   4.446 -0.5272  0.7754  0.2833
  172MOL0     C23142   7.098   5.231   4.380 -0.6750  0.3254 -0.3873
  172MOL0     C23143   7.106   5.371   4.391  0.8126 -0.3097  0.1630
  172MOL0     O23144   7.191   5.439   4.313 -0.2341 -0.3184  0.1683
  172MOL0     C23145   7.192   5.583   4.303  0.2397 -0.7490  0.3126
  172MOL0     C23146   7.298   5.603   4.188  0.5506 -0.3411 -1.2170
  172MOL0     C23147   7.233   5.605   4.049  0.4905 -0.3507  1.0806
  172MOL0     C23148   7.337   5.552   3.952  0.3793 -0.2185  0.4183
  172MOL0     C23149   7.294   5.567   3.814  0.3696  0.9340  0.0343
  172MOL0     C23150   7.251   5.574   3.702  0.0338  0.2592 -0.3096
  172MOL0     C23151   7.018   5.435   4.479 -0.2607 -0.3415  0.7100
  172MOL0     C23152   6.931   5.359   4.548 -0.1021  0.5080 -0.8858
  172MOL0     H23153   6.803   5.077   4.935  1.0372 -0.1114 -1.8179
  172MOL0     H23154   6.638   4.941   5.066 -0.6405 -1.1031 -0.2805
  172MOL0     H23155   6.183   4.924   4.933  1.2305  0.4062 -1.5599
  172MOL0     H23156   6.300   4.821   4.850  0.6507  0.4642 -0.7141
  172MOL0     H23157   6.209   4.635   4.984  1.3094 -1.4265  0.9036
  172MOL0     H23158   6.314   4.705   5.102 -1.8367 -0.1854  2.1342
  172MOL0     H23159   6.157   4.840   5.199 -0.0176 -2.5808  1.6865
  172MOL0     H23160   6.044   4.837   5.064 -1.9477 -0.2392  0.6824
  172MOL0     H23161   6.038   4.573   5.116 -2.5353  0.0373 -0.4890
  172MOL0     H23162   6.124   4.612   5.262 -0.7446 -1.1394  1.8687
  172MOL0     H23163   5.910   4.753   5.323 -4.0655 -1.2273  0.9906
  172MOL0     H23164   5.842   4.710   5.178 -2.8622 -2.3920  2.5464
  172MOL0     H23165   5.820   4.474   5.229  2.8243 -1.8314 -1.0210
  172MOL0     H23166   5.913   4.493   5.380 -1.7171  0.8015  0.3981
  172MOL0     H23167   5.692   4.500   5.443 -1.9350  0.4488 -2.1935
  172MOL0     H23168   5.771   4.654   5.473 -0.2796  0.8086  0.2538
  172MOL0     H23169   5.574   4.586   5.249 -3.5309 -0.0505  0.8226
  172MOL0     H23170   5.631   4.751   5.301  3.7390  0.4252  3.1531
  172MOL0     H23171   5.539   4.834   5.533 -0.6919 -0.3744 -0.5339
  172MOL0     H23172   5.195   4.735   5.708 -1.9744  1.8156  1.8408
  172MOL0     H23173   5.327   4.834   5.751 -1.2561 -2.8576  1.8107
  172MOL0     H23174   5.288   4.983   5.549 -0.6572 -1.0695 -0.3925
  172MOL0     H23175   5.169   5.000   5.693 -2.5724 -3.3308  0.7677
  172MOL0     H23176   5.011   4.855   5.598 -1.4377  1.3829 -1.2485
  172MOL0     H23177   5.108   4.814   5.455 -1.2382  0.4360 -1.2649
  172MOL0     H23178   4.913   4.969   5.411  0.2469  3.2389 -1.0750
  172MOL0     H23179   5.063   5.025   5.356  0.2609  3.5314  0.7430
  172MOL0     H23180   4.814   5.156   5.348 -4.5577  0.0166  0.3585
  172MOL0     H23181   4.599   5.436   5.275  1.3582  0.8637  2.6701
  172MOL0     H23182   4.737   5.417   5.167 -1.0723  0.8499 -0.5237
  172MOL0     H23183   4.667   5.275   5.246 -1.6725  0.5763 -1.7805
  172MOL0     H23184   4.607   5.823   5.505  0.6251 -1.0458 -0.7830
  172MOL0     H23185   4.533   6.058   5.476  0.7126  0.1341 -0.7012
  172MOL0     H23186   4.866   6.344   5.388  0.1910 -0.9140 -0.5978
  172MOL0     H23187   4.763   6.306   5.252  0.8626  0.3792  0.0250
  172MOL0     H23188   4.723   6.543   5.438 -1.6614  0.0462  0.9255
  172MOL0     H23189   4.763   6.553   5.266 -2.8239  0.8326 -1.1934
  172MOL0     H23190   4.498   6.450   5.365  0.4096  0.0796  1.0001
  172MOL0     H23191   4.546   6.463   5.195 -2.1117 -1.9231  2.1452
  172MOL0     H23192   4.531   6.677   5.406 -0.9365  1.3325 -1.2471
  172MOL0     H23193   4.589   6.720   5.240 -0.5273  0.7674 -0.9283
  172MOL0     H23194   4.317   6.593   5.271 -1.7764  2.2076  1.7560
  172MOL0     H23195   4.404   6.704   5.142  1.1589  1.7639 -0.3314
  172MOL0     H23196   4.306   6.783   5.412  0.4184 -1.9226 -1.0356
  172MOL0     H23197   4.372   6.881   5.280  0.2186  0.7001  2.8348
  172MOL0     H23198   4.109   6.721   5.283  0.6434  0.6487  1.0312
  172MOL0     H23199   4.172   6.792   5.139  1.0704  0.5117  0.0616
  172MOL0     H23200   4.172   7.015   5.230  0.1852  0.1451 -0.9121
  172MOL0     H23201   4.103   6.970   5.381  3.8988  0.9066 -0.1811
  172MOL0     H23202   4.934   6.160   5.377 -0.2242 -0.4768 -0.7064
  172MOL0     H23203   5.012   5.920   5.415  0.0593 -0.7228  0.1454
  172MOL0     H23204   4.985   5.551   5.602  1.9014  2.7422 -2.2678
  172MOL0     H23205   5.086   5.327   5.628 -0.9580 -1.0507  1.3861
  172MOL0     H23206   6.338   5.066   4.774  0.6483  2.6622  0.1005
  172MOL0     H23207   6.516   5.194   4.660  1.2381  1.2092  0.2003
  172MOL0     H23208   7.007   5.042   4.434  1.6407  0.7471 -0.0740
  172MOL0     H23209   7.176   5.179   4.326 -1.8417 -1.6029 -0.3236
  172MOL0     H23210   7.096   5.614   4.262  2.0719  2.1431 -2.2333
  172MOL0     H23211   7.218   5.629   4.399 -0.8804  0.2537  0.1521
  172MOL0     H23212   7.368   5.520   4.193  2.3519  1.1700  0.2955
  172MOL0     H23213   7.356   5.694   4.203  0.7041 -1.0370  5.1709
  172MOL0     H23214   7.194   5.705   4.032 -0.7696 -1.1243 -1.0492
  172MOL0     H23215   7.151   5.534   4.034 -0.2261  1.0131 -2.3964
  172MOL0     H23216   7.360   5.450   3.985  1.7370 -0.1280 -0.1435
  172MOL0     H23217   7.426   5.616   3.963  0.4362  0.0702 -1.3435
  172MOL0     H23218   7.202   5.561   3.608 -1.3522 -0.4096  0.4713
  172MOL0     H23219   6.998   5.542   4.475 -1.1003 -0.5306 -2.1462
  172MOL0     H23220   6.851   5.403   4.606 -1.9376 -0.8647 -2.2453
  173MOL0     O23221   8.224   7.492   1.538  0.2980  0.7494  0.6016
  173MOL0     C23222   8.207   7.489   1.416  0.5805  0.3766 -0.2480
  173MOL0     O23223   8.111   7.424   1.358  0.2534  0.2818 -0.8177
  173MOL0     C23224   8.054   7.319   1.423 -0.2413 -0.7872  0.3836
  173MOL0     C23225   7.910   7.306   1.425 -0.0608  0.2164  0.4527
  173MOL0     C23226   7.850   7.210   1.504  0.6578  0.6048 -0.3887
  173MOL0     C23227   7.932   7.115   1.576  0.6247  0.4388 -0.6519
  173MOL0     O23228   7.882   7.020   1.674 -0.6382  0.4072  0.4543
  173MOL0     C23229   7.742   7.026   1.705  0.1915  0.1378  0.7886
  173MOL0     C23230   7.727   6.918   1.823 -0.0734 -0.2252  0.1166
  173MOL0     C23231   7.792   6.781   1.795 -0.2025  0.7313 -0.3449
  173MOL0     C23232   7.727   6.665   1.884  0.3382  0.3132  0.4392
  173MOL0     C23233   7.795   6.527   1.846 -0.6691 -1.1130  0.4551
  173MOL0     C23234   7.732   6.399   1.890  0.0053  0.6074 -1.0730
  173MOL0     C23235   7.623   6.341   1.791  0.1422 -0.0577 -0.7529
  173MOL0     C23236   7.692   6.269   1.679  0.4440 -0.3171 -0.3116
  173MOL0     N23237   7.585   6.213   1.595  0.8806 -0.3824 -0.3037
  173MOL0     C23238   7.532   6.089   1.623  0.5462 -0.2103  0.3896
  173MOL0     C23239   7.464   6.055   1.506  0.3933  0.3975  0.3137
  173MOL0     C23240   7.388   5.923   1.499  1.4378 -0.4689 -0.3904
  173MOL0     C23241   7.258   5.926   1.582  0.4043  0.0810 -0.2552
  173MOL0     C23242   7.187   5.788   1.579 -0.6738 -0.7472 -0.7964
  173MOL0     C23243   7.044   5.796   1.630 -0.2866 -0.4711 -1.1179
  173MOL0     O23244   6.969   5.901   1.564  1.1453 -0.1350  0.0866
  173MOL0     C23245   6.840   5.877   1.537  0.0783  0.7992  0.2349
  173MOL0     C23246   6.755   5.765   1.575  0.2377 -0.1882 -0.2114
  173MOL0     C23247   6.619   5.751   1.535 -0.8691 -0.2268 -0.0699
  173MOL0     C23248   6.544   5.631   1.575 -0.2433  0.7746  0.0090
  173MOL0     C23249   6.559   5.856   1.452 -0.1000  0.7213 -0.6606
  173MOL0     C23250   6.423   5.865   1.402  0.0893 -0.7539 -0.3028
  173MOL0     O23251   6.397   5.974   1.330  0.6289 -0.5398 -0.7223
  173MOL0     C23252   6.266   5.980   1.282  0.9370 -0.0655  0.4410
  173MOL0     C23253   6.168   6.067   1.335 -1.0746 -0.6479  0.8527
  173MOL0     C23254   6.040   6.066   1.291 -0.1166 -0.8255  0.1335
  173MOL0     C23255   5.999   5.972   1.197 -0.3492 -0.1342  0.8624
  173MOL0     O23256   5.865   5.972   1.169  1.0486  0.0937  0.1369
  173MOL0     C23257   5.810   5.867   1.093 -0.2498  0.4755 -0.7262
  173MOL0     C23258   5.658   5.901   1.067  0.0461  0.8910 -0.0385
  173MOL0     C23259   5.583   5.863   1.198  0.3937  0.8041  0.5605
  173MOL0     C23260   5.436   5.900   1.174  0.3420 -0.3037 -0.9900
  173MOL0     C23261   5.347   5.857   1.298  0.3355 -0.3272  0.3975
  173MOL0     C23262   5.401   5.908   1.433 -0.9943 -0.1454 -0.1233
  173MOL0     C23263   5.296   5.898   1.548 -0.5911 -0.5840  0.6690
  173MOL0     C23264   5.369   5.898   1.682  0.4013  0.8222  0.8012
  173MOL0    Cl23265   5.392   6.065   1.735 -0.0069  0.4641  0.1840
  173MOL0     C23266   6.092   5.879   1.143 -1.1255  0.0236  0.0070
  173MOL0     C23267   6.226   5.879   1.193 -0.3823 -0.6602  0.0466
  173MOL0     O23268   6.337   5.780   1.440 -0.2388  0.1483  0.1050
  173MOL0     C23269   6.647   5.961   1.418  0.0251  0.0931  0.4017
  173MOL0     C23270   6.784   5.974   1.456 -0.3003 -0.0384 -0.4214
  173MOL0     N23271   7.475   6.161   1.420 -0.0030  0.0508  0.0246
  173MOL0     N23272   7.546   6.256   1.467 -0.3940  0.7387 -0.9188
  173MOL0     C23273   8.074   7.121   1.565  0.6843  1.2181 -0.8838
  173MOL0     C23274   8.139   7.226   1.489 -0.2273  0.7289  0.4925
  173MOL0     C23275   8.294   7.580   1.340 -0.0596  1.0190 -0.3834
  173MOL0     C23276   8.376   7.667   1.407  0.8102 -0.5168  0.2284
  173MOL0     C23277   8.454   7.767   1.336 -0.4670  0.1722  0.6660
  173MOL0     C23278   8.444   7.784   1.201  0.4966  0.0977  0.2623
  173MOL0     O23279   8.522   7.882   1.133  0.8545 -0.1341  0.0420
  173MOL0     C23280   8.556   7.862   0.997 -1.7637 -0.1794  1.0004
  173MOL0     C23281   8.633   7.988   0.943 -0.2703  0.8409  0.6772
  173MOL0     C23282   8.779   7.986   0.969 -0.1142  0.6676 -0.4549
  173MOL0     C23283   8.860   8.061   0.866 -0.6363  0.0707 -0.7045
  173MOL0     C23284   8.830   8.202   0.851 -0.2038 -1.2029 -0.0550
  173MOL0     C23285   8.813   8.320   0.853  0.1197 -0.6446  0.2267
  173MOL0     C23286   8.355   7.697   1.131  0.5282  0.8424  0.1191
  173MOL0     C23287   8.277   7.602   1.202 -0.2270 -0.4352 -0.8915
  173MOL0     H23288   7.845   7.376   1.373  0.8261  0.1610 -0.7442
  173MOL0     H23289   7.741   7.212   1.503  0.3791 -2.8132  2.3450
  173MOL0     H23290   7.717   7.126   1.740  1.4393  1.5793 -2.1567
  173MOL0     H23291   7.681   7.004   1.616  1.8474 -3.8754  0.4261
  173MOL0     H23292   7.794   6.958   1.900  0.2586  1.9104 -1.1757
  173MOL0     H23293   7.620   6.911   1.845 -0.0124  0.9782  0.9233
  173MOL0     H23294   7.775   6.756   1.690 -0.8180  2.0780 -0.5815
  173MOL0     H23295   7.897   6.792   1.824 -0.6807 -1.0144  2.4044
  173MOL0     H23296   7.717   6.698   1.988 -1.8647  3.4941 -0.6218
  173MOL0     H23297   7.624   6.652   1.851  1.2091 -1.0347 -1.9327
  173MOL0     H23298   7.793   6.519   1.737  2.2824  1.8386  0.0106
  173MOL0     H23299   7.900   6.525   1.877 -0.2367 -0.7841 -0.9467
  173MOL0     H23300   7.803   6.318   1.908 -0.0386  0.4906 -1.4190
  173MOL0     H23301   7.682   6.430   1.982 -0.4127  1.1011 -1.4547
  173MOL0     H23302   7.552   6.273   1.839 -1.1675  1.1846 -0.8834
  173MOL0     H23303   7.570   6.426   1.749  0.8963  1.1031  0.5743
  173MOL0     H23304   7.757   6.192   1.721  0.5911 -0.0034  0.0410
  173MOL0     H23305   7.757   6.336   1.621 -1.3970  0.3184 -1.7417
  173MOL0     H23306   7.537   6.032   1.715 -1.7843 -0.5655  0.3729
  173MOL0     H23307   7.363   5.908   1.394  3.1659 -0.8335 -0.7804
  173MOL0     H23308   7.457   5.839   1.509  2.2484 -0.0250 -2.0818
  173MOL0     H23309   7.201   6.008   1.538  0.8919  0.7495  0.3372
  173MOL0     H23310   7.276   5.969   1.681  1.0386  0.5496 -0.5625
  173MOL0     H23311   7.234   5.707   1.636 -0.9251 -0.6964 -0.5141
  173MOL0     H23312   7.159   5.756   1.478  0.2473 -1.4875 -0.8358
  173MOL0     H23313   7.045   5.823   1.737  0.6280  2.0084 -1.6800
  173MOL0     H23314   7.005   5.695   1.620 -0.3447 -0.5039 -0.5892
  173MOL0     H23315   6.796   5.696   1.648 -3.4022 -2.0253  0.3113
  173MOL0     H23316   6.519   5.564   1.492  2.4940  0.6770 -0.8617
  173MOL0     H23317   6.603   5.574   1.648 -1.4668  1.0871  1.2884
  173MOL0     H23318   6.448   5.661   1.616 -0.4025  1.7466 -1.0380
  173MOL0     H23319   6.203   6.137   1.410  0.1927  1.7985 -1.8279
  173MOL0     H23320   5.964   6.125   1.342  0.4839 -2.8219  3.7164
  173MOL0     H23321   5.872   5.841   1.007  0.9251  0.7438  0.0172
  173MOL0     H23322   5.819   5.777   1.154 -0.0038  1.3819  0.6213
  173MOL0     H23323   5.649   6.010   1.058  2.5533  1.1244 -0.5061
  173MOL0     H23324   5.626   5.853   0.974 -0.2095  2.3293 -0.7186
  173MOL0     H23325   5.634   5.913   1.281 -2.7284  2.6654  1.5294
  173MOL0     H23326   5.600   5.756   1.209 -0.3008  0.7872  1.6366
  173MOL0     H23327   5.422   6.007   1.157 -0.1398 -0.1562  0.1836
  173MOL0     H23328   5.395   5.848   1.087  0.8282 -0.5779 -1.0607
  173MOL0     H23329   5.327   5.750   1.298 -2.0468  0.0437 -0.5914
  173MOL0     H23330   5.247   5.896   1.277  0.4488 -0.3696 -0.2433
  173MOL0     H23331   5.489   5.851   1.465 -0.4130  0.3807 -0.7616
  173MOL0     H23332   5.438   6.011   1.431 -0.1681 -0.2355  3.5204
  173MOL0     H23333   5.249   5.800   1.540  3.8678 -3.0194  0.9077
  173MOL0     H23334   5.230   5.984   1.537  0.5389  0.5181  2.0735
  173MOL0     H23335   5.460   5.839   1.685 -0.5365 -0.6489  2.2049
  173MOL0     H23336   5.305   5.852   1.758 -1.4923 -1.1517 -1.8008
  173MOL0     H23337   6.066   5.802   1.072 -0.5168  0.5909 -0.8527
  173MOL0     H23338   6.280   5.792   1.157  0.9732 -0.3084  1.1759
  173MOL0     H23339   6.621   6.042   1.351 -1.1735 -0.9094 -0.3624
  173MOL0     H23340   6.838   6.064   1.429 -0.7371 -0.2385 -2.0394
  173MOL0     H23341   8.131   7.043   1.615 -0.0721  1.5564  0.5341
  173MOL0     H23342   8.246   7.240   1.483  0.0361 -1.3587 -0.2346
  173MOL0     H23343   8.390   7.669   1.514 -0.6657 -0.8826  0.4480
  173MOL0     H23344   8.513   7.846   1.382  1.5160 -0.5241 -0.5263
  173MOL0     H23345   8.630   7.782   0.991  3.6884  4.1276  1.5174
  173MOL0     H23346   8.469   7.831   0.939  0.9747 -2.1046 -2.4982
  173MOL0     H23347   8.581   8.073   0.987  0.0361  1.3430  0.0898
  173MOL0     H23348   8.615   7.984   0.835  2.4686 -3.0321  0.1584
  173MOL0     H23349   8.811   7.882   0.967 -2.3789 -0.0847  0.1599
  173MOL0     H23350   8.797   8.017   1.073 -2.9105 -4.3703  1.8901
  173MOL0     H23351   8.842   8.010   0.771 -2.0346 -2.6078  0.8791
  173MOL0     H23352   8.965   8.067   0.898 -1.1336  5.2596  0.9779
  173MOL0     H23353   8.781   8.422   0.863 -1.9456 -1.2566  0.2236
  173MOL0     H23354   8.340   7.701   1.024  1.7402  0.8275 -0.0617
  173MOL0     H23355   8.209   7.545   1.140 -0.2538 -0.5179 -0.7855
  174MOL0     O23356   1.204   7.207   1.272 -0.4458  0.1866  0.3428
  174MOL0     C23357   1.316   7.173   1.227  0.5126 -0.4108 -0.8319
  174MOL0     O23358   1.337   7.074   1.138  0.1226 -0.0617  0.9754
  174MOL0     C23359   1.231   7.003   1.087  0.0110 -0.4423 -0.5919
  174MOL0     C23360   1.134   7.073   1.014  1.2294 -1.0635 -0.3222
  174MOL0     C23361   1.038   6.992   0.952  0.0477 -0.2185  0.0506
  174MOL0     C23362   1.041   6.848   0.973  0.4848 -0.4229 -0.0086
  174MOL0     O23363   0.951   6.758   0.911 -0.0531  0.0172  0.3788
  174MOL0     C23364   0.839   6.804   0.835 -0.2010  0.6412  0.1092
  174MOL0     C23365   0.764   6.698   0.753 -0.6363  0.3757 -1.3093
  174MOL0     C23366   0.634   6.749   0.695  0.1961 -0.3175 -0.0506
  174MOL0     C23367   0.585   6.664   0.567  0.1546  0.4895 -0.5294
  174MOL0     C23368   0.431   6.698   0.540  0.0031  0.0539  0.3137
  174MOL0     C23369   0.354   6.623   0.428  0.9770 -0.1685  0.4985
  174MOL0     C23370   0.393   6.661   0.286 -0.1562  0.5646  0.7191
  174MOL0     C23371   0.298   6.609   0.172  0.3387  1.1561 -0.2228
  174MOL0     N23372   0.198   6.716   0.147  0.3472 -0.5271  0.0444
  174MOL0     C23373   0.223   6.842   0.091 -0.0038  0.1294  0.2266
  174MOL0     C23374   0.096   6.890   0.075  0.2285  0.5519  0.0005
  174MOL0     C23375   0.059   7.013  -0.001 -0.5107  0.5056 -0.1910
  174MOL0     C23376   0.178   7.111  -0.049  0.1170  1.0064  0.0831
  174MOL0     C23377   0.245   7.171   0.071 -0.5534 -0.1588 -0.6401
  174MOL0     C23378   0.351   7.276   0.049 -0.5049 -0.1197 -0.2284
  174MOL0     O23379   0.476   7.220   0.001 -0.4882  0.1891  0.3583
  174MOL0     C23380   0.591   7.286  -0.007 -0.5026 -0.2723  0.3965
  174MOL0     C23381   0.707   7.219   0.003 -0.4049  0.0654 -0.5775
  174MOL0     C23382   0.830   7.284   0.006  0.4053  0.3764  0.9629
  174MOL0     C23383   0.953   7.198   0.020 -0.0469 -0.2185  0.3601
  174MOL0     C23384   0.827   7.424   0.005 -1.2449  0.0863  0.0866
  174MOL0     C23385   0.948   7.505   0.001 -0.5180  1.1041 -0.0486
  174MOL0     O23386   1.049   7.457  -0.086 -0.1158  0.5054  0.6557
  174MOL0     C23387   1.180   7.496  -0.093 -0.0954 -1.6086 -0.1637
  174MOL0     C23388   1.264   7.435  -0.188  0.7495  0.3419 -1.0059
  174MOL0     C23389   1.397   7.468  -0.204  1.1757 -0.4458  0.3928
  174MOL0     C23390   1.447   7.560  -0.121 -0.1309 -0.0950  0.4207
  174MOL0     O23391   1.572   7.591  -0.111  0.4046 -0.0106 -1.3203
  174MOL0     C23392   1.672   7.508  -0.166  0.1313 -0.3259  0.4113
  174MOL0     C23393   1.800   7.549  -0.092 -0.4269  0.3664 -0.0822
  174MOL0     C23394   1.920   7.520  -0.173 -0.6538 -0.1829 -0.4853
  174MOL0     C23395   2.049   7.533  -0.084  0.4509 -0.5410  0.1458
  174MOL0     C23396   2.176   7.517  -0.163  0.3521 -0.7809  0.0501
  174MOL0     C23397   2.299   7.566  -0.085  1.0439  0.8443  0.6731
  174MOL0     C23398   2.427   7.547  -0.167 -0.8730 -0.5909  0.1443
  174MOL0     C23399   2.512   7.421  -0.132  0.6958 -0.2027  0.2343
  174MOL0    Cl23400   2.650   7.436  -0.258  0.6539 -0.3242 -0.3419
  174MOL0     C23401   1.366   7.627  -0.028 -0.5771 -1.8431  1.4454
  174MOL0     C23402   1.232   7.594  -0.017  0.4086 -0.3186 -0.1905
  174MOL0     O23403   0.944   7.615   0.051 -0.3193  0.1894  0.5254
  174MOL0     C23404   0.708   7.499  -0.014 -0.2737 -0.0490 -1.1771
  174MOL0     C23405   0.599   7.425  -0.019  0.3556 -0.8383  1.1103
  174MOL0     N23406   0.006   6.791   0.111  0.9076  0.2779 -0.0463
  174MOL0     N23407   0.066   6.691   0.163  0.0455 -0.3150 -0.4463
  174MOL0     C23408   1.147   6.791   1.043 -0.2529 -0.1519  0.1991
  174MOL0     C23409   1.240   6.869   1.103 -0.1035  0.1350 -0.5635
  174MOL0     C23410   1.431   7.244   1.268  0.7461 -0.2920  0.2614
  174MOL0     C23411   1.544   7.256   1.191  0.2066  0.1078  0.3703
  174MOL0     C23412   1.659   7.312   1.236  0.2108 -0.6551 -0.4558
  174MOL0     C23413   1.655   7.390   1.353  0.2951 -0.3542  1.0099
  174MOL0     O23414   1.758   7.454   1.416 -0.3962 -0.3338  0.1173
  174MOL0     C23415   1.889   7.458   1.356  0.1976 -0.6142 -0.2503
  174MOL0     C23416   2.007   7.498   1.448  0.0459 -0.0432 -0.5556
  174MOL0     C23417   2.140   7.465   1.380  0.3375  0.4179 -0.3112
  174MOL0     C23418   2.261   7.525   1.453  0.3246  0.4279 -0.5956
  174MOL0     C23419   2.383   7.531   1.374  0.3439  0.6177  0.5273
  174MOL0     C23420   2.483   7.539   1.301  0.0760  0.1925 -0.3091
  174MOL0     C23421   1.542   7.395   1.427 -0.4298  0.7335  0.1739
  174MOL0     C23422   1.431   7.311   1.393  0.2969 -0.6020  0.9863
  174MOL0     H23423   1.138   7.180   0.998 -1.6301 -0.9938 -1.0369
  174MOL0     H23424   0.972   7.051   0.890  0.0670 -2.0402 -1.8174
  174MOL0     H23425   0.773   6.863   0.898 -0.8125  2.3744 -2.0132
  174MOL0     H23426   0.880   6.866   0.754 -2.0340  0.5069 -0.9777
  174MOL0     H23427   0.824   6.661   0.670 -1.0689  0.0084 -1.4572
  174MOL0     H23428   0.737   6.608   0.808 -1.6003 -0.0818 -2.5005
  174MOL0     H23429   0.555   6.745   0.770 -1.3340 -0.7295 -1.5982
  174MOL0     H23430   0.638   6.856   0.674  1.0216  0.5399  3.8538
  174MOL0     H23431   0.648   6.686   0.481  0.6981  1.2729  0.0455
  174MOL0     H23432   0.594   6.557   0.587 -0.7451  0.7580  1.6411
  174MOL0     H23433   0.374   6.683   0.633 -2.1277  2.9512 -0.3632
  174MOL0     H23434   0.432   6.805   0.517 -0.4125 -0.0867 -0.3766
  174MOL0     H23435   0.368   6.518   0.451  0.9049  0.2724  2.8110
  174MOL0     H23436   0.246   6.643   0.436  0.4249 -1.3033 -2.8444
  174MOL0     H23437   0.401   6.771   0.287  1.4928  0.4717 -0.0889
  174MOL0     H23438   0.495   6.628   0.266 -0.2198  1.8388 -2.2011
  174MOL0     H23439   0.238   6.523   0.205 -2.4281  1.5815 -3.5362
  174MOL0     H23440   0.356   6.584   0.083 -1.0457  2.1361 -1.4531
  174MOL0     H23441   0.317   6.891   0.067 -0.0872  1.0857  1.7285
  174MOL0     H23442   0.015   6.975  -0.093  1.4351 -0.4413 -0.7703
  174MOL0     H23443  -0.024   7.068   0.045 -0.6024  1.0937 -1.0362
  174MOL0     H23444   0.137   7.196  -0.104  2.4100  2.1026 -0.0211
  174MOL0     H23445   0.246   7.055  -0.113 -0.4228  1.6156 -1.0509
  174MOL0     H23446   0.291   7.093   0.133 -0.6410  0.0385 -0.3217
  174MOL0     H23447   0.168   7.212   0.138 -0.5297 -4.4774  2.5214
  174MOL0     H23448   0.364   7.320   0.148 -0.7781  3.5508 -1.6694
  174MOL0     H23449   0.310   7.353  -0.017  0.1953 -0.7355 -1.4253
  174MOL0     H23450   0.703   7.111   0.001 -0.3370 -0.2599  4.2962
  174MOL0     H23451   0.944   7.115   0.090 -1.4176  1.2457  2.0193
  174MOL0     H23452   0.996   7.165  -0.075 -1.2942  0.6981 -0.5565
  174MOL0     H23453   1.022   7.272   0.063  0.3793 -0.9322  0.9314
  174MOL0     H23454   1.215   7.356  -0.245  0.2800 -1.0351  1.1756
  174MOL0     H23455   1.456   7.426  -0.285 -2.8940 -1.3400 -2.3703
  174MOL0     H23456   1.642   7.403  -0.158 -0.6470 -0.2773 -1.4167
  174MOL0     H23457   1.681   7.542  -0.269  1.5988  0.0575  0.6466
  174MOL0     H23458   1.785   7.657  -0.079 -5.8336 -0.0580 -0.6236
  174MOL0     H23459   1.794   7.504   0.008 -1.6054 -0.2108 -0.4012
  174MOL0     H23460   1.932   7.595  -0.252 -1.3141  0.0347 -0.3881
  174MOL0     H23461   1.906   7.424  -0.224 -1.3597 -0.4481  0.1983
  174MOL0     H23462   2.038   7.634  -0.044 -1.6860 -0.4188 -0.6338
  174MOL0     H23463   2.049   7.464   0.001  2.4754 -0.4714  0.2498
  174MOL0     H23464   2.152   7.576  -0.252 -1.3659 -0.9958  0.3419
  174MOL0     H23465   2.178   7.413  -0.194 -0.0995 -1.1173  1.1136
  174MOL0     H23466   2.279   7.666  -0.044  0.5815  1.5584 -1.1963
  174MOL0     H23467   2.310   7.501   0.002  0.9001 -0.2593 -0.1192
  174MOL0     H23468   2.495   7.629  -0.142 -1.9219 -0.1782  1.8758
  174MOL0     H23469   2.411   7.557  -0.275  1.1372  0.3057 -0.1148
  174MOL0     H23470   2.456   7.328  -0.140 -0.5952  0.4784  1.0629
  174MOL0     H23471   2.564   7.433  -0.036  0.7238  2.1990  0.0006
  174MOL0     H23472   1.404   7.707   0.034 -0.4821 -1.5271  0.9827
  174MOL0     H23473   1.173   7.654   0.051  0.1723  3.6426 -3.4882
  174MOL0     H23474   0.719   7.606  -0.026 -1.7199  0.2175 -0.2869
  174MOL0     H23475   0.517   7.495  -0.013  1.7866  1.5697 -3.1225
  174MOL0     H23476   1.158   6.684   1.059  3.8631  0.1959  0.5883
  174MOL0     H23477   1.324   6.838   1.165 -1.4322  2.8773  2.9476
  174MOL0     H23478   1.543   7.222   1.088 -4.0514  2.3925 -0.5732
  174MOL0     H23479   1.753   7.298   1.183  0.1796 -2.4920 -0.1088
  174MOL0     H23480   1.902   7.356   1.319 -0.8538 -1.8261  2.4551
  174MOL0     H23481   1.885   7.533   1.276  0.3656 -0.4350 -0.0900
  174MOL0     H23482   2.008   7.449   1.546  0.3202 -0.4658 -0.7692
  174MOL0     H23483   2.013   7.607   1.456 -3.2653  0.1307  1.4638
  174MOL0     H23484   2.123   7.503   1.278  0.0297 -1.1189 -0.8545
  174MOL0     H23485   2.150   7.358   1.359  3.4359  0.4471  0.5524
  174MOL0     H23486   2.276   7.450   1.531  1.1822  0.5665 -0.6073
  174MOL0     H23487   2.230   7.620   1.496  1.3988 -0.3112  2.0762
  174MOL0     H23488   2.572   7.553   1.243  0.7654 -0.7435  0.4874
  174MOL0     H23489   1.532   7.465   1.509 -2.9040 -0.4329  0.9588
  174MOL0     H23490   1.354   7.285   1.465  1.4780 -2.7798  1.5410
  175MOL0     O23491   0.057   3.647   1.249 -0.4884  0.4880 -0.0386
  175MOL0     C23492   0.022   3.655   1.365  0.3976 -0.2120 -0.6378
  175MOL0     O23493  -0.102   3.653   1.415 -0.3271 -0.1589  0.3470
  175MOL0     C23494  -0.198   3.634   1.329  0.6797 -0.7374 -0.2620
  175MOL0     C23495  -0.217   3.524   1.245  0.2803  0.2997 -0.0712
  175MOL0     C23496  -0.345   3.509   1.174 -0.2221  0.8097  0.0321
  175MOL0     C23497  -0.446   3.601   1.187  0.0940 -1.1138 -0.8605
  175MOL0     O23498  -0.550   3.604   1.102 -0.3399  0.5329  0.2212
  175MOL0     C23499  -0.533   3.535   0.976  0.3107 -0.7772 -0.9656
  175MOL0     C23500  -0.642   3.595   0.886 -0.0637  0.4689  0.5756
  175MOL0     C23501  -0.633   3.535   0.739  0.1571 -0.3669  0.3777
  175MOL0     C23502  -0.686   3.388   0.725 -0.0582  0.3704  0.0829
  175MOL0     C23503  -0.726   3.346   0.584  0.4955  0.3532  1.0855
  175MOL0     C23504  -0.866   3.396   0.544 -0.7635  0.5935  0.1250
  175MOL0     C23505  -0.893   3.416   0.389  0.3294 -0.3896  0.1411
  175MOL0     C23506  -0.980   3.293   0.325 -0.2296 -0.1683  0.4405
  175MOL0     N23507  -0.907   3.175   0.345 -0.1831  0.1021  0.4586
  175MOL0     C23508  -0.789   3.142   0.293 -0.3668  0.5339 -0.8447
  175MOL0     C23509  -0.784   3.008   0.320 -1.3513 -0.4699 -0.0267
  175MOL0     C23510  -0.670   2.906   0.286 -0.1845  0.0983 -0.4693
  175MOL0     C23511  -0.699   2.807   0.172 -0.4083 -0.4021 -1.3615
  175MOL0     C23512  -0.651   2.867   0.036 -0.1876 -0.7391  0.0072
  175MOL0     C23513  -0.701   3.015   0.002  0.0787  0.6105  0.2018
  175MOL0     O23514  -0.667   3.041  -0.136 -0.3709  0.2250  0.3726
  175MOL0     C23515  -0.764   3.017  -0.236  0.2243 -0.9780  0.6819
  175MOL0     C23516  -0.900   2.970  -0.210 -0.1112  0.4225 -0.0535
  175MOL0     C23517  -0.975   2.934  -0.329  0.3820  0.0261  0.4217
  175MOL0     C23518  -1.120   2.897  -0.317 -0.3915 -0.0293 -0.2742
  175MOL0     C23519  -0.925   2.949  -0.458  0.1282 -0.1538 -0.3281
  175MOL0     C23520  -0.998   2.901  -0.578  0.1384 -0.2820  0.5810
  175MOL0     O23521  -1.000   2.982  -0.689  0.9027  1.0528 -0.7125
  175MOL0     C23522  -1.052   2.930  -0.801 -0.4653  0.9642  0.7556
  175MOL0     C23523  -1.179   2.875  -0.819  0.0544  0.1025 -0.4121
  175MOL0     C23524  -1.222   2.827  -0.940  0.6598  0.2368 -0.1943
  175MOL0     C23525  -1.137   2.815  -1.048  0.9146  0.0440 -0.4429
  175MOL0     O23526  -1.173   2.754  -1.161  0.5152 -0.4505  0.7565
  175MOL0     C23527  -1.093   2.642  -1.200 -0.2562 -0.1846  0.1504
  175MOL0     C23528  -1.148   2.601  -1.340  0.4070  0.8024 -0.5342
  175MOL0     C23529  -1.056   2.491  -1.408  0.2615 -0.4076 -0.9899
  175MOL0     C23530  -1.065   2.359  -1.324 -0.0395 -0.2752  0.3301
  175MOL0     C23531  -1.027   2.234  -1.400 -0.4283 -0.1626  0.2204
  175MOL0     C23532  -0.871   2.228  -1.438  0.0115 -0.0182 -0.3023
  175MOL0     C23533  -0.856   2.109  -1.532 -0.3628  0.5903 -0.6252
  175MOL0     C23534  -0.715   2.096  -1.579  0.4737 -0.6271 -1.1704
  175MOL0    Cl23535  -0.621   2.060  -1.427 -0.1128 -0.5860  0.3437
  175MOL0     C23536  -1.008   2.873  -1.035  0.4208  0.0691 -0.3853
  175MOL0     C23537  -0.973   2.930  -0.911 -0.1345 -0.3820  0.8620
  175MOL0     O23538  -1.044   2.788  -0.577 -0.5426  0.6651 -0.2127
  175MOL0     C23539  -0.792   2.986  -0.477  0.0062 -0.2850 -0.4290
  175MOL0     C23540  -0.718   3.029  -0.362  0.0840  0.3240 -0.7642
  175MOL0     N23541  -0.896   2.958   0.375  0.9029  0.2047  0.4340
  175MOL0     N23542  -0.973   3.061   0.386 -0.6009  0.0472  0.7558
  175MOL0     C23543  -0.422   3.710   1.275 -0.1470  0.4832 -0.0150
  175MOL0     C23544  -0.298   3.730   1.332  0.3486  0.2503  0.0609
  175MOL0     C23545   0.129   3.681   1.462  0.1220  0.0032 -0.4570
  175MOL0     C23546   0.107   3.663   1.602  0.4278  1.0581 -0.1116
  175MOL0     C23547   0.200   3.698   1.698 -0.0618 -0.0713 -0.0935
  175MOL0     C23548   0.324   3.749   1.661  0.2661  0.1947  0.0733
  175MOL0     O23549   0.433   3.758   1.739  0.0186 -0.0554  0.4240
  175MOL0     C23550   0.445   3.696   1.866 -0.1378  0.1032  0.9825
  175MOL0     C23551   0.584   3.651   1.888 -0.5185  0.7857 -0.1609
  175MOL0     C23552   0.621   3.612   2.033  0.1554  0.5371  0.6304
  175MOL0     C23553   0.770   3.623   2.054  0.3729 -0.3828  0.7513
  175MOL0     C23554   0.835   3.537   1.962  0.2992  0.5345  0.3191
  175MOL0     C23555   0.912   3.483   1.884  0.4921 -0.4750  0.6325
  175MOL0     C23556   0.340   3.780   1.524 -0.7326  0.7083 -0.3502
  175MOL0     C23557   0.242   3.758   1.433  0.0400 -0.0766 -0.0643
  175MOL0     H23558  -0.144   3.444   1.254 -1.0052 -0.9544 -0.3302
  175MOL0     H23559  -0.368   3.425   1.109  3.2925  0.2468 -0.6840
  175MOL0     H23560  -0.429   3.542   0.943  1.9129 -0.3997  3.4954
  175MOL0     H23561  -0.562   3.431   0.994 -0.4987 -0.2766  0.7870
  175MOL0     H23562  -0.739   3.595   0.937 -0.1312  0.7467  0.4515
  175MOL0     H23563  -0.615   3.701   0.877  0.1995  0.3984  0.5332
  175MOL0     H23564  -0.699   3.601   0.683 -0.5711  1.5150  3.2067
  175MOL0     H23565  -0.533   3.537   0.695  0.0477 -1.1579  0.0792
  175MOL0     H23566  -0.604   3.326   0.763  0.8404  0.7066 -1.2294
  175MOL0     H23567  -0.776   3.374   0.786 -0.4234 -1.2794 -0.7925
  175MOL0     H23568  -0.663   3.399   0.512 -0.9942  2.3480  1.1673
  175MOL0     H23569  -0.726   3.237   0.573 -1.9549  0.4069 -0.0406
  175MOL0     H23570  -0.936   3.327   0.592  1.5553 -1.4638  0.7440
  175MOL0     H23571  -0.880   3.495   0.589  1.6377  2.9814 -3.8435
  175MOL0     H23572  -0.937   3.515   0.379  2.0532  0.8390  3.2488
  175MOL0     H23573  -0.794   3.414   0.341 -0.0571 -1.6088 -0.6604
  175MOL0     H23574  -0.978   3.289   0.216  0.1536  0.8702  0.3971
  175MOL0     H23575  -1.083   3.301   0.362 -0.4259  2.0652 -0.3926
  175MOL0     H23576  -0.712   3.206   0.251  1.6469  0.7328  2.7689
  175MOL0     H23577  -0.568   2.944   0.284  0.1839 -0.7924  0.6316
  175MOL0     H23578  -0.666   2.843   0.375 -2.8136  1.0890  0.4514
  175MOL0     H23579  -0.807   2.793   0.169 -0.8867  0.2532  3.6057
  175MOL0     H23580  -0.643   2.713   0.177  0.1500 -0.0385 -0.5400
  175MOL0     H23581  -0.672   2.807  -0.053 -3.1096  0.3771 -0.1672
  175MOL0     H23582  -0.542   2.868   0.039 -0.0554  1.8768 -2.2262
  175MOL0     H23583  -0.639   3.080   0.065  4.2761 -0.5352 -2.3632
  175MOL0     H23584  -0.807   3.032   0.023 -0.2654  1.1385 -1.7699
  175MOL0     H23585  -0.943   2.965  -0.110  0.3081  1.1918  0.1749
  175MOL0     H23586  -1.143   2.791  -0.332 -0.4314 -0.1309  0.4314
  175MOL0     H23587  -1.157   2.914  -0.215 -0.0588 -1.5412  0.1197
  175MOL0     H23588  -1.178   2.952  -0.392  1.2244  0.5262 -1.1697
  175MOL0     H23589  -1.250   2.880  -0.737 -0.9080 -2.1143 -1.0232
  175MOL0     H23590  -1.316   2.773  -0.939  0.5241  0.4776  0.1378
  175MOL0     H23591  -0.985   2.660  -1.200  0.2365 -1.7050 -4.7686
  175MOL0     H23592  -1.086   2.555  -1.133  0.0255  0.3912  0.8888
  175MOL0     H23593  -1.249   2.563  -1.325  1.4481 -0.9808  2.8652
  175MOL0     H23594  -1.153   2.692  -1.401  1.8522  2.4575  1.6577
  175MOL0     H23595  -0.953   2.528  -1.409 -0.4877  1.9025 -2.8177
  175MOL0     H23596  -1.100   2.471  -1.506 -2.1680  1.6568 -0.4287
  175MOL0     H23597  -0.990   2.369  -1.245  1.3834  1.2174 -1.1135
  175MOL0     H23598  -1.167   2.347  -1.287  0.1533  1.9540  1.7839
  175MOL0     H23599  -1.079   2.237  -1.496 -0.0332  1.1426  0.0335
  175MOL0     H23600  -1.070   2.145  -1.353 -0.1977  0.7149  2.2115
  175MOL0     H23601  -0.844   2.322  -1.485 -0.0315  0.4060  0.5104
  175MOL0     H23602  -0.818   2.227  -1.342 -1.4752  0.3670  0.5599
  175MOL0     H23603  -0.922   2.108  -1.619  1.1589  2.9061 -1.9078
  175MOL0     H23604  -0.878   2.019  -1.473  1.1080 -1.7181 -3.3153
  175MOL0     H23605  -0.706   2.196  -1.622 -0.2421 -0.0596 -0.0581
  175MOL0     H23606  -0.695   2.030  -1.663  3.9602  1.8833 -2.5306
  175MOL0     H23607  -0.947   2.881  -1.125 -0.9839 -0.5688 -1.4406
  175MOL0     H23608  -0.883   2.991  -0.909  0.7919 -1.4324 -2.6824
  175MOL0     H23609  -0.738   3.008  -0.568  0.6136 -0.1473 -0.0421
  175MOL0     H23610  -0.614   3.051  -0.379  0.3607 -0.8413 -0.6893
  175MOL0     H23611  -0.496   3.784   1.301 -2.2450 -2.1136  1.9999
  175MOL0     H23612  -0.284   3.830   1.374 -2.8877  1.4766 -1.4499
  175MOL0     H23613   0.018   3.616   1.644  2.3355 -2.3117  0.4993
  175MOL0     H23614   0.169   3.692   1.802 -0.6827 -0.9366 -0.3136
  175MOL0     H23615   0.412   3.766   1.943  0.5687  3.8637 -1.8861
  175MOL0     H23616   0.379   3.608   1.874  1.4585 -1.2432  0.0652
  175MOL0     H23617   0.646   3.734   1.854 -1.0373  1.2513  0.0156
  175MOL0     H23618   0.607   3.565   1.825  1.7322  0.2899  1.2050
  175MOL0     H23619   0.574   3.515   2.051 -1.1043  0.8983 -0.4979
  175MOL0     H23620   0.564   3.683   2.094 -1.3469  0.6178 -0.7772
  175MOL0     H23621   0.808   3.594   2.152 -0.3975 -2.2151  0.5422
  175MOL0     H23622   0.799   3.729   2.044 -0.2423 -0.0387  2.3842
  175MOL0     H23623   0.979   3.446   1.809  1.5475  0.4540  1.0904
  175MOL0     H23624   0.428   3.842   1.505 -0.4577  0.9859  1.6586
  175MOL0     H23625   0.255   3.805   1.336 -1.4300 -0.9299 -0.7001
  176MOL0     O23626   9.799   0.225   0.981 -0.2499 -0.4106  0.2944
  176MOL0     C23627   9.767   0.314   0.904  0.3131  0.2622 -0.4217
  176MOL0     O23628   9.637   0.337   0.870  0.4028 -0.1840  0.5053
  176MOL0     C23629   9.533   0.278   0.941 -0.3983 -0.3261 -0.5936
  176MOL0     C23630   9.417   0.253   0.873 -0.2244 -0.5069 -0.3536
  176MOL0     C23631   9.293   0.222   0.938  0.9190  0.5183 -0.0879
  176MOL0     C23632   9.290   0.199   1.082  0.0127  0.3482 -0.4953
  176MOL0     O23633   9.163   0.161   1.134  0.9595 -0.1840  0.4407
  176MOL0     C23634   9.044   0.158   1.050  0.9928  0.1415 -0.1499
  176MOL0     C23635   8.935   0.117   1.153 -1.7152 -0.4181  0.9586
  176MOL0     C23636   8.967  -0.033   1.203  0.1841 -0.4346 -0.6338
  176MOL0     C23637   8.878  -0.133   1.132  0.3491 -0.1619 -0.0227
  176MOL0     C23638   8.940  -0.277   1.156 -1.0087 -0.4227  1.3329
  176MOL0     C23639   8.847  -0.381   1.091 -0.1289  0.4560 -0.2771
  176MOL0     C23640   8.748  -0.444   1.186 -0.7201 -0.6793  0.4775
  176MOL0     C23641   8.633  -0.354   1.227  0.4873  0.2776  0.6335
  176MOL0     N23642   8.540  -0.330   1.115 -0.8258 -0.7441 -0.3083
  176MOL0     C23643   8.417  -0.392   1.091 -0.3526  0.8303 -0.1363
  176MOL0     C23644   8.368  -0.324   0.986 -0.4711 -0.2760  0.4512
  176MOL0     C23645   8.237  -0.362   0.913  0.0271  0.3575  0.3003
  176MOL0     C23646   8.248  -0.325   0.760  0.3112  0.1735 -0.3544
  176MOL0     C23647   8.133  -0.362   0.667  0.1775  0.5861 -0.0073
  176MOL0     C23648   8.003  -0.286   0.682  0.4757 -0.1779  0.4175
  176MOL0     O23649   8.014  -0.155   0.650  0.3004 -0.4707 -0.2437
  176MOL0     C23650   7.909  -0.086   0.593 -0.3459  0.0368 -0.9634
  176MOL0     C23651   7.937   0.042   0.542 -0.2163  0.1642 -0.2965
  176MOL0     C23652   7.841   0.133   0.498 -0.2476  0.0657  0.7074
  176MOL0     C23653   7.885   0.273   0.453 -0.1003 -0.2814  0.0986
  176MOL0     C23654   7.699   0.098   0.516 -0.4848 -0.2182  0.1368
  176MOL0     C23655   7.590   0.193   0.495 -0.1742 -0.7552  0.1701
  176MOL0     O23656   7.611   0.328   0.490 -1.1274  0.5608  0.1204
  176MOL0     C23657   7.514   0.414   0.450 -0.4272 -0.1487  0.1384
  176MOL0     C23658   7.403   0.398   0.376 -0.5158 -0.0834  0.3498
  176MOL0     C23659   7.324   0.509   0.339 -0.0901  0.3193 -1.0950
  176MOL0     C23660   7.353   0.642   0.387  0.8749  0.2060  0.1071
  176MOL0     O23661   7.262   0.745   0.368 -0.5068  0.5791  0.7535
  176MOL0     C23662   7.321   0.876   0.348 -0.0935  0.6253 -1.0279
  176MOL0     C23663   7.211   0.964   0.291  0.0506 -0.1469 -0.1769
  176MOL0     C23664   7.283   1.084   0.224 -0.7008  0.4747 -0.0594
  176MOL0     C23665   7.185   1.167   0.134 -0.4193 -1.2902 -0.6199
  176MOL0     C23666   7.088   1.271   0.202  0.0773 -0.0320 -0.1471
  176MOL0     C23667   7.007   1.335   0.084 -0.2578  0.3073 -1.6481
  176MOL0     C23668   6.884   1.438   0.129 -0.7781 -0.1116  0.6967
  176MOL0     C23669   6.794   1.382   0.243 -0.0142  0.3948  0.0627
  176MOL0    Cl23670   6.656   1.494   0.272 -0.0725  0.2354  0.4203
  176MOL0     C23671   7.467   0.657   0.461  0.3120 -0.0001  0.9959
  176MOL0     C23672   7.541   0.547   0.497  0.1364 -0.2789 -0.3672
  176MOL0     O23673   7.479   0.139   0.496 -0.1646  0.1203  0.2456
  176MOL0     C23674   7.674  -0.039   0.553  0.3480  1.0750 -0.3951
  176MOL0     C23675   7.776  -0.126   0.592 -0.6824 -0.2329 -0.0062
  176MOL0     N23676   8.449  -0.221   0.952 -0.6438  0.6568 -0.5161
  176MOL0     N23677   8.548  -0.224   1.035  0.4521 -0.3171 -0.0325
  176MOL0     C23678   9.412   0.206   1.149  0.2005 -0.3419  0.0601
  176MOL0     C23679   9.529   0.250   1.084 -0.5587 -1.2499  1.2691
  176MOL0     C23680   9.868   0.388   0.837  0.0194  0.3308 -0.4310
  176MOL0     C23681  10.002   0.354   0.868  0.2990 -0.6452 -0.1491
  176MOL0     C23682  10.098   0.433   0.804  0.4313  0.2607  0.5109
  176MOL0     C23683  10.069   0.538   0.717 -0.0182 -0.7915  0.8073
  176MOL0     O23684  10.183   0.605   0.677 -0.1751 -0.4640 -0.2289
  176MOL0     C23685  10.168   0.706   0.582 -0.1806 -0.4313  0.2691
  176MOL0     C23686  10.276   0.681   0.484 -0.5277 -0.0708  0.0514
  176MOL0     C23687  10.264   0.808   0.390  0.2491  0.3855 -0.1266
  176MOL0     C23688  10.374   0.805   0.288  0.5634 -0.1469  0.0965
  176MOL0     C23689  10.511   0.811   0.337 -0.4662  0.2431  0.0517
  176MOL0     C23690  10.621   0.801   0.389  0.0266 -0.2422 -0.2557
  176MOL0     C23691   9.934   0.566   0.700  0.3251  0.8057  1.4840
  176MOL0     C23692   9.834   0.489   0.752  0.3670 -0.6732 -1.1451
  176MOL0     H23693   9.418   0.263   0.765  1.1473  1.3962 -0.2137
  176MOL0     H23694   9.201   0.224   0.880 -1.6132  1.2392  3.5735
  176MOL0     H23695   9.012   0.258   1.020  1.6283  0.4211  0.0898
  176MOL0     H23696   9.062   0.088   0.968  1.6282  0.7007 -0.4958
  176MOL0     H23697   8.937   0.183   1.240 -3.1488 -1.6538  1.9848
  176MOL0     H23698   8.834   0.120   1.109 -2.1195  2.3266  1.8280
  176MOL0     H23699   9.073  -0.057   1.187  0.3232 -1.7031  1.6573
  176MOL0     H23700   8.949  -0.046   1.310  2.5262 -0.9190 -0.2333
  176MOL0     H23701   8.780  -0.131   1.180  0.8454 -0.3723  1.0182
  176MOL0     H23702   8.881  -0.113   1.024 -0.2688  1.8013  0.2952
  176MOL0     H23703   9.027  -0.266   1.090 -1.7351 -2.2058 -0.0071
  176MOL0     H23704   8.959  -0.291   1.263 -1.4114  1.0133  1.6213
  176MOL0     H23705   8.782  -0.339   1.014 -1.8104  1.0335  1.3681
  176MOL0     H23706   8.906  -0.460   1.044  0.6111  0.2307  0.9968
  176MOL0     H23707   8.726  -0.539   1.135 -2.7837  0.7642 -1.5573
  176MOL0     H23708   8.798  -0.472   1.278 -0.6829  0.6254  0.8739
  176MOL0     H23709   8.660  -0.261   1.277  3.6224  0.3983 -1.0230
  176MOL0     H23710   8.566  -0.402   1.299  1.4618  0.2682  1.5607
  176MOL0     H23711   8.371  -0.476   1.142  3.7564 -0.1025  2.5292
  176MOL0     H23712   8.203  -0.465   0.929 -1.7237  0.7360 -0.7982
  176MOL0     H23713   8.161  -0.295   0.954 -0.2287  0.8951 -1.0369
  176MOL0     H23714   8.323  -0.387   0.711  0.2206  0.9063 -1.4546
  176MOL0     H23715   8.282  -0.222   0.747 -0.8441  0.9055  1.7976
  176MOL0     H23716   8.108  -0.465   0.694 -2.6705  1.8865  3.1631
  176MOL0     H23717   8.157  -0.347   0.562  2.3269  2.2183  0.6626
  176MOL0     H23718   7.964  -0.297   0.783  0.9857 -2.8399  0.3990
  176MOL0     H23719   7.936  -0.333   0.609  0.8456 -1.5636  0.9327
  176MOL0     H23720   8.040   0.075   0.539  0.5349 -2.0977 -1.9119
  176MOL0     H23721   7.830   0.309   0.366 -0.4354  3.2842  1.5976
  176MOL0     H23722   7.872   0.351   0.529  0.0394  1.1535 -1.2934
  176MOL0     H23723   7.993   0.282   0.439 -0.2569  2.4394  0.1288
  176MOL0     H23724   7.376   0.307   0.323 -1.8763  0.4264  0.1432
  176MOL0     H23725   7.234   0.506   0.278 -0.4916  0.1805 -0.5034
  176MOL0     H23726   7.348   0.929   0.440  4.0674  0.8944 -2.1839
  176MOL0     H23727   7.415   0.877   0.292 -0.8027 -1.7851 -2.3821
  176MOL0     H23728   7.161   0.918   0.205 -1.4885 -0.8683  1.0593
  176MOL0     H23729   7.144   1.009   0.364  0.5267  0.7787 -0.2929
  176MOL0     H23730   7.362   1.047   0.158 -0.2015  0.4115  0.5628
  176MOL0     H23731   7.326   1.146   0.304  1.7969  0.8336 -1.5774
  176MOL0     H23732   7.254   1.210   0.061  0.1290 -1.3688 -0.1588
  176MOL0     H23733   7.123   1.093   0.083 -0.2043 -3.4912  2.0152
  176MOL0     H23734   7.133   1.347   0.265 -2.2204 -0.3599  2.0575
  176MOL0     H23735   7.012   1.220   0.263 -0.7116  0.6021 -0.5790
  176MOL0     H23736   7.084   1.387   0.027  2.6633 -3.8517 -1.9481
  176MOL0     H23737   6.962   1.252   0.029 -1.3777 -0.8709  0.8555
  176MOL0     H23738   6.814   1.453   0.046  2.5330  3.9477 -1.7156
  176MOL0     H23739   6.924   1.535   0.156  0.7046  0.7646 -3.8239
  176MOL0     H23740   6.850   1.378   0.337 -0.2980 -0.3957  0.2124
  176MOL0     H23741   6.763   1.279   0.220 -0.4352  0.2487  1.2195
  176MOL0     H23742   7.510   0.754   0.483  0.5010  0.0915  0.2228
  176MOL0     H23743   7.639   0.567   0.541  0.3900  1.1610 -1.4936
  176MOL0     H23744   7.576  -0.085   0.557  0.3048  1.1948 -0.0800
  176MOL0     H23745   7.744  -0.222   0.631 -2.7861  0.4203 -0.0332
  176MOL0     H23746   9.430   0.185   1.254  1.2476  0.9151  0.1513
  176MOL0     H23747   9.621   0.270   1.136 -0.6680 -4.1440  2.7439
  176MOL0     H23748  10.031   0.274   0.936 -0.4164  0.0142  0.9591
  176MOL0     H23749  10.204   0.416   0.823  0.2631  0.9674  2.3099
  176MOL0     H23750  10.078   0.701   0.520  0.2371 -0.5144 -0.3319
  176MOL0     H23751  10.187   0.798   0.637 -2.5360 -0.1201  0.6855
  176MOL0     H23752  10.273   0.583   0.435 -1.8351 -0.2499  0.4492
  176MOL0     H23753  10.375   0.691   0.529 -0.8541  0.5408  0.6543
  176MOL0     H23754  10.275   0.900   0.448  1.7898  1.3601 -1.8555
  176MOL0     H23755  10.177   0.804   0.325  0.2416  1.6063 -0.2193
  176MOL0     H23756  10.372   0.893   0.224  5.6348  0.0327 -0.2794
  176MOL0     H23757  10.364   0.721   0.219 -0.3505 -0.5514  0.7043
  176MOL0     H23758  10.712   0.791   0.444 -0.1818  0.6217  0.2644
  176MOL0     H23759   9.914   0.647   0.630 -1.5574  0.6046  1.7534
  176MOL0     H23760   9.730   0.519   0.744  0.6621  0.9241  0.4355
  177MOL0     O23761   5.576   0.194   1.769 -0.1557  0.6703  0.6612
  177MOL0     C23762   5.579   0.074   1.798  0.0044 -0.2622  0.7876
  177MOL0     O23763   5.597   0.023   1.918 -0.4598 -0.0927  0.1410
  177MOL0     C23764   5.599   0.116   2.025  0.8822 -0.5422  0.4914
  177MOL0     C23765   5.729   0.132   2.095 -1.7868 -0.1800  0.1307
  177MOL0     C23766   5.735   0.224   2.200 -0.0909  0.8871  0.5125
  177MOL0     C23767   5.625   0.295   2.240  0.7978  0.8548 -0.2393
  177MOL0     O23768   5.631   0.374   2.354 -0.0848  0.6706 -0.2306
  177MOL0     C23769   5.637   0.299   2.479 -0.2895  0.1482  0.5126
  177MOL0     C23770   5.629   0.391   2.596  0.0866  0.1949 -1.0779
  177MOL0     C23771   5.644   0.330   2.733 -0.3846  0.0359 -0.4187
  177MOL0     C23772   5.599   0.433   2.842 -0.7622  0.4799 -0.3116
  177MOL0     C23773   5.652   0.388   2.981  0.3307  0.5440  0.0992
  177MOL0     C23774   5.598   0.476   3.092 -0.1170  0.2794 -0.2953
  177MOL0     C23775   5.676   0.474   3.223 -0.3107  0.1737 -0.2215
  177MOL0     C23776   5.584   0.506   3.337 -0.4349 -0.2154  0.2128
  177MOL0     N23777   5.506   0.398   3.383 -0.0308  1.0988 -0.5546
  177MOL0     C23778   5.534   0.266   3.363 -0.0201 -0.4824 -0.2650
  177MOL0     C23779   5.429   0.200   3.411 -0.1813  0.1540  0.5354
  177MOL0     C23780   5.423   0.051   3.426 -0.3280  0.4209  0.7001
  177MOL0     C23781   5.528  -0.019   3.512 -0.2653  0.5191 -0.1672
  177MOL0     C23782   5.576   0.049   3.632  0.1291  0.3966 -0.6046
  177MOL0     C23783   5.670  -0.036   3.724  0.5895  0.0612  1.0336
  177MOL0     O23784   5.656   0.000   3.865 -0.7178  0.1519 -0.9772
  177MOL0     C23785   5.749   0.086   3.924 -0.0470  0.2802 -0.4931
  177MOL0     C23786   5.737   0.100   4.063  0.6147 -0.1176 -0.1338
  177MOL0     C23787   5.827   0.175   4.136 -0.6367  0.7752 -0.4668
  177MOL0     C23788   5.805   0.175   4.285  0.1159  0.3586  0.8162
  177MOL0     C23789   5.922   0.251   4.068 -0.2001  0.1053 -0.0362
  177MOL0     C23790   6.011   0.346   4.128 -0.2796 -0.0182 -0.3907
  177MOL0     O23791   6.129   0.372   4.070 -0.1672 -0.0958  0.3499
  177MOL0     C23792   6.187   0.489   4.112 -0.4160 -0.3270 -0.5973
  177MOL0     C23793   6.322   0.477   4.163 -0.1389  0.2774  0.8296
  177MOL0     C23794   6.391   0.589   4.194  0.1799 -0.5695 -0.2149
  177MOL0     C23795   6.334   0.711   4.179  0.6513 -0.7710 -0.4874
  177MOL0     O23796   6.405   0.825   4.216  0.4380 -0.6423 -0.5009
  177MOL0     C23797   6.398   0.933   4.119  0.1122 -0.1869  0.1070
  177MOL0     C23798   6.509   1.040   4.154  0.4240 -0.0800  0.7933
  177MOL0     C23799   6.646   0.993   4.153  0.1021 -0.3450 -0.1439
  177MOL0     C23800   6.758   1.101   4.169  0.3181  0.2614  0.1924
  177MOL0     C23801   6.887   1.060   4.088  0.2807  0.3216 -0.0109
  177MOL0     C23802   6.990   1.174   4.100 -0.4324 -0.1520 -0.2300
  177MOL0     C23803   7.109   1.162   3.997  0.2655 -0.6323  0.4284
  177MOL0     C23804   7.224   1.256   4.033  0.1285 -0.0520 -0.6764
  177MOL0    Cl23805   7.306   1.238   4.177  0.3635  0.0821 -0.2425
  177MOL0     C23806   6.208   0.725   4.134 -0.1929 -0.3491  0.1114
  177MOL0     C23807   6.121   0.615   4.115 -0.6125  0.0851  0.6407
  177MOL0     O23808   5.967   0.410   4.222  0.4009 -0.0901 -0.0042
  177MOL0     C23809   5.933   0.231   3.927 -0.8677 -0.4423  0.2121
  177MOL0     C23810   5.850   0.148   3.857 -0.3925  0.8346  0.3825
  177MOL0     N23811   5.336   0.289   3.448 -0.0908  0.0447 -0.3101
  177MOL0     N23812   5.385   0.401   3.441 -1.0896 -0.2081 -0.2326
  177MOL0     C23813   5.503   0.286   2.169 -0.1335 -0.7174 -0.0258
  177MOL0     C23814   5.493   0.200   2.060  0.6258 -0.3744  0.0347
  177MOL0     C23815   5.572  -0.024   1.683  0.4284 -0.7734 -0.3902
  177MOL0     C23816   5.607   0.021   1.551  0.1272  0.4055  0.1221
  177MOL0     C23817   5.615  -0.059   1.446  0.3565  0.2006  0.5923
  177MOL0     C23818   5.596  -0.194   1.464 -0.4092 -0.0921 -0.6498
  177MOL0     O23819   5.631  -0.290   1.376 -0.7413 -0.7280  0.5181
  177MOL0     C23820   5.673  -0.246   1.250 -0.4106  0.0132  0.6151
  177MOL0     C23821   5.820  -0.206   1.243  1.2492 -0.7736 -0.6406
  177MOL0     C23822   5.846  -0.124   1.113 -0.4589  0.7508  0.2517
  177MOL0     C23823   5.877  -0.218   0.991 -0.1777  0.6030  0.7443
  177MOL0     C23824   5.960  -0.324   1.028 -0.4982  0.2185  0.4460
  177MOL0     C23825   6.027  -0.407   1.072 -0.4397 -0.5429  0.4129
  177MOL0     C23826   5.555  -0.242   1.583  0.8157  0.3361 -0.5618
  177MOL0     C23827   5.549  -0.156   1.701 -0.8139  0.5634  0.0442
  177MOL0     H23828   5.817   0.080   2.059 -1.8196  0.5277 -1.0403
  177MOL0     H23829   5.830   0.245   2.249  0.2332  0.0827  0.2416
  177MOL0     H23830   5.559   0.222   2.479  0.5872 -0.8341 -1.7190
  177MOL0     H23831   5.731   0.243   2.491 -0.2733 -0.7620 -2.6667
  177MOL0     H23832   5.711   0.463   2.589  2.7746 -2.4126  1.0686
  177MOL0     H23833   5.524   0.424   2.589 -0.1501 -0.3479 -0.2585
  177MOL0     H23834   5.583   0.243   2.757 -1.7567  0.9228 -0.5878
  177MOL0     H23835   5.749   0.300   2.748  0.1315  0.9660 -1.9532
  177MOL0     H23836   5.634   0.533   2.815 -0.5573  0.2456 -0.9255
  177MOL0     H23837   5.490   0.427   2.854 -0.5875 -0.3203  1.0063
  177MOL0     H23838   5.623   0.288   3.015 -1.4021  1.6020  1.9854
  177MOL0     H23839   5.761   0.402   2.982  0.4799 -0.3785  1.9179
  177MOL0     H23840   5.591   0.581   3.063  4.3439  0.6522 -0.7509
  177MOL0     H23841   5.495   0.445   3.112 -1.0040  4.0361  1.9639
  177MOL0     H23842   5.727   0.379   3.238 -0.4251  0.5110  2.9198
  177MOL0     H23843   5.745   0.559   3.219  0.9154 -0.6527  1.7739
  177MOL0     H23844   5.513   0.586   3.317 -1.0159 -1.3510 -2.6973
  177MOL0     H23845   5.653   0.542   3.414  3.5782 -5.6224 -0.2845
  177MOL0     H23846   5.622   0.218   3.322 -0.2194  0.3484 -1.7331
  177MOL0     H23847   5.322   0.015   3.452  0.3824 -3.4864 -1.1758
  177MOL0     H23848   5.444   0.000   3.331 -2.1235  1.6984 -0.4626
  177MOL0     H23849   5.616  -0.044   3.452  0.2227  2.8913 -0.5663
  177MOL0     H23850   5.480  -0.112   3.542  1.4303 -0.4561 -0.3294
  177MOL0     H23851   5.495   0.062   3.704 -0.0901 -6.0848  0.8926
  177MOL0     H23852   5.624   0.143   3.602  0.6736  0.5992  0.8398
  177MOL0     H23853   5.768  -0.037   3.677 -0.7585 -0.4473 -1.9724
  177MOL0     H23854   5.643  -0.142   3.728 -1.3770  0.5388  2.0542
  177MOL0     H23855   5.650   0.047   4.101 -1.1567  1.7265 -1.3823
  177MOL0     H23856   5.730   0.100   4.313 -0.0004 -0.4394 -1.4642
  177MOL0     H23857   5.900   0.162   4.338  1.2490  0.2570 -1.1540
  177MOL0     H23858   5.767   0.274   4.312 -0.6963  1.4889 -3.6850
  177MOL0     H23859   6.379   0.387   4.180 -0.0583  0.5422  2.0439
  177MOL0     H23860   6.496   0.574   4.218  0.0522  0.6752  1.2911
  177MOL0     H23861   6.406   0.886   4.021 -1.7998  0.4854 -0.4090
  177MOL0     H23862   6.303   0.986   4.113 -0.2316 -0.5958  1.4029
  177MOL0     H23863   6.500   1.114   4.074 -2.4543 -1.7410 -0.5993
  177MOL0     H23864   6.490   1.091   4.249 -0.0092 -0.0055  0.6690
  177MOL0     H23865   6.653   0.951   4.052 -1.0524 -0.4885 -0.1752
  177MOL0     H23866   6.655   0.911   4.224 -0.6107  0.7659  1.2798
  177MOL0     H23867   6.709   1.194   4.137 -1.6563  0.9293  4.4818
  177MOL0     H23868   6.791   1.114   4.272 -1.2928  0.6863  0.6798
  177MOL0     H23869   6.859   1.044   3.984 -0.3614 -2.0817  0.4789
  177MOL0     H23870   6.930   0.968   4.130  5.4643  2.8815  1.1229
  177MOL0     H23871   6.947   1.272   4.081  0.0242 -0.3976 -2.7976
  177MOL0     H23872   7.036   1.167   4.199  1.5567  1.1794 -1.0025
  177MOL0     H23873   7.074   1.192   3.898 -1.2674  2.2484  1.7312
  177MOL0     H23874   7.138   1.056   3.994  1.1620 -0.3828 -2.0610
  177MOL0     H23875   7.184   1.357   4.034  1.2369  0.4313 -1.7824
  177MOL0     H23876   7.304   1.258   3.959  1.9028  1.3019  1.1906
  177MOL0     H23877   6.164   0.820   4.108 -2.8846 -1.9356 -1.6902
  177MOL0     H23878   6.017   0.623   4.085 -0.3919 -2.5957 -1.1936
  177MOL0     H23879   6.000   0.292   3.868 -1.1520 -0.3453 -0.0122
  177MOL0     H23880   5.850   0.155   3.749  0.1454  1.1056  0.3963
  177MOL0     H23881   5.422   0.355   2.187 -0.5600 -0.3867 -2.7082
  177MOL0     H23882   5.402   0.186   2.002 -0.7494 -3.4896  2.6708
  177MOL0     H23883   5.628   0.125   1.528  1.0740 -0.1731 -1.8384
  177MOL0     H23884   5.652  -0.015   1.354  0.4365 -0.5123  0.2843
  177MOL0     H23885   5.657  -0.326   1.177 -7.2927 -0.0253  1.5663
  177MOL0     H23886   5.608  -0.168   1.211  0.1312 -0.5494 -1.5302
  177MOL0     H23887   5.889  -0.291   1.254  1.0793 -0.7831  0.4634
  177MOL0     H23888   5.833  -0.132   1.322 -0.4782 -2.1154  0.9926
  177MOL0     H23889   5.927  -0.053   1.131  2.2772 -2.0259 -0.0789
  177MOL0     H23890   5.761  -0.061   1.089  0.9361  3.1218  1.2168
  177MOL0     H23891   5.932  -0.155   0.921 -1.5652  0.8092 -0.2031
  177MOL0     H23892   5.786  -0.254   0.942  0.2174  2.3045 -1.3453
  177MOL0     H23893   6.098  -0.482   1.101 -1.9879 -2.6017 -0.7782
  177MOL0     H23894   5.545  -0.350   1.590  3.3086  0.1619  1.8360
  177MOL0     H23895   5.529  -0.201   1.798 -2.5892  0.0420 -0.5238
  178MOL0     O23896   5.974   7.046   1.242  0.2110 -0.3475  0.0486
  178MOL0     C23897   6.028   7.072   1.347 -0.0161 -0.4791  0.3173
  178MOL0     O23898   5.972   7.117   1.460 -0.2323  0.1464 -0.1820
  178MOL0     C23899   5.843   7.094   1.494  1.4207 -0.2657  0.9633
  178MOL0     C23900   5.736   7.123   1.407 -0.7178 -0.0197  0.0168
  178MOL0     C23901   5.599   7.111   1.446 -0.1170 -1.2000  0.9001
  178MOL0     C23902   5.565   7.077   1.579  0.8682  0.1122 -0.6392
  178MOL0     O23903   5.433   7.069   1.626 -0.2197 -0.0377 -0.0166
  178MOL0     C23904   5.317   7.087   1.532 -0.4885  0.0380 -1.0430
  178MOL0     C23905   5.195   7.054   1.627 -1.5182 -0.6024  0.1351
  178MOL0     C23906   5.161   7.166   1.723 -0.0481 -1.4941 -1.1096
  178MOL0     C23907   5.012   7.208   1.693 -0.0992  0.6163  0.5414
  178MOL0     C23908   4.908   7.101   1.720  0.1045  0.1676  1.2018
  178MOL0     C23909   4.764   7.152   1.701 -0.5144  0.7927  0.8201
  178MOL0     C23910   4.725   7.189   1.557 -0.1242  0.2773  0.5556
  178MOL0     C23911   4.674   7.073   1.473 -0.3202 -0.5279  0.6775
  178MOL0     N23912   4.637   7.097   1.331  0.3006 -0.6206  0.0099
  178MOL0     C23913   4.620   6.996   1.243  0.0094 -0.6826  0.8948
  178MOL0     C23914   4.604   7.050   1.120 -0.8356 -0.3553  0.0733
  178MOL0     C23915   4.585   6.978   0.991  0.3826 -0.4025  0.1579
  178MOL0     C23916   4.463   7.033   0.915 -0.0752 -0.0432 -0.2210
  178MOL0     C23917   4.494   7.161   0.834 -0.8775 -0.5456  0.3105
  178MOL0     C23918   4.350   7.212   0.788 -0.6060  0.0823 -0.4860
  178MOL0     O23919   4.280   7.101   0.725  0.0626  0.1221 -0.6049
  178MOL0     C23920   4.176   7.122   0.635  0.1512 -0.0808  0.2234
  178MOL0     C23921   4.120   7.012   0.575  0.7856  0.8628  0.7755
  178MOL0     C23922   4.014   7.031   0.480  0.5828 -0.0670  0.2050
  178MOL0     C23923   3.973   6.910   0.408 -0.0656  0.3551  0.3936
  178MOL0     C23924   3.964   7.163   0.454 -0.8323 -0.1823  0.1445
  178MOL0     C23925   3.855   7.193   0.361 -2.0868 -0.0619  0.1067
  178MOL0     O23926   3.806   7.306   0.369  0.0725 -0.1083 -0.5309
  178MOL0     C23927   3.699   7.352   0.302  0.1527 -0.5465 -0.1687
  178MOL0     C23928   3.720   7.400   0.167 -0.2975 -0.4072 -0.1256
  178MOL0     C23929   3.608   7.466   0.112  0.8348 -0.0062  0.0231
  178MOL0     C23930   3.475   7.462   0.165 -0.5151 -0.1899 -0.1978
  178MOL0     O23931   3.379   7.519   0.086 -0.6232  0.2174 -0.0088
  178MOL0     C23932   3.238   7.524   0.126 -0.2668 -0.7035 -0.2500
  178MOL0     C23933   3.143   7.581   0.022  0.8199 -0.2217 -0.0438
  178MOL0     C23934   3.102   7.465  -0.075  0.7432  0.3247 -0.4757
  178MOL0     C23935   2.974   7.482  -0.148  0.0731  0.0130 -0.4229
  178MOL0     C23936   2.982   7.587  -0.261  0.0669  0.6656 -0.1619
  178MOL0     C23937   3.115   7.583  -0.350  0.4241  0.7072 -0.0492
  178MOL0     C23938   3.107   7.687  -0.462  0.4761  0.2088 -0.0323
  178MOL0     C23939   3.252   7.725  -0.505  0.4827  0.4396 -0.4079
  178MOL0    Cl23940   3.272   7.850  -0.630  0.2521  0.4602  0.5776
  178MOL0     C23941   3.457   7.395   0.286  0.1695  0.0084  0.1298
  178MOL0     C23942   3.570   7.341   0.352  0.6604  0.4003 -0.1872
  178MOL0     O23943   3.832   7.112   0.270  0.8525  0.0756  0.5291
  178MOL0     C23944   4.031   7.277   0.515 -0.8265 -0.4092 -0.2102
  178MOL0     C23945   4.131   7.254   0.607 -0.1885 -0.6237  0.3009
  178MOL0     N23946   4.615   7.193   1.137  0.4651 -0.5694 -0.0673
  178MOL0     N23947   4.639   7.212   1.260  0.7794 -0.5810  0.0116
  178MOL0     C23948   5.672   7.076   1.670  0.5963  0.1711  0.3237
  178MOL0     C23949   5.802   7.074   1.629  0.4345  0.5506 -0.2775
  178MOL0     C23950   6.177   7.057   1.335  0.2689 -0.3484 -0.1076
  178MOL0     C23951   6.229   7.015   1.213  0.5526 -0.8199 -0.0335
  178MOL0     C23952   6.365   7.031   1.197 -0.2400  0.1809  0.3752
  178MOL0     C23953   6.454   7.057   1.299  0.8205  0.1851 -0.3574
  178MOL0     O23954   6.598   7.049   1.294 -0.5637 -0.3582  0.6673
  178MOL0     C23955   6.658   7.042   1.160 -0.2033 -0.0650  0.1451
  178MOL0     C23956   6.670   6.893   1.121 -0.5074  0.8706  0.1588
  178MOL0     C23957   6.723   6.869   0.981 -0.4925  0.5385  0.6882
  178MOL0     C23958   6.783   6.730   0.986  0.5734  0.4693  0.3318
  178MOL0     C23959   6.781   6.661   0.854 -0.3222  0.1963 -0.1971
  178MOL0     C23960   6.804   6.619   0.744  0.2329 -0.7507  0.0197
  178MOL0     C23961   6.394   7.085   1.423  0.2967 -0.8734 -0.1657
  178MOL0     C23962   6.259   7.086   1.442 -0.0829 -0.6757  0.1123
  178MOL0     H23963   5.748   7.161   1.306 -2.3032 -3.4229 -1.6353
  178MOL0     H23964   5.515   7.132   1.379  0.4919  0.9185  0.7281
  178MOL0     H23965   5.298   7.187   1.491 -1.3585 -0.3056 -1.4982
  178MOL0     H23966   5.313   7.008   1.457 -1.5568 -1.2682  0.3189
  178MOL0     H23967   5.115   7.030   1.556 -0.5027 -2.7536 -0.3541
  178MOL0     H23968   5.213   6.962   1.682  2.0785 -0.8461 -1.2029
  178MOL0     H23969   5.167   7.135   1.828  1.8933  1.4342 -0.2512
  178MOL0     H23970   5.217   7.259   1.712 -0.4052 -1.3331 -1.6120
  178MOL0     H23971   4.994   7.301   1.749 -3.2099  0.1419  0.4929
  178MOL0     H23972   5.009   7.234   1.587 -1.3084 -2.2972 -0.2299
  178MOL0     H23973   4.932   7.016   1.655  1.4527  2.3092 -1.3151
  178MOL0     H23974   4.928   7.065   1.821  2.4261  0.2185  0.8231
  178MOL0     H23975   4.707   7.062   1.722  2.6832 -1.8931 -1.0809
  178MOL0     H23976   4.751   7.236   1.770 -1.6992  0.4740  1.0010
  178MOL0     H23977   4.643   7.260   1.564 -1.5387 -0.9738 -2.0002
  178MOL0     H23978   4.808   7.240   1.506 -0.7405  2.5031  1.6504
  178MOL0     H23979   4.584   7.033   1.521 -0.0421  0.3561  2.0021
  178MOL0     H23980   4.754   6.999   1.467  1.9991  1.9195 -1.8071
  178MOL0     H23981   4.614   6.892   1.274  0.8392 -0.2721  2.5865
  178MOL0     H23982   4.678   6.977   0.933  1.1128 -1.6457  1.2915
  178MOL0     H23983   4.569   6.872   1.012 -0.6306  0.1011  2.2619
  178MOL0     H23984   4.376   7.056   0.978 -0.3645  2.1430 -1.3571
  178MOL0     H23985   4.437   6.952   0.846 -0.8625  1.0694 -1.2487
  178MOL0     H23986   4.550   7.145   0.742 -1.0719  0.2292  0.0454
  178MOL0     H23987   4.535   7.239   0.900  0.7701 -1.1939  0.0764
  178MOL0     H23988   4.360   7.298   0.721 -1.3369 -0.3686 -1.1933
  178MOL0     H23989   4.297   7.240   0.880  2.7233  0.8371  1.3889
  178MOL0     H23990   4.158   6.914   0.604 -0.9286  0.7397  2.8702
  178MOL0     H23991   3.995   6.905   0.301  0.5163 -0.8290  0.5468
  178MOL0     H23992   4.007   6.818   0.457  2.9412  2.0273  1.6992
  178MOL0     H23993   3.864   6.921   0.410  0.0069  1.6204 -0.7186
  178MOL0     H23994   3.812   7.384   0.112  0.4565 -0.2466  1.0623
  178MOL0     H23995   3.631   7.537   0.033  2.0086  1.8663  1.9342
  178MOL0     H23996   3.214   7.421   0.154  3.2427 -1.8975 -1.1653
  178MOL0     H23997   3.244   7.579   0.221  0.4072 -1.8863  0.4097
  178MOL0     H23998   3.054   7.618   0.074 -1.3879 -2.8123 -1.6920
  178MOL0     H23999   3.183   7.666  -0.034  0.6903  0.6012  1.0979
  178MOL0     H24000   3.075   7.378  -0.013 -1.8051 -0.6339 -2.7190
  178MOL0     H24001   3.182   7.447  -0.148 -0.8325  2.2890 -2.8584
  178MOL0     H24002   2.941   7.393  -0.201 -5.2285  0.8390  0.9553
  178MOL0     H24003   2.901   7.510  -0.072 -1.1651 -1.9957 -0.8116
  178MOL0     H24004   2.972   7.689  -0.225 -0.4915  1.1425 -1.5839
  178MOL0     H24005   2.899   7.567  -0.329 -0.8156 -1.9318  1.5226
  178MOL0     H24006   3.195   7.602  -0.278  3.0576 -3.0872 -1.6185
  178MOL0     H24007   3.133   7.482  -0.389  2.0253  0.0026  2.2756
  178MOL0     H24008   3.043   7.768  -0.425 -0.3114  0.7619 -2.4060
  178MOL0     H24009   3.055   7.650  -0.551 -0.2961 -4.1173  1.9512
  178MOL0     H24010   3.286   7.631  -0.549  1.2495  0.2213  0.5999
  178MOL0     H24011   3.314   7.756  -0.420 -1.4695  0.1837  1.1796
  178MOL0     H24012   3.361   7.372   0.332  1.5479 -0.8814  2.8020
  178MOL0     H24013   3.555   7.285   0.444 -1.4374 -1.5252 -1.5926
  178MOL0     H24014   4.004   7.376   0.482 -0.0728 -1.1084 -3.2527
  178MOL0     H24015   4.182   7.339   0.652 -1.0996 -1.1662  2.4453
  178MOL0     H24016   5.641   7.067   1.774  2.0043 -0.5631  0.6979
  178MOL0     H24017   5.872   7.077   1.712 -1.8883  1.2576  1.7470
  178MOL0     H24018   6.173   6.978   1.128  2.8137  0.0943 -2.0793
  178MOL0     H24019   6.411   7.014   1.100 -1.3508  0.1189 -0.1610
  178MOL0     H24020   6.593   7.088   1.085  0.7213  2.1575  0.6255
  178MOL0     H24021   6.749   7.101   1.147  0.0614 -0.6824 -0.9153
  178MOL0     H24022   6.575   6.842   1.139 -1.3780  2.3366 -0.1085
  178MOL0     H24023   6.739   6.849   1.194 -0.4190  0.4931 -0.1536
  178MOL0     H24024   6.802   6.943   0.963 -1.6535  1.8839  0.9171
  178MOL0     H24025   6.647   6.874   0.903  1.2515  0.1163 -1.1315
  178MOL0     H24026   6.722   6.673   1.056 -1.0796 -0.5155 -1.8096
  178MOL0     H24027   6.885   6.730   1.024  0.3861  0.7405  0.8376
  178MOL0     H24028   6.805   6.587   0.642 -2.1457  1.5922 -0.8603
  178MOL0     H24029   6.452   7.110   1.511  2.8155  0.2079 -2.0189
  178MOL0     H24030   6.234   7.121   1.542 -5.9726  0.8345 -1.4868
  179MOL0     O24031   1.788  10.838   3.974  0.2238 -0.1620 -0.7399
  179MOL0     C24032   1.826  10.924   4.053  0.3115 -0.1629 -0.0094
  179MOL0     O24033   1.744  10.991   4.136  0.9555  0.0327  0.9267
  179MOL0     C24034   1.606  10.967   4.135  0.7217 -0.1842  0.8320
  179MOL0     C24035   1.561  10.843   4.179 -0.5189  1.1558  0.0637
  179MOL0     C24036   1.425  10.821   4.192 -0.0666  0.0274  0.6271
  179MOL0     C24037   1.336  10.922   4.162  0.3578 -0.5403 -0.9068
  179MOL0     O24038   1.196  10.901   4.167 -0.3991  0.4683 -0.3699
  179MOL0     C24039   1.155  10.784   4.094 -0.1973  1.1626 -0.1803
  179MOL0     C24040   1.032  10.803   4.010  0.3662 -0.1544  0.0768
  179MOL0     C24041   0.893  10.791   4.078  0.2675  1.2707 -0.5880
  179MOL0     C24042   0.780  10.832   3.988 -0.3044 -0.0577  0.5346
  179MOL0     C24043   0.650  10.763   4.026 -0.3381 -0.7774 -1.0207
  179MOL0     C24044   0.620  10.789   4.172 -0.6665 -0.4028 -0.6102
  179MOL0     C24045   0.471  10.746   4.206 -0.2068 -0.4598  1.6368
  179MOL0     C24046   0.420  10.786   4.348  0.4793 -0.9070  0.5539
  179MOL0     N24047   0.279  10.743   4.361 -0.2179 -0.1541 -0.9189
  179MOL0     C24048   0.221  10.622   4.346 -1.0735  0.1599  0.7488
  179MOL0     C24049   0.093  10.640   4.390 -0.7710 -0.3253 -0.7978
  179MOL0     C24050  -0.024  10.552   4.364  0.1853  0.2220 -0.4317
  179MOL0     C24051  -0.156  10.585   4.441 -0.2445  0.2463  0.4765
  179MOL0     C24052  -0.237  10.683   4.353  0.9572 -0.0700  0.2361
  179MOL0     C24053  -0.380  10.716   4.408  0.0282  0.2324  1.0333
  179MOL0     O24054  -0.480  10.612   4.382  0.3380  0.1470 -0.0823
  179MOL0     C24055  -0.615  10.639   4.422  0.4637  0.9578  0.1793
  179MOL0     C24056  -0.717  10.568   4.354 -0.4678  0.4975 -0.2603
  179MOL0     C24057  -0.853  10.563   4.388  0.0341 -0.5118  0.7127
  179MOL0     C24058  -0.937  10.500   4.277 -0.9645 -0.1051  0.8417
  179MOL0     C24059  -0.897  10.655   4.486 -0.1427  0.8802  0.4717
  179MOL0     C24060  -1.042  10.672   4.525 -0.1732  0.3205 -0.3577
  179MOL0     O24061  -1.125  10.564   4.500 -0.0214  0.2623 -0.0899
  179MOL0     C24062  -1.254  10.584   4.537  0.3205 -0.3948 -0.5304
  179MOL0     C24063  -1.334  10.689   4.477 -0.4530 -0.4771 -0.2911
  179MOL0     C24064  -1.466  10.696   4.506  0.7829 -0.3376 -0.0987
  179MOL0     C24065  -1.529  10.612   4.603  0.7762 -0.4939  0.5660
  179MOL0     O24066  -1.661  10.616   4.642  0.1498 -0.3511 -0.4252
  179MOL0     C24067  -1.744  10.706   4.570  0.0356 -0.3673  0.2442
  179MOL0     C24068  -1.887  10.698   4.605 -0.0654 -0.0007 -0.4350
  179MOL0     C24069  -1.929  10.767   4.736  0.1055  0.1131 -0.0422
  179MOL0     C24070  -2.084  10.753   4.758  0.8879 -1.0386 -0.4318
  179MOL0     C24071  -2.135  10.843   4.884 -0.8131 -0.4935  0.1081
  179MOL0     C24072  -2.289  10.876   4.878  0.8142 -0.7750 -0.2069
  179MOL0     C24073  -2.317  11.004   4.785  0.0478 -0.1817 -0.0185
  179MOL0     C24074  -2.459  11.050   4.810  0.0735 -0.2640 -0.7103
  179MOL0    Cl24075  -2.507  11.168   4.696 -0.1138 -0.1733 -0.1907
  179MOL0     C24076  -1.457  10.506   4.662 -0.4769  0.0179 -0.7541
  179MOL0     C24077  -1.318  10.494   4.632 -0.4597 -0.4138  0.3759
  179MOL0     O24078  -1.076  10.774   4.584  0.2309 -0.3870  0.6015
  179MOL0     C24079  -0.798  10.742   4.546  0.4695 -0.2092 -0.1667
  179MOL0     C24080  -0.661  10.738   4.513  0.8166 -0.5446 -0.1676
  179MOL0     N24081   0.071  10.771   4.424 -1.1941 -0.7446 -0.5211
  179MOL0     N24082   0.190  10.829   4.424  0.5377  0.9028  0.2450
  179MOL0     C24083   1.378  11.044   4.122  0.2712 -0.4874 -0.0777
  179MOL0     C24084   1.518  11.074   4.109  0.3724 -0.3215  0.1085
  179MOL0     C24085   1.973  10.945   4.063 -0.1134 -0.3806  0.0338
  179MOL0     C24086   2.031  11.047   4.147  0.4739 -0.3403  0.2920
  179MOL0     C24087   2.165  11.071   4.168 -0.0177 -0.1026 -0.6796
  179MOL0     C24088   2.255  11.002   4.093 -0.3284 -0.4211  0.1727
  179MOL0     O24089   2.395  11.026   4.095  0.3385  0.2812  0.7911
  179MOL0     C24090   2.442  11.143   4.171  0.3776 -0.0452  0.7054
  179MOL0     C24091   2.593  11.174   4.158 -0.6749  0.7104 -0.4661
  179MOL0     C24092   2.691  11.055   4.165 -0.3553  0.5796 -0.7127
  179MOL0     C24093   2.847  11.086   4.204 -0.3597  0.0866 -0.9183
  179MOL0     C24094   2.864  11.087   4.353  0.8279 -0.1572  0.4639
  179MOL0     C24095   2.891  11.070   4.470 -0.4074 -0.2910 -0.6782
  179MOL0     C24096   2.214  10.906   4.012  0.4410 -0.2806 -0.5229
  179MOL0     C24097   2.075  10.879   3.987 -0.0325  0.4256 -0.2483
  179MOL0     H24098   1.645  10.784   4.213 -0.6883  0.7872 -0.1604
  179MOL0     H24099   1.388  10.725   4.228  0.3566 -2.5594 -4.7915
  179MOL0     H24100   1.240  10.762   4.029 -1.0507  1.7545 -1.5312
  179MOL0     H24101   1.145  10.697   4.160 -0.4262  0.5546 -1.0102
  179MOL0     H24102   1.043  10.904   3.970  0.0256  0.5888  1.8181
  179MOL0     H24103   1.037  10.736   3.923 -1.3193  1.2137 -1.1349
  179MOL0     H24104   0.878  10.686   4.106 -0.8065  0.0514 -4.8727
  179MOL0     H24105   0.900  10.863   4.160  0.3435  2.5783 -1.7032
  179MOL0     H24106   0.770  10.941   3.981  0.4090 -0.0408 -0.4997
  179MOL0     H24107   0.807  10.815   3.883  0.0549 -0.9368  0.7613
  179MOL0     H24108   0.571  10.814   3.971 -0.1174  2.0077  1.0185
  179MOL0     H24109   0.659  10.655   4.007  0.8026 -1.2813  1.8593
  179MOL0     H24110   0.680  10.725   4.238 -0.9947 -0.7682 -0.6674
  179MOL0     H24111   0.641  10.894   4.194 -2.2092 -0.4743  1.4834
  179MOL0     H24112   0.418  10.791   4.121  2.0269  0.2232  0.5264
  179MOL0     H24113   0.465  10.637   4.202  0.5241 -0.4844  1.1427
  179MOL0     H24114   0.402  10.893   4.354 -0.6164 -1.0516  0.1605
  179MOL0     H24115   0.485  10.743   4.425  0.6358 -1.8232 -0.0619
  179MOL0     H24116   0.246  10.530   4.293 -1.6879 -0.0951  0.8893
  179MOL0     H24117  -0.044  10.555   4.256  2.9957 -0.5025 -1.0556
  179MOL0     H24118   0.016  10.455   4.394  0.2648  0.3048 -0.2648
  179MOL0     H24119  -0.132  10.625   4.540  2.3722  2.6673 -0.9529
  179MOL0     H24120  -0.216  10.494   4.444 -0.1028  0.1645  2.2165
  179MOL0     H24121  -0.237  10.644   4.250  5.2598 -0.1149  0.0709
  179MOL0     H24122  -0.172  10.770   4.342 -0.7027  1.2898  0.7587
  179MOL0     H24123  -0.416  10.810   4.367 -1.1492 -1.4626 -2.1158
  179MOL0     H24124  -0.364  10.733   4.515  2.6204 -3.3248  1.3952
  179MOL0     H24125  -0.678  10.511   4.271  0.5879 -0.7216  1.0265
  179MOL0     H24126  -0.995  10.577   4.226  0.7928  0.5562 -0.2250
  179MOL0     H24127  -0.870  10.455   4.204 -1.5560  0.1731  0.1173
  179MOL0     H24128  -0.998  10.418   4.317 -0.6518 -0.5687  0.3801
  179MOL0     H24129  -1.296  10.777   4.427  0.0611  2.1531  4.2082
  179MOL0     H24130  -1.526  10.760   4.442  1.6375 -1.9433 -2.6332
  179MOL0     H24131  -1.713  10.810   4.565 -0.5534 -0.2364 -1.2818
  179MOL0     H24132  -1.745  10.668   4.467 -0.4624  1.9527 -0.6731
  179MOL0     H24133  -1.934  10.758   4.526  1.3987  1.8901  0.0694
  179MOL0     H24134  -1.922  10.594   4.608  1.3924 -0.5059  2.9202
  179MOL0     H24135  -1.907  10.873   4.724 -0.6990  0.1474 -1.4490
  179MOL0     H24136  -1.869  10.727   4.818 -2.6579 -2.9116  0.7459
  179MOL0     H24137  -2.138  10.782   4.668 -2.2003  2.4219  2.2320
  179MOL0     H24138  -2.086  10.646   4.784 -0.5675 -1.0030 -0.3433
  179MOL0     H24139  -2.071  10.931   4.882 -0.0377 -1.0462  0.1206
  179MOL0     H24140  -2.115  10.780   4.970  2.3225  0.6610  0.3375
  179MOL0     H24141  -2.341  10.790   4.834 -2.6435  0.2346  1.4990
  179MOL0     H24142  -2.331  10.883   4.979  0.3667  1.1003 -0.4760
  179MOL0     H24143  -2.305  10.972   4.681  3.9748 -0.8862  0.5047
  179MOL0     H24144  -2.249  11.085   4.811 -3.0178  3.7617 -2.9591
  179MOL0     H24145  -2.455  11.100   4.907  2.4930  0.6087 -1.1907
  179MOL0     H24146  -2.518  10.958   4.813  0.8328 -0.8113 -1.8837
  179MOL0     H24147  -1.504  10.436   4.730  0.4123  0.3124  0.1999
  179MOL0     H24148  -1.259  10.418   4.681 -0.1514  0.5338  1.5158
  179MOL0     H24149  -0.831  10.807   4.626 -0.4787  1.3015 -1.7445
  179MOL0     H24150  -0.582  10.804   4.549  1.1999 -0.5760 -0.9423
  179MOL0     H24151   1.295  11.108   4.094 -0.5651 -0.4674  2.2028
  179MOL0     H24152   1.541  11.176   4.079 -1.4088  0.1181  0.0829
  179MOL0     H24153   1.960  11.090   4.216 -0.7284 -2.9985  0.8271
  179MOL0     H24154   2.200  11.154   4.228  0.2246  0.0586 -1.0396
  179MOL0     H24155   2.384  11.231   4.144 -0.1565 -0.8191 -0.8321
  179MOL0     H24156   2.431  11.113   4.275  0.0348  0.9430  0.9637
  179MOL0     H24157   2.614  11.255   4.229  2.6732 -1.2208  0.9981
  179MOL0     H24158   2.618  11.237   4.071  1.4755 -0.8631 -1.0832
  179MOL0     H24159   2.692  11.006   4.067  2.5473 -0.6145 -0.2145
  179MOL0     H24160   2.656  10.988   4.243  0.5558  0.4483 -0.3968
  179MOL0     H24161   2.883  11.182   4.165  1.1669  0.2747  0.7634
  179MOL0     H24162   2.914  11.015   4.155 -1.6528 -2.5267  0.8843
  179MOL0     H24163   2.900  11.047   4.574  1.8648  1.4861 -0.3938
  179MOL0     H24164   2.292  10.854   3.958  1.8826  0.3646  0.8564
  179MOL0     H24165   2.051  10.802   3.915 -0.7448  1.5342 -1.2188
  180MOL0     O24166   0.984   5.180   2.131 -0.2405  0.1337  0.4864
  180MOL0     C24167   0.943   5.065   2.152  0.2731  0.1462  0.5248
  180MOL0     O24168   0.822   5.026   2.226 -0.5055  0.0681  0.1884
  180MOL0     C24169   0.742   5.135   2.246 -0.6415  0.5647  0.0913
  180MOL0     C24170   0.608   5.131   2.202  0.1499 -0.6280  0.8509
  180MOL0     C24171   0.522   5.232   2.238  0.4357  0.5021 -0.7688
  180MOL0     C24172   0.564   5.335   2.325 -0.1302 -0.0895 -1.2037
  180MOL0     O24173   0.472   5.421   2.373 -0.2179  0.3637  0.4284
  180MOL0     C24174   0.412   5.378   2.498 -0.6913 -0.3700 -0.1842
  180MOL0     C24175   0.325   5.481   2.579  0.8827  0.1815  0.1787
  180MOL0     C24176   0.376   5.624   2.570  0.0441 -0.0870 -0.0788
  180MOL0     C24177   0.286   5.709   2.657  0.8161 -0.3739  0.3533
  180MOL0     C24178   0.308   5.857   2.653 -0.1550 -0.7974  0.0477
  180MOL0     C24179   0.238   5.905   2.521 -0.4211 -0.0517 -0.1344
  180MOL0     C24180   0.280   6.040   2.492  0.3037 -0.4347  0.2155
  180MOL0     C24181   0.236   6.095   2.354 -0.5123  0.0055 -0.9233
  180MOL0     N24182   0.089   6.127   2.356  0.1032 -0.2982 -0.4332
  180MOL0     C24183  -0.017   6.039   2.356  0.8992  0.5109  0.3468
  180MOL0     C24184  -0.132   6.115   2.362 -0.0858 -0.2210  0.8728
  180MOL0     C24185  -0.280   6.072   2.362  0.4296  0.0327  0.1037
  180MOL0     C24186  -0.340   6.106   2.232  0.7237 -0.4035 -0.2247
  180MOL0     C24187  -0.494   6.087   2.218 -0.0698 -0.3540 -0.1413
  180MOL0     C24188  -0.540   6.134   2.074  0.6178 -0.2984 -0.5072
  180MOL0     O24189  -0.682   6.146   2.076 -0.3980  0.2077 -0.2744
  180MOL0     C24190  -0.758   6.180   1.972  1.7806 -0.2561  0.2706
  180MOL0     C24191  -0.889   6.125   1.981 -0.2594 -0.0333  0.4411
  180MOL0     C24192  -0.983   6.163   1.882 -0.0187  1.0285 -0.4195
  180MOL0     C24193  -1.120   6.105   1.906  0.2745 -0.0089 -0.7857
  180MOL0     C24194  -0.955   6.255   1.786 -1.0754 -0.9309  0.6710
  180MOL0     C24195  -1.062   6.312   1.694  0.0434  0.9241 -0.3189
  180MOL0     O24196  -1.168   6.219   1.660 -0.0030 -0.2592 -0.2038
  180MOL0     C24197  -1.255   6.247   1.556  1.3810  1.0053 -0.6587
  180MOL0     C24198  -1.228   6.309   1.434 -0.1000  0.9880  0.0480
  180MOL0     C24199  -1.329   6.300   1.334 -0.4872  0.2411  0.7653
  180MOL0     C24200  -1.467   6.268   1.360  0.2632 -0.1728 -0.5271
  180MOL0     O24201  -1.576   6.286   1.272  0.5382  0.8503 -0.2098
  180MOL0     C24202  -1.541   6.328   1.142  0.0140  0.1138  0.1712
  180MOL0     C24203  -1.670   6.356   1.062 -0.3310 -0.0170 -0.8120
  180MOL0     C24204  -1.648   6.415   0.924  0.4943  0.1305  0.6505
  180MOL0     C24205  -1.764   6.389   0.831  0.7666  0.1752  0.4826
  180MOL0     C24206  -1.895   6.463   0.872  0.4378 -0.8580 -0.6600
  180MOL0     C24207  -2.015   6.386   0.823 -0.4521  0.1631 -0.0715
  180MOL0     C24208  -2.151   6.433   0.881  0.2256  0.4696  0.1455
  180MOL0     C24209  -2.270   6.389   0.793  0.1368  0.6917 -0.3896
  180MOL0    Cl24210  -2.292   6.219   0.823  0.1367 -0.0636  0.5501
  180MOL0     C24211  -1.495   6.221   1.491 -0.6099 -0.4001  1.2369
  180MOL0     C24212  -1.386   6.193   1.583  0.7228 -0.1384 -0.3174
  180MOL0     O24213  -1.039   6.418   1.639 -0.4754  0.5395 -0.6806
  180MOL0     C24214  -0.825   6.306   1.781 -0.0605 -0.0997 -0.3818
  180MOL0     C24215  -0.725   6.271   1.867 -0.1332 -0.1348 -0.2123
  180MOL0     N24216  -0.086   6.246   2.363  0.9642 -0.1728 -1.0609
  180MOL0     N24217   0.043   6.258   2.365 -0.8004  0.6222 -0.0465
  180MOL0     C24218   0.698   5.333   2.379  0.3701  0.0549  0.0020
  180MOL0     C24219   0.785   5.233   2.342  0.2755 -0.5874  0.6993
  180MOL0     C24220   1.024   4.955   2.089 -0.2459  0.7328 -0.8819
  180MOL0     C24221   1.170   4.952   2.097  0.0608  0.3958  0.0449
  180MOL0     C24222   1.227   4.837   2.044  0.1227  0.4780 -0.1975
  180MOL0     C24223   1.162   4.733   1.973  0.1178  0.2424  0.0701
  180MOL0     O24224   1.235   4.634   1.909  0.7479  0.9074 -0.2153
  180MOL0     C24225   1.375   4.644   1.880 -0.2442 -0.6690 -0.6994
  180MOL0     C24226   1.460   4.539   1.965 -0.1981 -0.5656  0.0459
  180MOL0     C24227   1.615   4.549   1.937  0.3832 -0.0376 -0.7178
  180MOL0     C24228   1.660   4.423   1.855 -0.1841  0.0970  0.1541
  180MOL0     C24229   1.626   4.298   1.919  0.3510  0.9811  0.8816
  180MOL0     C24230   1.593   4.189   1.975  0.0185  0.1919 -0.4355
  180MOL0     C24231   1.027   4.740   1.965  0.5923  0.4903 -0.0699
  180MOL0     C24232   0.953   4.848   2.027  0.5891 -0.1122 -1.3493
  180MOL0     H24233   0.560   5.053   2.143 -3.2007  1.1202  1.0477
  180MOL0     H24234   0.414   5.225   2.225 -0.0019  2.4999  1.1580
  180MOL0     H24235   0.346   5.295   2.470 -0.7977 -0.2816 -0.1998
  180MOL0     H24236   0.485   5.346   2.572 -1.0917  3.0414  1.9148
  180MOL0     H24237   0.225   5.493   2.538  1.2357  0.3972 -0.6578
  180MOL0     H24238   0.315   5.450   2.683  1.0586 -0.6017 -0.0330
  180MOL0     H24239   0.474   5.617   2.617 -1.1988 -3.3725  2.3700
  180MOL0     H24240   0.376   5.657   2.465  3.0800  4.1847  1.0058
  180MOL0     H24241   0.181   5.680   2.646  0.8090 -1.7064  3.1886
  180MOL0     H24242   0.297   5.675   2.761 -2.5305  2.0567  1.6977
  180MOL0     H24243   0.272   5.920   2.734 -0.9361 -0.0317 -0.8796
  180MOL0     H24244   0.415   5.877   2.643 -0.5509  0.9781 -1.0194
  180MOL0     H24245   0.262   5.838   2.438  2.4648 -0.5643  0.9894
  180MOL0     H24246   0.132   5.906   2.548 -0.4222 -0.0605 -0.1389
  180MOL0     H24247   0.262   6.108   2.575  1.9317 -0.3806  0.5604
  180MOL0     H24248   0.389   6.042   2.479  0.1675 -1.6728 -1.5677
  180MOL0     H24249   0.248   6.013   2.282  2.6975  0.8361 -1.4432
  180MOL0     H24250   0.286   6.186   2.320  2.7611 -1.4413 -0.3043
  180MOL0     H24251  -0.012   5.931   2.353 -1.8074  0.1500 -5.1776
  180MOL0     H24252  -0.289   5.966   2.384  0.9941  0.4080  2.4323
  180MOL0     H24253  -0.326   6.125   2.446  0.1637  1.3231 -0.8068
  180MOL0     H24254  -0.289   6.050   2.153 -0.3527  0.6552 -1.7247
  180MOL0     H24255  -0.317   6.213   2.221  2.5544 -0.9452 -2.7768
  180MOL0     H24256  -0.546   6.131   2.303 -3.1847 -0.1730 -1.9887
  180MOL0     H24257  -0.514   5.980   2.224  0.0440 -0.3502  0.3177
  180MOL0     H24258  -0.526   6.050   2.006 -0.7384 -1.2870  0.4046
  180MOL0     H24259  -0.492   6.221   2.026 -2.2749  0.6335 -1.9359
  180MOL0     H24260  -0.912   6.072   2.073 -0.8684  1.5672  1.2448
  180MOL0     H24261  -1.125   6.069   2.009 -0.2642  1.6122 -0.2102
  180MOL0     H24262  -1.198   6.181   1.897 -0.2900 -0.3332  1.0021
  180MOL0     H24263  -1.146   6.021   1.841 -2.4557 -0.4268  0.6824
  180MOL0     H24264  -1.129   6.350   1.415  0.9304  0.2104  3.1625
  180MOL0     H24265  -1.298   6.329   1.234 -4.6181 -1.1140 -1.1139
  180MOL0     H24266  -1.490   6.425   1.149 -0.0302  0.0753  1.2088
  180MOL0     H24267  -1.476   6.258   1.089 -0.6052  0.5452 -1.2243
  180MOL0     H24268  -1.724   6.262   1.051 -1.6007  0.4347  1.0490
  180MOL0     H24269  -1.739   6.418   1.120 -1.2096 -1.3028 -0.4423
  180MOL0     H24270  -1.561   6.369   0.876 -0.7120  1.7979 -3.5952
  180MOL0     H24271  -1.619   6.521   0.929 -0.1082  0.2615  1.5700
  180MOL0     H24272  -1.748   6.427   0.729  3.4324 -1.0591  0.3476
  180MOL0     H24273  -1.781   6.282   0.813  0.6563 -0.2109  2.6075
  180MOL0     H24274  -1.892   6.567   0.837  1.4282 -1.0228 -1.1040
  180MOL0     H24275  -1.899   6.463   0.981  2.2111 -1.1709 -0.5710
  180MOL0     H24276  -2.004   6.384   0.714 -1.3581 -1.2516 -0.1652
  180MOL0     H24277  -2.002   6.280   0.850 -0.2188  0.0081 -0.7721
  180MOL0     H24278  -2.157   6.542   0.893 -0.2252  0.2867  1.8427
  180MOL0     H24279  -2.171   6.395   0.982 -0.1352 -1.4707 -0.6095
  180MOL0     H24280  -2.236   6.398   0.689  1.3322  1.4794  0.0447
  180MOL0     H24281  -2.364   6.440   0.812 -1.2241 -2.6647  3.4193
  180MOL0     H24282  -1.594   6.188   1.521 -0.9168  0.1275  0.8095
  180MOL0     H24283  -1.412   6.162   1.684  1.2249  1.5011  0.3533
  180MOL0     H24284  -0.787   6.381   1.711 -1.4242  1.6159  0.6472
  180MOL0     H24285  -0.625   6.315   1.863 -0.3513  0.4858  0.7071
  180MOL0     H24286   0.742   5.405   2.447  1.9930 -1.6610  0.8616
  180MOL0     H24287   0.886   5.240   2.382  0.4138  2.5976  0.0833
  180MOL0     H24288   1.219   5.040   2.138 -1.3419  1.4353 -0.4243
  180MOL0     H24289   1.334   4.840   2.063 -0.3534  1.8130  2.8001
  180MOL0     H24290   1.405   4.624   1.777  3.2369 -0.7210  0.1858
  180MOL0     H24291   1.409   4.747   1.899 -1.4952 -0.3159 -0.2408
  180MOL0     H24292   1.419   4.442   1.938 -0.4942  0.4085 -3.4811
  180MOL0     H24293   1.444   4.554   2.072 -2.2321  1.2642 -0.4413
  180MOL0     H24294   1.665   4.562   2.034 -0.3315 -1.2007 -0.1667
  180MOL0     H24295   1.632   4.635   1.872 -0.4885  0.9473  0.3116
  180MOL0     H24296   1.768   4.429   1.839  0.2004 -1.1667  2.0819
  180MOL0     H24297   1.617   4.417   1.754 -0.1840 -3.5663  0.2652
  180MOL0     H24298   1.544   4.104   2.019  0.9654  0.5778  1.4244
  180MOL0     H24299   0.994   4.657   1.902  0.0517  1.6113 -1.3110
  180MOL0     H24300   0.849   4.871   2.003  1.0955  0.9459 -2.6789
  181MOL0     O24301   7.798   9.366   8.675  0.2092  0.6503 -0.5318
  181MOL0     C24302   7.771   9.453   8.770 -0.5009 -0.7301 -0.1610
  181MOL0     O24303   7.829   9.465   8.889  1.3377  0.3387  0.4348
  181MOL0     C24304   7.946   9.394   8.902 -0.6203 -0.2935 -0.1269
  181MOL0     C24305   8.064   9.454   8.938  0.0379  0.0668 -0.0088
  181MOL0     C24306   8.191   9.379   8.948  0.0977  0.1114 -0.7357
  181MOL0     C24307   8.196   9.241   8.927 -0.0101 -0.2366 -0.1058
  181MOL0     O24308   8.316   9.176   8.948  0.2856 -0.5358 -0.0218
  181MOL0     C24309   8.334   9.034   8.942 -0.7494  0.7764 -0.1218
  181MOL0     C24310   8.487   8.991   8.966  0.5476  0.1507  0.0448
  181MOL0     C24311   8.590   9.086   8.927  0.5452  0.2778  0.4425
  181MOL0     C24312   8.725   9.030   8.902 -0.3175  0.2740  0.3952
  181MOL0     C24313   8.839   9.134   8.879  1.1837  0.4716  0.7126
  181MOL0     C24314   8.881   9.202   9.003 -0.7613 -0.6144  0.2421
  181MOL0     C24315   9.001   9.297   8.974 -0.1998  0.2488  0.1807
  181MOL0     C24316   8.993   9.392   8.856  0.5721 -0.2221 -0.4789
  181MOL0     N24317   8.882   9.481   8.860  0.0595 -0.6006 -0.0817
  181MOL0     C24318   8.775   9.474   8.766 -0.1091  0.4235 -0.1130
  181MOL0     C24319   8.676   9.539   8.825 -0.7195 -0.0938  0.7890
  181MOL0     C24320   8.543   9.539   8.774  0.5002 -0.1213  0.7614
  181MOL0     C24321   8.442   9.658   8.788  0.5247  0.6142  0.2456
  181MOL0     C24322   8.436   9.751   8.666  0.3900 -0.5049  0.1080
  181MOL0     C24323   8.577   9.817   8.649  0.7372  0.0970  0.1358
  181MOL0     O24324   8.594   9.921   8.742  0.1369  1.0141  0.5455
  181MOL0     C24325   8.714   9.984   8.747 -0.3673 -0.2458 -0.5076
  181MOL0     C24326   8.841   9.939   8.688 -0.4474 -0.0634  0.9827
  181MOL0     C24327   8.958  10.022   8.693 -0.8717 -0.3028  0.1496
  181MOL0     C24328   9.082   9.986   8.603 -0.1336  0.5740 -1.0665
  181MOL0     C24329   8.949  10.138   8.765  0.6367 -0.4788 -0.3202
  181MOL0     C24330   9.062  10.221   8.782 -0.1264  0.8662 -0.9998
  181MOL0     O24331   9.172  10.154   8.831 -0.2274  0.1051  0.8767
  181MOL0     C24332   9.262  10.233   8.895 -0.2620  0.1169  0.2906
  181MOL0     C24333   9.267  10.261   9.028  0.5325  0.0567 -0.2124
  181MOL0     C24334   9.359  10.349   9.089  0.1195  0.5484  0.6209
  181MOL0     C24335   9.460  10.399   9.013 -0.0152 -0.2969 -0.1412
  181MOL0     O24336   9.544  10.490   9.076  0.1583 -0.0148 -0.0036
  181MOL0     C24337   9.659  10.532   9.001  0.2120  0.1834 -0.0229
  181MOL0     C24338   9.734  10.649   9.066 -0.0173  1.1526 -0.1005
  181MOL0     C24339   9.772  10.616   9.214  0.3041  0.4088 -1.1778
  181MOL0     C24340   9.849  10.735   9.269 -0.1852 -0.1773 -0.3531
  181MOL0     C24341   9.920  10.698   9.406 -0.1822  0.2133  0.5857
  181MOL0     C24342   9.813  10.681   9.521  0.0250  0.2973  0.9293
  181MOL0     C24343   9.723  10.798   9.550  0.0079  0.0585 -0.1217
  181MOL0     C24344   9.787  10.901   9.630 -0.1080 -0.1196 -0.5120
  181MOL0    Cl24345   9.811  10.826   9.800  0.1627 -0.4166 -0.1807
  181MOL0     C24346   9.470  10.365   8.879  0.1643  0.8701  0.7081
  181MOL0     C24347   9.365  10.286   8.820 -0.1700 -0.2214 -0.7927
  181MOL0     O24348   9.051  10.341   8.765 -0.3297  0.4045 -0.1862
  181MOL0     C24349   8.833  10.179   8.831 -0.0252  0.5660  0.2402
  181MOL0     C24350   8.716  10.102   8.812  0.4531 -0.1524 -0.1529
  181MOL0     N24351   8.717   9.578   8.951 -0.0636  0.5227 -0.2696
  181MOL0     N24352   8.846   9.547   8.971 -0.1792  0.6679  0.8488
  181MOL0     C24353   8.073   9.177   8.905 -0.4641 -0.3114  0.3904
  181MOL0     C24354   7.954   9.255   8.895 -0.0014  0.1485 -0.9150
  181MOL0     C24355   7.664   9.543   8.747  0.2840  0.4845  0.7841
  181MOL0     C24356   7.657   9.664   8.807 -0.3593  0.5364  0.3660
  181MOL0     C24357   7.554   9.748   8.779 -1.2437 -0.3598 -0.4978
  181MOL0     C24358   7.443   9.720   8.705  0.0836 -0.2391  1.3192
  181MOL0     O24359   7.348   9.813   8.683 -0.3454  0.8206  0.1792
  181MOL0     C24360   7.245   9.785   8.588  0.0156 -0.4983 -1.0548
  181MOL0     C24361   7.140   9.893   8.584  0.3450  0.2977 -0.3594
  181MOL0     C24362   7.205  10.035   8.552  0.1499  0.0779 -0.5552
  181MOL0     C24363   7.231  10.057   8.395  0.4235 -0.1217  0.0151
  181MOL0     C24364   7.100  10.054   8.325  0.1697  0.3595  0.2598
  181MOL0     C24365   6.997  10.042   8.264 -0.3049 -0.8128 -0.8334
  181MOL0     C24366   7.455   9.602   8.629 -0.0096 -0.9190 -1.0333
  181MOL0     C24367   7.555   9.509   8.655 -0.0971  0.1693 -0.2299
  181MOL0     H24368   8.061   9.556   8.972  4.9134  1.2985 -2.3720
  181MOL0     H24369   8.279   9.432   8.984 -1.7620  4.4685 -2.0035
  181MOL0     H24370   8.278   8.995   9.027  0.3298  4.4652  2.5608
  181MOL0     H24371   8.297   9.006   8.843  0.4719 -0.5832 -0.2292
  181MOL0     H24372   8.489   8.981   9.074 -1.3650 -3.6221 -0.1319
  181MOL0     H24373   8.506   8.890   8.928  1.5643 -0.1394  1.2620
  181MOL0     H24374   8.555   9.132   8.834 -3.4039 -0.4344  1.4177
  181MOL0     H24375   8.596   9.157   9.010 -1.3294  0.0246  0.8238
  181MOL0     H24376   8.765   8.974   8.987 -1.3466 -0.4111  0.4454
  181MOL0     H24377   8.718   8.966   8.814 -1.2091  1.1424 -0.1773
  181MOL0     H24378   8.918   9.080   8.826  0.0892 -2.5998  2.0117
  181MOL0     H24379   8.794   9.217   8.823 -0.7486 -1.7304 -1.1901
  181MOL0     H24380   8.800   9.270   9.033 -0.7134 -0.5049  0.1196
  181MOL0     H24381   8.905   9.130   9.082 -0.2026 -1.6769 -0.8594
  181MOL0     H24382   9.010   9.353   9.068  0.4348  1.0092 -0.3250
  181MOL0     H24383   9.086   9.229   8.968  0.1863  0.8471 -3.4336
  181MOL0     H24384   8.995   9.336   8.762  0.5330 -0.4890 -0.3194
  181MOL0     H24385   9.089   9.446   8.861  1.4305 -1.6667 -0.8003
  181MOL0     H24386   8.774   9.420   8.672  0.7611  0.5741 -0.2131
  181MOL0     H24387   8.561   9.522   8.667  1.5096 -1.6677  1.1397
  181MOL0     H24388   8.490   9.454   8.818  1.4713 -1.0677  0.1503
  181MOL0     H24389   8.471   9.725   8.870 -0.6016  1.2539  0.1474
  181MOL0     H24390   8.340   9.636   8.823 -0.1428 -0.0586 -1.9598
  181MOL0     H24391   8.361   9.828   8.689 -0.5933 -0.1470 -3.6623
  181MOL0     H24392   8.409   9.700   8.573 -1.2961 -0.0935  0.3361
  181MOL0     H24393   8.575   9.854   8.546  0.4134  2.1381  0.8311
  181MOL0     H24394   8.650   9.737   8.664  2.2964  1.5909  0.8408
  181MOL0     H24395   8.842   9.852   8.623  2.2924  1.0282 -0.5985
  181MOL0     H24396   9.058   9.894   8.547 -0.6625 -1.7631  2.6292
  181MOL0     H24397   9.115  10.064   8.534  1.4658  0.7237 -0.1808
  181MOL0     H24398   9.167   9.953   8.663 -2.3666 -1.9032  1.0309
  181MOL0     H24399   9.179  10.231   9.083 -0.0210  0.7598 -0.6873
  181MOL0     H24400   9.334  10.372   9.192 -1.7456 -1.9401  0.7914
  181MOL0     H24401   9.732  10.453   8.980  1.0665  1.4894 -2.3567
  181MOL0     H24402   9.624  10.575   8.907 -3.3054 -1.3673  0.4242
  181MOL0     H24403   9.820  10.672   9.003 -0.2585 -0.3821 -1.0493
  181MOL0     H24404   9.674  10.740   9.061  0.4139  1.4194 -0.5097
  181MOL0     H24405   9.831  10.524   9.222  0.0736  0.4472  4.0717
  181MOL0     H24406   9.682  10.595   9.272  2.0787 -3.7808  0.4881
  181MOL0     H24407   9.914  10.766   9.186 -0.4690 -1.2969 -1.0159
  181MOL0     H24408   9.786  10.824   9.278  0.2155  0.1989 -1.1472
  181MOL0     H24409  10.000  10.769   9.431  0.7426  0.5275 -2.7672
  181MOL0     H24410   9.976  10.604   9.396 -0.3610  0.0246  1.2769
  181MOL0     H24411   9.755  10.591   9.501 -0.5344  0.7517  0.4564
  181MOL0     H24412   9.866  10.660   9.615  0.1331 -1.7826  0.4393
  181MOL0     H24413   9.647  10.759   9.619 -1.1380 -0.2771 -1.5305
  181MOL0     H24414   9.686  10.830   9.452  1.3272 -2.0147 -1.3756
  181MOL0     H24415   9.716  10.984   9.625 -3.1828 -2.5888 -0.9178
  181MOL0     H24416   9.883  10.921   9.582  0.2000  1.3310  0.6163
  181MOL0     H24417   9.547  10.388   8.806 -1.6934 -0.4352 -1.8212
  181MOL0     H24418   9.361  10.262   8.714  0.8932  0.6241 -1.0455
  181MOL0     H24419   8.826  10.271   8.888  1.9720 -0.6525  2.6658
  181MOL0     H24420   8.623  10.141   8.852 -0.3611  0.4700 -2.4725
  181MOL0     H24421   8.056   9.071   8.890 -1.0678  0.1989 -3.6280
  181MOL0     H24422   7.864   9.196   8.884 -0.7582  1.0461  0.2346
  181MOL0     H24423   7.733   9.700   8.876 -2.8806 -2.4534  5.2474
  181MOL0     H24424   7.545   9.849   8.818 -1.6521 -0.5251 -0.1510
  181MOL0     H24425   7.296   9.785   8.491  1.8178 -1.2827 -0.1564
  181MOL0     H24426   7.200   9.687   8.604 -0.6194 -0.0846 -0.2350
  181MOL0     H24427   7.108   9.898   8.689 -3.9658  0.6974 -1.5252
  181MOL0     H24428   7.050   9.878   8.525 -2.6018 -0.2135  3.7959
  181MOL0     H24429   7.298  10.043   8.609 -0.6352  1.6576  0.5891
  181MOL0     H24430   7.139  10.117   8.581 -2.5077 -2.5846  1.5497
  181MOL0     H24431   7.296   9.977   8.359  0.5463 -0.1618  0.3183
  181MOL0     H24432   7.286  10.149   8.374  1.0703 -0.9471 -2.1343
  181MOL0     H24433   6.903  10.029   8.214 -1.4750  1.5664  0.5399
  181MOL0     H24434   7.374   9.572   8.563 -0.0676  1.4588 -2.1355
  181MOL0     H24435   7.558   9.407   8.618  1.9707  0.1867 -0.2315
  182MOL0     O24436  10.003   7.781   1.553  0.4560 -0.6371 -0.2315
  182MOL0     C24437   9.916   7.860   1.611 -0.3404  0.9680 -0.2044
  182MOL0     O24438   9.873   7.847   1.733  0.4401 -0.4300 -0.1404
  182MOL0     C24439   9.917   7.751   1.813 -0.1434  0.3687 -0.5179
  182MOL0     C24440   9.815   7.694   1.895  0.4107  0.3538  0.4049
  182MOL0     C24441   9.836   7.593   1.987  0.2143  0.2446 -0.2740
  182MOL0     C24442   9.969   7.541   1.992 -0.3784  0.2480  0.3040
  182MOL0     O24443   9.987   7.426   2.060 -1.0110  0.5372  0.1244
  182MOL0     C24444  10.095   7.341   2.013  0.5463  0.2245 -0.1574
  182MOL0     C24445  10.108   7.215   2.099  0.6543 -1.3989  0.1648
  182MOL0     C24446   9.992   7.116   2.061  0.4051 -0.3048  0.3180
  182MOL0     C24447   9.876   7.132   2.164 -0.4116  0.6363 -0.1292
  182MOL0     C24448   9.808   7.008   2.226 -0.2447  0.6496 -0.4535
  182MOL0     C24449   9.742   6.925   2.114 -0.5520 -0.0137  0.4401
  182MOL0     C24450   9.625   6.979   2.041  0.6200 -0.3788 -0.6598
  182MOL0     C24451   9.541   6.879   1.956  0.4902  0.0496 -0.6858
  182MOL0     N24452   9.417   6.939   1.899 -0.1120 -0.5906 -1.0708
  182MOL0     C24453   9.304   6.966   1.969 -0.2979  0.4977  0.5707
  182MOL0     C24454   9.217   7.017   1.874  0.1907 -0.2042  0.4388
  182MOL0     C24455   9.061   7.014   1.889 -1.2663  1.0921  0.2104
  182MOL0     C24456   8.982   7.009   1.759  0.6667 -0.0504 -0.6973
  182MOL0     C24457   8.993   6.892   1.670  0.5611 -0.4605 -0.1136
  182MOL0     C24458   8.904   6.932   1.543  0.8801  0.0760  0.0187
  182MOL0     O24459   8.954   7.050   1.482  0.2404 -0.2827 -0.2835
  182MOL0     C24460   8.931   7.063   1.346  0.0063 -0.2658  0.7671
  182MOL0     C24461   8.973   7.186   1.286  0.1070 -0.2798 -0.3622
  182MOL0     C24462   8.951   7.211   1.150  0.1619  0.0054 -0.1168
  182MOL0     C24463   8.976   7.350   1.094  0.0687  1.2097 -0.0782
  182MOL0     C24464   8.902   7.108   1.065 -0.4002  0.0925 -0.2609
  182MOL0     C24465   8.901   7.110   0.915 -0.8471 -0.1880  0.0728
  182MOL0     O24466   8.836   7.013   0.849  0.4805 -0.3529  0.0237
  182MOL0     C24467   8.806   7.037   0.717 -0.1956  0.3740 -0.5003
  182MOL0     C24468   8.688   7.096   0.672  0.0047  0.1537 -0.2456
  182MOL0     C24469   8.661   7.113   0.531 -0.1955 -0.2345  0.7457
  182MOL0     C24470   8.755   7.087   0.430 -0.7568 -0.3616  0.2045
  182MOL0     O24471   8.740   7.112   0.297 -1.1935  0.8083  0.2881
  182MOL0     C24472   8.742   6.985   0.225 -0.0983  0.0682  0.0317
  182MOL0     C24473   8.726   7.010   0.075 -0.2859  0.7125  0.2804
  182MOL0     C24474   8.756   6.887  -0.011  1.2472 -0.0677 -0.8369
  182MOL0     C24475   8.748   6.918  -0.163 -0.6282 -0.0370  0.4970
  182MOL0     C24476   8.777   6.795  -0.243 -0.1959 -0.0277  0.2190
  182MOL0     C24477   8.701   6.668  -0.212  0.3950 -0.0787  0.0074
  182MOL0     C24478   8.553   6.684  -0.247 -0.2855  0.4437 -0.5089
  182MOL0     C24479   8.464   6.616  -0.138 -0.3136  0.0666  1.0099
  182MOL0    Cl24480   8.285   6.628  -0.159 -0.0998 -0.2248  0.5152
  182MOL0     C24481   8.880   7.045   0.480 -0.1586 -0.0194  0.0066
  182MOL0     C24482   8.898   7.015   0.612  0.0679 -0.6537 -0.9122
  182MOL0     O24483   8.954   7.203   0.855 -0.0640 -0.3061 -0.2880
  182MOL0     C24484   8.858   6.987   1.121 -0.3323 -0.4262 -1.3823
  182MOL0     C24485   8.878   6.964   1.258 -0.4875 -0.5292  0.6098
  182MOL0     N24486   9.286   7.055   1.765 -0.4831  0.2621 -0.3549
  182MOL0     N24487   9.405   7.004   1.782  0.3351 -0.5028 -0.1425
  182MOL0     C24488  10.073   7.602   1.911  0.1557  0.3790  0.2609
  182MOL0     C24489  10.057   7.708   1.825  0.6227 -0.4520  0.0361
  182MOL0     C24490   9.864   7.969   1.524  0.3390  0.0518 -0.5181
  182MOL0     C24491   9.911   7.996   1.401  0.5401 -1.1312  0.2077
  182MOL0     C24492   9.851   8.090   1.320  0.1364 -0.4642  0.0040
  182MOL0     C24493   9.737   8.152   1.375  0.7733 -0.6465  0.3618
  182MOL0     O24494   9.682   8.248   1.296 -0.1069  0.9445 -0.7463
  182MOL0     C24495   9.773   8.353   1.249 -0.2596 -0.6573  0.8683
  182MOL0     C24496   9.698   8.486   1.223 -0.3530  0.0975 -0.1221
  182MOL0     C24497   9.591   8.519   1.333 -0.1597  0.2201 -0.4239
  182MOL0     C24498   9.491   8.625   1.291 -0.2533  0.6078  0.5800
  182MOL0     C24499   9.547   8.756   1.257  0.0545  0.2264 -0.3031
  182MOL0     C24500   9.588   8.868   1.244  0.0843  0.0330  0.5378
  182MOL0     C24501   9.674   8.120   1.492  0.1075  0.1930 -0.9806
  182MOL0     C24502   9.749   8.031   1.572  0.3361  0.2142  0.1199
  182MOL0     H24503   9.711   7.721   1.880  0.2808 -0.0324  0.6032
  182MOL0     H24504   9.745   7.552   2.029 -0.0893 -0.4312 -1.5223
  182MOL0     H24505  10.067   7.304   1.914 -1.9514  0.4208  0.4086
  182MOL0     H24506  10.192   7.391   2.013  0.5018  0.3398 -1.2034
  182MOL0     H24507  10.199   7.162   2.066  1.3922  0.3777 -0.7661
  182MOL0     H24508  10.109   7.254   2.201  0.8253  0.3312 -0.4615
  182MOL0     H24509   9.936   7.121   1.967  1.2130  0.9053 -0.1206
  182MOL0     H24510  10.044   7.021   2.071  0.7819 -0.2125 -0.6999
  182MOL0     H24511   9.918   7.192   2.244 -0.5776  0.4060  0.1309
  182MOL0     H24512   9.803   7.200   2.119 -0.5233 -0.2862 -1.4354
  182MOL0     H24513   9.880   6.961   2.293 -0.2483  2.6773  1.0763
  182MOL0     H24514   9.724   7.032   2.291  1.2342 -0.6419  2.0931
  182MOL0     H24515   9.815   6.906   2.034 -2.0172 -2.0503 -0.5116
  182MOL0     H24516   9.709   6.828   2.153 -3.4445  0.7077  0.0006
  182MOL0     H24517   9.552   7.024   2.109  0.2518  1.3340 -2.1025
  182MOL0     H24518   9.661   7.055   1.971 -1.2529  0.2768 -0.9786
  182MOL0     H24519   9.519   6.787   2.012  1.3282 -0.1602 -0.6784
  182MOL0     H24520   9.605   6.840   1.875 -1.9199 -3.7467 -1.0494
  182MOL0     H24521   9.278   6.935   2.069  0.8316  0.8130  0.9723
  182MOL0     H24522   9.030   6.930   1.952 -0.2716  0.0075 -0.7008
  182MOL0     H24523   9.032   7.107   1.940 -0.0549  1.9234 -0.5440
  182MOL0     H24524   9.010   7.101   1.706 -2.1457  0.0384 -2.2415
  182MOL0     H24525   8.875   7.020   1.778 -0.0161 -1.0311 -3.4660
  182MOL0     H24526   8.964   6.801   1.723  1.0963 -1.7732 -1.9575
  182MOL0     H24527   9.097   6.879   1.637  0.9783  1.3821  0.3473
  182MOL0     H24528   8.801   6.944   1.577  1.2717  0.5964  1.0851
  182MOL0     H24529   8.905   6.840   1.484  0.4083 -0.9748  1.5813
  182MOL0     H24530   9.016   7.263   1.350 -0.1051 -1.6378  1.5089
  182MOL0     H24531   8.977   7.428   1.171  0.7868  0.4703  0.6793
  182MOL0     H24532   9.071   7.357   1.041 -0.0904 -2.1432 -1.0386
  182MOL0     H24533   8.900   7.379   1.021 -0.6206 -3.3384 -1.4662
  182MOL0     H24534   8.616   7.137   0.742  0.6468 -0.7872  0.9940
  182MOL0     H24535   8.569   7.163   0.502 -0.7742 -2.2550 -1.1883
  182MOL0     H24536   8.840   6.939   0.241 -0.3645 -0.0849  1.3896
  182MOL0     H24537   8.669   6.911   0.260  0.3791  0.1169  1.1685
  182MOL0     H24538   8.624   7.050   0.064 -0.1665  1.5063  1.7979
  182MOL0     H24539   8.799   7.089   0.056  0.2792  0.3136  0.7528
  182MOL0     H24540   8.676   6.818   0.019 -0.5443  3.3366  3.3410
  182MOL0     H24541   8.855   6.853   0.019  1.2935 -0.0191 -0.9351
  182MOL0     H24542   8.651   6.960  -0.190 -0.2389  0.3750 -0.2984
  182MOL0     H24543   8.820   6.997  -0.188  2.8031 -3.1980 -0.6077
  182MOL0     H24544   8.879   6.760  -0.224  0.4187  0.6429 -1.6206
  182MOL0     H24545   8.788   6.815  -0.350  1.3736 -2.8891 -0.2581
  182MOL0     H24546   8.735   6.590  -0.281  1.9210  0.4524  0.1263
  182MOL0     H24547   8.726   6.634  -0.111 -1.9593 -1.6551  0.1462
  182MOL0     H24548   8.519   6.626  -0.333  0.3251  1.1561 -1.2439
  182MOL0     H24549   8.524   6.789  -0.257 -3.4286 -0.4978 -3.4140
  182MOL0     H24550   8.489   6.655  -0.039  0.4252 -0.7908  1.1725
  182MOL0     H24551   8.493   6.512  -0.156  0.4776  0.2827  0.9696
  182MOL0     H24552   8.958   7.043   0.405 -2.0501 -0.1360 -2.0415
  182MOL0     H24553   8.986   6.967   0.654  1.0074  1.3694 -0.4576
  182MOL0     H24554   8.815   6.913   1.054  1.5143  2.2549 -6.0028
  182MOL0     H24555   8.844   6.869   1.296 -2.5727  1.0263  2.8971
  182MOL0     H24556  10.172   7.558   1.897 -2.0525 -5.8031  1.0045
  182MOL0     H24557  10.135   7.746   1.760  0.3082  0.2274  0.0370
  182MOL0     H24558   9.997   7.946   1.358 -0.3640 -2.3293 -0.2622
  182MOL0     H24559   9.900   8.111   1.225  0.5040 -3.5475 -0.5904
  182MOL0     H24560   9.854   8.368   1.322 -0.7649  1.4990  1.0607
  182MOL0     H24561   9.822   8.319   1.158  0.1223 -3.0331  1.8841
  182MOL0     H24562   9.650   8.467   1.127  5.3471 -0.3247 -3.3322
  182MOL0     H24563   9.774   8.561   1.201 -0.5797 -0.1757 -2.0357
  182MOL0     H24564   9.637   8.550   1.427 -3.3292  0.7972  1.0700
  182MOL0     H24565   9.521   8.437   1.348 -0.1842  0.1415 -0.9489
  182MOL0     H24566   9.402   8.639   1.354 -1.3944 -0.9410 -0.5882
  182MOL0     H24567   9.457   8.581   1.196 -0.4292 -0.0230  0.9301
  182MOL0     H24568   9.631   8.965   1.227  0.3922 -0.6811 -3.8555
  182MOL0     H24569   9.583   8.169   1.524 -0.3017 -0.4572 -1.1284
  182MOL0     H24570   9.710   8.012   1.671  0.5665  0.2624  0.2187
  183MOL0     O24571   0.793   4.120   5.905  0.0887  0.3373 -0.2825
  183MOL0     C24572   0.849   4.004   5.883 -1.0124 -0.2401 -0.5168
  183MOL0     O24573   0.794   3.899   5.818  0.2974 -0.4977 -0.4852
  183MOL0     C24574   0.664   3.902   5.796 -0.2682  1.5625  0.2345
  183MOL0     C24575   0.568   3.915   5.896 -0.9205  0.0516 -0.7857
  183MOL0     C24576   0.432   3.911   5.869 -0.2187 -0.2362  0.1566
  183MOL0     C24577   0.393   3.901   5.732 -0.5550  0.1284 -0.7229
  183MOL0     O24578   0.262   3.878   5.692  0.9436 -0.0464  0.3264
  183MOL0     C24579   0.152   3.912   5.779  0.0766 -0.2333  0.3076
  183MOL0     C24580   0.018   3.848   5.716 -0.7710  0.4434 -0.2070
  183MOL0     C24581  -0.027   3.912   5.584 -1.1853 -0.5003 -0.8030
  183MOL0     C24582  -0.100   4.052   5.617 -0.8215  0.3447 -0.5771
  183MOL0     C24583  -0.139   4.121   5.482  0.1907 -0.1087  0.1648
  183MOL0     C24584  -0.237   4.050   5.389  0.1853  0.2186 -0.4962
  183MOL0     C24585  -0.384   4.040   5.435  0.1180  0.0298  0.3369
  183MOL0     C24586  -0.486   3.944   5.349  0.0759 -1.2730  0.1376
  183MOL0     N24587  -0.420   3.813   5.348  0.5219  0.0261 -1.1510
  183MOL0     C24588  -0.392   3.757   5.469  0.0879 -0.6647 -0.5028
  183MOL0     C24589  -0.302   3.655   5.452 -0.4365  0.1190  0.0156
  183MOL0     C24590  -0.225   3.563   5.554 -0.7329  0.5597 -0.1996
  183MOL0     C24591  -0.308   3.527   5.690 -0.0867 -0.1052  0.4074
  183MOL0     C24592  -0.410   3.423   5.656  0.3908  0.0841  0.7783
  183MOL0     C24593  -0.446   3.348   5.782  0.3392 -0.3643  0.2742
  183MOL0     O24594  -0.492   3.215   5.751 -0.4899 -0.3720  0.8880
  183MOL0     C24595  -0.627   3.214   5.721 -0.1265  0.1131  1.1025
  183MOL0     C24596  -0.655   3.152   5.594 -0.8859 -0.6111 -0.3999
  183MOL0     C24597  -0.794   3.134   5.554  0.1397  0.7284  0.9167
  183MOL0     C24598  -0.817   3.091   5.408 -0.1443  0.3266 -0.1366
  183MOL0     C24599  -0.903   3.158   5.642 -0.0007  0.5725 -0.1732
  183MOL0     C24600  -1.036   3.124   5.610  0.2244 -0.4226 -0.6906
  183MOL0     O24601  -1.069   3.022   5.529  0.1923  0.1120  0.1114
  183MOL0     C24602  -1.196   2.996   5.498 -1.1802 -1.1336  0.3714
  183MOL0     C24603  -1.274   3.087   5.428  0.1675 -0.7649  0.1592
  183MOL0     C24604  -1.407   3.067   5.407 -0.2795 -0.7693  0.1335
  183MOL0     C24605  -1.469   2.944   5.443 -0.1753  0.4503 -0.8971
  183MOL0     O24606  -1.602   2.915   5.424  0.5240 -0.1259  0.5450
  183MOL0     C24607  -1.667   2.963   5.309  0.0056 -0.3075  0.1724
  183MOL0     C24608  -1.782   2.876   5.261 -0.3923 -0.0835  0.2876
  183MOL0     C24609  -1.893   2.958   5.202  0.2723  0.0040 -0.2034
  183MOL0     C24610  -1.990   2.865   5.126  1.0079 -0.3404  0.3620
  183MOL0     C24611  -2.125   2.929   5.118 -0.9527  0.7501 -0.2940
  183MOL0     C24612  -2.207   2.890   5.003 -0.3414  0.5983 -0.2534
  183MOL0     C24613  -2.355   2.946   5.013  0.9841 -0.7828  0.1044
  183MOL0     C24614  -2.418   2.886   5.139  0.0815 -0.9522  0.8204
  183MOL0    Cl24615  -2.590   2.914   5.129 -0.0646  0.3524 -0.0048
  183MOL0     C24616  -1.399   2.839   5.504 -0.1705 -1.3150  0.2693
  183MOL0     C24617  -1.264   2.875   5.539  0.3919  0.5392 -0.7712
  183MOL0     O24618  -1.114   3.196   5.665 -0.2761 -0.6353 -0.1085
  183MOL0     C24619  -0.867   3.214   5.771  0.4400  0.4558  0.7250
  183MOL0     C24620  -0.735   3.236   5.804  0.5867 -1.4399 -0.6744
  183MOL0     N24621  -0.270   3.664   5.321 -0.8543  0.0338 -0.5276
  183MOL0     N24622  -0.340   3.748   5.256  0.5686 -1.0006 -0.3740
  183MOL0     C24623   0.493   3.885   5.636 -0.3796  0.7085 -0.8775
  183MOL0     C24624   0.625   3.893   5.664 -0.7870  0.5171  0.1951
  183MOL0     C24625   0.993   4.002   5.912 -0.3168  0.3422 -0.0923
  183MOL0     C24626   1.066   3.880   5.923 -1.1312  0.2744 -0.6830
  183MOL0     C24627   1.203   3.859   5.958  0.3171 -0.8616 -0.3231
  183MOL0     C24628   1.270   3.980   5.979  0.1148 -0.3225 -0.0916
  183MOL0     O24629   1.406   3.972   5.997  0.6939 -0.8536 -0.1467
  183MOL0     C24630   1.479   4.087   6.046 -0.3391  0.3646 -0.2251
  183MOL0     C24631   1.622   4.028   6.087 -0.2317  0.4619  0.0466
  183MOL0     C24632   1.607   3.920   6.198 -0.2039  0.4256  0.7729
  183MOL0     C24633   1.741   3.855   6.243 -0.2040 -0.2505  0.8357
  183MOL0     C24634   1.841   3.958   6.296 -0.1942  0.2853  0.3287
  183MOL0     C24635   1.937   4.020   6.331 -0.6042  0.1434  1.1359
  183MOL0     C24636   1.203   4.115   5.971 -0.0840  1.2838  0.5850
  183MOL0     C24637   1.070   4.116   5.928  0.5494  0.1766  0.1018
  183MOL0     H24638   0.583   3.918   6.003 -1.7463 -2.0883 -0.5639
  183MOL0     H24639   0.355   3.927   5.943 -1.0269  0.2736 -0.7641
  183MOL0     H24640   0.169   3.872   5.880 -1.8116  3.4572  2.2821
  183MOL0     H24641   0.163   4.020   5.778 -0.0448 -0.2241 -1.1516
  183MOL0     H24642   0.030   3.740   5.706 -1.2604  0.4108 -0.4971
  183MOL0     H24643  -0.066   3.858   5.785 -1.7852  2.1433 -1.5995
  183MOL0     H24644   0.060   3.944   5.526  0.0710 -0.9543  0.7609
  183MOL0     H24645  -0.092   3.842   5.530 -1.5710  0.4587 -1.5944
  183MOL0     H24646  -0.182   4.018   5.681 -1.3181  0.6318 -1.0526
  183MOL0     H24647  -0.036   4.117   5.677  2.3220 -1.0658 -2.1965
  183MOL0     H24648  -0.174   4.221   5.507 -2.7926 -1.2818  1.1622
  183MOL0     H24649  -0.044   4.129   5.427 -0.0762  2.2198 -0.0358
  183MOL0     H24650  -0.240   4.107   5.295  1.5097 -0.1108 -0.7481
  183MOL0     H24651  -0.200   3.952   5.355  0.7215  0.4874 -0.6920
  183MOL0     H24652  -0.383   4.023   5.543 -0.8077  0.4142  0.4170
  183MOL0     H24653  -0.428   4.139   5.421  0.2055  0.2407  1.4592
  183MOL0     H24654  -0.502   3.977   5.245 -0.4297 -4.4012 -0.8874
  183MOL0     H24655  -0.582   3.942   5.400 -2.3201  0.1981 -3.8282
  183MOL0     H24656  -0.432   3.776   5.568  0.5552 -3.4013  0.2863
  183MOL0     H24657  -0.196   3.473   5.499  3.1206  1.7869 -0.4327
  183MOL0     H24658  -0.130   3.611   5.576 -0.2870  0.6007 -1.9974
  183MOL0     H24659  -0.346   3.617   5.739  1.1181  1.1800 -0.9423
  183MOL0     H24660  -0.233   3.480   5.754  0.4350 -3.7499 -2.5205
  183MOL0     H24661  -0.372   3.356   5.578 -0.6520  2.4074 -1.9127
  183MOL0     H24662  -0.502   3.473   5.624 -0.6048 -0.4877  2.6024
  183MOL0     H24663  -0.523   3.409   5.829 -0.0635 -1.0996  0.5782
  183MOL0     H24664  -0.366   3.349   5.856  0.8002  2.4299 -0.1641
  183MOL0     H24665  -0.578   3.128   5.522 -0.1776  0.1532  0.0874
  183MOL0     H24666  -0.836   2.983   5.404 -0.3010  0.3270  0.4553
  183MOL0     H24667  -0.895   3.147   5.356 -1.8533 -2.0880 -0.3562
  183MOL0     H24668  -0.724   3.096   5.350 -0.7410  1.0717 -1.0551
  183MOL0     H24669  -1.225   3.178   5.394  0.6975 -0.9147  0.4965
  183MOL0     H24670  -1.465   3.131   5.342  1.2275 -1.5915 -2.1480
  183MOL0     H24671  -1.713   3.062   5.325  2.4726  0.5429  2.9709
  183MOL0     H24672  -1.588   2.967   5.234  0.5626 -2.7134  0.5671
  183MOL0     H24673  -1.753   2.793   5.197 -0.9322 -2.2607  2.6791
  183MOL0     H24674  -1.814   2.825   5.353 -0.1956 -1.0479 -0.1777
  183MOL0     H24675  -1.855   3.032   5.132  1.9401  1.6904  2.3367
  183MOL0     H24676  -1.943   3.016   5.280 -3.5671  0.6443 -2.8812
  183MOL0     H24677  -1.954   2.830   5.029  1.4773 -2.5900  1.3027
  183MOL0     H24678  -1.995   2.771   5.181  1.2524 -1.5691 -1.6049
  183MOL0     H24679  -2.113   3.038   5.113 -0.2831  0.7158  0.3497
  183MOL0     H24680  -2.173   2.895   5.211  2.4144 -0.0162  1.3391
  183MOL0     H24681  -2.159   2.936   4.916  0.0798 -1.3901 -1.1228
  183MOL0     H24682  -2.197   2.782   4.993  2.1650  0.6697  0.7447
  183MOL0     H24683  -2.408   2.924   4.919 -0.7021  0.3044  0.7330
  183MOL0     H24684  -2.367   3.052   5.039  0.0798 -1.4115  2.5417
  183MOL0     H24685  -2.372   2.939   5.223 -0.0040 -1.2805  1.0737
  183MOL0     H24686  -2.394   2.780   5.150  0.4055 -0.7895  1.8602
  183MOL0     H24687  -1.449   2.752   5.545 -1.3302 -0.0295  1.7284
  183MOL0     H24688  -1.207   2.809   5.604 -2.1490  0.0135  1.0898
  183MOL0     H24689  -0.934   3.208   5.856  0.0399 -0.2180  0.3666
  183MOL0     H24690  -0.711   3.265   5.906  0.0435 -1.0111 -0.6587
  183MOL0     H24691   0.461   3.860   5.535 -1.1043  1.6398 -0.8877
  183MOL0     H24692   0.697   3.881   5.584 -1.2919 -0.1137 -0.1779
  183MOL0     H24693   1.012   3.788   5.903 -1.3505  0.6570 -1.9264
  183MOL0     H24694   1.259   3.766   5.961  2.0384  0.1340 -0.2622
  183MOL0     H24695   1.479   4.175   5.981  0.7150  2.5243  2.4791
  183MOL0     H24696   1.439   4.116   6.144  1.8896 -2.7926  1.8269
  183MOL0     H24697   1.675   4.113   6.131  2.5575 -0.2839 -1.6034
  183MOL0     H24698   1.670   3.999   5.993  0.4419  2.0198 -0.1101
  183MOL0     H24699   1.544   3.836   6.167 -1.5892  0.4909  3.1381
  183MOL0     H24700   1.557   3.957   6.288  0.3747  0.9012  0.9039
  183MOL0     H24701   1.792   3.808   6.159 -0.8962 -1.5374  1.1092
  183MOL0     H24702   1.731   3.768   6.309  1.8431 -0.0699  1.4459
  183MOL0     H24703   2.030   4.062   6.364 -0.1854 -0.8734  1.3075
  183MOL0     H24704   1.261   4.207   5.974  0.5139  0.8839  2.3407
  183MOL0     H24705   1.021   4.212   5.913  1.0552  0.0567 -3.0017
  184MOL0     O24706   3.518   0.427   3.407  0.3105  0.0469  0.0659
  184MOL0     C24707   3.622   0.450   3.465  0.4745  0.4203 -0.5283
  184MOL0     O24708   3.627   0.495   3.594  0.4315  0.0347 -0.3989
  184MOL0     C24709   3.505   0.527   3.650 -0.5056 -0.6293 -0.3480
  184MOL0     C24710   3.480   0.663   3.700  0.3945  0.5629  0.1279
  184MOL0     C24711   3.356   0.689   3.753  0.9065 -0.8651  0.1734
  184MOL0     C24712   3.254   0.586   3.758  0.2208 -0.4187 -0.2779
  184MOL0     O24713   3.127   0.628   3.806 -0.4980  0.1452  0.5016
  184MOL0     C24714   3.012   0.543   3.794 -0.3389 -0.7023 -0.4538
  184MOL0     C24715   2.881   0.628   3.809  0.4143  0.6232  0.7147
  184MOL0     C24716   2.860   0.681   3.956 -0.3494 -0.0613 -1.0077
  184MOL0     C24717   2.713   0.717   3.970  0.1542  0.1560 -0.5692
  184MOL0     C24718   2.669   0.774   4.108  0.4068  0.2339 -0.3945
  184MOL0     C24719   2.705   0.921   4.123  0.1371  0.7708 -0.7228
  184MOL0     C24720   2.638   0.980   4.251  1.1316 -0.4324 -0.1018
  184MOL0     C24721   2.712   1.095   4.321  0.1429 -0.0758 -0.4328
  184MOL0     N24722   2.853   1.050   4.352 -0.2418 -0.0845 -0.4306
  184MOL0     C24723   2.964   1.126   4.314 -0.2152  0.2810  0.7143
  184MOL0     C24724   3.070   1.036   4.329  0.0490  0.8207 -0.6641
  184MOL0     C24725   3.216   1.063   4.303 -0.2278 -0.6067  0.0550
  184MOL0     C24726   3.280   0.974   4.192 -0.3116  0.6952  0.3428
  184MOL0     C24727   3.413   0.918   4.240  0.3120  0.1047 -0.2471
  184MOL0     C24728   3.503   0.861   4.128 -0.0757 -0.7902 -0.2513
  184MOL0     O24729   3.593   0.967   4.099 -0.2126  0.1506  0.0085
  184MOL0     C24730   3.624   0.964   3.974 -0.1546  0.4331  0.0297
  184MOL0     C24731   3.590   1.070   3.888  0.2117  0.2373 -0.0358
  184MOL0     C24732   3.655   1.087   3.767  0.0212  0.0290  0.5691
  184MOL0     C24733   3.640   1.223   3.693  0.5403  0.1036  0.0066
  184MOL0     C24734   3.761   0.991   3.726  0.3231  0.1551 -0.0957
  184MOL0     C24735   3.845   1.011   3.598  0.1418  0.5657  0.6306
  184MOL0     O24736   3.902   0.894   3.558 -0.1213  0.3916  0.1266
  184MOL0     C24737   3.958   0.885   3.433  0.5052 -0.0086 -0.3422
  184MOL0     C24738   3.896   0.832   3.316  0.6011  0.5122 -0.4248
  184MOL0     C24739   3.954   0.828   3.189  0.2719  0.4533 -0.3244
  184MOL0     C24740   4.090   0.861   3.182  0.1209  0.2807 -0.1470
  184MOL0     O24741   4.150   0.852   3.053 -0.3402 -0.9309 -0.6417
  184MOL0     C24742   4.282   0.796   3.052  0.6302  0.0017 -0.2540
  184MOL0     C24743   4.330   0.818   2.905  0.5992 -0.3101 -0.8521
  184MOL0     C24744   4.469   0.741   2.864  0.2446 -0.3881 -0.9046
  184MOL0     C24745   4.532   0.775   2.725 -0.2392  0.0014 -1.2212
  184MOL0     C24746   4.635   0.669   2.694  0.1341 -0.3059 -0.8146
  184MOL0     C24747   4.767   0.691   2.765  0.1065  0.4314  0.2316
  184MOL0     C24748   4.882   0.614   2.713  0.2138  0.4486 -0.1130
  184MOL0     C24749   4.853   0.462   2.723 -0.0694 -0.1599 -0.4221
  184MOL0    Cl24750   4.773   0.398   2.575 -0.4991  0.7227 -0.1201
  184MOL0     C24751   4.163   0.925   3.292  0.4168  0.2452 -0.2252
  184MOL0     C24752   4.090   0.930   3.416 -0.3807 -0.8630 -0.2798
  184MOL0     O24753   3.861   1.119   3.538 -0.1939  0.0381  0.2683
  184MOL0     C24754   3.790   0.888   3.815  0.0314  1.2814  1.1955
  184MOL0     C24755   3.716   0.870   3.928 -0.0961  0.3018  0.4050
  184MOL0     N24756   3.018   0.910   4.379  0.1849  0.1292 -0.6512
  184MOL0     N24757   2.895   0.926   4.402 -0.1831  0.1692  0.1020
  184MOL0     C24758   3.285   0.456   3.731 -0.8106  0.0118 -0.6550
  184MOL0     C24759   3.409   0.425   3.671  0.6193  0.0486 -0.5548
  184MOL0     C24760   3.754   0.418   3.405  0.6697  0.4635  0.3579
  184MOL0     C24761   3.782   0.314   3.310 -0.0923 -0.9600  0.4508
  184MOL0     C24762   3.911   0.307   3.249  0.7277  0.5129 -0.0941
  184MOL0     C24763   4.014   0.397   3.276 -0.0803 -0.1829  0.1350
  184MOL0     O24764   4.133   0.409   3.210 -0.3451  0.0331 -0.2651
  184MOL0     C24765   4.164   0.315   3.109  0.2619 -0.0638 -0.0307
  184MOL0     C24766   4.305   0.337   3.058 -0.7499  0.0540  0.8792
  184MOL0     C24767   4.340   0.237   2.951  0.2084  0.4681  0.4725
  184MOL0     C24768   4.478   0.250   2.891 -0.4911  0.4530  0.2894
  184MOL0     C24769   4.588   0.229   2.983 -0.8566  0.0082  0.8582
  184MOL0     C24770   4.694   0.195   3.033 -0.5057  0.1338 -0.0379
  184MOL0     C24771   3.988   0.492   3.381 -0.2535 -0.2910 -0.2085
  184MOL0     C24772   3.861   0.498   3.444 -0.2346 -0.5403 -0.7830
  184MOL0     H24773   3.560   0.736   3.699  1.4734 -0.4332  3.2678
  184MOL0     H24774   3.331   0.788   3.789 -2.5516 -1.5862  0.0931
  184MOL0     H24775   3.006   0.512   3.689 -3.1799  0.4525 -0.7205
  184MOL0     H24776   3.018   0.466   3.871  1.1408  0.7743  0.9850
  184MOL0     H24777   2.892   0.710   3.738  0.8435 -2.1492 -2.6935
  184MOL0     H24778   2.794   0.579   3.766  0.4500 -0.8523  2.2453
  184MOL0     H24779   2.889   0.611   4.035 -0.1018  2.8923  1.6979
  184MOL0     H24780   2.918   0.772   3.976 -1.4303  0.3206  0.5446
  184MOL0     H24781   2.675   0.790   3.899  0.3841 -1.1378 -2.0697
  184MOL0     H24782   2.652   0.628   3.952  1.4448 -0.5461 -1.7148
  184MOL0     H24783   2.560   0.763   4.116  0.6491 -1.2470  1.6575
  184MOL0     H24784   2.709   0.714   4.190  0.1864 -0.5408 -0.8503
  184MOL0     H24785   2.814   0.917   4.133  0.2127  0.0979 -1.6856
  184MOL0     H24786   2.690   0.981   4.033  5.0103  2.8688 -0.4388
  184MOL0     H24787   2.534   1.008   4.228  0.4262 -1.9459  1.0467
  184MOL0     H24788   2.627   0.904   4.329 -0.2920 -1.1528 -0.9502
  184MOL0     H24789   2.665   1.123   4.416  0.9745  0.8354 -0.2759
  184MOL0     H24790   2.726   1.179   4.253  3.4401  0.7534  1.0924
  184MOL0     H24791   2.968   1.234   4.303 -1.8177  0.2881 -0.0997
  184MOL0     H24792   3.236   1.168   4.279  2.7103 -0.9116  0.7866
  184MOL0     H24793   3.269   1.048   4.397  2.2658  2.2682 -0.7272
  184MOL0     H24794   3.289   1.033   4.101  1.0071 -0.5798 -0.3934
  184MOL0     H24795   3.219   0.886   4.169  0.9484  0.2511 -1.4888
  184MOL0     H24796   3.392   0.847   4.320  1.5466  2.6802  2.5440
  184MOL0     H24797   3.463   0.994   4.300 -1.9124 -0.8371  3.0713
  184MOL0     H24798   3.441   0.842   4.040  0.1076  1.7977 -1.0159
  184MOL0     H24799   3.557   0.773   4.163  1.5965 -0.4707 -1.8880
  184MOL0     H24800   3.523   1.145   3.930 -0.6685 -1.5199  1.8555
  184MOL0     H24801   3.733   1.276   3.712  0.2897  0.2540  0.9011
  184MOL0     H24802   3.627   1.216   3.585  1.0208  0.3033 -0.0624
  184MOL0     H24803   3.555   1.267   3.747  0.3529 -1.7598  1.3538
  184MOL0     H24804   3.796   0.792   3.330  0.8620 -0.0560 -0.2005
  184MOL0     H24805   3.903   0.779   3.106 -0.2094 -4.7949  2.6088
  184MOL0     H24806   4.358   0.827   3.125 -1.2564  2.0274  0.9682
  184MOL0     H24807   4.273   0.688   3.070  0.6644  0.0432  0.0113
  184MOL0     H24808   4.241   0.786   2.850  0.3810 -1.3268  0.0741
  184MOL0     H24809   4.347   0.924   2.884  1.3537  0.0874  1.5169
  184MOL0     H24810   4.454   0.634   2.876  0.4240 -0.5138 -1.7515
  184MOL0     H24811   4.540   0.772   2.941 -1.0463  0.7732 -0.1328
  184MOL0     H24812   4.450   0.773   2.652 -1.5597  1.0672  0.1481
  184MOL0     H24813   4.572   0.877   2.731  0.9234 -0.4383 -1.2968
  184MOL0     H24814   4.665   0.684   2.590  1.5651  1.0867 -0.2302
  184MOL0     H24815   4.592   0.568   2.705 -1.5677  0.4321 -0.3789
  184MOL0     H24816   4.792   0.797   2.758 -0.5579  0.6361  0.8213
  184MOL0     H24817   4.759   0.681   2.874  0.9356 -0.1457  0.2524
  184MOL0     H24818   4.970   0.649   2.766 -0.5138  2.0820  0.0681
  184MOL0     H24819   4.893   0.635   2.606  0.0362  0.5913 -0.1037
  184MOL0     H24820   4.795   0.434   2.811 -0.4708 -1.3479 -1.0481
  184MOL0     H24821   4.955   0.424   2.738 -0.6923 -1.8673 -0.2962
  184MOL0     H24822   4.259   0.973   3.278  0.4468  0.0846 -0.5696
  184MOL0     H24823   4.146   0.981   3.494  0.1273 -1.6440 -0.1214
  184MOL0     H24824   3.866   0.815   3.789 -0.9718  0.8932 -0.8742
  184MOL0     H24825   3.727   0.782   3.990 -0.7891 -1.5946 -2.0114
  184MOL0     H24826   3.217   0.372   3.736 -2.1508  1.1207  0.9643
  184MOL0     H24827   3.413   0.328   3.623 -0.6701 -0.2043 -0.1936
  184MOL0     H24828   3.694   0.258   3.281  0.4422 -1.9188  0.6479
  184MOL0     H24829   3.930   0.227   3.179  2.5414 -0.1085  1.0412
  184MOL0     H24830   4.149   0.215   3.151 -0.8412  0.2042  0.2325
  184MOL0     H24831   4.098   0.325   3.022  2.3349 -0.5970 -1.7482
  184MOL0     H24832   4.379   0.321   3.137 -1.7186 -4.2047  1.1550
  184MOL0     H24833   4.301   0.437   3.014  1.9007 -0.1532  0.0189
  184MOL0     H24834   4.268   0.240   2.868  0.7440  3.9093 -0.0429
  184MOL0     H24835   4.333   0.134   2.986  0.4134 -0.3518 -1.7155
  184MOL0     H24836   4.501   0.335   2.826  1.2394 -0.8381 -0.8719
  184MOL0     H24837   4.480   0.155   2.837  0.4236  0.0699  0.9728
  184MOL0     H24838   4.778   0.167   3.094 -1.6184  0.7503  1.8910
  184MOL0     H24839   4.053   0.575   3.410 -3.5347  1.3461  3.4884
  184MOL0     H24840   3.860   0.571   3.524 -0.2157 -2.5607  1.1724
  185MOL0     O24841   4.831   9.171   0.001 -0.2501  0.8936  0.5970
  185MOL0     C24842   4.946   9.180  -0.051 -0.4755 -0.4545 -0.6935
  185MOL0     O24843   5.072   9.184   0.019  0.4130  0.6610  0.4480
  185MOL0     C24844   5.080   9.223   0.148 -1.1374  1.2693 -1.6244
  185MOL0     C24845   5.173   9.320   0.172  0.6016 -0.6805  0.3102
  185MOL0     C24846   5.195   9.366   0.303 -0.4469 -0.4420 -0.9303
  185MOL0     C24847   5.111   9.319   0.401 -0.0709 -1.2971 -0.1494
  185MOL0     O24848   5.136   9.348   0.534  0.3644 -0.5693 -0.0804
  185MOL0     C24849   5.084   9.472   0.577 -0.2566 -0.4244  0.0468
  185MOL0     C24850   5.090   9.467   0.732 -0.4264  1.1757  1.1055
  185MOL0     C24851   5.224   9.510   0.779 -0.4043 -1.0168  0.2133
  185MOL0     C24852   5.237   9.666   0.785 -0.2562 -0.8348  0.0440
  185MOL0     C24853   5.356   9.697   0.880 -0.0312  0.5043  0.7153
  185MOL0     C24854   5.493   9.644   0.832  0.8418  0.0366  0.1299
  185MOL0     C24855   5.597   9.696   0.920 -1.0174  0.0708  0.5048
  185MOL0     C24856   5.730   9.633   0.886  0.3137  0.6678  0.4695
  185MOL0     N24857   5.838   9.691   0.963 -0.5936 -0.6681 -0.0039
  185MOL0     C24858   5.897   9.800   0.900 -0.3439 -0.1069  0.4204
  185MOL0     C24859   5.974   9.848   1.007  0.7706  0.4723 -0.6007
  185MOL0     C24860   6.060   9.976   1.000 -0.2631 -0.8639  0.5452
  185MOL0     C24861   6.196   9.941   0.934 -0.0134  0.0101 -0.1214
  185MOL0     C24862   6.304  10.049   0.950 -0.3159 -0.0001  0.6795
  185MOL0     C24863   6.430  10.038   0.855  0.3054 -0.3183 -0.6725
  185MOL0     O24864   6.382  10.046   0.722  0.1827 -0.1642 -0.0813
  185MOL0     C24865   6.474  10.038   0.623  0.1226  0.3795  0.2590
  185MOL0     C24866   6.612  10.018   0.642 -0.0745 -0.1673 -0.4915
  185MOL0     C24867   6.694   9.986   0.528  0.5458  0.2311  0.6921
  185MOL0     C24868   6.834   9.944   0.552 -0.2360  0.2994  0.8513
  185MOL0     C24869   6.633   9.981   0.399 -0.8245 -1.2226  1.1876
  185MOL0     C24870   6.712   9.956   0.276  0.4230  0.9675 -0.0680
  185MOL0     O24871   6.719   9.846   0.215 -0.3668 -0.6371  0.9157
  185MOL0     C24872   6.658   9.729   0.248 -0.8936  0.9074  0.2196
  185MOL0     C24873   6.532   9.703   0.203 -0.3446  1.0662  0.5915
  185MOL0     C24874   6.468   9.585   0.229  0.1766  0.2151 -0.2747
  185MOL0     C24875   6.532   9.478   0.304 -1.0030  0.7827  1.0503
  185MOL0     O24876   6.468   9.361   0.324 -0.1251  1.0247  0.2325
  185MOL0     C24877   6.469   9.314   0.456  0.2288  0.8004  0.0267
  185MOL0     C24878   6.405   9.182   0.460 -0.1213  0.0025  0.1282
  185MOL0     C24879   6.444   9.092   0.580 -0.4254 -0.7466  0.1511
  185MOL0     C24880   6.546   8.995   0.543 -0.2348  0.1491 -0.1752
  185MOL0     C24881   6.593   8.883   0.650 -0.0410 -0.2058 -0.8584
  185MOL0     C24882   6.744   8.859   0.642  0.9782  0.6533 -0.5535
  185MOL0     C24883   6.786   8.746   0.728  0.5989 -0.5514  0.1157
  185MOL0     C24884   6.930   8.707   0.695  0.6429  0.2771 -0.1499
  185MOL0    Cl24885   6.939   8.656   0.523  0.1896  0.3340 -0.3885
  185MOL0     C24886   6.665   9.507   0.353  0.2654  0.1211 -0.4523
  185MOL0     C24887   6.729   9.627   0.325  0.2132 -0.5340  0.4494
  185MOL0     O24888   6.770  10.051   0.237  0.0845 -0.6767 -0.2498
  185MOL0     C24889   6.500  10.018   0.384 -0.0394 -0.2044  0.3796
  185MOL0     C24890   6.422  10.047   0.494  0.7694 -0.4659 -0.0371
  185MOL0     N24891   5.938   9.790   1.128  0.3253  0.1962 -0.0303
  185MOL0     N24892   5.858   9.687   1.098 -0.4933 -0.1724  0.7001
  185MOL0     C24893   5.005   9.235   0.378  0.1736 -0.2833 -0.0497
  185MOL0     C24894   4.993   9.181   0.251  0.6536 -0.2369  0.3208
  185MOL0     C24895   4.950   9.211  -0.187 -0.0063  1.2472  0.2993
  185MOL0     C24896   4.830   9.204  -0.270  0.0015  0.1573  0.1070
  185MOL0     C24897   4.829   9.253  -0.402 -0.7150  0.1124 -0.9520
  185MOL0     C24898   4.949   9.288  -0.465 -0.0587 -0.5605  0.2127
  185MOL0     O24899   4.958   9.323  -0.594  0.0422  0.1217  0.6749
  185MOL0     C24900   4.852   9.301  -0.679 -0.6740  0.0597  1.2889
  185MOL0     C24901   4.918   9.300  -0.828  0.5346 -0.0104  0.0666
  185MOL0     C24902   4.998   9.434  -0.869  0.1851  0.2713 -0.1689
  185MOL0     C24903   5.053   9.422  -1.007  0.0281 -0.5094 -0.4176
  185MOL0     C24904   4.947   9.384  -1.097  0.4270 -0.2361  0.7390
  185MOL0     C24905   4.870   9.342  -1.179  0.1237  0.0113  0.7084
  185MOL0     C24906   5.072   9.268  -0.393 -0.1058 -0.0610 -0.2188
  185MOL0     C24907   5.074   9.241  -0.252  0.5950 -0.1303  0.3224
  185MOL0     H24908   5.234   9.353   0.088 -4.5666  1.1587 -3.2466
  185MOL0     H24909   5.259   9.449   0.333 -1.6650  0.3085 -0.3012
  185MOL0     H24910   5.137   9.557   0.534 -0.3872  0.4562  1.5637
  185MOL0     H24911   4.978   9.467   0.550 -0.8517 -1.7599  2.3700
  185MOL0     H24912   5.020   9.549   0.754 -2.1332  0.7652 -2.2230
  185MOL0     H24913   5.047   9.373   0.767  0.3057  0.2617 -0.3339
  185MOL0     H24914   5.233   9.468   0.880 -2.8651 -1.0356  0.4921
  185MOL0     H24915   5.298   9.460   0.717  0.1095 -1.9018  1.4810
  185MOL0     H24916   5.251   9.699   0.682  0.8561  0.4367  0.5679
  185MOL0     H24917   5.149   9.720   0.820  1.5523  1.6741  1.0847
  185MOL0     H24918   5.360   9.804   0.904 -0.1959  1.3238 -2.5166
  185MOL0     H24919   5.329   9.632   0.964 -1.0240  0.1294  0.1179
  185MOL0     H24920   5.481   9.536   0.845 -0.3043  0.1988  0.5873
  185MOL0     H24921   5.507   9.657   0.725 -3.0164 -3.4845 -1.0803
  185MOL0     H24922   5.610   9.805   0.916 -0.3638 -0.0139  0.1881
  185MOL0     H24923   5.578   9.674   1.025 -1.7089  0.2207  0.4154
  185MOL0     H24924   5.753   9.638   0.779  0.9900  1.0980  0.6271
  185MOL0     H24925   5.734   9.527   0.915  1.2795  0.4962 -0.2378
  185MOL0     H24926   5.906   9.840   0.800 -0.1660  0.9008  0.8269
  185MOL0     H24927   6.012  10.049   0.935 -0.8987 -0.0857  1.8366
  185MOL0     H24928   6.072  10.005   1.105  0.4960 -1.6907  0.7054
  185MOL0     H24929   6.186   9.924   0.826  0.7486  3.2064 -0.8004
  185MOL0     H24930   6.231   9.848   0.980 -0.4830 -0.2151 -0.2139
  185MOL0     H24931   6.328  10.064   1.055 -1.8103  0.4578  0.9907
  185MOL0     H24932   6.271  10.151   0.927  4.0314  1.3858 -0.2264
  185MOL0     H24933   6.485   9.945   0.874  1.4582  0.5078  0.1439
  185MOL0     H24934   6.490  10.121   0.892  1.1593 -2.4165  3.1192
  185MOL0     H24935   6.645  10.018   0.746 -3.0445 -1.3476  0.5617
  185MOL0     H24936   6.894  10.035   0.555  1.1305 -0.5613  3.8488
  185MOL0     H24937   6.848   9.896   0.649  0.3009  2.9536  2.1745
  185MOL0     H24938   6.869   9.874   0.475  0.0828 -0.0049  1.2645
  185MOL0     H24939   6.472   9.777   0.150 -0.9530  1.3165  1.6067
  185MOL0     H24940   6.367   9.570   0.193  0.0060  0.8699 -0.0949
  185MOL0     H24941   6.569   9.300   0.498 -0.1186  0.3009  0.7161
  185MOL0     H24942   6.423   9.393   0.517 -0.5456  1.6557 -1.6125
  185MOL0     H24943   6.298   9.202   0.475  0.0933 -0.4412  2.6620
  185MOL0     H24944   6.421   9.122   0.370  1.0280 -0.2402  0.4859
  185MOL0     H24945   6.357   9.034   0.613 -3.9363  2.7278 -2.0318
  185MOL0     H24946   6.459   9.152   0.670 -2.7642 -1.4158  1.0762
  185MOL0     H24947   6.505   8.928   0.467 -2.7766 -2.0708  2.8505
  185MOL0     H24948   6.636   9.051   0.516  0.5007 -1.0399 -0.2798
  185MOL0     H24949   6.546   8.786   0.632 -3.3561  1.2718 -0.8804
  185MOL0     H24950   6.558   8.906   0.751 -2.8610  0.5910 -1.9257
  185MOL0     H24951   6.776   8.841   0.539  3.3112  1.5679 -0.0387
  185MOL0     H24952   6.787   8.954   0.677 -2.3337  2.1285 -0.0847
  185MOL0     H24953   6.726   8.656   0.711  0.1725 -0.0305 -1.2808
  185MOL0     H24954   6.787   8.773   0.834  1.4281  1.0523 -0.2760
  185MOL0     H24955   6.971   8.637   0.767  3.1392  0.2198 -1.5315
  185MOL0     H24956   6.985   8.801   0.694 -0.3206  0.9569 -3.4262
  185MOL0     H24957   6.733   9.434   0.397 -0.0673 -0.0177 -0.1689
  185MOL0     H24958   6.834   9.635   0.350  1.2603  1.0455 -3.6805
  185MOL0     H24959   6.454  10.015   0.285 -1.9245  2.4464  1.0595
  185MOL0     H24960   6.315  10.063   0.485  0.0547 -4.1272  0.3355
  185MOL0     H24961   4.943   9.200   0.459 -1.0773  1.8392 -0.0351
  185MOL0     H24962   4.907   9.118   0.233 -0.1591  1.4743 -2.4750
  185MOL0     H24963   4.741   9.170  -0.218  1.0897 -0.8932  1.3630
  185MOL0     H24964   4.730   9.248  -0.445 -1.1257 -3.7311  0.0467
  185MOL0     H24965   4.798   9.208  -0.660  0.9559 -0.4129  4.0409
  185MOL0     H24966   4.787   9.387  -0.662  1.9920  2.1516  1.6352
  185MOL0     H24967   4.842   9.281  -0.905 -0.2450  0.8905  0.5891
  185MOL0     H24968   4.988   9.217  -0.832  1.1291  0.5111 -0.9953
  185MOL0     H24969   5.086   9.446  -0.806  1.6266 -3.0693 -1.3163
  185MOL0     H24970   4.931   9.521  -0.869 -0.7574 -0.4258 -0.8251
  185MOL0     H24971   5.129   9.343  -0.997 -1.1429 -1.3979  2.4583
  185MOL0     H24972   5.100   9.517  -1.033  1.0389  0.4832  4.1382
  185MOL0     H24973   4.807   9.286  -1.246  2.6098  2.1037 -3.8407
  185MOL0     H24974   5.164   9.276  -0.450  0.4599 -2.9580  0.1445
  185MOL0     H24975   5.169   9.251  -0.200  0.0041  1.0033  1.2109
  186MOL0     O24976   6.406   8.352   1.806  0.6589  0.0431 -0.9018
  186MOL0     C24977   6.468   8.413   1.720  0.1294  0.6159 -0.2457
  186MOL0     O24978   6.423   8.516   1.662  0.1640 -0.9961 -0.0042
  186MOL0     C24979   6.292   8.560   1.676  0.2205 -0.4111  0.6732
  186MOL0     C24980   6.261   8.683   1.742 -0.5956  1.6093 -0.1814
  186MOL0     C24981   6.129   8.724   1.756 -0.6273  0.7596 -0.1497
  186MOL0     C24982   6.026   8.659   1.689  0.6022 -0.0340 -0.0264
  186MOL0     O24983   5.892   8.681   1.701  0.1358  0.2447 -0.3605
  186MOL0     C24984   5.849   8.791   1.785  0.3697 -0.1156  0.5154
  186MOL0     C24985   5.697   8.827   1.760 -0.0917  0.7091  0.9419
  186MOL0     C24986   5.683   8.873   1.609 -0.8412 -0.1115 -0.0021
  186MOL0     C24987   5.536   8.914   1.588  0.1962 -0.7548 -0.0047
  186MOL0     C24988   5.518   9.069   1.587  0.3608  0.3274 -0.1093
  186MOL0     C24989   5.365   9.094   1.600 -0.1610  0.9132 -0.0955
  186MOL0     C24990   5.326   9.241   1.557  0.2634 -1.0848 -0.4455
  186MOL0     C24991   5.176   9.273   1.570 -0.8099  0.2648  0.9583
  186MOL0     N24992   5.139   9.270   1.711 -0.3770  0.7464  0.0898
  186MOL0     C24993   5.056   9.177   1.763 -0.2062 -0.5965 -0.5070
  186MOL0     C24994   5.050   9.206   1.898  0.0893  0.3616 -0.5184
  186MOL0     C24995   4.986   9.120   2.005  0.2903 -0.7088  0.0964
  186MOL0     C24996   4.863   9.033   1.957 -0.1223  0.2770 -0.3674
  186MOL0     C24997   4.811   8.953   2.076  0.7123 -0.3695 -0.7301
  186MOL0     C24998   4.688   8.866   2.037  0.3656  0.7118 -0.3652
  186MOL0     O24999   4.720   8.735   1.991 -0.4346 -0.0711 -0.6130
  186MOL0     C25000   4.623   8.685   1.916  0.0628 -0.1125  0.9919
  186MOL0     C25001   4.670   8.579   1.835  0.5206  0.1145  0.0109
  186MOL0     C25002   4.574   8.506   1.761 -0.4081 -0.3073 -0.6624
  186MOL0     C25003   4.634   8.404   1.667  0.7022 -0.0410 -0.4186
  186MOL0     C25004   4.435   8.541   1.757 -0.4368 -0.4007  0.4315
  186MOL0     C25005   4.318   8.467   1.688 -1.2972 -0.7927  0.4346
  186MOL0     O25006   4.197   8.499   1.718 -0.0549  0.0840 -0.3680
  186MOL0     C25007   4.097   8.455   1.630  0.6785 -0.0239  0.6186
  186MOL0     C25008   4.092   8.480   1.484  0.0933  0.2824  0.2074
  186MOL0     C25009   3.988   8.414   1.406 -0.1246 -0.1748  0.2169
  186MOL0     C25010   3.891   8.338   1.473 -1.4413 -0.2918 -0.1718
  186MOL0     O25011   3.789   8.282   1.398 -0.3176 -0.0650  0.1434
  186MOL0     C25012   3.729   8.327   1.276  0.6669 -0.1540 -1.1614
  186MOL0     C25013   3.650   8.457   1.276  0.0441  0.7459  0.4506
  186MOL0     C25014   3.620   8.497   1.135  0.1147 -0.0948  1.3739
  186MOL0     C25015   3.508   8.607   1.133 -0.3100  0.1211 -0.9097
  186MOL0     C25016   3.479   8.684   0.999  0.4892 -0.4986 -0.4124
  186MOL0     C25017   3.417   8.582   0.899  0.3743  0.8924 -0.5217
  186MOL0     C25018   3.408   8.654   0.758 -0.2862  0.3046 -0.1113
  186MOL0     C25019   3.292   8.764   0.740 -0.7535 -0.4545 -0.5159
  186MOL0    Cl25020   3.123   8.716   0.753 -0.4416 -0.0353 -0.5213
  186MOL0     C25021   3.897   8.329   1.613 -0.3467  0.6633  0.5982
  186MOL0     C25022   3.997   8.383   1.698 -1.1388 -0.4165  0.4767
  186MOL0     O25023   4.352   8.401   1.584  0.6788 -0.4301 -0.5438
  186MOL0     C25024   4.405   8.666   1.811  0.1827  0.0052  1.1828
  186MOL0     C25025   4.486   8.728   1.908  0.7766  0.6418 -0.2502
  186MOL0     N25026   5.130   9.311   1.920  0.3173  0.2026 -0.1248
  186MOL0     N25027   5.175   9.354   1.808 -0.5379 -1.1886 -0.4116
  186MOL0     C25028   6.055   8.536   1.628 -0.3971 -0.6189 -1.5172
  186MOL0     C25029   6.183   8.495   1.615 -0.4363  0.2219 -0.3361
  186MOL0     C25030   6.604   8.372   1.678  0.4269  0.4367  0.4082
  186MOL0     C25031   6.672   8.242   1.713  0.4109 -0.4202 -0.3283
  186MOL0     C25032   6.799   8.218   1.679 -0.0470  0.7196  0.1795
  186MOL0     C25033   6.882   8.306   1.604  1.0249  0.3872 -0.1554
  186MOL0     O25034   7.011   8.273   1.597 -0.2669  0.1085 -0.3926
  186MOL0     C25035   7.096   8.385   1.630 -0.2696 -0.4427  0.2632
  186MOL0     C25036   7.234   8.346   1.688 -0.1826 -0.0034 -0.4346
  186MOL0     C25037   7.333   8.303   1.583  0.0474  0.1959 -0.8667
  186MOL0     C25038   7.460   8.246   1.649  0.4647  0.1591  0.3169
  186MOL0     C25039   7.448   8.115   1.717 -0.7603  0.7759 -0.9920
  186MOL0     C25040   7.433   8.011   1.784 -0.8519 -0.2198  0.3020
  186MOL0     C25041   6.817   8.432   1.560  0.0326  0.6692 -0.6334
  186MOL0     C25042   6.685   8.452   1.593  0.5237 -0.0942  0.7151
  186MOL0     H25043   6.345   8.736   1.785 -0.6739  1.7669 -0.2232
  186MOL0     H25044   6.105   8.813   1.815 -1.3157 -1.4609  3.1972
  186MOL0     H25045   5.868   8.773   1.891 -2.3408 -0.4602  1.0345
  186MOL0     H25046   5.894   8.882   1.745 -0.2973  0.2794  0.6429
  186MOL0     H25047   5.640   8.734   1.772  1.7691 -0.2360  3.2453
  186MOL0     H25048   5.662   8.904   1.828 -2.1344 -1.5544  2.6442
  186MOL0     H25049   5.745   8.957   1.577 -0.8362 -0.7377 -1.7041
  186MOL0     H25050   5.709   8.790   1.543 -1.5876  0.4624 -1.0544
  186MOL0     H25051   5.488   8.862   1.504  1.8424 -1.3766 -0.6058
  186MOL0     H25052   5.471   8.887   1.671 -0.5221  0.5427 -0.1294
  186MOL0     H25053   5.559   9.102   1.683  1.3037  0.0213 -0.4032
  186MOL0     H25054   5.558   9.122   1.500  1.0399  0.5708  0.3420
  186MOL0     H25055   5.307   9.031   1.532  1.3652  0.6294 -1.1974
  186MOL0     H25056   5.332   9.080   1.703  0.0174 -2.0199 -0.3507
  186MOL0     H25057   5.381   9.304   1.627 -0.0809 -0.4380 -0.7517
  186MOL0     H25058   5.354   9.259   1.453  2.9436  2.0215  0.6602
  186MOL0     H25059   5.119   9.195   1.519 -0.2907  1.9107 -2.4664
  186MOL0     H25060   5.158   9.370   1.523 -0.6970 -0.3750 -0.4593
  186MOL0     H25061   5.005   9.096   1.711 -3.3307  0.9819 -0.1710
  186MOL0     H25062   5.060   9.059   2.057 -1.1965 -2.6360  0.0516
  186MOL0     H25063   4.935   9.190   2.071  0.4626  0.1535 -0.6620
  186MOL0     H25064   4.902   8.964   1.882 -0.3251 -1.2726  0.8786
  186MOL0     H25065   4.778   9.094   1.927 -1.6861 -0.4228  2.2641
  186MOL0     H25066   4.782   9.031   2.147  0.3143  0.9062 -2.2292
  186MOL0     H25067   4.894   8.906   2.129 -1.2028  0.0629  2.9906
  186MOL0     H25068   4.631   8.927   1.967  2.3292 -1.0971 -3.8146
  186MOL0     H25069   4.627   8.858   2.128  0.8753  2.0085  0.1203
  186MOL0     H25070   4.777   8.559   1.830  0.2290 -2.3722  1.8043
  186MOL0     H25071   4.741   8.387   1.685  0.5831  1.9708  3.0125
  186MOL0     H25072   4.567   8.320   1.685  2.0993 -0.5730  3.1874
  186MOL0     H25073   4.625   8.445   1.566 -1.9666  0.4977 -0.0167
  186MOL0     H25074   4.173   8.532   1.435  1.3648 -1.3396  0.5300
  186MOL0     H25075   3.999   8.427   1.299  0.5529  1.9238  0.5014
  186MOL0     H25076   3.809   8.359   1.209  0.2609 -1.9647 -2.6099
  186MOL0     H25077   3.679   8.243   1.226 -0.2909 -0.6682  0.5922
  186MOL0     H25078   3.550   8.431   1.312  0.3617  0.9692  1.5436
  186MOL0     H25079   3.692   8.532   1.344 -0.6216 -2.1754  4.4698
  186MOL0     H25080   3.596   8.411   1.071 -0.7056  1.2385 -0.1977
  186MOL0     H25081   3.710   8.541   1.091 -0.1252 -1.4874 -0.6692
  186MOL0     H25082   3.415   8.560   1.167  0.4193 -1.4409 -0.9911
  186MOL0     H25083   3.540   8.679   1.209 -0.9414 -1.0661  0.5279
  186MOL0     H25084   3.575   8.709   0.952  0.8039 -1.0391 -0.0741
  186MOL0     H25085   3.421   8.777   1.000  0.4672 -0.3963 -3.1102
  186MOL0     H25086   3.482   8.495   0.885  4.0455  3.7643 -3.0483
  186MOL0     H25087   3.316   8.549   0.926  0.6566 -1.3523 -1.9801
  186MOL0     H25088   3.400   8.572   0.686 -0.5352  0.7604 -0.6087
  186MOL0     H25089   3.500   8.711   0.743 -0.6613  0.9668  0.0804
  186MOL0     H25090   3.301   8.816   0.645  1.0400  0.1037 -0.0889
  186MOL0     H25091   3.311   8.840   0.817  1.8487  0.4361 -1.9087
  186MOL0     H25092   3.809   8.281   1.655 -2.1383  2.9035 -0.4393
  186MOL0     H25093   4.001   8.359   1.804  1.4648  1.5666  0.9202
  186MOL0     H25094   4.308   8.712   1.795  1.0876  1.1602 -1.6630
  186MOL0     H25095   4.435   8.802   1.969  0.9345  0.4085  0.1630
  186MOL0     H25096   5.972   8.477   1.590  0.4751 -3.8549  1.1855
  186MOL0     H25097   6.201   8.400   1.566  1.2076 -0.2200  1.0253
  186MOL0     H25098   6.624   8.165   1.773  1.3975 -1.1952 -0.5093
  186MOL0     H25099   6.840   8.124   1.712 -2.0798 -1.4404 -2.9125
  186MOL0     H25100   7.112   8.441   1.538 -1.0107  1.4304  1.2192
  186MOL0     H25101   7.053   8.454   1.703  4.5720  0.0759  3.0869
  186MOL0     H25102   7.215   8.263   1.757  0.3059  0.7758  0.6744
  186MOL0     H25103   7.275   8.429   1.747 -3.9167  1.8216 -0.0778
  186MOL0     H25104   7.341   8.393   1.521 -3.0996 -0.7908 -2.9622
  186MOL0     H25105   7.285   8.239   1.509 -2.0780  0.7159 -0.0305
  186MOL0     H25106   7.497   8.315   1.726  0.4688 -0.5552  0.9698
  186MOL0     H25107   7.534   8.238   1.569 -0.9414  1.2904 -1.1637
  186MOL0     H25108   7.435   7.912   1.825  1.5126 -0.6494 -0.6976
  186MOL0     H25109   6.858   8.506   1.492 -2.5502  2.6233 -0.2188
  186MOL0     H25110   6.653   8.553   1.569  1.0842 -0.6867 -3.2547
  187MOL0     O25111  11.417   4.788  10.778 -0.0771 -0.3530 -0.3194
  187MOL0     C25112  11.440   4.896  10.829  0.6302 -0.0789  0.0275
  187MOL0     O25113  11.475   5.004  10.770 -0.1176  0.3764  0.9710
  187MOL0     C25114  11.502   4.977  10.636  0.6405  0.5235  0.0545
  187MOL0     C25115  11.623   4.970  10.579 -0.2198 -1.2265 -0.0027
  187MOL0     C25116  11.633   4.942  10.446 -0.4984 -0.0791  0.0563
  187MOL0     C25117  11.524   4.908  10.369  0.5086 -0.2625 -1.3404
  187MOL0     O25118  11.557   4.868  10.243  0.0727 -0.3199  0.6439
  187MOL0     C25119  11.518   4.734  10.200 -0.4792 -0.9649 -1.2455
  187MOL0     C25120  11.548   4.739  10.045  0.9772  0.5175 -0.2123
  187MOL0     C25121  11.701   4.730  10.024  0.4481 -0.9723  0.1579
  187MOL0     C25122  11.729   4.683   9.876  0.2951  0.5870  0.0387
  187MOL0     C25123  11.709   4.803   9.775 -0.1451  0.5284 -0.7655
  187MOL0     C25124  11.722   4.750   9.626 -0.0501  0.1946 -0.8497
  187MOL0     C25125  11.695   4.869   9.540  0.8679 -0.5617 -0.2300
  187MOL0     C25126  11.558   4.869   9.473  1.4923  0.4083 -0.8428
  187MOL0     N25127  11.530   4.990   9.396  0.1699  0.2961 -0.7730
  187MOL0     C25128  11.490   4.992   9.266 -0.0378  0.5282  0.7449
  187MOL0     C25129  11.450   5.122   9.246 -0.6113  0.0592  0.8870
  187MOL0     C25130  11.391   5.171   9.114 -0.8535  0.1462 -0.6157
  187MOL0     C25131  11.453   5.302   9.058 -0.1176  0.4705 -0.3816
  187MOL0     C25132  11.601   5.290   9.038  0.0833 -0.6330 -0.0816
  187MOL0     C25133  11.654   5.151   8.986  0.0305  0.8067  0.7090
  187MOL0     O25134  11.784   5.144   8.932 -0.4399  0.0798 -0.0216
  187MOL0     C25135  11.888   5.189   9.009 -0.8108 -0.4732 -0.5721
  187MOL0     C25136  11.990   5.254   8.942 -1.4503  0.5622 -0.1435
  187MOL0     C25137  12.094   5.317   9.006  0.4963  0.1595  0.6333
  187MOL0     C25138  12.194   5.380   8.906 -0.7362  0.3149  0.1717
  187MOL0     C25139  12.094   5.332   9.145 -0.5201 -0.0899 -0.5169
  187MOL0     C25140  12.193   5.405   9.231  0.1087 -0.1613  0.1635
  187MOL0     O25141  12.171   5.405   9.363  0.0778 -0.1940  0.7481
  187MOL0     C25142  12.256   5.462   9.443 -0.1412 -1.4676 -0.1315
  187MOL0     C25143  12.331   5.381   9.522 -0.1280 -0.1895 -0.4395
  187MOL0     C25144  12.422   5.439   9.609 -0.0050 -0.4176  0.8907
  187MOL0     C25145  12.443   5.576   9.614 -0.2600 -1.3748 -0.0798
  187MOL0     O25146  12.543   5.629   9.691 -0.5578 -0.1871  0.0830
  187MOL0     C25147  12.638   5.549   9.760  0.1666 -0.0085  0.6331
  187MOL0     C25148  12.749   5.638   9.818  0.5357 -0.4457 -0.7470
  187MOL0     C25149  12.868   5.568   9.884 -0.3055 -0.2112 -0.0823
  187MOL0     C25150  12.853   5.533  10.030 -0.1089  0.0884 -0.3849
  187MOL0     C25151  12.995   5.505  10.090 -0.4817  0.6122 -0.5473
  187MOL0     C25152  13.068   5.391  10.020  0.6670 -0.6264  0.2992
  187MOL0     C25153  13.179   5.344  10.114 -0.7603  0.4357 -0.2272
  187MOL0     C25154  13.296   5.444  10.129 -0.9341  0.4876 -0.2226
  187MOL0    Cl25155  13.406   5.397   9.982  0.5620 -0.2183 -0.3131
  187MOL0     C25156  12.366   5.660   9.543 -0.0335  0.7871 -0.0429
  187MOL0     C25157  12.280   5.605   9.444  0.5417 -0.4480 -0.2732
  187MOL0     O25158  12.291   5.469   9.171  0.3239 -0.0589  0.0109
  187MOL0     C25159  11.988   5.271   9.216 -0.1070  1.2010 -0.0972
  187MOL0     C25160  11.889   5.190   9.149  0.2907 -0.2077 -0.3214
  187MOL0     N25161  11.476   5.200   9.355  0.5294 -0.8255 -0.1452
  187MOL0     N25162  11.517   5.114   9.442  0.4547  0.3185 -0.0656
  187MOL0     C25163  11.394   4.925  10.417 -0.0516  0.1026  0.4677
  187MOL0     C25164  11.388   4.958  10.552 -0.6166  0.1171  0.5920
  187MOL0     C25165  11.460   4.908  10.974  0.6055  0.1216 -0.1155
  187MOL0     C25166  11.503   5.022  11.038 -0.5969  0.0377 -0.8462
  187MOL0     C25167  11.524   5.039  11.172 -0.2799 -0.2972  0.3966
  187MOL0     C25168  11.493   4.930  11.261 -0.0682  0.4188  0.0861
  187MOL0     O25169  11.498   4.922  11.394  0.0867 -0.3846 -0.5547
  187MOL0     C25170  11.531   5.037  11.473 -0.4251 -0.7578  1.0183
  187MOL0     C25171  11.569   4.989  11.610  1.2073  0.5738 -0.7857
  187MOL0     C25172  11.581   5.101  11.715 -0.0226  0.0329  0.5299
  187MOL0     C25173  11.697   5.199  11.699 -0.0857  1.2115 -0.2396
  187MOL0     C25174  11.822   5.118  11.711 -0.2095 -0.5066  0.2162
  187MOL0     C25175  11.927   5.053  11.710  1.0669 -0.2895  0.0180
  187MOL0     C25176  11.466   4.803  11.196 -0.3654  0.3216  0.1142
  187MOL0     C25177  11.449   4.793  11.057 -0.0604  0.5099  0.4249
  187MOL0     H25178  11.707   4.991  10.644 -1.4307 -1.2849  1.6478
  187MOL0     H25179  11.731   4.918  10.406 -2.5867 -0.5245 -5.7969
  187MOL0     H25180  11.584   4.660  10.247  0.8679 -0.0455 -1.6248
  187MOL0     H25181  11.415   4.708  10.225  0.0652 -1.5445  0.5520
  187MOL0     H25182  11.496   4.664   9.985  0.5976 -1.0432  1.9464
  187MOL0     H25183  11.520   4.841  10.015 -3.2540  1.0573  4.2792
  187MOL0     H25184  11.758   4.821  10.045 -2.9295  2.4221 -3.6201
  187MOL0     H25185  11.733   4.653  10.096  0.2215 -0.3397  0.9522
  187MOL0     H25186  11.835   4.665   9.852 -0.2119  2.0175 -4.0915
  187MOL0     H25187  11.680   4.591   9.842 -1.0828  0.2301  2.7743
  187MOL0     H25188  11.617   4.862   9.782 -0.7030 -0.4231  0.2152
  187MOL0     H25189  11.796   4.868   9.789  0.6974 -0.3016 -1.9455
  187MOL0     H25190  11.824   4.710   9.621 -0.5307 -2.0349  3.0945
  187MOL0     H25191  11.649   4.674   9.599  0.1883 -0.0513 -0.8019
  187MOL0     H25192  11.705   4.964   9.593 -0.9754 -0.6892  0.4523
  187MOL0     H25193  11.768   4.879   9.460 -1.0647 -0.5963 -2.0903
  187MOL0     H25194  11.485   4.859   9.554 -2.1741  1.1528 -3.7685
  187MOL0     H25195  11.533   4.783   9.410  0.4016  0.5550 -0.6290
  187MOL0     H25196  11.481   4.918   9.187 -0.4815 -1.6598  2.7315
  187MOL0     H25197  11.379   5.090   9.041 -1.4715 -0.5505  0.2325
  187MOL0     H25198  11.285   5.186   9.138 -1.1044 -3.2820  1.0936
  187MOL0     H25199  11.428   5.382   9.129  2.7967  0.7362  0.4795
  187MOL0     H25200  11.399   5.321   8.965  0.6325 -1.0867 -1.1807
  187MOL0     H25201  11.650   5.326   9.129 -1.1987 -2.4132  1.4081
  187MOL0     H25202  11.621   5.358   8.956 -1.2922 -0.6035 -0.4246
  187MOL0     H25203  11.583   5.121   8.909  2.9247 -1.9445 -1.1418
  187MOL0     H25204  11.655   5.074   9.064  1.0551 -1.8134 -1.7294
  187MOL0     H25205  11.993   5.249   8.834 -0.1593 -2.0446 -0.0753
  187MOL0     H25206  12.199   5.329   8.810  2.6793 -3.4627  2.0240
  187MOL0     H25207  12.176   5.487   8.892 -0.9339  0.0690 -1.6159
  187MOL0     H25208  12.295   5.376   8.949 -1.0101  0.7731  0.8873
  187MOL0     H25209  12.326   5.274   9.511 -3.6986 -0.0886 -1.0131
  187MOL0     H25210  12.485   5.386   9.680  1.6132  1.7001  1.1639
  187MOL0     H25211  12.574   5.503   9.836 -4.1982  1.3660 -1.8698
  187MOL0     H25212  12.679   5.475   9.691 -0.7182  1.0859 -1.1409
  187MOL0     H25213  12.785   5.701   9.736  2.3596  0.7796  0.9070
  187MOL0     H25214  12.709   5.706   9.894  1.5854  0.3335 -0.8716
  187MOL0     H25215  12.941   5.649   9.878 -1.2432  0.7723  1.3079
  187MOL0     H25216  12.887   5.476   9.828 -1.5488  0.6955 -2.1218
  187MOL0     H25217  12.815   5.617  10.088  0.9428  0.5542 -0.3413
  187MOL0     H25218  12.788   5.445  10.031  0.2822 -0.2222 -1.2205
  187MOL0     H25219  12.969   5.465  10.188  1.4114 -1.6342 -0.8695
  187MOL0     H25220  13.053   5.596  10.111 -1.6855  1.9503 -2.6797
  187MOL0     H25221  12.993   5.314  10.001  1.1702 -0.6557 -1.7470
  187MOL0     H25222  13.105   5.418   9.921 -0.4946  2.2314  0.5581
  187MOL0     H25223  13.208   5.249  10.068 -2.7392  0.7401 -2.3170
  187MOL0     H25224  13.140   5.331  10.215 -2.1099 -0.8092 -0.8754
  187MOL0     H25225  13.342   5.429  10.227 -1.5271  0.0050 -0.0054
  187MOL0     H25226  13.256   5.545  10.131 -1.5091  0.2795  2.2574
  187MOL0     H25227  12.370   5.768   9.549 -0.2394  0.7820  0.1681
  187MOL0     H25228  12.219   5.664   9.377 -2.2000 -3.2651 -0.5265
  187MOL0     H25229  11.969   5.276   9.323 -0.2037 -0.2986 -0.0152
  187MOL0     H25230  11.810   5.142   9.205 -0.3518  1.7211  0.5104
  187MOL0     H25231  11.305   4.913  10.356  1.2237 -1.9817 -1.1106
  187MOL0     H25232  11.288   4.971  10.592 -1.5995 -0.0894 -1.6404
  187MOL0     H25233  11.500   5.111  10.976  1.0821 -0.0744 -1.1324
  187MOL0     H25234  11.550   5.138  11.207  0.8094 -0.2011 -0.6486
  187MOL0     H25235  11.616   5.097  11.439 -0.8204  1.6793  3.8928
  187MOL0     H25236  11.449   5.108  11.483  1.0638  1.1769  0.1584
  187MOL0     H25237  11.658   4.924  11.611 -1.6181 -3.7265 -1.4746
  187MOL0     H25238  11.490   4.920  11.643  2.2296 -1.0699 -1.6151
  187MOL0     H25239  11.584   5.075  11.821 -0.3866  2.2480  1.1324
  187MOL0     H25240  11.490   5.161  11.710 -0.7539 -1.0952 -0.3858
  187MOL0     H25241  11.685   5.273  11.779 -1.3406  1.8567 -0.9866
  187MOL0     H25242  11.705   5.256  11.606  0.4580  2.7537  0.7104
  187MOL0     H25243  12.014   4.991  11.704  1.0715 -0.4344  1.3398
  187MOL0     H25244  11.453   4.714  11.257  2.2574  0.1364  0.5196
  187MOL0     H25245  11.420   4.693  11.024 -4.0374  2.1780 -1.8634
  188MOL0     O25246   2.961   8.347   2.573 -0.1842  0.9258 -0.8421
  188MOL0     C25247   2.965   8.367   2.694 -1.2870  0.6440  0.3679
  188MOL0     O25248   2.864   8.345   2.779  0.1047  0.3451  0.3182
  188MOL0     C25249   2.740   8.350   2.737  0.4057 -0.2593 -0.3067
  188MOL0     C25250   2.665   8.461   2.761  0.2016 -0.1066  0.9120
  188MOL0     C25251   2.537   8.478   2.702 -0.2825  0.3121 -0.6307
  188MOL0     C25252   2.477   8.369   2.635 -0.3801 -0.7677  1.1799
  188MOL0     O25253   2.348   8.371   2.592  0.2337  0.1064  0.3483
  188MOL0     C25254   2.336   8.460   2.479  0.6115 -0.1090  0.8419
  188MOL0     C25255   2.202   8.502   2.438 -0.3503 -0.7070 -0.1470
  188MOL0     C25256   2.201   8.602   2.326  0.2264 -0.2701  0.1282
  188MOL0     C25257   2.240   8.534   2.195 -0.2565 -0.0494  0.2036
  188MOL0     C25258   2.267   8.624   2.084 -0.6805 -0.2526  0.3123
  188MOL0     C25259   2.165   8.737   2.064  0.4583  0.3076  0.0361
  188MOL0     C25260   2.198   8.835   1.945 -0.3506 -0.3763  1.0063
  188MOL0     C25261   2.347   8.876   1.913 -0.0396  0.5853 -0.3641
  188MOL0     N25262   2.406   8.969   2.014 -0.4113 -0.8089 -0.7766
  188MOL0     C25263   2.373   9.101   2.052  0.3828 -0.0520  0.9145
  188MOL0     C25264   2.441   9.122   2.170  0.3648 -0.2607  0.1886
  188MOL0     C25265   2.428   9.244   2.256 -0.5908 -0.2258  0.3615
  188MOL0     C25266   2.563   9.279   2.324  0.1463 -0.4287 -0.3296
  188MOL0     C25267   2.572   9.438   2.341 -0.6362  0.2719 -0.4965
  188MOL0     C25268   2.707   9.492   2.288 -0.9461  0.4205 -0.2451
  188MOL0     O25269   2.709   9.635   2.296  0.0525 -0.7502 -0.1458
  188MOL0     C25270   2.790   9.683   2.193 -0.4078  0.0251  0.4430
  188MOL0     C25271   2.882   9.611   2.113 -0.4949  0.6076  0.4021
  188MOL0     C25272   2.930   9.658   1.985 -0.2049 -0.2431  0.9660
  188MOL0     C25273   3.024   9.565   1.904 -0.5531  0.0727  0.0369
  188MOL0     C25274   2.904   9.792   1.946  0.1555  0.0181  0.1610
  188MOL0     C25275   2.950   9.855   1.812 -0.0212 -0.5461 -1.3584
  188MOL0     O25276   3.090   9.852   1.786  0.0985  0.7861  0.3541
  188MOL0     C25277   3.140   9.936   1.686  0.4210  0.5351  0.2902
  188MOL0     C25278   3.234   9.894   1.595 -0.9751 -0.1883 -0.4616
  188MOL0     C25279   3.286   9.982   1.498  0.7166  0.6655  0.3680
  188MOL0     C25280   3.262  10.119   1.488 -0.2020 -0.1131 -0.5917
  188MOL0     O25281   3.332  10.202   1.404 -0.3588 -1.0545 -0.1983
  188MOL0     C25282   3.389  10.147   1.287  0.5529  0.8563 -0.6963
  188MOL0     C25283   3.460  10.253   1.199  0.9266  0.2900  0.8849
  188MOL0     C25284   3.369  10.340   1.119 -0.2244  0.6330  0.8259
  188MOL0     C25285   3.453  10.455   1.048  0.2590  0.0036 -0.1778
  188MOL0     C25286   3.347  10.550   0.987 -0.1043 -0.2592  0.6847
  188MOL0     C25287   3.414  10.671   0.908 -0.0016  0.2211 -0.2650
  188MOL0     C25288   3.296  10.755   0.859  0.8645  0.1181 -0.0250
  188MOL0     C25289   3.249  10.844   0.975  0.0784  1.2156  0.3079
  188MOL0    Cl25290   3.375  10.974   0.987  0.1330 -0.0983 -0.0755
  188MOL0     C25291   3.166  10.165   1.580 -0.1407  0.1713  1.0111
  188MOL0     C25292   3.094  10.076   1.667 -0.5615  0.9516 -0.4330
  188MOL0     O25293   2.865   9.911   1.746 -0.2811  0.3869  1.1871
  188MOL0     C25294   2.820   9.866   2.034  0.9522 -1.0105  0.1723
  188MOL0     C25295   2.760   9.814   2.146 -0.4925  1.1208  0.2732
  188MOL0     N25296   2.526   9.023   2.191 -0.9055  0.0332  0.3351
  188MOL0     N25297   2.500   8.923   2.105 -0.4119 -0.0743 -0.3335
  188MOL0     C25298   2.550   8.255   2.624  1.4372  0.6477  0.1203
  188MOL0     C25299   2.679   8.243   2.672  0.0999  1.3091  0.5600
  188MOL0     C25300   3.093   8.408   2.750  0.0284  0.2666  0.4075
  188MOL0     C25301   3.141   8.359   2.876  0.0003 -0.1590  0.3727
  188MOL0     C25302   3.271   8.377   2.912  0.2391  0.2441  0.0391
  188MOL0     C25303   3.359   8.451   2.842 -0.0409 -0.2230 -0.3403
  188MOL0     O25304   3.484   8.470   2.893  0.1193  0.1775  0.1713
  188MOL0     C25305   3.577   8.536   2.805  0.0918 -0.1111  0.9949
  188MOL0     C25306   3.720   8.533   2.858  0.6803  0.0691 -0.0251
  188MOL0     C25307   3.758   8.390   2.900 -0.2285 -0.1688  0.4261
  188MOL0     C25308   3.895   8.375   2.965  0.4270 -0.1492 -0.1247
  188MOL0     C25309   4.007   8.381   2.867 -0.0966 -0.2785  0.7014
  188MOL0     C25310   4.084   8.373   2.777 -0.3826 -0.1355 -0.2712
  188MOL0     C25311   3.315   8.515   2.728 -0.0220 -0.9835  1.2007
  188MOL0     C25312   3.181   8.488   2.677  0.4562 -0.5274  0.2647
  188MOL0     H25313   2.719   8.526   2.829  0.6487 -1.8792  2.3241
  188MOL0     H25314   2.474   8.562   2.730  0.0666  0.6327 -0.8033
  188MOL0     H25315   2.373   8.556   2.516 -1.8337 -0.0020  3.3395
  188MOL0     H25316   2.388   8.419   2.392 -0.5751  0.5974 -0.2282
  188MOL0     H25317   2.149   8.413   2.403  1.0888 -1.0669 -1.5283
  188MOL0     H25318   2.151   8.551   2.521  2.9272  0.1596  1.5238
  188MOL0     H25319   2.097   8.633   2.317 -0.1210 -1.6856 -1.1950
  188MOL0     H25320   2.273   8.679   2.354 -3.2043  2.4863  2.1787
  188MOL0     H25321   2.334   8.479   2.210 -2.1973 -3.1202  2.3220
  188MOL0     H25322   2.162   8.460   2.174 -0.6756 -0.4927  2.9130
  188MOL0     H25323   2.368   8.665   2.092 -1.0665  1.7013 -3.1330
  188MOL0     H25324   2.267   8.565   1.991 -1.9200  0.0217  0.1210
  188MOL0     H25325   2.069   8.685   2.050 -0.1432  0.8018  1.9792
  188MOL0     H25326   2.158   8.806   2.148 -0.8594  0.0837  0.1474
  188MOL0     H25327   2.164   8.777   1.859  0.0174  2.4752 -1.2076
  188MOL0     H25328   2.130   8.920   1.952 -0.4698 -0.5471  2.2378
  188MOL0     H25329   2.334   8.927   1.818 -0.1930 -3.0844 -2.5130
  188MOL0     H25330   2.418   8.794   1.903 -2.1368 -2.0721  3.6278
  188MOL0     H25331   2.293   9.160   2.009  0.7615  0.1606  0.4981
  188MOL0     H25332   2.394   9.326   2.193  1.6279  0.2885 -0.2532
  188MOL0     H25333   2.363   9.225   2.342  2.4154 -1.3468  2.5846
  188MOL0     H25334   2.650   9.229   2.281  1.2009 -0.0470  1.3003
  188MOL0     H25335   2.573   9.224   2.418  0.9317 -0.9131 -0.6916
  188MOL0     H25336   2.567   9.466   2.447  1.0919  3.8628 -1.1844
  188MOL0     H25337   2.485   9.486   2.295 -1.0948 -2.9939 -3.4355
  188MOL0     H25338   2.724   9.446   2.190  0.7241 -1.5621  0.8969
  188MOL0     H25339   2.785   9.447   2.350 -1.5410 -0.8575 -0.3836
  188MOL0     H25340   2.926   9.524   2.161 -1.5641  0.0213  0.3446
  188MOL0     H25341   3.021   9.464   1.948 -1.1031 -0.8955 -2.1184
  188MOL0     H25342   2.983   9.563   1.803  2.2504  3.0149 -1.3172
  188MOL0     H25343   3.124   9.608   1.902 -1.7285  2.9520 -0.7084
  188MOL0     H25344   3.263   9.789   1.596 -2.2876 -0.6294  2.3193
  188MOL0     H25345   3.348   9.935   1.422  2.1856  2.6102  0.2814
  188MOL0     H25346   3.461  10.067   1.307 -1.3569 -1.0539 -1.0772
  188MOL0     H25347   3.319  10.093   1.223 -0.8630 -0.0953  1.5081
  188MOL0     H25348   3.524  10.318   1.259  1.0524 -0.1527  1.2409
  188MOL0     H25349   3.525  10.201   1.128 -1.0789 -1.2889  0.1123
  188MOL0     H25350   3.296  10.383   1.189 -1.6620 -0.2523 -0.0925
  188MOL0     H25351   3.317  10.285   1.041  1.2733  2.1563 -1.3708
  188MOL0     H25352   3.519  10.506   1.119 -0.0225  1.4599 -0.9340
  188MOL0     H25353   3.515  10.406   0.972 -1.5028  1.0963 -2.4181
  188MOL0     H25354   3.290  10.589   1.071 -0.4250  2.9705 -0.8816
  188MOL0     H25355   3.282  10.498   0.916  0.9024  2.0264 -2.1078
  188MOL0     H25356   3.488  10.716   0.974  0.6921 -3.4556  1.7120
  188MOL0     H25357   3.469  10.628   0.824  0.2068  4.1912 -2.3752
  188MOL0     H25358   3.216  10.688   0.826 -0.2864  0.8398  1.2234
  188MOL0     H25359   3.340  10.806   0.773 -2.9779  2.0137 -1.0569
  188MOL0     H25360   3.240  10.794   1.071 -3.7622 -3.9831 -2.2430
  188MOL0     H25361   3.155  10.891   0.944  0.8716  1.8197 -1.3253
  188MOL0     H25362   3.142  10.271   1.579 -1.1750 -0.0348  1.6737
  188MOL0     H25363   3.013  10.112   1.728  0.0910  0.6442  0.6377
  188MOL0     H25364   2.793   9.965   1.998 -1.4286 -1.9675 -0.9545
  188MOL0     H25365   2.686   9.877   2.194  1.9239  2.0093  3.1253
  188MOL0     H25366   2.504   8.162   2.595 -2.2654  1.5107  2.6341
  188MOL0     H25367   2.737   8.153   2.654  1.7257  1.8241  2.7307
  188MOL0     H25368   3.084   8.284   2.930  1.8251 -1.7716  0.1743
  188MOL0     H25369   3.313   8.317   2.992  0.8666  1.4857  0.6676
  188MOL0     H25370   3.573   8.503   2.701 -0.5297  2.0467  0.2684
  188MOL0     H25371   3.553   8.641   2.783 -0.6717 -0.6420 -0.8502
  188MOL0     H25372   3.740   8.605   2.938 -1.7336  1.1363 -0.3137
  188MOL0     H25373   3.775   8.578   2.775 -4.0223  2.5559 -2.1752
  188MOL0     H25374   3.765   8.318   2.818 -1.2134 -1.5604  1.5090
  188MOL0     H25375   3.680   8.361   2.971 -1.6080  4.5033  1.1619
  188MOL0     H25376   3.906   8.274   3.006  3.1536  0.0704 -0.1501
  188MOL0     H25377   3.913   8.448   3.044  0.7694  0.8130 -1.0649
  188MOL0     H25378   4.170   8.392   2.717  0.6583 -0.1220  1.1841
  188MOL0     H25379   3.376   8.586   2.673 -1.8958 -0.3415 -0.1337
  188MOL0     H25380   3.152   8.532   2.582  2.1991 -1.5612 -0.7965
  189MOL0     O25381   2.347   1.243   0.206 -0.5062 -0.3766 -0.0452
  189MOL0     C25382   2.335   1.317   0.112  0.6393  0.5038 -0.1929
  189MOL0     O25383   2.299   1.278  -0.010  0.2766 -0.3977 -0.2969
  189MOL0     C25384   2.245   1.151  -0.017 -0.4706 -0.3276  0.8441
  189MOL0     C25385   2.312   1.069  -0.112 -0.5383 -0.6489 -0.4636
  189MOL0     C25386   2.269   0.932  -0.120 -0.8061 -0.4825  0.4433
  189MOL0     C25387   2.156   0.887  -0.055  0.0801  0.7403  0.0820
  189MOL0     O25388   2.121   0.753  -0.074  0.0154  0.6259 -0.4783
  189MOL0     C25389   2.078   0.682   0.042  0.0935  0.7962 -1.3224
  189MOL0     C25390   2.079   0.529   0.033  0.0234  0.9339  0.2974
  189MOL0     C25391   1.956   0.476  -0.031 -0.8187 -0.5592 -0.2223
  189MOL0     C25392   1.954   0.337  -0.078 -0.6659  0.1936  0.0163
  189MOL0     C25393   1.923   0.235   0.029  0.4946  0.2493  0.3114
  189MOL0     C25394   1.884   0.101  -0.028  0.0424  0.7732  0.4394
  189MOL0     C25395   1.847   0.003   0.084  0.6084 -0.6303  0.5087
  189MOL0     C25396   1.819  -0.140   0.013 -0.5109 -0.3534 -0.0453
  189MOL0     N25397   1.780  -0.230   0.126  0.3199  0.4899 -0.8298
  189MOL0     C25398   1.659  -0.292   0.130 -0.6036 -0.4395  0.8068
  189MOL0     C25399   1.674  -0.383   0.230 -0.6189  0.7382 -0.1873
  189MOL0     C25400   1.569  -0.479   0.283 -0.3455 -0.1425 -0.1184
  189MOL0     C25401   1.572  -0.608   0.194 -0.5479  0.2901  0.2438
  189MOL0     C25402   1.682  -0.690   0.229 -0.1594 -0.0324 -0.1449
  189MOL0     C25403   1.711  -0.799   0.125  1.4723 -0.2294 -0.9624
  189MOL0     O25404   1.762  -0.750   0.002 -0.4039  0.6431  0.0359
  189MOL0     C25405   1.895  -0.718   0.011  0.2396  1.5938 -0.6034
  189MOL0     C25406   1.986  -0.819  -0.018 -0.7334 -0.2317 -0.0052
  189MOL0     C25407   2.122  -0.797  -0.001  0.4213  0.5918 -0.2770
  189MOL0     C25408   2.201  -0.905  -0.042 -0.4867  0.8872  0.1004
  189MOL0     C25409   2.172  -0.680   0.057  0.3419 -0.6701  1.2395
  189MOL0     C25410   2.300  -0.665   0.102  0.0140 -0.2020  0.1115
  189MOL0     O25411   2.372  -0.774   0.135  0.0010  0.1541 -0.5486
  189MOL0     C25412   2.479  -0.765   0.219 -0.4711  0.6001 -0.3774
  189MOL0     C25413   2.481  -0.860   0.322 -0.1962  0.0978  0.7249
  189MOL0     C25414   2.582  -0.862   0.412  0.3878 -1.0097 -0.5768
  189MOL0     C25415   2.684  -0.769   0.407  0.8474  0.7188  0.1164
  189MOL0     O25416   2.782  -0.769   0.502 -0.3761 -1.3747  0.3645
  189MOL0     C25417   2.883  -0.871   0.481 -0.1391 -0.5152 -0.9361
  189MOL0     C25418   2.984  -0.851   0.370 -0.7246  0.8760  0.1705
  189MOL0     C25419   3.078  -0.733   0.371  0.6247  0.1212  0.1911
  189MOL0     C25420   3.135  -0.706   0.232 -0.1057 -0.7883  1.3100
  189MOL0     C25421   3.229  -0.583   0.225  0.7124  0.4876  0.0140
  189MOL0     C25422   3.349  -0.590   0.327 -0.1539  0.1238  0.5775
  189MOL0     C25423   3.414  -0.449   0.331  0.4546 -0.5284 -0.0023
  189MOL0     C25424   3.516  -0.448   0.443  1.3348 -0.8250  0.1971
  189MOL0    Cl25425   3.637  -0.574   0.419  0.5229 -0.1861  0.3039
  189MOL0     C25426   2.688  -0.683   0.302 -0.2814 -1.1563  0.7843
  189MOL0     C25427   2.590  -0.681   0.208  0.5870 -0.5236  0.1453
  189MOL0     O25428   2.343  -0.550   0.104 -0.0330 -0.2373 -1.0308
  189MOL0     C25429   2.081  -0.576   0.076 -0.2992 -0.9099 -0.2018
  189MOL0     C25430   1.951  -0.602   0.063  0.8509 -0.2032 -0.6019
  189MOL0     N25431   1.790  -0.369   0.286  0.1287  0.3459  0.6152
  189MOL0     N25432   1.857  -0.277   0.228 -0.3367 -0.6286 -0.0028
  189MOL0     C25433   2.082   0.972   0.031 -0.6159 -0.3745 -0.0117
  189MOL0     C25434   2.136   1.096   0.053 -0.8251 -0.1020 -0.1992
  189MOL0     C25435   2.336   1.469   0.112 -0.5633 -0.6590  0.2652
  189MOL0     C25436   2.311   1.539  -0.004  0.4636 -0.4108 -0.4118
  189MOL0     C25437   2.308   1.681   0.001 -0.1869  0.1596  0.4437
  189MOL0     C25438   2.334   1.732   0.125  0.5085 -0.2510 -1.0695
  189MOL0     O25439   2.331   1.872   0.128  0.2671 -0.0757  0.2134
  189MOL0     C25440   2.200   1.932   0.155  0.1574  0.0626  0.8057
  189MOL0     C25441   2.219   2.079   0.124  0.9702  0.4520 -0.6169
  189MOL0     C25442   2.252   2.124  -0.023  0.7525  0.9506 -0.5252
  189MOL0     C25443   2.135   2.071  -0.109 -0.1731 -0.3456 -0.3296
  189MOL0     C25444   2.138   2.106  -0.247  0.4540 -0.2093  0.8627
  189MOL0     C25445   2.142   2.161  -0.357  0.2706 -0.2140  0.1499
  189MOL0     C25446   2.361   1.668   0.241 -0.2018  0.4569  0.2443
  189MOL0     C25447   2.351   1.533   0.236 -0.4163  1.0310  0.3027
  189MOL0     H25448   2.389   1.109  -0.178 -0.7150 -0.4278 -0.5374
  189MOL0     H25449   2.302   0.861  -0.195  1.9940  1.7025 -0.5680
  189MOL0     H25450   2.138   0.717   0.126  0.6883 -1.3859 -0.7599
  189MOL0     H25451   1.980   0.712   0.080  1.0559 -1.6893  4.0429
  189MOL0     H25452   2.166   0.488  -0.019 -1.4462 -0.4807 -1.1353
  189MOL0     H25453   2.101   0.493   0.135 -1.3864 -0.1811  0.2345
  189MOL0     H25454   1.866   0.481   0.030 -2.0314 -0.9358 -1.8900
  189MOL0     H25455   1.947   0.535  -0.123  0.2028 -1.8263 -1.1905
  189MOL0     H25456   1.883   0.333  -0.160 -0.4235  0.4873 -0.2069
  189MOL0     H25457   2.055   0.314  -0.114 -1.8247 -2.1683 -2.0159
  189MOL0     H25458   2.005   0.249   0.100  1.5528  1.4497 -1.0852
  189MOL0     H25459   1.830   0.267   0.077 -1.0527  0.2290 -2.4697
  189MOL0     H25460   1.804   0.106  -0.103  0.9629  2.3442 -0.5013
  189MOL0     H25461   1.971   0.056  -0.077 -1.9536 -2.7873 -0.1041
  189MOL0     H25462   1.939  -0.005   0.143  2.5062  1.0416 -1.9856
  189MOL0     H25463   1.759   0.045   0.133 -0.7850 -0.1896 -2.1855
  189MOL0     H25464   1.907  -0.179  -0.040 -0.5497 -1.4966  0.6983
  189MOL0     H25465   1.732  -0.121  -0.050 -0.1109  0.6758 -0.3170
  189MOL0     H25466   1.570  -0.276   0.069  0.4101  2.3869 -0.1093
  189MOL0     H25467   1.582  -0.507   0.388 -0.7462 -1.0104 -0.2876
  189MOL0     H25468   1.470  -0.435   0.266 -0.6464 -0.7327  0.0793
  189MOL0     H25469   1.553  -0.582   0.090 -0.1021  0.8781  0.3066
  189MOL0     H25470   1.486  -0.663   0.233 -0.1745  0.0609  0.7647
  189MOL0     H25471   1.659  -0.744   0.321  3.3487  0.9497  1.4696
  189MOL0     H25472   1.781  -0.647   0.249  1.8311 -4.8047  1.8577
  189MOL0     H25473   1.620  -0.859   0.114  0.1186  1.3754  0.9294
  189MOL0     H25474   1.783  -0.870   0.167 -1.3152 -0.6306  3.8019
  189MOL0     H25475   1.952  -0.914  -0.059 -0.0803  0.0072 -1.1609
  189MOL0     H25476   2.211  -0.982   0.035 -2.0304  0.2696 -0.2673
  189MOL0     H25477   2.167  -0.961  -0.130 -0.4232  0.0825  0.5759
  189MOL0     H25478   2.303  -0.871  -0.062  0.2062 -0.6075  0.9752
  189MOL0     H25479   2.389  -0.916   0.326 -2.5606  3.5515 -0.7012
  189MOL0     H25480   2.587  -0.936   0.492  1.9160  0.5855  0.8916
  189MOL0     H25481   2.928  -0.859   0.580  0.5620  1.5029 -1.4393
  189MOL0     H25482   2.835  -0.969   0.473 -1.0554  0.0718 -3.4368
  189MOL0     H25483   3.057  -0.932   0.362 -0.6224  0.8517  1.1929
  189MOL0     H25484   2.916  -0.853   0.284  1.1544 -1.5762 -1.3921
  189MOL0     H25485   3.164  -0.754   0.436  2.7519  0.9172 -2.2042
  189MOL0     H25486   3.020  -0.650   0.414  1.4250  1.6955 -1.6381
  189MOL0     H25487   3.185  -0.792   0.187 -1.8611 -0.5271 -1.3196
  189MOL0     H25488   3.050  -0.701   0.164  0.2636  1.4456  0.9374
  189MOL0     H25489   3.171  -0.491   0.230 -0.0734  0.1705 -2.2132
  189MOL0     H25490   3.276  -0.573   0.127 -0.6882 -0.3025 -0.7523
  189MOL0     H25491   3.324  -0.622   0.428  1.7879 -0.7687  0.8262
  189MOL0     H25492   3.422  -0.657   0.280  1.2828  0.1096  2.7042
  189MOL0     H25493   3.335  -0.377   0.355  1.2045 -0.1946  1.6490
  189MOL0     H25494   3.457  -0.424   0.234 -0.9862  0.8336 -0.3412
  189MOL0     H25495   3.471  -0.460   0.542  2.3086 -0.5669  0.6877
  189MOL0     H25496   3.573  -0.355   0.454  0.8017 -0.5649  0.8851
  189MOL0     H25497   2.767  -0.608   0.299 -1.1397 -0.2511  0.3744
  189MOL0     H25498   2.591  -0.597   0.138  2.6228 -0.4227  0.2201
  189MOL0     H25499   2.103  -0.485   0.131  0.6618 -1.1074 -0.2451
  189MOL0     H25500   1.884  -0.525   0.099  1.4607 -0.9660  2.4318
  189MOL0     H25501   1.993   0.947   0.088 -0.0705  1.2158  1.6418
  189MOL0     H25502   2.095   1.156   0.133  1.0113  0.1716  0.5793
  189MOL0     H25503   2.292   1.491  -0.099 -0.4094 -2.0024  0.5238
  189MOL0     H25504   2.292   1.746  -0.085 -2.3827  0.3541  0.9254
  189MOL0     H25505   2.123   1.885   0.092  2.3871 -0.4406 -1.7234
  189MOL0     H25506   2.175   1.924   0.262  3.4232  2.8727  1.9267
  189MOL0     H25507   2.301   2.114   0.188 -0.4229 -0.6907  1.9442
  189MOL0     H25508   2.123   2.120   0.158  1.3979  1.6946 -0.8483
  189MOL0     H25509   2.349   2.091  -0.059  1.2628  0.6728  1.0366
  189MOL0     H25510   2.247   2.234  -0.026 -0.7211  0.8989 -1.2059
  189MOL0     H25511   2.040   2.094  -0.060  1.2390 -1.1330  3.0782
  189MOL0     H25512   2.136   1.961  -0.115  0.3604 -0.2749 -3.8051
  189MOL0     H25513   2.159   2.203  -0.454  2.4864  2.9049  1.7511
  189MOL0     H25514   2.378   1.722   0.334  0.4051  3.3644 -1.4682
  189MOL0     H25515   2.362   1.462   0.318  1.9567  1.3348  0.3209
  190MOL0     O25516   6.521   3.455   5.458  0.0901  0.0956 -0.2969
  190MOL0     C25517   6.516   3.481   5.583 -0.1368  0.2561  0.6090
  190MOL0     O25518   6.471   3.398   5.684  0.1819 -0.0636  0.2402
  190MOL0     C25519   6.450   3.268   5.671 -0.2409  0.1816 -0.0679
  190MOL0     C25520   6.535   3.190   5.591  0.3704 -0.1914  0.2772
  190MOL0     C25521   6.522   3.056   5.586  0.1879  0.4737 -0.0024
  190MOL0     C25522   6.456   2.985   5.692 -0.7922 -0.7554  0.1359
  190MOL0     O25523   6.439   2.849   5.707  0.5192 -0.3421 -0.3035
  190MOL0     C25524   6.468   2.766   5.595 -0.1006 -0.1556 -0.9345
  190MOL0     C25525   6.358   2.771   5.500  1.0539 -0.6287 -0.1097
  190MOL0     C25526   6.370   2.670   5.387  0.2119 -0.3431 -0.3062
  190MOL0     C25527   6.485   2.690   5.289 -0.3322 -0.0211 -1.1016
  190MOL0     C25528   6.483   2.610   5.155  0.5861  0.0686 -1.0668
  190MOL0     C25529   6.561   2.480   5.150  0.2725 -0.4046  0.3875
  190MOL0     C25530   6.517   2.386   5.257  0.7762 -0.9842 -0.1605
  190MOL0     C25531   6.577   2.252   5.226 -0.7025 -0.5068 -0.2878
  190MOL0     N25532   6.506   2.132   5.266 -0.2808 -0.3888 -0.3245
  190MOL0     C25533   6.415   2.109   5.363 -0.0605 -0.7296  0.6047
  190MOL0     C25534   6.381   1.982   5.351 -0.0845  0.0432  0.1734
  190MOL0     C25535   6.273   1.898   5.433  0.2182  0.3692 -0.1264
  190MOL0     C25536   6.168   1.827   5.356  0.7041 -0.2492  0.1014
  190MOL0     C25537   6.064   1.914   5.288 -0.0593 -0.3676  0.5725
  190MOL0     C25538   5.978   1.832   5.198 -0.5519  0.2350 -0.0211
  190MOL0     O25539   5.880   1.762   5.277  0.2303 -0.5610  0.6136
  190MOL0     C25540   5.792   1.681   5.217 -0.6056  0.0922  0.2852
  190MOL0     C25541   5.780   1.662   5.073  0.2592  0.4251 -0.3320
  190MOL0     C25542   5.686   1.571   5.019 -0.4913 -0.4992 -0.3886
  190MOL0     C25543   5.677   1.569   4.865 -0.0434  0.0594  0.2554
  190MOL0     C25544   5.600   1.506   5.106 -0.2669  0.3987 -0.0507
  190MOL0     C25545   5.498   1.409   5.057  0.4057 -0.8471 -0.5105
  190MOL0     O25546   5.475   1.295   5.144 -0.4301 -0.3240 -0.0899
  190MOL0     C25547   5.381   1.210   5.112 -0.0629  0.1839  0.5099
  190MOL0     C25548   5.386   1.124   5.003 -0.2142 -0.1713 -0.4920
  190MOL0     C25549   5.300   1.017   4.993  1.0087  0.1409  0.7155
  190MOL0     C25550   5.199   0.994   5.084  0.3770 -0.3172  0.0831
  190MOL0     O25551   5.102   0.902   5.066  0.5135  0.3981  0.1438
  190MOL0     C25552   4.976   0.897   5.127  0.8093 -0.3794  0.0467
  190MOL0     C25553   4.876   0.788   5.075  0.7326 -0.0348 -0.9815
  190MOL0     C25554   4.740   0.773   5.140  0.1961 -0.0128 -0.7048
  190MOL0     C25555   4.618   0.837   5.068 -0.4740 -0.0176  0.7730
  190MOL0     C25556   4.490   0.830   5.135  0.1480 -0.2965 -0.4111
  190MOL0     C25557   4.369   0.877   5.053 -0.0621  0.2880 -0.1463
  190MOL0     C25558   4.244   0.865   5.125  0.5490  0.6051  0.8827
  190MOL0     C25559   4.139   0.955   5.058 -0.1027  0.6912  0.3026
  190MOL0    Cl25560   4.107   0.908   4.884 -0.5744  0.0672 -0.3302
  190MOL0     C25561   5.181   1.094   5.181 -0.4973 -0.7634 -0.3022
  190MOL0     C25562   5.275   1.201   5.196  0.2502 -0.4660  0.3856
  190MOL0     O25563   5.425   1.448   4.969 -0.5837 -0.0078  0.3134
  190MOL0     C25564   5.611   1.519   5.247 -0.5430 -0.0711 -0.4151
  190MOL0     C25565   5.708   1.605   5.301 -0.2742 -0.8250 -0.0631
  190MOL0     N25566   6.466   1.923   5.256 -0.7411 -0.0714  0.8455
  190MOL0     N25567   6.531   2.013   5.196  0.5482  0.5237  0.1985
  190MOL0     C25568   6.374   3.067   5.775 -1.2102  0.6006 -0.3837
  190MOL0     C25569   6.363   3.201   5.757  0.7680  0.1306  0.3613
  190MOL0     C25570   6.569   3.610   5.629 -1.1882 -0.2863  0.1717
  190MOL0     C25571   6.598   3.712   5.544 -0.1668 -0.2587  0.2666
  190MOL0     C25572   6.632   3.840   5.586  0.3372  0.6343  0.6291
  190MOL0     C25573   6.628   3.870   5.718  0.8698 -0.2314 -0.0998
  190MOL0     O25574   6.656   3.991   5.768  0.5200 -0.3421  0.4894
  190MOL0     C25575   6.552   4.069   5.824 -0.1655 -0.4759  0.4533
  190MOL0     C25576   6.502   4.173   5.718  0.2405 -0.9412 -0.4494
  190MOL0     C25577   6.608   4.278   5.701  1.5417 -0.0701  1.1398
  190MOL0     C25578   6.554   4.397   5.628  0.9430  0.1953 -0.1288
  190MOL0     C25579   6.454   4.474   5.705  0.2459 -0.3135  0.1438
  190MOL0     C25580   6.384   4.553   5.770  0.5114  0.1430  0.4911
  190MOL0     C25581   6.615   3.761   5.810  0.7079 -0.4053 -0.1497
  190MOL0     C25582   6.588   3.634   5.769 -0.3121  0.7824  0.5905
  190MOL0     H25583   6.613   3.242   5.536  3.5167 -2.1919  2.5270
  190MOL0     H25584   6.584   3.000   5.517  0.1229 -0.5307  0.7319
  190MOL0     H25585   6.565   2.781   5.547 -0.2297 -2.1851 -1.9253
  190MOL0     H25586   6.471   2.664   5.635 -0.1200 -0.3457 -1.4091
  190MOL0     H25587   6.256   2.770   5.540  1.1690  0.9120  0.2563
  190MOL0     H25588   6.349   2.871   5.457  2.9496 -1.1450 -1.8750
  190MOL0     H25589   6.382   2.567   5.421  4.6961 -0.4560 -1.6769
  190MOL0     H25590   6.278   2.670   5.326  1.1722 -0.3583 -1.8095
  190MOL0     H25591   6.487   2.796   5.262 -2.2171  0.5410  0.7383
  190MOL0     H25592   6.584   2.670   5.330 -0.2765 -3.5327 -2.5952
  190MOL0     H25593   6.382   2.587   5.122  0.1597 -0.8414  0.7518
  190MOL0     H25594   6.528   2.669   5.075 -1.1220  0.0429 -2.0822
  190MOL0     H25595   6.527   2.437   5.055 -1.7103 -2.1946  1.8060
  190MOL0     H25596   6.667   2.507   5.158 -0.1499  1.6643 -0.4063
  190MOL0     H25597   6.557   2.423   5.352  0.8677  1.9078 -1.2198
  190MOL0     H25598   6.409   2.380   5.266  0.3373  1.3685 -2.6470
  190MOL0     H25599   6.683   2.261   5.252 -1.0882  5.0534  0.7554
  190MOL0     H25600   6.559   2.245   5.118 -0.8075 -1.2892 -0.2184
  190MOL0     H25601   6.382   2.183   5.435 -0.0173  0.2029 -0.3068
  190MOL0     H25602   6.339   1.822   5.477  1.7712  2.5273  1.5219
  190MOL0     H25603   6.219   1.953   5.510 -2.1465 -0.7604 -0.8731
  190MOL0     H25604   6.122   1.748   5.417 -0.3558 -0.3562 -0.8031
  190MOL0     H25605   6.217   1.775   5.273 -0.6676  0.2601 -1.0737
  190MOL0     H25606   6.111   1.992   5.227 -1.1028  1.3330  1.8392
  190MOL0     H25607   6.010   1.966   5.367  2.2640 -3.0848  4.2386
  190MOL0     H25608   6.040   1.758   5.146 -3.2072 -1.3540 -1.0888
  190MOL0     H25609   5.926   1.888   5.120 -2.2166  0.4863  1.2182
  190MOL0     H25610   5.842   1.725   5.009 -0.1811  1.3193  0.1111
  190MOL0     H25611   5.750   1.645   4.835 -0.4247  1.2140  2.0994
  190MOL0     H25612   5.697   1.468   4.826  0.7140 -0.4802  1.9358
  190MOL0     H25613   5.584   1.602   4.819 -0.1243 -0.1708  0.2496
  190MOL0     H25614   5.463   1.132   4.927  0.2517  0.3758  0.0279
  190MOL0     H25615   5.302   0.963   4.898 -0.0702  0.2643  0.6038
  190MOL0     H25616   4.988   0.886   5.235  0.8293 -1.4948 -0.0560
  190MOL0     H25617   4.927   0.994   5.109  0.9762 -0.5318 -1.3354
  190MOL0     H25618   4.866   0.800   4.967 -1.5464 -3.4805 -1.3160
  190MOL0     H25619   4.929   0.693   5.086  0.4279 -0.4722 -2.8728
  190MOL0     H25620   4.744   0.829   5.234 -0.2396 -2.3494  0.7829
  190MOL0     H25621   4.720   0.668   5.164  2.5478 -0.1925  0.7362
  190MOL0     H25622   4.639   0.941   5.042 -1.6119 -0.1968 -1.0659
  190MOL0     H25623   4.613   0.792   4.968 -1.0754  2.2443 -0.3059
  190MOL0     H25624   4.507   0.894   5.223  2.0172 -1.0065 -0.2217
  190MOL0     H25625   4.467   0.727   5.165 -0.7146 -0.0584 -0.2158
  190MOL0     H25626   4.367   0.981   5.020 -1.9587  0.8465  1.4734
  190MOL0     H25627   4.368   0.818   4.961 -1.4229 -0.6689  0.4449
  190MOL0     H25628   4.250   0.918   5.220  1.6166  3.0924 -0.4528
  190MOL0     H25629   4.211   0.762   5.137  0.8796  0.4261  0.3112
  190MOL0     H25630   4.169   1.060   5.068  3.0337  0.0040 -0.8625
  190MOL0     H25631   4.045   0.946   5.114  0.2030 -0.9826  0.5946
  190MOL0     H25632   5.095   1.104   5.247  0.0647 -0.1978  0.3652
  190MOL0     H25633   5.264   1.255   5.290  0.1327 -2.0743  1.3262
  190MOL0     H25634   5.540   1.466   5.310 -0.7333 -0.5146 -0.9969
  190MOL0     H25635   5.715   1.616   5.409 -0.4341  1.8315 -0.2738
  190MOL0     H25636   6.330   3.009   5.856 -1.1963 -0.8918 -1.4166
  190MOL0     H25637   6.309   3.266   5.825  0.8821  2.4247 -1.5942
  190MOL0     H25638   6.608   3.682   5.440 -1.2057 -1.0273  0.3737
  190MOL0     H25639   6.666   3.918   5.518 -0.6129 -0.1455 -0.7933
  190MOL0     H25640   6.473   3.999   5.852 -1.4161  1.6111  2.4705
  190MOL0     H25641   6.589   4.112   5.918 -2.3434  0.2216  1.0535
  190MOL0     H25642   6.407   4.217   5.750  0.2854 -1.9119  1.1276
  190MOL0     H25643   6.482   4.120   5.624 -3.6154 -1.6719  0.6151
  190MOL0     H25644   6.685   4.245   5.631  0.3569 -3.1770  1.1621
  190MOL0     H25645   6.641   4.300   5.803  0.8453  1.2881  1.0937
  190MOL0     H25646   6.512   4.369   5.532  0.6493  0.7925 -0.1813
  190MOL0     H25647   6.631   4.474   5.613  2.5935 -0.5700  3.2519
  190MOL0     H25648   6.306   4.601   5.826 -1.7159  0.0849 -2.3801
  190MOL0     H25649   6.616   3.784   5.916 -3.4572 -0.9274  0.1583
  190MOL0     H25650   6.579   3.563   5.850  1.6331 -1.3644 -0.9523
  191MOL0     O25651   4.688   7.770   7.059 -0.2927 -0.0974 -0.1123
  191MOL0     C25652   4.707   7.734   6.948 -0.6166 -0.1669  0.2427
  191MOL0     O25653   4.613   7.718   6.856  0.3118 -0.2895 -0.5735
  191MOL0     C25654   4.477   7.756   6.878 -0.2798 -0.6129  0.1780
  191MOL0     C25655   4.437   7.890   6.880  0.2502 -0.4774  0.3822
  191MOL0     C25656   4.313   7.940   6.890  0.8922  0.2187  0.4963
  191MOL0     C25657   4.205   7.848   6.896  0.4569 -0.5600 -0.2379
  191MOL0     O25658   4.071   7.883   6.891  0.0686  0.3951 -0.0529
  191MOL0     C25659   4.039   8.028   6.889 -0.3922  0.5986  0.0959
  191MOL0     C25660   3.887   8.039   6.921  0.3101  0.2487 -0.2845
  191MOL0     C25661   3.849   7.949   7.046 -0.0849  0.0193  0.7659
  191MOL0     C25662   3.701   7.973   7.071  0.0766  0.7417  0.7417
  191MOL0     C25663   3.670   7.953   7.214  0.6770 -0.2722 -0.4382
  191MOL0     C25664   3.516   7.972   7.243 -0.1913  0.3451  0.7969
  191MOL0     C25665   3.485   7.916   7.388  0.0586  0.1889  0.4886
  191MOL0     C25666   3.365   7.980   7.452  0.4233 -0.2927  0.1448
  191MOL0     N25667   3.238   7.956   7.374 -0.2004 -0.6488 -0.2940
  191MOL0     C25668   3.184   7.832   7.372 -0.1086 -0.1951  0.7601
  191MOL0     C25669   3.073   7.855   7.284 -0.5794  0.7332  0.2450
  191MOL0     C25670   2.961   7.752   7.270 -0.2359  0.2895  0.0871
  191MOL0     C25671   2.975   7.669   7.140  0.4411 -0.5906 -0.9260
  191MOL0     C25672   2.867   7.570   7.151 -0.5966 -0.1344  0.2569
  191MOL0     C25673   2.850   7.481   7.024  1.1250 -0.5388  0.2940
  191MOL0     O25674   2.727   7.409   7.043 -0.0456 -0.5634 -0.7177
  191MOL0     C25675   2.608   7.469   7.018  0.0331  0.7754  0.2677
  191MOL0     C25676   2.590   7.601   6.965 -0.2832 -0.1542 -0.0340
  191MOL0     C25677   2.467   7.648   6.921 -0.0485  0.1189 -0.0900
  191MOL0     C25678   2.456   7.787   6.852 -0.3138 -0.0661  0.1566
  191MOL0     C25679   2.350   7.574   6.951 -0.4925  0.7261 -0.7250
  191MOL0     C25680   2.207   7.626   6.934 -0.1228  0.6272  0.3566
  191MOL0     O25681   2.100   7.538   6.944  0.4499  0.5602  0.0232
  191MOL0     C25682   1.964   7.582   6.945 -0.1454 -0.5155  0.1351
  191MOL0     C25683   1.875   7.500   6.873  0.1354  0.2008  0.9387
  191MOL0     C25684   1.735   7.517   6.860 -0.0622  0.0727  0.1202
  191MOL0     C25685   1.689   7.620   6.946  0.0633  0.7948  0.0391
  191MOL0     O25686   1.554   7.644   6.983  0.2762 -0.3752  0.7879
  191MOL0     C25687   1.453   7.627   6.876 -0.5886  0.3839 -0.1072
  191MOL0     C25688   1.312   7.666   6.916  0.3885  0.0494 -0.0458
  191MOL0     C25689   1.208   7.637   6.808 -0.3342  0.1703  0.5078
  191MOL0     C25690   1.063   7.669   6.853 -1.3329  0.0864 -0.0807
  191MOL0     C25691   1.031   7.821   6.883  0.6327 -0.0151 -0.1923
  191MOL0     C25692   0.920   7.834   6.987 -0.2210  0.7016  0.1611
  191MOL0     C25693   0.922   7.972   7.043  1.5802 -0.2350  0.1508
  191MOL0     C25694   0.780   8.018   7.084  0.0088  0.8149  0.0391
  191MOL0    Cl25695   0.780   8.158   7.194  0.0133 -0.2042 -0.1015
  191MOL0     C25696   1.773   7.709   7.012 -1.2748 -1.0390 -0.3699
  191MOL0     C25697   1.911   7.689   7.016  0.4839  0.3983 -0.5517
  191MOL0     O25698   2.192   7.744   6.900  0.7067  0.1099 -0.5286
  191MOL0     C25699   2.364   7.441   6.994  0.6880  0.9362  0.6333
  191MOL0     C25700   2.491   7.399   7.036 -0.3789 -0.2270  0.6944
  191MOL0     N25701   3.086   7.990   7.237  0.0230  0.2381  0.4214
  191MOL0     N25702   3.180   8.050   7.292  0.1722  0.4492  0.0557
  191MOL0     C25703   4.234   7.710   6.908 -0.2479 -0.2503 -0.0511
  191MOL0     C25704   4.369   7.668   6.900  0.3662  0.3081  1.2880
  191MOL0     C25705   4.845   7.700   6.911 -0.9404  0.3782 -0.4867
  191MOL0     C25706   4.958   7.761   6.961 -0.4948  0.9059  0.0672
  191MOL0     C25707   5.089   7.734   6.914  0.1026  0.1211  0.4716
  191MOL0     C25708   5.111   7.627   6.821 -0.4217 -0.1013  0.2054
  191MOL0     O25709   5.231   7.583   6.761 -0.4484  0.1765  0.2118
  191MOL0     C25710   5.359   7.631   6.820  0.0947 -0.5332  0.1327
  191MOL0     C25711   5.409   7.748   6.724  0.0270 -0.4482  1.2775
  191MOL0     C25712   5.560   7.777   6.749  0.4644  0.6571  0.0917
  191MOL0     C25713   5.622   7.867   6.636 -0.5233  0.5718  0.9894
  191MOL0     C25714   5.577   8.001   6.624 -0.1819  0.3271 -0.5838
  191MOL0     C25715   5.537   8.111   6.631  0.7148 -1.3146  0.0984
  191MOL0     C25716   4.997   7.563   6.771  0.8163 -0.2865  1.4752
  191MOL0     C25717   4.869   7.601   6.815 -0.4568  0.1961  0.1466
  191MOL0     H25718   4.512   7.966   6.865 -0.2811  0.6060  2.7323
  191MOL0     H25719   4.298   8.046   6.874  1.8344  0.3562  0.4452
  191MOL0     H25720   4.089   8.078   6.972  2.0693  1.3785 -1.7195
  191MOL0     H25721   4.068   8.076   6.795 -1.6463  1.0435 -0.0743
  191MOL0     H25722   3.863   8.141   6.951 -2.0999  0.2063 -1.7959
  191MOL0     H25723   3.818   8.022   6.838 -0.1329 -2.5004  0.5291
  191MOL0     H25724   3.861   7.843   7.019 -0.3165 -0.0686  1.0134
  191MOL0     H25725   3.906   7.974   7.136  0.8149 -0.9244  0.4892
  191MOL0     H25726   3.670   8.076   7.048 -0.4734  1.1130  2.9117
  191MOL0     H25727   3.640   7.905   7.010  3.3488 -0.7145 -1.1299
  191MOL0     H25728   3.684   7.851   7.250 -1.2524  0.0995  1.6540
  191MOL0     H25729   3.727   8.014   7.284 -1.8601 -1.2770  2.7918
  191MOL0     H25730   3.481   8.075   7.226 -1.0277 -0.0431  0.0876
  191MOL0     H25731   3.461   7.913   7.170  2.2866  0.4667 -1.3023
  191MOL0     H25732   3.483   7.807   7.400  0.4494  0.4220  3.4114
  191MOL0     H25733   3.565   7.950   7.455  0.7217 -0.2837 -0.0583
  191MOL0     H25734   3.381   8.088   7.449  1.5916 -0.3658  2.1512
  191MOL0     H25735   3.359   7.945   7.556  4.1380  1.5466  1.1379
  191MOL0     H25736   3.215   7.748   7.433 -3.0400 -1.1447  1.0646
  191MOL0     H25737   2.959   7.690   7.359 -2.1488  1.2609  0.7785
  191MOL0     H25738   2.865   7.805   7.267 -0.9923 -0.7639  2.8667
  191MOL0     H25739   3.079   7.638   7.132  0.5884  0.3269 -4.1492
  191MOL0     H25740   2.960   7.738   7.056  0.5987  1.7183  0.8461
  191MOL0     H25741   2.777   7.632   7.160 -1.4260 -0.7506 -2.7502
  191MOL0     H25742   2.887   7.497   7.230 -2.6769 -1.7408 -0.6196
  191MOL0     H25743   2.937   7.414   7.018  0.5341 -1.3413  0.4841
  191MOL0     H25744   2.846   7.544   6.935 -3.1372  1.6722  1.7990
  191MOL0     H25745   2.671   7.672   6.953 -0.7911  0.0163 -3.5666
  191MOL0     H25746   2.395   7.780   6.761  0.2631  0.4195 -0.2753
  191MOL0     H25747   2.414   7.863   6.918 -0.5371 -2.9247  3.5916
  191MOL0     H25748   2.550   7.826   6.813 -0.7044  1.6416  0.8372
  191MOL0     H25749   1.919   7.428   6.804  2.3081  2.8671 -0.6516
  191MOL0     H25750   1.671   7.446   6.807 -0.1935  0.7726 -0.6840
  191MOL0     H25751   1.492   7.695   6.799  2.8816  1.9065  2.6960
  191MOL0     H25752   1.454   7.525   6.837  0.1761  1.5280 -3.3882
  191MOL0     H25753   1.279   7.607   7.002  0.6227 -2.8653 -1.8158
  191MOL0     H25754   1.316   7.775   6.922 -3.2336  0.3712 -1.1130
  191MOL0     H25755   1.224   7.531   6.788 -0.2512  0.1421  0.7163
  191MOL0     H25756   1.235   7.695   6.720 -1.9678 -0.1127 -0.2215
  191MOL0     H25757   0.979   7.635   6.793 -2.6477 -1.8218  2.6613
  191MOL0     H25758   1.058   7.605   6.941  4.2526  1.3043  1.5508
  191MOL0     H25759   1.021   7.887   6.796  0.9875  1.3144  0.7565
  191MOL0     H25760   1.121   7.855   6.934  2.0582 -0.4507 -2.2880
  191MOL0     H25761   0.822   7.818   6.939 -0.2709  0.3881  0.3641
  191MOL0     H25762   0.938   7.767   7.072 -0.2460 -0.1154 -0.4651
  191MOL0     H25763   0.956   8.042   6.966 -1.3678 -0.4722 -1.5065
  191MOL0     H25764   0.996   7.978   7.123  0.0009  0.8237  1.6064
  191MOL0     H25765   0.729   7.942   7.143 -2.7085  1.0683 -1.8277
  191MOL0     H25766   0.723   8.040   6.993 -1.3021 -2.0841  0.0762
  191MOL0     H25767   1.735   7.798   7.062 -0.3820  0.7185 -2.6268
  191MOL0     H25768   1.975   7.765   7.059 -0.3353  1.2332 -0.7854
  191MOL0     H25769   2.276   7.382   7.020  2.0641 -0.9130  1.2506
  191MOL0     H25770   2.506   7.302   7.084 -0.4044  0.0293  1.2326
  191MOL0     H25771   4.143   7.652   6.920 -0.5543  0.0886 -0.6468
  191MOL0     H25772   4.404   7.566   6.910  3.1703  1.0577  0.0961
  191MOL0     H25773   4.936   7.832   7.041 -1.2256  0.9123 -0.1326
  191MOL0     H25774   5.175   7.796   6.937  0.5805  0.9199 -2.9694
  191MOL0     H25775   5.344   7.667   6.923 -2.8557  1.6055 -0.8962
  191MOL0     H25776   5.435   7.553   6.812  0.9918  0.3174  0.0691
  191MOL0     H25777   5.350   7.840   6.725 -1.2442 -1.1914 -0.4656
  191MOL0     H25778   5.412   7.717   6.619  2.4173  3.2199  0.0511
  191MOL0     H25779   5.606   7.679   6.764 -1.1526  0.0118  1.1083
  191MOL0     H25780   5.569   7.829   6.845  2.6609  0.6372 -0.0487
  191MOL0     H25781   5.595   7.829   6.537  0.2197 -1.2198  1.4309
  191MOL0     H25782   5.731   7.867   6.644 -0.0919 -1.8302 -2.6261
  191MOL0     H25783   5.488   8.207   6.638  1.6990 -0.6807 -1.3205
  191MOL0     H25784   5.010   7.500   6.684 -0.0770  0.8631  0.4589
  191MOL0     H25785   4.782   7.558   6.766 -1.3364  1.3245  0.6622
  192MOL0     O25786   7.473   4.430   3.899 -0.5320 -0.2390  0.1972
  192MOL0     C25787   7.546   4.519   3.853 -0.4050  0.1485  0.4493
  192MOL0     O25788   7.506   4.629   3.791  0.4644  0.4131 -0.2816
  192MOL0     C25789   7.374   4.657   3.785  0.8779 -0.5936 -0.3609
  192MOL0     C25790   7.278   4.646   3.893 -0.2352  0.3667  0.3409
  192MOL0     C25791   7.150   4.704   3.881  0.0716  0.0785  0.4710
  192MOL0     C25792   7.115   4.747   3.753  0.0987 -0.2406  0.8972
  192MOL0     O25793   6.991   4.802   3.723 -0.9644 -1.1889 -0.3127
  192MOL0     C25794   6.883   4.740   3.803  0.2500  0.2709 -0.8424
  192MOL0     C25795   6.748   4.792   3.751  1.1946  1.2069 -0.3024
  192MOL0     C25796   6.629   4.766   3.844 -0.1334  0.4653 -0.6488
  192MOL0     C25797   6.503   4.800   3.768  0.2745  0.5543 -0.3631
  192MOL0     C25798   6.371   4.785   3.844  0.2716 -0.2028 -0.3484
  192MOL0     C25799   6.344   4.909   3.929 -0.4041  0.0492 -0.2076
  192MOL0     C25800   6.205   4.917   3.992 -0.4518 -0.0982  0.0814
  192MOL0     C25801   6.192   5.042   4.086  0.4101  0.1603 -0.2547
  192MOL0     N25802   6.213   5.170   4.012  0.0517  0.2819 -0.1380
  192MOL0     C25803   6.322   5.252   4.026  1.0309  0.1886 -0.0010
  192MOL0     C25804   6.310   5.328   3.911 -0.8789  0.2637  0.0495
  192MOL0     C25805   6.405   5.428   3.860 -0.0350 -0.4378  0.3789
  192MOL0     C25806   6.535   5.360   3.811  1.0964  0.1527  0.1744
  192MOL0     C25807   6.512   5.280   3.684 -0.0293  0.6865  0.1126
  192MOL0     C25808   6.638   5.213   3.632 -0.5253  0.4862  0.0043
  192MOL0     O25809   6.607   5.141   3.514  0.2208 -0.8909 -0.6680
  192MOL0     C25810   6.717   5.103   3.443  0.7947  0.6518  0.3439
  192MOL0     C25811   6.709   5.092   3.304 -0.4104 -0.2706  0.2660
  192MOL0     C25812   6.810   5.055   3.219  0.3107  0.3191  0.1612
  192MOL0     C25813   6.779   5.042   3.072 -0.0977  0.4475 -0.6391
  192MOL0     C25814   6.934   5.018   3.275  0.4649  0.5510  0.1474
  192MOL0     C25815   7.040   4.961   3.196  0.0158 -0.4746  0.5876
  192MOL0     O25816   7.170   4.995   3.244  0.6481  0.1481 -0.0578
  192MOL0     C25817   7.268   4.923   3.195  0.0332 -0.0477 -0.4716
  192MOL0     C25818   7.331   4.947   3.077 -0.3166  0.6638  0.3281
  192MOL0     C25819   7.438   4.866   3.034 -0.0803 -0.6040  1.1503
  192MOL0     C25820   7.485   4.763   3.105  0.2144  0.4464  0.0891
  192MOL0     O25821   7.586   4.681   3.048  0.1885  0.4848  0.4787
  192MOL0     C25822   7.704   4.654   3.125 -0.4678 -0.0273 -0.3964
  192MOL0     C25823   7.776   4.531   3.070  1.3062 -0.0988 -0.8074
  192MOL0     C25824   7.706   4.396   3.092  0.7388 -0.1996 -0.0457
  192MOL0     C25825   7.808   4.279   3.074  0.7389 -1.3062  0.2131
  192MOL0     C25826   7.732   4.148   3.096 -0.0593 -0.0387 -0.3609
  192MOL0     C25827   7.833   4.049   3.157 -0.0932 -0.5945 -0.5420
  192MOL0     C25828   7.950   4.017   3.060 -0.5047 -0.9105  0.0838
  192MOL0     C25829   7.988   3.877   3.096 -0.7418 -0.7834 -0.5403
  192MOL0    Cl25830   7.884   3.760   3.020  0.3278 -0.2383 -0.4798
  192MOL0     C25831   7.418   4.729   3.220  0.5571 -0.2112  0.7815
  192MOL0     C25832   7.320   4.813   3.270  1.0382  0.8227 -0.4062
  192MOL0     O25833   7.027   4.885   3.104 -0.1290  0.1216 -0.0829
  192MOL0     C25834   6.944   5.030   3.416 -0.7386 -0.9983 -0.4058
  192MOL0     C25835   6.842   5.071   3.502  0.3035 -0.0700 -0.3349
  192MOL0     N25836   6.200   5.296   3.833 -0.3568  0.3396 -1.0148
  192MOL0     N25837   6.141   5.200   3.896  0.5763  0.2088  0.6251
  192MOL0     C25838   7.207   4.754   3.643 -0.1652 -0.0333 -0.1758
  192MOL0     C25839   7.334   4.718   3.670 -0.3948  0.9661 -0.2513
  192MOL0     C25840   7.693   4.509   3.870  0.7612  0.8806 -0.0104
  192MOL0     C25841   7.748   4.397   3.937  0.3434 -0.2222 -0.3571
  192MOL0     C25842   7.888   4.360   3.939  0.7768  0.0989  0.3029
  192MOL0     C25843   7.973   4.452   3.881  0.4685  1.0519  0.9087
  192MOL0     O25844   8.109   4.446   3.874 -0.3545 -0.0908 -0.2322
  192MOL0     C25845   8.177   4.375   3.984  0.2960 -0.9488  0.0698
  192MOL0     C25846   8.330   4.379   3.957  1.0669 -0.3709 -0.1437
  192MOL0     C25847   8.416   4.312   4.061  0.0938  0.7115  0.0769
  192MOL0     C25848   8.566   4.329   4.014  0.2865 -0.4435  0.0853
  192MOL0     C25849   8.626   4.469   4.026 -1.1123 -0.0092  1.0153
  192MOL0     C25850   8.664   4.579   4.020  0.0262 -0.4939 -0.0212
  192MOL0     C25851   7.926   4.565   3.817  0.3930  0.8699  0.3842
  192MOL0     C25852   7.790   4.591   3.806  0.4916 -0.3077  0.1443
  192MOL0     H25853   7.317   4.607   3.987  0.5984  0.7910  0.1795
  192MOL0     H25854   7.080   4.709   3.964  0.3350  2.7457  0.6298
  192MOL0     H25855   6.887   4.630   3.804 -0.8771  0.2084  0.5783
  192MOL0     H25856   6.891   4.786   3.902  0.9638  1.7554 -1.5655
  192MOL0     H25857   6.754   4.896   3.720  0.3111  1.4944  0.4455
  192MOL0     H25858   6.737   4.733   3.659  2.1225 -0.4446  0.5906
  192MOL0     H25859   6.627   4.661   3.875 -0.4870  0.4443 -0.7406
  192MOL0     H25860   6.642   4.839   3.925  1.5582 -1.3528  0.8151
  192MOL0     H25861   6.499   4.902   3.726 -1.3558  1.9628  2.8623
  192MOL0     H25862   6.494   4.723   3.692  0.2663  0.5056 -0.3124
  192MOL0     H25863   6.292   4.772   3.770 -0.1640 -1.1303  0.2611
  192MOL0     H25864   6.369   4.699   3.911 -2.4667 -0.2686 -0.4234
  192MOL0     H25865   6.425   4.917   4.002  0.2591 -0.4573 -0.8674
  192MOL0     H25866   6.364   5.001   3.874  0.2889  0.3753  0.5728
  192MOL0     H25867   6.124   4.925   3.918 -1.7808 -2.1267  1.2318
  192MOL0     H25868   6.178   4.832   4.054 -1.8880  1.1306  1.2243
  192MOL0     H25869   6.252   5.038   4.177 -1.4292 -2.7606  0.9907
  192MOL0     H25870   6.096   5.042   4.138  0.6265  0.0214  0.1489
  192MOL0     H25871   6.391   5.257   4.109  1.3511  1.5527 -0.3227
  192MOL0     H25872   6.358   5.489   3.782  2.5249 -1.5593 -2.2272
  192MOL0     H25873   6.433   5.487   3.947  0.4054 -0.5741  0.3326
  192MOL0     H25874   6.574   5.298   3.892 -0.7229 -0.7104  0.4477
  192MOL0     H25875   6.605   5.440   3.788  0.8405  0.7848  1.5030
  192MOL0     H25876   6.467   5.344   3.608  0.4508  0.3214 -0.4876
  192MOL0     H25877   6.444   5.198   3.711 -3.1071  2.9517 -0.2199
  192MOL0     H25878   6.681   5.136   3.698  0.5736 -0.6093 -1.8919
  192MOL0     H25879   6.711   5.293   3.619 -0.0779 -0.1056 -1.3226
  192MOL0     H25880   6.613   5.121   3.261 -1.7825 -2.0178  1.9439
  192MOL0     H25881   6.701   5.117   3.058 -2.1676 -1.1650  1.4369
  192MOL0     H25882   6.866   5.070   3.011 -0.8608 -0.7963 -2.4147
  192MOL0     H25883   6.743   4.942   3.042 -3.2956  1.3805 -0.3017
  192MOL0     H25884   7.287   5.026   3.017 -1.4813 -0.6600 -0.6205
  192MOL0     H25885   7.478   4.879   2.935 -0.8813  1.4444  1.0447
  192MOL0     H25886   7.774   4.737   3.117 -1.3931  0.7868 -0.1593
  192MOL0     H25887   7.682   4.634   3.231 -0.1365  0.4004 -0.2412
  192MOL0     H25888   7.782   4.553   2.963 -0.8718  0.4620 -0.8555
  192MOL0     H25889   7.884   4.523   3.090  1.4962  0.0247 -1.7298
  192MOL0     H25890   7.610   4.389   3.039 -0.0894  1.5632  1.0962
  192MOL0     H25891   7.689   4.392   3.200 -0.1204 -0.9899 -0.1965
  192MOL0     H25892   7.846   4.276   2.971  0.7041 -1.1149  0.1941
  192MOL0     H25893   7.889   4.295   3.146  0.2664  0.9986  0.3133
  192MOL0     H25894   7.684   4.102   3.009 -0.0529  1.1567 -1.0223
  192MOL0     H25895   7.652   4.161   3.169 -0.1435  2.0554 -0.7656
  192MOL0     H25896   7.875   4.091   3.249 -1.2461  0.4554 -0.4637
  192MOL0     H25897   7.777   3.957   3.177 -1.2861  0.1693 -0.3023
  192MOL0     H25898   8.036   4.080   3.085  1.4908 -1.9821 -3.3869
  192MOL0     H25899   7.923   4.032   2.955  3.1132 -0.7704 -0.9943
  192MOL0     H25900   7.990   3.871   3.205 -2.3054  2.7891 -0.1554
  192MOL0     H25901   8.091   3.856   3.064 -0.5760 -1.9192  0.6628
  192MOL0     H25902   7.443   4.645   3.285 -0.4517  1.4175  3.4169
  192MOL0     H25903   7.271   4.803   3.366 -0.9655 -0.3172 -1.4622
  192MOL0     H25904   7.031   4.999   3.472  2.1857  2.2962 -2.7131
  192MOL0     H25905   6.855   5.066   3.609 -0.2387 -1.1029 -0.3051
  192MOL0     H25906   7.187   4.809   3.552  3.2104  0.1708 -0.9372
  192MOL0     H25907   7.415   4.731   3.599 -0.9534  0.7768 -0.9347
  192MOL0     H25908   7.688   4.311   3.963 -0.1818 -0.5693 -2.4987
  192MOL0     H25909   7.927   4.268   3.980 -0.5168 -0.9475 -0.7545
  192MOL0     H25910   8.155   4.417   4.082  1.7011 -1.0873  0.4539
  192MOL0     H25911   8.157   4.267   3.989 -2.6608 -0.5190 -0.3930
  192MOL0     H25912   8.360   4.482   3.938  0.3433  0.2147  1.6459
  192MOL0     H25913   8.346   4.317   3.869  0.2671 -2.4730  1.1041
  192MOL0     H25914   8.384   4.209   4.079  0.6512  0.6973  1.0731
  192MOL0     H25915   8.400   4.376   4.148  1.2746 -0.2426  1.0347
  192MOL0     H25916   8.569   4.294   3.911 -0.4254 -0.0240 -0.0848
  192MOL0     H25917   8.625   4.259   4.075  1.2546  0.8523  0.6952
  192MOL0     H25918   8.699   4.681   4.022 -0.0418 -0.4457 -0.8272
  192MOL0     H25919   7.998   4.635   3.776 -0.2060  0.4834 -1.4267
  192MOL0     H25920   7.756   4.680   3.754  0.7314  0.7328  1.7019
  193MOL0     O25921   4.150   4.581   7.059  0.2277  0.8984  0.0524
  193MOL0     C25922   4.241   4.595   6.978 -0.4630  0.8596 -0.4064
  193MOL0     O25923   4.222   4.618   6.846  0.2285 -0.0870 -0.3379
  193MOL0     C25924   4.105   4.575   6.782 -0.6346 -0.4116  0.3467
  193MOL0     C25925   3.971   4.622   6.804  0.1136  0.4038 -0.0098
  193MOL0     C25926   3.862   4.577   6.731  0.7249 -0.5484 -0.1109
  193MOL0     C25927   3.874   4.479   6.630 -0.6778  0.0504  0.3940
  193MOL0     O25928   3.773   4.421   6.563 -0.2634  1.1624 -0.0213
  193MOL0     C25929   3.699   4.340   6.649  1.7090  0.6513 -0.2218
  193MOL0     C25930   3.574   4.273   6.583  0.8461 -1.1488 -0.2868
  193MOL0     C25931   3.598   4.176   6.478  0.4454 -0.8502  0.0644
  193MOL0     C25932   3.474   4.137   6.393  0.7958  1.2211  0.2243
  193MOL0     C25933   3.423   4.242   6.291 -0.2575 -0.0704  0.1440
  193MOL0     C25934   3.328   4.181   6.186  0.2149  0.1194 -0.4567
  193MOL0     C25935   3.293   4.281   6.077 -0.0001 -0.4113  0.1703
  193MOL0     C25936   3.195   4.227   5.977  0.7359 -0.0829 -0.9930
  193MOL0     N25937   3.062   4.206   6.016 -0.6147  0.4591  0.1175
  193MOL0     C25938   2.960   4.298   6.016 -0.9570  0.3887 -0.3601
  193MOL0     C25939   2.845   4.223   6.043 -0.2279  0.1502  0.0648
  193MOL0     C25940   2.703   4.263   6.010  0.4393  0.4462  0.6141
  193MOL0     C25941   2.683   4.256   5.854  0.1006  1.0425  0.3512
  193MOL0     C25942   2.565   4.341   5.827 -0.5926  0.7202 -0.6382
  193MOL0     C25943   2.534   4.327   5.676  0.9174 -0.3658 -0.6137
  193MOL0     O25944   2.463   4.204   5.652  0.4838 -0.8883  0.3259
  193MOL0     C25945   2.419   4.196   5.526  0.6815  0.0825 -0.3297
  193MOL0     C25946   2.279   4.232   5.513 -0.0685 -0.1597  1.3464
  193MOL0     C25947   2.214   4.226   5.380 -0.9622  0.4347  0.2467
  193MOL0     C25948   2.066   4.255   5.381 -0.8773  0.4689  0.5933
  193MOL0     C25949   2.290   4.187   5.264  0.1194  0.0738 -0.6098
  193MOL0     C25950   2.222   4.170   5.131  0.5080 -0.4814 -0.2854
  193MOL0     O25951   2.297   4.094   5.053 -0.3067 -0.2672 -0.4628
  193MOL0     C25952   2.264   4.092   4.923 -0.5706 -0.8620 -0.0353
  193MOL0     C25953   2.304   4.201   4.834 -0.3268 -0.6712  0.7829
  193MOL0     C25954   2.247   4.185   4.707  0.1527 -0.2287 -0.4493
  193MOL0     C25955   2.167   4.078   4.656 -0.0620 -0.6622  0.0750
  193MOL0     O25956   2.130   4.088   4.524  0.5650 -0.2799  0.2557
  193MOL0     C25957   2.051   3.986   4.471 -0.1237  0.0303 -0.5520
  193MOL0     C25958   2.128   3.879   4.397 -0.3823  0.3436 -0.6447
  193MOL0     C25959   2.046   3.756   4.360  1.6858  0.7519  0.1181
  193MOL0     C25960   1.905   3.779   4.273 -0.3574  0.2272  0.0434
  193MOL0     C25961   1.856   3.650   4.208  0.5417  0.7810 -0.9425
  193MOL0     C25962   1.731   3.682   4.118  0.9728 -0.1601  0.2203
  193MOL0     C25963   1.687   3.565   4.051 -0.0655 -0.3528  0.7178
  193MOL0     C25964   1.577   3.594   3.947 -0.3386  0.2020  0.2614
  193MOL0    Cl25965   1.517   3.440   3.875 -0.7675  0.2192 -0.0711
  193MOL0     C25966   2.156   3.963   4.740  0.4266  1.1974 -0.2577
  193MOL0     C25967   2.204   3.973   4.872  0.2514 -0.4679 -0.8469
  193MOL0     O25968   2.118   4.230   5.095 -0.2330  0.6376  0.6049
  193MOL0     C25969   2.429   4.161   5.278 -0.1517  0.1322  0.0411
  193MOL0     C25970   2.489   4.161   5.407 -0.2964 -0.5443  0.0442
  193MOL0     N25971   2.884   4.096   6.074 -0.2404 -0.1689  0.0165
  193MOL0     N25972   3.009   4.097   6.076  0.4913  0.6994 -0.1607
  193MOL0     C25973   4.002   4.420   6.623 -0.9558 -0.1540 -0.5530
  193MOL0     C25974   4.118   4.470   6.691 -0.3341 -0.1580  0.1486
  193MOL0     C25975   4.374   4.602   7.030  0.2483  0.1077  0.6423
  193MOL0     C25976   4.484   4.583   6.942 -0.7738  0.2056 -0.5057
  193MOL0     C25977   4.616   4.615   6.982  0.4958 -0.0333  0.5848
  193MOL0     C25978   4.645   4.649   7.115 -0.3523 -0.0946 -0.1592
  193MOL0     O25979   4.784   4.675   7.139 -0.0203  0.4058 -0.6704
  193MOL0     C25980   4.811   4.731   7.272  0.7534  0.2689  0.9195
  193MOL0     C25981   4.942   4.800   7.276 -0.4010 -0.6180 -0.3354
  193MOL0     C25982   5.072   4.719   7.264 -0.9064 -0.2829  0.8508
  193MOL0     C25983   5.128   4.704   7.116 -1.0695  0.3271  0.6387
  193MOL0     C25984   5.181   4.842   7.079 -0.0843  0.1810  0.0867
  193MOL0     C25985   5.219   4.951   7.048 -0.2476  0.3440  0.1509
  193MOL0     C25986   4.537   4.639   7.205  0.0402 -0.0750 -1.1031
  193MOL0     C25987   4.405   4.624   7.164  0.1971  0.2066  0.5236
  193MOL0     H25988   3.962   4.693   6.885  2.3577  1.5314 -0.6641
  193MOL0     H25989   3.764   4.616   6.757  0.5089 -2.7760  2.9986
  193MOL0     H25990   3.762   4.259   6.685 -1.9710 -2.9107 -0.9483
  193MOL0     H25991   3.665   4.414   6.721  0.3419 -0.5700  0.4633
  193MOL0     H25992   3.517   4.224   6.662  0.4865  0.4234  0.4685
  193MOL0     H25993   3.524   4.361   6.541  0.4780 -0.3480  1.7444
  193MOL0     H25994   3.684   4.203   6.417  0.2111 -1.8151 -0.7228
  193MOL0     H25995   3.622   4.090   6.540 -1.9023 -0.5719  1.4937
  193MOL0     H25996   3.491   4.043   6.341 -2.6168  0.0548  0.9826
  193MOL0     H25997   3.396   4.091   6.455  0.2193 -1.8576 -2.5241
  193MOL0     H25998   3.385   4.333   6.338  1.8276 -1.1981  4.5443
  193MOL0     H25999   3.511   4.272   6.235  0.2530 -2.0254 -0.1733
  193MOL0     H26000   3.381   4.097   6.140  0.3709  0.0080 -0.0733
  193MOL0     H26001   3.243   4.132   6.235  1.5094 -0.9598  0.7698
  193MOL0     H26002   3.232   4.362   6.119  0.5410  0.9301 -1.4836
  193MOL0     H26003   3.378   4.333   6.031 -0.9898  1.8506  0.7334
  193MOL0     H26004   3.229   4.130   5.940 -3.0695 -1.8053 -0.4681
  193MOL0     H26005   3.179   4.296   5.894  0.2003 -0.1162 -0.9264
  193MOL0     H26006   2.972   4.405   5.998  3.4537 -0.1795 -1.9604
  193MOL0     H26007   2.636   4.193   6.061  0.9735 -0.9183 -0.5102
  193MOL0     H26008   2.700   4.365   6.050  0.0872  1.3152 -1.5262
  193MOL0     H26009   2.658   4.153   5.825  0.8875  0.9489 -0.0179
  193MOL0     H26010   2.776   4.284   5.803  0.3405 -0.0134  0.1790
  193MOL0     H26011   2.597   4.443   5.846  0.0512  0.2478  0.9254
  193MOL0     H26012   2.488   4.318   5.901  0.1767  0.1997  0.0146
  193MOL0     H26013   2.630   4.325   5.623  0.9439  3.2449 -0.9645
  193MOL0     H26014   2.480   4.415   5.640 -2.5560 -1.8503  0.6070
  193MOL0     H26015   2.234   4.278   5.600  0.6098  1.1833  1.0306
  193MOL0     H26016   2.019   4.243   5.479 -1.5272 -1.2482  0.1106
  193MOL0     H26017   2.047   4.361   5.363 -1.1482  0.5418  1.2595
  193MOL0     H26018   2.008   4.187   5.317  0.2085 -0.2376  0.3319
  193MOL0     H26019   2.363   4.286   4.867 -1.1281  1.3111 -2.4630
  193MOL0     H26020   2.275   4.260   4.634  0.1024 -1.5319 -1.8811
  193MOL0     H26021   1.985   3.940   4.546  1.8544 -1.0463  0.6067
  193MOL0     H26022   1.986   4.021   4.391  0.4780 -0.5163 -1.2961
  193MOL0     H26023   2.182   3.923   4.312  0.9871  0.9919  0.5226
  193MOL0     H26024   2.214   3.847   4.457  0.2587  0.6394 -1.3781
  193MOL0     H26025   2.036   3.680   4.438  0.9022 -0.3426 -1.0075
  193MOL0     H26026   2.116   3.708   4.292  0.5295 -2.1342  0.8351
  193MOL0     H26027   1.829   3.830   4.332 -0.3403  0.6719 -0.3205
  193MOL0     H26028   1.933   3.853   4.198  0.0661  2.9083  2.6685
  193MOL0     H26029   1.835   3.580   4.289  0.2055  2.4997  0.5253
  193MOL0     H26030   1.931   3.606   4.142 -0.0575  0.4962 -1.4479
  193MOL0     H26031   1.645   3.721   4.172 -3.3992 -1.0690 -5.1976
  193MOL0     H26032   1.753   3.758   4.044  0.4139 -1.8799 -1.8042
  193MOL0     H26033   1.652   3.482   4.113 -0.2414 -1.4503 -0.8036
  193MOL0     H26034   1.779   3.533   4.001  0.1988  0.8794  0.3955
  193MOL0     H26035   1.620   3.668   3.879 -0.8881  0.4807  0.2128
  193MOL0     H26036   1.488   3.636   3.995 -2.0730 -1.4755 -1.3591
  193MOL0     H26037   2.098   3.872   4.728  2.1497 -0.0842  0.6900
  193MOL0     H26038   2.172   3.893   4.937 -0.2146 -1.1204 -1.8505
  193MOL0     H26039   2.485   4.150   5.186 -0.6703  1.2246 -0.4192
  193MOL0     H26040   2.595   4.143   5.414 -0.0172  0.9138 -0.1405
  193MOL0     H26041   4.019   4.339   6.553  0.5482 -0.1104 -0.2727
  193MOL0     H26042   4.218   4.430   6.675  0.2901  1.5044 -0.3393
  193MOL0     H26043   4.474   4.561   6.836 -2.7101  0.1010 -0.3368
  193MOL0     H26044   4.704   4.601   6.921  1.6851  1.4703  1.8725
  193MOL0     H26045   4.732   4.805   7.285 -0.8413 -1.4824  1.7312
  193MOL0     H26046   4.795   4.647   7.341 -3.0964  0.4349  0.4229
  193MOL0     H26047   4.951   4.843   7.376  0.5313  0.4337 -0.8481
  193MOL0     H26048   4.949   4.877   7.198  2.1230  0.4992  0.8735
  193MOL0     H26049   5.050   4.621   7.307 -1.4471 -0.0476  1.1309
  193MOL0     H26050   5.150   4.767   7.323  1.6435  1.7909 -3.7049
  193MOL0     H26051   5.041   4.671   7.058 -0.5769  0.4728 -0.2082
  193MOL0     H26052   5.206   4.629   7.107  0.1596  1.5576  0.7538
  193MOL0     H26053   5.274   5.034   7.010  1.0921 -0.7135 -0.2927
  193MOL0     H26054   4.559   4.658   7.310  1.9834  0.5847 -1.5863
  193MOL0     H26055   4.337   4.623   7.248  1.5788 -0.4963  1.6638
  194MOL0     O26056   6.389   3.247   1.218 -0.1312 -1.0059 -0.8929
  194MOL0     C26057   6.367   3.188   1.117  0.3009 -0.0787  0.4885
  194MOL0     O26058   6.247   3.160   1.057 -0.4387 -0.5147  0.7166
  194MOL0     C26059   6.143   3.226   1.106 -0.4705  0.8780  0.1136
  194MOL0     C26060   6.093   3.194   1.227  0.6348  0.3672 -0.0596
  194MOL0     C26061   5.973   3.252   1.278 -1.0083 -0.9546 -0.8134
  194MOL0     C26062   5.914   3.361   1.213 -0.5106  0.1812  0.1413
  194MOL0     O26063   5.805   3.423   1.269  0.9869  0.7791 -0.0725
  194MOL0     C26064   5.745   3.542   1.195 -0.1364  0.6989 -0.1233
  194MOL0     C26065   5.621   3.589   1.261  0.0546 -0.2169  0.4228
  194MOL0     C26066   5.516   3.664   1.166  0.1129 -0.1050 -0.0596
  194MOL0     C26067   5.378   3.686   1.227  0.1841 -0.0926 -0.0656
  194MOL0     C26068   5.289   3.787   1.142  0.5366  0.4149 -0.0707
  194MOL0     C26069   5.154   3.824   1.207 -0.2660 -0.2842 -0.3588
  194MOL0     C26070   5.063   3.914   1.122 -0.0805 -0.5338  0.1580
  194MOL0     C26071   4.954   3.857   1.030  0.0446  0.3149 -0.2160
  194MOL0     N26072   4.854   3.780   1.099 -0.2303  0.4678 -0.2941
  194MOL0     C26073   4.762   3.828   1.188  0.8394 -0.5204  0.4186
  194MOL0     C26074   4.691   3.718   1.220  0.0314  0.4110  0.3681
  194MOL0     C26075   4.581   3.711   1.318  0.6037  0.6315  0.4514
  194MOL0     C26076   4.441   3.734   1.246  0.0702 -0.6742 -0.6924
  194MOL0     C26077   4.389   3.629   1.142  0.1132  0.9400 -0.9477
  194MOL0     C26078   4.241   3.647   1.117  0.1797  0.1857  1.0721
  194MOL0     O26079   4.226   3.766   1.035 -0.0855  0.9559  0.0433
  194MOL0     C26080   4.112   3.788   0.975 -0.2114 -0.1715  0.9478
  194MOL0     C26081   4.001   3.694   0.954  0.0288  0.6327 -0.1146
  194MOL0     C26082   3.882   3.731   0.887 -0.1973 -0.2381  0.4247
  194MOL0     C26083   3.784   3.623   0.862  0.4412 -0.4126  0.4753
  194MOL0     C26084   3.872   3.868   0.841 -0.0027 -1.1448 -0.2439
  194MOL0     C26085   3.762   3.939   0.777 -0.1666  0.1849  0.2809
  194MOL0     O26086   3.787   4.063   0.711  1.3574  0.2696 -0.6586
  194MOL0     C26087   3.683   4.087   0.616  0.3474 -1.1533 -0.4412
  194MOL0     C26088   3.670   4.008   0.505 -0.7499  0.2999  0.0143
  194MOL0     C26089   3.590   4.048   0.399  0.2558 -0.5397 -0.4803
  194MOL0     C26090   3.500   4.152   0.412 -0.7960 -0.3110  0.1196
  194MOL0     O26091   3.435   4.209   0.310  0.3535  0.1564 -0.4273
  194MOL0     C26092   3.426   4.170   0.176  0.2264 -1.2513 -0.0030
  194MOL0     C26093   3.361   4.296   0.105  0.0348  0.2446 -0.0066
  194MOL0     C26094   3.441   4.414   0.117 -0.6256 -0.0408  0.4939
  194MOL0     C26095   3.591   4.413   0.067 -1.2954  0.6785  0.5147
  194MOL0     C26096   3.667   4.541   0.088  1.0737  0.5053  0.6515
  194MOL0     C26097   3.813   4.514   0.066  0.5343  0.3048 -0.2303
  194MOL0     C26098   3.896   4.643   0.062  0.3884 -0.6858  0.0685
  194MOL0     C26099   4.025   4.643  -0.026  0.1593 -0.4016 -0.4614
  194MOL0    Cl26100   4.114   4.495   0.011 -0.1475 -0.5624  0.1869
  194MOL0     C26101   3.506   4.228   0.531 -0.7688 -0.6644  0.0189
  194MOL0     C26102   3.604   4.196   0.629  1.0329  0.9178 -0.0614
  194MOL0     O26103   3.650   3.879   0.787 -0.1138  0.6788  0.3414
  194MOL0     C26104   3.976   3.961   0.869 -0.3325  0.5904  0.3103
  194MOL0     C26105   4.093   3.910   0.918  0.1919 -0.8431 -0.6828
  194MOL0     N26106   4.752   3.609   1.156  0.5375  0.4642  0.5031
  194MOL0     N26107   4.849   3.649   1.081  0.8081  0.2830 -0.2051
  194MOL0     C26108   5.975   3.401   1.095  0.3981  0.2827  1.0053
  194MOL0     C26109   6.080   3.329   1.040 -0.7383  0.0453 -0.6056
  194MOL0     C26110   6.491   3.117   1.059 -0.0159 -0.6441 -0.2459
  194MOL0     C26111   6.620   3.108   1.126 -0.3507 -1.0945 -0.6729
  194MOL0     C26112   6.734   3.051   1.079  0.4640  0.0139 -0.4092
  194MOL0     C26113   6.722   2.983   0.959  0.2441 -0.2000  0.2365
  194MOL0     O26114   6.827   2.905   0.904  0.0552 -0.4860 -1.0606
  194MOL0     C26115   6.902   2.838   1.007 -0.1759 -0.3509  0.0473
  194MOL0     C26116   6.977   2.707   0.963 -0.0620 -0.2801  0.6926
  194MOL0     C26117   6.950   2.609   1.076  0.8586  0.7078 -0.2022
  194MOL0     C26118   6.827   2.517   1.071 -0.0849 -0.3531 -0.6196
  194MOL0     C26119   6.709   2.612   1.083  0.2244  0.3541  0.0485
  194MOL0     C26120   6.634   2.698   1.062 -1.0197  0.7307  0.6201
  194MOL0     C26121   6.601   2.990   0.892 -0.0217  0.6921  0.2604
  194MOL0     C26122   6.488   3.057   0.941  0.0113 -0.3332 -0.1163
  194MOL0     H26123   6.141   3.120   1.290 -0.9115 -0.5099  0.1409
  194MOL0     H26124   5.923   3.221   1.369 -2.5515  1.1043 -0.8893
  194MOL0     H26125   5.826   3.615   1.190  0.6966 -0.2747 -2.8255
  194MOL0     H26126   5.711   3.520   1.094  0.0266  1.5491 -0.3668
  194MOL0     H26127   5.570   3.508   1.314 -1.2226  1.1296  1.3200
  194MOL0     H26128   5.649   3.666   1.333  0.6809 -2.0807  2.2757
  194MOL0     H26129   5.549   3.767   1.145 -0.8045  0.1931 -0.0494
  194MOL0     H26130   5.517   3.608   1.072 -0.9168  0.5666 -0.4863
  194MOL0     H26131   5.310   3.601   1.235 -1.1309  1.0770  2.7831
  194MOL0     H26132   5.384   3.729   1.328 -1.9091  1.9823 -0.7460
  194MOL0     H26133   5.351   3.874   1.121  1.7819 -0.3689  0.2973
  194MOL0     H26134   5.249   3.749   1.047 -3.7283  2.6998  0.5641
  194MOL0     H26135   5.105   3.734   1.247 -1.0159 -0.1812 -1.0306
  194MOL0     H26136   5.174   3.884   1.296 -3.3503 -2.8412  2.3636
  194MOL0     H26137   5.011   3.982   1.190  0.7377  0.2391  0.0299
  194MOL0     H26138   5.124   3.984   1.063  2.1766 -2.2285  0.3245
  194MOL0     H26139   4.998   3.802   0.946 -2.2188 -3.6118  0.8861
  194MOL0     H26140   4.902   3.940   0.981 -1.2025  0.6845  1.6554
  194MOL0     H26141   4.740   3.926   1.229  1.0614  0.0393 -0.7592
  194MOL0     H26142   4.570   3.622   1.382  0.0439 -0.0390 -0.5526
  194MOL0     H26143   4.607   3.798   1.379 -1.2364  2.0297 -0.6623
  194MOL0     H26144   4.427   3.836   1.209 -1.6555 -0.6696 -0.1241
  194MOL0     H26145   4.373   3.729   1.332  1.9157 -2.1803  0.7708
  194MOL0     H26146   4.410   3.531   1.184  2.5253  0.9690 -1.9126
  194MOL0     H26147   4.453   3.635   1.053  1.3393  0.6161 -0.1128
  194MOL0     H26148   4.174   3.646   1.203 -1.0522 -0.2514  0.1513
  194MOL0     H26149   4.203   3.565   1.055  0.1962 -1.3363  2.9971
  194MOL0     H26150   4.011   3.588   0.974 -0.6823  0.1915 -1.9827
  194MOL0     H26151   3.683   3.657   0.882  0.4066 -0.5753  0.5809
  194MOL0     H26152   3.799   3.591   0.758  1.0022 -1.7835  0.9463
  194MOL0     H26153   3.800   3.544   0.937  0.2305 -2.6180 -1.6599
  194MOL0     H26154   3.730   3.917   0.505 -2.2498 -0.7328  0.3018
  194MOL0     H26155   3.605   3.986   0.311  1.0490 -2.0319  0.6561
  194MOL0     H26156   3.523   4.144   0.132  0.4846  0.5389 -0.5839
  194MOL0     H26157   3.369   4.077   0.175 -1.1280 -0.5685  2.8426
  194MOL0     H26158   3.337   4.280  -0.000  0.4439 -2.1311  0.2108
  194MOL0     H26159   3.274   4.326   0.164 -0.1710 -1.2828  0.5142
  194MOL0     H26160   3.446   4.441   0.223  1.3530  3.7365 -0.3380
  194MOL0     H26161   3.391   4.499   0.068 -0.9080 -1.3912 -1.6835
  194MOL0     H26162   3.637   4.326   0.113 -1.0133  1.0002  0.8477
  194MOL0     H26163   3.590   4.395  -0.041 -0.6567 -2.5640  0.9474
  194MOL0     H26164   3.654   4.577   0.191  0.0764  0.2612  0.6121
  194MOL0     H26165   3.639   4.616   0.013  2.6309 -1.9541 -2.6610
  194MOL0     H26166   3.857   4.450   0.143 -0.5589 -0.8777 -0.5498
  194MOL0     H26167   3.821   4.465  -0.032  3.3048  1.0793 -0.4635
  194MOL0     H26168   3.915   4.671   0.167 -1.4376 -2.1445  0.8475
  194MOL0     H26169   3.824   4.716   0.025 -2.1183 -1.3310  3.1532
  194MOL0     H26170   4.095   4.724  -0.005 -2.5190  2.2204 -1.1320
  194MOL0     H26171   3.985   4.649  -0.127 -2.3846  1.3289  0.5733
  194MOL0     H26172   3.438   4.310   0.553 -2.1274 -2.6269  4.2164
  194MOL0     H26173   3.619   4.257   0.717  1.5455 -1.1839  1.3918
  194MOL0     H26174   3.977   4.067   0.844  3.5157  0.3198 -1.3300
  194MOL0     H26175   4.178   3.978   0.918  1.2988 -2.1322  1.3464
  194MOL0     H26176   5.933   3.483   1.036 -1.4431 -0.8135  0.7174
  194MOL0     H26177   6.107   3.349   0.937  0.4112 -1.0482 -0.5356
  194MOL0     H26178   6.627   3.147   1.227 -1.3878 -0.1315 -0.9476
  194MOL0     H26179   6.819   3.050   1.146  0.2072 -2.7351 -0.0276
  194MOL0     H26180   6.990   2.895   1.042  0.2422 -2.5572  2.9790
  194MOL0     H26181   6.844   2.824   1.099 -0.3084 -2.5767 -0.3272
  194MOL0     H26182   7.085   2.724   0.954 -0.1382 -0.2630 -0.2858
  194MOL0     H26183   6.948   2.661   0.867  1.1312 -0.9463  0.6311
  194MOL0     H26184   6.965   2.663   1.170 -1.1103  1.9083 -0.5489
  194MOL0     H26185   7.030   2.534   1.080 -1.1363 -1.5009  2.0267
  194MOL0     H26186   6.814   2.447   1.154 -0.6283  0.6446  0.1565
  194MOL0     H26187   6.823   2.463   0.976  0.8242 -0.1178 -0.8087
  194MOL0     H26188   6.570   2.780   1.037  2.5802  2.8964 -2.4900
  194MOL0     H26189   6.603   2.932   0.800 -2.1873  1.4384 -0.3237
  194MOL0     H26190   6.397   3.084   0.888 -0.4124  2.8822  2.0479
  195MOL0     O26191  10.160   9.369   3.742 -0.0471 -0.3457 -0.8140
  195MOL0     C26192  10.166   9.373   3.616  0.3102  0.0106  0.1061
  195MOL0     O26193  10.163   9.491   3.533 -0.1839 -0.1868  0.3391
  195MOL0     C26194  10.181   9.617   3.571 -0.4640 -0.4878 -0.6551
  195MOL0     C26195  10.287   9.651   3.652  0.1961  0.8385  0.1309
  195MOL0     C26196  10.300   9.782   3.702 -0.5430 -0.5146 -0.6180
  195MOL0     C26197  10.213   9.885   3.658  0.0007  1.6188 -0.8723
  195MOL0     O26198  10.243  10.019   3.685  0.3276  0.0874 -1.1371
  195MOL0     C26199  10.231  10.039   3.828  0.1031 -0.8385 -0.3559
  195MOL0     C26200  10.202  10.185   3.861 -0.6041  0.8831  0.0718
  195MOL0     C26201  10.295  10.287   3.811  0.4088 -0.0241 -0.1157
  195MOL0     C26202  10.314  10.410   3.905 -0.2925  0.2394 -1.0549
  195MOL0     C26203  10.454  10.470   3.877  1.3581 -0.3579  0.0430
  195MOL0     C26204  10.456  10.560   3.755  0.6367 -0.4730  1.2454
  195MOL0     C26205  10.553  10.675   3.760 -0.2299 -0.4199  0.0272
  195MOL0     C26206  10.698  10.634   3.738  0.2391  1.1460  0.6938
  195MOL0     N26207  10.742  10.508   3.797  0.2314  0.2259 -0.1519
  195MOL0     C26208  10.797  10.491   3.921  0.0324  0.7139  0.3825
  195MOL0     C26209  10.824  10.363   3.942  0.3815  1.0087 -0.6190
  195MOL0     C26210  10.871  10.301   4.069 -0.5796  0.0874 -0.3284
  195MOL0     C26211  11.003  10.347   4.122 -0.1591  0.5581  0.4062
  195MOL0     C26212  11.112  10.326   4.008 -0.2175  0.5487  0.2678
  195MOL0     C26213  11.251  10.360   4.048  0.0749  0.7724  0.7038
  195MOL0     O26214  11.283  10.489   3.991  0.0162 -0.8038  0.1027
  195MOL0     C26215  11.412  10.497   3.958  0.3555 -1.0097  0.8766
  195MOL0     C26216  11.519  10.429   4.016 -0.0383  0.2843 -0.3146
  195MOL0     C26217  11.647  10.428   3.959 -0.5205 -0.3100 -0.8796
  195MOL0     C26218  11.749  10.325   4.008  0.7504  0.8238 -0.6557
  195MOL0     C26219  11.670  10.514   3.853  0.2494  0.3778  1.5248
  195MOL0     C26220  11.805  10.526   3.792 -0.8663 -0.5747  1.0700
  195MOL0     O26221  11.796  10.531   3.657 -0.5245 -0.1167  0.6680
  195MOL0     C26222  11.883  10.608   3.585 -0.5140  0.2791 -0.3048
  195MOL0     C26223  11.874  10.580   3.448  0.9553 -0.2002  0.6426
  195MOL0     C26224  11.970  10.634   3.356  0.3301 -0.1618 -0.2359
  195MOL0     C26225  12.072  10.715   3.401  0.3321  1.0639 -0.0233
  195MOL0     O26226  12.163  10.760   3.297  0.4928  0.3412 -0.7945
  195MOL0     C26227  12.299  10.787   3.341 -0.4844  0.4555  0.5184
  195MOL0     C26228  12.389  10.816   3.225 -0.0601  0.1431  0.8515
  195MOL0     C26229  12.541  10.782   3.244  0.0923  0.8293 -0.3393
  195MOL0     C26230  12.625  10.847   3.136  0.0986 -0.4269  0.5441
  195MOL0     C26231  12.763  10.795   3.158 -0.6587 -1.0236  0.2699
  195MOL0     C26232  12.855  10.864   3.060 -1.3331  0.6252  0.8643
  195MOL0     C26233  12.991  10.783   3.049  0.9553 -0.3239 -0.3760
  195MOL0     C26234  13.089  10.861   2.962 -0.6855  0.3438  0.7799
  195MOL0    Cl26235  13.203  10.759   2.873 -0.3653  0.5344 -0.1094
  195MOL0     C26236  12.088  10.739   3.540  0.5122  0.4307  0.7521
  195MOL0     C26237  11.991  10.677   3.625  0.5765 -0.0612 -0.1536
  195MOL0     O26238  11.910  10.509   3.855  0.5316 -0.6171 -0.3543
  195MOL0     C26239  11.563  10.587   3.798  0.1744 -0.3676  0.5225
  195MOL0     C26240  11.432  10.582   3.848  0.9625 -0.3212 -0.4161
  195MOL0     N26241  10.791  10.293   3.825 -0.5324  0.1650 -0.6451
  195MOL0     N26242  10.746  10.381   3.738 -0.3112 -0.5568  0.4671
  195MOL0     C26243  10.106   9.852   3.570  0.3671 -0.7765 -1.1381
  195MOL0     C26244  10.089   9.716   3.528  0.4858  0.1031  0.6086
  195MOL0     C26245  10.197   9.249   3.541 -0.6645  0.3939  0.2580
  195MOL0     C26246  10.260   9.141   3.600 -0.0914 -0.0856  0.0965
  195MOL0     C26247  10.306   9.023   3.542 -0.8112 -1.6537  0.8020
  195MOL0     C26248  10.292   9.015   3.405  0.1723  1.0844  0.1814
  195MOL0     O26249  10.338   8.899   3.349 -1.1301 -0.3111 -0.1890
  195MOL0     C26250  10.439   8.932   3.247  0.0727  0.2194 -1.2642
  195MOL0     C26251  10.549   8.824   3.249  0.1502  0.6957  0.7581
  195MOL0     C26252  10.641   8.834   3.370 -0.8956  1.1116 -0.3834
  195MOL0     C26253  10.779   8.769   3.338  0.0389  0.5254 -0.6827
  195MOL0     C26254  10.785   8.627   3.330  0.7686 -0.0625  0.5010
  195MOL0     C26255  10.803   8.502   3.316 -0.2044  0.1516 -0.8082
  195MOL0     C26256  10.223   9.120   3.337  0.7499  0.5852 -0.5799
  195MOL0     C26257  10.172   9.237   3.403 -0.8083 -0.0302 -0.2625
  195MOL0     H26258  10.368   9.582   3.671 -1.6524 -1.1374  1.2998
  195MOL0     H26259  10.389   9.811   3.757 -0.4335 -1.7826 -0.0895
  195MOL0     H26260  10.143   9.981   3.860 -3.7649  2.4844 -3.7353
  195MOL0     H26261  10.327  10.008   3.871  1.3849  1.6034 -1.2971
  195MOL0     H26262  10.105  10.220   3.825 -1.2039  1.2224  1.9556
  195MOL0     H26263  10.194  10.181   3.970  0.0327  0.0640  0.0950
  195MOL0     H26264  10.392  10.239   3.793  0.4180 -0.2133  0.4188
  195MOL0     H26265  10.266  10.333   3.716  0.8571  0.3986 -0.0543
  195MOL0     H26266  10.225  10.473   3.890 -0.6210 -0.3017 -1.4300
  195MOL0     H26267  10.319  10.371   4.007  0.0957  0.8656 -0.8301
  195MOL0     H26268  10.488  10.530   3.962  3.3864  0.4614 -1.2656
  195MOL0     H26269  10.521  10.383   3.872  1.3856 -0.4043  1.0349
  195MOL0     H26270  10.501  10.509   3.669 -1.3826  0.4572 -0.4522
  195MOL0     H26271  10.356  10.591   3.725  0.7798 -3.3502 -3.2141
  195MOL0     H26272  10.544  10.759   3.690  0.0011  2.3967  3.0880
  195MOL0     H26273  10.545  10.708   3.864  2.7954 -6.1005  2.5282
  195MOL0     H26274  10.767  10.717   3.756  2.2154 -0.2233 -0.0718
  195MOL0     H26275  10.709  10.612   3.631 -1.8163 -0.4040  0.7329
  195MOL0     H26276  10.810  10.565   3.999 -0.4912  0.7142  0.4742
  195MOL0     H26277  10.787  10.308   4.139 -1.3715  0.5121 -1.3129
  195MOL0     H26278  10.892  10.197   4.046 -0.0476  0.0734  0.1790
  195MOL0     H26279  11.038  10.298   4.214  0.9437  0.4627 -0.0482
  195MOL0     H26280  11.001  10.456   4.134 -1.8165  0.8137 -1.7111
  195MOL0     H26281  11.085  10.399   3.931  2.3710  2.5720  1.1498
  195MOL0     H26282  11.106  10.221   3.978 -0.5420  0.5803  0.2222
  195MOL0     H26283  11.318  10.284   4.005 -0.5110 -1.3011  3.1830
  195MOL0     H26284  11.274  10.363   4.155  3.5048  1.6985  0.0591
  195MOL0     H26285  11.515  10.361   4.100 -1.5322  1.1315  0.3414
  195MOL0     H26286  11.811  10.284   3.928  0.9326 -1.2229  0.4649
  195MOL0     H26287  11.815  10.368   4.085 -1.4874  4.0446 -0.3647
  195MOL0     H26288  11.686  10.243   4.045  3.8744 -1.4738  0.0099
  195MOL0     H26289  11.782  10.528   3.423 -0.9802  3.6538 -1.1772
  195MOL0     H26290  11.971  10.608   3.250  0.9003 -1.2660  0.0266
  195MOL0     H26291  12.293  10.878   3.401 -2.2604  0.3337  0.5949
  195MOL0     H26292  12.334  10.696   3.390 -3.3840 -0.8490  0.3985
  195MOL0     H26293  12.354  10.748   3.147  1.0333  1.5440 -0.9562
  195MOL0     H26294  12.384  10.920   3.191  0.8190 -0.8349 -2.8082
  195MOL0     H26295  12.559  10.675   3.250  3.7120  1.3849  1.7444
  195MOL0     H26296  12.571  10.809   3.346 -2.6458 -0.9594  1.0583
  195MOL0     H26297  12.597  10.814   3.036  0.2274  2.3241 -0.4997
  195MOL0     H26298  12.623  10.956   3.129 -0.3837 -0.5244 -1.7222
  195MOL0     H26299  12.779  10.688   3.146  2.6551 -0.6292  0.0827
  195MOL0     H26300  12.784  10.824   3.262 -0.7562 -0.5620  0.1609
  195MOL0     H26301  12.808  10.870   2.962  1.5352  0.0056 -0.6766
  195MOL0     H26302  12.881  10.966   3.088 -1.4549  0.6565  0.8575
  195MOL0     H26303  12.972  10.687   2.999 -2.6093  0.5572 -1.0113
  195MOL0     H26304  13.042  10.769   3.145 -0.3624  2.6659  0.8736
  195MOL0     H26305  13.147  10.932   3.021 -1.2364 -0.8247  2.8254
  195MOL0     H26306  13.040  10.928   2.891 -2.6530 -2.2351 -0.4498
  195MOL0     H26307  12.169  10.803   3.574  0.8015  0.4541  0.0230
  195MOL0     H26308  12.006  10.698   3.730  0.4847  1.3881 -0.4092
  195MOL0     H26309  11.577  10.653   3.714 -0.7333 -1.5939 -0.6275
  195MOL0     H26310  11.346  10.632   3.803  1.4434  0.6151 -0.3091
  195MOL0     H26311  10.046   9.939   3.544  2.4377  1.6599  1.5228
  195MOL0     H26312  10.006   9.685   3.466  0.0668  0.6471  0.8979
  195MOL0     H26313  10.291   9.158   3.702  2.6440 -1.3876 -0.4243
  195MOL0     H26314  10.373   8.960   3.600  0.0196  0.9131  2.8591
  195MOL0     H26315  10.390   8.930   3.149 -2.0654  1.0008 -0.2705
  195MOL0     H26316  10.470   9.035   3.270 -0.8755  0.1813  0.3606
  195MOL0     H26317  10.609   8.828   3.158 -2.4723 -0.6738 -1.1977
  195MOL0     H26318  10.497   8.728   3.259  0.0079  0.8594  1.6711
  195MOL0     H26319  10.606   8.783   3.459 -1.2242  1.4080 -0.3435
  195MOL0     H26320  10.659   8.938   3.399  1.6085  0.8640 -0.7719
  195MOL0     H26321  10.845   8.800   3.420  0.2077 -0.0293 -0.6065
  195MOL0     H26322  10.819   8.800   3.241  2.7200 -0.6882 -0.0592
  195MOL0     H26323  10.827   8.398   3.306  1.0575  0.4021 -0.5762
  195MOL0     H26324  10.216   9.093   3.232 -1.8822  0.2012 -0.3748
  195MOL0     H26325  10.119   9.312   3.346 -2.3544 -1.7349 -1.1974
  196MOL0     O26326   0.865   0.535   3.124 -1.0217  0.4543 -0.6576
  196MOL0     C26327   0.908   0.537   3.240 -0.2001  0.5054 -1.0999
  196MOL0     O26328   0.833   0.510   3.357  0.4062 -0.1693  0.2973
  196MOL0     C26329   0.703   0.467   3.343  0.0302 -1.1153 -0.4781
  196MOL0     C26330   0.664   0.355   3.273 -0.1059  0.3690 -0.1602
  196MOL0     C26331   0.522   0.329   3.267 -0.9268 -0.3913  0.0015
  196MOL0     C26332   0.425   0.414   3.320  0.6087  0.9604 -0.3059
  196MOL0     O26333   0.291   0.378   3.323 -0.8913  0.4539 -0.5553
  196MOL0     C26334   0.253   0.286   3.228  0.6662 -0.1579  0.8834
  196MOL0     C26335   0.101   0.274   3.244 -0.2739  0.8079  0.9026
  196MOL0     C26336   0.040   0.397   3.183 -0.0736 -0.5483  0.2678
  196MOL0     C26337  -0.066   0.464   3.274  0.1541  0.5448  0.3558
  196MOL0     C26338  -0.165   0.568   3.212  0.5895 -0.1577  1.2965
  196MOL0     C26339  -0.292   0.592   3.297 -0.0806 -0.6444 -1.0209
  196MOL0     C26340  -0.263   0.689   3.418 -0.6499 -0.0576 -0.6536
  196MOL0     C26341  -0.370   0.656   3.520  0.3244 -0.2571  0.2609
  196MOL0     N26342  -0.499   0.688   3.476 -0.5192 -0.6347  0.4184
  196MOL0     C26343  -0.603   0.603   3.494 -0.1900 -0.0492 -0.4574
  196MOL0     C26344  -0.703   0.669   3.429 -0.3365 -0.0981 -0.2363
  196MOL0     C26345  -0.832   0.604   3.412  0.5197  1.2505 -0.3223
  196MOL0     C26346  -0.951   0.657   3.497  0.2645  1.1757 -0.1563
  196MOL0     C26347  -1.072   0.549   3.485  0.1753  0.3004  0.3896
  196MOL0     C26348  -1.191   0.594   3.566 -0.1728  0.5081 -0.1700
  196MOL0     O26349  -1.313   0.527   3.552 -0.4326  0.6952  0.1057
  196MOL0     C26350  -1.437   0.568   3.597  0.8214  0.0092  0.6106
  196MOL0     C26351  -1.550   0.496   3.562 -0.3505 -0.7270  0.6809
  196MOL0     C26352  -1.679   0.541   3.596 -0.0052 -0.5266 -0.5274
  196MOL0     C26353  -1.794   0.456   3.563  0.0393  0.6616  0.6221
  196MOL0     C26354  -1.700   0.672   3.658 -0.4364  0.6807  0.1833
  196MOL0     C26355  -1.837   0.722   3.699 -0.4471 -0.5434 -0.7074
  196MOL0     O26356  -1.832   0.820   3.798  0.4229  0.1396 -0.7883
  196MOL0     C26357  -1.950   0.882   3.844  0.6377 -0.3480 -0.4276
  196MOL0     C26358  -1.949   1.016   3.865 -0.2968 -0.0877  0.2410
  196MOL0     C26359  -2.058   1.087   3.910  0.0813  0.0098 -0.0600
  196MOL0     C26360  -2.181   1.016   3.946  0.8377 -0.7571 -0.4978
  196MOL0     O26361  -2.298   1.077   3.993 -0.6289 -0.0608 -0.0645
  196MOL0     C26362  -2.322   1.203   3.921  0.3311 -0.9515 -0.3022
  196MOL0     C26363  -2.439   1.271   3.995  0.2935 -0.1773 -0.5549
  196MOL0     C26364  -2.581   1.279   3.924  0.3803  0.4230 -0.6811
  196MOL0     C26365  -2.694   1.306   4.030 -1.0182  0.3359 -0.1273
  196MOL0     C26366  -2.682   1.444   4.105  0.0948 -0.3574  0.0382
  196MOL0     C26367  -2.818   1.458   4.190  1.1159  0.5827 -0.1982
  196MOL0     C26368  -2.829   1.575   4.296  0.1511 -0.6858 -0.0280
  196MOL0     C26369  -2.964   1.579   4.359  1.2476  0.8383  0.1481
  196MOL0    Cl26370  -2.996   1.432   4.464  0.2337 -0.3176  0.0019
  196MOL0     C26371  -2.183   0.875   3.927 -0.2810 -0.3288  0.1588
  196MOL0     C26372  -2.068   0.809   3.878  0.1875  0.2305 -0.1482
  196MOL0     O26373  -1.941   0.693   3.635  0.3896 -0.1435 -0.2766
  196MOL0     C26374  -1.585   0.742   3.688  0.6399 -1.1345  0.5095
  196MOL0     C26375  -1.455   0.685   3.675  0.8486 -0.1009 -0.6460
  196MOL0     N26376  -0.654   0.785   3.374  0.3887  0.1733  0.5237
  196MOL0     N26377  -0.534   0.792   3.404 -0.2524  0.3547 -0.1753
  196MOL0     C26378   0.460   0.519   3.397  0.2545  0.0094 -0.9529
  196MOL0     C26379   0.593   0.549   3.410  0.0353 -0.1770  0.1396
  196MOL0     C26380   1.055   0.545   3.261 -0.1084  0.0853 -0.0748
  196MOL0     C26381   1.114   0.530   3.387 -0.2066 -0.1160  0.5082
  196MOL0     C26382   1.256   0.547   3.406 -1.2379  0.3049  0.0090
  196MOL0     C26383   1.338   0.548   3.290 -0.1055 -0.6698 -0.4998
  196MOL0     O26384   1.474   0.535   3.292  0.1377  0.2330  0.4016
  196MOL0     C26385   1.545   0.507   3.413 -0.0463 -0.0485 -0.5550
  196MOL0     C26386   1.597   0.636   3.481 -0.1024 -0.0727  0.0818
  196MOL0     C26387   1.741   0.666   3.424  1.1335 -0.2337 -0.9098
  196MOL0     C26388   1.823   0.770   3.499  0.7333 -0.3241 -0.6809
  196MOL0     C26389   1.937   0.814   3.427  1.0118 -1.1327 -0.7086
  196MOL0     C26390   2.033   0.846   3.361  0.0317 -1.1432  0.2209
  196MOL0     C26391   1.279   0.549   3.161  0.4443 -0.0807  0.3987
  196MOL0     C26392   1.135   0.561   3.141  0.0283 -0.2980  0.5935
  196MOL0     H26393   0.743   0.301   3.222  0.7851  3.0486 -1.8563
  196MOL0     H26394   0.489   0.232   3.232 -3.0383 -0.7774  2.7281
  196MOL0     H26395   0.278   0.333   3.132  0.3157  1.9637  1.7749
  196MOL0     H26396   0.295   0.185   3.235 -2.2677 -1.5794 -0.3082
  196MOL0     H26397   0.068   0.189   3.183 -3.5261 -0.2549  3.7980
  196MOL0     H26398   0.082   0.243   3.347  3.3933 -2.2288  0.9324
  196MOL0     H26399   0.117   0.471   3.162  1.1755 -1.5901  1.0041
  196MOL0     H26400  -0.014   0.373   3.091 -1.1960  3.1207 -0.2026
  196MOL0     H26401  -0.119   0.378   3.316  1.6070 -0.6392 -0.1149
  196MOL0     H26402  -0.020   0.503   3.365  0.5875 -0.2759  0.4962
  196MOL0     H26403  -0.114   0.661   3.185  0.7698 -1.0700 -1.9690
  196MOL0     H26404  -0.194   0.527   3.115  1.4134 -1.4363  1.5620
  196MOL0     H26405  -0.347   0.654   3.226  1.0966  3.4692  1.2941
  196MOL0     H26406  -0.342   0.500   3.327 -0.0639 -0.3543 -0.0532
  196MOL0     H26407  -0.168   0.667   3.466 -0.3019  0.0608 -1.2717
  196MOL0     H26408  -0.259   0.791   3.377 -1.2115 -0.5696 -2.0415
  196MOL0     H26409  -0.353   0.710   3.614  0.2368 -0.0274  0.1447
  196MOL0     H26410  -0.381   0.550   3.543 -0.3758 -0.5285 -1.2088
  196MOL0     H26411  -0.607   0.508   3.546 -4.4692 -0.4839 -1.1854
  196MOL0     H26412  -0.864   0.617   3.308  1.3775  1.8283 -0.5192
  196MOL0     H26413  -0.821   0.496   3.430 -1.1731  1.3144  1.4842
  196MOL0     H26414  -0.987   0.752   3.457 -0.7423  0.8656 -0.0024
  196MOL0     H26415  -0.920   0.676   3.600  3.0302 -2.4901 -0.1043
  196MOL0     H26416  -1.032   0.453   3.517 -0.2124 -0.0893 -0.2660
  196MOL0     H26417  -1.109   0.524   3.385 -0.5361 -0.5268  0.8511
  196MOL0     H26418  -1.209   0.697   3.533 -1.1829  1.1904  2.3101
  196MOL0     H26419  -1.161   0.602   3.670 -0.9219  1.4857 -0.0189
  196MOL0     H26420  -1.521   0.403   3.514 -1.2277 -0.5501 -0.2253
  196MOL0     H26421  -1.864   0.506   3.494 -2.1805 -1.6343  1.0773
  196MOL0     H26422  -1.746   0.378   3.503  0.1450  0.8300  0.4864
  196MOL0     H26423  -1.847   0.417   3.651 -0.2196  0.4662  0.3822
  196MOL0     H26424  -1.860   1.068   3.831  0.0013 -2.9262 -4.0724
  196MOL0     H26425  -2.046   1.195   3.915  0.3819 -0.0079 -0.3516
  196MOL0     H26426  -2.236   1.270   3.924 -0.4280  0.0693 -0.6807
  196MOL0     H26427  -2.363   1.189   3.820 -2.0693  3.9543 -0.3103
  196MOL0     H26428  -2.460   1.225   4.092 -0.8909 -1.8572 -1.5588
  196MOL0     H26429  -2.399   1.372   4.012 -0.8690  0.4524 -1.4217
  196MOL0     H26430  -2.613   1.178   3.897 -3.8052  1.2377  0.4632
  196MOL0     H26431  -2.594   1.348   3.841 -2.4293 -0.3549 -1.0126
  196MOL0     H26432  -2.790   1.302   3.978  0.3738 -4.4711 -2.9226
  196MOL0     H26433  -2.706   1.226   4.104  0.6205 -1.3010 -1.5480
  196MOL0     H26434  -2.681   1.526   4.032 -2.7319  0.6621  0.9858
  196MOL0     H26435  -2.595   1.457   4.170 -1.0930 -0.6416  1.7610
  196MOL0     H26436  -2.898   1.467   4.117 -0.4475 -1.1972  1.1852
  196MOL0     H26437  -2.841   1.362   4.238 -1.7972  0.3522 -1.8354
  196MOL0     H26438  -2.816   1.675   4.254 -2.8647  1.6842  4.0041
  196MOL0     H26439  -2.744   1.571   4.365  2.0894  0.6297 -2.1951
  196MOL0     H26440  -3.032   1.583   4.274 -0.3932 -0.1594  1.3575
  196MOL0     H26441  -2.983   1.671   4.416  0.8339 -1.5770  4.3596
  196MOL0     H26442  -2.262   0.813   3.968  0.8569 -1.0311  1.3938
  196MOL0     H26443  -2.060   0.701   3.864  0.0380  0.4547 -2.3666
  196MOL0     H26444  -1.606   0.838   3.735 -2.1196 -1.2864 -0.2769
  196MOL0     H26445  -1.373   0.741   3.719  0.3718 -0.6901  1.0861
  196MOL0     H26446   0.386   0.578   3.450  0.8157  0.4331 -0.6194
  196MOL0     H26447   0.633   0.634   3.465  3.5987 -1.7233  0.2251
  196MOL0     H26448   1.045   0.524   3.471 -0.3274 -0.6438  0.3725
  196MOL0     H26449   1.306   0.574   3.498  1.1123  1.8191 -1.5899
  196MOL0     H26450   1.478   0.468   3.491 -0.2145  0.8012 -0.2659
  196MOL0     H26451   1.618   0.427   3.397 -0.1478 -0.5040  1.0494
  196MOL0     H26452   1.615   0.609   3.586  0.1809 -0.2417 -0.0109
  196MOL0     H26453   1.529   0.721   3.470  0.5756  0.4266 -0.3028
  196MOL0     H26454   1.725   0.690   3.318 -0.3059 -2.5047 -1.2847
  196MOL0     H26455   1.803   0.576   3.430  1.7996  0.3065  0.8437
  196MOL0     H26456   1.852   0.720   3.592 -3.0752 -0.9205  0.3508
  196MOL0     H26457   1.771   0.858   3.537  3.6145  1.3237 -0.2472
  196MOL0     H26458   2.104   0.886   3.292  0.9596 -2.4670  0.3862
  196MOL0     H26459   1.351   0.558   3.080 -0.3941  3.4416 -0.1269
  196MOL0     H26460   1.106   0.561   3.037  1.5209  1.7577  0.1051
  197MOL0     O26461   7.325   2.207   5.510 -0.1767 -0.7956 -0.2457
  197MOL0     C26462   7.393   2.133   5.580  0.4940 -0.9395 -0.2254
  197MOL0     O26463   7.376   2.003   5.607 -0.1632  0.4901 -0.1214
  197MOL0     C26464   7.278   1.924   5.554 -0.5907 -0.2119  0.4041
  197MOL0     C26465   7.224   1.938   5.427 -0.5876  0.3050 -0.4532
  197MOL0     C26466   7.122   1.859   5.383 -0.5787  1.4414 -0.2492
  197MOL0     C26467   7.077   1.751   5.456 -0.5208  0.5410  0.9405
  197MOL0     O26468   6.981   1.654   5.412 -0.4288 -0.0012 -0.1041
  197MOL0     C26469   6.989   1.615   5.273  0.4511 -0.2919  0.5694
  197MOL0     C26470   6.853   1.647   5.188 -0.1480 -0.5835  0.2351
  197MOL0     C26471   6.752   1.538   5.205  0.9937  0.8980  1.7733
  197MOL0     C26472   6.630   1.599   5.130  0.6061  0.1830  0.6097
  197MOL0     C26473   6.509   1.497   5.113  0.7852 -0.9465  0.0588
  197MOL0     C26474   6.426   1.483   5.242 -0.2042 -0.4010 -0.7609
  197MOL0     C26475   6.304   1.391   5.236  0.2356  0.0855 -1.0851
  197MOL0     C26476   6.205   1.428   5.124  1.2442  0.1801 -0.8041
  197MOL0     N26477   6.101   1.320   5.111 -0.1196  0.7423 -0.2958
  197MOL0     C26478   5.966   1.325   5.117 -0.2391 -0.9581 -0.0191
  197MOL0     C26479   5.917   1.198   5.107  0.3703 -0.0849  0.0432
  197MOL0     C26480   5.780   1.153   5.081  0.2050 -0.2765 -0.1943
  197MOL0     C26481   5.733   1.035   5.161 -0.3518 -0.3319 -0.5919
  197MOL0     C26482   5.724   1.053   5.315 -0.0018 -0.2131 -1.5479
  197MOL0     C26483   5.644   0.943   5.376 -0.2423 -0.4888 -0.2470
  197MOL0     O26484   5.505   0.977   5.364 -0.2661 -0.6599 -0.2472
  197MOL0     C26485   5.408   0.881   5.369  0.1145 -0.1541  0.9159
  197MOL0     C26486   5.290   0.928   5.430 -0.4080 -0.3234 -0.4208
  197MOL0     C26487   5.178   0.851   5.443  0.5426  0.2708 -0.3291
  197MOL0     C26488   5.062   0.920   5.506 -0.8869  0.4106 -0.1088
  197MOL0     C26489   5.189   0.714   5.390 -0.3650  0.4810  0.5036
  197MOL0     C26490   5.073   0.620   5.382 -0.0309 -0.6995 -0.6362
  197MOL0     O26491   4.982   0.637   5.480 -0.6467  0.3326 -0.5632
  197MOL0     C26492   4.860   0.565   5.482 -0.0461 -0.3905 -0.4531
  197MOL0     C26493   4.792   0.555   5.602  0.8770  0.2473  0.1290
  197MOL0     C26494   4.662   0.503   5.611  1.0038  0.6412 -0.3547
  197MOL0     C26495   4.600   0.450   5.501  0.6096  1.1562 -0.0707
  197MOL0     O26496   4.471   0.399   5.524 -0.7710  0.4983  0.4987
  197MOL0     C26497   4.388   0.390   5.412 -0.1275  0.2631 -0.6684
  197MOL0     C26498   4.356   0.518   5.338  0.7479 -0.0018 -0.4364
  197MOL0     C26499   4.232   0.588   5.405 -0.1164  0.0009  0.0385
  197MOL0     C26500   4.099   0.527   5.353 -0.2485  0.1971  0.0701
  197MOL0     C26501   3.991   0.613   5.424  0.3563  0.7543  0.5521
  197MOL0     C26502   3.845   0.595   5.364 -0.5172  0.0873  0.2916
  197MOL0     C26503   3.785   0.475   5.430  0.8721 -0.6506  0.3228
  197MOL0     C26504   3.638   0.460   5.403  0.5952  0.4667  0.3692
  197MOL0    Cl26505   3.538   0.580   5.492 -0.2468  0.2939  0.1346
  197MOL0     C26506   4.666   0.457   5.379  1.0253  0.2942 -0.4305
  197MOL0     C26507   4.786   0.519   5.368  0.1725  0.2418 -0.0665
  197MOL0     O26508   5.079   0.527   5.309 -0.3884  0.5847 -0.2570
  197MOL0     C26509   5.311   0.670   5.332 -0.7997  0.0120  0.4928
  197MOL0     C26510   5.422   0.755   5.322  1.0833  0.2542  0.0603
  197MOL0     N26511   6.026   1.112   5.103  0.8109 -0.8762 -0.1107
  197MOL0     N26512   6.131   1.183   5.111 -0.1072  0.2033  0.1037
  197MOL0     C26513   7.140   1.732   5.577 -0.0574  0.6837  0.3602
  197MOL0     C26514   7.234   1.816   5.628  0.2590  0.1574  0.0071
  197MOL0     C26515   7.508   2.199   5.652 -0.3563  0.3933  0.0317
  197MOL0     C26516   7.587   2.290   5.588 -0.5634 -0.5990  0.2204
  197MOL0     C26517   7.691   2.357   5.654  0.0916  0.0159  0.2838
  197MOL0     C26518   7.721   2.324   5.791 -0.0023  0.4327  0.4957
  197MOL0     O26519   7.828   2.371   5.862  0.7847 -0.3270  0.8701
  197MOL0     C26520   7.942   2.441   5.803 -0.0056 -0.2777 -0.4359
  197MOL0     C26521   8.046   2.465   5.909 -0.1592  0.2209 -0.0057
  197MOL0     C26522   8.158   2.570   5.873 -0.6294  1.2673  0.1091
  197MOL0     C26523   8.261   2.569   5.985 -0.8223  0.1359 -0.1796
  197MOL0     C26524   8.364   2.671   5.968 -1.4847  0.8038 -1.0331
  197MOL0     C26525   8.444   2.756   5.935 -0.3666  0.6035 -0.0163
  197MOL0     C26526   7.639   2.223   5.852 -0.4062  0.0559 -0.3845
  197MOL0     C26527   7.535   2.160   5.786 -0.1995 -1.1644 -0.8701
  197MOL0     H26528   7.253   2.022   5.365  0.9493 -0.1603 -0.4079
  197MOL0     H26529   7.081   1.896   5.289  1.1211  0.7711 -1.3048
  197MOL0     H26530   7.079   1.660   5.232  0.9834 -0.4723  1.5259
  197MOL0     H26531   7.011   1.508   5.266  1.0955 -0.0645 -1.6465
  197MOL0     H26532   6.827   1.745   5.229 -0.5492  0.4663 -2.3307
  197MOL0     H26533   6.879   1.652   5.081 -0.1093 -2.3954  0.1328
  197MOL0     H26534   6.783   1.446   5.156  2.0237  0.6091  2.9249
  197MOL0     H26535   6.732   1.520   5.311  0.9252 -0.1918  1.5873
  197MOL0     H26536   6.598   1.689   5.183 -0.5388 -0.2060  0.6033
  197MOL0     H26537   6.659   1.631   5.029 -1.9773  2.2725  0.4173
  197MOL0     H26538   6.428   1.531   5.046  0.2489  0.1359  1.2165
  197MOL0     H26539   6.539   1.398   5.079  3.9178 -0.2271  0.4042
  197MOL0     H26540   6.494   1.440   5.315 -0.1851 -0.1675 -0.6385
  197MOL0     H26541   6.402   1.583   5.280  1.1787 -0.4730  0.4011
  197MOL0     H26542   6.340   1.290   5.216  0.2974 -0.8838  3.0520
  197MOL0     H26543   6.258   1.385   5.335 -0.6318  0.1401 -1.4791
  197MOL0     H26544   6.255   1.441   5.027  0.3121 -1.1910 -1.4929
  197MOL0     H26545   6.155   1.519   5.160 -0.7682 -1.0204 -0.3973
  197MOL0     H26546   5.913   1.419   5.117 -1.1213 -1.4187  1.4211
  197MOL0     H26547   5.728   1.243   5.114 -0.2545 -0.8086  0.5703
  197MOL0     H26548   5.756   1.135   4.976 -4.0818  0.5180  0.4560
  197MOL0     H26549   5.806   0.957   5.138  0.2626  0.1203 -0.1999
  197MOL0     H26550   5.634   1.007   5.122 -0.4161 -0.5468 -0.2718
  197MOL0     H26551   5.685   1.151   5.344  0.1176 -0.5991  0.0408
  197MOL0     H26552   5.821   1.043   5.365 -0.7329  0.6767  0.1376
  197MOL0     H26553   5.654   0.935   5.484  0.0570  2.0073 -0.0206
  197MOL0     H26554   5.677   0.848   5.334 -2.4898 -2.5857  2.4115
  197MOL0     H26555   5.296   1.029   5.471 -2.1446 -0.9373  1.5176
  197MOL0     H26556   5.082   0.955   5.608  1.4493  2.1831 -1.0667
  197MOL0     H26557   5.048   1.017   5.457 -0.8442  0.3323 -0.2765
  197MOL0     H26558   4.967   0.866   5.500  0.1346 -1.2994 -2.2118
  197MOL0     H26559   4.842   0.593   5.691  0.3215 -1.6089  1.3114
  197MOL0     H26560   4.617   0.499   5.710 -0.0072  0.2112 -0.8167
  197MOL0     H26561   4.434   0.318   5.343 -0.0833  2.1970 -2.8038
  197MOL0     H26562   4.288   0.352   5.431 -1.0852  2.5041 -0.9704
  197MOL0     H26563   4.445   0.582   5.343  1.5669 -1.2345  1.8193
  197MOL0     H26564   4.337   0.492   5.234 -0.6109  0.0617 -0.2268
  197MOL0     H26565   4.250   0.690   5.372  0.1943 -0.4228 -1.1566
  197MOL0     H26566   4.224   0.584   5.514  0.5159 -4.5970  0.1208
  197MOL0     H26567   4.079   0.549   5.248  3.3409  2.7398 -0.2862
  197MOL0     H26568   4.092   0.421   5.376  0.8890 -0.4217 -2.2126
  197MOL0     H26569   4.019   0.719   5.423  1.1990  0.6232  2.9402
  197MOL0     H26570   3.993   0.597   5.532  0.0506 -0.8192  0.3443
  197MOL0     H26571   3.784   0.682   5.389  2.1831  2.3879 -0.5651
  197MOL0     H26572   3.852   0.582   5.255 -1.4853 -0.5449  0.2932
  197MOL0     H26573   3.801   0.481   5.538 -3.4186  1.1550  1.0767
  197MOL0     H26574   3.829   0.380   5.397 -0.7170 -1.1955 -0.3527
  197MOL0     H26575   3.598   0.363   5.434 -0.9549  0.9654  0.0265
  197MOL0     H26576   3.633   0.479   5.295 -0.4829 -0.3213  0.2557
  197MOL0     H26577   4.618   0.415   5.292 -0.1422  1.1371 -0.2264
  197MOL0     H26578   4.829   0.521   5.268 -0.3705 -0.8937 -0.3469
  197MOL0     H26579   5.322   0.568   5.295 -2.2826 -0.2586  0.7310
  197MOL0     H26580   5.501   0.728   5.254 -0.1656  2.2171 -2.3048
  197MOL0     H26581   7.117   1.640   5.630 -0.9705  0.3031 -0.6559
  197MOL0     H26582   7.273   1.796   5.727 -4.1773  0.7306  2.1298
  197MOL0     H26583   7.558   2.333   5.493  0.8941 -2.1820 -1.0130
  197MOL0     H26584   7.750   2.421   5.590 -1.4331  0.1545 -1.0358
  197MOL0     H26585   7.979   2.388   5.715 -2.6581 -2.3559 -0.4372
  197MOL0     H26586   7.912   2.541   5.770 -0.0283  0.2850  1.2050
  197MOL0     H26587   8.091   2.367   5.930 -1.3109  0.2460  2.9851
  197MOL0     H26588   7.998   2.484   6.005  2.8125 -3.6304  2.5604
  197MOL0     H26589   8.120   2.668   5.842  0.0741  0.6898 -2.8153
  197MOL0     H26590   8.223   2.534   5.792 -0.8831  1.1077 -0.0233
  197MOL0     H26591   8.316   2.475   5.978  0.3859  0.8118 -0.0351
  197MOL0     H26592   8.206   2.568   6.080  1.4847 -1.7017  1.2477
  197MOL0     H26593   8.520   2.830   5.919  0.9875 -1.1966 -2.6887
  197MOL0     H26594   7.657   2.222   5.959 -2.5194  2.1212  0.0854
  197MOL0     H26595   7.472   2.086   5.835 -1.5589  2.5498  3.8350
  198MOL0     O26596   1.986   0.673   6.269 -0.3804 -0.7917  0.1711
  198MOL0     C26597   1.951   0.760   6.194 -0.4595 -0.5635  0.3440
  198MOL0     O26598   1.815   0.772   6.140 -0.2803  0.8812 -0.2978
  198MOL0     C26599   1.721   0.687   6.202  0.3200 -0.3665 -0.0075
  198MOL0     C26600   1.678   0.571   6.133 -0.2576 -0.7847  0.0228
  198MOL0     C26601   1.603   0.477   6.208  0.7900 -0.2246  0.8599
  198MOL0     C26602   1.554   0.502   6.334 -0.8604 -0.6058 -0.4061
  198MOL0     O26603   1.473   0.407   6.383 -0.4549 -0.6473 -0.2383
  198MOL0     C26604   1.359   0.456   6.456 -0.1505 -0.5461 -0.7067
  198MOL0     C26605   1.283   0.343   6.524 -0.2760  0.5152 -0.1610
  198MOL0     C26606   1.220   0.251   6.405  0.3019  0.4785  0.2184
  198MOL0     C26607   1.131   0.151   6.463  0.5397  0.2008 -0.4231
  198MOL0     C26608   1.037   0.079   6.365  0.1678  0.2178 -0.3559
  198MOL0     C26609   0.939   0.151   6.272  0.0952  0.5857  0.3381
  198MOL0     C26610   0.861   0.062   6.170  0.3704 -0.4329 -0.4588
  198MOL0     C26611   0.753  -0.021   6.232 -0.2504 -0.3341  0.8887
  198MOL0     N26612   0.625   0.039   6.219  1.3954 -0.4239 -1.2913
  198MOL0     C26613   0.568   0.133   6.301 -0.4137  0.0538  0.3805
  198MOL0     C26614   0.446   0.166   6.256 -0.7300  0.4409  0.0475
  198MOL0     C26615   0.348   0.272   6.303  0.5436 -0.4669  0.9286
  198MOL0     C26616   0.386   0.339   6.435 -0.2736  0.2870  0.3013
  198MOL0     C26617   0.270   0.447   6.469 -0.6824 -0.0711 -0.0717
  198MOL0     C26618   0.298   0.493   6.614  0.2258  0.4727  0.4210
  198MOL0     O26619   0.244   0.390   6.702  0.1090 -0.1888  0.2790
  198MOL0     C26620   0.115   0.407   6.748  0.2900 -0.1818  0.2566
  198MOL0     C26621   0.031   0.520   6.719  0.7249  0.9513 -0.1602
  198MOL0     C26622  -0.108   0.506   6.744 -0.9552 -0.8652  0.4269
  198MOL0     C26623  -0.205   0.611   6.696  0.0795 -0.4022 -0.3447
  198MOL0     C26624  -0.158   0.393   6.808  0.7964  0.0563  0.6113
  198MOL0     C26625  -0.298   0.382   6.841 -0.1641  0.5111 -0.3071
  198MOL0     O26626  -0.355   0.466   6.936  0.2425  0.2444 -1.1256
  198MOL0     C26627  -0.485   0.438   6.965  0.0103 -0.0167  0.6867
  198MOL0     C26628  -0.528   0.428   7.097 -0.2738 -0.9356 -0.1530
  198MOL0     C26629  -0.662   0.423   7.130 -0.2250  0.0586  0.7562
  198MOL0     C26630  -0.761   0.404   7.036 -0.0082  1.0586 -0.6187
  198MOL0     O26631  -0.886   0.367   7.086  0.9899  0.5672 -0.0741
  198MOL0     C26632  -1.001   0.426   7.012 -0.4567 -0.5198 -0.1560
  198MOL0     C26633  -1.121   0.395   7.098 -0.2608 -0.4312  0.6904
  198MOL0     C26634  -1.129   0.477   7.230 -0.7515  0.5076  0.4950
  198MOL0     C26635  -1.257   0.458   7.296 -0.6741  0.2725 -0.2523
  198MOL0     C26636  -1.251   0.530   7.428  0.2287  0.0031  0.5963
  198MOL0     C26637  -1.369   0.484   7.519 -0.0881 -0.9810 -1.0886
  198MOL0     C26638  -1.500   0.559   7.495 -0.3197 -0.3675 -0.0530
  198MOL0     C26639  -1.619   0.472   7.543  0.6909  0.1775 -0.2459
  198MOL0    Cl26640  -1.580   0.415   7.705  0.1438  0.0576 -0.0830
  198MOL0     C26641  -0.733   0.418   6.905  0.1103 -0.1812  0.0386
  198MOL0     C26642  -0.597   0.453   6.875 -0.1784 -0.3655  0.5518
  198MOL0     O26643  -0.358   0.290   6.796 -0.9109  0.1070 -0.6979
  198MOL0     C26644  -0.070   0.285   6.842 -0.0273  0.2254  0.6201
  198MOL0     C26645   0.064   0.299   6.816 -0.3162  0.5894  0.6102
  198MOL0     N26646   0.429   0.083   6.141 -0.1623  0.2644 -0.1303
  198MOL0     N26647   0.536   0.004   6.125  0.3021  0.0605  0.2942
  198MOL0     C26648   1.592   0.621   6.398  0.1962  0.5442 -0.3444
  198MOL0     C26649   1.671   0.717   6.335  0.4970 -0.0636  0.3219
  198MOL0     C26650   2.048   0.863   6.153 -0.5315  0.7333 -0.5805
  198MOL0     C26651   2.008   0.998   6.135  0.4950 -0.2142 -0.4203
  198MOL0     C26652   2.098   1.098   6.106  0.6537 -0.4776  0.0964
  198MOL0     C26653   2.230   1.069   6.102 -0.1984  0.8928  0.0327
  198MOL0     O26654   2.324   1.171   6.091 -0.1584 -0.3036  0.1566
  198MOL0     C26655   2.379   1.215   6.218  0.3914  0.7077  0.7648
  198MOL0     C26656   2.518   1.256   6.183  0.4215 -0.5170  0.4391
  198MOL0     C26657   2.584   1.345   6.290  0.2018  0.2286  0.1374
  198MOL0     C26658   2.614   1.288   6.429  0.4945  0.1273 -0.8299
  198MOL0     C26659   2.745   1.219   6.429 -0.0214 -1.3987 -0.5532
  198MOL0     C26660   2.848   1.157   6.434 -0.1657 -0.4862  0.4875
  198MOL0     C26661   2.278   0.934   6.112  0.2560  0.1217  0.4787
  198MOL0     C26662   2.190   0.827   6.138  1.4290 -0.0253  0.0126
  198MOL0     H26663   1.705   0.556   6.029 -1.5096  0.6250 -0.5440
  198MOL0     H26664   1.578   0.388   6.152  0.7086  0.5440 -0.3761
  198MOL0     H26665   1.397   0.527   6.530  3.1510 -1.8425 -1.0335
  198MOL0     H26666   1.288   0.509   6.391 -1.0271  0.3352  0.8908
  198MOL0     H26667   1.359   0.287   6.579 -1.2299 -2.5813 -1.7440
  198MOL0     H26668   1.214   0.385   6.598 -0.7767  0.7320 -0.7430
  198MOL0     H26669   1.175   0.312   6.326  1.7293 -1.2220 -2.0400
  198MOL0     H26670   1.306   0.203   6.356  0.0158  0.1219  0.0558
  198MOL0     H26671   1.192   0.081   6.522  0.5448  2.0114  1.8968
  198MOL0     H26672   1.078   0.203   6.544  1.9960 -0.7196  1.2127
  198MOL0     H26673   1.100   0.011   6.306  0.5399 -1.6467  2.0077
  198MOL0     H26674   0.973   0.013   6.425  4.7496 -3.0923  1.5022
  198MOL0     H26675   0.864   0.191   6.341  0.0460 -0.2099  0.7591
  198MOL0     H26676   0.991   0.226   6.212  0.0046  2.6977  2.7293
  198MOL0     H26677   0.810   0.122   6.094 -1.1150  0.2379  1.0254
  198MOL0     H26678   0.940  -0.009   6.141  0.8355 -0.1170  0.0172
  198MOL0     H26679   0.774  -0.035   6.338 -1.0517 -0.9419  0.9778
  198MOL0     H26680   0.755  -0.119   6.183  1.9657 -0.7015  1.6004
  198MOL0     H26681   0.617   0.190   6.379  0.9697  1.5467 -1.4699
  198MOL0     H26682   0.331   0.330   6.212 -0.5847 -1.6437  0.3679
  198MOL0     H26683   0.253   0.219   6.313  0.0627 -1.1565 -4.3323
  198MOL0     H26684   0.487   0.381   6.431  0.3371 -1.1953 -1.7339
  198MOL0     H26685   0.376   0.259   6.509 -1.3115 -1.5257 -1.6511
  198MOL0     H26686   0.167   0.423   6.442 -0.2600 -1.3547 -0.6158
  198MOL0     H26687   0.301   0.528   6.402  0.4999 -1.6151 -1.4644
  198MOL0     H26688   0.248   0.590   6.621 -2.0382 -0.7136  2.2720
  198MOL0     H26689   0.404   0.505   6.636 -0.1076 -1.1526  3.4869
  198MOL0     H26690   0.059   0.612   6.668  0.4612  0.0937 -1.9254
  198MOL0     H26691  -0.146   0.677   6.632  1.7525 -0.8170  0.7355
  198MOL0     H26692  -0.283   0.557   6.640 -0.6147 -1.7516  1.8005
  198MOL0     H26693  -0.250   0.664   6.781  1.3873  1.7506 -0.9092
  198MOL0     H26694  -0.445   0.431   7.167 -1.3051 -0.3106  1.0654
  198MOL0     H26695  -0.679   0.411   7.237 -0.8741  4.0982  1.2836
  198MOL0     H26696  -0.986   0.535   7.016 -2.2619 -0.2718  1.9051
  198MOL0     H26697  -1.010   0.386   6.911  1.2771 -0.9833 -0.1405
  198MOL0     H26698  -1.216   0.399   7.043 -1.2081 -0.5880  2.2489
  198MOL0     H26699  -1.096   0.298   7.143  0.3447  0.8055  3.2006
  198MOL0     H26700  -1.118   0.585   7.216 -3.2428  0.7187 -0.2173
  198MOL0     H26701  -1.054   0.446   7.304 -0.2260 -0.4250 -0.4231
  198MOL0     H26702  -1.342   0.494   7.237 -1.2464  0.4153  0.6322
  198MOL0     H26703  -1.278   0.351   7.306  0.8406  0.0072  0.3536
  198MOL0     H26704  -1.247   0.639   7.418 -0.3243  0.1699  1.9729
  198MOL0     H26705  -1.160   0.496   7.478  1.6832  2.7485  0.0112
  198MOL0     H26706  -1.386   0.377   7.510 -1.5740 -0.9940  0.9494
  198MOL0     H26707  -1.333   0.509   7.620 -2.1944  2.2992 -1.0081
  198MOL0     H26708  -1.517   0.579   7.389 -0.3410  0.0990  0.0350
  198MOL0     H26709  -1.489   0.659   7.538  0.4881 -0.1225 -0.8015
  198MOL0     H26710  -1.644   0.391   7.474 -0.9668  1.6621 -1.5002
  198MOL0     H26711  -1.702   0.543   7.546 -0.6034 -1.2978  0.6506
  198MOL0     H26712  -0.814   0.405   6.834 -0.4791  0.5538  0.5546
  198MOL0     H26713  -0.584   0.463   6.768  0.2486 -0.0679  0.6282
  198MOL0     H26714  -0.115   0.195   6.883  2.5142 -2.6306 -2.3545
  198MOL0     H26715   0.135   0.217   6.820  0.2535  0.7654 -2.7147
  198MOL0     H26716   1.570   0.658   6.498  1.6760  0.1136  0.1784
  198MOL0     H26717   1.693   0.812   6.383 -2.2432  1.2720 -0.8382
  198MOL0     H26718   1.903   1.027   6.131 -0.2519 -1.9803  2.9445
  198MOL0     H26719   2.055   1.198   6.103 -2.4257 -1.7118 -0.1558
  198MOL0     H26720   2.321   1.292   6.270 -1.0154  0.7717 -0.7752
  198MOL0     H26721   2.383   1.130   6.286  4.4518  0.0279 -0.0983
  198MOL0     H26722   2.533   1.303   6.086 -0.6176  0.9395  0.9460
  198MOL0     H26723   2.576   1.163   6.179  0.8411 -0.1960 -1.8809
  198MOL0     H26724   2.521   1.433   6.308  1.1389  0.4160  3.2031
  198MOL0     H26725   2.676   1.380   6.243  0.3537 -0.6365 -0.2294
  198MOL0     H26726   2.537   1.222   6.472  1.3125  0.6154  1.5432
  198MOL0     H26727   2.624   1.368   6.503 -0.3641 -0.9300  0.4797
  198MOL0     H26728   2.943   1.107   6.437  0.7232  0.9250  5.2015
  198MOL0     H26729   2.384   0.921   6.096 -0.1330 -2.1295 -0.8287
  198MOL0     H26730   2.213   0.723   6.155  1.1664 -0.6493 -3.0080
  199MOL0     O26731   9.844   9.893  10.683  0.0092 -0.1039  0.2374
  199MOL0     C26732   9.937   9.849  10.617 -0.3458  0.2778  0.5796
  199MOL0     O26733   9.945   9.875  10.490  0.4762  0.2959  0.2312
  199MOL0     C26734   9.842   9.917  10.411  0.6929  0.0649  1.0610
  199MOL0     C26735   9.864  10.032  10.323 -0.2216  0.1464  0.4803
  199MOL0     C26736   9.770  10.078  10.235  1.3800  0.5003 -0.7674
  199MOL0     C26737   9.645  10.021  10.218 -0.2344 -0.4198 -0.4981
  199MOL0     O26738   9.572  10.084  10.122 -0.2833 -0.3958 -0.4703
  199MOL0     C26739   9.444  10.032  10.089 -0.7463 -0.0665  0.2629
  199MOL0     C26740   9.379  10.124   9.992 -0.0236  0.2692 -0.3022
  199MOL0     C26741   9.446  10.092   9.858 -0.0440  0.0526  0.5745
  199MOL0     C26742   9.354  10.164   9.752 -1.0519  0.3583  0.1156
  199MOL0     C26743   9.411  10.158   9.605 -0.9210 -0.7435 -0.3741
  199MOL0     C26744   9.529  10.241   9.587  0.0406 -1.1699  0.9354
  199MOL0     C26745   9.569  10.266   9.441  1.2133  0.0557 -0.7431
  199MOL0     C26746   9.623  10.134   9.382  0.2278 -0.3773  0.0984
  199MOL0     N26747   9.623  10.144   9.237 -0.1907  0.2833  0.0067
  199MOL0     C26748   9.549  10.064   9.149  1.1257 -0.3728 -0.3245
  199MOL0     C26749   9.591  10.097   9.027 -0.3679 -0.4706 -0.1933
  199MOL0     C26750   9.558  10.021   8.900  1.3035  0.2292 -0.1457
  199MOL0     C26751   9.671  10.017   8.797  0.1333 -0.3774 -0.0525
  199MOL0     C26752   9.696  10.152   8.728 -0.1528  0.6434 -0.0334
  199MOL0     C26753   9.784  10.152   8.606  0.5379  0.6081 -0.5162
  199MOL0     O26754   9.813  10.291   8.572  0.4054  0.0196  0.5707
  199MOL0     C26755   9.904  10.305   8.479  0.5024 -0.1384  0.1713
  199MOL0     C26756   9.931  10.435   8.439  0.7038 -1.0735  0.3552
  199MOL0     C26757  10.016  10.465   8.334 -1.3334  0.4290  0.2263
  199MOL0     C26758  10.033  10.609   8.294  0.5456  0.0281  0.7287
  199MOL0     C26759  10.085  10.358   8.259  0.2279 -0.3307 -0.2275
  199MOL0     C26760  10.187  10.394   8.147  0.5762 -0.6572  0.0089
  199MOL0     O26761  10.222  10.295   8.057  0.0868  0.0003  0.4053
  199MOL0     C26762  10.323  10.309   7.960  0.4092 -0.1345  0.4431
  199MOL0     C26763  10.340  10.437   7.897 -0.5352  0.1804  0.1735
  199MOL0     C26764  10.439  10.452   7.806 -0.0471  0.0482  0.0142
  199MOL0     C26765  10.517  10.342   7.772 -0.1411 -0.1410 -0.4017
  199MOL0     O26766  10.633  10.358   7.687 -0.3094  0.0427 -1.1289
  199MOL0     C26767  10.608  10.440   7.566 -0.6542  0.0615 -0.2060
  199MOL0     C26768  10.697  10.404   7.445  0.6121 -0.2191  0.5761
  199MOL0     C26769  10.847  10.400   7.498 -0.1507  0.4969 -0.1690
  199MOL0     C26770  10.961  10.352   7.396 -0.1075 -0.4262  0.0957
  199MOL0     C26771  10.938  10.208   7.344 -0.8914  0.0905  0.4541
  199MOL0     C26772  11.046  10.153   7.243 -0.0965 -0.4314 -0.1368
  199MOL0     C26773  11.032   9.999   7.214  0.7986 -0.6446  0.3721
  199MOL0     C26774  11.114   9.917   7.314  0.4142 -0.0696  0.5807
  199MOL0    Cl26775  11.052   9.753   7.279  0.0887 -0.0364  0.1498
  199MOL0     C26776  10.503  10.209   7.823  0.1790 -0.0915 -0.7535
  199MOL0     C26777  10.405  10.198   7.917  0.3134  0.0802 -0.4354
  199MOL0     O26778  10.235  10.507   8.155 -0.3659  0.2100  0.2566
  199MOL0     C26779  10.059  10.227   8.303 -0.9480 -0.2490 -0.5358
  199MOL0     C26780   9.983  10.203   8.414  0.3297 -0.8711  0.1088
  199MOL0     N26781   9.689  10.189   9.037  0.3031 -0.2475 -0.1189
  199MOL0     N26782   9.709  10.224   9.165 -0.2810 -0.5847 -0.0274
  199MOL0     C26783   9.612   9.912  10.304  0.0725  0.0250  0.6126
  199MOL0     C26784   9.708   9.866  10.391  0.5022 -0.6581 -0.1125
  199MOL0     C26785  10.046   9.772  10.683  0.8210 -0.5784  0.6039
  199MOL0     C26786  10.028   9.742  10.817 -0.1406  0.6823 -0.0268
  199MOL0     C26787  10.112   9.648  10.869 -0.8234 -0.6136  0.0741
  199MOL0     C26788  10.210   9.578  10.794  0.7548  0.0633 -0.4010
  199MOL0     O26789  10.287   9.490  10.872 -0.4102 -0.1242  0.4817
  199MOL0     C26790  10.334   9.373  10.805 -0.1543  0.4982 -0.2582
  199MOL0     C26791  10.234   9.287  10.728 -0.1990 -0.0220  0.3874
  199MOL0     C26792  10.273   9.147  10.699 -0.8387  0.6264  0.2098
  199MOL0     C26793  10.221   9.043  10.800  0.2988  0.2150  0.5789
  199MOL0     C26794  10.085   9.016  10.781 -0.4455 -0.9085  0.1260
  199MOL0     C26795   9.977   8.969  10.755  0.4284  0.2910  0.3962
  199MOL0     C26796  10.232   9.614  10.663 -0.5040  0.3608 -0.6907
  199MOL0     C26797  10.154   9.702  10.610  0.1142 -0.6129 -0.0951
  199MOL0     H26798   9.958  10.084  10.335 -1.2528  1.4742  4.0173
  199MOL0     H26799   9.792  10.172  10.186  2.8286  0.7995  0.3843
  199MOL0     H26800   9.445   9.931  10.047 -0.7947  1.1817 -2.9651
  199MOL0     H26801   9.391  10.033  10.185  1.9405 -0.3341  1.8561
  199MOL0     H26802   9.272  10.104   9.987  0.1271 -0.3275 -1.3277
  199MOL0     H26803   9.397  10.227  10.025  2.5403  0.0701 -0.8545
  199MOL0     H26804   9.545  10.138   9.864 -0.2656  0.5729  0.3554
  199MOL0     H26805   9.461   9.986   9.836  0.2237 -0.0782  1.3664
  199MOL0     H26806   9.257  10.112   9.752 -0.8947  0.0616 -0.0926
  199MOL0     H26807   9.338  10.267   9.782  1.2915  0.7766  0.1067
  199MOL0     H26808   9.428  10.058   9.564  0.2700 -1.7890  2.4183
  199MOL0     H26809   9.321  10.196   9.555 -0.6540  0.1804 -0.1668
  199MOL0     H26810   9.521  10.339   9.635  0.2567  0.8861 -2.8520
  199MOL0     H26811   9.608  10.188   9.642  1.5124 -0.8704 -0.8196
  199MOL0     H26812   9.478  10.296   9.388 -0.3499 -0.4233  1.5326
  199MOL0     H26813   9.640  10.348   9.429 -1.0759  2.1107 -1.0671
  199MOL0     H26814   9.569  10.044   9.410  0.7867 -0.8576 -0.3194
  199MOL0     H26815   9.725  10.122   9.420 -0.1155 -0.2820  1.0643
  199MOL0     H26816   9.469   9.997   9.180  0.1621  1.2301  0.8066
  199MOL0     H26817   9.542   9.916   8.926  2.8942  0.0606  0.2311
  199MOL0     H26818   9.466  10.055   8.851  0.9270  0.8991  0.9814
  199MOL0     H26819   9.635   9.957   8.714  0.9802 -1.1404  0.1239
  199MOL0     H26820   9.761   9.981   8.848  0.0650 -0.9699 -0.3455
  199MOL0     H26821   9.737  10.227   8.797  0.8872  0.4561 -0.4249
  199MOL0     H26822   9.602  10.193   8.689 -1.9871 -3.2190 -0.0653
  199MOL0     H26823   9.739  10.091   8.527  1.6900 -1.9309  0.6579
  199MOL0     H26824   9.883  10.109   8.628  1.7778  2.5767 -1.9231
  199MOL0     H26825   9.880  10.514   8.491  1.5741 -0.8312  0.8687
  199MOL0     H26826  10.129  10.650   8.324  1.3307  1.1843 -2.9131
  199MOL0     H26827  10.016  10.615   8.186  1.7147  1.5365  0.6086
  199MOL0     H26828   9.954  10.665   8.345 -1.5541 -2.0046 -0.0677
  199MOL0     H26829  10.277  10.525   7.908 -1.6295 -0.5761  0.0891
  199MOL0     H26830  10.469  10.546   7.760 -0.3479 -0.0811 -0.4518
  199MOL0     H26831  10.503  10.428   7.541 -0.5060  0.8928 -1.3120
  199MOL0     H26832  10.638  10.544   7.586 -1.3410 -0.1123  2.0293
  199MOL0     H26833  10.653  10.311   7.408 -2.3362  1.1052  0.4511
  199MOL0     H26834  10.707  10.477   7.365 -0.6670 -0.7559 -0.1078
  199MOL0     H26835  10.860  10.334   7.584 -1.7490 -1.9541 -1.6713
  199MOL0     H26836  10.882  10.500   7.524  1.6595 -0.2074  0.2379
  199MOL0     H26837  10.966  10.418   7.309  3.0426  0.7658  1.0528
  199MOL0     H26838  11.055  10.362   7.451 -1.1594  1.9744  1.6095
  199MOL0     H26839  10.840  10.204   7.296  0.3626 -1.9408 -2.1493
  199MOL0     H26840  10.942  10.141   7.430 -0.7572  1.0599  1.2280
  199MOL0     H26841  11.036  10.207   7.148  2.8490  1.1519  0.3419
  199MOL0     H26842  11.150  10.173   7.272 -0.3524 -3.9580  4.1527
  199MOL0     H26843  11.071   9.973   7.115  1.2947 -1.4677  0.7688
  199MOL0     H26844  10.924   9.978   7.210  0.0962  2.6708 -2.2158
  199MOL0     H26845  11.078   9.954   7.410 -1.1396  0.6649 -0.2386
  199MOL0     H26846  11.222   9.913   7.304  0.6387 -4.0538  2.7117
  199MOL0     H26847  10.566  10.125   7.796 -2.1912 -1.7154 -1.5951
  199MOL0     H26848  10.385  10.110   7.978 -1.8995  0.6758 -0.2484
  199MOL0     H26849  10.090  10.139   8.248 -0.5251  0.6031 -1.7031
  199MOL0     H26850   9.968  10.104   8.454 -1.9158 -0.4556  0.4329
  199MOL0     H26851   9.520   9.855  10.295  0.7920 -0.9513 -1.0457
  199MOL0     H26852   9.690   9.784  10.460  1.0532  0.5702  1.5732
  199MOL0     H26853   9.944   9.775  10.878 -0.6246 -0.6498  0.0595
  199MOL0     H26854  10.114   9.628  10.976 -0.7280  0.3451  0.2533
  199MOL0     H26855  10.423   9.403  10.749 -0.0511 -4.1322 -3.0579
  199MOL0     H26856  10.368   9.307  10.886 -0.4624 -0.9410 -1.2707
  199MOL0     H26857  10.208   9.331  10.631  1.8823  0.1927 -0.1226
  199MOL0     H26858  10.144   9.298  10.790  0.0469  0.6687  0.6420
  199MOL0     H26859  10.381   9.129  10.694 -1.3289 -3.4399  0.5165
  199MOL0     H26860  10.228   9.124  10.602 -0.2457 -2.2539  0.5290
  199MOL0     H26861  10.235   9.081  10.902 -2.9782  1.9545  0.5200
  199MOL0     H26862  10.279   8.950  10.793  2.1124  1.2296  1.2891
  199MOL0     H26863   9.881   8.930  10.729  0.0064  0.8857  1.0400
  199MOL0     H26864  10.311   9.568  10.605 -2.9561 -0.4080 -3.6552
  199MOL0     H26865  10.164   9.726  10.505  1.1065 -1.9225 -0.3298
  200MOL0     O26866   9.826   2.240   3.655 -0.1354 -0.0603 -0.5959
  200MOL0     C26867   9.943   2.231   3.654 -0.5591 -0.1012  0.6165
  200MOL0     O26868  10.018   2.181   3.548 -0.1072 -0.1568  0.7034
  200MOL0     C26869   9.941   2.124   3.443  0.4554 -0.0400  0.2479
  200MOL0     C26870   9.924   1.986   3.425 -1.8381 -0.4318  0.1680
  200MOL0     C26871   9.835   1.934   3.324  1.1413 -0.3517 -0.1662
  200MOL0     C26872   9.771   2.023   3.238 -0.1486  0.0464 -0.0939
  200MOL0     O26873   9.685   1.993   3.137  0.3345  0.3958  0.3854
  200MOL0     C26874   9.672   1.852   3.119  0.6618 -0.5982  0.8926
  200MOL0     C26875   9.586   1.820   2.996  0.0912  0.9570  0.2737
  200MOL0     C26876   9.473   1.723   3.029 -0.3905  0.0915  0.2156
  200MOL0     C26877   9.524   1.577   3.065  0.1283 -0.2637  0.4550
  200MOL0     C26878   9.420   1.493   3.139 -0.0623 -1.0746 -0.5261
  200MOL0     C26879   9.314   1.448   3.038 -0.6020  0.1372  0.1604
  200MOL0     C26880   9.195   1.388   3.114  0.3350  0.2180 -0.1682
  200MOL0     C26881   9.074   1.381   3.016  0.1419  0.7499  0.3834
  200MOL0     N26882   8.946   1.343   3.077 -0.9341  0.5001  0.6026
  200MOL0     C26883   8.823   1.397   3.067  0.9454  0.2326 -0.0975
  200MOL0     C26884   8.736   1.309   3.127 -0.4409 -0.6183 -0.2791
  200MOL0     C26885   8.587   1.307   3.147 -0.2081 -0.3251 -0.3811
  200MOL0     C26886   8.510   1.438   3.138  0.0512 -1.2204  0.1777
  200MOL0     C26887   8.357   1.437   3.165  0.2985 -0.4019 -0.6958
  200MOL0     C26888   8.341   1.400   3.308 -0.1329  0.1029 -0.1922
  200MOL0     O26889   8.220   1.471   3.356  0.5625  0.6425  0.5045
  200MOL0     C26890   8.089   1.448   3.306  0.2231 -0.0252  0.9857
  200MOL0     C26891   8.003   1.551   3.331  0.4529  1.0347 -0.3151
  200MOL0     C26892   7.868   1.524   3.306  0.5423 -0.1889 -0.0077
  200MOL0     C26893   7.770   1.621   3.372 -0.5962  0.1955 -0.5513
  200MOL0     C26894   7.826   1.411   3.238 -0.1448 -0.6131  0.5600
  200MOL0     C26895   7.690   1.382   3.197 -0.2151 -0.2115 -0.1676
  200MOL0     O26896   7.662   1.248   3.184  0.0851  0.1200  0.1677
  200MOL0     C26897   7.534   1.225   3.126 -0.5730  0.1937 -1.0940
  200MOL0     C26898   7.421   1.216   3.203  0.4962 -0.1621 -0.0108
  200MOL0     C26899   7.298   1.166   3.155  0.5253  0.2360  0.6286
  200MOL0     C26900   7.290   1.127   3.019  0.2520 -0.0550 -0.4425
  200MOL0     O26901   7.176   1.077   2.966  0.7430 -0.0415 -0.2716
  200MOL0     C26902   7.098   1.176   2.893  0.0804  0.4078 -0.6386
  200MOL0     C26903   6.966   1.114   2.827  0.2643  0.2088  0.3847
  200MOL0     C26904   6.914   1.176   2.696  0.0609  0.5947  0.1456
  200MOL0     C26905   6.786   1.110   2.636 -0.4222 -0.3733  0.0462
  200MOL0     C26906   6.668   1.165   2.707  0.1471  0.2043 -0.3418
  200MOL0     C26907   6.533   1.113   2.640  0.2915 -0.3231  0.5867
  200MOL0     C26908   6.525   0.960   2.657  0.3598 -0.2129  0.1112
  200MOL0     C26909   6.390   0.892   2.628  0.2280  0.1140 -0.5998
  200MOL0    Cl26910   6.257   0.918   2.749 -0.3488  0.0319  0.2382
  200MOL0     C26911   7.404   1.156   2.940 -1.1910  0.6889  0.6449
  200MOL0     C26912   7.525   1.203   2.991  0.6449  0.1554  0.1800
  200MOL0     O26913   7.610   1.481   3.175  0.0033  1.3470  0.0158
  200MOL0     C26914   7.923   1.323   3.189  0.1879 -0.1345 -0.3808
  200MOL0     C26915   8.049   1.349   3.216 -0.4525  0.4773 -0.1675
  200MOL0     N26916   8.805   1.207   3.166 -0.4518  0.1788  0.7198
  200MOL0     N26917   8.928   1.228   3.140  0.3618  0.8041 -0.3064
  200MOL0     C26918   9.787   2.159   3.256 -0.5684 -0.0049 -0.2926
  200MOL0     C26919   9.868   2.212   3.359  0.7609 -0.7893 -0.1203
  200MOL0     C26920  10.009   2.261   3.787  0.2564  0.5140  0.3544
  200MOL0     C26921  10.122   2.341   3.783 -0.4095 -0.4702 -0.8223
  200MOL0     C26922  10.195   2.357   3.900  1.1182 -0.4555 -0.1157
  200MOL0     C26923  10.153   2.302   4.021 -0.4412 -0.5949 -0.9349
  200MOL0     O26924  10.223   2.292   4.138 -0.5551 -0.1917 -0.0919
  200MOL0     C26925  10.346   2.363   4.157  0.2271  0.3100  0.4141
  200MOL0     C26926  10.353   2.389   4.308 -0.6805 -0.0349 -0.1250
  200MOL0     C26927  10.479   2.461   4.373  0.2378  0.6977 -1.0713
  200MOL0     C26928  10.458   2.440   4.523 -0.2922 -0.3732 -0.0088
  200MOL0     C26929  10.343   2.505   4.576 -0.2424 -0.1486 -0.4130
  200MOL0     C26930  10.254   2.576   4.624 -0.7285  0.0766 -0.0589
  200MOL0     C26931  10.024   2.248   4.036  0.9841  0.4824  1.0540
  200MOL0     C26932   9.948   2.221   3.911 -0.3920  0.4502  0.0779
  200MOL0     H26933   9.975   1.925   3.498 -3.5046 -0.8678  1.0195
  200MOL0     H26934   9.824   1.826   3.326  1.3389 -0.3692  1.0880
  200MOL0     H26935   9.759   1.788   3.101  1.8992  1.6895 -2.1105
  200MOL0     H26936   9.620   1.810   3.206 -0.4392 -1.2576 -0.0496
  200MOL0     H26937   9.545   1.917   2.967 -1.5205  0.3415  0.3554
  200MOL0     H26938   9.650   1.773   2.920 -1.8831  0.1789 -0.9973
  200MOL0     H26939   9.419   1.777   3.108 -0.3246 -0.7712  0.8588
  200MOL0     H26940   9.403   1.725   2.945 -0.9800 -1.4206  0.6522
  200MOL0     H26941   9.560   1.519   2.980 -1.5171  1.7910 -1.7985
  200MOL0     H26942   9.608   1.591   3.135  0.3066 -0.4687  0.2816
  200MOL0     H26943   9.469   1.403   3.176  1.5331 -0.2795 -0.5969
  200MOL0     H26944   9.383   1.550   3.225  2.7773  0.2715 -0.0607
  200MOL0     H26945   9.287   1.534   2.976 -0.3173  0.8107  0.9427
  200MOL0     H26946   9.351   1.371   2.970 -0.7933 -1.9523  2.2781
  200MOL0     H26947   9.214   1.288   3.153 -0.9876  0.1131  0.2804
  200MOL0     H26948   9.164   1.454   3.196 -0.5966  0.2876 -0.5630
  200MOL0     H26949   9.097   1.319   2.928  0.0743  1.1948  0.0482
  200MOL0     H26950   9.058   1.484   2.983  1.8710  0.5027 -1.4405
  200MOL0     H26951   8.797   1.487   3.011 -0.7565  0.0115  0.2895
  200MOL0     H26952   8.533   1.243   3.077 -1.7748  0.7374 -0.1819
  200MOL0     H26953   8.572   1.282   3.252 -1.2035  2.9560  0.3820
  200MOL0     H26954   8.528   1.488   3.042  1.5626 -0.1534  0.9972
  200MOL0     H26955   8.554   1.508   3.209  0.0846  1.2443 -2.1356
  200MOL0     H26956   8.312   1.361   3.101  1.1094 -0.2554 -1.4614
  200MOL0     H26957   8.308   1.534   3.148  0.0778 -0.0001  1.8126
  200MOL0     H26958   8.423   1.430   3.374 -0.4162 -0.3925  0.3909
  200MOL0     H26959   8.335   1.291   3.319 -0.8490  0.2944  1.5957
  200MOL0     H26960   8.037   1.637   3.387  0.1803 -0.3523  2.1719
  200MOL0     H26961   7.819   1.686   3.445  0.4193 -1.5171  0.3668
  200MOL0     H26962   7.721   1.686   3.299 -1.4368 -0.8120 -0.9051
  200MOL0     H26963   7.683   1.584   3.427 -2.0885  0.9413 -2.3270
  200MOL0     H26964   7.429   1.222   3.311  3.0879 -0.1220 -0.1591
  200MOL0     H26965   7.218   1.152   3.228 -0.3076 -0.4169 -0.3853
  200MOL0     H26966   7.053   1.257   2.951 -2.7474 -2.0358  0.8585
  200MOL0     H26967   7.173   1.216   2.825  0.6571 -1.2853 -1.0477
  200MOL0     H26968   6.982   1.009   2.802 -0.3196  0.1853  0.0959
  200MOL0     H26969   6.883   1.119   2.898 -0.2638 -1.2506 -0.0896
  200MOL0     H26970   6.996   1.183   2.625  1.7200  1.5091  2.0590
  200MOL0     H26971   6.894   1.276   2.734  1.0595  0.9409 -0.2295
  200MOL0     H26972   6.788   1.145   2.533  0.6368 -0.2466  0.1035
  200MOL0     H26973   6.791   1.000   2.633 -1.3800 -0.5050 -4.6399
  200MOL0     H26974   6.675   1.274   2.705  3.1276  0.0753 -2.1168
  200MOL0     H26975   6.672   1.120   2.806 -2.8898 -3.3669 -1.6175
  200MOL0     H26976   6.452   1.153   2.702  0.5504  2.2677 -0.6587
  200MOL0     H26977   6.526   1.150   2.538  0.1731 -2.7926 -0.3780
  200MOL0     H26978   6.554   0.944   2.761  1.7850  2.3221  0.1838
  200MOL0     H26979   6.588   0.911   2.582 -0.4812 -0.6219 -0.3456
  200MOL0     H26980   6.419   0.787   2.633 -0.8318 -0.1978 -0.7729
  200MOL0     H26981   6.354   0.916   2.528 -0.6570 -1.2814 -0.6398
  200MOL0     H26982   7.401   1.135   2.834  2.0797  0.8086  0.4217
  200MOL0     H26983   7.604   1.217   2.918  0.9507 -0.0801  0.4622
  200MOL0     H26984   7.897   1.239   3.126 -1.5932 -0.6340  0.9330
  200MOL0     H26985   8.131   1.282   3.188  0.2444  1.1345  0.2607
  200MOL0     H26986   9.722   2.227   3.202 -1.1719  0.9651  1.5763
  200MOL0     H26987   9.871   2.320   3.366  0.5991 -0.8877  2.8714
  200MOL0     H26988  10.175   2.371   3.694  2.7439 -0.3706  0.9427
  200MOL0     H26989  10.298   2.391   3.887  1.3055 -0.4800  1.1940
  200MOL0     H26990  10.430   2.312   4.109  0.4144  1.6353 -0.7153
  200MOL0     H26991  10.327   2.465   4.123 -5.1796 -0.2303  0.9205
  200MOL0     H26992  10.337   2.294   4.359 -1.3685  0.8283  1.3355
  200MOL0     H26993  10.265   2.445   4.341 -0.1195  0.6261  0.2848
  200MOL0     H26994  10.477   2.568   4.351 -0.0228  1.2481  1.3014
  200MOL0     H26995  10.574   2.412   4.347 -0.8368 -0.7924 -2.4141
  200MOL0     H26996  10.549   2.484   4.564 -2.3994  1.4733  3.0851
  200MOL0     H26997  10.449   2.337   4.559 -2.9958  0.4419  1.9703
  200MOL0     H26998  10.182   2.647   4.657 -2.3815 -2.4992  2.3372
  200MOL0     H26999   9.990   2.205   4.129 -0.9503  0.4413  0.3744
  200MOL0     H27000   9.855   2.166   3.926  1.2790 -1.7285  4.2138
  201MOL0     O27001   6.395   1.251  11.231 -0.0609 -0.0083 -0.6484
  201MOL0     C27002   6.475   1.256  11.314 -0.0751 -0.4754 -0.7951
  201MOL0     O27003   6.608   1.250  11.297  0.4207  0.0942  0.3722
  201MOL0     C27004   6.654   1.227  11.166 -0.1875 -0.8059  0.4585
  201MOL0     C27005   6.707   1.100  11.118  0.0701  0.0959 -0.8539
  201MOL0     C27006   6.768   1.095  10.991  0.7707  0.9585  0.3595
  201MOL0     C27007   6.769   1.203  10.906  0.1227 -0.2999  0.2515
  201MOL0     O27008   6.838   1.212  10.788  0.4283  0.0872 -0.3635
  201MOL0     C27009   6.975   1.255  10.795  0.8893 -0.4375  0.9555
  201MOL0     C27010   7.054   1.176  10.684 -0.0396  0.7748 -1.0031
  201MOL0     C27011   7.158   1.255  10.592  0.6231  0.0506 -1.7043
  201MOL0     C27012   7.096   1.269  10.454  0.7439  1.1158 -0.1426
  201MOL0     C27013   7.169   1.384  10.381  0.3937  0.1356  0.3273
  201MOL0     C27014   7.133   1.382  10.230 -0.5660  0.0096 -0.3248
  201MOL0     C27015   7.189   1.497  10.143 -0.0465 -0.2415 -1.0894
  201MOL0     C27016   7.175   1.476   9.996 -0.8721  0.0848 -0.0315
  201MOL0     N27017   7.050   1.434   9.958  0.6010 -0.5439 -0.1595
  201MOL0     C27018   6.952   1.526   9.934  0.5846  0.6972  0.4472
  201MOL0     C27019   6.847   1.443   9.902 -0.3021 -0.1485  0.0728
  201MOL0     C27020   6.708   1.497   9.878  0.4347  0.5613 -0.4553
  201MOL0     C27021   6.607   1.452   9.991 -0.3355 -0.1976  0.4221
  201MOL0     C27022   6.457   1.485   9.958  0.1553 -0.5669  0.0105
  201MOL0     C27023   6.372   1.483  10.074 -0.1390 -0.5346  0.0581
  201MOL0     O27024   6.254   1.561  10.038  0.2358 -0.1992 -0.8532
  201MOL0     C27025   6.169   1.566  10.144 -0.1806  0.3482 -0.2584
  201MOL0     C27026   6.183   1.646  10.263  0.3478  0.0611 -0.1431
  201MOL0     C27027   6.108   1.625  10.370  1.1364  1.3354  0.0369
  201MOL0     C27028   6.151   1.686  10.506  0.7503 -0.3138  0.1747
  201MOL0     C27029   6.008   1.526  10.361 -1.4692  0.8127  0.5453
  201MOL0     C27030   5.925   1.492  10.470  0.6745  0.2903 -0.3673
  201MOL0     O27031   5.885   1.598  10.543 -0.2264  0.6863 -0.0100
  201MOL0     C27032   5.787   1.589  10.634 -0.2270  0.1410 -0.6471
  201MOL0     C27033   5.693   1.492  10.656 -0.5851 -0.3097  0.1462
  201MOL0     C27034   5.623   1.494  10.778  0.3520 -0.1049 -0.3247
  201MOL0     C27035   5.639   1.600  10.868  0.7195  1.3170 -0.6414
  201MOL0     O27036   5.571   1.586  10.989 -0.5132 -0.5176 -0.1913
  201MOL0     C27037   5.510   1.700  11.032 -0.0790  0.1890  1.0402
  201MOL0     C27038   5.403   1.658  11.130 -0.0072  0.1528 -0.0137
  201MOL0     C27039   5.259   1.648  11.058  0.1597 -0.6944  0.2331
  201MOL0     C27040   5.252   1.569  10.929 -0.5590  0.3533 -0.5998
  201MOL0     C27041   5.106   1.575  10.882  0.1912 -0.5806 -0.1439
  201MOL0     C27042   5.082   1.492  10.759 -0.3195  0.6315 -0.2387
  201MOL0     C27043   5.060   1.343  10.803  0.7696  0.0626  0.4893
  201MOL0     C27044   4.971   1.269  10.700  0.4546 -0.9757  0.1687
  201MOL0    Cl27045   5.002   1.103  10.742  0.1390  0.1380  0.0986
  201MOL0     C27046   5.724   1.704  10.835 -0.3380 -0.5141 -0.4065
  201MOL0     C27047   5.801   1.696  10.715  0.3505 -0.5433 -0.1706
  201MOL0     O27048   5.888   1.371  10.477 -0.0737 -0.1413  0.8978
  201MOL0     C27049   5.988   1.455  10.245 -0.2101  0.3573  0.5649
  201MOL0     C27050   6.065   1.479  10.131  0.0324  0.0840  0.2409
  201MOL0     N27051   6.887   1.313   9.899 -0.0298 -0.2394 -0.0369
  201MOL0     N27052   7.009   1.302   9.923 -0.0198 -0.0758  1.2437
  201MOL0     C27053   6.721   1.326  10.952 -0.0001 -0.7056  0.5629
  201MOL0     C27054   6.662   1.335  11.076  0.3922  0.6663 -0.5513
  201MOL0     C27055   6.416   1.270  11.454  0.3827 -0.0621  0.9549
  201MOL0     C27056   6.297   1.343  11.468  0.0732 -0.4167  0.4154
  201MOL0     C27057   6.242   1.363  11.595 -0.4381 -0.3955 -0.4190
  201MOL0     C27058   6.307   1.306  11.711  0.5348 -0.3076  1.0773
  201MOL0     O27059   6.269   1.328  11.837 -0.1850  0.3219 -0.1868
  201MOL0     C27060   6.128   1.313  11.859  0.3069 -0.1781 -0.1401
  201MOL0     C27061   6.070   1.445  11.911 -0.0660 -0.8873 -0.9067
  201MOL0     C27062   6.058   1.563  11.810  1.1012 -0.5896 -0.1711
  201MOL0     C27063   6.016   1.701  11.875  0.2152  0.6127 -0.3114
  201MOL0     C27064   5.891   1.677  11.943  1.2403 -0.4044 -0.1723
  201MOL0     C27065   5.778   1.682  11.994 -0.7444 -0.8099 -0.7521
  201MOL0     C27066   6.413   1.232  11.690 -0.5003 -0.7104  0.5464
  201MOL0     C27067   6.476   1.208  11.565 -0.2825 -0.1813 -0.1159
  201MOL0     H27068   6.719   1.019  11.189  0.0561  1.4059  0.7035
  201MOL0     H27069   6.818   1.001  10.969 -0.5330  0.2812  0.1910
  201MOL0     H27070   6.987   1.363  10.784 -0.3795 -0.1235  2.3099
  201MOL0     H27071   7.023   1.231  10.890  1.9227 -0.9964  0.3005
  201MOL0     H27072   7.110   1.107  10.748 -0.1038  1.3241 -0.3441
  201MOL0     H27073   6.982   1.116  10.626 -0.0306 -0.4150  0.1712
  201MOL0     H27074   7.179   1.359  10.618 -2.3940  0.6031 -1.0914
  201MOL0     H27075   7.253   1.199  10.586  1.7580  1.6501  0.1585
  201MOL0     H27076   7.103   1.177  10.395  1.2112  0.7076  0.5316
  201MOL0     H27077   6.989   1.288  10.469  0.7444  0.5350  0.7380
  201MOL0     H27078   7.124   1.475  10.421 -0.9298 -0.5225  0.3712
  201MOL0     H27079   7.276   1.382  10.406  0.3188  1.1489  0.7796
  201MOL0     H27080   7.175   1.288  10.191  0.4790 -0.3952  1.6441
  201MOL0     H27081   7.025   1.384  10.215 -0.3389  1.7911 -2.0898
  201MOL0     H27082   7.156   1.591  10.187  3.8163  0.9862 -0.3605
  201MOL0     H27083   7.296   1.494  10.168 -0.8717  0.2795  3.1349
  201MOL0     H27084   7.248   1.399   9.969  1.6586  1.6738  1.8277
  201MOL0     H27085   7.203   1.570   9.946 -1.7975  1.9791  2.7628
  201MOL0     H27086   6.967   1.632   9.948  1.8657  0.3301  2.2424
  201MOL0     H27087   6.713   1.606   9.865  1.2515  0.5969  0.0689
  201MOL0     H27088   6.667   1.455   9.786  0.0552 -0.4859  0.1812
  201MOL0     H27089   6.625   1.509  10.083  0.1116 -0.5362  0.5483
  201MOL0     H27090   6.616   1.343   9.994  2.1524 -0.2334 -2.6611
  201MOL0     H27091   6.413   1.417   9.885 -2.8439 -0.1247  1.2629
  201MOL0     H27092   6.443   1.585   9.915  0.3281 -0.7283 -0.4214
  201MOL0     H27093   6.420   1.528  10.161  1.0330  0.8853 -1.2783
  201MOL0     H27094   6.346   1.377  10.089  0.5124 -0.4510  2.0225
  201MOL0     H27095   6.266   1.716  10.260 -0.0386  0.5234 -3.5812
  201MOL0     H27096   6.078   1.761  10.537  1.4720  1.0015 -1.1779
  201MOL0     H27097   6.161   1.601  10.574  3.2063 -1.0976 -1.0518
  201MOL0     H27098   6.247   1.738  10.508  1.6256 -1.9103  1.4373
  201MOL0     H27099   5.681   1.402  10.596 -1.0541  0.0572 -0.3208
  201MOL0     H27100   5.550   1.416  10.800 -0.8087  0.5827 -1.5742
  201MOL0     H27101   5.580   1.766  11.082 -0.2487  1.7116 -0.6453
  201MOL0     H27102   5.469   1.754  10.946  1.7786 -0.0775 -0.0461
  201MOL0     H27103   5.427   1.563  11.179  0.8717  0.4586  0.1602
  201MOL0     H27104   5.390   1.728  11.213  0.6974 -1.5432  1.6108
  201MOL0     H27105   5.234   1.752  11.036  0.4641 -0.2676  1.7926
  201MOL0     H27106   5.184   1.612  11.129  0.2818  2.6174  2.2519
  201MOL0     H27107   5.316   1.609  10.851  1.4602  1.6114  1.5876
  201MOL0     H27108   5.278   1.464  10.949 -1.8160 -0.6848 -3.7308
  201MOL0     H27109   5.091   1.681  10.860 -0.3135 -0.4511  0.7776
  201MOL0     H27110   5.029   1.553  10.956 -2.4450 -0.9982 -2.8409
  201MOL0     H27111   4.980   1.514  10.726  0.5586  2.8501 -1.6937
  201MOL0     H27112   5.151   1.501  10.674 -1.0482 -2.9094 -1.3767
  201MOL0     H27113   5.024   1.316  10.903 -1.5888 -0.5201 -0.4469
  201MOL0     H27114   5.161   1.302  10.805  1.5924  2.0086  1.8267
  201MOL0     H27115   5.009   1.290  10.600 -0.5457  3.4851  0.5309
  201MOL0     H27116   4.864   1.294  10.707  0.0707 -1.6169 -2.3050
  201MOL0     H27117   5.719   1.791  10.900 -0.9365 -0.4230 -0.5730
  201MOL0     H27118   5.876   1.771  10.694 -2.0193  2.3134  1.0084
  201MOL0     H27119   5.915   1.374  10.237  1.7564 -1.6964  2.1609
  201MOL0     H27120   6.049   1.421  10.041 -3.0524 -1.1060  1.4307
  201MOL0     H27121   6.726   1.416  10.891  2.3493 -0.1941  1.4211
  201MOL0     H27122   6.613   1.425  11.111  2.8459  1.5696  0.7478
  201MOL0     H27123   6.255   1.392  11.381  2.3134  0.5289 -0.2024
  201MOL0     H27124   6.164   1.438  11.592  1.8542  2.1336 -1.3793
  201MOL0     H27125   6.068   1.266  11.780 -1.9340 -2.5928  2.7118
  201MOL0     H27126   6.112   1.248  11.946 -0.7663  1.6723  1.1205
  201MOL0     H27127   6.150   1.473  11.981 -0.7133  2.4909 -1.3663
  201MOL0     H27128   5.982   1.420  11.972 -0.1694  0.7971 -0.3072
  201MOL0     H27129   5.991   1.536  11.728  1.6852 -1.6172 -0.3333
  201MOL0     H27130   6.157   1.582  11.767  0.5754 -0.0238 -1.1403
  201MOL0     H27131   6.000   1.779  11.800 -2.7547  2.4745  2.0265
  201MOL0     H27132   6.090   1.734  11.949 -1.8903 -2.7321  3.7382
  201MOL0     H27133   5.679   1.681  12.035  0.1217  0.7310  1.6636
  201MOL0     H27134   6.467   1.198  11.778  1.4336  1.4441  0.3114
  201MOL0     H27135   6.563   1.143  11.561 -0.4611 -0.3912 -0.9903
  202MOL0     O27136  11.205   7.979   5.459 -0.4459  0.6605  0.6722
  202MOL0     C27137  11.177   8.100   5.466 -0.3515 -0.2326 -0.2349
  202MOL0     O27138  11.100   8.152   5.558 -0.2639 -0.7343  0.4534
  202MOL0     C27139  11.010   8.062   5.614 -0.4347  1.5458  0.1066
  202MOL0     C27140  11.010   8.034   5.747 -0.2836 -0.4028 -0.4300
  202MOL0     C27141  10.925   7.938   5.796  1.0900  0.4039 -1.1570
  202MOL0     C27142  10.836   7.872   5.720 -0.3367  0.7138  0.4596
  202MOL0     O27143  10.760   7.776   5.782  0.0911  0.8463  0.6010
  202MOL0     C27144  10.751   7.652   5.717  0.0728  0.2315 -0.4915
  202MOL0     C27145  10.734   7.532   5.821  1.1152  1.0093  0.1359
  202MOL0     C27146  10.702   7.407   5.729  0.2813 -0.1759 -0.2130
  202MOL0     C27147  10.662   7.280   5.795  0.3313  0.1683  0.0474
  202MOL0     C27148  10.509   7.258   5.779  0.2360  0.0507 -0.7836
  202MOL0     C27149  10.471   7.119   5.847 -0.3428 -0.3938 -0.1075
  202MOL0     C27150  10.318   7.099   5.828  0.5089 -0.3971 -0.5255
  202MOL0     C27151  10.275   6.977   5.905 -0.0075 -0.1439  0.6111
  202MOL0     N27152  10.129   6.933   5.901  0.2846  0.1942  0.4754
  202MOL0     C27153  10.020   7.003   5.856 -0.4563  0.2557 -0.1421
  202MOL0     C27154   9.916   6.916   5.887  0.4246 -0.1526  0.1798
  202MOL0     C27155   9.765   6.945   5.884  0.0662  0.5507  0.9324
  202MOL0     C27156   9.736   7.029   6.001  0.7730 -0.6552  0.0872
  202MOL0     C27157   9.578   7.047   6.010 -0.3405  1.1961  0.1237
  202MOL0     C27158   9.526   7.126   6.124  0.1714  0.2210 -1.1462
  202MOL0     O27159   9.589   7.250   6.126  0.3833 -0.4300  0.7541
  202MOL0     C27160   9.547   7.350   6.214  0.7925  0.0449  1.0813
  202MOL0     C27161   9.616   7.463   6.211 -0.4524  0.0841  0.3835
  202MOL0     C27162   9.599   7.572   6.300 -0.2074 -0.4790 -0.4583
  202MOL0     C27163   9.685   7.698   6.274  0.3231 -0.8539  0.2130
  202MOL0     C27164   9.510   7.549   6.412 -0.0012  1.5241  0.0538
  202MOL0     C27165   9.490   7.655   6.513  0.1280  0.0296 -0.9335
  202MOL0     O27166   9.378   7.634   6.589  0.5426  0.4835  0.5045
  202MOL0     C27167   9.370   7.714   6.700  0.2057  0.8131  0.9904
  202MOL0     C27168   9.466   7.717   6.800  0.6557 -0.3882  0.0912
  202MOL0     C27169   9.452   7.789   6.918 -0.1908  0.0814  0.2397
  202MOL0     C27170   9.345   7.871   6.931  0.5279 -0.6159  0.3242
  202MOL0     O27171   9.319   7.937   7.053 -0.2000  0.2700 -0.3027
  202MOL0     C27172   9.252   8.058   7.059  0.1127 -0.0689 -0.2896
  202MOL0     C27173   9.360   8.147   7.123  0.0824  0.4763 -0.6946
  202MOL0     C27174   9.444   8.211   7.014 -0.6385 -0.3849  0.4959
  202MOL0     C27175   9.382   8.333   6.946 -0.2456  0.1631 -0.0839
  202MOL0     C27176   9.497   8.406   6.867 -0.0707  0.3086  0.5554
  202MOL0     C27177   9.427   8.513   6.780  0.2874  0.9181 -0.8827
  202MOL0     C27178   9.523   8.611   6.729  0.4647 -0.4168  0.6973
  202MOL0     C27179   9.471   8.721   6.636 -0.1059 -0.2849 -0.0487
  202MOL0    Cl27180   9.356   8.658   6.512 -0.2288  0.0304  0.0061
  202MOL0     C27181   9.253   7.878   6.817 -1.0649 -0.9955 -0.9049
  202MOL0     C27182   9.261   7.794   6.711 -0.0533 -0.4802 -0.0737
  202MOL0     O27183   9.558   7.756   6.515 -1.0797  0.2799  0.1583
  202MOL0     C27184   9.427   7.428   6.408 -0.6451 -0.1011  0.4306
  202MOL0     C27185   9.452   7.333   6.315  0.4607 -0.1114 -0.5179
  202MOL0     N27186   9.963   6.796   5.936  0.3540 -0.0923 -0.5904
  202MOL0     N27187  10.092   6.811   5.939  0.2882  0.5103  0.4034
  202MOL0     C27188  10.823   7.897   5.581  0.1274 -0.2490  0.2607
  202MOL0     C27189  10.915   7.996   5.527  0.5527  0.4486 -0.1838
  202MOL0     C27190  11.255   8.190   5.384 -0.7946 -0.5945 -0.1998
  202MOL0     C27191  11.351   8.151   5.294 -1.1604 -0.1963  0.3145
  202MOL0     C27192  11.413   8.246   5.203 -0.7552  0.9695 -0.1448
  202MOL0     C27193  11.382   8.378   5.201 -0.7609 -0.1893  0.1081
  202MOL0     O27194  11.419   8.470   5.111 -0.1301  0.1784  0.0366
  202MOL0     C27195  11.523   8.435   5.016 -0.3151  0.2132  0.2267
  202MOL0     C27196  11.666   8.447   5.063  0.8864 -0.5097  0.3183
  202MOL0     C27197  11.778   8.422   4.960  0.0732 -0.0286 -0.4670
  202MOL0     C27198  11.917   8.427   5.028  0.3526  0.0944 -0.0468
  202MOL0     C27199  12.019   8.460   4.921  0.6807 -0.8132 -0.6182
  202MOL0     C27200  12.088   8.494   4.830  0.9828  0.1220  0.7360
  202MOL0     C27201  11.291   8.425   5.290  0.0735 -0.2169  0.6947
  202MOL0     C27202  11.224   8.332   5.376 -0.2783 -0.3279 -0.3566
  202MOL0     H27203  11.079   8.082   5.815 -1.3712 -0.9770  1.1369
  202MOL0     H27204  10.923   7.914   5.902 -0.3099  1.1585 -0.9914
  202MOL0     H27205  10.662   7.661   5.655 -1.1694  0.0289  1.1863
  202MOL0     H27206  10.828   7.620   5.646  0.5044  1.4105 -0.5901
  202MOL0     H27207  10.825   7.511   5.878  1.7233 -2.8328 -1.9155
  202MOL0     H27208  10.646   7.535   5.887  1.4695 -1.6427  0.8752
  202MOL0     H27209  10.623   7.427   5.657  0.6996  4.1471  0.2410
  202MOL0     H27210  10.799   7.393   5.680  1.1115  1.6218  0.7989
  202MOL0     H27211  10.716   7.200   5.744 -0.4900  0.1760 -0.8445
  202MOL0     H27212  10.695   7.278   5.900 -0.6984  4.3593  0.6120
  202MOL0     H27213  10.458   7.333   5.841  3.2526  1.1351  0.5635
  202MOL0     H27214  10.476   7.264   5.675 -2.1337  0.8503 -0.0662
  202MOL0     H27215  10.538   7.039   5.816  0.2463 -1.1777  2.8389
  202MOL0     H27216  10.483   7.132   5.955 -0.8819  0.5869 -0.1506
  202MOL0     H27217  10.254   7.179   5.866 -0.3606 -1.2708 -0.0912
  202MOL0     H27218  10.296   7.099   5.720  1.0283 -0.2144 -0.6336
  202MOL0     H27219  10.303   7.009   6.005  3.1448  0.5517 -0.3747
  202MOL0     H27220  10.337   6.891   5.875 -1.0772 -1.4126  1.9156
  202MOL0     H27221  10.033   7.098   5.806 -0.2262 -0.3830 -1.3216
  202MOL0     H27222   9.737   6.995   5.790  1.4544 -0.4023 -0.0226
  202MOL0     H27223   9.713   6.850   5.880  2.3996 -0.7873  0.5812
  202MOL0     H27224   9.791   7.123   5.991  0.9368 -0.8433 -0.8268
  202MOL0     H27225   9.778   6.989   6.094  2.7597  1.9590  0.4409
  202MOL0     H27226   9.534   6.946   6.010  2.6281 -0.2919 -2.8013
  202MOL0     H27227   9.551   7.095   5.916 -0.3847  0.0780 -0.4486
  202MOL0     H27228   9.552   7.078   6.219  0.0756  1.4414 -0.4813
  202MOL0     H27229   9.417   7.121   6.118  0.2921 -2.5802 -2.4821
  202MOL0     H27230   9.692   7.481   6.135 -2.5375 -0.8149 -2.0508
  202MOL0     H27231   9.739   7.713   6.180  0.3706  2.1787  0.6074
  202MOL0     H27232   9.625   7.789   6.289 -1.9047 -2.3827  1.0764
  202MOL0     H27233   9.762   7.693   6.352 -0.3103 -1.0143  0.8433
  202MOL0     H27234   9.554   7.655   6.784 -0.6103 -1.9393 -1.1440
  202MOL0     H27235   9.523   7.774   6.999  2.3123 -1.5241 -2.0519
  202MOL0     H27236   9.220   8.108   6.967 -2.6249  1.2129  1.2457
  202MOL0     H27237   9.168   8.041   7.126  0.6297  1.8392  0.9159
  202MOL0     H27238   9.303   8.223   7.177 -2.4644 -1.2210 -0.7926
  202MOL0     H27239   9.426   8.093   7.192  2.3270  1.5273 -1.9137
  202MOL0     H27240   9.471   8.132   6.944 -1.5617 -1.1314  0.9503
  202MOL0     H27241   9.533   8.255   7.059  1.4580  1.3364 -4.6391
  202MOL0     H27242   9.297   8.301   6.885 -0.2151 -0.6102  0.2647
  202MOL0     H27243   9.349   8.405   7.022  2.0242 -0.2158  1.3536
  202MOL0     H27244   9.548   8.342   6.795  0.4007 -1.5368  2.4035
  202MOL0     H27245   9.570   8.439   6.943 -1.2548  0.9248  1.4559
  202MOL0     H27246   9.372   8.463   6.700 -0.4894  0.0537  0.1540
  202MOL0     H27247   9.347   8.558   6.839  1.6014  0.7069  1.1484
  202MOL0     H27248   9.596   8.560   6.667  1.1926  2.0099 -0.5845
  202MOL0     H27249   9.580   8.668   6.803  1.0719  0.7405 -0.6196
  202MOL0     H27250   9.560   8.771   6.596  0.2773 -0.5701  0.4319
  202MOL0     H27251   9.414   8.792   6.697 -1.0319  0.2559 -1.5035
  202MOL0     H27252   9.190   7.966   6.821  3.5687  2.6960 -0.1674
  202MOL0     H27253   9.186   7.807   6.634 -1.3955 -2.5999  0.7610
  202MOL0     H27254   9.353   7.413   6.486  0.7167 -1.3180  1.5389
  202MOL0     H27255   9.405   7.235   6.322 -2.3989  1.1917 -0.0265
  202MOL0     H27256  10.744   7.849   5.524 -1.3328 -0.0338  2.0061
  202MOL0     H27257  10.904   8.031   5.425 -1.4257  1.4526  0.3176
  202MOL0     H27258  11.374   8.045   5.289 -2.9459 -0.5796 -0.6568
  202MOL0     H27259  11.481   8.203   5.130  0.6802 -0.0449  1.6701
  202MOL0     H27260  11.501   8.338   4.971  1.5921 -1.0129  1.7993
  202MOL0     H27261  11.521   8.506   4.933  0.7085  1.1546  0.9744
  202MOL0     H27262  11.679   8.387   5.153 -1.3649 -4.7469 -1.8915
  202MOL0     H27263  11.680   8.550   5.100  1.6806  0.4282 -2.3732
  202MOL0     H27264  11.774   8.495   4.879 -0.0874 -2.6287 -2.9691
  202MOL0     H27265  11.762   8.324   4.913  0.8048 -1.1053  1.4236
  202MOL0     H27266  11.936   8.329   5.074 -0.3144 -0.4953 -0.9841
  202MOL0     H27267  11.929   8.503   5.106  2.1581 -1.7650  1.6364
  202MOL0     H27268  12.151   8.525   4.750  0.5234  0.4482  0.4972
  202MOL0     H27269  11.282   8.533   5.287  2.6931  0.0494 -0.8755
  202MOL0     H27270  11.149   8.376   5.442 -4.5597 -2.2619 -3.4801
  203MOL0     O27271   2.790  10.393   0.894  0.3675  0.1232  0.3310
  203MOL0     C27272   2.748  10.378   0.779  1.1388  0.4612  0.3992
  203MOL0     O27273   2.811  10.300   0.675  0.5763  0.0867 -0.2806
  203MOL0     C27274   2.913  10.221   0.723  0.1221  0.3941  0.2355
  203MOL0     C27275   2.894  10.128   0.827  0.3783  0.7814  0.4825
  203MOL0     C27276   3.008  10.052   0.867  1.3725 -0.8194  0.6168
  203MOL0     C27277   3.127  10.062   0.797 -0.6076 -0.0649 -0.0453
  203MOL0     O27278   3.244   9.987   0.828  0.1461  0.0410  0.6194
  203MOL0     C27279   3.268   9.943   0.961  0.8356  1.0742  0.5658
  203MOL0     C27280   3.233   9.789   0.967 -0.6177 -0.5126 -0.4885
  203MOL0     C27281   3.292   9.698   1.072  0.0202 -0.0986  0.0135
  203MOL0     C27282   3.446   9.691   1.067 -0.6790 -0.2604  0.5114
  203MOL0     C27283   3.516   9.636   1.193 -0.2520 -0.1132 -0.3674
  203MOL0     C27284   3.484   9.480   1.223  0.4322 -0.3774  0.1979
  203MOL0     C27285   3.562   9.433   1.347 -0.1046 -0.0312 -0.5987
  203MOL0     C27286   3.524   9.511   1.481 -0.3573 -0.2542  0.5009
  203MOL0     N27287   3.611   9.627   1.513 -0.1939 -0.3061 -0.0452
  203MOL0     C27288   3.746   9.647   1.487  0.9379  0.4743 -0.0410
  203MOL0     C27289   3.761   9.778   1.512 -0.4324  0.0337  0.2065
  203MOL0     C27290   3.889   9.850   1.491  0.8308 -0.3918  1.0813
  203MOL0     C27291   3.902   9.917   1.355 -0.1056  0.7120  0.4064
  203MOL0     C27292   4.039   9.981   1.336 -0.0207  0.4199  0.0054
  203MOL0     C27293   4.063  10.013   1.193  0.9549  0.2115  0.7167
  203MOL0     O27294   4.203  10.040   1.178  0.3208  0.5075 -0.0744
  203MOL0     C27295   4.251  10.167   1.168  1.3158  0.2967  0.1121
  203MOL0     C27296   4.368  10.177   1.097 -0.3247 -0.0145  0.0407
  203MOL0     C27297   4.419  10.300   1.058 -0.8921  0.1396 -0.0946
  203MOL0     C27298   4.557  10.286   0.986 -0.5710 -0.3197 -0.2509
  203MOL0     C27299   4.346  10.421   1.083 -0.2951  0.0991 -0.5106
  203MOL0     C27300   4.389  10.549   1.028 -0.5003  0.6689  0.7829
  203MOL0     O27301   4.331  10.657   1.087  0.1664 -0.2187 -0.3742
  203MOL0     C27302   4.387  10.788   1.054 -0.4889 -0.1134 -0.3675
  203MOL0     C27303   4.300  10.894   1.027 -0.0496  0.9881 -0.4307
  203MOL0     C27304   4.334  11.021   0.997  0.0612  0.1518  0.2826
  203MOL0     C27305   4.474  11.055   0.989  0.0607  0.2859  0.2602
  203MOL0     O27306   4.534  11.181   0.964 -0.2092 -0.3517  0.1010
  203MOL0     C27307   4.470  11.289   1.035 -0.2024 -0.5189  0.2130
  203MOL0     C27308   4.568  11.404   1.034  0.0746 -0.3768 -0.0181
  203MOL0     C27309   4.504  11.538   1.079  0.0571 -0.0653  0.3805
  203MOL0     C27310   4.522  11.588   1.219  0.1125  0.8315 -0.4362
  203MOL0     C27311   4.450  11.723   1.240 -0.4432  0.1064 -0.1362
  203MOL0     C27312   4.307  11.711   1.298 -0.7206  0.2227 -0.4935
  203MOL0     C27313   4.309  11.721   1.451 -0.4577  0.3581 -0.4207
  203MOL0     C27314   4.177  11.690   1.520 -0.2265 -0.0652 -0.1603
  203MOL0    Cl27315   4.111  11.521   1.503  0.1222 -0.1074 -0.2404
  203MOL0     C27316   4.569  10.957   1.022 -0.2383  0.5125  0.8956
  203MOL0     C27317   4.527  10.819   1.045 -0.6934 -0.6740  0.0014
  203MOL0     O27318   4.451  10.553   0.920  0.2269 -0.4614  1.4270
  203MOL0     C27319   4.240  10.415   1.175 -0.0883 -0.2296  0.6377
  203MOL0     C27320   4.193  10.294   1.214  0.3456  1.1534 -0.0478
  203MOL0     N27321   3.636   9.837   1.553 -0.0140  0.0900  0.7710
  203MOL0     N27322   3.550   9.741   1.564 -0.0066 -0.3239 -0.6436
  203MOL0     C27323   3.140  10.163   0.705  0.7449  0.2973 -0.1026
  203MOL0     C27324   3.031  10.229   0.653 -0.2306 -0.0435 -0.3556
  203MOL0     C27325   2.615  10.443   0.753  0.5215  1.1147  0.3350
  203MOL0     C27326   2.595  10.579   0.780 -0.3398  0.3255 -0.1865
  203MOL0     C27327   2.478  10.644   0.750 -0.0278  1.4994  0.2865
  203MOL0     C27328   2.372  10.573   0.700  0.6986  0.4372  0.5715
  203MOL0     O27329   2.262  10.645   0.681  0.7540  0.4718  0.1170
  203MOL0     C27330   2.159  10.583   0.600 -0.3819  0.7637  0.1000
  203MOL0     C27331   2.059  10.688   0.559  0.4286 -0.4494 -0.0132
  203MOL0     C27332   2.124  10.789   0.456 -0.5666 -0.3087  0.5385
  203MOL0     C27333   2.076  10.927   0.445 -0.4209 -0.2933 -0.8224
  203MOL0     C27334   2.138  11.008   0.557 -0.5494 -0.4715  0.3326
  203MOL0     C27335   2.182  11.078   0.648  0.5618  0.2729  0.4919
  203MOL0     C27336   2.388  10.432   0.683  0.3804 -1.0812 -0.4954
  203MOL0     C27337   2.503  10.369   0.714  1.1282  0.1350  0.6080
  203MOL0     H27338   2.803  10.125   0.887  0.5739 -1.9276  0.7722
  203MOL0     H27339   3.001   9.983   0.951 -4.0667 -1.4539 -0.0154
  203MOL0     H27340   3.370   9.972   0.986  2.1713 -2.0777 -0.6272
  203MOL0     H27341   3.211   9.993   1.040 -3.2897 -0.8133 -0.9185
  203MOL0     H27342   3.128   9.769   0.987  0.2283 -2.4833  2.6679
  203MOL0     H27343   3.260   9.743   0.872  2.3472 -3.8593  1.7053
  203MOL0     H27344   3.264   9.743   1.168 -1.3202  1.9316 -1.2460
  203MOL0     H27345   3.251   9.597   1.069 -3.3678  1.1146 -3.2130
  203MOL0     H27346   3.474   9.646   0.972  1.3974  1.2069  0.3638
  203MOL0     H27347   3.477   9.796   1.062  1.1967 -0.7603  0.8912
  203MOL0     H27348   3.623   9.659   1.190 -0.2812 -0.0426 -2.0849
  203MOL0     H27349   3.483   9.686   1.285  1.6847  0.7155 -0.0793
  203MOL0     H27350   3.376   9.468   1.238  0.3500  0.3781  0.2388
  203MOL0     H27351   3.518   9.435   1.129  0.5754  1.6311 -0.7651
  203MOL0     H27352   3.561   9.324   1.360  2.1610 -0.1747 -1.2309
  203MOL0     H27353   3.670   9.451   1.338 -0.1431  1.5319  1.4086
  203MOL0     H27354   3.521   9.440   1.564 -0.0361 -0.8141  0.0384
  203MOL0     H27355   3.421   9.546   1.480  0.1917  1.4619  0.1860
  203MOL0     H27356   3.805   9.577   1.429  1.1940  1.3753 -0.8822
  203MOL0     H27357   3.904   9.917   1.577 -0.8331 -1.5099  2.2973
  203MOL0     H27358   3.970   9.777   1.484  1.1228  0.0708 -1.4423
  203MOL0     H27359   3.826   9.989   1.325  1.7963  2.5252 -0.3285
  203MOL0     H27360   3.899   9.829   1.291  1.0468 -0.6587  2.1221
  203MOL0     H27361   4.117   9.907   1.357  0.0288  0.9229  1.6625
  203MOL0     H27362   4.048  10.073   1.393  1.5765  0.4386 -0.2102
  203MOL0     H27363   4.009  10.097   1.148  0.2771 -0.7046 -0.2542
  203MOL0     H27364   4.040   9.925   1.132  2.0792  1.3310 -1.4639
  203MOL0     H27365   4.419  10.090   1.056  0.3097 -0.2341  1.2519
  203MOL0     H27366   4.625  10.358   1.033 -0.5502 -1.5591  1.7395
  203MOL0     H27367   4.613  10.193   1.001  3.3593  1.7127 -1.0419
  203MOL0     H27368   4.558  10.300   0.878  2.9903 -1.0191 -0.4144
  203MOL0     H27369   4.194  10.875   1.037 -0.3807  3.4807  1.6207
  203MOL0     H27370   4.256  11.096   0.986 -2.2226 -2.0514  0.4341
  203MOL0     H27371   4.384  11.305   0.970  1.5840  1.3975 -1.8300
  203MOL0     H27372   4.448  11.251   1.135 -3.8569  0.7972  0.0678
  203MOL0     H27373   4.661  11.389   1.091  1.7000 -0.6588 -2.5902
  203MOL0     H27374   4.601  11.413   0.930 -0.4417  1.8481 -0.0401
  203MOL0     H27375   4.398  11.532   1.055 -0.2012 -1.7413  1.7608
  203MOL0     H27376   4.546  11.616   1.015  2.1849 -2.2897 -1.1291
  203MOL0     H27377   4.485  11.505   1.280 -2.4301  0.0556 -2.8337
  203MOL0     H27378   4.630  11.595   1.236 -0.2906  1.6878  2.2628
  203MOL0     H27379   4.436  11.780   1.148  1.7699  1.0667  0.0524
  203MOL0     H27380   4.507  11.797   1.297  1.3480 -1.4194  0.1876
  203MOL0     H27381   4.254  11.801   1.266  0.4789  0.0781 -3.1320
  203MOL0     H27382   4.259  11.626   1.249 -3.2128  1.7192 -0.8105
  203MOL0     H27383   4.359  11.808   1.495  2.5176 -0.6492 -1.5095
  203MOL0     H27384   4.372  11.639   1.487 -1.3632 -0.6055 -0.9587
  203MOL0     H27385   4.102  11.765   1.492 -0.3757 -0.1911 -0.1035
  203MOL0     H27386   4.205  11.703   1.625  1.8669 -2.0483 -0.3887
  203MOL0     H27387   4.669  10.995   1.044 -0.4907  0.2918  2.5526
  203MOL0     H27388   4.601  10.743   1.069 -1.8626 -2.0542 -0.6288
  203MOL0     H27389   4.195  10.506   1.212 -0.2469  0.5394 -1.3162
  203MOL0     H27390   4.105  10.303   1.277  0.5660  0.8115  0.3086
  203MOL0     H27391   3.234  10.169   0.652  0.7374 -0.1138 -0.1666
  203MOL0     H27392   3.038  10.304   0.575  0.8258 -1.2862 -1.4870
  203MOL0     H27393   2.678  10.645   0.802  1.1587 -1.6118  0.2319
  203MOL0     H27394   2.479  10.752   0.745  1.1374  1.4546 -1.9288
  203MOL0     H27395   2.208  10.543   0.511 -2.6282  0.4259 -1.0461
  203MOL0     H27396   2.109  10.503   0.654 -0.2993  1.0715  0.6386
  203MOL0     H27397   2.034  10.749   0.646  0.1418 -1.8368  0.9044
  203MOL0     H27398   1.976  10.634   0.513  0.5990 -1.1054  0.4311
  203MOL0     H27399   2.102  10.751   0.356  2.6257  0.9287 -0.7812
  203MOL0     H27400   2.233  10.796   0.462 -0.3008 -1.5714 -1.7692
  203MOL0     H27401   1.967  10.919   0.454 -0.2984 -1.1966  0.0932
  203MOL0     H27402   2.093  10.973   0.348 -0.5711  1.0252 -0.2476
  203MOL0     H27403   2.223  11.136   0.728  0.1432  0.4563  0.5737
  203MOL0     H27404   2.300  10.377   0.651  0.8607 -2.1967  0.0530
  203MOL0     H27405   2.523  10.264   0.696  2.0246  0.7681 -2.7619
  204MOL0     O27406  10.155   9.535   9.844  0.2447  0.7197  0.1168
  204MOL0     C27407  10.160   9.643   9.901  0.0826  0.2700 -0.6763
  204MOL0     O27408  10.052   9.697   9.979 -0.2928 -0.1091  0.1154
  204MOL0     C27409   9.938   9.618   9.996 -0.0491 -0.7385  0.7671
  204MOL0     C27410   9.935   9.480  10.021 -1.8548  0.6374 -0.5325
  204MOL0     C27411   9.816   9.422  10.061 -0.5144 -0.0852  0.6944
  204MOL0     C27412   9.693   9.486  10.044  0.1463  0.3160 -0.7154
  204MOL0     O27413   9.575   9.415  10.075 -0.2341 -0.9772 -0.5464
  204MOL0     C27414   9.450   9.482  10.053  0.4454  0.2880 -0.2201
  204MOL0     C27415   9.345   9.362  10.040 -0.1987 -0.1670  0.5631
  204MOL0     C27416   9.323   9.293  10.170 -0.1340  0.8854  0.5742
  204MOL0     C27417   9.202   9.200  10.164  0.2765 -0.4083 -0.5034
  204MOL0     C27418   9.185   9.095  10.278 -0.1539  0.2025 -0.4926
  204MOL0     C27419   9.224   9.162  10.407  0.6327 -0.7503 -0.1898
  204MOL0     C27420   9.168   9.080  10.522  0.6247  0.5863 -0.8749
  204MOL0     C27421   9.187   8.924  10.513 -0.0457 -0.0651 -0.7288
  204MOL0     N27422   9.322   8.878  10.573  0.4657 -0.6232 -0.6343
  204MOL0     C27423   9.368   8.863  10.701 -0.3523  0.3865  0.5094
  204MOL0     C27424   9.497   8.830  10.682 -0.5344 -0.1999 -0.0317
  204MOL0     C27425   9.594   8.795  10.798  0.1771  0.7331 -0.9120
  204MOL0     C27426   9.685   8.685  10.770 -0.5531  0.0282 -0.0228
  204MOL0     C27427   9.611   8.554  10.780 -0.2957 -0.1481 -0.7337
  204MOL0     C27428   9.695   8.425  10.780 -0.6438  0.5716 -0.7692
  204MOL0     O27429   9.793   8.445  10.878 -0.5486  0.2392  0.0833
  204MOL0     C27430   9.779   8.458  11.013 -1.1046  0.0672 -0.2320
  204MOL0     C27431   9.897   8.503  11.070 -0.2759 -0.3416 -0.4499
  204MOL0     C27432   9.918   8.537  11.205 -0.1200  0.6169 -0.1533
  204MOL0     C27433  10.042   8.587  11.261 -0.2479  0.1087 -0.1598
  204MOL0     C27434   9.800   8.520  11.286  0.2868 -0.3280 -0.9806
  204MOL0     C27435   9.793   8.550  11.431 -0.0471 -0.0231  0.4844
  204MOL0     O27436   9.668   8.559  11.484  0.3450 -0.3739  0.2829
  204MOL0     C27437   9.657   8.608  11.611  0.1578 -1.3017 -0.5799
  204MOL0     C27438   9.737   8.715  11.659  0.5067  0.5418 -0.6004
  204MOL0     C27439   9.722   8.753  11.794 -0.5701 -0.3728  0.1642
  204MOL0     C27440   9.641   8.686  11.882  0.3524 -0.5360 -0.7122
  204MOL0     O27441   9.617   8.726  12.012  0.6630 -0.0730 -0.3642
  204MOL0     C27442   9.725   8.776  12.085 -0.2402 -0.3342  0.7100
  204MOL0     C27443   9.686   8.833  12.221  1.4852 -0.0434 -0.7089
  204MOL0     C27444   9.557   8.925  12.219 -0.3623 -0.0259 -0.2573
  204MOL0     C27445   9.521   8.972  12.356  0.6817 -0.1436  0.4240
  204MOL0     C27446   9.399   9.075  12.359  0.5388  0.4913 -0.7869
  204MOL0     C27447   9.264   9.012  12.335  0.5569  1.0521  0.4592
  204MOL0     C27448   9.147   9.114  12.350  0.7024 -0.8866  0.1226
  204MOL0     C27449   9.014   9.054  12.325  1.0145  0.3558  1.0038
  204MOL0    Cl27450   8.986   8.979  12.153 -0.4128  0.2212 -0.3162
  204MOL0     C27451   9.567   8.583  11.829  0.7494  0.3691  0.3594
  204MOL0     C27452   9.570   8.537  11.700 -0.1434 -0.3459 -0.3891
  204MOL0     O27453   9.897   8.555  11.497  0.4537 -0.1843  0.2214
  204MOL0     C27454   9.679   8.479  11.225  0.3884  0.3046 -0.3972
  204MOL0     C27455   9.672   8.442  11.091  0.1575  0.1750  0.2622
  204MOL0     N27456   9.528   8.814  10.549  0.3883  0.1726 -0.1769
  204MOL0     N27457   9.424   8.840  10.491  0.1748 -0.0489  0.2573
  204MOL0     C27458   9.688   9.621  10.007 -1.0554  0.9762  0.9321
  204MOL0     C27459   9.815   9.680   9.989 -0.7978  0.7362 -0.1771
  204MOL0     C27460  10.266   9.732   9.860 -0.4133 -0.3594 -1.1453
  204MOL0     C27461  10.374   9.704   9.768  0.1603 -0.1528 -0.2847
  204MOL0     C27462  10.458   9.805   9.736 -0.6180 -1.2736  1.0440
  204MOL0     C27463  10.442   9.945   9.780 -0.2718 -0.0436  0.3505
  204MOL0     O27464  10.530  10.054   9.770 -0.5209  0.9669  0.2112
  204MOL0     C27465  10.621  10.040   9.653 -0.0720 -0.2742 -0.6489
  204MOL0     C27466  10.660  10.178   9.605 -0.3891 -0.4153  0.3465
  204MOL0     C27467  10.668  10.295   9.707  1.3780  0.3727 -0.0031
  204MOL0     C27468  10.764  10.249   9.817 -0.0325  0.7043  0.1355
  204MOL0     C27469  10.895  10.208   9.763 -0.9579  0.6638  0.0960
  204MOL0     C27470  10.997  10.161   9.718 -0.3544 -1.0250  0.2123
  204MOL0     C27471  10.344   9.970   9.880  0.5923  0.0530 -0.1808
  204MOL0     C27472  10.256   9.865   9.918 -0.8399  0.8987  1.4532
  204MOL0     H27473  10.028   9.424  10.029 -2.0837  0.3775  0.4261
  204MOL0     H27474   9.828   9.322  10.103  3.1147  0.1700  0.5292
  204MOL0     H27475   9.429   9.539  10.144  0.0939 -1.5615  0.9154
  204MOL0     H27476   9.455   9.544   9.963  0.8447  0.1536 -0.2928
  204MOL0     H27477   9.253   9.400   9.996 -1.5825 -4.9646 -1.3445
  204MOL0     H27478   9.376   9.287   9.966 -0.6627 -0.1229  0.3223
  204MOL0     H27479   9.402   9.219  10.187 -3.8549 -4.1756 -1.6106
  204MOL0     H27480   9.331   9.363  10.253  0.2635  1.8904 -0.2776
  204MOL0     H27481   9.121   9.274  10.165  1.7531  1.3042  2.0268
  204MOL0     H27482   9.213   9.147  10.068  0.8236 -1.1766 -0.0284
  204MOL0     H27483   9.083   9.058  10.290  0.4996 -1.4099  0.4060
  204MOL0     H27484   9.253   9.009  10.268 -1.2797 -0.8345  0.4346
  204MOL0     H27485   9.332   9.180  10.411  0.4176  1.8674 -3.0620
  204MOL0     H27486   9.168   9.256  10.402 -0.5024 -1.4835 -2.9544
  204MOL0     H27487   9.223   9.114  10.610  3.2628 -0.3891 -2.0379
  204MOL0     H27488   9.060   9.098  10.524  0.6248  0.9375 -2.6774
  204MOL0     H27489   9.170   8.888  10.411 -1.8726 -0.2970 -0.3750
  204MOL0     H27490   9.108   8.871  10.567 -1.4424  0.0640 -2.5366
  204MOL0     H27491   9.317   8.875  10.797 -2.0124  2.2849 -0.5300
  204MOL0     H27492   9.651   8.882  10.831 -0.2139  1.2530 -1.5739
  204MOL0     H27493   9.537   8.767  10.887 -0.4183  0.9169 -1.2333
  204MOL0     H27494   9.772   8.687  10.836 -1.5480 -0.3932  1.3356
  204MOL0     H27495   9.710   8.683  10.664  3.5817 -1.0242  0.8114
  204MOL0     H27496   9.538   8.550  10.699 -0.8357 -3.0885 -0.1933
  204MOL0     H27497   9.551   8.548  10.871  1.0476  1.1721  0.3010
  204MOL0     H27498   9.745   8.409  10.684  1.7204  1.4102  0.2492
  204MOL0     H27499   9.633   8.340  10.809  2.4704 -2.2062 -1.6624
  204MOL0     H27500   9.974   8.522  10.995  0.5732  0.2491  0.5428
  204MOL0     H27501  10.067   8.514  11.338 -3.0523 -0.7300  0.0727
  204MOL0     H27502  10.123   8.591  11.189 -1.1784  1.4590 -1.1864
  204MOL0     H27503  10.012   8.689  11.287 -0.5402  0.0546 -0.2783
  204MOL0     H27504   9.808   8.763  11.592 -0.0892  0.8835 -0.9960
  204MOL0     H27505   9.768   8.850  11.807 -0.0427 -0.3792 -1.4681
  204MOL0     H27506   9.806   8.703  12.091  0.6573  0.7019  1.7038
  204MOL0     H27507   9.768   8.860  12.028  0.4735 -0.9334  0.3535
  204MOL0     H27508   9.664   8.753  12.293  0.2035  0.2317 -0.7760
  204MOL0     H27509   9.769   8.895  12.255  0.8788  0.1911  0.3853
  204MOL0     H27510   9.485   8.860  12.169  0.3607  1.2866 -3.2007
  204MOL0     H27511   9.573   9.013  12.155 -0.6346 -1.4865 -2.4526
  204MOL0     H27512   9.503   8.892  12.428 -1.2695  1.4306  1.8265
  204MOL0     H27513   9.607   9.030  12.390 -0.3102  1.5016  0.2415
  204MOL0     H27514   9.407   9.158  12.288  0.2658  1.7829  0.6369
  204MOL0     H27515   9.399   9.117  12.460  0.3152  2.4799 -1.5811
  204MOL0     H27516   9.258   8.965  12.236  0.5523 -3.6724  2.4363
  204MOL0     H27517   9.263   8.932  12.410 -1.5758  0.4456 -0.1333
  204MOL0     H27518   9.156   9.193  12.274 -1.1871 -0.2640  0.4955
  204MOL0     H27519   9.154   9.173  12.442 -0.4141  0.7084 -0.7478
  204MOL0     H27520   8.938   9.132  12.332  1.2299  0.6222  0.4672
  204MOL0     H27521   9.001   8.983  12.407 -0.4926  2.6601  2.9351
  204MOL0     H27522   9.490   8.549  11.898  0.9199 -0.8223 -0.0206
  204MOL0     H27523   9.502   8.460  11.665 -0.7000  0.5107 -1.2459
  204MOL0     H27524   9.582   8.492  11.272  0.4209  4.6316 -1.1107
  204MOL0     H27525   9.578   8.413  11.045  1.6104 -1.4954 -1.8370
  204MOL0     H27526   9.599   9.682   9.996 -0.1978  2.5746  2.3785
  204MOL0     H27527   9.813   9.785   9.964 -1.0767  0.1206 -3.1125
  204MOL0     H27528  10.401   9.604   9.735  2.8290  0.3284  0.1680
  204MOL0     H27529  10.538   9.792   9.665  0.0478  0.8825  1.3317
  204MOL0     H27530  10.707   9.991   9.700 -0.2831  1.8338  2.2280
  204MOL0     H27531  10.584   9.983   9.567 -0.5886  0.3731 -0.8604
  204MOL0     H27532  10.602  10.207   9.516  3.2732 -2.1225 -2.9129
  204MOL0     H27533  10.757  10.167   9.554 -1.3637 -0.1229 -1.6621
  204MOL0     H27534  10.568  10.315   9.746  0.6930 -2.3759 -0.0997
  204MOL0     H27535  10.700  10.386   9.655  2.4331 -1.1739 -2.2580
  204MOL0     H27536  10.745  10.161   9.880  0.3733  0.3250 -0.2639
  204MOL0     H27537  10.789  10.332   9.883 -0.5995 -0.7211  2.2689
  204MOL0     H27538  11.080  10.117   9.666 -1.4301  0.3389 -2.8503
  204MOL0     H27539  10.339  10.064   9.936  1.9649  0.4808 -0.7272
  204MOL0     H27540  10.176   9.889   9.988 -2.8066  2.5685 -1.1901
  205MOL0     O27541   3.424   1.733   2.198  0.1363 -0.2039  0.0382
  205MOL0     C27542   3.472   1.849   2.213  0.4245  0.0448 -0.0772
  205MOL0     O27543   3.407   1.959   2.258 -0.0664 -0.7319  0.1124
  205MOL0     C27544   3.276   1.948   2.283 -0.3354  0.9689  0.0055
  205MOL0     C27545   3.241   1.917   2.414 -0.0137 -0.0278  1.0258
  205MOL0     C27546   3.114   1.917   2.440  0.0248  1.1256 -0.1918
  205MOL0     C27547   3.013   1.931   2.347  0.0845 -0.1722  0.2482
  205MOL0     O27548   2.884   1.908   2.383  0.7259  0.4808 -0.3663
  205MOL0     C27549   2.845   1.777   2.343 -0.4022  0.3042 -0.3640
  205MOL0     C27550   2.711   1.753   2.414 -0.4533 -0.3451  0.2148
  205MOL0     C27551   2.594   1.789   2.331  0.3098  0.2724 -0.2935
  205MOL0     C27552   2.476   1.717   2.390  0.8010  0.2274 -0.8223
  205MOL0     C27553   2.359   1.740   2.298 -0.2715 -0.2034  0.9158
  205MOL0     C27554   2.229   1.699   2.350  1.9437 -1.2305 -0.0417
  205MOL0     C27555   2.159   1.820   2.408  0.4646 -0.8904  0.4941
  205MOL0     C27556   2.016   1.795   2.469 -0.5495 -0.6777 -0.6620
  205MOL0     N27557   1.937   1.709   2.379 -0.8573 -0.2307 -0.4626
  205MOL0     C27558   1.915   1.724   2.238 -0.1893 -0.0184 -0.1024
  205MOL0     C27559   1.839   1.624   2.195 -0.3768  0.4840 -0.1868
  205MOL0     C27560   1.790   1.607   2.057 -0.1549 -0.4106 -0.5894
  205MOL0     C27561   1.648   1.556   2.076 -0.0522  0.3576 -0.0194
  205MOL0     C27562   1.579   1.530   1.941 -1.0658 -0.7469  0.1199
  205MOL0     C27563   1.472   1.423   1.954 -0.4513  0.3480 -0.7152
  205MOL0     O27564   1.373   1.424   1.855  0.0167  0.3216 -0.9044
  205MOL0     C27565   1.247   1.448   1.887 -0.1751 -0.1127 -0.6403
  205MOL0     C27566   1.174   1.557   1.842  0.4510  0.8445 -0.4136
  205MOL0     C27567   1.034   1.562   1.845  1.1536  0.7662  0.3005
  205MOL0     C27568   0.957   1.674   1.778 -0.2154 -0.0521 -0.7877
  205MOL0     C27569   0.971   1.468   1.928 -1.6189 -0.4091  0.3050
  205MOL0     C27570   0.827   1.450   1.926  0.8070 -0.2919 -0.6033
  205MOL0     O27571   0.759   1.465   1.814  0.2958  0.0628  0.6037
  205MOL0     C27572   0.644   1.397   1.793 -0.6120 -0.9395 -1.2067
  205MOL0     C27573   0.652   1.266   1.774  0.2551 -0.5042  0.0409
  205MOL0     C27574   0.535   1.185   1.746 -0.2726  0.4044  0.1134
  205MOL0     C27575   0.408   1.246   1.729 -0.4446  0.8425 -0.1406
  205MOL0     O27576   0.296   1.182   1.690  0.1305  0.1077  0.6790
  205MOL0     C27577   0.290   1.042   1.654  0.5950  0.0885 -0.1283
  205MOL0     C27578   0.146   1.027   1.597  0.7286 -0.0537 -0.1774
  205MOL0     C27579   0.086   0.881   1.579  0.7250  0.8917 -0.0553
  205MOL0     C27580   0.164   0.801   1.479 -0.6965  0.5500  0.3397
  205MOL0     C27581   0.122   0.821   1.331  0.8807  0.1282 -0.2366
  205MOL0     C27582  -0.023   0.774   1.295 -0.1953  0.6042  0.6699
  205MOL0     C27583  -0.051   0.796   1.144 -0.5025  0.4194  0.1013
  205MOL0     C27584  -0.190   0.724   1.109 -0.1075  0.3856 -0.7922
  205MOL0    Cl27585  -0.178   0.683   0.940  0.0876  0.6715  0.3836
  205MOL0     C27586   0.398   1.381   1.751 -0.7715  0.9328 -0.3149
  205MOL0     C27587   0.517   1.454   1.773  0.5253  0.8931 -0.1088
  205MOL0     O27588   0.773   1.421   2.033  0.4440  0.4604  0.2007
  205MOL0     C27589   1.047   1.359   1.984 -0.1481  0.4234 -0.5571
  205MOL0     C27590   1.182   1.350   1.964 -0.5480 -0.1578  0.0960
  205MOL0     N27591   1.817   1.547   2.300  0.1701  0.3800 -0.3502
  205MOL0     N27592   1.872   1.597   2.411 -0.4952  0.2798  0.5090
  205MOL0     C27593   3.047   1.973   2.217  0.3262  0.4270 -1.0027
  205MOL0     C27594   3.178   1.978   2.189  1.1274 -0.1492 -0.1290
  205MOL0     C27595   3.613   1.864   2.177 -0.5282  0.2906  0.3549
  205MOL0     C27596   3.665   1.992   2.154 -0.7163 -0.5445  0.0391
  205MOL0     C27597   3.804   2.006   2.141  0.3137  0.5385 -0.4539
  205MOL0     C27598   3.894   1.901   2.132  1.4042 -0.5273  0.8879
  205MOL0     O27599   4.027   1.934   2.123 -0.5370 -0.5150  0.2569
  205MOL0     C27600   4.112   1.849   2.207  0.1444  0.1821  0.4341
  205MOL0     C27601   4.260   1.860   2.183  0.0658  0.4819  0.1421
  205MOL0     C27602   4.284   1.797   2.041  0.2021 -0.3212 -0.2305
  205MOL0     C27603   4.434   1.761   2.011 -0.7964 -0.2073  0.8674
  205MOL0     C27604   4.525   1.868   2.070  0.8400 -0.8038  0.0234
  205MOL0     C27605   4.594   1.945   2.134 -0.5498 -0.5957  0.7346
  205MOL0     C27606   3.836   1.771   2.151  0.5287  0.4469 -1.5621
  205MOL0     C27607   3.699   1.749   2.170  0.3093 -0.8608  0.5765
  205MOL0     H27608   3.316   1.901   2.491  0.4376  0.6853  0.7327
  205MOL0     H27609   3.081   1.896   2.542  1.9444  0.5639  0.3524
  205MOL0     H27610   2.844   1.783   2.234 -1.1900 -0.5829 -0.4275
  205MOL0     H27611   2.928   1.715   2.378  0.2377  1.1817 -0.2973
  205MOL0     H27612   2.722   1.646   2.436  2.8009  0.2603  2.1545
  205MOL0     H27613   2.708   1.801   2.512 -2.9883 -0.1303  0.0913
  205MOL0     H27614   2.579   1.897   2.329 -2.4164  0.0687  1.8329
  205MOL0     H27615   2.605   1.748   2.230 -1.8180 -2.1694  0.3473
  205MOL0     H27616   2.473   1.608   2.382 -1.8244  0.0191  1.5369
  205MOL0     H27617   2.446   1.744   2.492 -1.0021 -4.3815  0.1301
  205MOL0     H27618   2.358   1.841   2.256  1.8855 -1.1272 -1.6533
  205MOL0     H27619   2.376   1.679   2.209 -0.9667 -1.0576  1.3499
  205MOL0     H27620   2.176   1.661   2.262 -0.0190 -1.1261  1.0303
  205MOL0     H27621   2.245   1.614   2.418  3.0995 -0.2148  1.0009
  205MOL0     H27622   2.219   1.859   2.491  0.9314  0.5856 -0.4942
  205MOL0     H27623   2.152   1.893   2.327 -1.5551 -2.0745 -0.4730
  205MOL0     H27624   1.962   1.890   2.476  1.0495  0.1295  2.4376
  205MOL0     H27625   2.018   1.751   2.570  1.9063  0.4618 -0.1547
  205MOL0     H27626   1.954   1.801   2.172  1.1929 -0.9361 -0.4033
  205MOL0     H27627   1.788   1.702   2.003  3.8084  0.4576  0.4762
  205MOL0     H27628   1.857   1.543   1.999  1.6221  1.6820 -0.9727
  205MOL0     H27629   1.585   1.631   2.126  2.7291  2.6632  0.2706
  205MOL0     H27630   1.640   1.466   2.139  0.4031  0.1361 -0.2760
  205MOL0     H27631   1.648   1.500   1.862 -1.4491  2.2402 -1.5056
  205MOL0     H27632   1.521   1.614   1.901  1.6847  0.4735 -1.6178
  205MOL0     H27633   1.430   1.426   2.055 -0.4445  1.4985 -0.7336
  205MOL0     H27634   1.507   1.320   1.961 -3.4624 -0.6493  1.8279
  205MOL0     H27635   1.214   1.636   1.779 -2.9498  0.7059 -3.0818
  205MOL0     H27636   0.934   1.621   1.686  0.3176 -1.9888  0.1336
  205MOL0     H27637   0.867   1.713   1.825 -0.9662 -2.0760 -0.4705
  205MOL0     H27638   1.031   1.753   1.761  0.3487 -0.6231 -1.0332
  205MOL0     H27639   0.744   1.213   1.797 -0.1118 -0.3376  2.0345
  205MOL0     H27640   0.545   1.078   1.739 -1.5260  0.2692  0.1761
  205MOL0     H27641   0.360   1.011   1.575 -1.9302 -3.0616 -1.3517
  205MOL0     H27642   0.301   0.973   1.738  0.6312  1.8324  1.3618
  205MOL0     H27643   0.080   1.081   1.667  0.2581 -2.8556  1.7057
  205MOL0     H27644   0.129   1.073   1.500  0.3164 -0.9663 -0.5512
  205MOL0     H27645  -0.019   0.895   1.552  0.5930 -1.1179 -0.7145
  205MOL0     H27646   0.093   0.839   1.679  0.3293 -1.0710 -0.8218
  205MOL0     H27647   0.269   0.821   1.501  0.8937 -1.9018 -3.8502
  205MOL0     H27648   0.148   0.693   1.489  0.6237  0.1570 -1.4212
  205MOL0     H27649   0.186   0.754   1.274 -1.3230 -0.8018 -1.7476
  205MOL0     H27650   0.145   0.924   1.303 -1.6968  1.0288  0.6826
  205MOL0     H27651  -0.033   0.666   1.311 -0.7914  0.6396  0.5858
  205MOL0     H27652  -0.098   0.828   1.355  0.0897  1.1073  0.5804
  205MOL0     H27653   0.031   0.763   1.080 -2.9975  0.5768 -3.4711
  205MOL0     H27654  -0.070   0.902   1.125 -1.1135  0.3442  0.2761
  205MOL0     H27655  -0.271   0.795   1.127 -3.0026 -2.8218 -0.1098
  205MOL0     H27656  -0.210   0.630   1.162  1.8329  1.1496  1.4723
  205MOL0     H27657   0.309   1.443   1.744  0.7572  3.0620 -2.1633
  205MOL0     H27658   0.511   1.563   1.774 -1.1576  0.8290  0.6428
  205MOL0     H27659   0.986   1.286   2.036  0.5646 -0.0990 -0.4427
  205MOL0     H27660   1.236   1.264   2.002  0.0547  0.9494  1.8333
  205MOL0     H27661   2.972   1.980   2.139  0.6408 -0.5846 -1.4074
  205MOL0     H27662   3.208   2.005   2.088  1.4759  0.1545  0.0520
  205MOL0     H27663   3.609   2.085   2.149 -1.1350 -0.7895  0.1212
  205MOL0     H27664   3.839   2.108   2.155  1.7480  0.6533 -3.7292
  205MOL0     H27665   4.094   1.874   2.312  1.9979  0.1993  0.7864
  205MOL0     H27666   4.092   1.742   2.195  2.3470 -0.3484  1.0512
  205MOL0     H27667   4.306   1.799   2.260  1.8979  0.9693 -0.4950
  205MOL0     H27668   4.293   1.964   2.192  0.9029  0.3794 -1.3761
  205MOL0     H27669   4.251   1.856   1.955  0.4908  0.4871  0.2066
  205MOL0     H27670   4.230   1.703   2.029 -2.6916  1.2568 -0.3387
  205MOL0     H27671   4.451   1.751   1.903 -6.0080 -2.8352 -0.0610
  205MOL0     H27672   4.457   1.668   2.064  4.1040  1.1803  1.6837
  205MOL0     H27673   4.669   1.998   2.189 -1.8089 -0.5991  2.5387
  205MOL0     H27674   3.899   1.683   2.163 -1.3506 -0.5405  3.2315
  205MOL0     H27675   3.659   1.649   2.183  2.9056 -2.2116 -0.8556
  206MOL0     O27676   9.305   5.430   4.015 -0.2369  0.9857 -0.6995
  206MOL0     C27677   9.426   5.421   4.025  0.4427 -0.1588 -1.1673
  206MOL0     O27678   9.516   5.519   3.987 -0.1769 -0.1997 -0.0079
  206MOL0     C27679   9.456   5.623   3.923 -0.4784 -0.1229  0.0138
  206MOL0     C27680   9.399   5.725   3.999  0.3961 -0.0377 -1.0318
  206MOL0     C27681   9.348   5.834   3.935 -0.1719 -0.8544 -0.1448
  206MOL0     C27682   9.369   5.852   3.800 -1.3986  0.1656  0.5653
  206MOL0     O27683   9.328   5.961   3.732 -0.0467  0.1102 -0.2833
  206MOL0     C27684   9.324   6.087   3.806 -0.1154 -0.7321 -0.1574
  206MOL0     C27685   9.327   6.222   3.724  0.6272 -0.2952 -0.0633
  206MOL0     C27686   9.181   6.247   3.661 -0.7669 -0.1050  0.0359
  206MOL0     C27687   9.086   6.310   3.758 -0.0400  0.5958 -0.9808
  206MOL0     C27688   8.930   6.302   3.721 -0.2246  0.0971 -0.4742
  206MOL0     C27689   8.880   6.161   3.690 -0.3762  0.0184  0.2525
  206MOL0     C27690   8.884   6.068   3.812  0.2007  1.0869  0.4990
  206MOL0     C27691   8.786   5.953   3.806 -0.3556 -0.2062 -0.2725
  206MOL0     N27692   8.654   5.976   3.854  0.0820 -0.2992  0.3831
  206MOL0     C27693   8.563   6.067   3.808 -0.5240  0.0831  0.3638
  206MOL0     C27694   8.463   6.081   3.896 -0.3725 -0.1881  0.1745
  206MOL0     C27695   8.348   6.165   3.876  0.0760  0.3760 -0.6413
  206MOL0     C27696   8.314   6.266   3.983  0.0592  0.2933 -0.0207
  206MOL0     C27697   8.161   6.275   3.999 -0.0961 -0.6352  0.4217
  206MOL0     C27698   8.109   6.365   3.882 -0.0226  0.4523 -0.5728
  206MOL0     O27699   8.109   6.298   3.763  0.1499  0.0261  1.0760
  206MOL0     C27700   7.990   6.253   3.710 -0.4598  0.3404 -0.0178
  206MOL0     C27701   7.959   6.261   3.575 -0.0321  0.0542  0.0635
  206MOL0     C27702   7.836   6.210   3.522 -0.1295 -0.3357 -0.7091
  206MOL0     C27703   7.828   6.213   3.370 -0.7326  0.0952 -0.2786
  206MOL0     C27704   7.736   6.160   3.608  0.4973  0.3088  0.0023
  206MOL0     C27705   7.596   6.116   3.566 -0.0170  0.4367  0.1727
  206MOL0     O27706   7.519   6.066   3.668  0.1527 -0.8771 -0.3984
  206MOL0     C27707   7.383   6.053   3.648  0.9506  0.0828  0.0854
  206MOL0     C27708   7.297   6.137   3.570  0.3408 -0.6674 -0.2110
  206MOL0     C27709   7.166   6.096   3.550 -0.4200 -0.4023 -0.6768
  206MOL0     C27710   7.110   5.979   3.612 -0.7889  0.5947  0.2761
  206MOL0     O27711   6.977   5.933   3.596  0.5451  0.4190 -1.1599
  206MOL0     C27712   6.903   5.977   3.486 -0.1697 -0.1621  0.0579
  206MOL0     C27713   6.819   6.100   3.524  0.3316  0.2538 -0.1475
  206MOL0     C27714   6.725   6.084   3.650  0.0553  0.8082  0.5479
  206MOL0     C27715   6.656   6.219   3.684  0.3734  0.0152 -0.2570
  206MOL0     C27716   6.590   6.221   3.832  0.4739 -0.1896  0.1394
  206MOL0     C27717   6.699   6.226   3.940  0.2388 -0.0882 -0.3172
  206MOL0     C27718   6.652   6.166   4.074  0.0955 -0.2891  1.2798
  206MOL0     C27719   6.576   6.276   4.157 -0.3513  0.9133 -0.4587
  206MOL0    Cl27720   6.687   6.387   4.231  0.5211 -0.1368  0.3752
  206MOL0     C27721   7.190   5.900   3.685 -0.2985 -0.1631  0.4079
  206MOL0     C27722   7.325   5.931   3.693  0.0744  0.2180 -0.9922
  206MOL0     O27723   7.564   6.144   3.451  0.4097 -0.5745 -0.3282
  206MOL0     C27724   7.763   6.151   3.742  0.3748 -0.2630  0.0280
  206MOL0     C27725   7.887   6.198   3.788 -0.0583 -0.1876 -0.7909
  206MOL0     N27726   8.499   6.005   4.009  0.2630 -0.0606  0.2516
  206MOL0     N27727   8.610   5.949   3.969 -0.0903  0.4890 -1.0724
  206MOL0     C27728   9.426   5.747   3.727 -0.1697 -0.5518  0.1324
  206MOL0     C27729   9.467   5.630   3.787 -0.4076 -0.3891  0.3874
  206MOL0     C27730   9.480   5.302   4.086 -0.6712  0.2826  0.0699
  206MOL0     C27731   9.405   5.183   4.100  0.1837 -0.8569 -0.3996
  206MOL0     C27732   9.454   5.074   4.166 -0.0212 -0.2974 -0.6947
  206MOL0     C27733   9.573   5.085   4.235  0.2184  0.5423  0.0933
  206MOL0     O27734   9.608   4.986   4.324 -0.3786  0.1378  1.0544
  206MOL0     C27735   9.711   5.010   4.420 -0.3767  0.0798 -0.1948
  206MOL0     C27736   9.732   4.884   4.509  0.0219 -0.3945 -0.1724
  206MOL0     C27737   9.596   4.834   4.556  0.4689 -0.0018  0.0862
  206MOL0     C27738   9.628   4.725   4.666  0.5160  0.2745 -0.0652
  206MOL0     C27739   9.505   4.730   4.743 -0.3679 -0.3056 -0.2654
  206MOL0     C27740   9.413   4.718   4.822 -0.3154  0.0058 -0.2716
  206MOL0     C27741   9.652   5.195   4.214 -0.3728  0.3543 -0.2856
  206MOL0     C27742   9.609   5.306   4.140 -1.1066  1.4348  0.1312
  206MOL0     H27743   9.399   5.721   4.107  3.1273  2.4142 -0.7976
  206MOL0     H27744   9.290   5.912   3.984 -1.1541  1.4804 -4.4975
  206MOL0     H27745   9.231   6.080   3.864 -0.4831 -2.7864 -0.9003
  206MOL0     H27746   9.406   6.110   3.874  0.5277  3.9858 -2.1386
  206MOL0     H27747   9.350   6.299   3.799 -4.1239  0.6357  0.8051
  206MOL0     H27748   9.397   6.221   3.640  0.5249 -1.8999 -0.1515
  206MOL0     H27749   9.192   6.314   3.575 -0.6621 -1.1903 -0.8265
  206MOL0     H27750   9.140   6.154   3.619 -2.2343  1.5562 -2.5134
  206MOL0     H27751   9.106   6.268   3.857  2.5380  1.3149 -1.1354
  206MOL0     H27752   9.131   6.409   3.763 -0.4463  0.7136  2.7774
  206MOL0     H27753   8.867   6.345   3.799  0.6825  3.6428 -1.4938
  206MOL0     H27754   8.910   6.366   3.634 -0.8122  1.1440  0.4168
  206MOL0     H27755   8.781   6.194   3.658 -0.5940 -0.5618  0.3166
  206MOL0     H27756   8.927   6.108   3.607 -4.5188 -2.2373 -0.9483
  206MOL0     H27757   8.984   6.025   3.814 -1.4037 -3.0606  0.6117
  206MOL0     H27758   8.870   6.130   3.902  1.7930 -0.4666  1.9015
  206MOL0     H27759   8.817   5.865   3.863 -0.2345  0.1054  0.1470
  206MOL0     H27760   8.782   5.935   3.698 -1.7699  3.8585 -1.1123
  206MOL0     H27761   8.568   6.121   3.714 -1.0045  3.7626  2.2788
  206MOL0     H27762   8.369   6.213   3.780  1.0404  0.9567 -0.1497
  206MOL0     H27763   8.262   6.100   3.855 -1.1674  1.4976  0.7818
  206MOL0     H27764   8.350   6.368   3.965  0.0251  0.2264 -0.4808
  206MOL0     H27765   8.356   6.243   4.081 -2.3047  1.8722  1.4777
  206MOL0     H27766   8.136   6.338   4.085  2.7539  0.6304  0.4491
  206MOL0     H27767   8.107   6.180   4.004 -3.5810  1.0426 -1.2879
  206MOL0     H27768   8.169   6.457   3.878 -1.2668  1.3743  0.6771
  206MOL0     H27769   8.007   6.402   3.898  0.5955  1.3238  1.7947
  206MOL0     H27770   8.037   6.298   3.508 -0.8433 -0.4802 -1.2130
  206MOL0     H27771   7.775   6.300   3.328  0.9002  0.3787 -1.8604
  206MOL0     H27772   7.926   6.224   3.323 -1.0101  0.5728 -0.7626
  206MOL0     H27773   7.789   6.118   3.334  1.7170 -1.7673  1.6237
  206MOL0     H27774   7.336   6.226   3.520  0.4681  0.0197  1.0488
  206MOL0     H27775   7.121   6.168   3.482 -1.0119 -0.4303 -0.3254
  206MOL0     H27776   6.972   5.991   3.401 -0.0869  0.7259  0.2643
  206MOL0     H27777   6.836   5.894   3.459  1.9901 -1.5751 -1.3144
  206MOL0     H27778   6.894   6.173   3.556  0.5885 -0.2213  0.3458
  206MOL0     H27779   6.768   6.144   3.438 -0.6999  2.0382  1.3302
  206MOL0     H27780   6.791   6.047   3.729 -1.4391  0.2505  1.5803
  206MOL0     H27781   6.650   6.006   3.634  0.0648  0.3071  2.6352
  206MOL0     H27782   6.727   6.302   3.684 -2.2720  2.4512  0.0414
  206MOL0     H27783   6.581   6.243   3.607  1.6767  0.0558 -1.5683
  206MOL0     H27784   6.525   6.134   3.844  0.7933 -0.4917 -0.2668
  206MOL0     H27785   6.524   6.308   3.840 -0.9440 -1.1606 -0.4529
  206MOL0     H27786   6.791   6.171   3.922  1.9198  1.2999  3.1738
  206MOL0     H27787   6.743   6.326   3.939 -1.9027  0.9385  0.9889
  206MOL0     H27788   6.735   6.128   4.134  0.0340 -1.1942  0.8019
  206MOL0     H27789   6.599   6.073   4.053  1.0178 -0.4683 -0.4342
  206MOL0     H27790   6.529   6.218   4.237  4.6551 -4.5530 -0.7463
  206MOL0     H27791   6.498   6.321   4.095 -0.6011 -0.1209 -0.9267
  206MOL0     H27792   7.158   5.805   3.725 -1.8106 -0.7715 -2.0130
  206MOL0     H27793   7.383   5.862   3.755 -0.8563  0.5427  0.2828
  206MOL0     H27794   7.690   6.105   3.806 -0.6983 -1.8571 -2.2082
  206MOL0     H27795   7.896   6.204   3.896 -0.2632  0.2975 -0.8009
  206MOL0     H27796   9.434   5.757   3.619  1.3911  3.3122  0.4477
  206MOL0     H27797   9.502   5.538   3.740 -4.1074 -1.4631 -0.6219
  206MOL0     H27798   9.309   5.166   4.054  0.1388 -0.0727 -0.5994
  206MOL0     H27799   9.388   4.989   4.178  0.2341 -0.5942 -1.3392
  206MOL0     H27800   9.806   5.032   4.370  0.1028  1.8488  1.3751
  206MOL0     H27801   9.685   5.096   4.483  1.1809 -1.0339  2.1056
  206MOL0     H27802   9.791   4.923   4.591 -2.4606  2.7639  0.2936
  206MOL0     H27803   9.770   4.812   4.436 -2.0639 -0.1482 -1.5968
  206MOL0     H27804   9.541   4.782   4.477  1.9163 -1.1603 -0.2203
  206MOL0     H27805   9.543   4.916   4.604  1.2382 -0.4569  1.8049
  206MOL0     H27806   9.724   4.749   4.714  1.5064  0.0173 -1.8106
  206MOL0     H27807   9.637   4.624   4.625 -2.1129 -0.1235  0.1721
  206MOL0     H27808   9.333   4.696   4.891  0.8487 -0.5963  0.9448
  206MOL0     H27809   9.749   5.197   4.263 -0.3709  1.8091 -0.3087
  206MOL0     H27810   9.671   5.394   4.128 -0.8586  1.1726 -0.5976
  207MOL0     O27811   7.420   9.199   0.698 -0.2990  0.4689 -0.1581
  207MOL0     C27812   7.459   9.311   0.663 -0.2816 -0.0773 -0.2158
  207MOL0     O27813   7.475   9.354   0.532  0.1782  0.3852 -0.4388
  207MOL0     C27814   7.456   9.258   0.430 -0.0529  0.1905 -0.9557
  207MOL0     C27815   7.385   9.291   0.320  0.0822  0.1768 -0.0437
  207MOL0     C27816   7.367   9.201   0.211  0.0198  0.1855  0.2019
  207MOL0     C27817   7.431   9.077   0.219  0.0968 -0.1821 -0.4919
  207MOL0     O27818   7.424   9.002   0.101  0.5600  0.7548  0.4572
  207MOL0     C27819   7.461   8.859   0.109 -0.3044 -0.3536  0.3278
  207MOL0     C27820   7.377   8.782   0.017  0.7809  0.0451  0.4847
  207MOL0     C27821   7.234   8.787   0.069 -0.0257 -0.0794  0.9482
  207MOL0     C27822   7.123   8.824  -0.033 -0.2664  1.0592  0.2070
  207MOL0     C27823   6.988   8.763   0.004 -0.1585  1.1263 -0.5666
  207MOL0     C27824   6.876   8.805  -0.090 -0.5938  0.6609 -0.1518
  207MOL0     C27825   6.739   8.769  -0.031  0.0543  0.1423  0.1497
  207MOL0     C27826   6.630   8.834  -0.129 -0.3439 -0.5013 -0.1509
  207MOL0     N27827   6.502   8.861  -0.066 -0.0238  0.0329 -1.2605
  207MOL0     C27828   6.381   8.798  -0.069  0.1609  1.0238 -0.1386
  207MOL0     C27829   6.296   8.863   0.016 -0.1745 -1.2797 -0.3695
  207MOL0     C27830   6.163   8.823   0.073  0.3151  0.4331 -0.3724
  207MOL0     C27831   6.060   8.946   0.078 -0.9443  0.5562 -0.2356
  207MOL0     C27832   6.035   9.016  -0.056  0.2599 -0.0231  0.1190
  207MOL0     C27833   5.974   8.908  -0.152 -0.7791  0.1875  0.0527
  207MOL0     O27834   5.912   8.981  -0.261  0.0785  0.0967 -0.2018
  207MOL0     C27835   5.853   8.912  -0.364  0.3176  0.1130  0.8013
  207MOL0     C27836   5.852   8.982  -0.486  0.7554 -0.5218 -0.1871
  207MOL0     C27837   5.805   8.923  -0.601 -0.0908  0.3609  1.2047
  207MOL0     C27838   5.801   9.016  -0.723 -0.1582  0.0150  0.2868
  207MOL0     C27839   5.757   8.786  -0.610  0.3289 -0.5018 -0.5402
  207MOL0     C27840   5.688   8.717  -0.725 -0.0947 -0.3329 -0.9203
  207MOL0     O27841   5.650   8.797  -0.822  0.1562  0.2372  0.9243
  207MOL0     C27842   5.589   8.745  -0.935 -0.7422  0.4394  0.0256
  207MOL0     C27843   5.452   8.757  -0.939 -0.5404 -0.1944  0.1310
  207MOL0     C27844   5.383   8.730  -1.055 -0.0578  0.2145  0.0825
  207MOL0     C27845   5.451   8.675  -1.168  1.1238 -0.3665  0.0088
  207MOL0     O27846   5.381   8.622  -1.275 -0.7165  0.0969  0.4524
  207MOL0     C27847   5.272   8.701  -1.314 -0.0514  0.8614  0.1216
  207MOL0     C27848   5.212   8.619  -1.436  0.4825 -0.2669  1.0219
  207MOL0     C27849   5.109   8.703  -1.523  0.4853 -0.0780  0.3199
  207MOL0     C27850   5.006   8.625  -1.609  0.2156 -0.3392  0.4604
  207MOL0     C27851   4.939   8.729  -1.712  0.1150 -0.1182  0.5357
  207MOL0     C27852   4.873   8.648  -1.825  0.2428  0.2140 -0.7908
  207MOL0     C27853   4.783   8.734  -1.909  0.4148  0.3872  0.2260
  207MOL0     C27854   4.713   8.661  -2.019  0.7045 -0.4932 -0.1918
  207MOL0    Cl27855   4.600   8.778  -2.089  0.4439  0.0454  0.3606
  207MOL0     C27856   5.596   8.661  -1.158  0.3188 -0.1866 -0.3651
  207MOL0     C27857   5.660   8.698  -1.042  0.2205 -0.7954 -0.4903
  207MOL0     O27858   5.680   8.595  -0.723 -0.4423  0.6166  0.4259
  207MOL0     C27859   5.767   8.719  -0.484 -0.1699 -0.2298 -0.4959
  207MOL0     C27860   5.822   8.774  -0.369 -0.2075 -0.5978  0.2048
  207MOL0     N27861   6.364   8.973   0.067 -0.2385  0.1586  0.1637
  207MOL0     N27862   6.476   8.969   0.013 -0.1789 -0.2560  0.0415
  207MOL0     C27863   7.509   9.037   0.325 -0.5572 -0.5066 -0.6958
  207MOL0     C27864   7.510   9.123   0.436  0.1547  0.2473  0.2128
  207MOL0     C27865   7.469   9.416   0.767 -1.1487 -0.3304 -0.4679
  207MOL0     C27866   7.432   9.545   0.745 -0.2160 -0.6002  0.0614
  207MOL0     C27867   7.447   9.653   0.836  0.8375  0.3746  0.2811
  207MOL0     C27868   7.496   9.628   0.957  0.0226 -0.8477 -0.1859
  207MOL0     O27869   7.530   9.739   1.038 -0.2817  0.2105  0.4208
  207MOL0     C27870   7.654   9.743   1.112 -0.1481 -0.3465 -0.2210
  207MOL0     C27871   7.680   9.881   1.164 -0.2550 -1.0081  0.6229
  207MOL0     C27872   7.685   9.898   1.319  0.2464 -0.6126  0.3334
  207MOL0     C27873   7.740  10.042   1.350  0.1235 -0.1194  0.7614
  207MOL0     C27874   7.680  10.087   1.474  0.9544  0.1147 -0.3913
  207MOL0     C27875   7.622  10.104   1.578  0.0652 -0.3131  0.2246
  207MOL0     C27876   7.536   9.494   0.996 -0.0594  0.6310 -0.4574
  207MOL0     C27877   7.528   9.392   0.892  0.6105 -0.5050 -0.3928
  207MOL0     H27878   7.333   9.386   0.325 -2.0338 -1.0073  2.3369
  207MOL0     H27879   7.304   9.226   0.126  0.5624  1.5252  0.1696
  207MOL0     H27880   7.563   8.848   0.072 -0.5751 -1.9832  0.0009
  207MOL0     H27881   7.446   8.822   0.211  2.0641  1.4779  1.4502
  207MOL0     H27882   7.388   8.822  -0.084 -0.0472  4.5274  1.9452
  207MOL0     H27883   7.395   8.674   0.020 -0.8145 -0.2563  0.4758
  207MOL0     H27884   7.210   8.692   0.120 -0.4294 -0.0050  0.9025
  207MOL0     H27885   7.231   8.869   0.141 -0.4818 -0.9711  1.9853
  207MOL0     H27886   7.112   8.933  -0.035  3.8604  1.6657  1.6213
  207MOL0     H27887   7.154   8.801  -0.135 -0.9274  0.5672  0.1076
  207MOL0     H27888   6.992   8.654   0.007 -1.1748  1.1111  0.8058
  207MOL0     H27889   6.952   8.797   0.101 -2.9807  0.2170 -1.2086
  207MOL0     H27890   6.889   8.914  -0.097  2.3313  0.2774 -3.5628
  207MOL0     H27891   6.899   8.763  -0.188  0.8075  0.7268  0.1304
  207MOL0     H27892   6.724   8.661  -0.026 -1.1009  0.3455  3.6888
  207MOL0     H27893   6.730   8.809   0.070 -0.6085  0.4021 -0.0047
  207MOL0     H27894   6.638   8.769  -0.216  0.8208 -1.7250  0.8250
  207MOL0     H27895   6.683   8.923  -0.164 -2.0055  1.5604  2.1792
  207MOL0     H27896   6.361   8.711  -0.131  2.5957  0.3560 -0.0710
  207MOL0     H27897   6.107   8.755   0.010 -0.1156 -1.3791  1.8401
  207MOL0     H27898   6.178   8.784   0.174  2.3933  0.7944 -0.4967
  207MOL0     H27899   6.106   9.019   0.144  3.2023  0.7566 -2.9974
  207MOL0     H27900   5.963   8.910   0.115 -0.4095  0.0267  0.7035
  207MOL0     H27901   6.136   9.047  -0.083  1.2791  0.2845  3.7703
  207MOL0     H27902   5.966   9.101  -0.055  1.3577  0.9471 -1.4715
  207MOL0     H27903   5.909   8.831  -0.110 -1.4039 -0.6164 -2.2398
  207MOL0     H27904   6.061   8.855  -0.193 -0.4297  0.9144 -0.1594
  207MOL0     H27905   5.884   9.086  -0.481 -3.9252  1.1542  0.1913
  207MOL0     H27906   5.826   9.118  -0.693  2.5810 -1.6349  4.5818
  207MOL0     H27907   5.873   8.979  -0.796  0.2860  0.3031  0.5700
  207MOL0     H27908   5.705   9.026  -0.776 -0.8388 -2.7522  0.8371
  207MOL0     H27909   5.406   8.816  -0.861  0.7851  0.5743  0.3684
  207MOL0     H27910   5.278   8.755  -1.056  0.1550  1.4410  2.1732
  207MOL0     H27911   5.190   8.709  -1.242  0.6515 -1.1279  1.2266
  207MOL0     H27912   5.303   8.799  -1.351 -0.7465  0.7182 -0.8852
  207MOL0     H27913   5.295   8.583  -1.498  0.8901  0.5244  1.1011
  207MOL0     H27914   5.167   8.528  -1.396 -2.9076  0.7286 -0.1441
  207MOL0     H27915   5.156   8.778  -1.587  1.0870 -0.5053  0.2578
  207MOL0     H27916   5.051   8.754  -1.446 -0.1694 -1.8883  1.0899
  207MOL0     H27917   5.063   8.550  -1.663 -0.0514 -1.1316  1.2623
  207MOL0     H27918   4.923   8.578  -1.555 -0.1387 -2.4841 -1.7808
  207MOL0     H27919   5.013   8.794  -1.759  1.5887 -1.9102  0.2835
  207MOL0     H27920   4.868   8.788  -1.653 -1.8332 -1.0546 -0.7770
  207MOL0     H27921   4.946   8.605  -1.894 -0.1490  2.5435 -2.7840
  207MOL0     H27922   4.813   8.567  -1.783 -2.8220  2.4661 -0.5438
  207MOL0     H27923   4.834   8.822  -1.949 -0.3712 -0.1513 -2.1262
  207MOL0     H27924   4.702   8.774  -1.847 -0.9978 -0.1781 -1.1967
  207MOL0     H27925   4.656   8.579  -1.974 -0.3441  0.0827 -0.4599
  207MOL0     H27926   4.785   8.631  -2.096  1.8289 -0.7422  0.9211
  207MOL0     H27927   5.651   8.618  -1.241 -0.7979 -1.3271 -0.5334
  207MOL0     H27928   5.766   8.678  -1.032  0.2322 -0.4260  0.2085
  207MOL0     H27929   5.735   8.616  -0.479  1.4697 -0.7445 -0.1714
  207MOL0     H27930   5.835   8.717  -0.277 -2.1266 -2.9443 -0.8568
  207MOL0     H27931   7.574   8.950   0.318  3.7668  2.2166  1.3162
  207MOL0     H27932   7.582   9.101   0.514  0.5973  0.3904 -0.1418
  207MOL0     H27933   7.383   9.572   0.652 -0.1452 -1.1726 -0.1466
  207MOL0     H27934   7.428   9.756   0.810  3.1513  0.6469 -0.6039
  207MOL0     H27935   7.644   9.673   1.194 -2.5210  1.3743  1.0783
  207MOL0     H27936   7.742   9.724   1.049  0.1006 -0.0752  0.0396
  207MOL0     H27937   7.609   9.957   1.132  0.8846 -0.6310 -1.1231
  207MOL0     H27938   7.772   9.924   1.123 -3.5552  5.5043 -1.2566
  207MOL0     H27939   7.744   9.822   1.372 -1.3968 -0.9945  1.6930
  207MOL0     H27940   7.583   9.894   1.358  1.1129  0.6756  3.0116
  207MOL0     H27941   7.715  10.108   1.267  0.7018  0.3826  0.9796
  207MOL0     H27942   7.848  10.045   1.367  0.0260 -2.2439  2.1772
  207MOL0     H27943   7.561  10.098   1.666  1.3701 -2.3944  1.0766
  207MOL0     H27944   7.584   9.483   1.093 -0.9426  1.9526  0.1712
  207MOL0     H27945   7.557   9.293   0.924  1.7604  0.5265  2.0050
  208MOL0     O27946   7.247   5.665   1.912 -0.3546  0.5892  0.5877
  208MOL0     C27947   7.272   5.556   1.860 -0.1559  0.8181 -0.4760
  208MOL0     O27948   7.185   5.481   1.793  0.8549 -0.3357 -0.1621
  208MOL0     C27949   7.052   5.485   1.799 -0.6615 -0.7172 -0.5472
  208MOL0     C27950   6.972   5.567   1.880 -0.3608  0.5091  0.6354
  208MOL0     C27951   6.835   5.544   1.895  0.5031 -0.0977  0.2495
  208MOL0     C27952   6.778   5.447   1.821 -0.4333  0.2555  0.6412
  208MOL0     O27953   6.648   5.405   1.828 -0.5701  0.7153 -1.1052
  208MOL0     C27954   6.577   5.458   1.935  0.3573  0.2946  0.0363
  208MOL0     C27955   6.439   5.398   1.919 -0.6197  0.0604  0.1530
  208MOL0     C27956   6.339   5.467   2.015 -0.3881  0.0868 -0.4220
  208MOL0     C27957   6.204   5.405   2.002 -0.1522  0.5363 -0.2077
  208MOL0     C27958   6.092   5.490   2.066 -0.3967 -0.1853 -1.2212
  208MOL0     C27959   5.981   5.395   2.117 -0.0721  0.1008 -0.1669
  208MOL0     C27960   5.857   5.414   2.028  0.6876 -0.9119 -0.5929
  208MOL0     C27961   5.757   5.505   2.102  0.4697  1.0918 -0.4527
  208MOL0     N27962   5.637   5.531   2.022 -0.0266  0.2626 -0.3875
  208MOL0     C27963   5.524   5.452   2.026 -0.7094  0.2986  0.3409
  208MOL0     C27964   5.429   5.502   1.948 -0.1048  0.3615 -0.6883
  208MOL0     C27965   5.293   5.446   1.904 -0.0460  0.2838  1.4712
  208MOL0     C27966   5.202   5.567   1.887 -0.5861 -1.1428 -1.0496
  208MOL0     C27967   5.046   5.540   1.860 -0.6268  0.3312 -0.3759
  208MOL0     C27968   4.947   5.656   1.866  0.0653 -0.6349  0.0440
  208MOL0     O27969   4.984   5.757   1.773 -0.2254  0.0054  0.1731
  208MOL0     C27970   4.899   5.865   1.761 -0.7898 -0.1860 -0.1448
  208MOL0     C27971   4.765   5.867   1.814 -0.5871 -0.1064 -0.4425
  208MOL0     C27972   4.669   5.968   1.797 -0.3141  0.6755 -0.5151
  208MOL0     C27973   4.539   5.944   1.857  0.0184 -0.6166  0.2660
  208MOL0     C27974   4.702   6.075   1.704  0.8401 -0.0698 -0.1028
  208MOL0     C27975   4.615   6.191   1.680  0.4573 -0.1531 -0.8785
  208MOL0     O27976   4.666   6.275   1.580  0.8077 -0.9137  0.6236
  208MOL0     C27977   4.597   6.394   1.579  0.7964 -0.3684  1.3170
  208MOL0     C27978   4.669   6.518   1.594  0.2585  0.4608  0.4337
  208MOL0     C27979   4.596   6.635   1.576 -0.7564  1.1033 -0.4938
  208MOL0     C27980   4.466   6.642   1.531 -0.1301 -0.1301  0.0610
  208MOL0     O27981   4.406   6.768   1.518  0.6415 -0.4040 -0.0656
  208MOL0     C27982   4.318   6.793   1.414  0.1486  0.3024  0.4601
  208MOL0     C27983   4.295   6.945   1.398 -0.5383  1.0271 -0.9260
  208MOL0     C27984   4.205   7.012   1.503 -0.4510 -0.5762 -0.2663
  208MOL0     C27985   4.294   7.090   1.598  0.0720 -0.5208  1.2941
  208MOL0     C27986   4.210   7.151   1.710 -0.1574 -0.2070 -0.5516
  208MOL0     C27987   4.308   7.192   1.818 -0.1860  0.1507 -0.6097
  208MOL0     C27988   4.236   7.251   1.939 -0.0779 -0.4139 -0.0736
  208MOL0     C27989   4.153   7.375   1.922 -0.0663 -0.1522  0.8669
  208MOL0    Cl27990   4.089   7.418   2.072 -0.0876  0.0885  0.2655
  208MOL0     C27991   4.394   6.524   1.507  0.6744  0.4858  0.0012
  208MOL0     C27992   4.460   6.412   1.542 -0.4107  0.3581 -0.9679
  208MOL0     O27993   4.509   6.195   1.737 -0.0369 -0.2135 -0.0210
  208MOL0     C27994   4.836   6.082   1.674 -0.6476  1.1875  0.3953
  208MOL0     C27995   4.931   5.982   1.697  0.3152  0.4299  0.4573
  208MOL0     N27996   5.490   5.629   1.903  0.5255 -0.1164  0.6681
  208MOL0     N27997   5.615   5.641   1.942  0.3660 -0.4037  0.3054
  208MOL0     C27998   6.852   5.369   1.741 -0.8651 -0.5241  0.2788
  208MOL0     C27999   6.990   5.384   1.729  0.3935  0.8392 -0.5580
  208MOL0     C28000   7.405   5.500   1.876 -0.1336  0.0452  0.6059
  208MOL0     C28001   7.517   5.577   1.897 -0.3848 -0.4873 -0.7143
  208MOL0     C28002   7.650   5.518   1.925  0.2321  0.3755 -0.2246
  208MOL0     C28003   7.662   5.383   1.918 -0.3840  0.2341  0.3620
  208MOL0     O28004   7.776   5.318   1.963  0.0849  0.4680  0.0258
  208MOL0     C28005   7.896   5.357   1.894  0.3392  0.3811  0.8140
  208MOL0     C28006   8.013   5.376   1.983 -0.3397  0.1363 -0.2465
  208MOL0     C28007   7.998   5.510   2.058 -0.2896 -0.0605 -0.1939
  208MOL0     C28008   8.120   5.540   2.144  0.0369  0.6645 -0.5154
  208MOL0     C28009   8.236   5.564   2.065 -0.2122  0.1464  0.2817
  208MOL0     C28010   8.326   5.584   1.988 -0.0387 -0.3386 -0.1569
  208MOL0     C28011   7.557   5.302   1.894 -0.3651 -0.0629  0.3044
  208MOL0     C28012   7.428   5.359   1.872 -0.6745  0.6007 -0.0671
  208MOL0     H28013   7.024   5.643   1.936  2.8222 -1.7017  0.9292
  208MOL0     H28014   6.775   5.603   1.964 -1.0364 -0.1068 -1.0310
  208MOL0     H28015   6.622   5.442   2.034  1.3099 -1.0825 -0.5862
  208MOL0     H28016   6.571   5.566   1.922 -1.1040  0.3184  0.6686
  208MOL0     H28017   6.399   5.422   1.820  0.0639  0.6055  0.0034
  208MOL0     H28018   6.447   5.290   1.934  2.2891  0.1140 -0.4341
  208MOL0     H28019   6.366   5.460   2.121 -0.5873  2.3849 -0.1606
  208MOL0     H28020   6.336   5.573   1.988 -3.4958 -0.3114 -2.1297
  208MOL0     H28021   6.179   5.386   1.897 -1.5582  0.4130  0.1287
  208MOL0     H28022   6.221   5.316   2.063  3.0674  2.8121  2.5169
  208MOL0     H28023   6.132   5.547   2.150 -1.6002  1.3463 -1.6343
  208MOL0     H28024   6.049   5.561   1.994  0.9028 -0.1571 -2.0057
  208MOL0     H28025   5.998   5.288   2.103 -1.4067 -0.0625 -0.6889
  208MOL0     H28026   5.959   5.422   2.220 -1.7047 -2.7442  0.3310
  208MOL0     H28027   5.870   5.454   1.927  1.3290  1.4342  0.3361
  208MOL0     H28028   5.816   5.319   1.994 -2.4549  0.2216 -0.2530
  208MOL0     H28029   5.818   5.589   2.137  1.1481  0.6344 -0.5081
  208MOL0     H28030   5.721   5.446   2.187 -0.3011  2.0346 -0.1008
  208MOL0     H28031   5.530   5.359   2.082  1.9740 -1.1505 -2.0563
  208MOL0     H28032   5.306   5.392   1.809 -1.6881  1.9675  0.2082
  208MOL0     H28033   5.250   5.396   1.990 -1.3988  3.9695  3.1746
  208MOL0     H28034   5.244   5.639   1.815  1.3080 -0.0443  1.0259
  208MOL0     H28035   5.209   5.620   1.982  3.5707 -1.8596 -0.7511
  208MOL0     H28036   5.008   5.468   1.932 -1.9633  1.2902 -0.0995
  208MOL0     H28037   5.051   5.503   1.757  0.3275  3.2344 -1.4814
  208MOL0     H28038   4.951   5.704   1.964 -1.5723  2.0516 -1.0675
  208MOL0     H28039   4.843   5.624   1.856 -0.5222  1.4057 -1.2738
  208MOL0     H28040   4.726   5.783   1.871  1.1859 -0.3448  0.4724
  208MOL0     H28041   4.541   5.864   1.932  4.4131  0.1619  1.2152
  208MOL0     H28042   4.522   6.039   1.908 -0.7339 -1.5850  1.9057
  208MOL0     H28043   4.457   5.943   1.784  0.6199 -1.1278 -0.4218
  208MOL0     H28044   4.774   6.526   1.620 -0.5440  0.8213  4.2337
  208MOL0     H28045   4.642   6.730   1.601 -0.7513  1.4582 -1.7754
  208MOL0     H28046   4.350   6.753   1.317 -1.8856  2.7494 -1.3599
  208MOL0     H28047   4.220   6.750   1.434  1.5109 -2.3478  1.9256
  208MOL0     H28048   4.394   6.991   1.388  0.1666  0.3071  1.7952
  208MOL0     H28049   4.251   6.960   1.299 -0.3992  1.9147 -0.8610
  208MOL0     H28050   4.152   6.928   1.549 -1.1217 -0.1711 -0.2920
  208MOL0     H28051   4.132   7.076   1.453  0.0817 -0.7696 -1.3158
  208MOL0     H28052   4.368   7.020   1.637  1.4758  0.3742  0.3444
  208MOL0     H28053   4.355   7.167   1.549  0.2247  1.4121  4.2994
  208MOL0     H28054   4.130   7.084   1.742 -0.6695 -1.1716 -3.5080
  208MOL0     H28055   4.161   7.243   1.677  1.6109  0.7213 -0.6872
  208MOL0     H28056   4.361   7.104   1.853 -0.7705 -0.4205 -1.1371
  208MOL0     H28057   4.383   7.259   1.775 -0.0390 -0.2412 -0.9665
  208MOL0     H28058   4.321   7.279   2.002 -0.3244 -1.0168  0.5308
  208MOL0     H28059   4.176   7.176   1.991 -0.7366  0.4857  0.4952
  208MOL0     H28060   4.070   7.355   1.854  1.7489  0.2162 -1.5816
  208MOL0     H28061   4.216   7.455   1.881  0.9542 -1.8134 -0.9362
  208MOL0     H28062   4.297   6.544   1.461  0.2986  1.3039  1.1073
  208MOL0     H28063   4.416   6.315   1.525  1.0748 -0.4926 -0.1593
  208MOL0     H28064   4.870   6.177   1.635  0.8714 -0.6297 -3.1498
  208MOL0     H28065   5.033   5.991   1.661  0.0025  0.1229 -0.5359
  208MOL0     H28066   6.808   5.288   1.684 -0.2754 -1.1227  0.6602
  208MOL0     H28067   7.046   5.317   1.664 -0.6710 -0.7707  0.1311
  208MOL0     H28068   7.505   5.684   1.909 -2.1759 -0.7661  0.4489
  208MOL0     H28069   7.741   5.574   1.945  1.5845 -1.9435  0.5535
  208MOL0     H28070   7.915   5.268   1.833  0.2380 -0.3676  1.8434
  208MOL0     H28071   7.887   5.443   1.827 -3.1609 -1.2599 -1.0888
  208MOL0     H28072   8.098   5.379   1.915 -1.5616  0.7438 -1.7995
  208MOL0     H28073   8.007   5.285   2.044 -4.3833 -1.2956 -2.4379
  208MOL0     H28074   7.910   5.516   2.123 -2.0947 -1.2467 -2.3813
  208MOL0     H28075   7.983   5.592   1.988 -2.3573  0.6945  1.0435
  208MOL0     H28076   8.130   5.464   2.221 -2.2043 -2.9006 -3.4168
  208MOL0     H28077   8.103   5.626   2.210 -1.2833 -1.5058  2.1648
  208MOL0     H28078   8.405   5.608   1.921  2.2776 -0.6115  2.3190
  208MOL0     H28079   7.576   5.195   1.900  0.8442  0.1303  0.1247
  208MOL0     H28080   7.349   5.287   1.855 -1.7758  1.9505 -0.9085
  209MOL0     O28081   3.356   4.571   9.898  0.7341  0.0396  0.0761
  209MOL0     C28082   3.425   4.645   9.974 -0.1457  1.2816 -0.0930
  209MOL0     O28083   3.492   4.593  10.078 -0.2418  0.6149 -0.0027
  209MOL0     C28084   3.446   4.498  10.165 -0.2205 -0.1180  0.3206
  209MOL0     C28085   3.519   4.420  10.254 -0.7656 -0.5282 -0.3726
  209MOL0     C28086   3.458   4.346  10.354  0.0243 -0.4391  0.0110
  209MOL0     C28087   3.320   4.353  10.380 -0.6754 -0.3180  0.0827
  209MOL0     O28088   3.271   4.280  10.486 -0.0847  0.7410 -0.5646
  209MOL0     C28089   3.132   4.287  10.516  0.4488  0.7472 -0.0200
  209MOL0     C28090   3.123   4.198  10.637 -0.4255 -0.0546  0.0455
  209MOL0     C28091   2.983   4.147  10.678  0.3006 -0.3496 -0.3014
  209MOL0     C28092   2.950   4.028  10.588  0.2108 -0.1527 -0.3752
  209MOL0     C28093   2.827   3.944  10.636  0.4050  0.4672  0.2672
  209MOL0     C28094   2.770   3.859  10.526  0.0255  0.1170  0.7013
  209MOL0     C28095   2.624   3.826  10.550 -0.1572 -0.0848  0.4163
  209MOL0     C28096   2.578   3.703  10.474 -0.0459 -0.9093 -0.0677
  209MOL0     N28097   2.437   3.693  10.449 -0.2161  0.6457 -0.1675
  209MOL0     C28098   2.354   3.788  10.406  0.2488 -0.2626  0.3661
  209MOL0     C28099   2.230   3.729  10.399 -0.0370  0.9236  0.2240
  209MOL0     C28100   2.099   3.787  10.359 -0.2128  0.5753  0.1168
  209MOL0     C28101   2.077   3.920  10.430  0.2665 -0.3724 -0.0951
  209MOL0     C28102   2.063   3.894  10.581  0.3681  0.2792 -0.6024
  209MOL0     C28103   2.086   4.018  10.666 -0.1563  0.8299 -0.1445
  209MOL0     O28104   2.205   4.082  10.617 -0.2686  0.4587 -0.5944
  209MOL0     C28105   2.275   4.165  10.702  0.1960 -0.4551  0.7271
  209MOL0     C28106   2.211   4.247  10.791  0.1542 -0.5388  0.3727
  209MOL0     C28107   2.284   4.341  10.866  0.0646  0.0414  0.0868
  209MOL0     C28108   2.205   4.430  10.955  0.3406 -0.4880  0.1346
  209MOL0     C28109   2.427   4.345  10.862 -0.2966 -0.2110  0.5875
  209MOL0     C28110   2.522   4.427  10.941 -1.0776  0.0878 -0.4212
  209MOL0     O28111   2.640   4.459  10.877 -0.5646 -0.1369  0.2315
  209MOL0     C28112   2.745   4.526  10.938  0.5829 -0.2185 -0.1913
  209MOL0     C28113   2.736   4.632  11.034 -0.4409  0.8530 -0.1106
  209MOL0     C28114   2.855   4.674  11.099  0.2902 -1.2447 -0.5725
  209MOL0     C28115   2.980   4.619  11.065 -0.2452  0.4457  0.2839
  209MOL0     O28116   3.102   4.659  11.103 -0.0472  0.3286 -0.3833
  209MOL0     C28117   3.113   4.791  11.150 -0.0977  0.1692  0.3154
  209MOL0     C28118   3.259   4.822  11.181  0.6064  0.3446 -0.5147
  209MOL0     C28119   3.279   4.966  11.227  0.5340  0.0846  0.8239
  209MOL0     C28120   3.429   4.998  11.232  0.4725 -0.2880 -0.7792
  209MOL0     C28121   3.454   5.117  11.333  0.9539  0.8955 -0.3770
  209MOL0     C28122   3.603   5.160  11.337  0.9038  0.4247  0.3136
  209MOL0     C28123   3.623   5.273  11.447  0.7145 -0.0022  0.5813
  209MOL0     C28124   3.767   5.317  11.463  0.5297 -0.8963 -0.3501
  209MOL0    Cl28125   3.836   5.391  11.309 -0.4007  0.1720 -0.3929
  209MOL0     C28126   2.984   4.512  10.966 -0.2310 -0.5617 -1.5072
  209MOL0     C28127   2.864   4.469  10.903 -0.6768 -0.2793  1.0373
  209MOL0     O28128   2.495   4.455  11.057  0.2853  0.2675 -0.4231
  209MOL0     C28129   2.485   4.257  10.766  0.4751 -0.3236 -0.5664
  209MOL0     C28130   2.409   4.175  10.687 -0.2299 -0.7016 -0.3850
  209MOL0     N28131   2.241   3.599  10.435 -0.1919  0.9959 -0.3259
  209MOL0     N28132   2.364   3.575  10.453  0.0394  0.8742 -0.2492
  209MOL0     C28133   3.242   4.426  10.283  0.9780 -0.4955  1.2152
  209MOL0     C28134   3.301   4.495  10.179  0.2974  0.2240 -0.6497
  209MOL0     C28135   3.452   4.781   9.936  0.1074 -0.5729  0.8189
  209MOL0     C28136   3.383   4.858   9.835 -0.0066  0.3898  0.5129
  209MOL0     C28137   3.419   4.993   9.814  0.3618 -0.0411 -0.4766
  209MOL0     C28138   3.522   5.049   9.879 -0.3380 -0.0562  1.0752
  209MOL0     O28139   3.557   5.178   9.846  0.2383  0.1688 -0.2050
  209MOL0     C28140   3.695   5.212   9.865  0.9212 -0.8018 -0.4839
  209MOL0     C28141   3.720   5.322   9.759  0.4976  0.1398  0.3040
  209MOL0     C28142   3.863   5.375   9.780 -0.1674 -0.9783  0.7238
  209MOL0     C28143   3.886   5.465   9.902 -0.1812  0.2000 -0.2314
  209MOL0     C28144   3.832   5.608   9.888 -0.7453 -0.4414 -1.4414
  209MOL0     C28145   3.795   5.721   9.901 -0.0584  1.0864 -0.1014
  209MOL0     C28146   3.588   4.983   9.984  0.3337 -0.8594 -0.4158
  209MOL0     C28147   3.550   4.846  10.005 -0.8941  0.7237 -0.9296
  209MOL0     H28148   3.627   4.417  10.248 -0.7976 -0.4897 -1.0938
  209MOL0     H28149   3.510   4.279  10.422  1.9427  0.4549 -0.5053
  209MOL0     H28150   3.103   4.389  10.544 -0.5725  1.2037 -2.4344
  209MOL0     H28151   3.076   4.237  10.436  1.1099 -0.6320  0.3564
  209MOL0     H28152   3.194   4.119  10.609  0.9980  2.0114 -2.6058
  209MOL0     H28153   3.184   4.234  10.721  1.7702 -0.6759 -1.2071
  209MOL0     H28154   2.979   4.098  10.777 -4.5740 -0.1538 -0.1517
  209MOL0     H28155   2.904   4.222  10.672  0.8496  0.1287 -2.3302
  209MOL0     H28156   2.928   4.056  10.484 -4.7904 -1.5072  0.0563
  209MOL0     H28157   3.037   3.962  10.580 -0.8018 -1.4259 -1.5280
  209MOL0     H28158   2.854   3.871  10.712 -0.2069 -0.4212 -0.3550
  209MOL0     H28159   2.758   4.015  10.683 -1.3902 -2.4918  2.4002
  209MOL0     H28160   2.768   3.921  10.436 -0.8411  0.4688  0.9594
  209MOL0     H28161   2.824   3.764  10.515  1.0262  0.5394  1.7950
  209MOL0     H28162   2.598   3.806  10.655 -1.1044 -0.9244  0.0475
  209MOL0     H28163   2.562   3.911  10.519  0.9396 -0.0615 -1.9021
  209MOL0     H28164   2.624   3.614  10.517 -1.1549 -0.3447  2.4774
  209MOL0     H28165   2.620   3.697  10.373 -2.7165  1.2104 -1.4285
  209MOL0     H28166   2.378   3.890  10.379  3.5150 -0.6662  1.3037
  209MOL0     H28167   2.101   3.804  10.251 -0.0199  0.0011  0.0244
  209MOL0     H28168   2.012   3.726  10.385 -0.9415  2.6089  2.8488
  209MOL0     H28169   1.986   3.968  10.393 -0.7102  1.0599  3.6960
  209MOL0     H28170   2.168   3.976  10.404 -0.6312  1.9763  1.4430
  209MOL0     H28171   2.145   3.828  10.609  1.6885  2.2611  0.4411
  209MOL0     H28172   1.968   3.848  10.609 -1.0748  3.3006 -0.1255
  209MOL0     H28173   2.092   3.983  10.770 -0.6596  2.3476  0.4194
  209MOL0     H28174   1.996   4.080  10.659  1.1867  3.2062  1.9836
  209MOL0     H28175   2.103   4.255  10.799  0.3089  0.9923  1.5147
  209MOL0     H28176   2.268   4.498  11.013  0.4056  1.3182 -1.8878
  209MOL0     H28177   2.141   4.491  10.890  1.4531  2.8982  1.9790
  209MOL0     H28178   2.143   4.380  11.030  1.4949  2.2419  3.1144
  209MOL0     H28179   2.640   4.671  11.066 -0.4796 -0.2624  1.2436
  209MOL0     H28180   2.856   4.752  11.174 -2.3299 -0.8454 -0.8619
  209MOL0     H28181   3.081   4.854  11.067 -2.9418 -1.6889 -0.1581
  209MOL0     H28182   3.044   4.805  11.234 -1.7609 -4.3424  0.0133
  209MOL0     H28183   3.281   4.761  11.269  1.1720 -2.2348 -2.3279
  209MOL0     H28184   3.322   4.799  11.095 -0.2994 -3.3989 -0.3413
  209MOL0     H28185   3.235   4.966  11.327 -1.1202 -0.8451  0.1345
  209MOL0     H28186   3.225   5.039  11.165 -0.9866 -1.9198 -0.3091
  209MOL0     H28187   3.475   4.907  11.272  0.0368 -1.1364 -2.1246
  209MOL0     H28188   3.470   5.018  11.133  0.4812  0.3234 -0.6538
  209MOL0     H28189   3.414   5.090  11.432 -0.7627  1.6839 -0.8106
  209MOL0     H28190   3.396   5.207  11.310  2.7851  2.4570  0.8130
  209MOL0     H28191   3.665   5.078  11.374  1.2942  1.9713  3.4697
  209MOL0     H28192   3.624   5.204  11.239  0.1593  0.0308 -0.0295
  209MOL0     H28193   3.567   5.249  11.538 -2.4571  1.6384 -0.7657
  209MOL0     H28194   3.576   5.369  11.426  2.9240  1.2841  1.2658
  209MOL0     H28195   3.817   5.225  11.494  1.6796  0.2161  1.2611
  209MOL0     H28196   3.769   5.388  11.546 -1.7059  0.8428 -1.6704
  209MOL0     H28197   3.085   4.474  10.951 -0.6111 -3.0121  1.3008
  209MOL0     H28198   2.869   4.395  10.823 -2.2975  1.6958 -1.0223
  209MOL0     H28199   2.593   4.257  10.756  0.5410  0.5583  0.0318
  209MOL0     H28200   2.437   4.112  10.603 -0.4835  0.9374 -1.7642
  209MOL0     H28201   3.134   4.439  10.283  0.8456 -0.0851 -3.4969
  209MOL0     H28202   3.231   4.542  10.112  0.7599  2.1520  0.1312
  209MOL0     H28203   3.310   4.817   9.765  2.6021 -2.0491 -0.9979
  209MOL0     H28204   3.361   5.046   9.739 -0.6829  0.2580  0.5068
  209MOL0     H28205   3.706   5.257   9.964 -0.2362 -0.1085 -0.6560
  209MOL0     H28206   3.763   5.126   9.866 -0.6453 -2.0881  1.4800
  209MOL0     H28207   3.639   5.396   9.755  2.2401  2.3336  2.4431
  209MOL0     H28208   3.720   5.283   9.657  1.5763  2.6605 -0.7388
  209MOL0     H28209   3.903   5.434   9.696  1.6500 -3.8757 -0.6122
  209MOL0     H28210   3.921   5.284   9.794  0.8982 -0.0422  2.7180
  209MOL0     H28211   3.993   5.471   9.927 -0.2510  2.9508 -0.1866
  209MOL0     H28212   3.841   5.415   9.987  1.1713 -1.5357 -0.4816
  209MOL0     H28213   3.776   5.825   9.914  1.4187  1.0453  3.7178
  209MOL0     H28214   3.657   5.029  10.054 -0.1204 -1.5718  0.5341
  209MOL0     H28215   3.592   4.803  10.095 -1.6847 -0.4630 -1.1121
  210MOL0     O28216   0.032  11.349   2.174  0.0260  0.6679  0.1729
  210MOL0     C28217  -0.090  11.374   2.181  0.0241  0.6828  0.2804
  210MOL0     O28218  -0.161  11.352   2.297 -0.4346 -0.3404 -0.0136
  210MOL0     C28219  -0.139  11.251   2.387 -0.2029 -1.0502 -0.0320
  210MOL0     C28220  -0.223  11.252   2.508 -0.0597 -0.2399 -0.2603
  210MOL0     C28221  -0.202  11.145   2.600 -0.3901  0.2415 -0.4386
  210MOL0     C28222  -0.109  11.048   2.581  0.3476  0.1680  0.3048
  210MOL0     O28223  -0.099  10.946   2.681 -0.7462 -0.3712 -0.3265
  210MOL0     C28224  -0.065  10.815   2.642 -0.7065  0.5071  0.2008
  210MOL0     C28225   0.061  10.762   2.730 -0.0622 -0.5662  0.4787
  210MOL0     C28226   0.045  10.796   2.889  0.3354  0.0968 -0.2764
  210MOL0     C28227   0.178  10.796   2.973  1.0184 -0.4176 -0.3361
  210MOL0     C28228   0.155  10.841   3.114  0.1511  0.7365  0.6392
  210MOL0     C28229   0.290  10.846   3.191  0.8028 -0.1274  0.0315
  210MOL0     C28230   0.276  10.906   3.329 -0.0975  0.1966 -1.0557
  210MOL0     C28231   0.157  10.844   3.416 -0.4663  0.0320  0.6932
  210MOL0     N28232   0.137  10.911   3.549  0.7785 -0.5815  0.6231
  210MOL0     C28233   0.237  10.970   3.623  0.6387 -0.7520 -0.0932
  210MOL0     C28234   0.168  11.012   3.735  0.9508 -0.2304 -1.3640
  210MOL0     C28235   0.225  11.085   3.855 -0.2511  0.6463 -0.1203
  210MOL0     C28236   0.189  11.002   3.984  0.9687 -1.2400  0.7181
  210MOL0     C28237   0.054  11.058   4.033 -0.0482 -0.3558 -0.5813
  210MOL0     C28238   0.018  10.987   4.167  0.1418 -0.2086  0.3874
  210MOL0     O28239  -0.100  11.056   4.214  0.0726  0.1930 -0.9825
  210MOL0     C28240  -0.223  11.026   4.146  0.7902  0.3091 -0.0713
  210MOL0     C28241  -0.241  10.927   4.052  0.1692 -1.4549 -0.2393
  210MOL0     C28242  -0.363  10.892   4.009 -0.1373  0.3613  0.1373
  210MOL0     C28243  -0.365  10.770   3.915 -0.0004 -0.5970 -1.1976
  210MOL0     C28244  -0.488  10.964   4.053 -0.7048 -0.1617  0.5429
  210MOL0     C28245  -0.628  10.938   4.022 -0.7520  0.6922 -1.6226
  210MOL0     O28246  -0.724  11.037   4.053  0.2888 -0.1539  0.1579
  210MOL0     C28247  -0.857  11.005   4.038 -0.0108 -0.3041  0.8446
  210MOL0     C28248  -0.940  11.091   3.952 -0.2114  0.0918  0.3499
  210MOL0     C28249  -1.080  11.078   3.936 -1.1152 -0.6036  0.5776
  210MOL0     C28250  -1.149  10.978   4.012 -0.6347  0.7679  0.3776
  210MOL0     O28251  -1.288  10.976   3.992 -0.4868  0.4008  0.3527
  210MOL0     C28252  -1.357  10.976   4.117 -0.1618  0.3501  0.6546
  210MOL0     C28253  -1.489  11.053   4.107  0.1964  0.8092 -0.4304
  210MOL0     C28254  -1.578  11.067   4.233  0.0563  0.0073  0.1793
  210MOL0     C28255  -1.530  11.180   4.325  0.5046  0.3714  1.1439
  210MOL0     C28256  -1.577  11.313   4.282 -0.0079  0.3088 -0.4483
  210MOL0     C28257  -1.570  11.408   4.398 -0.5087  0.1673  0.2422
  210MOL0     C28258  -1.564  11.541   4.328 -0.2359 -0.0813 -0.9501
  210MOL0     C28259  -1.423  11.590   4.285  0.5020  0.7652 -0.4479
  210MOL0    Cl28260  -1.326  11.635   4.423 -1.1151 -0.1751  0.4185
  210MOL0     C28261  -1.073  10.882   4.091 -0.3802 -0.2884 -0.5291
  210MOL0     C28262  -0.932  10.896   4.098  0.3316 -0.2823 -0.9513
  210MOL0     O28263  -0.657  10.827   3.976 -0.3091 -0.6623  0.1586
  210MOL0     C28264  -0.461  11.080   4.135  0.6229 -0.2951 -0.4965
  210MOL0     C28265  -0.332  11.101   4.182 -0.2307  0.1869 -0.7285
  210MOL0     N28266   0.033  10.982   3.721 -0.4819  0.4920 -0.1518
  210MOL0     N28267   0.017  10.916   3.606  0.5143  0.1989 -0.4729
  210MOL0     C28268  -0.036  11.045   2.458 -0.2264 -0.2380 -0.3890
  210MOL0     C28269  -0.046  11.155   2.370 -0.3492  0.1014  0.3500
  210MOL0     C28270  -0.160  11.463   2.081  0.6744  0.4442  0.1018
  210MOL0     C28271  -0.262  11.549   2.122 -0.3698  0.4122 -0.8125
  210MOL0     C28272  -0.319  11.647   2.030  0.0533 -0.0054  0.1930
  210MOL0     C28273  -0.267  11.657   1.909 -0.1631  0.6889  0.4420
  210MOL0     O28274  -0.331  11.744   1.826 -0.3864 -0.6533  0.1227
  210MOL0     C28275  -0.425  11.690   1.734  0.7266 -0.9201 -0.6024
  210MOL0     C28276  -0.568  11.735   1.778  0.9028  0.3494  0.5852
  210MOL0     C28277  -0.678  11.653   1.701  0.2477  0.2032  0.2582
  210MOL0     C28278  -0.696  11.698   1.557  0.7448  0.1252  0.3512
  210MOL0     C28279  -0.796  11.633   1.476  0.6748 -0.7142  0.4667
  210MOL0     C28280  -0.874  11.569   1.403  0.8598 -0.2587 -1.0191
  210MOL0     C28281  -0.153  11.579   1.867  0.4593  0.2452 -0.3090
  210MOL0     C28282  -0.107  11.476   1.951 -0.1942 -1.3640  0.1021
  210MOL0     H28283  -0.286  11.338   2.526  1.3537  1.0545 -1.2838
  210MOL0     H28284  -0.248  11.147   2.698  3.7340  0.5139  1.7232
  210MOL0     H28285  -0.149  10.750   2.672 -0.3668  1.3127  3.1505
  210MOL0     H28286  -0.034  10.809   2.537  1.7135  1.3251  0.8284
  210MOL0     H28287   0.083  10.655   2.718  1.2550 -0.1979 -0.6619
  210MOL0     H28288   0.146  10.824   2.700  1.4231 -1.1129  3.2294
  210MOL0     H28289  -0.004  10.894   2.901 -0.2979 -0.4528  2.0814
  210MOL0     H28290  -0.023  10.720   2.928 -0.8624  1.1421 -0.2580
  210MOL0     H28291   0.237  10.704   2.960 -0.3642 -1.1641 -1.7459
  210MOL0     H28292   0.235  10.879   2.930 -2.4650  1.1861 -2.2754
  210MOL0     H28293   0.108  10.940   3.114 -0.1306  0.6228 -0.8011
  210MOL0     H28294   0.079  10.771   3.150  1.3404 -1.5560 -1.0310
  210MOL0     H28295   0.324  10.742   3.198  1.2508 -0.1252 -1.7118
  210MOL0     H28296   0.352  10.912   3.130  0.2693 -0.8242 -1.2910
  210MOL0     H28297   0.369  10.880   3.379 -0.0654  0.2690 -1.0781
  210MOL0     H28298   0.262  11.014   3.336  1.2981  0.3647 -0.6708
  210MOL0     H28299   0.191  10.744   3.445  1.9940 -0.2500 -2.5024
  210MOL0     H28300   0.064  10.849   3.359 -0.0164 -2.6809 -0.4428
  210MOL0     H28301   0.343  10.964   3.600  0.5123 -2.6934 -0.3388
  210MOL0     H28302   0.334  11.083   3.845 -0.2885 -2.9087 -1.0063
  210MOL0     H28303   0.165  11.176   3.848  2.0976  2.4468  1.4452
  210MOL0     H28304   0.259  11.019   4.066 -0.5287  2.3316  1.4266
  210MOL0     H28305   0.180  10.898   3.949  1.0979 -0.1720 -2.8216
  210MOL0     H28306  -0.022  11.028   3.960 -0.0874  0.7746 -1.0198
  210MOL0     H28307   0.054  11.165   4.052  2.1357  0.0815 -2.6191
  210MOL0     H28308   0.094  10.997   4.245  4.1330 -0.4509 -3.0965
  210MOL0     H28309  -0.001  10.880   4.160  0.0828 -0.1876  0.2092
  210MOL0     H28310  -0.154  10.874   4.015 -0.3122 -1.8216 -0.8746
  210MOL0     H28311  -0.277  10.715   3.951  3.1989  3.4068 -2.0821
  210MOL0     H28312  -0.455  10.709   3.912  1.2226 -2.4563 -1.4379
  210MOL0     H28313  -0.350  10.807   3.813 -1.3121  0.1935 -1.1210
  210MOL0     H28314  -0.894  11.183   3.917  1.3334 -0.4633  0.8358
  210MOL0     H28315  -1.126  11.147   3.866  1.3274 -0.6992 -1.2564
  210MOL0     H28316  -1.373  10.872   4.149  4.7585 -0.9590 -0.3173
  210MOL0     H28317  -1.308  11.028   4.200 -2.7067  0.3893  2.2395
  210MOL0     H28318  -1.466  11.154   4.072  1.4025  0.0979 -1.7669
  210MOL0     H28319  -1.552  11.007   4.030  0.4808 -1.9586  0.8342
  210MOL0     H28320  -1.594  10.971   4.282  3.5749 -1.7060 -1.7213
  210MOL0     H28321  -1.680  11.088   4.199 -0.5656  0.1140  1.9734
  210MOL0     H28322  -1.591  11.140   4.407  0.6758  0.6359  1.4059
  210MOL0     H28323  -1.421  11.170   4.337  0.9250 -0.9748 -2.6239
  210MOL0     H28324  -1.683  11.311   4.256 -0.3562  0.9251  0.8571
  210MOL0     H28325  -1.524  11.351   4.193  1.5794 -2.1361 -0.6346
  210MOL0     H28326  -1.661  11.385   4.455 -0.3960 -1.7022 -0.2447
  210MOL0     H28327  -1.489  11.395   4.470 -0.8918 -1.2846  0.4539
  210MOL0     H28328  -1.606  11.615   4.397 -2.4601 -1.7376 -0.4320
  210MOL0     H28329  -1.622  11.552   4.236 -1.0232  1.3063 -0.3300
  210MOL0     H28330  -1.415  11.681   4.224  3.1419 -0.5278 -2.2221
  210MOL0     H28331  -1.383  11.511   4.220 -1.2466  1.1151 -2.0305
  210MOL0     H28332  -1.121  10.794   4.132 -0.2335  0.6722  1.9106
  210MOL0     H28333  -0.878  10.821   4.156 -0.6855 -1.8535 -1.9492
  210MOL0     H28334  -0.529  11.158   4.169  3.0612  1.5832  0.3444
  210MOL0     H28335  -0.318  11.187   4.247  3.2524 -0.5148 -0.3695
  210MOL0     H28336   0.038  10.969   2.434  3.0611  2.6517 -0.2725
  210MOL0     H28337   0.023  11.145   2.287  1.0511 -3.7628  1.7427
  210MOL0     H28338  -0.312  11.546   2.219 -1.7168 -1.7392 -1.5004
  210MOL0     H28339  -0.405  11.708   2.056 -0.7289 -1.5500  1.3683
  210MOL0     H28340  -0.399  11.716   1.631  1.2382 -0.7518 -0.4380
  210MOL0     H28341  -0.432  11.581   1.738  0.1581 -0.9343 -1.7557
  210MOL0     H28342  -0.573  11.841   1.750 -0.8250  0.1567  0.0490
  210MOL0     H28343  -0.575  11.726   1.887 -0.8072 -0.5814  0.4239
  210MOL0     H28344  -0.768  11.653   1.764 -0.5345  0.8762 -0.8356
  210MOL0     H28345  -0.657  11.545   1.703  1.2556  0.3978  0.4952
  210MOL0     H28346  -0.602  11.667   1.511 -0.5336 -1.4687 -1.3340
  210MOL0     H28347  -0.706  11.807   1.554 -2.7892 -0.1202 -1.1108
  210MOL0     H28348  -0.929  11.504   1.339  1.3610 -1.9088  0.1795
  210MOL0     H28349  -0.110  11.584   1.767  0.2874 -0.8951 -0.4493
  210MOL0     H28350  -0.031  11.409   1.913 -0.1710  0.0597 -2.5706
  211MOL0     O28351   2.774   2.216   4.372 -1.0980 -0.0488  0.6733
  211MOL0     C28352   2.773   2.127   4.449 -0.1204  0.0731 -0.1059
  211MOL0     O28353   2.863   2.103   4.541  0.6390  0.4668  0.2932
  211MOL0     C28354   2.998   2.141   4.521  0.1457 -0.6216  0.0024
  211MOL0     C28355   3.079   2.133   4.636  0.1460 -0.5318  0.1346
  211MOL0     C28356   3.212   2.179   4.632  0.0810 -0.3988  0.1359
  211MOL0     C28357   3.278   2.221   4.512  0.9935  0.4431  0.5394
  211MOL0     O28358   3.417   2.241   4.505 -0.0208  0.0308  0.5074
  211MOL0     C28359   3.500   2.152   4.588 -0.1618 -1.0331 -0.7413
  211MOL0     C28360   3.501   2.013   4.521  0.8686  0.1874 -0.3616
  211MOL0     C28361   3.630   1.932   4.520  0.6413  0.0692 -0.0242
  211MOL0     C28362   3.652   1.878   4.660 -0.3998  0.3008 -0.8153
  211MOL0     C28363   3.803   1.832   4.675 -0.4636 -0.1107 -0.1413
  211MOL0     C28364   3.817   1.741   4.799  0.8062  0.0701  0.2768
  211MOL0     C28365   3.959   1.685   4.812  1.1878 -0.7505  0.1038
  211MOL0     C28366   4.073   1.786   4.851 -0.0747  1.4535 -0.6048
  211MOL0     N28367   4.067   1.835   4.992 -0.1363 -0.8062 -0.5975
  211MOL0     C28368   4.060   1.961   5.034  0.0999  0.8508  0.4454
  211MOL0     C28369   4.055   1.954   5.170 -0.7608 -0.2344  0.8322
  211MOL0     C28370   4.012   2.061   5.261 -0.6846 -0.0765  0.3933
  211MOL0     C28371   3.964   2.181   5.179 -0.9109 -0.3539  0.2728
  211MOL0     C28372   3.899   2.290   5.268 -0.4996  0.0754  1.2959
  211MOL0     C28373   3.854   2.419   5.196 -1.5113  0.3519  0.1900
  211MOL0     O28374   3.769   2.385   5.087 -0.1695  0.1283 -0.8080
  211MOL0     C28375   3.639   2.333   5.106  0.6233 -0.6679  0.5825
  211MOL0     C28376   3.570   2.343   5.221 -0.3628  0.5269  0.7327
  211MOL0     C28377   3.442   2.300   5.239  0.2129 -0.6070  0.7890
  211MOL0     C28378   3.385   2.311   5.387  0.2281 -0.1450  0.9404
  211MOL0     C28379   3.368   2.250   5.118  0.3542  0.3829 -0.9418
  211MOL0     C28380   3.226   2.201   5.122  0.2810  0.0528 -0.2829
  211MOL0     O28381   3.187   2.129   5.019  0.1937 -0.3132  0.8767
  211MOL0     C28382   3.055   2.084   5.019  0.3368  0.5031  0.2097
  211MOL0     C28383   3.033   1.946   5.020  0.5405 -0.0542 -0.0575
  211MOL0     C28384   2.899   1.897   4.986  0.0477 -0.6859  0.5647
  211MOL0     C28385   2.790   1.986   4.974  0.1036 -0.5669 -0.3113
  211MOL0     O28386   2.664   1.934   4.976 -0.3224 -0.4434 -0.3323
  211MOL0     C28387   2.598   1.949   5.108  0.0629  0.2915  0.7470
  211MOL0     C28388   2.504   1.839   5.130 -0.1690  1.0841  0.6528
  211MOL0     C28389   2.379   1.859   5.062  0.1821 -0.0889  0.1646
  211MOL0     C28390   2.266   1.787   5.133  0.6396  0.1987 -0.1399
  211MOL0     C28391   2.128   1.791   5.058 -0.2596  0.4881  0.2585
  211MOL0     C28392   2.020   1.796   5.168  0.1400  0.5256 -0.2509
  211MOL0     C28393   2.000   1.656   5.233  0.3555  0.4715  0.4252
  211MOL0     C28394   1.887   1.654   5.332  0.4819 -0.5151  0.5946
  211MOL0    Cl28395   1.734   1.693   5.245 -0.2934  0.0974 -0.2631
  211MOL0     C28396   2.818   2.121   4.968 -0.4596  0.7417 -0.8753
  211MOL0     C28397   2.953   2.168   4.983 -0.1897  0.2092 -0.7927
  211MOL0     O28398   3.155   2.239   5.215 -0.7467 -0.3386 -0.5206
  211MOL0     C28399   3.443   2.243   5.004  0.3036 -1.4570 -0.3104
  211MOL0     C28400   3.576   2.284   4.988  0.3149 -0.0381  0.4095
  211MOL0     N28401   4.067   1.823   5.210  0.3874 -0.6940  0.6860
  211MOL0     N28402   4.080   1.755   5.100  0.4319 -0.5215  0.9456
  211MOL0     C28403   3.192   2.228   4.398 -0.0410  0.4684  0.6084
  211MOL0     C28404   3.060   2.206   4.407 -0.3207  0.3067  0.5198
  211MOL0     C28405   2.666   2.027   4.458 -0.8674 -0.5733 -0.4311
  211MOL0     C28406   2.628   1.963   4.576 -0.1215 -0.0870 -0.7000
  211MOL0     C28407   2.518   1.877   4.575 -0.5664  0.6330 -0.3762
  211MOL0     C28408   2.446   1.844   4.457  0.2578  0.5777  0.0734
  211MOL0     O28409   2.345   1.758   4.478  0.0859 -0.0342  0.2390
  211MOL0     C28410   2.262   1.709   4.367 -0.5866  0.3702  0.7229
  211MOL0     C28411   2.350   1.603   4.291 -0.8345  0.3051 -1.4705
  211MOL0     C28412   2.383   1.472   4.383 -0.2056  0.9374 -0.3519
  211MOL0     C28413   2.479   1.364   4.320  0.6383  0.8382  0.2097
  211MOL0     C28414   2.402   1.316   4.203  0.0399  0.0819 -0.1631
  211MOL0     C28415   2.377   1.269   4.095  0.0165 -0.0266 -0.1759
  211MOL0     C28416   2.490   1.897   4.337 -0.7059 -0.4883  0.1677
  211MOL0     C28417   2.594   1.990   4.342 -0.3742  0.9565  0.0868
  211MOL0     H28418   3.047   2.097   4.734 -1.1380  1.5085  0.5312
  211MOL0     H28419   3.273   2.184   4.722 -0.1182 -1.6521  0.3584
  211MOL0     H28420   3.604   2.188   4.586 -0.5658  0.3370  0.6651
  211MOL0     H28421   3.474   2.163   4.694  0.8347  0.0859 -0.5934
  211MOL0     H28422   3.429   1.947   4.570 -0.6791 -1.1758 -4.0808
  211MOL0     H28423   3.452   2.026   4.424 -0.8786 -0.5088  0.3784
  211MOL0     H28424   3.624   1.861   4.437 -0.9650  0.0727  0.0538
  211MOL0     H28425   3.712   2.004   4.507 -0.0722  0.9159  0.0559
  211MOL0     H28426   3.628   1.953   4.736 -1.5126 -0.0166 -0.8328
  211MOL0     H28427   3.587   1.793   4.680 -0.9249 -0.3316 -4.4952
  211MOL0     H28428   3.829   1.767   4.591 -2.3071 -0.1664 -0.7170
  211MOL0     H28429   3.871   1.918   4.676 -0.0799 -0.4219  0.5861
  211MOL0     H28430   3.788   1.797   4.889 -0.9789  0.5068 -0.5196
  211MOL0     H28431   3.743   1.661   4.784  1.0434  0.2128 -1.9408
  211MOL0     H28432   3.956   1.599   4.880 -1.7073  0.1194  1.2133
  211MOL0     H28433   3.977   1.640   4.714 -1.0588 -1.0402 -0.2275
  211MOL0     H28434   4.061   1.874   4.787  4.5700 -0.0219 -4.0693
  211MOL0     H28435   4.165   1.738   4.816 -1.1982 -0.1779 -1.4624
  211MOL0     H28436   4.047   2.044   4.966 -2.4893 -0.4668 -0.8174
  211MOL0     H28437   3.928   2.028   5.324 -0.3578 -0.9240  0.3988
  211MOL0     H28438   4.095   2.084   5.329  1.9519 -1.8989 -1.9618
  211MOL0     H28439   3.879   2.146   5.120 -0.4261  1.9121 -1.9666
  211MOL0     H28440   4.042   2.234   5.124 -1.9497  0.5995 -0.3292
  211MOL0     H28441   3.968   2.324   5.346  0.6244  2.6992 -0.6792
  211MOL0     H28442   3.806   2.248   5.308 -0.5779 -0.9181  0.1439
  211MOL0     H28443   3.942   2.478   5.168 -2.1355  0.8593 -0.7733
  211MOL0     H28444   3.813   2.479   5.278  2.0093  0.8691  1.8027
  211MOL0     H28445   3.611   2.386   5.312 -0.3338  1.0631  0.4651
  211MOL0     H28446   3.359   2.216   5.434 -0.5647  0.7513  2.3627
  211MOL0     H28447   3.462   2.340   5.459  1.8454 -1.2659 -0.2448
  211MOL0     H28448   3.292   2.367   5.373 -1.1179 -2.1800  1.4425
  211MOL0     H28449   3.120   1.881   5.025  1.9702  1.7683 -0.2312
  211MOL0     H28450   2.888   1.789   4.985  1.4315 -0.9426 -3.2734
  211MOL0     H28451   2.679   1.934   5.179  0.9057 -0.5132 -0.3366
  211MOL0     H28452   2.545   2.044   5.114  0.0694  0.8189 -3.8924
  211MOL0     H28453   2.550   1.743   5.105  0.9337  0.9930  2.7463
  211MOL0     H28454   2.490   1.832   5.238  0.1224 -1.4847  0.5883
  211MOL0     H28455   2.388   1.813   4.963 -1.6265  0.2902 -0.2208
  211MOL0     H28456   2.351   1.963   5.046  1.4634  0.0601 -1.3674
  211MOL0     H28457   2.293   1.683   5.153  2.2251  0.6474  0.1986
  211MOL0     H28458   2.253   1.810   5.239 -0.3565 -0.9266  0.0006
  211MOL0     H28459   2.126   1.706   4.988  1.4799  2.1905 -2.0151
  211MOL0     H28460   2.126   1.878   4.993  1.1977  1.6110  1.6454
  211MOL0     H28461   2.059   1.866   5.244 -1.2640  0.6105  0.4128
  211MOL0     H28462   1.921   1.825   5.134  0.0314 -1.7797 -2.1172
  211MOL0     H28463   2.090   1.625   5.286  0.3629 -1.6012 -0.6912
  211MOL0     H28464   1.985   1.587   5.149  1.7392  0.7893 -0.1149
  211MOL0     H28465   1.899   1.729   5.411  1.5716 -1.2421  1.1509
  211MOL0     H28466   1.877   1.556   5.381  0.8422 -0.2323  1.2395
  211MOL0     H28467   2.739   2.196   4.968 -0.9086  0.2838  0.4484
  211MOL0     H28468   2.974   2.275   4.977 -1.5689  0.6560  1.5050
  211MOL0     H28469   3.395   2.214   4.911  0.7015 -1.5507 -0.4919
  211MOL0     H28470   3.634   2.265   4.899 -1.0566 -0.7979 -0.3626
  211MOL0     H28471   3.218   2.256   4.297 -1.4474 -0.6363 -0.1036
  211MOL0     H28472   3.012   2.212   4.310  0.5369  0.6289  0.1055
  211MOL0     H28473   2.670   2.002   4.668 -3.1986 -3.2403  2.3571
  211MOL0     H28474   2.482   1.837   4.669  0.1333  0.5354 -0.1417
  211MOL0     H28475   2.165   1.665   4.393 -0.3049 -2.5762 -2.4609
  211MOL0     H28476   2.250   1.794   4.299  2.5208 -0.0154 -0.4950
  211MOL0     H28477   2.445   1.646   4.259 -0.1783  0.7172  0.8245
  211MOL0     H28478   2.283   1.580   4.208 -3.7050  1.6969  0.2827
  211MOL0     H28479   2.288   1.423   4.406 -0.4421  2.4349  2.3563
  211MOL0     H28480   2.422   1.506   4.480 -0.7402  1.5864 -0.3589
  211MOL0     H28481   2.486   1.280   4.390 -0.9673 -1.8644 -2.6130
  211MOL0     H28482   2.579   1.406   4.305  0.3675  0.3385 -4.1157
  211MOL0     H28483   2.360   1.226   3.998  1.4377  1.0877 -0.9470
  211MOL0     H28484   2.446   1.874   4.241  1.9787 -2.6788 -0.6623
  211MOL0     H28485   2.627   2.044   4.254 -1.0610  0.3939 -0.5279
  212MOL0     O28486   9.604  10.131   5.986  0.0724 -0.2601  0.5130
  212MOL0     C28487   9.594  10.017   5.929 -0.0787 -0.6758  0.7877
  212MOL0     O28488   9.478   9.935   5.928 -0.3185  0.3206  0.6141
  212MOL0     C28489   9.359   9.991   5.978  0.1141  1.0980  0.1012
  212MOL0     C28490   9.347  10.045   6.100 -0.2336  0.2394 -0.5010
  212MOL0     C28491   9.230  10.069   6.161 -0.4384 -0.3467 -0.2975
  212MOL0     C28492   9.106  10.041   6.091 -1.0377 -0.6683 -1.4552
  212MOL0     O28493   8.992  10.048   6.166  0.1420 -0.3257  0.1263
  212MOL0     C28494   8.867   9.982   6.118  0.6141 -0.5894 -0.2169
  212MOL0     C28495   8.734  10.035   6.186 -0.9414 -0.0449 -0.1070
  212MOL0     C28496   8.705  10.183   6.154 -0.6426  0.7868  0.3070
  212MOL0     C28497   8.588  10.225   6.234 -0.0573 -0.4372  0.0117
  212MOL0     C28498   8.511  10.345   6.170  0.7722 -0.5569  0.0784
  212MOL0     C28499   8.409  10.397   6.267  0.3447  0.0252 -0.1726
  212MOL0     C28500   8.327  10.515   6.217  0.3367 -0.1347 -0.1550
  212MOL0     C28501   8.227  10.566   6.319  0.0239 -0.6311 -0.9290
  212MOL0     N28502   8.298  10.659   6.411  0.2452  0.4580 -0.2446
  212MOL0     C28503   8.313  10.799   6.407  1.1917 -0.6496 -0.2709
  212MOL0     C28504   8.399  10.831   6.506 -0.7483  0.1643  1.0045
  212MOL0     C28505   8.440  10.971   6.530 -0.5304 -0.2882  0.2909
  212MOL0     C28506   8.516  11.037   6.423  0.0250 -0.7737 -0.0268
  212MOL0     C28507   8.538  11.190   6.464 -0.4249  0.9132  0.6261
  212MOL0     C28508   8.392  11.262   6.446 -0.1725 -0.6788  0.2686
  212MOL0     O28509   8.363  11.326   6.570 -1.1624  0.4131 -0.0792
  212MOL0     C28510   8.227  11.344   6.583 -0.1406 -0.4428  0.9089
  212MOL0     C28511   8.176  11.470   6.550 -0.3965 -0.5570 -0.2020
  212MOL0     C28512   8.041  11.502   6.579  0.1161  0.8792  0.7034
  212MOL0     C28513   8.007  11.653   6.564 -0.2635 -0.5061 -0.1203
  212MOL0     C28514   7.946  11.404   6.640  0.3082 -0.1154  0.4507
  212MOL0     C28515   7.808  11.440   6.673  0.7655 -0.3537  0.4316
  212MOL0     O28516   7.740  11.534   6.601 -0.1989 -0.0718  0.3907
  212MOL0     C28517   7.612  11.580   6.633 -0.3676 -0.7675 -0.5048
  212MOL0     C28518   7.596  11.680   6.731  0.1875  0.7576  0.4218
  212MOL0     C28519   7.473  11.744   6.766 -0.6476 -0.5825  0.3649
  212MOL0     C28520   7.353  11.704   6.706 -0.5255  0.7178 -0.3714
  212MOL0     O28521   7.227  11.759   6.729 -0.0536 -0.3973  0.7045
  212MOL0     C28522   7.223  11.895   6.746 -0.2746 -0.1051  0.0161
  212MOL0     C28523   7.081  11.950   6.733 -0.6815  0.2921  0.2090
  212MOL0     C28524   6.997  11.901   6.849  0.5208 -1.4648  0.3136
  212MOL0     C28525   6.872  11.992   6.879  0.0519  0.7317 -0.3343
  212MOL0     C28526   6.782  11.911   6.977  0.2812 -0.1211  0.4156
  212MOL0     C28527   6.666  12.004   7.016 -0.0735  0.2031 -0.0575
  212MOL0     C28528   6.563  11.939   7.098 -0.4658  0.0290  0.0357
  212MOL0     C28529   6.546  11.996   7.240 -0.2015  0.6998  0.0013
  212MOL0    Cl28530   6.513  12.179   7.231  0.4066  0.0700  0.4098
  212MOL0     C28531   7.367  11.594   6.612 -0.1776 -0.7048  0.6783
  212MOL0     C28532   7.493  11.542   6.570 -0.2809 -0.0658 -0.3584
  212MOL0     O28533   7.760  11.386   6.771  0.1087 -0.1564 -0.1650
  212MOL0     C28534   7.995  11.284   6.680  0.8140  0.8159  0.7136
  212MOL0     C28535   8.139  11.256   6.650 -0.9721 -0.1906  0.7705
  212MOL0     N28536   8.448  10.708   6.557 -0.1519 -0.4911 -0.4387
  212MOL0     N28537   8.385  10.609   6.509 -0.0733  0.5138 -0.2095
  212MOL0     C28538   9.120   9.973   5.968  0.1668  0.4208  0.2758
  212MOL0     C28539   9.247   9.953   5.915 -0.1707  0.8487  0.1685
  212MOL0     C28540   9.711   9.983   5.836  0.1441  0.6969 -0.0084
  212MOL0     C28541   9.831  10.053   5.833 -0.3216 -0.2207 -0.0675
  212MOL0     C28542   9.937  10.019   5.750 -0.3746 -0.2494  0.1460
  212MOL0     C28543   9.923   9.914   5.661 -0.3925 -0.1492  0.6056
  212MOL0     O28544  10.031   9.881   5.580  0.3424  0.3434 -0.0648
  212MOL0     C28545   9.991   9.892   5.450  0.0151 -0.1618  0.1165
  212MOL0     C28546  10.105   9.876   5.351  0.6637 -0.2804 -0.7844
  212MOL0     C28547  10.148   9.725   5.358 -0.6707  0.6161 -0.0841
  212MOL0     C28548  10.297   9.700   5.333  0.0394 -0.1093  1.3749
  212MOL0     C28549  10.320   9.774   5.211 -0.1380 -0.3085 -0.1954
  212MOL0     C28550  10.354   9.835   5.106  0.2131 -0.7234 -0.4939
  212MOL0     C28551   9.813   9.829   5.679  0.0899  0.0720  0.0617
  212MOL0     C28552   9.703   9.865   5.754 -0.1388  0.6363  0.1835
  212MOL0     H28553   9.440  10.063   6.154  0.9551 -1.0437 -2.0123
  212MOL0     H28554   9.215  10.122   6.254 -0.8803 -0.0378 -0.5443
  212MOL0     H28555   8.855   9.997   6.010 -0.6016 -1.5050 -0.2223
  212MOL0     H28556   8.877   9.877   6.147  1.0328 -0.1024  1.5519
  212MOL0     H28557   8.657   9.964   6.154 -2.2580 -0.3727  3.3875
  212MOL0     H28558   8.741  10.029   6.295  0.1709  5.3649  0.4027
  212MOL0     H28559   8.792  10.243   6.183 -1.7455  1.0293  3.5840
  212MOL0     H28560   8.679  10.186   6.048 -2.4928 -1.5049  0.6152
  212MOL0     H28561   8.517  10.142   6.239 -0.1897 -0.6915 -3.4205
  212MOL0     H28562   8.630  10.252   6.331 -2.0317 -3.9044  2.0470
  212MOL0     H28563   8.573  10.432   6.144 -2.7935  1.6607 -1.8522
  212MOL0     H28564   8.473  10.316   6.072  4.7525 -1.3945 -1.4125
  212MOL0     H28565   8.343  10.312   6.285  0.7392 -0.7643 -2.1587
  212MOL0     H28566   8.465  10.418   6.358  1.1395 -0.7195 -0.4730
  212MOL0     H28567   8.400  10.595   6.206 -0.7291  0.7105 -1.4996
  212MOL0     H28568   8.280  10.492   6.121 -0.6359 -0.1882  0.3116
  212MOL0     H28569   8.187  10.481   6.373 -2.1864  0.2332 -1.1169
  212MOL0     H28570   8.140  10.623   6.286 -1.5310 -2.0600  0.5093
  212MOL0     H28571   8.259  10.870   6.345 -0.3834 -1.0874  0.5647
  212MOL0     H28572   8.356  11.037   6.557  1.2830  2.1502  0.3828
  212MOL0     H28573   8.515  10.971   6.610 -0.0854  2.2733 -0.0231
  212MOL0     H28574   8.461  11.038   6.328  1.5988  2.2557 -1.0544
  212MOL0     H28575   8.613  10.989   6.404 -0.5564 -1.5618 -1.1063
  212MOL0     H28576   8.609  11.231   6.391  3.0593 -1.3033  2.4735
  212MOL0     H28577   8.581  11.203   6.564  0.0643 -1.2928  0.7632
  212MOL0     H28578   8.312  11.193   6.421 -1.5818 -0.9377  4.5547
  212MOL0     H28579   8.399  11.340   6.370  0.8096 -1.0530 -0.0339
  212MOL0     H28580   8.240  11.546   6.507 -1.1536  0.6976  0.8194
  212MOL0     H28581   7.980  11.693   6.662 -1.8274 -1.3649 -0.1766
  212MOL0     H28582   8.099  11.703   6.532 -0.4250 -0.6737 -0.8749
  212MOL0     H28583   7.931  11.658   6.485 -0.6086  0.1945  0.2496
  212MOL0     H28584   7.693  11.710   6.770  0.6051  0.3791 -0.2934
  212MOL0     H28585   7.464  11.817   6.846  0.4221 -2.2080  2.0173
  212MOL0     H28586   7.260  11.929   6.843 -3.3005  1.8131  0.6389
  212MOL0     H28587   7.279  11.938   6.663 -1.2914 -0.7133 -1.0078
  212MOL0     H28588   7.092  12.059   6.736 -2.8398  0.6353 -1.2253
  212MOL0     H28589   7.026  11.930   6.640 -3.6473  0.5140  1.7860
  212MOL0     H28590   7.062  11.897   6.936 -0.5792 -0.4143  1.2247
  212MOL0     H28591   6.955  11.800   6.839  1.4822 -1.8878  0.4804
  212MOL0     H28592   6.907  12.083   6.929  0.8885 -0.2639  0.9813
  212MOL0     H28593   6.824  12.015   6.784  0.5034 -0.8334 -0.9822
  212MOL0     H28594   6.848  11.894   7.062  0.9562  0.4956  0.0268
  212MOL0     H28595   6.747  11.817   6.935  0.5359  0.5090 -1.2820
  212MOL0     H28596   6.702  12.098   7.059  0.6359  0.6453 -1.5629
  212MOL0     H28597   6.611  12.037   6.928  0.6879  3.3917  0.5508
  212MOL0     H28598   6.570  11.830   7.105  0.2809  0.0038 -0.8465
  212MOL0     H28599   6.470  11.954   7.042 -3.4824 -2.6876  3.7609
  212MOL0     H28600   6.634  11.986   7.305 -0.9512 -0.5180  0.8672
  212MOL0     H28601   6.461  11.947   7.287  0.8317 -3.5867 -2.0653
  212MOL0     H28602   7.277  11.570   6.555 -2.2456 -2.8353  4.4165
  212MOL0     H28603   7.481  11.469   6.490 -3.2121  0.6355 -0.6840
  212MOL0     H28604   7.942  11.212   6.741  1.7795 -0.7736 -0.2210
  212MOL0     H28605   8.178  11.157   6.672 -0.8448 -0.3404 -0.1029
  212MOL0     H28606   9.032   9.943   5.912  0.5371 -1.2473  0.5267
  212MOL0     H28607   9.267   9.908   5.818  2.1726  0.4819  0.7583
  212MOL0     H28608   9.858  10.127   5.909 -1.0594 -2.3179  2.4021
  212MOL0     H28609  10.030  10.073   5.742 -1.5102  1.4901 -2.6424
  212MOL0     H28610   9.916   9.816   5.425  0.4970  0.2489 -3.0222
  212MOL0     H28611   9.945   9.990   5.433  2.4726  0.7918 -1.5154
  212MOL0     H28612  10.181   9.949   5.381 -1.0493  0.9658  0.7586
  212MOL0     H28613  10.065   9.897   5.251 -1.5124 -3.9830 -0.8950
  212MOL0     H28614  10.093   9.673   5.279  0.8605  1.5624 -1.8559
  212MOL0     H28615  10.133   9.679   5.456  0.3217  0.1173 -0.1508
  212MOL0     H28616  10.312   9.593   5.317  1.6547  0.6330 -3.6682
  212MOL0     H28617  10.356   9.724   5.421  2.2784 -2.9448  0.7943
  212MOL0     H28618  10.380   9.899   5.025 -3.0683 -1.1120 -2.0059
  212MOL0     H28619   9.822   9.744   5.612  2.6511  1.7773 -1.9868
  212MOL0     H28620   9.615   9.801   5.748  0.5422 -0.5886  2.3423
  213MOL0     O28621  10.610   4.757   1.869 -0.0244 -0.4022 -0.4814
  213MOL0     C28622  10.555   4.677   1.795 -0.7002  0.0395  0.1100
  213MOL0     O28623  10.609   4.627   1.683 -0.4545  0.3655 -0.1647
  213MOL0     C28624  10.730   4.672   1.649 -0.9378 -0.9152 -0.4207
  213MOL0     C28625  10.755   4.810   1.621  0.4838  0.1958 -0.0976
  213MOL0     C28626  10.880   4.844   1.586  1.0206  0.1582  0.1796
  213MOL0     C28627  10.986   4.758   1.587 -0.3072  0.3022 -0.6826
  213MOL0     O28628  11.113   4.800   1.576  0.4784 -0.1086  0.1786
  213MOL0     C28629  11.144   4.918   1.646 -0.4214  0.0975  0.3685
  213MOL0     C28630  11.292   4.935   1.671  0.9188 -0.2547  0.4788
  213MOL0     C28631  11.375   4.933   1.544 -0.0674  0.2402  0.2597
  213MOL0     C28632  11.354   5.058   1.451  0.1334  0.5988 -0.2971
  213MOL0     C28633  11.436   5.051   1.322  0.1546 -0.7375 -0.0013
  213MOL0     C28634  11.445   5.187   1.240 -0.0096 -0.2643 -0.5655
  213MOL0     C28635  11.497   5.310   1.314 -0.0964 -0.2117 -0.5032
  213MOL0     C28636  11.649   5.303   1.343  0.0218 -0.2041 -0.6681
  213MOL0     N28637  11.694   5.432   1.392 -0.1072 -0.4471 -0.8763
  213MOL0     C28638  11.815   5.504   1.354  0.2065  0.2064 -1.4245
  213MOL0     C28639  11.797   5.629   1.415  1.1824  0.2679  0.2340
  213MOL0     C28640  11.878   5.752   1.390 -0.0942 -0.0981 -0.1939
  213MOL0     C28641  12.031   5.731   1.410 -0.5424  0.2490 -0.2640
  213MOL0     C28642  12.109   5.858   1.373 -0.6328  0.5175 -0.0868
  213MOL0     C28643  12.089   5.982   1.471  0.6137  0.5263  0.3705
  213MOL0     O28644  12.098   5.942   1.611  0.1056  0.1882  0.6215
  213MOL0     C28645  12.040   6.023   1.706 -0.1453 -0.5847  0.0150
  213MOL0     C28646  12.047   5.986   1.842 -0.3416  0.0188 -0.0255
  213MOL0     C28647  11.996   6.054   1.950 -0.2111 -0.1685 -0.3576
  213MOL0     C28648  12.002   5.995   2.091  0.0304 -0.2874  0.1782
  213MOL0     C28649  11.934   6.186   1.924  0.2852 -0.0064  0.3594
  213MOL0     C28650  11.879   6.277   2.031 -0.4677  0.6228 -1.0978
  213MOL0     O28651  11.823   6.400   1.984  0.3411 -0.2632 -0.4310
  213MOL0     C28652  11.777   6.507   2.056 -0.3994  0.2194 -0.1553
  213MOL0     C28653  11.747   6.617   1.979 -1.1103  1.0074  0.9291
  213MOL0     C28654  11.687   6.733   2.026  0.0380 -0.6453  0.4327
  213MOL0     C28655  11.631   6.737   2.153  0.4706  0.2640  0.1646
  213MOL0     O28656  11.577   6.857   2.193  0.3798 -0.2328  0.3548
  213MOL0     C28657  11.563   6.885   2.329 -0.4106  0.4295 -0.0737
  213MOL0     C28658  11.519   7.032   2.351  0.2018  0.1066 -0.2511
  213MOL0     C28659  11.373   7.052   2.295 -0.2627 -0.0568 -0.3762
  213MOL0     C28660  11.262   7.016   2.399 -0.0125  0.5140 -0.8698
  213MOL0     C28661  11.124   6.998   2.335  0.4597  0.5012  0.0766
  213MOL0     C28662  11.013   6.992   2.443  0.4836 -0.4615 -0.6541
  213MOL0     C28663  11.050   6.903   2.564 -0.5738  0.0608 -0.0733
  213MOL0     C28664  10.929   6.857   2.648 -0.7487 -0.8446 -0.3055
  213MOL0    Cl28665  10.820   6.749   2.566  0.7199 -0.0744  0.1057
  213MOL0     C28666  11.641   6.621   2.235  0.0757  0.4459 -0.1173
  213MOL0     C28667  11.720   6.511   2.183 -0.4713 -0.0012 -0.2769
  213MOL0     O28668  11.889   6.251   2.149 -0.2772  0.6294 -0.2748
  213MOL0     C28669  11.923   6.224   1.789  0.0814 -0.5157  0.6006
  213MOL0     C28670  11.981   6.145   1.680 -0.1890 -0.3816  0.5256
  213MOL0     N28671  11.694   5.616   1.504  0.9040  0.1332 -0.2750
  213MOL0     N28672  11.621   5.497   1.487  0.0339  0.0071  0.5204
  213MOL0     C28673  10.969   4.624   1.621 -0.5751 -0.7807 -1.2978
  213MOL0     C28674  10.843   4.583   1.656  0.7339  0.6332 -0.6251
  213MOL0     C28675  10.424   4.630   1.836  0.1034 -0.0116 -0.3253
  213MOL0     C28676  10.338   4.578   1.741 -0.7056  0.1096 -0.6944
  213MOL0     C28677  10.209   4.532   1.780 -0.4409  0.5017  0.2423
  213MOL0     C28678  10.159   4.543   1.914  0.4378  0.1335  0.1035
  213MOL0     O28679  10.028   4.501   1.937  0.1945  0.0764  0.3472
  213MOL0     C28680   9.990   4.502   2.074  0.7433  0.6408 -0.2755
  213MOL0     C28681   9.871   4.410   2.104 -1.2595 -1.1188 -0.4775
  213MOL0     C28682   9.894   4.271   2.052  0.7394  0.3794 -0.0455
  213MOL0     C28683   9.770   4.183   2.069 -0.9340  0.3843  1.1969
  213MOL0     C28684   9.723   4.168   2.205  0.1745 -0.5250 -0.1910
  213MOL0     C28685   9.677   4.151   2.315  0.3187 -0.1466  0.4840
  213MOL0     C28686  10.242   4.615   2.002  0.1218  0.2380 -0.8580
  213MOL0     C28687  10.368   4.653   1.963 -0.1707 -0.5001 -0.2912
  213MOL0     H28688  10.670   4.876   1.635 -1.0298 -0.7844 -3.4863
  213MOL0     H28689  10.892   4.947   1.554  1.6851  0.3428  0.9953
  213MOL0     H28690  11.112   5.004   1.587  0.3918  0.8544  0.9953
  213MOL0     H28691  11.086   4.928   1.738  1.0650  0.5033  1.3023
  213MOL0     H28692  11.303   5.019   1.741 -4.7576 -0.7294  2.4514
  213MOL0     H28693  11.337   4.858   1.735  0.5169 -0.9695 -0.0918
  213MOL0     H28694  11.481   4.933   1.569 -0.1419  3.0761  0.9007
  213MOL0     H28695  11.354   4.845   1.482  2.8127 -1.8677  2.0475
  213MOL0     H28696  11.250   5.079   1.426 -0.0428  1.7563  1.2718
  213MOL0     H28697  11.377   5.151   1.502  1.9989  0.3958 -0.6860
  213MOL0     H28698  11.542   5.024   1.328  0.6522  0.4040 -2.3607
  213MOL0     H28699  11.399   4.979   1.249  2.7495 -3.5085  1.1937
  213MOL0     H28700  11.482   5.175   1.137  2.1884  1.8346 -0.1053
  213MOL0     H28701  11.341   5.215   1.221  0.3744  2.6782  1.1599
  213MOL0     H28702  11.472   5.401   1.259  1.3632  0.0914 -0.6938
  213MOL0     H28703  11.448   5.328   1.411  0.1867  0.7879 -0.5274
  213MOL0     H28704  11.703   5.287   1.249  1.2444  0.4787 -0.1121
  213MOL0     H28705  11.663   5.218   1.410 -0.9857 -0.0484 -0.2476
  213MOL0     H28706  11.891   5.480   1.280 -0.7622 -2.0018 -1.7834
  213MOL0     H28707  11.867   5.792   1.289  3.1413 -0.4330 -0.7936
  213MOL0     H28708  11.847   5.826   1.463  0.3260  0.4430 -0.5530
  213MOL0     H28709  12.064   5.657   1.337  0.4678  0.0955  0.3266
  213MOL0     H28710  12.061   5.701   1.511 -0.1588 -3.8586 -1.4051
  213MOL0     H28711  12.097   5.877   1.266  0.7363  2.0515 -0.0006
  213MOL0     H28712  12.213   5.829   1.387  0.0200  2.7333 -0.0562
  213MOL0     H28713  11.986   6.018   1.457 -1.0472 -3.7165  0.1523
  213MOL0     H28714  12.167   6.054   1.446  1.5886 -2.1399 -6.3488
  213MOL0     H28715  12.081   5.885   1.865  0.2090  0.6059  1.8840
  213MOL0     H28716  11.909   6.017   2.145  1.0618  2.6538  0.9018
  213MOL0     H28717  12.010   5.886   2.091 -2.0794 -0.4939  0.0138
  213MOL0     H28718  12.090   6.036   2.140  3.6478 -2.7455 -3.6084
  213MOL0     H28719  11.779   6.612   1.876  1.7566 -0.7316  1.7832
  213MOL0     H28720  11.661   6.818   1.964  0.2803 -0.7150  0.2365
  213MOL0     H28721  11.477   6.826   2.362 -0.4456  1.3284  1.5578
  213MOL0     H28722  11.648   6.856   2.392 -1.5924  0.7355  1.7495
  213MOL0     H28723  11.520   7.053   2.459  3.5029  1.6082 -0.4410
  213MOL0     H28724  11.602   7.095   2.318 -0.5361 -0.1275 -2.6974
  213MOL0     H28725  11.368   6.983   2.210 -0.0945  0.5993 -0.9188
  213MOL0     H28726  11.358   7.157   2.270 -0.4771 -0.2594 -1.0945
  213MOL0     H28727  11.287   6.925   2.455 -2.5796  0.0103 -0.4198
  213MOL0     H28728  11.250   7.100   2.467 -1.1702  2.3331 -3.1647
  213MOL0     H28729  11.129   6.908   2.274 -1.3383 -1.0171  2.0267
  213MOL0     H28730  11.106   7.087   2.274  1.2347  1.3019  0.9822
  213MOL0     H28731  10.998   7.095   2.478  2.0624 -0.9385  1.7259
  213MOL0     H28732  10.914   6.967   2.405 -0.9920  3.4428  0.0926
  213MOL0     H28733  11.123   6.953   2.628  3.1028 -0.1702 -3.7086
  213MOL0     H28734  11.084   6.810   2.516 -3.1336 -0.0533 -1.8673
  213MOL0     H28735  10.877   6.951   2.668  1.0944 -0.0281  0.9133
  213MOL0     H28736  10.950   6.814   2.746  0.8433  0.4046 -0.0532
  213MOL0     H28737  11.601   6.608   2.335 -2.0793 -0.4975 -1.0377
  213MOL0     H28738  11.711   6.417   2.238  0.4046  0.9981  1.6790
  213MOL0     H28739  11.891   6.327   1.773  2.8742  0.7176  2.0375
  213MOL0     H28740  11.993   6.183   1.579  0.5328  5.5290  2.4568
  213MOL0     H28741  11.052   4.555   1.633 -0.9152 -0.7998  1.7077
  213MOL0     H28742  10.821   4.478   1.667 -1.6396  1.2811  1.8278
  213MOL0     H28743  10.380   4.565   1.642  0.3044  0.6495 -0.3474
  213MOL0     H28744  10.136   4.480   1.718  1.9009 -0.4014 -1.9099
  213MOL0     H28745  10.068   4.465   2.141 -3.0802 -0.7590  3.8426
  213MOL0     H28746   9.962   4.603   2.104 -0.9122  0.2199 -0.3337
  213MOL0     H28747   9.775   4.446   2.065 -0.1214  1.6809 -0.8799
  213MOL0     H28748   9.870   4.401   2.214 -1.1065 -0.2917 -0.4048
  213MOL0     H28749   9.980   4.218   2.094  2.7321  1.4239 -2.5271
  213MOL0     H28750   9.902   4.280   1.943 -3.0770  0.7985 -0.4095
  213MOL0     H28751   9.801   4.082   2.041  2.2972  1.6751 -0.3151
  213MOL0     H28752   9.690   4.226   2.007  0.2093 -0.7149 -1.1387
  213MOL0     H28753   9.619   4.157   2.405  0.7972  0.9697  0.7396
  213MOL0     H28754  10.210   4.642   2.102 -2.5013  0.6595 -1.7148
  213MOL0     H28755  10.425   4.724   2.022  0.3732 -1.4457  0.3575
  214MOL0     O28756   6.133   1.754   6.473 -0.2947  0.5453  0.4409
  214MOL0     C28757   6.066   1.786   6.571  0.2276  0.1122  0.4960
  214MOL0     O28758   6.094   1.757   6.700  0.2916  0.8756 -0.3323
  214MOL0     C28759   6.204   1.680   6.731  0.7868  0.1936  0.1458
  214MOL0     C28760   6.331   1.729   6.696  0.0603  1.1942  0.2623
  214MOL0     C28761   6.442   1.662   6.718  0.2886 -0.8915  0.2055
  214MOL0     C28762   6.432   1.526   6.767 -0.0433 -0.2032 -0.7603
  214MOL0     O28763   6.524   1.431   6.791 -0.0048  0.4350  0.0021
  214MOL0     C28764   6.653   1.479   6.839 -0.8265  0.0179 -0.4048
  214MOL0     C28765   6.772   1.373   6.842 -0.7143 -0.3029 -0.7869
  214MOL0     C28766   6.912   1.429   6.858 -0.3707 -0.1137 -0.1248
  214MOL0     C28767   7.018   1.331   6.811 -0.2208 -0.3054  0.6951
  214MOL0     C28768   7.146   1.413   6.826  0.7815 -0.4149 -0.1552
  214MOL0     C28769   7.262   1.321   6.864  0.2633  0.3445  0.3948
  214MOL0     C28770   7.245   1.275   7.009 -0.1541 -0.5307 -0.4205
  214MOL0     C28771   7.276   1.390   7.115 -0.6147  0.0382  0.1428
  214MOL0     N28772   7.422   1.411   7.144 -0.7766  0.0350 -0.4479
  214MOL0     C28773   7.511   1.327   7.207 -0.4834 -0.4676 -0.0622
  214MOL0     C28774   7.627   1.400   7.211 -0.9202 -0.0014 -0.2965
  214MOL0     C28775   7.766   1.376   7.261  0.2070  0.2152 -0.5419
  214MOL0     C28776   7.809   1.238   7.311 -0.3838 -0.6370  0.4777
  214MOL0     C28777   7.736   1.212   7.439 -0.1440  0.1044  0.1178
  214MOL0     C28778   7.754   1.073   7.487 -0.1546 -0.8252  0.5729
  214MOL0     O28779   7.707   0.964   7.397  0.4511 -0.1661  0.7136
  214MOL0     C28780   7.583   0.950   7.350  0.9969 -0.9531  0.2886
  214MOL0     C28781   7.483   1.011   7.429 -0.3418  0.1827  0.5245
  214MOL0     C28782   7.350   1.017   7.382 -0.3428 -0.2698 -0.6909
  214MOL0     C28783   7.250   1.092   7.471  0.2199 -0.5347 -0.3134
  214MOL0     C28784   7.320   0.957   7.254  0.8588 -0.0287 -0.9199
  214MOL0     C28785   7.190   0.982   7.187 -0.7395  0.9599  0.4085
  214MOL0     O28786   7.177   0.903   7.071  0.8672  0.4423  0.2795
  214MOL0     C28787   7.076   0.941   6.985  0.1983 -0.5340 -0.1590
  214MOL0     C28788   6.941   0.944   7.012 -1.3689 -0.4538 -1.4825
  214MOL0     C28789   6.842   0.980   6.920  0.2531 -0.6159 -0.1446
  214MOL0     C28790   6.876   1.015   6.790 -0.4430 -0.2344  0.2524
  214MOL0     O28791   6.787   1.047   6.687  0.1677 -0.1938  0.1028
  214MOL0     C28792   6.647   1.013   6.694  0.1833 -0.4917  0.0705
  214MOL0     C28793   6.616   0.871   6.670 -0.8713  0.4265  0.2668
  214MOL0     C28794   6.463   0.837   6.669 -0.8134 -0.0598 -0.2658
  214MOL0     C28795   6.438   0.682   6.647 -0.2069 -0.2406 -0.1677
  214MOL0     C28796   6.305   0.631   6.702  1.0905  0.1379  0.0861
  214MOL0     C28797   6.260   0.678   6.846 -0.3190  0.3993  1.0277
  214MOL0     C28798   6.134   0.600   6.886 -0.4355  0.6601  0.2889
  214MOL0     C28799   6.047   0.679   6.994 -0.5279 -0.2355  0.7558
  214MOL0    Cl28800   5.916   0.569   7.032  0.2912 -0.4666  0.0066
  214MOL0     C28801   7.009   1.011   6.760  1.0119 -0.9139 -0.1952
  214MOL0     C28802   7.113   0.974   6.845 -0.8880 -0.4414 -0.6471
  214MOL0     O28803   7.117   1.066   7.225  0.4123  0.1041  0.1412
  214MOL0     C28804   7.411   0.868   7.203  0.3401 -0.5522 -0.0876
  214MOL0     C28805   7.542   0.866   7.248  0.1369  0.0509 -0.7105
  214MOL0     N28806   7.607   1.517   7.148  1.1559 -0.0745  0.5512
  214MOL0     N28807   7.488   1.521   7.100  0.4578  0.4567 -0.0542
  214MOL0     C28808   6.308   1.484   6.813 -0.6944  0.2467  0.3608
  214MOL0     C28809   6.192   1.560   6.798 -0.2836 -0.5896 -1.0984
  214MOL0     C28810   5.938   1.857   6.543 -0.1307  0.2248 -0.7144
  214MOL0     C28811   5.845   1.855   6.647  0.8593  0.2042  0.2069
  214MOL0     C28812   5.706   1.896   6.620  0.6761 -0.0057 -0.4047
  214MOL0     C28813   5.686   1.975   6.505  0.5488  0.1484 -0.0522
  214MOL0     O28814   5.566   2.040   6.494 -0.4304  0.0465  0.2385
  214MOL0     C28815   5.492   2.037   6.374 -1.2365  0.2454 -0.2046
  214MOL0     C28816   5.371   2.122   6.391 -0.9970  0.4685  0.0596
  214MOL0     C28817   5.382   2.277   6.391  0.1102 -0.0952 -0.7345
  214MOL0     C28818   5.462   2.337   6.283  0.3086 -0.6767  0.6776
  214MOL0     C28819   5.460   2.479   6.298 -0.5065 -1.2637 -0.1048
  214MOL0     C28820   5.469   2.599   6.319 -0.3941 -0.1693 -0.4629
  214MOL0     C28821   5.785   1.976   6.396 -1.0211 -0.6613  0.0714
  214MOL0     C28822   5.910   1.915   6.419  0.2033 -0.2697  0.2244
  214MOL0     H28823   6.339   1.823   6.641 -1.1024  1.6392  0.8258
  214MOL0     H28824   6.529   1.707   6.673 -0.6567 -0.5553 -1.3787
  214MOL0     H28825   6.684   1.566   6.780 -1.4383 -0.0882 -0.8870
  214MOL0     H28826   6.641   1.513   6.942 -3.1990 -2.0921  0.0926
  214MOL0     H28827   6.769   1.299   6.923 -0.7938  1.3241  0.7596
  214MOL0     H28828   6.766   1.325   6.744  2.2439  1.9981 -2.2790
  214MOL0     H28829   6.919   1.518   6.795 -2.2700 -1.6818 -2.7972
  214MOL0     H28830   6.933   1.440   6.964  0.2863 -0.0596 -0.2584
  214MOL0     H28831   7.005   1.250   6.884 -0.4798 -1.4424 -0.5697
  214MOL0     H28832   7.009   1.296   6.707 -0.2769  1.5973  0.0183
  214MOL0     H28833   7.171   1.462   6.732  4.4225  2.2704  1.9597
  214MOL0     H28834   7.127   1.495   6.896  0.3522  0.9063 -1.7716
  214MOL0     H28835   7.276   1.231   6.803  0.5534 -0.4135  1.5390
  214MOL0     H28836   7.354   1.380   6.864  0.5460 -0.0687 -0.6877
  214MOL0     H28837   7.144   1.233   7.016  0.0732 -1.1327 -0.6317
  214MOL0     H28838   7.307   1.189   7.039 -1.0130 -0.4773  1.7052
  214MOL0     H28839   7.231   1.366   7.213  3.8512  0.1072  2.4780
  214MOL0     H28840   7.230   1.482   7.078 -1.4848 -1.3430 -2.4660
  214MOL0     H28841   7.506   1.226   7.248  0.3278  0.3187  2.1243
  214MOL0     H28842   7.846   1.406   7.194  2.7478 -4.4335 -0.0209
  214MOL0     H28843   7.784   1.431   7.354 -1.8844 -0.6611  0.4508
  214MOL0     H28844   7.916   1.251   7.327 -0.6839  2.6750  0.5664
  214MOL0     H28845   7.786   1.167   7.230  0.7631  1.7227 -2.0871
  214MOL0     H28846   7.627   1.219   7.426 -0.0856  3.3006  0.4929
  214MOL0     H28847   7.762   1.283   7.518 -1.6549 -0.1399  0.8920
  214MOL0     H28848   7.706   1.069   7.585 -0.0473  0.8119  0.7158
  214MOL0     H28849   7.860   1.056   7.509 -0.0471 -1.2529 -0.2030
  214MOL0     H28850   7.494   1.030   7.535 -1.9725 -2.8083  1.3326
  214MOL0     H28851   7.237   1.198   7.447 -3.0455 -0.9948 -1.0829
  214MOL0     H28852   7.153   1.042   7.458  1.6699 -2.9554 -3.1811
  214MOL0     H28853   7.287   1.083   7.573  0.4865  0.0105 -0.3579
  214MOL0     H28854   6.918   0.899   7.108  2.1179 -2.2217 -1.3130
  214MOL0     H28855   6.738   0.979   6.951  0.3959 -2.2270  0.3841
  214MOL0     H28856   6.599   1.052   6.785 -0.5224  3.1359 -1.6808
  214MOL0     H28857   6.591   1.069   6.618  1.7661  0.5329 -0.3789
  214MOL0     H28858   6.657   0.848   6.571  0.9700 -0.9748  1.2920
  214MOL0     H28859   6.670   0.803   6.736 -1.3191 -2.8617 -2.4559
  214MOL0     H28860   6.412   0.893   6.590  0.1257 -1.3972 -1.8923
  214MOL0     H28861   6.427   0.865   6.768  3.3249 -0.5070  1.5772
  214MOL0     H28862   6.448   0.655   6.541  3.2222 -1.2124  0.2755
  214MOL0     H28863   6.519   0.633   6.702  1.8716  0.6081 -2.3216
  214MOL0     H28864   6.313   0.522   6.707  2.1710  0.2273  0.4719
  214MOL0     H28865   6.226   0.659   6.632 -0.6618 -1.0835  1.4726
  214MOL0     H28866   6.335   0.671   6.926 -0.7236 -0.8523  1.3199
  214MOL0     H28867   6.247   0.786   6.839  0.6777  0.4547 -0.3864
  214MOL0     H28868   6.155   0.499   6.921 -0.3730  0.9854  1.2053
  214MOL0     H28869   6.068   0.590   6.799 -0.6021  0.5186  0.4330
  214MOL0     H28870   6.008   0.770   6.947 -1.1297 -1.0620 -0.3965
  214MOL0     H28871   6.111   0.717   7.075  1.9013  2.4681 -2.1476
  214MOL0     H28872   7.033   1.052   6.663 -0.3524  3.9292  1.2323
  214MOL0     H28873   7.216   0.960   6.816 -0.2783 -0.4703  1.3925
  214MOL0     H28874   7.376   0.802   7.125 -4.0578 -0.7442  1.7878
  214MOL0     H28875   7.620   0.800   7.212  0.8795 -0.4507  1.6524
  214MOL0     H28876   6.303   1.381   6.849  1.2664  0.0209  0.0893
  214MOL0     H28877   6.094   1.522   6.826  0.1305 -1.8097 -1.2175
  214MOL0     H28878   5.864   1.809   6.743 -0.2179  0.0187  0.3456
  214MOL0     H28879   5.631   1.884   6.697 -0.0306 -0.8880 -1.2007
  214MOL0     H28880   5.552   2.086   6.296 -2.5464  1.7826 -0.2771
  214MOL0     H28881   5.477   1.930   6.355  2.1114 -0.4353  0.2916
  214MOL0     H28882   5.325   2.088   6.484 -2.6202 -1.6457 -1.4012
  214MOL0     H28883   5.308   2.087   6.308  3.6177 -3.1522 -2.4358
  214MOL0     H28884   5.424   2.313   6.485 -0.5887 -1.1460  0.0003
  214MOL0     H28885   5.279   2.314   6.393  1.2624  3.4613 -0.7235
  214MOL0     H28886   5.417   2.316   6.186 -0.3348 -0.8855  1.0086
  214MOL0     H28887   5.561   2.291   6.289 -0.5911 -2.8892 -0.1996
  214MOL0     H28888   5.479   2.704   6.335  5.4086 -0.7032  2.0560
  214MOL0     H28889   5.769   2.018   6.297  0.4434 -1.2476 -0.4438
  214MOL0     H28890   5.972   1.906   6.330 -1.6755 -1.6749 -1.0314
  215MOL0     O28891   5.207   6.850  10.684 -0.5082 -0.0735  0.0159
  215MOL0     C28892   5.263   6.923  10.603  0.2502 -0.7002 -0.6246
  215MOL0     O28893   5.197   7.005  10.513  0.2018 -0.2835 -0.5520
  215MOL0     C28894   5.071   6.981  10.498 -0.0318  0.0932 -0.4136
  215MOL0     C28895   4.970   7.050  10.577 -0.1866  0.1768  0.7878
  215MOL0     C28896   4.842   7.070  10.527  0.5627  0.4993  0.1060
  215MOL0     C28897   4.796   6.996  10.418  0.2453 -0.1752 -0.7362
  215MOL0     O28898   4.665   6.986  10.395 -0.0663  0.2728 -0.5373
  215MOL0     C28899   4.614   6.934  10.273  0.1229 -1.2281 -0.3128
  215MOL0     C28900   4.460   6.971  10.262 -0.8966 -0.0918 -0.6532
  215MOL0     C28901   4.444   7.118  10.198 -0.3704 -0.3458  0.6022
  215MOL0     C28902   4.301   7.161  10.166  0.0826  0.4863 -0.6448
  215MOL0     C28903   4.218   7.208  10.291  1.1077 -0.4187 -0.4521
  215MOL0     C28904   4.071   7.248  10.241 -1.1146 -0.6221  0.4474
  215MOL0     C28905   3.985   7.289  10.351 -0.5767  0.8372 -0.4501
  215MOL0     C28906   3.844   7.338  10.311  0.9751 -0.1454 -0.5214
  215MOL0     N28907   3.785   7.404  10.425  0.3562 -0.1822 -0.0644
  215MOL0     C28908   3.675   7.492  10.420 -0.3435  0.0513 -0.1330
  215MOL0     C28909   3.629   7.491  10.547  0.4225 -0.5027 -0.0818
  215MOL0     C28910   3.512   7.567  10.605  0.1925 -0.1856 -0.0206
  215MOL0     C28911   3.477   7.694  10.520 -0.0584 -0.9553 -0.0657
  215MOL0     C28912   3.594   7.802  10.517  0.3405 -0.4304 -0.0699
  215MOL0     C28913   3.539   7.953  10.499  0.3354 -0.1263 -0.7640
  215MOL0     O28914   3.652   8.026  10.440  0.1091 -0.3366 -0.0013
  215MOL0     C28915   3.625   8.138  10.352  0.0685  0.2937 -0.5015
  215MOL0     C28916   3.726   8.183  10.269 -0.0605  0.0855 -0.0811
  215MOL0     C28917   3.713   8.302  10.194  0.0399 -0.1944 -0.6509
  215MOL0     C28918   3.827   8.347  10.108  0.4563 -0.4611 -0.2180
  215MOL0     C28919   3.588   8.371  10.191 -0.5227 -0.5728 -0.7913
  215MOL0     C28920   3.562   8.497  10.116 -0.3855 -0.7771  0.0666
  215MOL0     O28921   3.436   8.514  10.079  0.1529 -0.2786  0.5749
  215MOL0     C28922   3.393   8.632  10.026  0.4485  0.0229  0.6920
  215MOL0     C28923   3.407   8.753  10.097 -0.1154 -0.4848  0.4724
  215MOL0     C28924   3.385   8.873  10.022 -0.0541  0.3108 -0.7300
  215MOL0     C28925   3.321   8.872   9.900  0.5745 -0.1509 -1.0220
  215MOL0     O28926   3.297   8.996   9.853 -0.2936  0.0821  0.2184
  215MOL0     C28927   3.163   9.024   9.827 -0.1042 -0.3428  0.0471
  215MOL0     C28928   3.155   9.183   9.822  0.0450  0.3473  0.5862
  215MOL0     C28929   3.225   9.204   9.681  0.6486 -0.1922  0.0122
  215MOL0     C28930   3.231   9.354   9.652  0.0945  0.3887  0.6123
  215MOL0     C28931   3.341   9.389   9.554  0.7606 -0.1955 -0.7033
  215MOL0     C28932   3.337   9.304   9.428 -0.3850 -0.1768 -0.4247
  215MOL0     C28933   3.414   9.380   9.323  0.6093 -0.5723  0.9453
  215MOL0     C28934   3.511   9.295   9.253  0.5156 -0.8048  1.3728
  215MOL0    Cl28935   3.552   9.355   9.088  0.1386 -0.2204 -0.3591
  215MOL0     C28936   3.281   8.751   9.847  0.4009  0.5579  0.3566
  215MOL0     C28937   3.312   8.622   9.908 -0.4005  0.0275 -0.4290
  215MOL0     O28938   3.657   8.570  10.081  0.1155  0.0989  0.1329
  215MOL0     C28939   3.481   8.324  10.265  0.0613 -0.5192  0.1912
  215MOL0     C28940   3.499   8.213  10.354  0.0987 -0.5096 -0.8611
  215MOL0     N28941   3.704   7.404  10.619  0.5748 -0.2896  0.4377
  215MOL0     N28942   3.804   7.368  10.556 -0.3249 -0.2752 -0.2989
  215MOL0     C28943   4.889   6.912  10.349  0.0676 -0.9705  1.0284
  215MOL0     C28944   5.022   6.918  10.386 -0.8841 -1.3587 -0.9804
  215MOL0     C28945   5.412   6.926  10.588  0.6539  1.3149  0.2912
  215MOL0     C28946   5.490   6.822  10.641  0.4193  0.3734  0.5954
  215MOL0     C28947   5.626   6.825  10.633  0.6930  0.2618  1.0595
  215MOL0     C28948   5.687   6.926  10.565  0.2789 -1.0322  0.2333
  215MOL0     O28949   5.822   6.916  10.565 -0.4681 -0.3562 -0.2529
  215MOL0     C28950   5.901   7.008  10.473  0.5854  0.5615 -0.6678
  215MOL0     C28951   6.048   6.969  10.491 -0.5847  0.9964  0.2371
  215MOL0     C28952   6.135   7.013  10.375 -0.3098 -0.2472  0.0941
  215MOL0     C28953   6.183   7.159  10.380 -0.0523 -0.2564  0.1986
  215MOL0     C28954   6.304   7.191  10.470  0.6630 -0.3532  0.5353
  215MOL0     C28955   6.381   7.235  10.551 -0.5039 -0.4350 -0.0806
  215MOL0     C28956   5.613   7.029  10.512  0.1175 -0.1576 -0.4725
  215MOL0     C28957   5.475   7.033  10.529 -0.3399  0.6866  0.0711
  215MOL0     H28958   5.005   7.099  10.667  0.0631 -0.2162  0.9068
  215MOL0     H28959   4.782   7.136  10.589  1.2919  0.5403  0.7877
  215MOL0     H28960   4.667   6.973  10.185  2.3678 -0.2685  1.3734
  215MOL0     H28961   4.636   6.827  10.278  5.6721 -0.3196  3.8310
  215MOL0     H28962   4.410   6.907  10.189  2.5904  1.2038 -4.6145
  215MOL0     H28963   4.416   6.967  10.362  0.5942  0.9776  0.0907
  215MOL0     H28964   4.495   7.184  10.269  2.5492 -1.2454 -0.5014
  215MOL0     H28965   4.506   7.115  10.108 -0.3371  1.2790  0.5545
  215MOL0     H28966   4.325   7.245  10.100  3.8329  0.8209  0.8664
  215MOL0     H28967   4.244   7.081  10.118 -2.1674  1.4164  0.3749
  215MOL0     H28968   4.214   7.129  10.367 -1.9816 -1.1634 -1.2573
  215MOL0     H28969   4.256   7.304  10.326  1.8053 -0.5216 -0.8943
  215MOL0     H28970   4.091   7.332  10.173 -1.4947 -2.5317 -2.2040
  215MOL0     H28971   4.023   7.172  10.179 -0.2658 -1.5888  0.9400
  215MOL0     H28972   3.989   7.214  10.430  0.1982  2.3435  1.0014
  215MOL0     H28973   4.042   7.370  10.398 -1.3822  1.0159  0.2602
  215MOL0     H28974   3.762   7.267  10.294 -1.2223  1.9850  0.4206
  215MOL0     H28975   3.834   7.402  10.223 -1.8707 -1.8720 -1.5865
  215MOL0     H28976   3.639   7.543  10.331  2.0084  2.9339  0.3932
  215MOL0     H28977   3.420   7.509  10.618  0.4050 -1.5918 -3.7246
  215MOL0     H28978   3.541   7.605  10.703  2.2146  3.3668 -1.7943
  215MOL0     H28979   3.393   7.745  10.568  0.7999 -0.6867  1.2068
  215MOL0     H28980   3.444   7.658  10.422 -3.0624 -1.8356  1.1563
  215MOL0     H28981   3.652   7.783  10.426 -2.1552 -0.0640 -1.8494
  215MOL0     H28982   3.646   7.797  10.613 -1.6184  1.1940  1.1558
  215MOL0     H28983   3.510   7.988  10.598  2.2019 -2.3199  0.6654
  215MOL0     H28984   3.452   7.957  10.432  0.7676  5.2411 -1.4353
  215MOL0     H28985   3.819   8.127  10.258  1.2989  1.6720  2.3973
  215MOL0     H28986   3.898   8.425  10.139  0.0247 -0.2713  0.2925
  215MOL0     H28987   3.887   8.258  10.081 -0.8194 -1.1965 -0.7112
  215MOL0     H28988   3.786   8.366  10.008 -0.4904 -0.5077  0.1547
  215MOL0     H28989   3.462   8.753  10.191 -0.0448 -0.6329  0.4307
  215MOL0     H28990   3.406   8.961  10.081  2.4448 -1.5326  1.4117
  215MOL0     H28991   3.124   8.978   9.736 -0.5308 -2.2371  1.1221
  215MOL0     H28992   3.101   8.990   9.911  3.0150 -0.7737  2.3714
  215MOL0     H28993   3.055   9.228   9.821 -0.5825 -0.9827 -0.1553
  215MOL0     H28994   3.212   9.234   9.900 -1.4605  1.7978  0.8051
  215MOL0     H28995   3.176   9.155   9.596 -1.0015 -2.1012  1.9484
  215MOL0     H28996   3.330   9.174   9.682  0.7833  0.2150  2.1172
  215MOL0     H28997   3.137   9.370   9.598  0.6899 -1.2609 -0.9942
  215MOL0     H28998   3.233   9.407   9.748  0.0168 -4.0562  3.3357
  215MOL0     H28999   3.440   9.391   9.601  1.5607  1.7447 -2.2983
  215MOL0     H29000   3.321   9.494   9.533  1.6947  0.4721  1.5052
  215MOL0     H29001   3.388   9.212   9.455  0.5184  0.8044  1.3980
  215MOL0     H29002   3.235   9.276   9.399 -0.5159 -0.6350  0.4260
  215MOL0     H29003   3.464   9.472   9.357 -1.0887  0.0864  1.7512
  215MOL0     H29004   3.339   9.416   9.252 -1.4987 -1.9664  2.3774
  215MOL0     H29005   3.458   9.202   9.235 -2.0092  0.5305  1.4417
  215MOL0     H29006   3.599   9.276   9.315  2.0275 -0.5153 -0.5823
  215MOL0     H29007   3.254   8.749   9.742  3.6486 -0.3888 -0.5845
  215MOL0     H29008   3.297   8.527   9.859  0.8732 -1.3774  1.7371
  215MOL0     H29009   3.379   8.362  10.272  0.3614  0.0349  1.9830
  215MOL0     H29010   3.417   8.194  10.423  1.3954  1.5693  1.3907
  215MOL0     H29011   4.855   6.845  10.271  1.6674  0.6695 -1.1935
  215MOL0     H29012   5.099   6.867  10.330 -1.0135 -1.4226 -1.0999
  215MOL0     H29013   5.458   6.731  10.692  0.8407 -0.1561 -0.0659
  215MOL0     H29014   5.685   6.749  10.681  0.1896  0.1689  1.5408
  215MOL0     H29015   5.858   7.013  10.372 -1.6929  1.1724  0.2507
  215MOL0     H29016   5.880   7.113  10.496 -2.1018  0.4565 -2.1887
  215MOL0     H29017   6.044   6.860  10.500  0.2762  0.9343 -0.0746
  215MOL0     H29018   6.091   7.003  10.586  2.2717 -0.8924 -0.2656
  215MOL0     H29019   6.074   6.996  10.286  2.2590 -1.5871 -1.5530
  215MOL0     H29020   6.228   6.954  10.377 -1.2781 -1.8223  1.5155
  215MOL0     H29021   6.102   7.224  10.413 -0.2821 -1.9123  3.2662
  215MOL0     H29022   6.211   7.183  10.277 -0.8504 -4.5261 -1.1930
  215MOL0     H29023   6.439   7.298  10.616 -1.2605  0.9504 -0.6942
  215MOL0     H29024   5.675   7.106  10.468  0.9718 -1.5346 -1.7461
  215MOL0     H29025   5.417   7.118  10.493  0.4340  1.8058  1.3819
  216MOL0     O29026   8.049   8.417   2.753 -0.1185 -0.3278  0.1669
  216MOL0     C29027   7.946   8.357   2.790 -0.5165 -0.1997  0.3410
  216MOL0     O29028   7.933   8.273   2.910  0.5485  0.0574 -0.3965
  216MOL0     C29029   8.046   8.241   2.984  0.1684  0.1834  0.3889
  216MOL0     C29030   8.134   8.134   2.952 -0.4235  1.2984 -0.9845
  216MOL0     C29031   8.246   8.097   3.019  0.4134  0.4135 -0.3942
  216MOL0     C29032   8.279   8.177   3.131 -0.4001  0.3635  0.2722
  216MOL0     O29033   8.380   8.147   3.213  0.0283  0.0760 -0.3392
  216MOL0     C29034   8.503   8.132   3.151 -0.1901 -0.9010 -0.0031
  216MOL0     C29035   8.609   8.094   3.252  0.2035  0.3293 -0.2264
  216MOL0     C29036   8.646   8.204   3.343 -0.9291 -0.3312 -0.7229
  216MOL0     C29037   8.541   8.244   3.442 -0.2268  0.5900  0.4159
  216MOL0     C29038   8.573   8.350   3.542 -1.0746  0.4229  0.3393
  216MOL0     C29039   8.710   8.329   3.616  0.4438 -0.6622  0.0662
  216MOL0     C29040   8.725   8.198   3.683 -0.9173  0.1063 -0.1370
  216MOL0     C29041   8.868   8.168   3.734 -0.2980 -0.8074  0.7036
  216MOL0     N29042   8.878   8.040   3.811 -0.0519 -0.1594 -0.2060
  216MOL0     C29043   8.813   7.916   3.791 -0.4008 -0.3365 -0.5325
  216MOL0     C29044   8.844   7.837   3.896  0.6641 -0.2313  0.2475
  216MOL0     C29045   8.793   7.695   3.915  0.0912 -0.2898 -1.3180
  216MOL0     C29046   8.896   7.578   3.932 -0.3754 -0.6044  0.3144
  216MOL0     C29047   8.982   7.542   3.803  0.0900 -0.5701  0.1669
  216MOL0     C29048   8.890   7.518   3.687  0.5382 -0.8295  0.4813
  216MOL0     O29049   8.952   7.491   3.557  0.3028 -0.3627 -0.0141
  216MOL0     C29050   8.986   7.598   3.465 -0.1251  0.1184 -0.0108
  216MOL0     C29051   9.001   7.736   3.499  0.1155  0.8767  1.0099
  216MOL0     C29052   9.017   7.840   3.402  0.3389 -0.5585  0.2023
  216MOL0     C29053   9.014   7.982   3.445  0.2110 -0.9721  0.5116
  216MOL0     C29054   9.021   7.802   3.262 -0.3625  0.2723 -0.5432
  216MOL0     C29055   9.012   7.897   3.148  1.0723 -0.6838  0.5429
  216MOL0     O29056   9.037   7.828   3.026 -0.4249  0.2376 -0.3751
  216MOL0     C29057   9.008   7.897   2.911 -1.4740  0.4535  0.0932
  216MOL0     C29058   8.910   7.994   2.894  0.9972 -0.0903 -0.1967
  216MOL0     C29059   8.888   8.050   2.772 -0.7115 -1.0560  0.3776
  216MOL0     C29060   8.979   8.022   2.666 -0.3734 -0.7571 -0.9471
  216MOL0     O29061   8.957   8.078   2.547  0.4423  0.2856  1.0757
  216MOL0     C29062   9.072   8.095   2.457  0.8177 -0.1155  0.5060
  216MOL0     C29063   9.036   8.203   2.358 -0.0625  0.2068  0.7376
  216MOL0     C29064   9.020   8.345   2.414  0.8328 -0.0299 -0.3201
  216MOL0     C29065   8.863   8.364   2.409 -0.7113  0.9328 -0.3188
  216MOL0     C29066   8.819   8.501   2.468  0.1657 -0.4550  0.1930
  216MOL0     C29067   8.801   8.623   2.373  0.4194 -0.1296  0.9658
  216MOL0     C29068   8.748   8.748   2.439  0.0005 -0.2218 -0.1959
  216MOL0     C29069   8.840   8.789   2.550  0.3683 -0.1443  0.1600
  216MOL0    Cl29070   8.765   8.939   2.615  0.2116 -0.2310 -0.1869
  216MOL0     C29071   9.074   7.924   2.681 -0.3233 -0.7401  0.3283
  216MOL0     C29072   9.097   7.866   2.805  0.1860 -0.1193 -0.7897
  216MOL0     O29073   8.984   8.015   3.165 -0.5023  0.1850  0.8175
  216MOL0     C29074   9.017   7.658   3.244 -0.0450 -1.0655 -0.1498
  216MOL0     C29075   9.014   7.563   3.340 -0.0408  0.2251  0.3306
  216MOL0     N29076   8.922   7.912   3.978 -0.1558 -0.2930  0.8214
  216MOL0     N29077   8.942   8.033   3.933  0.4581  0.4473  0.1282
  216MOL0     C29078   8.199   8.288   3.164  0.0615 -1.1876  0.3807
  216MOL0     C29079   8.086   8.318   3.095 -0.2063 -0.0093  0.0707
  216MOL0     C29080   7.832   8.340   2.692  0.2131 -0.1873  0.4101
  216MOL0     C29081   7.835   8.418   2.569 -0.5747 -0.0773  0.7817
  216MOL0     C29082   7.744   8.379   2.467 -0.3057 -0.4029 -0.3584
  216MOL0     C29083   7.649   8.284   2.489  1.1285  0.4219 -0.2200
  216MOL0     O29084   7.556   8.270   2.392  1.2259 -0.2841  0.0154
  216MOL0     C29085   7.439   8.351   2.422 -0.7396  0.7311 -0.7727
  216MOL0     C29086   7.408   8.427   2.297 -0.6995  0.3097 -0.9863
  216MOL0     C29087   7.314   8.347   2.199 -0.4328 -0.9751 -0.3932
  216MOL0     C29088   7.317   8.373   2.044  0.8746  0.5535  0.2515
  216MOL0     C29089   7.305   8.511   2.000  0.8197 -1.0304  0.3473
  216MOL0     C29090   7.296   8.623   1.959  0.3617 -0.4941  0.3501
  216MOL0     C29091   7.650   8.206   2.603  0.3624  0.4899 -0.1492
  216MOL0     C29092   7.740   8.236   2.712 -0.2348  0.0832  0.7755
  216MOL0     H29093   8.099   8.067   2.874  0.9605 -0.9562  0.2021
  216MOL0     H29094   8.306   8.014   2.984  1.5943  1.2507 -0.4119
  216MOL0     H29095   8.503   8.052   3.076  2.7626 -0.6565 -0.3507
  216MOL0     H29096   8.538   8.228   3.112 -0.7494 -1.3029 -1.5574
  216MOL0     H29097   8.593   7.999   3.305  0.6569 -0.2374 -1.0828
  216MOL0     H29098   8.702   8.085   3.195  0.9754 -0.1884  1.0591
  216MOL0     H29099   8.732   8.167   3.401 -0.0577  1.0195 -1.1181
  216MOL0     H29100   8.680   8.289   3.284  4.4025 -0.1796  1.9043
  216MOL0     H29101   8.443   8.269   3.400 -1.1937 -3.4516 -0.1542
  216MOL0     H29102   8.521   8.150   3.494 -1.9367  2.0502  2.5615
  216MOL0     H29103   8.589   8.448   3.497 -0.0272  0.4766  0.7900
  216MOL0     H29104   8.487   8.350   3.609 -0.3594 -1.4312  1.3390
  216MOL0     H29105   8.784   8.336   3.535 -0.5457  1.1600 -0.7524
  216MOL0     H29106   8.729   8.415   3.679 -5.0286  0.4598  0.6800
  216MOL0     H29107   8.663   8.212   3.772 -1.1580  0.0486 -0.2938
  216MOL0     H29108   8.687   8.115   3.622  0.7291 -0.5079 -0.4001
  216MOL0     H29109   8.902   8.246   3.803  1.9009 -0.4479 -0.6971
  216MOL0     H29110   8.928   8.165   3.643 -1.3870 -1.3633 -0.0268
  216MOL0     H29111   8.728   7.898   3.727 -1.8267 -1.7001  1.5820
  216MOL0     H29112   8.744   7.707   4.012  2.2122  0.4420 -0.2737
  216MOL0     H29113   8.724   7.671   3.833  1.3722 -2.4513 -1.8319
  216MOL0     H29114   8.837   7.487   3.949  0.0319 -1.0262 -0.4531
  216MOL0     H29115   8.963   7.605   4.014  1.1163 -0.4106 -0.8931
  216MOL0     H29116   9.045   7.452   3.805  0.2671 -0.4535 -0.0958
  216MOL0     H29117   9.042   7.630   3.778 -0.4680 -0.6411 -1.5526
  216MOL0     H29118   8.834   7.612   3.682  4.3659  1.6708  0.9158
  216MOL0     H29119   8.820   7.436   3.706 -0.5005 -0.8460 -2.7321
  216MOL0     H29120   8.992   7.753   3.605 -0.8780 -3.9306  1.9185
  216MOL0     H29121   9.019   7.988   3.554  0.4848  1.5531  0.4366
  216MOL0     H29122   9.095   8.044   3.402 -0.9285  1.9785  2.2983
  216MOL0     H29123   8.931   8.046   3.414  0.3669 -1.3206 -0.6867
  216MOL0     H29124   8.846   8.012   2.980  1.3063 -0.3471  0.0879
  216MOL0     H29125   8.823   8.135   2.755  1.0874  0.6196  1.3794
  216MOL0     H29126   9.152   8.137   2.518  2.7363 -0.5740 -1.5706
  216MOL0     H29127   9.114   8.001   2.420 -1.7388 -1.5463  0.9965
  216MOL0     H29128   9.123   8.205   2.291 -1.6460  0.1395 -1.4317
  216MOL0     H29129   8.948   8.160   2.309  0.6877 -1.0287  0.4068
  216MOL0     H29130   9.072   8.418   2.351  0.8095 -0.3854 -0.7602
  216MOL0     H29131   9.046   8.361   2.519 -2.2618  3.4569  0.1236
  216MOL0     H29132   8.820   8.353   2.309 -0.8734  3.8443 -0.6322
  216MOL0     H29133   8.828   8.285   2.477  1.7626 -2.2544 -2.4167
  216MOL0     H29134   8.902   8.524   2.536  0.3952 -2.1066  0.5091
  216MOL0     H29135   8.728   8.478   2.523  0.0103 -1.3416 -0.4137
  216MOL0     H29136   8.896   8.638   2.322 -0.0952  0.3007  0.1234
  216MOL0     H29137   8.732   8.597   2.293  1.3196  1.3746 -0.3400
  216MOL0     H29138   8.645   8.733   2.471  0.5545 -1.0580  1.2895
  216MOL0     H29139   8.759   8.832   2.370  1.4904 -0.2678 -0.0442
  216MOL0     H29140   8.936   8.815   2.505  0.3902  1.0070  0.8182
  216MOL0     H29141   8.843   8.716   2.632 -2.2348 -1.4925 -0.8241
  216MOL0     H29142   9.138   7.902   2.596  1.8316  1.2388  1.2988
  216MOL0     H29143   9.165   7.786   2.832  1.4458  0.4358 -2.1826
  216MOL0     H29144   9.019   7.620   3.143  0.3029 -0.6735 -0.2916
  216MOL0     H29145   9.011   7.462   3.301 -2.8459  0.2184  0.3163
  216MOL0     H29146   8.245   8.343   3.245  0.9421 -1.5861  0.1702
  216MOL0     H29147   8.036   8.410   3.122 -0.6744 -0.1968 -0.1524
  216MOL0     H29148   7.895   8.507   2.552 -1.8123  0.2991 -2.2843
  216MOL0     H29149   7.740   8.437   2.375 -1.6657 -0.4587 -0.3530
  216MOL0     H29150   7.355   8.289   2.455 -0.5543  1.0670  0.3624
  216MOL0     H29151   7.446   8.416   2.509 -1.2301  1.3200 -1.1634
  216MOL0     H29152   7.500   8.462   2.249 -0.6487 -0.6841 -1.6564
  216MOL0     H29153   7.336   8.502   2.328 -1.9208 -1.5610  1.0312
  216MOL0     H29154   7.207   8.350   2.224 -0.7485  1.1410 -1.7510
  216MOL0     H29155   7.342   8.241   2.197  0.0038 -0.8845  0.4961
  216MOL0     H29156   7.245   8.312   1.988  1.8394 -0.5350  0.1462
  216MOL0     H29157   7.416   8.342   2.007 -0.1975  0.1409 -2.5220
  216MOL0     H29158   7.292   8.728   1.942 -0.8421 -0.8099 -1.6400
  216MOL0     H29159   7.583   8.121   2.612 -0.2034  0.5151 -3.1689
  216MOL0     H29160   7.737   8.157   2.786 -0.9132 -0.6001  0.0385
  217MOL0     O29161   8.576   2.764   7.344  0.2405  0.2844  0.0089
  217MOL0     C29162   8.558   2.807   7.457 -1.2341 -0.2460 -0.5693
  217MOL0     O29163   8.654   2.885   7.519 -0.2652  0.4797 -0.7403
  217MOL0     C29164   8.784   2.864   7.495 -0.2798  0.3024 -0.3383
  217MOL0     C29165   8.856   2.744   7.514  0.5349  0.2077 -0.2873
  217MOL0     C29166   8.992   2.734   7.497 -0.5011  1.0225  0.4965
  217MOL0     C29167   9.066   2.839   7.448 -0.1995 -0.6835 -0.2951
  217MOL0     O29168   9.198   2.825   7.420 -0.3864  1.1165  0.3959
  217MOL0     C29169   9.275   2.937   7.397 -0.2740 -0.9052 -0.4627
  217MOL0     C29170   9.423   2.896   7.393 -0.1306 -0.1177  0.0469
  217MOL0     C29171   9.524   2.993   7.337 -0.4487  0.9448 -0.8217
  217MOL0     C29172   9.587   3.076   7.457  1.9087 -0.0472 -0.2482
  217MOL0     C29173   9.687   3.174   7.403  0.3053  0.0633  0.3487
  217MOL0     C29174   9.806   3.115   7.325 -0.0376  0.6404  0.3812
  217MOL0     C29175   9.885   3.003   7.407 -0.0598  0.1761  0.5063
  217MOL0     C29176   9.935   3.058   7.544  0.3032 -0.1209 -0.1560
  217MOL0     N29177  10.037   3.165   7.533  0.0291 -0.3775 -0.5150
  217MOL0     C29178  10.020   3.289   7.598  0.8611 -0.2549 -0.3898
  217MOL0     C29179  10.142   3.334   7.612 -0.3641 -0.2176  0.1318
  217MOL0     C29180  10.188   3.461   7.670 -0.1194 -0.6170 -0.0175
  217MOL0     C29181  10.146   3.576   7.585 -0.1035  0.1373  0.8282
  217MOL0     C29182  10.199   3.576   7.447 -0.5537 -0.4104 -0.0447
  217MOL0     C29183  10.354   3.600   7.427  0.8789  0.5606 -0.1590
  217MOL0     O29184  10.393   3.722   7.485 -0.3721  0.4145 -0.8161
  217MOL0     C29185  10.533   3.734   7.487  0.8095 -0.0184 -0.6589
  217MOL0     C29186  10.625   3.628   7.474 -0.8637  0.3194  0.3665
  217MOL0     C29187  10.763   3.643   7.494 -0.5169 -0.1015  0.7832
  217MOL0     C29188  10.843   3.515   7.486 -0.4229  0.3289  0.3251
  217MOL0     C29189  10.806   3.771   7.523  0.2245 -0.1130  0.2106
  217MOL0     C29190  10.943   3.787   7.553 -0.4639  0.5828 -0.3996
  217MOL0     O29191  10.995   3.718   7.655 -0.1372  0.3647  0.5618
  217MOL0     C29192  11.123   3.744   7.682 -0.0691 -0.7426 -0.1029
  217MOL0     C29193  11.148   3.841   7.780 -0.4306  0.3789 -0.3177
  217MOL0     C29194  11.281   3.870   7.812 -0.3238  0.2488 -0.7597
  217MOL0     C29195  11.385   3.806   7.737 -0.9048  0.1110 -0.3755
  217MOL0     O29196  11.516   3.829   7.771  0.2468  1.3782 -0.4075
  217MOL0     C29197  11.610   3.867   7.668  0.5735 -0.2094  0.1483
  217MOL0     C29198  11.736   3.932   7.729 -0.1376  0.5878 -0.0835
  217MOL0     C29199  11.709   4.010   7.856 -0.1570 -0.5604 -0.8792
  217MOL0     C29200  11.621   4.129   7.845  1.4098 -0.0268  0.0464
  217MOL0     C29201  11.627   4.205   7.980  0.3479  0.0221  0.5361
  217MOL0     C29202  11.499   4.285   8.010  0.4981 -0.1514 -0.7746
  217MOL0     C29203  11.466   4.399   7.910 -0.6595  0.1768  0.4154
  217MOL0     C29204  11.354   4.480   7.969 -0.0846  0.3395 -0.7327
  217MOL0    Cl29205  11.210   4.371   7.986  0.1118  0.6387 -0.2937
  217MOL0     C29206  11.363   3.708   7.644  0.6666  0.5064  0.0215
  217MOL0     C29207  11.225   3.679   7.616  0.4685  0.2525 -0.8463
  217MOL0     O29208  11.009   3.848   7.465 -0.3427 -0.6960 -0.8692
  217MOL0     C29209  10.713   3.873   7.547 -0.4048 -0.3652  0.4576
  217MOL0     C29210  10.580   3.850   7.531 -0.0352  0.0489 -0.3368
  217MOL0     N29211  10.227   3.240   7.553  0.1834 -0.7122 -0.2041
  217MOL0     N29212  10.167   3.133   7.514  0.3847 -0.1781 -0.4514
  217MOL0     C29213   8.996   2.963   7.428  0.8238  0.0485 -0.6311
  217MOL0     C29214   8.854   2.978   7.453 -0.5010 -0.1372 -0.0996
  217MOL0     C29215   8.433   2.771   7.520  0.0410 -0.5140 -0.5686
  217MOL0     C29216   8.403   2.822   7.648 -0.5966 -1.4146 -0.3515
  217MOL0     C29217   8.278   2.790   7.702 -0.5655 -0.0726  1.2457
  217MOL0     C29218   8.193   2.695   7.645 -0.0371  0.1382  0.5106
  217MOL0     O29219   8.069   2.663   7.686  0.0434 -0.0276 -0.4071
  217MOL0     C29220   8.038   2.645   7.822 -0.1338 -0.0158 -0.1167
  217MOL0     C29221   8.081   2.507   7.871 -0.1823  0.5805 -0.2133
  217MOL0     C29222   8.060   2.377   7.782  0.3679 -0.2020 -0.7683
  217MOL0     C29223   7.921   2.340   7.763  0.1198 -0.9119 -0.0524
  217MOL0     C29224   7.909   2.253   7.651  0.3120  0.3842 -0.5011
  217MOL0     C29225   7.906   2.179   7.549 -0.0812 -0.2749 -0.0773
  217MOL0     C29226   8.230   2.634   7.526  0.5592  0.6440  0.1191
  217MOL0     C29227   8.350   2.676   7.465  0.7795  0.2745 -0.2206
  217MOL0     H29228   8.796   2.655   7.531 -0.5231  0.6177 -1.6970
  217MOL0     H29229   9.032   2.634   7.514 -1.4223 -0.5888 -4.7838
  217MOL0     H29230   9.249   2.966   7.294  2.5924  1.0904 -0.7496
  217MOL0     H29231   9.261   3.025   7.461  1.1351 -1.9430  1.3779
  217MOL0     H29232   9.450   2.876   7.497 -0.0719  0.6834  0.1887
  217MOL0     H29233   9.422   2.803   7.336 -1.6665  0.8494 -1.5897
  217MOL0     H29234   9.601   2.935   7.285 -0.0521  0.1798  0.5561
  217MOL0     H29235   9.485   3.058   7.259 -0.0510 -0.1823 -2.0109
  217MOL0     H29236   9.515   3.138   7.511  2.1913  0.3288 -0.3014
  217MOL0     H29237   9.634   3.007   7.528  2.6658 -2.1070 -2.5930
  217MOL0     H29238   9.631   3.242   7.338  1.7448 -1.1701 -2.3503
  217MOL0     H29239   9.720   3.234   7.488 -0.3673  0.1289  0.5714
  217MOL0     H29240   9.774   3.080   7.226  0.1297 -1.3135  0.9774
  217MOL0     H29241   9.885   3.189   7.310 -0.7022  1.1930 -0.4883
  217MOL0     H29242   9.826   2.912   7.419 -0.8975  0.4519 -1.2732
  217MOL0     H29243   9.970   2.969   7.348 -1.5933 -3.5559  0.1994
  217MOL0     H29244   9.970   2.970   7.598  2.6988  0.9089  0.0582
  217MOL0     H29245   9.850   3.098   7.600  1.7541 -0.8261  2.7657
  217MOL0     H29246   9.927   3.335   7.631 -0.7888 -1.7751 -2.6424
  217MOL0     H29247  10.133   3.469   7.764  1.6280 -2.3849  1.2481
  217MOL0     H29248  10.295   3.455   7.693 -0.4100 -1.2496  1.2399
  217MOL0     H29249  10.173   3.671   7.633  0.9554  0.3180 -0.1003
  217MOL0     H29250  10.037   3.578   7.578 -0.0627 -0.5283 -0.2524
  217MOL0     H29251  10.150   3.661   7.399 -1.6912 -0.2524  1.3419
  217MOL0     H29252  10.167   3.484   7.396  0.1781  0.1423 -1.5677
  217MOL0     H29253  10.386   3.593   7.322  0.6242  0.3189 -0.2228
  217MOL0     H29254  10.385   3.511   7.482 -0.4723  1.2604  1.8207
  217MOL0     H29255  10.592   3.527   7.450 -0.4770  0.2644  0.0731
  217MOL0     H29256  10.800   3.440   7.420  0.3878 -1.0791  1.3442
  217MOL0     H29257  10.949   3.530   7.465 -0.0551  1.6663  2.7190
  217MOL0     H29258  10.850   3.473   7.587 -0.9294 -0.8920 -0.1428
  217MOL0     H29259  11.062   3.882   7.831 -1.7124 -0.9865 -1.2976
  217MOL0     H29260  11.310   3.946   7.883 -0.3678 -0.6888  0.2817
  217MOL0     H29261  11.640   3.780   7.609 -4.0868  0.1216 -3.2942
  217MOL0     H29262  11.558   3.939   7.605  0.6269  0.0869  0.4372
  217MOL0     H29263  11.801   3.847   7.747  0.5033  1.0211 -0.3240
  217MOL0     H29264  11.778   3.996   7.651  0.7066 -1.1904 -1.1328
  217MOL0     H29265  11.803   4.033   7.907 -0.0976 -0.4173 -1.0540
  217MOL0     H29266  11.662   3.935   7.921 -1.3720 -0.2306 -1.3540
  217MOL0     H29267  11.654   4.192   7.761 -1.0463  0.0753 -0.9282
  217MOL0     H29268  11.516   4.102   7.831  0.7090  0.9644  2.7582
  217MOL0     H29269  11.710   4.275   7.973 -0.3399  0.9070  1.1359
  217MOL0     H29270  11.633   4.130   8.060 -1.8200 -2.1515 -1.1523
  217MOL0     H29271  11.413   4.217   8.015 -1.3563  2.0051 -1.3927
  217MOL0     H29272  11.501   4.322   8.113 -1.4708 -0.2438 -0.6499
  217MOL0     H29273  11.426   4.353   7.819  0.4852 -0.1847  0.0903
  217MOL0     H29274  11.548   4.470   7.897  1.2945 -2.2611 -1.6044
  217MOL0     H29275  11.328   4.564   7.905 -1.3911 -0.2011 -0.9441
  217MOL0     H29276  11.378   4.522   8.067  0.3407  1.0084 -1.1127
  217MOL0     H29277  11.440   3.654   7.590  0.2069  2.2208 -2.5325
  217MOL0     H29278  11.200   3.599   7.548  0.0321 -2.2375  2.0250
  217MOL0     H29279  10.744   3.972   7.579  3.8723 -1.2384 -0.3777
  217MOL0     H29280  10.511   3.930   7.555 -1.8708 -1.0573 -1.6749
  217MOL0     H29281   9.052   3.054   7.407  2.7809 -0.7523  0.7515
  217MOL0     H29282   8.803   3.074   7.445 -0.5706 -0.0731  0.9935
  217MOL0     H29283   8.463   2.897   7.697 -0.9012 -1.2732 -0.1895
  217MOL0     H29284   8.238   2.842   7.787  0.3559 -0.5910  2.0267
  217MOL0     H29285   8.080   2.724   7.884 -1.4549  0.1397  0.6210
  217MOL0     H29286   7.929   2.654   7.820 -0.3008  1.1503 -6.3315
  217MOL0     H29287   8.034   2.485   7.967  0.2481  0.0931 -0.1054
  217MOL0     H29288   8.189   2.511   7.891 -0.2336 -0.9288  0.5039
  217MOL0     H29289   8.107   2.294   7.836  0.4881  1.4734  1.8590
  217MOL0     H29290   8.113   2.383   7.686 -0.4062 -0.3064 -1.2036
  217MOL0     H29291   7.845   2.419   7.758 -1.7661 -2.6907 -1.3329
  217MOL0     H29292   7.891   2.284   7.852 -3.6826  2.8929  1.4390
  217MOL0     H29293   7.902   2.119   7.461  0.1026 -1.1970  0.5226
  217MOL0     H29294   8.154   2.572   7.480 -1.6875  3.3848 -0.1090
  217MOL0     H29295   8.372   2.645   7.363  0.3650  0.9314 -0.5206
  218MOL0     O29296   2.672   8.145   4.114  0.4337  0.7753  0.0010
  218MOL0     C29297   2.695   8.190   4.224 -0.1374  0.1071 -0.3398
  218MOL0     O29298   2.708   8.330   4.253  0.2933  0.2487  0.1150
  218MOL0     C29299   2.715   8.400   4.131 -0.0836 -0.0221  0.3719
  218MOL0     C29300   2.836   8.408   4.062 -0.5826 -0.3808  0.4718
  218MOL0     C29301   2.844   8.475   3.939 -0.9474 -0.6692  0.7473
  218MOL0     C29302   2.731   8.538   3.888  0.6340 -0.0986  0.1025
  218MOL0     O29303   2.726   8.592   3.767  0.3394  0.1307 -0.1984
  218MOL0     C29304   2.721   8.502   3.661  1.2019 -0.2211  0.6704
  218MOL0     C29305   2.690   8.582   3.531  1.2687  0.7170  0.2659
  218MOL0     C29306   2.549   8.640   3.534 -0.8942  0.6019 -0.4890
  218MOL0     C29307   2.524   8.673   3.383 -0.7196  0.6598 -1.3513
  218MOL0     C29308   2.408   8.751   3.389  0.6980 -0.4294 -0.2906
  218MOL0     C29309   2.390   8.826   3.259  0.2308  0.7980  1.0616
  218MOL0     C29310   2.244   8.894   3.239  0.7858  0.4353  0.1678
  218MOL0     C29311   2.119   8.790   3.230 -0.5225  0.2614  0.5303
  218MOL0     N29312   2.137   8.709   3.104  0.3578 -0.0210 -0.2040
  218MOL0     C29313   2.216   8.595   3.087  0.8200 -0.5414  0.1260
  218MOL0     C29314   2.172   8.539   2.971  0.4095 -0.5524  0.2231
  218MOL0     C29315   2.214   8.409   2.920 -0.6131  0.4207 -0.3527
  218MOL0     C29316   2.111   8.343   2.818 -0.2335 -0.4064  0.5960
  218MOL0     C29317   2.141   8.200   2.787  0.3273  0.5116 -0.4623
  218MOL0     C29318   2.027   8.128   2.724  1.3763  0.4798 -0.0951
  218MOL0     O29319   2.064   7.985   2.688 -0.4141 -0.6833  0.4455
  218MOL0     C29320   1.974   7.919   2.614  0.0522  1.2829 -0.4312
  218MOL0     C29321   1.841   7.958   2.584  0.1976  0.3820  0.6911
  218MOL0     C29322   1.745   7.873   2.514 -0.3452  0.1661  0.2617
  218MOL0     C29323   1.604   7.930   2.488  0.6792  0.3227  0.1434
  218MOL0     C29324   1.777   7.740   2.493 -1.1349  1.2743  0.1070
  218MOL0     C29325   1.686   7.630   2.452 -0.5262  0.4553 -0.5548
  218MOL0     O29326   1.587   7.669   2.377 -0.0793 -0.4147 -0.1042
  218MOL0     C29327   1.459   7.611   2.363 -0.0310 -0.1844 -0.1076
  218MOL0     C29328   1.434   7.479   2.390 -0.2999  1.0722 -0.3106
  218MOL0     C29329   1.308   7.422   2.363 -0.0263 -0.3709 -0.1821
  218MOL0     C29330   1.200   7.496   2.297  0.4069 -0.2375  0.3695
  218MOL0     O29331   1.076   7.438   2.261 -0.1860  0.9365  0.4360
  218MOL0     C29332   0.952   7.474   2.323  0.4018 -0.0741  0.7909
  218MOL0     C29333   0.835   7.400   2.257 -0.1134 -0.4950  0.2894
  218MOL0     C29334   0.816   7.447   2.114  1.1064  0.5695  1.3832
  218MOL0     C29335   0.719   7.364   2.033 -0.2349 -0.0410 -0.4068
  218MOL0     C29336   0.677   7.431   1.898 -0.5543 -0.0689 -0.0531
  218MOL0     C29337   0.557   7.361   1.842 -1.1496  0.5719  0.3601
  218MOL0     C29338   0.537   7.408   1.699 -1.0676 -0.5902  0.6690
  218MOL0     C29339   0.625   7.331   1.600  0.3912  0.0873  0.1539
  218MOL0    Cl29340   0.676   7.450   1.478  0.1433 -0.2540 -0.0434
  218MOL0     C29341   1.228   7.627   2.263  0.3753  0.4344  0.0760
  218MOL0     C29342   1.351   7.689   2.307 -0.4519  0.7011 -0.3809
  218MOL0     O29343   1.702   7.522   2.504 -0.4061 -1.0545  0.0901
  218MOL0     C29344   1.911   7.697   2.526 -0.0160 -0.6060  1.1785
  218MOL0     C29345   2.008   7.791   2.573  0.4118 -0.6933 -0.1731
  218MOL0     N29346   2.082   8.634   2.920 -0.0221  0.7825  0.0438
  218MOL0     N29347   2.059   8.734   2.998 -0.2369  0.5091  0.3189
  218MOL0     C29348   2.623   8.562   3.982 -0.9205 -0.7176  1.5767
  218MOL0     C29349   2.613   8.491   4.099 -0.1426  0.0134  0.2599
  218MOL0     C29350   2.712   8.082   4.339  0.2784  0.3351  0.5564
  218MOL0     C29351   2.755   8.126   4.461  0.0613 -0.0472  0.0328
  218MOL0     C29352   2.763   8.036   4.571  0.2129  0.7649  0.1846
  218MOL0     C29353   2.721   7.903   4.559  0.6162  0.2167  0.0300
  218MOL0     O29354   2.712   7.825   4.667 -0.7616  0.3621 -0.1002
  218MOL0     C29355   2.834   7.783   4.729 -0.1546 -0.1365  0.6161
  218MOL0     C29356   2.889   7.669   4.648  0.5196  0.1674 -0.6016
  218MOL0     C29357   3.019   7.610   4.713  0.3883  0.6600  0.5960
  218MOL0     C29358   3.063   7.490   4.635 -0.0108 -0.4720  0.8119
  218MOL0     C29359   2.971   7.383   4.645  0.7610  0.5207 -0.3090
  218MOL0     C29360   2.912   7.272   4.663  0.0596 -0.7596 -0.0723
  218MOL0     C29361   2.665   7.866   4.430  0.1974  0.3263  0.0756
  218MOL0     C29362   2.672   7.953   4.322 -0.1490 -0.2301  0.0203
  218MOL0     H29363   2.915   8.346   4.103 -1.4844  0.2777  3.4914
  218MOL0     H29364   2.929   8.471   3.872 -1.9223 -1.0636 -0.5133
  218MOL0     H29365   2.819   8.456   3.651  1.5716  0.2437  1.8753
  218MOL0     H29366   2.644   8.425   3.666  2.4427 -1.5960 -0.7236
  218MOL0     H29367   2.760   8.665   3.513  0.5786  1.0664 -0.9169
  218MOL0     H29368   2.700   8.499   3.461  1.0422  0.8058  0.1291
  218MOL0     H29369   2.484   8.558   3.565 -0.7161 -0.7828 -3.4309
  218MOL0     H29370   2.540   8.715   3.613  0.6132 -2.8325  3.3318
  218MOL0     H29371   2.617   8.715   3.343 -0.9428  0.6337 -1.9063
  218MOL0     H29372   2.504   8.586   3.320 -5.1966  0.7693 -0.4213
  218MOL0     H29373   2.324   8.695   3.431  2.7035 -1.7033  2.4110
  218MOL0     H29374   2.435   8.830   3.459 -2.3626 -0.1602  0.7218
  218MOL0     H29375   2.462   8.906   3.241 -1.4327  1.8405 -1.5516
  218MOL0     H29376   2.404   8.744   3.188 -2.4226 -1.7495  3.2311
  218MOL0     H29377   2.230   8.966   3.320  2.2012 -1.4756  2.2437
  218MOL0     H29378   2.256   8.962   3.154 -0.1055  3.3343  2.1725
  218MOL0     H29379   2.019   8.835   3.225  0.5054  2.8559  1.3197
  218MOL0     H29380   2.114   8.732   3.322  0.5210  1.6411  1.5099
  218MOL0     H29381   2.294   8.554   3.151 -0.6835 -2.1358  1.0565
  218MOL0     H29382   2.314   8.429   2.881 -0.1456 -2.5554 -0.9481
  218MOL0     H29383   2.228   8.344   3.008  2.5428  0.3248 -0.8179
  218MOL0     H29384   2.107   8.395   2.722 -1.8252 -2.6306 -0.6306
  218MOL0     H29385   2.013   8.357   2.862 -0.1921  2.1830  0.0419
  218MOL0     H29386   2.148   8.146   2.882 -0.7840 -0.6080 -0.9791
  218MOL0     H29387   2.232   8.176   2.731  0.6118  0.5242 -0.0077
  218MOL0     H29388   1.993   8.179   2.634 -3.4026  0.0628  1.2173
  218MOL0     H29389   1.949   8.136   2.800  1.5962 -1.6713  0.4091
  218MOL0     H29390   1.798   8.046   2.628  0.4495  0.0129  1.6904
  218MOL0     H29391   1.577   7.933   2.382  0.3254  1.8023  0.2568
  218MOL0     H29392   1.530   7.864   2.533 -0.7870  0.5644 -1.7963
  218MOL0     H29393   1.592   8.032   2.526  2.1493  0.6677 -0.2644
  218MOL0     H29394   1.510   7.407   2.420 -0.8945 -0.2132 -1.7868
  218MOL0     H29395   1.304   7.315   2.379  1.7547 -0.3373  0.7638
  218MOL0     H29396   0.933   7.438   2.424 -0.3273 -2.5194 -0.1366
  218MOL0     H29397   0.931   7.581   2.321  1.9652  0.2464  0.1299
  218MOL0     H29398   0.853   7.292   2.255  0.1111 -0.6076  3.3510
  218MOL0     H29399   0.741   7.413   2.312  1.4355  0.9291  2.7737
  218MOL0     H29400   0.915   7.430   2.072  0.0563 -0.6770 -0.7384
  218MOL0     H29401   0.791   7.553   2.108  2.4260  0.9281  1.7656
  218MOL0     H29402   0.771   7.272   2.006  1.4850  1.0633 -1.0560
  218MOL0     H29403   0.636   7.344   2.101 -1.0621  1.4344 -0.9203
  218MOL0     H29404   0.769   7.425   1.839  0.6141  0.0422  1.6922
  218MOL0     H29405   0.650   7.535   1.918  1.4126 -0.0729  3.3581
  218MOL0     H29406   0.570   7.253   1.831 -2.0071  0.4735  0.2416
  218MOL0     H29407   0.469   7.379   1.905 -2.4869 -2.3491 -0.4668
  218MOL0     H29408   0.549   7.516   1.689 -1.2673 -0.2719  3.1916
  218MOL0     H29409   0.434   7.385   1.672 -0.8084 -0.1356 -0.7895
  218MOL0     H29410   0.564   7.253   1.553  1.1230 -0.1781 -0.3704
  218MOL0     H29411   0.705   7.270   1.643  0.9251 -0.5044 -1.6021
  218MOL0     H29412   1.161   7.687   2.203  0.5358  2.0540  1.4650
  218MOL0     H29413   1.372   7.791   2.278  1.5702  1.4549  3.1819
  218MOL0     H29414   1.945   7.595   2.521  0.2089 -0.5554  1.5963
  218MOL0     H29415   2.109   7.754   2.586  0.2104 -0.7070  1.5036
  218MOL0     H29416   2.549   8.636   3.954  0.5491  1.6488  3.5425
  218MOL0     H29417   2.529   8.504   4.166  1.7040  0.2586  2.7131
  218MOL0     H29418   2.772   8.232   4.477  1.7881 -0.6393  2.7753
  218MOL0     H29419   2.778   8.086   4.666 -2.3708  4.9508 -1.3072
  218MOL0     H29420   2.908   7.862   4.742  0.2350 -0.6337  1.4989
  218MOL0     H29421   2.824   7.743   4.830  0.3258  1.8488  1.4972
  218MOL0     H29422   2.900   7.706   4.545  1.1450  3.3128  0.4800
  218MOL0     H29423   2.807   7.597   4.642 -1.2285  2.0666 -0.8458
  218MOL0     H29424   3.018   7.589   4.821  2.1668 -1.1805  0.3340
  218MOL0     H29425   3.092   7.691   4.705  1.4746 -0.2205  1.2161
  218MOL0     H29426   3.158   7.462   4.681 -0.0289 -3.0274 -0.5140
  218MOL0     H29427   3.083   7.504   4.528  2.5888  0.7144  1.3871
  218MOL0     H29428   2.854   7.189   4.698 -1.1159 -2.6074 -5.4744
  218MOL0     H29429   2.618   7.774   4.396 -3.8060  2.6388 -1.3938
  218MOL0     H29430   2.642   7.933   4.219  2.1202  1.5215 -1.0654
  219MOL0     O29431   1.261   0.664   0.548  0.2506 -0.2406 -0.0797
  219MOL0     C29432   1.336   0.574   0.593 -0.0639 -0.8998 -0.1197
  219MOL0     O29433   1.295   0.440   0.598  0.1509 -0.2179 -0.8668
  219MOL0     C29434   1.174   0.411   0.539  0.2422  0.0359  0.3546
  219MOL0     C29435   1.167   0.364   0.409  0.3743  0.4893  0.5931
  219MOL0     C29436   1.048   0.319   0.358  0.2643  0.1526  0.6219
  219MOL0     C29437   0.937   0.305   0.437  0.1939  0.1237 -0.3374
  219MOL0     O29438   0.819   0.248   0.382  0.0026  0.2634 -0.8551
  219MOL0     C29439   0.717   0.205   0.465 -0.0933 -0.7089  0.3917
  219MOL0     C29440   0.597   0.180   0.375  0.1431 -0.2693 -0.5637
  219MOL0     C29441   0.601   0.037   0.317  0.0097  0.5289 -0.5618
  219MOL0     C29442   0.550   0.036   0.169 -0.5709  0.2301 -0.1526
  219MOL0     C29443   0.601  -0.084   0.095  0.6369  0.3025  0.6811
  219MOL0     C29444   0.567  -0.079  -0.055 -0.1504  0.0376  0.5247
  219MOL0     C29445   0.570  -0.222  -0.113 -0.0667 -0.1656 -0.1275
  219MOL0     C29446   0.530  -0.237  -0.258  0.1411 -0.0129 -0.4170
  219MOL0     N29447   0.599  -0.145  -0.349  0.6771 -0.1580  0.2288
  219MOL0     C29448   0.721  -0.158  -0.402 -0.9203 -1.2516  0.4737
  219MOL0     C29449   0.725  -0.062  -0.504 -0.1787 -1.2798 -0.1995
  219MOL0     C29450   0.852  -0.053  -0.599 -0.2403  0.3317 -0.1714
  219MOL0     C29451   0.973   0.012  -0.539  0.6402 -0.6506  0.5695
  219MOL0     C29452   1.077   0.039  -0.654  0.1114 -0.0284  0.0836
  219MOL0     C29453   1.218   0.062  -0.612 -0.4810 -0.0596  0.3470
  219MOL0     O29454   1.280  -0.070  -0.590  0.0028  0.5880  0.3481
  219MOL0     C29455   1.413  -0.075  -0.563 -0.4067  0.9875 -0.3679
  219MOL0     C29456   1.487   0.042  -0.544 -0.7415 -1.1454  0.2745
  219MOL0     C29457   1.626   0.031  -0.533  0.4431 -0.8965 -0.4584
  219MOL0     C29458   1.691   0.163  -0.551 -0.3916 -0.2392  1.1725
  219MOL0     C29459   1.695  -0.093  -0.539  0.8608  0.1752  0.1723
  219MOL0     C29460   1.845  -0.097  -0.538  0.0576 -0.6412 -0.6233
  219MOL0     O29461   1.915   0.010  -0.473  0.0764  0.5229  0.1356
  219MOL0     C29462   2.054   0.028  -0.458 -0.3683 -0.2190  0.0033
  219MOL0     C29463   2.091   0.152  -0.402 -0.1757  0.2793 -0.2384
  219MOL0     C29464   2.222   0.179  -0.363 -0.0251  0.8784  0.4483
  219MOL0     C29465   2.327   0.091  -0.394 -0.4409  0.4729  0.0754
  219MOL0     O29466   2.460   0.107  -0.361 -0.0014  0.2120 -0.1020
  219MOL0     C29467   2.502   0.249  -0.341 -0.4845 -0.3577  0.4751
  219MOL0     C29468   2.549   0.300  -0.485 -0.4666  0.0057  0.0531
  219MOL0     C29469   2.650   0.416  -0.474 -0.4729  0.0913 -0.8184
  219MOL0     C29470   2.587   0.551  -0.472  0.6686 -0.4567 -0.5720
  219MOL0     C29471   2.505   0.581  -0.601  0.0872 -0.1172  0.3469
  219MOL0     C29472   2.423   0.708  -0.586  0.8458  0.3198  0.4622
  219MOL0     C29473   2.505   0.839  -0.597 -0.8798  0.2791 -0.8233
  219MOL0     C29474   2.495   0.942  -0.486  1.1387 -0.4919  0.1153
  219MOL0    Cl29475   2.552   0.850  -0.348  0.0240  0.1111  0.1377
  219MOL0     C29476   2.294  -0.030  -0.466  0.2025  0.4235  0.6306
  219MOL0     C29477   2.157  -0.065  -0.484 -0.2788  0.2673 -0.4653
  219MOL0     O29478   1.894  -0.190  -0.596  0.0887 -0.0863 -0.7142
  219MOL0     C29479   1.624  -0.211  -0.549  0.3759 -0.3825 -0.0987
  219MOL0     C29480   1.482  -0.198  -0.564 -0.1441 -0.9586  0.6807
  219MOL0     N29481   0.604   0.001  -0.517 -0.0491 -0.6246 -0.7787
  219MOL0     N29482   0.522  -0.052  -0.423  0.4940 -0.2694  0.6287
  219MOL0     C29483   0.945   0.351   0.571  0.6779  0.1691  0.9080
  219MOL0     C29484   1.063   0.403   0.624  0.4744 -0.0038 -0.6727
  219MOL0     C29485   1.470   0.623   0.656 -0.1906 -0.8219  0.5863
  219MOL0     C29486   1.563   0.529   0.701 -0.2735  0.6623  0.3476
  219MOL0     C29487   1.691   0.567   0.757  1.0374 -0.0408 -0.7403
  219MOL0     C29488   1.726   0.702   0.766  1.3230  0.2664 -0.0887
  219MOL0     O29489   1.842   0.729   0.836  0.1077 -0.8530 -0.4860
  219MOL0     C29490   1.869   0.862   0.884  0.9362 -0.1186  0.4166
  219MOL0     C29491   2.008   0.878   0.932 -0.2097 -0.3111  0.7180
  219MOL0     C29492   2.110   0.943   0.831  0.7175  0.1214 -0.0833
  219MOL0     C29493   2.255   0.951   0.881  0.6142 -0.9478 -0.3330
  219MOL0     C29494   2.348   0.992   0.772 -0.3225 -0.3570 -0.1259
  219MOL0     C29495   2.416   1.026   0.677  0.0422 -0.3364  0.0825
  219MOL0     C29496   1.631   0.797   0.728  0.7552  0.8160  0.6244
  219MOL0     C29497   1.501   0.764   0.666  0.1580 -0.3693 -0.0187
  219MOL0     H29498   1.262   0.383   0.360  0.4102  0.1471  0.5261
  219MOL0     H29499   1.027   0.288   0.256 -1.2287 -4.3073  2.0463
  219MOL0     H29500   0.741   0.114   0.522 -3.3378 -3.7878 -2.6278
  219MOL0     H29501   0.681   0.280   0.536 -0.7701  0.5428 -1.2277
  219MOL0     H29502   0.506   0.186   0.436  0.5621  0.0821  0.0447
  219MOL0     H29503   0.588   0.259   0.300  5.6970  0.1277 -1.2386
  219MOL0     H29504   0.699  -0.009   0.330 -1.2522 -2.5300 -1.0584
  219MOL0     H29505   0.543  -0.034   0.377  1.0504 -1.1829 -1.4839
  219MOL0     H29506   0.441   0.045   0.170 -0.8393 -2.0988 -1.4591
  219MOL0     H29507   0.594   0.121   0.115 -0.7349  2.1513  2.5087
  219MOL0     H29508   0.708  -0.096   0.116  0.6786  2.7796  2.2160
  219MOL0     H29509   0.546  -0.174   0.127 -1.2887  0.2709 -2.3301
  219MOL0     H29510   0.472  -0.029  -0.076  1.6877  2.0490 -4.1516
  219MOL0     H29511   0.645  -0.014  -0.096  0.3451 -0.4066  0.7522
  219MOL0     H29512   0.672  -0.259  -0.104  0.4361  1.2211  0.1356
  219MOL0     H29513   0.501  -0.282  -0.054  0.0006  0.8757  1.0400
  219MOL0     H29514   0.422  -0.224  -0.263 -0.7672 -3.8215  3.1895
  219MOL0     H29515   0.543  -0.338  -0.299 -0.2433 -0.1248 -0.2639
  219MOL0     H29516   0.808  -0.212  -0.367  0.9662 -1.0537 -3.3832
  219MOL0     H29517   0.880  -0.158  -0.613  0.0871  0.4184 -0.1715
  219MOL0     H29518   0.844  -0.021  -0.703  2.7395  0.2283 -0.5162
  219MOL0     H29519   1.022  -0.053  -0.467 -3.5942 -5.2455 -0.1642
  219MOL0     H29520   0.949   0.105  -0.487 -1.0248  0.8958 -2.6234
  219MOL0     H29521   1.051   0.126  -0.715 -3.2931  1.5511  3.3540
  219MOL0     H29522   1.082  -0.049  -0.719  2.3752 -1.2765  1.7973
  219MOL0     H29523   1.225   0.127  -0.524  0.2580 -1.3044  1.2406
  219MOL0     H29524   1.264   0.119  -0.693 -1.4667 -1.4196 -1.2452
  219MOL0     H29525   1.460   0.145  -0.521 -1.2120 -1.6038  1.9266
  219MOL0     H29526   1.740   0.197  -0.460  0.6755 -0.2157  0.6050
  219MOL0     H29527   1.764   0.162  -0.633 -1.7739 -1.8871 -0.1205
  219MOL0     H29528   1.621   0.242  -0.581 -3.2222 -1.8610  3.0319
  219MOL0     H29529   2.025   0.234  -0.373  0.0448  0.9461 -1.5275
  219MOL0     H29530   2.242   0.276  -0.317  0.5092  0.6079  0.8026
  219MOL0     H29531   2.431   0.309  -0.285 -2.2614  1.1746 -3.0869
  219MOL0     H29532   2.591   0.247  -0.277  0.5852 -4.0576 -0.8663
  219MOL0     H29533   2.605   0.214  -0.523  1.0041  0.9605  0.0015
  219MOL0     H29534   2.468   0.322  -0.556 -0.6305  0.9750  0.5143
  219MOL0     H29535   2.711   0.414  -0.565 -2.8287  1.1004 -2.5396
  219MOL0     H29536   2.709   0.409  -0.382 -2.0780 -0.8143  0.1969
  219MOL0     H29537   2.538   0.551  -0.374  0.7350 -0.2681 -0.5380
  219MOL0     H29538   2.663   0.629  -0.462 -0.4103  0.4283  1.5393
  219MOL0     H29539   2.428   0.510  -0.633  2.0040 -2.3427  0.4023
  219MOL0     H29540   2.586   0.580  -0.674 -0.8001 -1.2524 -0.6583
  219MOL0     H29541   2.354   0.714  -0.670 -0.9619  1.0670  1.9198
  219MOL0     H29542   2.360   0.702  -0.496  0.0216 -0.8504 -0.1685
  219MOL0     H29543   2.477   0.890  -0.690  1.5887  2.5187 -0.4662
  219MOL0     H29544   2.611   0.824  -0.617 -0.0551  2.7027  1.2840
  219MOL0     H29545   2.393   0.971  -0.461  0.6477 -2.8384  1.0793
  219MOL0     H29546   2.547   1.037  -0.501  0.0760  0.9682  4.2708
  219MOL0     H29547   2.369  -0.107  -0.483  0.9547  0.8399  1.8737
  219MOL0     H29548   2.131  -0.165  -0.517  1.1269 -0.0190 -0.7685
  219MOL0     H29549   1.667  -0.310  -0.545 -1.5955 -1.5148 -3.0438
  219MOL0     H29550   1.426  -0.286  -0.594 -0.0868  0.0166 -2.6967
  219MOL0     H29551   0.857   0.350   0.635 -0.1333 -0.4944 -0.1827
  219MOL0     H29552   1.059   0.439   0.726 -0.0880 -1.4691 -0.1561
  219MOL0     H29553   1.538   0.423   0.697 -2.3442  1.1204  0.0202
  219MOL0     H29554   1.765   0.500   0.799  2.1913  2.6546  1.8772
  219MOL0     H29555   1.848   0.939   0.809 -3.0765 -0.4434  1.0037
  219MOL0     H29556   1.795   0.870   0.963  0.3851 -0.4616 -0.0533
  219MOL0     H29557   2.035   0.782   0.978 -3.1096 -2.0544 -0.8846
  219MOL0     H29558   1.999   0.958   1.005 -1.9035  0.9643 -0.7915
  219MOL0     H29559   2.080   1.045   0.805  0.8330  0.2790  0.3871
  219MOL0     H29560   2.097   0.888   0.738  0.7436  1.0097 -0.6267
  219MOL0     H29561   2.291   0.857   0.922  3.9904 -0.8246 -2.5883
  219MOL0     H29562   2.265   1.023   0.962 -2.2420  2.0715 -2.3883
  219MOL0     H29563   2.482   1.061   0.601 -0.6881  1.2296  0.1468
  219MOL0     H29564   1.642   0.904   0.741 -1.9076  1.8054 -3.4683
  219MOL0     H29565   1.429   0.840   0.635 -1.5105 -1.0121  2.0606
  220MOL0     O29566   9.641   2.364   8.085 -0.1006 -0.0335 -0.4128
  220MOL0     C29567   9.644   2.296   7.988  0.1039 -0.9380  0.1617
  220MOL0     O29568   9.749   2.301   7.901  0.3048 -0.0012  0.7937
  220MOL0     C29569   9.865   2.374   7.918 -0.4466  1.0306  1.3343
  220MOL0     C29570   9.989   2.315   7.882 -0.1203  0.0835  0.1802
  220MOL0     C29571  10.109   2.371   7.921 -0.1836 -0.6102  0.4664
  220MOL0     C29572  10.112   2.498   7.970  0.1558 -0.0972 -0.5660
  220MOL0     O29573  10.229   2.570   8.002 -0.3904 -1.3923  0.6802
  220MOL0     C29574  10.360   2.520   7.978  0.5485 -0.4478  0.9699
  220MOL0     C29575  10.458   2.594   8.074  0.9780 -0.0915 -0.5299
  220MOL0     C29576  10.572   2.498   8.097 -1.4212 -0.2922 -0.4084
  220MOL0     C29577  10.682   2.554   8.187 -0.6001 -0.3722  0.3762
  220MOL0     C29578  10.793   2.606   8.094  0.2430 -0.8846 -0.3567
  220MOL0     C29579  10.922   2.652   8.175  0.7017 -0.1164  0.6117
  220MOL0     C29580  10.992   2.540   8.258 -0.5546 -0.3995  0.5417
  220MOL0     C29581  11.092   2.603   8.361 -0.5050  0.0293 -0.2772
  220MOL0     N29582  11.173   2.704   8.284  0.7380  0.5875  0.1839
  220MOL0     C29583  11.271   2.683   8.197  0.0994  0.3929 -0.0149
  220MOL0     C29584  11.297   2.804   8.147 -0.4254 -0.0466  0.1794
  220MOL0     C29585  11.397   2.827   8.029 -0.0788 -0.1091  1.0367
  220MOL0     C29586  11.358   2.739   7.900 -0.4465  0.5379 -0.3071
  220MOL0     C29587  11.430   2.784   7.781  0.0047 -0.9200  1.4263
  220MOL0     C29588  11.376   2.921   7.738 -0.3013  0.3007  0.4568
  220MOL0     O29589  11.285   2.905   7.630 -0.0579 -0.2125  0.6949
  220MOL0     C29590  11.155   2.878   7.665 -0.5477  1.4320  0.1158
  220MOL0     C29591  11.089   2.908   7.783  0.4857  0.8113 -0.7830
  220MOL0     C29592  10.959   2.861   7.807  0.7140 -0.1459 -0.4109
  220MOL0     C29593  10.906   2.914   7.934  0.6478  0.3991 -0.1899
  220MOL0     C29594  10.892   2.779   7.709  0.3681  0.8847 -0.2384
  220MOL0     C29595  10.738   2.744   7.723 -0.9589  0.1264  0.1712
  220MOL0     O29596  10.699   2.669   7.617  0.7041 -0.2960  1.1230
  220MOL0     C29597  10.561   2.687   7.586  0.5156 -0.6141  0.2730
  220MOL0     C29598  10.482   2.582   7.623  1.1708 -0.1554  0.3656
  220MOL0     C29599  10.343   2.578   7.595 -0.2267 -0.0691  0.2296
  220MOL0     C29600  10.281   2.684   7.513 -0.6385  0.4736 -0.0550
  220MOL0     O29601  10.155   2.699   7.463  0.2794 -0.5838 -0.1431
  220MOL0     C29602  10.044   2.639   7.538 -0.4174 -0.1973 -0.7567
  220MOL0     C29603   9.948   2.584   7.426 -0.3395 -0.2336 -0.6093
  220MOL0     C29604   9.809   2.539   7.483  0.2668 -0.4804 -0.4624
  220MOL0     C29605   9.698   2.525   7.382  0.3762 -0.0673  0.3371
  220MOL0     C29606   9.564   2.483   7.439  1.0519  0.6006  0.2455
  220MOL0     C29607   9.465   2.460   7.327  0.3762  0.1257  0.0055
  220MOL0     C29608   9.325   2.411   7.381  0.0411 -0.7116  0.0037
  220MOL0     C29609   9.238   2.348   7.276  0.7728 -0.2028  0.1043
  220MOL0    Cl29610   9.083   2.314   7.364  0.2138 -0.1573 -0.2036
  220MOL0     C29611  10.367   2.782   7.470  0.2441  0.3819 -0.0118
  220MOL0     C29612  10.501   2.784   7.499  0.6855  0.0313  0.2609
  220MOL0     O29613  10.671   2.786   7.816 -0.0682 -0.6732 -0.0173
  220MOL0     C29614  10.969   2.752   7.593  0.1286 -0.1223  0.2730
  220MOL0     C29615  11.097   2.802   7.568 -0.9152  0.2748  0.1574
  220MOL0     N29616  11.207   2.899   8.204 -0.0446  0.8954  0.0960
  220MOL0     N29617  11.145   2.837   8.295 -0.5322  0.6186  0.0310
  220MOL0     C29618   9.988   2.574   7.986 -0.4234  0.1098  0.5620
  220MOL0     C29619   9.863   2.507   7.970 -1.0995  0.9795  0.0391
  220MOL0     C29620   9.518   2.212   7.961 -1.2540  0.3696 -0.1344
  220MOL0     C29621   9.508   2.148   7.835 -0.0954  0.1184 -0.2104
  220MOL0     C29622   9.395   2.074   7.815 -0.0748 -0.2852 -0.0291
  220MOL0     C29623   9.285   2.060   7.903 -0.2160 -0.7592  1.2000
  220MOL0     O29624   9.187   1.969   7.875 -0.4969  0.2778  0.4849
  220MOL0     C29625   9.060   1.987   7.948 -0.3587 -0.3856 -0.1340
  220MOL0     C29626   9.059   1.875   8.052 -0.8445  0.7233 -0.5712
  220MOL0     C29627   8.933   1.795   8.036  0.6737 -0.1637  0.2567
  220MOL0     C29628   8.888   1.706   8.145 -0.2166 -0.5344 -0.0948
  220MOL0     C29629   8.848   1.791   8.260  0.3508  0.1443  0.5263
  220MOL0     C29630   8.830   1.866   8.360 -0.8367  0.2316 -0.1819
  220MOL0     C29631   9.299   2.126   8.025 -0.6012 -0.3293  0.7441
  220MOL0     C29632   9.403   2.211   8.044 -0.8216  0.6013  0.4635
  220MOL0     H29633   9.985   2.214   7.843  2.3949  0.2352 -0.6400
  220MOL0     H29634  10.199   2.313   7.903 -1.1925 -1.2188 -3.5464
  220MOL0     H29635  10.353   2.412   7.995 -0.8355 -0.8434 -1.5155
  220MOL0     H29636  10.390   2.534   7.874  0.9401 -1.7271  0.8879
  220MOL0     H29637  10.507   2.684   8.034 -0.0464  1.0523  0.6812
  220MOL0     H29638  10.408   2.628   8.165  1.3610  1.8477 -0.9889
  220MOL0     H29639  10.533   2.406   8.140 -1.9403  1.9756  4.6145
  220MOL0     H29640  10.610   2.481   7.995 -4.7761  0.9910 -2.0275
  220MOL0     H29641  10.648   2.619   8.268 -0.4341  0.2086 -0.0144
  220MOL0     H29642  10.723   2.469   8.242  3.8053 -0.3201 -2.3712
  220MOL0     H29643  10.819   2.530   8.019  0.5161 -2.1659  1.0022
  220MOL0     H29644  10.748   2.690   8.040 -1.3335 -2.6707 -1.9887
  220MOL0     H29645  10.990   2.695   8.101 -3.0648 -0.3865 -3.4145
  220MOL0     H29646  10.894   2.736   8.239  0.2641  0.8258 -0.7840
  220MOL0     H29647  10.917   2.487   8.317  0.3141 -2.2372  0.0845
  220MOL0     H29648  11.036   2.465   8.191 -3.6502 -0.9185 -1.1025
  220MOL0     H29649  11.153   2.527   8.411 -2.9790 -2.0278 -0.1712
  220MOL0     H29650  11.028   2.651   8.435 -2.2833  2.7544 -3.2978
  220MOL0     H29651  11.315   2.591   8.160 -0.3520  0.4006 -0.5940
  220MOL0     H29652  11.394   2.932   7.998 -0.7383 -0.6715 -0.9758
  220MOL0     H29653  11.501   2.804   8.053  0.1625  1.5928  1.7916
  220MOL0     H29654  11.251   2.726   7.881 -0.6353 -0.3692  1.2317
  220MOL0     H29655  11.383   2.635   7.921  2.9679  1.1693 -0.6632
  220MOL0     H29656  11.431   2.715   7.696  0.2370  0.7564 -0.0119
  220MOL0     H29657  11.535   2.802   7.802  0.0680  2.0816 -0.7491
  220MOL0     H29658  11.454   2.990   7.707  0.4672 -0.8510 -0.2372
  220MOL0     H29659  11.321   2.975   7.816 -2.6689  0.5443 -1.2871
  220MOL0     H29660  11.143   2.947   7.869  1.7422 -1.8288 -0.2586
  220MOL0     H29661  10.986   2.950   7.999  0.4450 -1.8924  1.4985
  220MOL0     H29662  10.837   2.998   7.921  2.2509  1.7331 -0.3816
  220MOL0     H29663  10.856   2.827   7.980  1.6537 -0.8632 -1.3996
  220MOL0     H29664  10.525   2.497   7.676 -2.9879 -0.7756  3.3035
  220MOL0     H29665  10.292   2.490   7.633 -1.9167  1.3781  1.4797
  220MOL0     H29666  10.074   2.553   7.599 -0.8264  2.4184  3.5488
  220MOL0     H29667   9.993   2.708   7.606 -1.6216 -1.8424  0.0711
  220MOL0     H29668   9.929   2.662   7.351 -0.3265 -0.8238 -1.2448
  220MOL0     H29669  10.008   2.510   7.372 -1.8597 -2.2324  0.2829
  220MOL0     H29670   9.776   2.615   7.555 -1.3017 -1.1588 -0.4310
  220MOL0     H29671   9.815   2.446   7.541  0.9542  0.6563  1.4029
  220MOL0     H29672   9.688   2.618   7.326 -0.7607 -1.2582 -1.5387
  220MOL0     H29673   9.727   2.453   7.305 -0.3976  1.0496 -1.0195
  220MOL0     H29674   9.514   2.550   7.508 -1.5878  1.7020 -2.4973
  220MOL0     H29675   9.566   2.383   7.484 -0.2058 -0.3764 -1.7215
  220MOL0     H29676   9.446   2.551   7.269 -1.4124 -2.8256 -4.5363
  220MOL0     H29677   9.498   2.388   7.252 -3.5163  0.6299 -2.5053
  220MOL0     H29678   9.275   2.498   7.424  0.6967 -0.3340  0.0186
  220MOL0     H29679   9.338   2.341   7.464 -0.8484 -0.0978  0.6787
  220MOL0     H29680   9.281   2.255   7.240 -0.2542 -0.8054  0.3779
  220MOL0     H29681   9.228   2.417   7.192  0.3354  1.5150  1.5035
  220MOL0     H29682  10.316   2.852   7.404  0.4883  2.2749  1.7022
  220MOL0     H29683  10.562   2.863   7.456 -0.6202  0.9932  0.1003
  220MOL0     H29684  10.928   2.727   7.495 -4.4054  3.5004  0.9044
  220MOL0     H29685  11.143   2.792   7.471 -1.9636 -1.1917 -0.2115
  220MOL0     H29686   9.972   2.679   8.007 -0.9763  0.2965 -0.7345
  220MOL0     H29687   9.779   2.575   7.981  0.8890  3.4731  0.8387
  220MOL0     H29688   9.586   2.141   7.760  0.0809 -0.5475  0.0309
  220MOL0     H29689   9.383   2.013   7.726  1.5595  0.3405 -0.7093
  220MOL0     H29690   9.043   2.077   8.007  0.6350 -1.5602  2.0975
  220MOL0     H29691   8.978   1.979   7.876  0.1480 -2.6742 -0.5289
  220MOL0     H29692   9.064   1.924   8.149 -0.0450  1.1579 -0.8229
  220MOL0     H29693   9.148   1.813   8.040  2.8594  4.9688  1.9470
  220MOL0     H29694   8.951   1.729   7.951  0.0268  1.6558 -1.3874
  220MOL0     H29695   8.850   1.863   8.011  1.6674  0.9037 -0.2451
  220MOL0     H29696   8.969   1.636   8.168  0.3869  0.4965  1.0698
  220MOL0     H29697   8.801   1.648   8.114  0.5990 -1.7240 -0.2127
  220MOL0     H29698   8.810   1.925   8.448 -0.9168  0.2792 -0.2322
  220MOL0     H29699   9.227   2.130   8.107 -0.5165  0.7537  0.7818
  220MOL0     H29700   9.407   2.260   8.141 -1.3319  3.8361 -1.0154
  221MOL0     O29701   4.181   3.011   8.379 -0.6955  0.2634  0.2222
  221MOL0     C29702   4.265   2.917   8.367  0.3787  0.3831 -0.5891
  221MOL0     O29703   4.248   2.799   8.442 -0.6618  0.5060  0.3792
  221MOL0     C29704   4.131   2.756   8.489  0.4220  0.5806  0.8851
  221MOL0     C29705   4.118   2.703   8.621  0.2832 -0.7466 -0.3800
  221MOL0     C29706   4.009   2.622   8.653  0.2364  0.7259 -0.0497
  221MOL0     C29707   3.904   2.605   8.559  0.7176  0.6943 -0.1756
  221MOL0     O29708   3.786   2.535   8.599 -0.1116 -0.4792 -0.1097
  221MOL0     C29709   3.799   2.432   8.697 -0.7886  0.4472  0.9971
  221MOL0     C29710   3.664   2.356   8.688 -1.4031  0.3580 -0.2614
  221MOL0     C29711   3.545   2.443   8.723  0.7741 -0.0242 -1.6966
  221MOL0     C29712   3.406   2.373   8.700  0.5431  0.6318  0.3274
  221MOL0     C29713   3.291   2.453   8.747 -0.0482  0.4550  0.2390
  221MOL0     C29714   3.163   2.374   8.734  0.1740  0.4825  0.4601
  221MOL0     C29715   3.045   2.420   8.800 -0.0063  0.0064  0.1210
  221MOL0     C29716   2.924   2.348   8.739  0.1459  0.2187 -0.8438
  221MOL0     N29717   2.798   2.388   8.797 -0.1758  0.0308 -0.0385
  221MOL0     C29718   2.765   2.513   8.850 -1.4738  0.3732  0.5774
  221MOL0     C29719   2.645   2.502   8.911  0.2424  0.4159 -0.7422
  221MOL0     C29720   2.566   2.597   8.995 -0.0808 -0.0824 -0.0101
  221MOL0     C29721   2.637   2.639   9.113  0.6610  0.8257  0.2882
  221MOL0     C29722   2.575   2.771   9.177 -0.2404  0.7942 -0.2400
  221MOL0     C29723   2.684   2.818   9.290  0.9777  0.2471  0.1844
  221MOL0     O29724   2.731   2.706   9.367  0.5101  0.1832 -0.4046
  221MOL0     C29725   2.843   2.711   9.442 -0.3445 -0.1190  0.0617
  221MOL0     C29726   2.911   2.832   9.475  0.1211 -0.0916  0.2175
  221MOL0     C29727   2.997   2.837   9.585 -0.5098  0.8148 -0.4504
  221MOL0     C29728   3.078   2.965   9.613  0.2719 -0.0321 -0.7544
  221MOL0     C29729   3.029   2.714   9.656  0.7597  0.1694 -0.3370
  221MOL0     C29730   3.123   2.700   9.771 -0.1461  0.6389  0.2571
  221MOL0     O29731   3.189   2.804   9.823  0.3420  0.2864 -0.0344
  221MOL0     C29732   3.305   2.786   9.889  0.2633 -0.4356  0.5151
  221MOL0     C29733   3.311   2.704   9.996  0.4504  0.4712 -0.1703
  221MOL0     C29734   3.422   2.699  10.074  0.1117  0.7944  0.3525
  221MOL0     C29735   3.536   2.769  10.036 -0.3492 -0.2516  0.8105
  221MOL0     O29736   3.648   2.762  10.108 -0.2040  0.3614 -0.1000
  221MOL0     C29737   3.709   2.888  10.126 -0.9219 -0.4498 -0.0906
  221MOL0     C29738   3.858   2.869  10.085 -0.4962 -0.1579 -0.0594
  221MOL0     C29739   3.920   2.767  10.187  0.9433 -0.3226 -0.2137
  221MOL0     C29740   4.058   2.717  10.138  0.2961  0.8829 -0.2715
  221MOL0     C29741   4.132   2.624  10.239 -0.8913 -0.8025 -0.0487
  221MOL0     C29742   4.232   2.532  10.179 -0.2231 -0.9382 -0.4557
  221MOL0     C29743   4.273   2.422  10.267 -0.7577 -0.0065  0.3184
  221MOL0     C29744   4.397   2.343  10.222 -0.2184  0.4509  0.0767
  221MOL0    Cl29745   4.456   2.237  10.357 -0.0737 -0.1397  0.2146
  221MOL0     C29746   3.528   2.841   9.919 -1.0101 -0.4097  0.0757
  221MOL0     C29747   3.411   2.861   9.848 -0.2695 -0.2585  0.9372
  221MOL0     O29748   3.121   2.593   9.819  0.1241  0.3769  0.5782
  221MOL0     C29749   2.954   2.597   9.613 -0.4020 -0.3078 -0.3395
  221MOL0     C29750   2.864   2.590   9.510 -0.2390  0.5033  0.1589
  221MOL0     N29751   2.607   2.371   8.895 -0.3635  0.0040 -0.3539
  221MOL0     N29752   2.694   2.303   8.828 -0.4603 -0.2454 -0.3686
  221MOL0     C29753   3.912   2.657   8.437 -0.1690  0.1808  0.8774
  221MOL0     C29754   4.021   2.736   8.401 -0.1646  0.7049  0.6416
  221MOL0     C29755   4.381   2.945   8.288  0.1803  0.1359  0.1614
  221MOL0     C29756   4.486   2.851   8.282  0.4671  0.0727 -0.9221
  221MOL0     C29757   4.611   2.861   8.205  1.0064 -0.3534 -0.7240
  221MOL0     C29758   4.613   2.972   8.124 -0.1900 -0.2486  0.4680
  221MOL0     O29759   4.718   2.990   8.033 -0.7052 -0.6741  0.0101
  221MOL0     C29760   4.841   2.927   8.050 -0.3728  0.0777  0.2081
  221MOL0     C29761   4.825   2.797   7.964 -0.0753 -0.9241  0.2915
  221MOL0     C29762   4.806   2.844   7.816  0.7260  0.1010  0.0684
  221MOL0     C29763   4.817   2.716   7.718 -0.4548  0.0113  0.1329
  221MOL0     C29764   4.957   2.670   7.698 -0.0014  0.4479 -0.2197
  221MOL0     C29765   5.073   2.636   7.673  0.6172 -1.3004 -0.1303
  221MOL0     C29766   4.513   3.073   8.128  0.3257  0.4955 -0.5218
  221MOL0     C29767   4.400   3.053   8.204  0.0995 -0.1094 -0.2844
  221MOL0     H29768   4.197   2.703   8.695 -0.3421 -1.8044  0.3184
  221MOL0     H29769   4.010   2.568   8.747  0.5125 -3.1073 -2.0481
  221MOL0     H29770   3.881   2.366   8.667 -0.8580  0.0144  1.7243
  221MOL0     H29771   3.825   2.465   8.799  1.2047  1.6078  0.1814
  221MOL0     H29772   3.651   2.334   8.582  0.1688 -1.5651 -0.1061
  221MOL0     H29773   3.669   2.263   8.745  4.0892  1.7041  2.0512
  221MOL0     H29774   3.543   2.475   8.827 -0.5770  4.2445 -2.8096
  221MOL0     H29775   3.544   2.537   8.667  1.5860  0.9427 -0.1595
  221MOL0     H29776   3.400   2.354   8.592  1.6576 -0.6231  0.4526
  221MOL0     H29777   3.408   2.270   8.735 -0.3466 -0.1354 -1.6893
  221MOL0     H29778   3.314   2.478   8.851  3.3469 -0.9174 -0.0603
  221MOL0     H29779   3.283   2.544   8.687  0.2943 -0.1628 -0.7615
  221MOL0     H29780   3.136   2.356   8.630  0.3488 -1.0922  0.6606
  221MOL0     H29781   3.191   2.273   8.767 -2.4545 -1.0983 -1.6848
  221MOL0     H29782   3.047   2.395   8.907  1.0459 -1.1701 -0.1422
  221MOL0     H29783   3.023   2.526   8.784 -1.1745 -0.3330 -0.6845
  221MOL0     H29784   2.938   2.242   8.760 -0.7410  0.3005  0.2862
  221MOL0     H29785   2.926   2.372   8.632 -2.4293 -3.7228 -1.9733
  221MOL0     H29786   2.834   2.597   8.857  0.3224 -1.1568  3.3084
  221MOL0     H29787   2.537   2.678   8.927  0.9337  0.2253 -0.0921
  221MOL0     H29788   2.473   2.551   9.031  0.0113  0.7764  1.4152
  221MOL0     H29789   2.743   2.647   9.085  0.2487  0.8942 -1.3094
  221MOL0     H29790   2.627   2.559   9.186  1.7184  1.1017  0.7638
  221MOL0     H29791   2.473   2.759   9.216  0.5586 -2.8054  1.1435
  221MOL0     H29792   2.571   2.856   9.109  2.5258  1.7770  0.6637
  221MOL0     H29793   2.642   2.891   9.361 -0.6914 -0.0955 -0.4157
  221MOL0     H29794   2.771   2.862   9.240  0.5511  2.4053  1.2185
  221MOL0     H29795   2.901   2.927   9.423 -0.3388 -0.2390  0.0286
  221MOL0     H29796   3.055   3.002   9.713  2.0784 -0.6979 -0.0531
  221MOL0     H29797   3.185   2.943   9.610  0.3958 -0.3291  2.6179
  221MOL0     H29798   3.059   3.050   9.545 -0.8206 -0.0617 -0.5081
  221MOL0     H29799   3.223   2.650  10.031  1.7989 -0.9106  1.2283
  221MOL0     H29800   3.433   2.638  10.163  2.2502  1.2925  0.4830
  221MOL0     H29801   3.672   2.981  10.083 -0.5727  0.0122  0.5913
  221MOL0     H29802   3.694   2.903  10.233 -0.0191 -1.6113  0.2237
  221MOL0     H29803   3.871   2.824   9.986 -1.1410 -0.3649 -0.0590
  221MOL0     H29804   3.917   2.960  10.094 -0.7458  0.6203 -4.3083
  221MOL0     H29805   3.848   2.692  10.222  3.1109 -2.4731 -0.1237
  221MOL0     H29806   3.936   2.819  10.282 -1.5631  0.0079  0.1072
  221MOL0     H29807   4.044   2.667  10.042 -3.0729 -1.1126  1.1015
  221MOL0     H29808   4.123   2.805  10.125  4.6446 -2.0139 -0.3038
  221MOL0     H29809   4.059   2.553  10.278 -0.9724 -2.8947 -3.6019
  221MOL0     H29810   4.167   2.681  10.326 -0.9956 -3.3590  1.7787
  221MOL0     H29811   4.195   2.487  10.086  1.9368 -1.2296 -1.2341
  221MOL0     H29812   4.320   2.591  10.152  1.3576 -1.7221  2.6007
  221MOL0     H29813   4.200   2.340  10.272  2.6324 -3.7002 -3.1910
  221MOL0     H29814   4.292   2.471  10.362 -1.5041 -0.1721  0.5592
  221MOL0     H29815   4.477   2.414  10.203 -0.5204  0.2769 -2.0071
  221MOL0     H29816   4.368   2.285  10.134 -4.1210  1.8497  0.2531
  221MOL0     H29817   3.617   2.893   9.885  0.7531 -2.8702  0.6486
  221MOL0     H29818   3.404   2.933   9.767 -0.1665 -2.8382 -1.5353
  221MOL0     H29819   2.971   2.497   9.652 -0.0169 -0.3053 -0.5042
  221MOL0     H29820   2.821   2.495   9.481  2.4241 -0.3500 -1.3229
  221MOL0     H29821   3.818   2.647   8.384 -0.9650  1.2721  2.0222
  221MOL0     H29822   4.029   2.791   8.308  2.8850  1.0898  1.0565
  221MOL0     H29823   4.486   2.752   8.326 -2.2491  0.0621 -0.7623
  221MOL0     H29824   4.680   2.777   8.205  0.6295 -0.6656 -0.9351
  221MOL0     H29825   4.916   2.983   7.994 -0.0736 -0.1803  0.3491
  221MOL0     H29826   4.876   2.920   8.153 -4.2306 -3.1290  1.6020
  221MOL0     H29827   4.736   2.739   7.986 -3.3361  3.8947  1.3738
  221MOL0     H29828   4.926   2.756   7.967  1.3074  2.1770  0.0571
  221MOL0     H29829   4.868   2.928   7.784 -0.0924  0.1317 -1.5270
  221MOL0     H29830   4.705   2.884   7.808  0.8431  0.6499  1.1657
  221MOL0     H29831   4.787   2.733   7.614  1.5039  0.3365 -0.4352
  221MOL0     H29832   4.749   2.637   7.748 -0.2409 -0.6056 -0.9557
  221MOL0     H29833   5.174   2.611   7.649  0.4560 -2.5426  0.3956
  221MOL0     H29834   4.525   3.152   8.055  0.2855  0.7191 -0.2883
  221MOL0     H29835   4.327   3.132   8.219  0.7753  0.4743  0.0036
  222MOL0     O29836   1.471   3.154  10.269  0.0693  0.2007 -0.0697
  222MOL0     C29837   1.411   3.083  10.188 -0.6413  0.0350 -0.1851
  222MOL0     O29838   1.450   2.952  10.157  0.6414  0.0016 -0.4308
  222MOL0     C29839   1.544   2.883  10.228 -0.2834  0.0370 -1.0120
  222MOL0     C29840   1.603   2.916  10.354  0.9639  0.1795  0.1174
  222MOL0     C29841   1.697   2.833  10.415  0.0231  0.5423 -0.3517
  222MOL0     C29842   1.747   2.727  10.341  0.2224 -0.2521 -0.3918
  222MOL0     O29843   1.841   2.638  10.399  0.6627 -0.0940  0.0964
  222MOL0     C29844   1.824   2.499  10.363  0.1793  0.0163 -0.9226
  222MOL0     C29845   1.685   2.435  10.367  0.0190 -0.3635  0.3522
  222MOL0     C29846   1.681   2.306  10.458 -0.0885  0.6150  0.2069
  222MOL0     C29847   1.660   2.325  10.608 -0.0271 -0.4581  0.0804
  222MOL0     C29848   1.774   2.400  10.671 -0.3538  0.1534  0.5215
  222MOL0     C29849   1.773   2.414  10.828  0.2400 -0.1513 -0.2052
  222MOL0     C29850   1.641   2.465  10.870  0.5038  0.3011  0.2761
  222MOL0     C29851   1.666   2.522  11.011  1.0859 -0.3228 -0.4839
  222MOL0     N29852   1.567   2.620  11.050 -0.8466  0.9662 -0.2149
  222MOL0     C29853   1.433   2.635  11.027 -0.1462 -0.2692 -0.2501
  222MOL0     C29854   1.406   2.759  11.080  0.3112 -1.0027 -0.1326
  222MOL0     C29855   1.279   2.837  11.052 -0.5264  0.7971 -0.4427
  222MOL0     C29856   1.284   2.924  10.923  0.4099 -0.0999 -0.6247
  222MOL0     C29857   1.166   3.013  10.917 -0.3982  0.3048  0.3806
  222MOL0     C29858   1.027   2.947  10.904 -0.1853 -0.1413  0.1672
  222MOL0     O29859   0.930   3.050  10.915  0.1847 -0.3642 -0.1364
  222MOL0     C29860   0.804   3.021  10.871 -0.1580  0.5265  0.1525
  222MOL0     C29861   0.752   2.896  10.879  0.2203  0.4462  0.2623
  222MOL0     C29862   0.617   2.871  10.850  0.0686 -0.5729  0.2799
  222MOL0     C29863   0.563   2.735  10.896  0.1942  0.6931  0.7365
  222MOL0     C29864   0.534   2.980  10.803  0.5178 -0.4110  0.2443
  222MOL0     C29865   0.391   2.963  10.787  0.7612 -0.6496  0.7361
  222MOL0     O29866   0.342   2.848  10.748  0.6196 -0.5269  0.2492
  222MOL0     C29867   0.214   2.824  10.772 -0.6458  0.2423 -0.3689
  222MOL0     C29868   0.172   2.793  10.898  0.9253 -0.0408 -0.6122
  222MOL0     C29869   0.042   2.757  10.919 -0.1779 -0.0377  0.7268
  222MOL0     C29870  -0.051   2.740  10.807 -0.7310  0.5963 -0.7024
  222MOL0     O29871  -0.177   2.695  10.850 -0.8281 -0.2578  0.0384
  222MOL0     C29872  -0.295   2.739  10.774  0.0291  0.4685  0.6292
  222MOL0     C29873  -0.403   2.741  10.873  0.6234 -0.2568 -0.2044
  222MOL0     C29874  -0.540   2.791  10.814  0.5082  1.0322 -1.3130
  222MOL0     C29875  -0.597   2.672  10.726 -0.1053  0.2102 -0.6668
  222MOL0     C29876  -0.715   2.728  10.637 -0.1998 -0.2219 -0.3098
  222MOL0     C29877  -0.770   2.619  10.551 -0.0039  0.0524  0.3731
  222MOL0     C29878  -0.866   2.522  10.630 -0.3160  0.3310  0.2233
  222MOL0     C29879  -0.939   2.409  10.546  0.2859  0.8466 -0.2131
  222MOL0    Cl29880  -0.831   2.276  10.488  0.5553  0.4673  0.0232
  222MOL0     C29881  -0.002   2.763  10.675  0.0236  0.5204 -0.5342
  222MOL0     C29882   0.129   2.805  10.661  1.0853 -0.0567  0.2726
  222MOL0     O29883   0.322   3.053  10.842 -0.3041 -0.1517  0.1236
  222MOL0     C29884   0.594   3.103  10.782 -1.0272  0.2525 -0.1981
  222MOL0     C29885   0.733   3.125  10.820 -0.6703  1.1217  0.0747
  222MOL0     N29886   1.516   2.805  11.151  0.1403  0.6314 -0.5704
  222MOL0     N29887   1.614   2.719  11.131  0.3510  0.3815  0.5817
  222MOL0     C29888   1.706   2.705  10.215 -0.0662 -0.6577  0.9265
  222MOL0     C29889   1.593   2.779  10.160 -0.1268  1.0203 -0.0284
  222MOL0     C29890   1.293   3.129  10.115  0.7922 -0.1793 -0.1339
  222MOL0     C29891   1.268   3.083   9.982 -0.0731 -0.5049  1.2018
  222MOL0     C29892   1.164   3.140   9.909  0.0808  0.2359  1.1432
  222MOL0     C29893   1.075   3.227   9.965  0.4590  0.1153  0.5909
  222MOL0     O29894   0.968   3.276   9.890  0.0269  0.1570  0.0036
  222MOL0     C29895   0.963   3.418   9.865 -0.6339  0.3566 -0.1985
  222MOL0     C29896   1.064   3.456   9.760  0.4410 -0.1315  0.0446
  222MOL0     C29897   1.076   3.613   9.748 -1.1288 -0.0014 -0.0354
  222MOL0     C29898   0.949   3.686   9.719 -0.0591 -0.1345 -0.9740
  222MOL0     C29899   0.988   3.822   9.696 -0.2462 -1.4285  0.7030
  222MOL0     C29900   0.996   3.936   9.650  0.7020  0.1690 -0.0853
  222MOL0     C29901   1.096   3.265  10.101  0.1316  0.1235  0.2855
  222MOL0     C29902   1.216   3.228  10.169  0.1326 -0.0982 -0.4133
  222MOL0     H29903   1.572   2.996  10.420 -1.0677  1.7812 -2.5550
  222MOL0     H29904   1.724   2.855  10.517  3.3344  1.1353 -1.2244
  222MOL0     H29905   1.863   2.462  10.268  0.0581 -0.1388 -0.9144
  222MOL0     H29906   1.884   2.447  10.438 -1.6771  1.3998  1.7093
  222MOL0     H29907   1.623   2.512  10.414 -0.7345 -1.1693  0.7143
  222MOL0     H29908   1.675   2.422  10.259  1.7424  2.1415 -0.2007
  222MOL0     H29909   1.598   2.240  10.430  0.5579 -0.3765  0.5301
  222MOL0     H29910   1.774   2.248  10.445 -0.7986 -0.1874 -1.6446
  222MOL0     H29911   1.576   2.394  10.619  1.5287  1.2739  2.1453
  222MOL0     H29912   1.626   2.231  10.651 -0.4100 -0.7969 -0.9347
  222MOL0     H29913   1.872   2.370  10.635 -1.1662  0.3798 -2.0824
  222MOL0     H29914   1.768   2.502  10.630  2.1251 -0.2342 -1.0138
  222MOL0     H29915   1.801   2.318  10.872  0.9321  0.8896  1.7794
  222MOL0     H29916   1.850   2.487  10.856  0.0745  0.8799 -2.2143
  222MOL0     H29917   1.603   2.551  10.813  1.3953  0.9246  0.5981
  222MOL0     H29918   1.557   2.396  10.883  1.8842 -1.1327  2.0206
  222MOL0     H29919   1.757   2.582  11.001  2.5619 -1.8357  2.5260
  222MOL0     H29920   1.691   2.449  11.088  3.9663  1.5001  0.4570
  222MOL0     H29921   1.374   2.574  10.960  0.8525 -2.3986  0.6937
  222MOL0     H29922   1.196   2.767  11.036 -0.3983  0.7335 -0.8320
  222MOL0     H29923   1.254   2.903  11.136  0.7459 -0.9293  1.3848
  222MOL0     H29924   1.286   2.857  10.837  0.5653 -0.2436 -0.5117
  222MOL0     H29925   1.376   2.982  10.935  0.6157 -0.6682  0.7117
  222MOL0     H29926   1.187   3.081  10.834  1.1599 -2.1644 -1.3597
  222MOL0     H29927   1.162   3.077  11.006 -3.0603 -2.3323  2.3835
  222MOL0     H29928   1.012   2.870  10.980 -1.0573  0.0052  0.1518
  222MOL0     H29929   1.015   2.905  10.804 -0.1761  2.7385 -1.1387
  222MOL0     H29930   0.809   2.814  10.922 -1.3327  0.3871  2.3113
  222MOL0     H29931   0.539   2.684  10.802  1.3946 -1.6802  1.6505
  222MOL0     H29932   0.639   2.673  10.944 -0.5456 -0.5688  0.3223
  222MOL0     H29933   0.480   2.746  10.967 -0.8632  1.7247 -0.5998
  222MOL0     H29934   0.234   2.796  10.986 -0.5010  0.6575  0.4114
  222MOL0     H29935   0.005   2.727  11.017 -0.9299 -0.5779  0.2928
  222MOL0     H29936  -0.271   2.838  10.735 -0.0700  0.1574 -0.2415
  222MOL0     H29937  -0.318   2.677  10.686  0.9197 -0.0937  0.7774
  222MOL0     H29938  -0.418   2.638  10.905  3.5619 -0.4710  0.8089
  222MOL0     H29939  -0.376   2.811  10.953 -1.1642  1.1304 -0.7289
  222MOL0     H29940  -0.530   2.884  10.758  0.1568  0.4480 -2.3711
  222MOL0     H29941  -0.606   2.801  10.901  0.6796 -2.0433 -0.7049
  222MOL0     H29942  -0.520   2.642  10.655  2.9440  1.9186  1.6495
  222MOL0     H29943  -0.626   2.599  10.803  1.2273  1.2766  0.9340
  222MOL0     H29944  -0.676   2.808  10.573 -0.1696 -1.3900 -1.7787
  222MOL0     H29945  -0.790   2.774  10.702  3.6995  1.2872  3.6976
  222MOL0     H29946  -0.825   2.671  10.472 -2.7224 -3.4764 -0.2935
  222MOL0     H29947  -0.684   2.562  10.514  1.2363  0.4816  2.4373
  222MOL0     H29948  -0.950   2.581  10.668 -0.3738 -0.9790  2.2883
  222MOL0     H29949  -0.800   2.482  10.707 -0.7537  0.6464  0.7717
  222MOL0     H29950  -0.974   2.462  10.458  3.8125  2.0176 -1.0956
  222MOL0     H29951  -1.016   2.367  10.610 -0.9439  0.7889 -1.6862
  222MOL0     H29952  -0.052   2.732  10.584  1.4380 -0.6730 -0.9535
  222MOL0     H29953   0.177   2.823  10.565  1.0920  1.1900  0.4937
  222MOL0     H29954   0.531   3.183  10.744  0.0711  1.4654  0.4318
  222MOL0     H29955   0.779   3.223  10.813  0.0921  0.9807  2.4000
  222MOL0     H29956   1.758   2.635  10.150 -0.4975  2.1569 -2.7971
  222MOL0     H29957   1.559   2.750  10.062 -1.3646  0.8046  0.4389
  222MOL0     H29958   1.341   3.013   9.944  1.7251  2.1514 -0.5443
  222MOL0     H29959   1.147   3.116   9.804  0.2340  0.6087  1.0285
  222MOL0     H29960   0.867   3.455   9.826 -1.4725  0.4247  1.7968
  222MOL0     H29961   0.980   3.473   9.959 -1.0219 -0.1872  0.2000
  222MOL0     H29962   1.035   3.420   9.661  0.1378  0.2715 -0.0187
  222MOL0     H29963   1.161   3.414   9.788  1.1732 -0.1264 -2.2549
  222MOL0     H29964   1.140   3.633   9.661 -1.2455 -2.2134 -0.6750
  222MOL0     H29965   1.120   3.650   9.840 -1.6968 -1.3951  0.8196
  222MOL0     H29966   0.883   3.681   9.806  1.4003  1.7153  0.3038
  222MOL0     H29967   0.894   3.634   9.640  0.5182 -1.8694 -0.2670
  222MOL0     H29968   0.989   4.014   9.577  2.1114  0.6894  0.3008
  222MOL0     H29969   1.034   3.343  10.144 -0.2357  1.5604 -2.5689
  222MOL0     H29970   1.225   3.280  10.264  2.0255  3.9178 -2.5138
  223MOL0     O29971   8.980  10.109   7.672  0.1416 -0.1522  0.2196
  223MOL0     C29972   8.989  10.091   7.550 -0.0181 -0.2842  0.1602
  223MOL0     O29973   9.101  10.029   7.491  0.3805  0.2165  0.3391
  223MOL0     C29974   9.215  10.037   7.568  0.1151 -0.7545 -0.0807
  223MOL0     C29975   9.287   9.922   7.620  0.8046 -0.3193 -0.1725
  223MOL0     C29976   9.389   9.933   7.705 -0.4199 -0.3151 -0.0011
  223MOL0     C29977   9.429  10.059   7.748  0.1665 -0.5114  1.1977
  223MOL0     O29978   9.530  10.074   7.838  0.4856 -0.4443  0.3136
  223MOL0     C29979   9.473  10.066   7.971  0.1487  0.0070 -0.7456
  223MOL0     C29980   9.581  10.067   8.075 -0.3449 -0.8020 -0.2989
  223MOL0     C29981   9.683   9.956   8.064 -1.0994  0.3897 -0.7969
  223MOL0     C29982   9.803   9.982   8.156 -0.7953 -0.9653  1.2182
  223MOL0     C29983   9.925   9.906   8.128  0.6138  0.7195 -0.6482
  223MOL0     C29984   9.993   9.935   7.986  0.5187  0.6848  0.0655
  223MOL0     C29985  10.126   9.863   7.987 -0.1356  0.0493 -0.1514
  223MOL0     C29986  10.192   9.901   7.850  0.2275  0.3182 -0.7571
  223MOL0     N29987  10.308   9.816   7.827  0.8839  0.2325  0.0458
  223MOL0     C29988  10.433   9.845   7.862 -0.4528  0.6295  0.6095
  223MOL0     C29989  10.510   9.737   7.830  0.8219 -0.0520  0.1661
  223MOL0     C29990  10.647   9.715   7.872 -0.4893  0.1847  0.1638
  223MOL0     C29991  10.651   9.607   7.980  0.4302  0.0467  0.7970
  223MOL0     C29992  10.792   9.551   7.998 -0.1191  0.1777 -0.4875
  223MOL0     C29993  10.789   9.442   8.105  0.2923 -0.4041  0.0684
  223MOL0     O29994  10.720   9.324   8.058 -0.0864  0.2061  0.5420
  223MOL0     C29995  10.732   9.205   8.132  0.1795 -0.4235  0.5407
  223MOL0     C29996  10.754   9.196   8.269  0.3207 -0.1798 -0.4392
  223MOL0     C29997  10.754   9.074   8.332  0.4814 -0.0408 -0.7592
  223MOL0     C29998  10.806   9.069   8.477 -0.5631 -0.2767  0.4540
  223MOL0     C29999  10.711   8.960   8.269  0.2173 -0.6235  0.7226
  223MOL0     C30000  10.689   8.828   8.341  0.6776  0.0508 -0.0231
  223MOL0     O30001  10.663   8.727   8.260  0.4182  0.0667 -0.2722
  223MOL0     C30002  10.611   8.609   8.308 -0.9993  0.3767 -0.9117
  223MOL0     C30003  10.489   8.610   8.376 -0.5277  0.2168  0.1487
  223MOL0     C30004  10.434   8.492   8.414 -0.2658 -1.2255 -0.4662
  223MOL0     C30005  10.484   8.366   8.378  0.8421 -0.8818  0.2628
  223MOL0     O30006  10.442   8.249   8.428 -0.1217  0.1305  0.1967
  223MOL0     C30007  10.313   8.250   8.490  0.6019 -0.2562 -1.3180
  223MOL0     C30008  10.273   8.105   8.520 -0.2532 -0.3723  0.2277
  223MOL0     C30009  10.364   8.042   8.631  0.6372  0.3590  0.5476
  223MOL0     C30010  10.312   7.909   8.687  1.3499  0.8693 -0.2631
  223MOL0     C30011  10.393   7.871   8.812 -0.2112 -0.6029 -0.5472
  223MOL0     C30012  10.368   7.728   8.862 -0.5114 -0.1178  0.5631
  223MOL0     C30013  10.222   7.691   8.884  0.5405 -0.1575 -0.1729
  223MOL0     C30014  10.201   7.547   8.944  0.1840  0.0868  0.6787
  223MOL0    Cl30015  10.296   7.411   8.857 -0.3706  0.0259  0.0865
  223MOL0     C30016  10.601   8.363   8.309 -0.1943 -0.1027 -1.0622
  223MOL0     C30017  10.670   8.477   8.274  0.3480 -0.2804  0.9222
  223MOL0     O30018  10.694   8.820   8.463  0.2008 -0.1985 -0.2030
  223MOL0     C30019  10.679   8.966   8.138  1.0186 -1.0921 -0.2998
  223MOL0     C30020  10.698   9.090   8.068  0.5748  0.2916  0.3968
  223MOL0     N30021  10.426   9.650   7.763  0.3594  0.2256  0.0441
  223MOL0     N30022  10.304   9.694   7.759 -0.0467  0.0163 -0.0707
  223MOL0     C30023   9.374  10.171   7.684  0.1128 -0.0104 -0.8312
  223MOL0     C30024   9.273  10.166   7.601 -0.1663  0.2182  0.0750
  223MOL0     C30025   8.891  10.158   7.468 -0.2504 -0.3840 -0.6786
  223MOL0     C30026   8.770  10.219   7.524 -0.7674  1.4383 -0.2013
  223MOL0     C30027   8.670  10.278   7.445  1.0240  0.0915  0.1791
  223MOL0     C30028   8.670  10.266   7.305  0.6229 -0.0249 -0.5912
  223MOL0     O30029   8.576  10.317   7.215  0.1279  0.3573 -0.5939
  223MOL0     C30030   8.447  10.370   7.266  0.0569  0.2045 -0.8883
  223MOL0     C30031   8.337  10.267   7.263 -0.5074  0.8593 -1.5671
  223MOL0     C30032   8.202  10.332   7.248  0.2343  0.9387 -0.4067
  223MOL0     C30033   8.090  10.232   7.262 -0.8191  0.0309  0.0756
  223MOL0     C30034   7.959  10.288   7.238  0.3061  0.4352 -0.4104
  223MOL0     C30035   7.858  10.350   7.234  0.4001  0.3179  0.0534
  223MOL0     C30036   8.778  10.195   7.252 -0.3796  0.6060 -0.3218
  223MOL0     C30037   8.887  10.149   7.330 -0.0498  0.6061  0.0450
  223MOL0     H30038   9.244   9.825   7.598 -3.2876  1.2053  0.1754
  223MOL0     H30039   9.444   9.843   7.730  1.7019 -0.1093 -3.3545
  223MOL0     H30040   9.421  10.161   7.987 -0.2033 -0.5264  1.6623
  223MOL0     H30041   9.419   9.975   7.997 -0.9333  0.6651 -0.6286
  223MOL0     H30042   9.638  10.160   8.065 -0.4677 -0.7703 -0.7050
  223MOL0     H30043   9.534  10.080   8.173 -0.4392  0.7445 -0.5262
  223MOL0     H30044   9.627   9.867   8.096 -1.3665  0.7345 -0.3057
  223MOL0     H30045   9.724   9.945   7.963  1.0006 -0.0812  0.0630
  223MOL0     H30046   9.837  10.085   8.143  0.3378 -1.6400 -1.8678
  223MOL0     H30047   9.787   9.962   8.263  0.2351 -2.0273  1.1942
  223MOL0     H30048   9.989   9.942   8.208  1.5437  2.4987 -2.1149
  223MOL0     H30049   9.895   9.802   8.148 -1.7233  1.5997  0.7569
  223MOL0     H30050   9.930   9.896   7.905  0.5783 -0.9635  0.7886
  223MOL0     H30051  10.006  10.043   7.972 -0.7346  0.9546  0.7995
  223MOL0     H30052  10.185   9.901   8.071 -0.8210  1.7319 -0.3787
  223MOL0     H30053  10.112   9.755   7.997 -3.7280  0.5581  2.1299
  223MOL0     H30054  10.223  10.006   7.842  0.6895  0.4291  1.7349
  223MOL0     H30055  10.125   9.878   7.767  1.6310 -0.7451 -1.6421
  223MOL0     H30056  10.466   9.929   7.922  1.4604  1.2147 -1.1263
  223MOL0     H30057  10.715   9.694   7.789 -0.0363  1.6054  0.1378
  223MOL0     H30058  10.693   9.805   7.915 -0.0539  0.4291 -0.7859
  223MOL0     H30059  10.577   9.531   7.955 -2.3235  2.9635 -0.7111
  223MOL0     H30060  10.619   9.645   8.078 -1.0019  0.1127  0.3252
  223MOL0     H30061  10.858   9.630   8.033  0.6335  0.6793 -2.8298
  223MOL0     H30062  10.843   9.510   7.909  3.3277  2.6099  0.1546
  223MOL0     H30063  10.746   9.488   8.195  1.8011  2.7305 -0.6721
  223MOL0     H30064  10.892   9.409   8.119  0.3238 -0.4869 -0.3628
  223MOL0     H30065  10.796   9.280   8.323 -1.6379  1.0520 -0.7484
  223MOL0     H30066  10.719   9.079   8.543 -0.1725 -2.6408  1.4203
  223MOL0     H30067  10.865   8.979   8.497  2.0984  1.1326 -0.5459
  223MOL0     H30068  10.879   9.150   8.485  0.1253 -0.9769  1.6697
  223MOL0     H30069  10.437   8.703   8.396 -0.2266  0.5374 -0.5244
  223MOL0     H30070  10.355   8.481   8.488  1.4125 -2.6981  1.2074
  223MOL0     H30071  10.321   8.293   8.590 -1.3033 -3.0419  0.1979
  223MOL0     H30072  10.230   8.296   8.436 -3.0327 -2.7024  1.5870
  223MOL0     H30073  10.170   8.089   8.555 -0.5735 -0.5658 -0.7815
  223MOL0     H30074  10.298   8.050   8.430  0.9923 -0.3963  0.5805
  223MOL0     H30075  10.365   8.110   8.716 -0.3634  0.7655  0.2569
  223MOL0     H30076  10.465   8.033   8.590  1.8887  3.6373  2.5242
  223MOL0     H30077  10.208   7.922   8.718  0.4083  1.4548 -3.3466
  223MOL0     H30078  10.301   7.834   8.609 -2.1663  0.8575  0.0718
  223MOL0     H30079  10.371   7.948   8.886 -1.6329 -1.2890 -0.2287
  223MOL0     H30080  10.502   7.872   8.799 -0.0840 -0.7512  0.4449
  223MOL0     H30081  10.415   7.656   8.795 -0.0351  1.1491 -0.5071
  223MOL0     H30082  10.418   7.717   8.959  1.0191  3.4601  0.3580
  223MOL0     H30083  10.168   7.693   8.788 -0.5871  3.2893  0.4066
  223MOL0     H30084  10.176   7.761   8.954 -1.8378  0.6744 -2.3987
  223MOL0     H30085  10.100   7.505   8.946  0.6212 -1.1420 -1.4059
  223MOL0     H30086  10.229   7.538   9.050 -1.0876  2.3602  1.2878
  223MOL0     H30087  10.639   8.268   8.275 -1.0602  0.4157 -3.7294
  223MOL0     H30088  10.757   8.476   8.210  0.9030 -0.6222  1.6748
  223MOL0     H30089  10.646   8.876   8.088  0.1828 -1.2993  0.5904
  223MOL0     H30090  10.698   9.086   7.959  1.8469 -0.8476  0.4004
  223MOL0     H30091   9.402  10.269   7.723  0.8551 -1.0194  1.3327
  223MOL0     H30092   9.244  10.260   7.555 -0.5683  1.0841  1.9882
  223MOL0     H30093   8.757  10.229   7.632  0.4604  0.9755  0.0039
  223MOL0     H30094   8.583  10.324   7.492  1.8173 -0.7532  2.6495
  223MOL0     H30095   8.469  10.421   7.360 -1.5296 -1.3465  0.3976
  223MOL0     H30096   8.417  10.454   7.202 -1.4609  0.1092 -0.3565
  223MOL0     H30097   8.344  10.211   7.356  3.0804  1.4479 -1.3430
  223MOL0     H30098   8.359  10.192   7.186 -1.4729 -1.7427  0.5569
  223MOL0     H30099   8.191  10.367   7.145 -0.3341 -1.7626 -1.3364
  223MOL0     H30100   8.200  10.414   7.320  0.3544 -1.7324  2.9093
  223MOL0     H30101   8.100  10.188   7.362 -0.6100  2.4761  1.1938
  223MOL0     H30102   8.103  10.165   7.176  5.8609  1.4336 -0.5819
  223MOL0     H30103   7.764  10.402   7.234  0.1883 -0.0629  0.2256
  223MOL0     H30104   8.787  10.175   7.146 -1.1324 -0.6195 -0.1684
  223MOL0     H30105   8.960  10.084   7.282  0.5775  1.6942 -0.5010
  224MOL0     O30106   9.636   5.739   2.983  0.2511 -0.1124 -0.3289
  224MOL0     C30107   9.711   5.768   2.894  0.2835  0.3980  1.0790
  224MOL0     O30108   9.685   5.859   2.800 -0.3446 -0.7185  0.8117
  224MOL0     C30109   9.558   5.918   2.801 -0.5484 -0.9943 -0.7706
  224MOL0     C30110   9.448   5.877   2.733 -0.0204 -0.3348  0.0646
  224MOL0     C30111   9.333   5.957   2.722 -0.7998  0.1527 -0.2178
  224MOL0     C30112   9.331   6.083   2.781 -0.1859 -0.9084 -0.3817
  224MOL0     O30113   9.224   6.170   2.782 -0.0432 -0.3250  0.3322
  224MOL0     C30114   9.106   6.142   2.702  0.3112  0.1536  0.7091
  224MOL0     C30115   9.034   6.278   2.663 -0.5689 -0.1729  0.8595
  224MOL0     C30116   8.981   6.354   2.787 -0.0260 -0.2650 -0.2534
  224MOL0     C30117   8.867   6.279   2.860  0.8237  0.0502 -0.4404
  224MOL0     C30118   8.822   6.364   2.974 -0.0127  0.1581 -0.0782
  224MOL0     C30119   8.713   6.301   3.059  0.2288  0.1308  0.6943
  224MOL0     C30120   8.676   6.380   3.192  0.6196 -0.0573  0.3776
  224MOL0     C30121   8.781   6.401   3.300  0.3956 -0.0084  1.2114
  224MOL0     N30122   8.705   6.428   3.420 -0.3202  0.3480  0.0105
  224MOL0     C30123   8.672   6.550   3.463  0.5032 -0.0287  0.2231
  224MOL0     C30124   8.598   6.521   3.574  0.3460 -0.4445  0.3840
  224MOL0     C30125   8.532   6.625   3.659  0.2770 -0.2195 -0.3866
  224MOL0     C30126   8.527   6.586   3.814 -0.0883 -0.2131  0.0610
  224MOL0     C30127   8.665   6.608   3.877 -0.4619 -0.6226 -0.1934
  224MOL0     C30128   8.666   6.606   4.025  0.3877 -0.2557  1.1809
  224MOL0     O30129   8.650   6.468   4.056 -0.7843 -0.3172 -0.1493
  224MOL0     C30130   8.670   6.427   4.182  0.0000 -0.0697  0.5785
  224MOL0     C30131   8.704   6.510   4.288  0.2291  0.7283  0.7125
  224MOL0     C30132   8.758   6.457   4.405  0.8252  0.0766  0.1561
  224MOL0     C30133   8.831   6.544   4.510  0.9324  0.3967  0.0804
  224MOL0     C30134   8.739   6.314   4.426 -0.3864  0.4742 -0.6396
  224MOL0     C30135   8.794   6.230   4.539  0.0611 -0.2223  0.4054
  224MOL0     O30136   8.751   6.100   4.546 -0.3082 -0.8991 -0.1800
  224MOL0     C30137   8.760   6.032   4.666 -0.0564 -0.6325  0.3199
  224MOL0     C30138   8.852   5.924   4.663  0.2429  0.7638 -0.3609
  224MOL0     C30139   8.860   5.848   4.782 -0.2753  0.3828 -0.2456
  224MOL0     C30140   8.791   5.880   4.905  0.3573  0.0025  0.1539
  224MOL0     O30141   8.802   5.813   5.020 -0.5811 -0.1798 -0.3927
  224MOL0     C30142   8.793   5.666   5.005 -0.0381  0.6073  0.1718
  224MOL0     C30143   8.775   5.614   5.143  0.3171  0.2743 -0.4822
  224MOL0     C30144   8.756   5.469   5.170  0.3793 -0.6467  0.1233
  224MOL0     C30145   8.763   5.448   5.317 -0.3110  0.5659  0.0964
  224MOL0     C30146   8.755   5.296   5.348  0.6593 -0.8240 -0.1635
  224MOL0     C30147   8.608   5.247   5.319  0.9178  0.2932 -0.7240
  224MOL0     C30148   8.577   5.124   5.400  0.6200 -0.9128  1.0177
  224MOL0     C30149   8.440   5.054   5.372  0.0658 -0.5862 -0.8471
  224MOL0    Cl30150   8.460   4.885   5.440 -0.2046 -0.1553  0.0018
  224MOL0     C30151   8.715   5.996   4.904  0.6391 -0.2697 -1.1529
  224MOL0     C30152   8.698   6.068   4.784 -0.6534 -0.3791  0.5143
  224MOL0     O30153   8.874   6.282   4.624  0.6807  0.4049 -0.5723
  224MOL0     C30154   8.693   6.238   4.319  0.3652  0.4519 -0.3912
  224MOL0     C30155   8.661   6.296   4.194  0.3187  0.3431 -0.4576
  224MOL0     N30156   8.573   6.385   3.581  0.6562 -0.3167 -0.6247
  224MOL0     N30157   8.644   6.333   3.492 -0.5306  0.5968  0.2623
  224MOL0     C30158   9.446   6.120   2.855 -0.8957 -0.3151 -0.4649
  224MOL0     C30159   9.547   6.035   2.871 -0.6772 -0.4335 -1.2972
  224MOL0     C30160   9.847   5.701   2.899 -0.1599 -0.1694  0.1114
  224MOL0     C30161   9.883   5.613   3.002  1.1013  0.3074 -1.2703
  224MOL0     C30162  10.009   5.551   3.005 -0.5727  0.9123  0.5793
  224MOL0     C30163  10.102   5.586   2.910  0.1087  0.6618 -0.1755
  224MOL0     O30164  10.220   5.534   2.919 -0.3728  0.7386  0.1956
  224MOL0     C30165  10.322   5.563   2.824  0.2726  0.3576  0.4261
  224MOL0     C30166  10.441   5.465   2.840 -0.0944  0.2741 -0.8655
  224MOL0     C30167  10.403   5.317   2.819 -0.4429  0.2816  0.6575
  224MOL0     C30168  10.519   5.229   2.777  0.4151  0.0531  0.0152
  224MOL0     C30169  10.568   5.257   2.641  0.0273  0.2423 -0.3775
  224MOL0     C30170  10.611   5.299   2.535 -0.3299  0.2586 -0.0716
  224MOL0     C30171  10.071   5.682   2.804 -0.5378 -0.0835 -0.3217
  224MOL0     C30172   9.947   5.733   2.806  0.1825  0.5565  0.4946
  224MOL0     H30173   9.458   5.789   2.672  3.2952  0.3506 -0.5684
  224MOL0     H30174   9.240   5.907   2.696  0.3637 -1.3936 -1.5915
  224MOL0     H30175   9.131   6.101   2.604  2.1840 -1.6175  1.8483
  224MOL0     H30176   9.049   6.065   2.755  3.2872 -1.8009  1.3308
  224MOL0     H30177   9.098   6.342   2.602 -0.9591  0.5441  1.1887
  224MOL0     H30178   8.956   6.249   2.592  0.8298 -0.5840 -0.5554
  224MOL0     H30179   9.070   6.362   2.849 -0.1899 -1.1637  0.1008
  224MOL0     H30180   8.945   6.453   2.756 -0.6240 -0.4588 -0.1915
  224MOL0     H30181   8.780   6.260   2.797  2.5417 -1.9568 -2.3495
  224MOL0     H30182   8.898   6.184   2.904  1.8088  1.1287  1.3443
  224MOL0     H30183   8.904   6.384   3.044 -0.4867 -1.7484  1.0921
  224MOL0     H30184   8.789   6.461   2.937  0.9007 -0.6856 -3.4748
  224MOL0     H30185   8.620   6.296   3.002 -3.1568  1.9774  5.4400
  224MOL0     H30186   8.755   6.206   3.093  0.1934 -0.4740 -0.8551
  224MOL0     H30187   8.649   6.484   3.168  2.0691  0.3015  0.1832
  224MOL0     H30188   8.591   6.327   3.235 -0.0346 -0.1046 -0.9200
  224MOL0     H30189   8.848   6.482   3.269 -0.1605 -0.7183 -2.2459
  224MOL0     H30190   8.824   6.301   3.309  0.5870  0.2412  3.5087
  224MOL0     H30191   8.703   6.646   3.422 -0.8856  2.1095  3.7216
  224MOL0     H30192   8.579   6.720   3.631 -1.3956  0.5865 -0.5960
  224MOL0     H30193   8.428   6.631   3.626  0.6164 -1.1774 -1.6888
  224MOL0     H30194   8.493   6.483   3.828 -3.7043  0.8409  0.0751
  224MOL0     H30195   8.454   6.648   3.867  1.7494  2.6474 -0.5050
  224MOL0     H30196   8.714   6.700   3.844 -1.3190 -0.6803 -1.7423
  224MOL0     H30197   8.732   6.527   3.845 -1.2027 -1.0141 -0.7961
  224MOL0     H30198   8.592   6.673   4.070  0.7157 -0.0067  1.3508
  224MOL0     H30199   8.763   6.641   4.060 -0.0375  2.9639 -0.4896
  224MOL0     H30200   8.723   6.614   4.264  1.0501  0.6166  0.8322
  224MOL0     H30201   8.935   6.511   4.520  0.9769  0.4065 -0.3280
  224MOL0     H30202   8.830   6.651   4.489 -1.2788  0.3732 -0.2542
  224MOL0     H30203   8.781   6.535   4.607 -0.5803 -2.8451 -0.8593
  224MOL0     H30204   8.916   5.889   4.583  0.1100  3.4136 -1.7400
  224MOL0     H30205   8.930   5.765   4.789 -1.3113 -0.3641  2.3152
  224MOL0     H30206   8.704   5.641   4.947 -0.6010  1.8523  0.4656
  224MOL0     H30207   8.877   5.620   4.951  0.0171 -1.7157  2.0400
  224MOL0     H30208   8.862   5.646   5.201  0.2963  0.6128 -0.6376
  224MOL0     H30209   8.688   5.659   5.191 -0.4027 -1.6765  0.1586
  224MOL0     H30210   8.825   5.408   5.111 -0.6345  0.1164 -1.9416
  224MOL0     H30211   8.655   5.438   5.141  0.8368 -1.5702 -0.5109
  224MOL0     H30212   8.862   5.481   5.349 -0.2647  0.3682  0.1587
  224MOL0     H30213   8.684   5.501   5.372 -2.1676 -1.4700 -0.4662
  224MOL0     H30214   8.777   5.260   5.449  1.4644  1.1420  0.3948
  224MOL0     H30215   8.828   5.245   5.284 -1.0299 -1.5243 -1.6146
  224MOL0     H30216   8.548   5.332   5.354  0.1438 -1.0680  1.4967
  224MOL0     H30217   8.590   5.236   5.212  3.1631  1.9192 -1.3501
  224MOL0     H30218   8.569   5.131   5.509 -1.5849 -2.6344  1.0245
  224MOL0     H30219   8.660   5.063   5.361  1.6349  0.8113  0.3551
  224MOL0     H30220   8.414   5.035   5.268 -0.1849 -0.5342 -0.7950
  224MOL0     H30221   8.363   5.111   5.425  0.3217  1.5893 -2.6499
  224MOL0     H30222   8.656   6.005   4.994  2.1439  0.2821 -0.1784
  224MOL0     H30223   8.632   6.154   4.783 -1.3266 -0.8672 -0.8388
  224MOL0     H30224   8.692   6.130   4.318  1.2308  0.4143 -3.0051
  224MOL0     H30225   8.626   6.233   4.112  2.5084 -3.0345  0.9546
  224MOL0     H30226   9.453   6.215   2.907 -0.4031 -0.2947 -0.5714
  224MOL0     H30227   9.634   6.065   2.929 -0.8118 -0.1786 -1.2272
  224MOL0     H30228   9.824   5.590   3.089  1.8575  0.6431 -0.6590
  224MOL0     H30229  10.037   5.475   3.077  2.3231  1.1529 -0.1457
  224MOL0     H30230  10.289   5.554   2.721  2.1067 -2.3657 -0.0343
  224MOL0     H30231  10.361   5.663   2.844 -2.3669  1.5329  0.1126
  224MOL0     H30232  10.481   5.474   2.942 -1.1731  1.1940 -0.5001
  224MOL0     H30233  10.520   5.500   2.774 -2.2181  2.3312 -2.4882
  224MOL0     H30234  10.317   5.304   2.752  1.8465 -2.3326 -2.0117
  224MOL0     H30235  10.358   5.278   2.911 -0.6436  0.4121  0.6173
  224MOL0     H30236  10.467   5.132   2.778  0.8866 -0.2019  0.5016
  224MOL0     H30237  10.602   5.229   2.849 -0.7180  0.5039  1.3789
  224MOL0     H30238  10.657   5.329   2.444 -0.5381 -1.0673 -0.6468
  224MOL0     H30239  10.138   5.727   2.731 -1.3133  0.0728 -0.9572
  224MOL0     H30240   9.906   5.794   2.725 -2.0319 -1.1713  0.2237
  225MOL0     O30241   5.625   5.353   3.064  0.7566  0.1829 -0.7729
  225MOL0     C30242   5.523   5.283   3.074  1.1567 -0.3870  0.6050
  225MOL0     O30243   5.498   5.181   3.165  0.0643 -0.1183  0.1103
  225MOL0     C30244   5.603   5.144   3.243  0.0820 -0.0170 -0.1921
  225MOL0     C30245   5.678   5.042   3.200 -0.3961 -0.3835  0.2150
  225MOL0     C30246   5.779   4.993   3.281 -0.5618  0.8428  0.4944
  225MOL0     C30247   5.805   5.042   3.414  0.3367  0.5129 -0.2417
  225MOL0     O30248   5.887   4.967   3.493 -0.3849  0.2779 -0.2313
  225MOL0     C30249   5.964   5.039   3.596  0.7716 -0.4223 -0.5519
  225MOL0     C30250   6.093   5.093   3.530  0.0093 -0.2531 -0.6426
  225MOL0     C30251   6.200   4.984   3.522 -0.3984 -0.2758 -0.3653
  225MOL0     C30252   6.305   5.015   3.417 -0.0321 -0.6875  0.3199
  225MOL0     C30253   6.422   4.909   3.394  0.4754  0.4365 -0.0195
  225MOL0     C30254   6.377   4.764   3.388 -0.3900  0.3493  0.1783
  225MOL0     C30255   6.268   4.746   3.278  0.2875  0.2009 -0.2438
  225MOL0     C30256   6.239   4.605   3.223 -0.5013  0.1637  0.3466
  225MOL0     N30257   6.128   4.543   3.293 -0.4334 -0.6698 -0.6330
  225MOL0     C30258   6.007   4.542   3.241  0.4776 -0.1960  0.6259
  225MOL0     C30259   5.933   4.449   3.299  0.0828 -0.3557  0.2485
  225MOL0     C30260   5.797   4.395   3.282 -0.5012 -0.5232 -0.3457
  225MOL0     C30261   5.689   4.507   3.287 -0.0903  0.2048 -0.3507
  225MOL0     C30262   5.693   4.620   3.179  0.9825  0.2144  0.3691
  225MOL0     C30263   5.573   4.717   3.175  0.7088  0.0477  0.3248
  225MOL0     O30264   5.445   4.645   3.161 -0.0712 -0.5234  0.1314
  225MOL0     C30265   5.334   4.722   3.158  0.2515  0.1045  0.0899
  225MOL0     C30266   5.225   4.687   3.241 -0.1917  0.3070  0.3136
  225MOL0     C30267   5.107   4.769   3.238  0.6565  0.3519  0.4166
  225MOL0     C30268   5.000   4.743   3.343 -0.5750  0.1929 -0.1359
  225MOL0     C30269   5.085   4.869   3.135 -0.5473 -0.8396 -0.5987
  225MOL0     C30270   4.966   4.956   3.111  0.1760 -0.5933 -0.3241
  225MOL0     O30271   4.986   5.065   3.025 -0.5659  0.5878  0.2930
  225MOL0     C30272   4.888   5.164   3.017 -0.6623 -0.1333  0.3008
  225MOL0     C30273   4.772   5.139   2.941  0.1273 -1.1792 -0.5733
  225MOL0     C30274   4.686   5.250   2.909  0.1173  0.4086  0.7106
  225MOL0     C30275   4.717   5.377   2.952 -0.9682  0.4518 -0.2510
  225MOL0     O30276   4.642   5.480   2.902  0.3303 -0.2774  0.1851
  225MOL0     C30277   4.684   5.618   2.899 -0.4200  0.4517 -0.4554
  225MOL0     C30278   4.578   5.691   2.826 -0.0956  0.4033 -0.2378
  225MOL0     C30279   4.618   5.823   2.780  0.0396 -0.0192 -0.1847
  225MOL0     C30280   4.506   5.904   2.709 -0.1065  0.6150 -0.0474
  225MOL0     C30281   4.539   6.050   2.683  0.1852 -0.4599 -0.2589
  225MOL0     C30282   4.592   6.072   2.547 -0.1380 -0.8540 -0.6615
  225MOL0     C30283   4.648   6.217   2.541 -0.0891 -0.2054  0.2190
  225MOL0     C30284   4.730   6.238   2.410  0.5043 -0.1251 -0.5697
  225MOL0    Cl30285   4.808   6.402   2.432 -0.3707  0.1528  0.0325
  225MOL0     C30286   4.834   5.397   3.028 -0.8625 -0.0853  0.4266
  225MOL0     C30287   4.921   5.294   3.051 -0.0889 -0.6570 -0.1882
  225MOL0     O30288   4.856   4.925   3.159  1.0943  0.3051 -0.0995
  225MOL0     C30289   5.198   4.893   3.056 -0.1807  0.0957 -0.3414
  225MOL0     C30290   5.321   4.828   3.066  0.5876  0.3126  0.3258
  225MOL0     N30291   6.017   4.400   3.390 -0.0491 -0.3447  0.0715
  225MOL0     N30292   6.129   4.462   3.408 -0.3198 -0.4417 -0.0952
  225MOL0     C30293   5.722   5.146   3.456  1.1746 -0.1841 -0.2171
  225MOL0     C30294   5.614   5.185   3.376  0.6185 -0.0096 -0.4961
  225MOL0     C30295   5.417   5.329   2.979 -0.3856  0.0374 -0.0272
  225MOL0     C30296   5.431   5.449   2.906  0.3319  0.6994  0.7710
  225MOL0     C30297   5.334   5.478   2.803 -0.6199 -0.1466 -0.7321
  225MOL0     C30298   5.228   5.391   2.774 -0.2159  0.3953  0.0860
  225MOL0     O30299   5.145   5.430   2.674  0.4790 -0.3338  0.4954
  225MOL0     C30300   5.020   5.372   2.666 -0.4318 -0.4120  0.2327
  225MOL0     C30301   4.931   5.466   2.582 -0.1094  0.1421 -0.7105
  225MOL0     C30302   4.778   5.437   2.582  0.3483 -0.2478  0.0441
  225MOL0     C30303   4.746   5.286   2.542 -0.2673  0.5812  0.0516
  225MOL0     C30304   4.606   5.257   2.540 -0.0816  0.4527 -0.3745
  225MOL0     C30305   4.499   5.214   2.530 -0.3939 -0.4092  0.0333
  225MOL0     C30306   5.214   5.281   2.853  0.2226  1.1774 -0.9051
  225MOL0     C30307   5.307   5.253   2.950  0.3487 -0.1737  0.5382
  225MOL0     H30308   5.660   4.995   3.103 -3.4347  0.2881  0.3592
  225MOL0     H30309   5.833   4.910   3.239 -2.2016  0.8048 -1.7488
  225MOL0     H30310   5.896   5.106   3.650  1.3597 -0.3668  0.1475
  225MOL0     H30311   5.999   4.974   3.677  1.5486 -1.6671 -1.8302
  225MOL0     H30312   6.075   5.132   3.429 -0.0029  2.5911  0.3618
  225MOL0     H30313   6.122   5.181   3.589 -3.2472  0.7924 -0.3990
  225MOL0     H30314   6.251   4.971   3.617  0.7829  1.4779 -0.6994
  225MOL0     H30315   6.151   4.890   3.495  0.5433 -2.1266  3.6682
  225MOL0     H30316   6.256   5.036   3.322  3.0931  3.2631 -0.7224
  225MOL0     H30317   6.348   5.115   3.432 -2.5933  1.1596 -3.3127
  225MOL0     H30318   6.478   4.937   3.303 -0.3837 -0.0171 -0.7038
  225MOL0     H30319   6.488   4.915   3.481 -1.0608 -1.7162  1.3762
  225MOL0     H30320   6.452   4.687   3.368  0.9139  1.9241 -1.2720
  225MOL0     H30321   6.336   4.725   3.482  2.9939  0.9121  2.0472
  225MOL0     H30322   6.168   4.788   3.294  0.2387  1.5798 -3.4470
  225MOL0     H30323   6.312   4.800   3.193 -3.1709 -0.6070 -2.7363
  225MOL0     H30324   6.332   4.548   3.228 -0.0075  0.6526 -1.9271
  225MOL0     H30325   6.216   4.628   3.118  1.5626  1.0498  0.0352
  225MOL0     H30326   5.986   4.591   3.146  0.1223 -2.5479 -0.6057
  225MOL0     H30327   5.776   4.345   3.187  0.2534  3.2439 -2.7228
  225MOL0     H30328   5.782   4.324   3.364 -0.4634  1.8957  1.9002
  225MOL0     H30329   5.690   4.556   3.385  2.0395  2.7035 -1.4896
  225MOL0     H30330   5.592   4.461   3.268 -1.5612  3.3330 -1.0942
  225MOL0     H30331   5.710   4.584   3.077 -0.1610 -1.3806  0.6875
  225MOL0     H30332   5.779   4.683   3.202  0.4559  0.6441  1.2304
  225MOL0     H30333   5.588   4.787   3.092  2.3766 -0.1509  0.4260
  225MOL0     H30334   5.556   4.764   3.273  0.3275 -0.7460  0.6447
  225MOL0     H30335   5.238   4.611   3.318  2.5785  0.8682  0.4927
  225MOL0     H30336   5.033   4.670   3.417  1.2812 -0.2738 -1.3508
  225MOL0     H30337   4.975   4.836   3.395  0.6142 -0.7433  2.2829
  225MOL0     H30338   4.923   4.691   3.286  0.6312 -0.3270 -1.3391
  225MOL0     H30339   4.754   5.037   2.907  0.8072 -2.3651  2.3119
  225MOL0     H30340   4.603   5.238   2.840 -0.0732  2.9228  0.4304
  225MOL0     H30341   4.696   5.659   3.000 -0.3366  2.4127 -1.2093
  225MOL0     H30342   4.779   5.623   2.845 -0.3314  2.3347 -0.1917
  225MOL0     H30343   4.540   5.640   2.737  2.8002  1.2118 -2.0469
  225MOL0     H30344   4.503   5.698   2.906  0.3785  3.2911  0.0399
  225MOL0     H30345   4.687   5.804   2.697 -1.5558 -0.4402 -1.4726
  225MOL0     H30346   4.667   5.875   2.862  1.1415  1.1145 -1.5109
  225MOL0     H30347   4.477   5.849   2.620  1.7136 -0.5575  0.0355
  225MOL0     H30348   4.424   5.886   2.778  0.3561 -0.9747  0.1206
  225MOL0     H30349   4.609   6.079   2.762 -1.5900  1.6675  0.6257
  225MOL0     H30350   4.451   6.109   2.710  2.2645  1.5809  2.5282
  225MOL0     H30351   4.673   6.000   2.537  1.7686  1.0934 -0.0169
  225MOL0     H30352   4.512   6.058   2.474 -1.4713  0.6626  0.4410
  225MOL0     H30353   4.715   6.246   2.622 -1.0053  0.9013  0.6145
  225MOL0     H30354   4.569   6.293   2.531 -1.0713 -1.2021  0.1664
  225MOL0     H30355   4.677   6.236   2.315 -0.5596  0.4938 -0.0153
  225MOL0     H30356   4.818   6.173   2.413  2.5542  2.4258 -0.8045
  225MOL0     H30357   4.850   5.497   3.067 -2.2941 -0.5234  2.2938
  225MOL0     H30358   5.008   5.325   3.109 -1.0544 -1.9201  2.0400
  225MOL0     H30359   5.191   4.965   2.975 -0.3435  0.9304  0.4016
  225MOL0     H30360   5.402   4.848   2.996 -0.4630  1.5734 -0.5709
  225MOL0     H30361   5.724   5.174   3.561 -0.6381 -0.7489  0.0106
  225MOL0     H30362   5.542   5.256   3.413 -0.2553 -0.6519 -0.9230
  225MOL0     H30363   5.510   5.522   2.924  0.0711  0.8559  1.2843
  225MOL0     H30364   5.356   5.569   2.748 -0.5163  1.7394  2.1786
  225MOL0     H30365   5.039   5.271   2.628  3.1873 -0.6945  2.3475
  225MOL0     H30366   4.971   5.354   2.762  2.1883 -3.5443  1.1857
  225MOL0     H30367   4.970   5.484   2.481  3.0888 -3.2790 -0.3312
  225MOL0     H30368   4.936   5.564   2.630 -0.3220 -0.0908 -0.2041
  225MOL0     H30369   4.735   5.506   2.509 -2.7709 -2.9275 -0.8779
  225MOL0     H30370   4.726   5.453   2.676  2.1131 -1.2410  1.2383
  225MOL0     H30371   4.788   5.218   2.617  2.2800  1.4368 -0.4963
  225MOL0     H30372   4.799   5.259   2.450  3.1342  0.1229  1.9982
  225MOL0     H30373   4.403   5.168   2.518 -1.4487  0.1262  4.3599
  225MOL0     H30374   5.138   5.206   2.833  3.2101 -2.1676 -0.7866
  225MOL0     H30375   5.304   5.155   2.997  1.9580  0.2927  1.7073
  226MOL0     O30376   5.771  11.259   6.471 -0.0525  0.3996  0.5082
  226MOL0     C30377   5.876  11.247   6.537  0.6529  0.7570 -0.3492
  226MOL0     O30378   5.943  11.345   6.599 -0.5152  0.2186 -0.7142
  226MOL0     C30379   5.923  11.472   6.559  0.0783  0.3240  0.0368
  226MOL0     C30380   5.836  11.562   6.626  0.2121  0.5157  0.0923
  226MOL0     C30381   5.840  11.700   6.595 -0.1057  0.5446  0.2173
  226MOL0     C30382   5.928  11.751   6.500 -0.0396  0.8073  0.3503
  226MOL0     O30383   5.949  11.881   6.459  0.0117  0.0751 -0.3310
  226MOL0     C30384   5.878  11.994   6.517 -0.8473  0.0235  0.0875
  226MOL0     C30385   5.768  12.043   6.421 -0.2317 -0.0458 -1.0308
  226MOL0     C30386   5.642  11.953   6.442  0.3198 -0.7292 -0.0020
  226MOL0     C30387   5.516  12.011   6.372 -0.3570  0.2961  1.1963
  226MOL0     C30388   5.393  11.930   6.375 -0.9709  0.4561  0.0046
  226MOL0     C30389   5.284  12.002   6.300  0.2525  0.2000 -1.7581
  226MOL0     C30390   5.150  11.951   6.336 -0.4728 -0.3762 -0.3454
  226MOL0     C30391   5.105  12.006   6.473  0.3884 -0.5500 -0.4617
  226MOL0     N30392   4.992  11.931   6.531 -0.7424 -0.0350 -0.5447
  226MOL0     C30393   4.875  11.991   6.555 -0.1280  0.3510 -1.1160
  226MOL0     C30394   4.800  11.888   6.601 -0.0142  0.5292 -0.2429
  226MOL0     C30395   4.659  11.888   6.639  0.0860 -0.1677 -0.4412
  226MOL0     C30396   4.585  11.764   6.597 -0.5634 -0.8244 -0.8133
  226MOL0     C30397   4.625  11.708   6.462 -0.7329 -0.4956  0.1920
  226MOL0     C30398   4.538  11.591   6.406  0.1217 -0.2626  0.1046
  226MOL0     O30399   4.596  11.530   6.287  0.7334 -0.1262 -0.2251
  226MOL0     C30400   4.531  11.414   6.239  0.1422  0.1617 -0.9732
  226MOL0     C30401   4.592  11.345   6.134  0.1330 -0.5318 -0.6124
  226MOL0     C30402   4.535  11.243   6.054  0.5194 -0.3526 -0.3037
  226MOL0     C30403   4.605  11.168   5.940 -0.7289  0.3567  0.1096
  226MOL0     C30404   4.408  11.201   6.101  0.4328  0.3178 -0.4239
  226MOL0     C30405   4.333  11.086   6.044  0.2014 -0.2239  0.4418
  226MOL0     O30406   4.200  11.107   6.043  0.1174  0.0167 -0.5784
  226MOL0     C30407   4.110  11.007   6.003 -0.0213 -0.4265 -0.4666
  226MOL0     C30408   4.006  10.979   6.090  0.0238  0.4868 -0.0382
  226MOL0     C30409   3.925  10.875   6.052  0.9570  0.3387  0.9003
  226MOL0     C30410   3.935  10.819   5.932  1.7320  0.2787  0.0112
  226MOL0     O30411   3.824  10.747   5.899  0.1328 -0.0865 -0.3346
  226MOL0     C30412   3.841  10.640   5.810 -0.0635  0.6024 -0.3658
  226MOL0     C30413   3.712  10.563   5.825  0.3798 -0.8096  0.2755
  226MOL0     C30414   3.697  10.468   5.938 -0.3292 -0.2187  0.0235
  226MOL0     C30415   3.570  10.382   5.930 -0.8953 -0.3440  0.2018
  226MOL0     C30416   3.539  10.291   6.049  0.5257  0.0727  0.0208
  226MOL0     C30417   3.427  10.190   6.027 -0.0337 -0.0165 -0.5216
  226MOL0     C30418   3.417  10.087   6.137 -0.1554  0.8950  1.2858
  226MOL0     C30419   3.380  10.150   6.272 -0.6900  1.2285 -0.5744
  226MOL0    Cl30420   3.199  10.132   6.296 -0.2305  0.4593  0.3040
  226MOL0     C30421   4.029  10.850   5.841 -0.1796  0.1584 -0.5074
  226MOL0     C30422   4.125  10.939   5.882  1.0248  0.1866 -0.0050
  226MOL0     O30423   4.385  10.985   6.014 -0.4812 -0.0721  0.1338
  226MOL0     C30424   4.350  11.258   6.215 -0.5465 -0.4222 -0.0001
  226MOL0     C30425   4.404  11.370   6.283  0.2740 -0.4647 -0.6624
  226MOL0     N30426   4.883  11.774   6.624  0.0929  0.2072  0.2468
  226MOL0     N30427   4.996  11.800   6.572  0.1117  0.1078 -0.1666
  226MOL0     C30428   5.993  11.649   6.426 -0.3775 -0.2603  0.5827
  226MOL0     C30429   5.997  11.514   6.455  0.2449 -0.4161  0.2616
  226MOL0     C30430   5.939  11.110   6.546  0.6971 -0.0749  1.0428
  226MOL0     C30431   6.066  11.093   6.602 -0.0131 -0.1525 -0.1482
  226MOL0     C30432   6.124  10.965   6.608 -0.0310 -0.2700 -0.1090
  226MOL0     C30433   6.048  10.855   6.565 -0.5660 -0.0609 -0.1235
  226MOL0     O30434   6.110  10.739   6.566 -0.1175  1.0371  0.1612
  226MOL0     C30435   6.049  10.616   6.509 -0.2729 -0.1875  0.4799
  226MOL0     C30436   6.042  10.638   6.362  0.3887 -0.4086  0.4572
  226MOL0     C30437   6.055  10.511   6.273 -0.0297 -0.1075 -0.1599
  226MOL0     C30438   5.942  10.410   6.272 -0.6331 -0.2477 -0.2251
  226MOL0     C30439   5.922  10.361   6.414  0.8145 -0.2635 -0.1342
  226MOL0     C30440   5.923  10.324   6.539 -0.0201 -0.5913  0.8878
  226MOL0     C30441   5.909  10.869   6.533  0.2453  0.2086  0.2786
  226MOL0     C30442   5.858  10.995   6.526  0.0458  0.8144  0.0742
  226MOL0     H30443   5.762  11.528   6.698 -1.3662  0.7304 -1.3450
  226MOL0     H30444   5.778  11.768   6.653  1.3669  2.1628 -0.0270
  226MOL0     H30445   5.846  11.970   6.618 -2.2918  0.3605 -0.2766
  226MOL0     H30446   5.957  12.071   6.520  0.5880 -1.3592 -0.6016
  226MOL0     H30447   5.756  12.144   6.462  1.8653 -0.1296 -0.0810
  226MOL0     H30448   5.803  12.050   6.317  2.4716 -0.3181 -0.2367
  226MOL0     H30449   5.672  11.855   6.403  0.5752 -0.7869  0.3349
  226MOL0     H30450   5.625  11.945   6.550 -1.3752 -0.2683 -0.2119
  226MOL0     H30451   5.499  12.103   6.427  0.6532  2.0085 -1.1799
  226MOL0     H30452   5.542  12.034   6.268  1.8556 -1.1593  1.3470
  226MOL0     H30453   5.391  11.832   6.325 -0.7654  2.0568 -3.4346
  226MOL0     H30454   5.364  11.913   6.479  0.0787  0.8544  0.3843
  226MOL0     H30455   5.278  12.108   6.328  2.4827 -0.7706  3.3708
  226MOL0     H30456   5.286  11.979   6.193  2.3451  1.5743 -2.0751
  226MOL0     H30457   5.077  11.988   6.263 -0.8054  0.4525  0.3763
  226MOL0     H30458   5.147  11.842   6.330  1.8054 -0.4750 -0.2456
  226MOL0     H30459   5.071  12.108   6.455 -0.1649 -0.8588 -1.2514
  226MOL0     H30460   5.190  12.003   6.542  0.2075  2.9649  0.0723
  226MOL0     H30461   4.839  12.092   6.540 -2.1883  0.1153  1.4177
  226MOL0     H30462   4.666  11.901   6.748  1.9548  0.6243 -0.6131
  226MOL0     H30463   4.602  11.977   6.612  0.3061  1.2064  3.0697
  226MOL0     H30464   4.476  11.760   6.607 -0.5030 -0.5693 -0.0125
  226MOL0     H30465   4.612  11.692   6.675  1.0429  0.0640 -0.5016
  226MOL0     H30466   4.729  11.675   6.453 -0.9921 -0.9024 -2.0247
  226MOL0     H30467   4.628  11.793   6.392 -2.1178 -1.1172 -0.6616
  226MOL0     H30468   4.445  11.632   6.366  1.6434  1.6641 -1.7011
  226MOL0     H30469   4.501  11.522   6.482 -0.7181  0.1411  0.0733
  226MOL0     H30470   4.693  11.373   6.105  0.8475 -0.8050  1.4499
  226MOL0     H30471   4.676  11.241   5.900  3.0438  0.3867  5.8270
  226MOL0     H30472   4.659  11.080   5.975 -1.4001 -1.1595 -2.4501
  226MOL0     H30473   4.541  11.132   5.859  1.2623 -3.1725 -0.0866
  226MOL0     H30474   4.014  11.019   6.190 -0.9431 -0.1578  0.3179
  226MOL0     H30475   3.864  10.823   6.126  0.9396 -0.1960  0.5202
  226MOL0     H30476   3.848  10.698   5.718  0.5158  2.6315  0.8830
  226MOL0     H30477   3.934  10.587   5.835 -1.1854  0.2090  3.6344
  226MOL0     H30478   3.632  10.637   5.821  0.5099 -0.5668  1.6524
  226MOL0     H30479   3.703  10.504   5.734 -2.8823  1.2245 -0.8614
  226MOL0     H30480   3.691  10.535   6.024  0.4887 -1.2897  0.9513
  226MOL0     H30481   3.786  10.404   5.943 -2.2736 -3.1048  0.3207
  226MOL0     H30482   3.488  10.453   5.917  0.4563  2.0603  3.5169
  226MOL0     H30483   3.573  10.315   5.843  0.5246 -0.1571  0.0881
  226MOL0     H30484   3.513  10.355   6.134 -3.8079 -1.0463 -0.2289
  226MOL0     H30485   3.620  10.222   6.075  0.0334 -0.8595 -0.8616
  226MOL0     H30486   3.327  10.233   6.024 -1.1889 -2.0425  3.0134
  226MOL0     H30487   3.453  10.129   5.941 -2.1435 -0.5257 -0.8498
  226MOL0     H30488   3.518  10.047   6.149 -0.3862 -0.3923 -0.6616
  226MOL0     H30489   3.352  10.008   6.099 -0.8093  0.8854  2.3823
  226MOL0     H30490   3.413  10.254   6.275 -0.9721  1.3913 -2.0736
  226MOL0     H30491   3.431  10.098   6.353 -0.2116  1.6589 -0.5993
  226MOL0     H30492   4.022  10.816   5.739 -2.2631 -0.3870 -0.2320
  226MOL0     H30493   4.206  10.959   5.812 -1.8747  1.8424 -3.2040
  226MOL0     H30494   4.260  11.231   6.269 -0.4176  1.8037  1.4510
  226MOL0     H30495   4.338  11.408   6.360  0.2462 -0.7009 -0.5667
  226MOL0     H30496   6.059  11.678   6.345  1.8224 -1.7495  1.7262
  226MOL0     H30497   6.059  11.442   6.403 -0.5999  0.3789 -1.9951
  226MOL0     H30498   6.128  11.180   6.623  0.4298 -0.6459  0.6141
  226MOL0     H30499   6.229  10.951   6.633  0.4137 -0.4235 -1.9046
  226MOL0     H30500   6.127  10.542   6.530  0.4890  0.7819  1.2094
  226MOL0     H30501   5.955  10.589   6.558 -0.5877 -1.5255 -0.7999
  226MOL0     H30502   6.129  10.700   6.339 -0.0613  1.0433  2.3770
  226MOL0     H30503   5.949  10.689   6.337  0.5033  0.1730  1.1973
  226MOL0     H30504   6.141  10.445   6.288  0.8477  0.7576 -1.1457
  226MOL0     H30505   6.061  10.552   6.171  2.5909 -0.4598 -0.2218
  226MOL0     H30506   5.949  10.323   6.207 -0.1172 -0.4809  0.1273
  226MOL0     H30507   5.863  10.470   6.227 -0.1096  1.4687  1.0441
  226MOL0     H30508   5.918  10.291   6.641  2.9760 -2.4167  0.5619
  226MOL0     H30509   5.835  10.793   6.509 -2.5459  3.0931 -0.8777
  226MOL0     H30510   5.752  10.998   6.506  0.2337 -2.2037 -2.0797
  227MOL0     O30511   8.117   9.136   0.294 -0.3768 -0.3465  0.1496
  227MOL0     C30512   8.221   9.114   0.225  0.3332 -0.3430 -0.8486
  227MOL0     O30513   8.230   9.031   0.119  0.0258 -0.4874  0.5057
  227MOL0     C30514   8.114   8.963   0.081 -0.1203 -0.0936 -0.6572
  227MOL0     C30515   8.132   8.824   0.067 -0.3626  0.7513 -0.1446
  227MOL0     C30516   8.029   8.746   0.020  0.8313  0.3774 -0.3981
  227MOL0     C30517   7.905   8.810  -0.016  0.0961 -0.0833 -0.2666
  227MOL0     O30518   7.797   8.737  -0.065 -1.1213  0.4690  0.9340
  227MOL0     C30519   7.818   8.697  -0.196  0.7409 -0.9144  0.5486
  227MOL0     C30520   7.684   8.699  -0.264  0.3478  0.1375 -0.0943
  227MOL0     C30521   7.600   8.583  -0.231  0.5159 -0.0636 -0.6240
  227MOL0     C30522   7.474   8.559  -0.317  0.5790  0.1400 -0.0925
  227MOL0     C30523   7.412   8.418  -0.285  0.4795 -0.4385 -0.1272
  227MOL0     C30524   7.277   8.403  -0.358  0.4777 -0.0337  0.2079
  227MOL0     C30525   7.155   8.483  -0.310  0.8674  0.0010  0.7966
  227MOL0     C30526   7.051   8.513  -0.426  0.3736 -0.4701  1.0118
  227MOL0     N30527   6.984   8.393  -0.483  0.3603  0.0281  0.5222
  227MOL0     C30528   6.885   8.313  -0.423  0.2653 -0.6821  0.2986
  227MOL0     C30529   6.852   8.213  -0.511 -0.5041 -0.3761 -0.6535
  227MOL0     C30530   6.755   8.105  -0.488 -0.4534 -0.1877 -0.2306
  227MOL0     C30531   6.633   8.103  -0.582 -0.2296  0.0198  1.3984
  227MOL0     C30532   6.661   8.152  -0.740  0.3888 -0.3099  0.1526
  227MOL0     C30533   6.543   8.147  -0.834  0.5979  0.0008  0.1118
  227MOL0     O30534   6.418   8.166  -0.769 -0.2062  0.6875 -0.7382
  227MOL0     C30535   6.300   8.186  -0.842  0.0807 -0.3340 -0.3633
  227MOL0     C30536   6.174   8.221  -0.780  0.1719  0.8971  0.2135
  227MOL0     C30537   6.057   8.238  -0.845  0.0475 -0.2960  0.1713
  227MOL0     C30538   5.933   8.267  -0.762 -0.4222  0.4041  0.2871
  227MOL0     C30539   6.051   8.220  -0.990  0.3905  0.6179 -0.4255
  227MOL0     C30540   5.938   8.244  -1.080  0.5012 -0.3278 -0.1864
  227MOL0     O30541   5.918   8.139  -1.170 -0.1655  0.1687  0.2440
  227MOL0     C30542   5.814   8.152  -1.254  0.6507  1.0883  0.1804
  227MOL0     C30543   5.684   8.144  -1.214 -0.1693  0.9823 -0.3278
  227MOL0     C30544   5.576   8.155  -1.294  0.1035 -0.3383 -0.3202
  227MOL0     C30545   5.594   8.196  -1.426  0.2885  0.0099  0.3389
  227MOL0     O30546   5.473   8.216  -1.501  0.3664 -0.2170 -0.2591
  227MOL0     C30547   5.468   8.223  -1.645  0.4442 -0.1236 -0.1796
  227MOL0     C30548   5.500   8.374  -1.682 -0.3844  0.6363 -0.0164
  227MOL0     C30549   5.559   8.383  -1.823 -0.3812  0.1084  0.6875
  227MOL0     C30550   5.462   8.342  -1.938 -0.6567 -0.0628 -0.8707
  227MOL0     C30551   5.502   8.367  -2.082  0.8355 -0.5838 -0.6538
  227MOL0     C30552   5.379   8.370  -2.177  0.9120  0.8746  0.2300
  227MOL0     C30553   5.418   8.454  -2.300  0.1666  0.8573 -0.2867
  227MOL0     C30554   5.398   8.606  -2.271  1.0662  0.3811  0.9573
  227MOL0    Cl30555   5.426   8.708  -2.416 -0.2041  0.1365 -0.4054
  227MOL0     C30556   5.728   8.205  -1.472 -0.6166  0.1778  0.4035
  227MOL0     C30557   5.834   8.183  -1.385 -0.7796  0.4357 -0.2514
  227MOL0     O30558   5.850   8.331  -1.055  0.1632  0.8928  1.5984
  227MOL0     C30559   6.174   8.173  -1.052 -0.8252 -0.2661 -0.1604
  227MOL0     C30560   6.285   8.159  -0.973 -0.3452  1.2909  0.1033
  227MOL0     N30561   6.927   8.226  -0.619 -0.1442  0.1736  0.3074
  227MOL0     N30562   7.000   8.342  -0.607 -0.5234 -0.2516 -0.8989
  227MOL0     C30563   7.889   8.947  -0.007  0.0779 -0.9154 -0.0633
  227MOL0     C30564   7.991   9.021   0.044  0.4718  0.8809 -0.3420
  227MOL0     C30565   8.348   9.199   0.251  0.8284 -0.2223 -0.0476
  227MOL0     C30566   8.460   9.184   0.175 -0.0856 -0.2519  0.2755
  227MOL0     C30567   8.576   9.268   0.189  0.4943 -0.8906 -0.7254
  227MOL0     C30568   8.588   9.359   0.289 -0.6184 -0.4706  0.2547
  227MOL0     O30569   8.711   9.418   0.307  0.4865 -0.3438 -0.2031
  227MOL0     C30570   8.727   9.513   0.413 -0.0083  0.2033 -0.6809
  227MOL0     C30571   8.872   9.555   0.428  0.1601 -0.6970 -0.1113
  227MOL0     C30572   8.970   9.438   0.439 -0.1097 -0.9742  0.5123
  227MOL0     C30573   8.948   9.357   0.566 -0.2066 -1.0461 -0.0024
  227MOL0     C30574   8.951   9.437   0.691  0.0652  0.2428 -0.3763
  227MOL0     C30575   8.959   9.516   0.785 -0.4316  0.1397 -0.1662
  227MOL0     C30576   8.481   9.376   0.373  0.7127  0.6232  0.5751
  227MOL0     C30577   8.358   9.295   0.351 -0.7972  0.0731 -0.0014
  227MOL0     H30578   8.226   8.778   0.096 -0.6149  0.7015  0.6080
  227MOL0     H30579   8.039   8.639   0.005  0.3770  0.4043 -0.9472
  227MOL0     H30580   7.886   8.756  -0.258 -1.2007 -0.9307 -1.7563
  227MOL0     H30581   7.856   8.596  -0.184  1.9678 -0.4847  0.4663
  227MOL0     H30582   7.625   8.788  -0.241 -0.0913 -0.2391  0.2589
  227MOL0     H30583   7.710   8.690  -0.369  0.7043  0.2383 -0.0158
  227MOL0     H30584   7.653   8.487  -0.239 -0.9552 -1.1082  1.3244
  227MOL0     H30585   7.565   8.586  -0.127 -1.6691  4.2343 -1.2489
  227MOL0     H30586   7.392   8.629  -0.299 -0.6180 -1.1233 -0.4961
  227MOL0     H30587   7.509   8.563  -0.421  4.4577  0.6683  1.0540
  227MOL0     H30588   7.479   8.337  -0.315  0.4975  0.0965 -1.6095
  227MOL0     H30589   7.396   8.407  -0.177 -1.0674 -1.3959 -0.4211
  227MOL0     H30590   7.299   8.407  -0.465  1.0629 -0.0021  0.3292
  227MOL0     H30591   7.261   8.295  -0.355  1.5745 -0.2522 -0.9599
  227MOL0     H30592   7.092   8.434  -0.235  2.2312 -2.3369  0.5054
  227MOL0     H30593   7.197   8.578  -0.274  0.9301 -0.1473  1.1135
  227MOL0     H30594   7.105   8.562  -0.508 -0.7865 -2.0679 -0.7810
  227MOL0     H30595   6.967   8.574  -0.391  0.0704  1.8795 -3.1168
  227MOL0     H30596   6.830   8.320  -0.330 -0.5851 -2.1308 -0.0655
  227MOL0     H30597   6.814   8.013  -0.494  1.2180  0.7039  1.3793
  227MOL0     H30598   6.721   8.101  -0.384  1.3952  3.6604  0.7110
  227MOL0     H30599   6.550   8.164  -0.545 -0.0530 -0.3375  2.4076
  227MOL0     H30600   6.596   8.001  -0.571  1.1862 -0.8227 -0.8767
  227MOL0     H30601   6.730   8.078  -0.782  0.0385 -1.2425  1.1753
  227MOL0     H30602   6.695   8.255  -0.754 -1.6250  0.4691  0.6032
  227MOL0     H30603   6.553   8.051  -0.884  1.6735  0.4925 -0.6505
  227MOL0     H30604   6.554   8.234  -0.899  1.5693 -0.3492 -0.2131
  227MOL0     H30605   6.175   8.216  -0.671 -1.0588  1.2724  0.2600
  227MOL0     H30606   5.932   8.213  -0.667 -0.3465  2.6506  1.6250
  227MOL0     H30607   5.922   8.373  -0.740 -2.6796  1.0019 -2.9619
  227MOL0     H30608   5.849   8.234  -0.824 -0.1250 -0.5622  0.3842
  227MOL0     H30609   5.670   8.130  -1.107 -0.1912  0.1001 -0.4334
  227MOL0     H30610   5.478   8.145  -1.249 -0.3697  0.9337 -1.0257
  227MOL0     H30611   5.526   8.153  -1.705 -0.3899 -1.4389  0.5218
  227MOL0     H30612   5.369   8.199  -1.684  0.7017 -0.3725 -0.6768
  227MOL0     H30613   5.408   8.433  -1.678 -1.1622 -0.5479  0.0894
  227MOL0     H30614   5.567   8.418  -1.607  0.8094 -0.6785 -0.2636
  227MOL0     H30615   5.648   8.320  -1.828  0.7532  1.7102 -0.7406
  227MOL0     H30616   5.582   8.487  -1.850 -2.4049  0.2387 -0.7622
  227MOL0     H30617   5.439   8.236  -1.927 -1.9185  0.0907 -1.7832
  227MOL0     H30618   5.364   8.389  -1.926 -0.7872 -0.1893 -1.4024
  227MOL0     H30619   5.571   8.289  -2.117  0.7333 -0.5164 -1.0118
  227MOL0     H30620   5.555   8.462  -2.084  0.5103 -0.3218  1.1731
  227MOL0     H30621   5.356   8.268  -2.208 -1.4211  1.7914 -1.3069
  227MOL0     H30622   5.291   8.417  -2.132 -1.2827 -3.0292  0.4875
  227MOL0     H30623   5.352   8.417  -2.379 -0.9331  2.5235 -0.2065
  227MOL0     H30624   5.521   8.439  -2.334  0.4186  1.3916  0.2237
  227MOL0     H30625   5.465   8.636  -2.191  1.1073  0.7061  0.8008
  227MOL0     H30626   5.294   8.612  -2.237  0.3163  1.6273 -1.3452
  227MOL0     H30627   5.743   8.242  -1.573  0.9352 -1.2937  0.0343
  227MOL0     H30628   5.933   8.201  -1.425 -1.0167 -0.8432 -1.4964
  227MOL0     H30629   6.188   8.162  -1.159 -1.0379  0.6040 -0.2868
  227MOL0     H30630   6.372   8.143  -1.036 -0.2952 -1.0491  0.6628
  227MOL0     H30631   7.800   8.995  -0.047  1.3043  1.3141 -0.2482
  227MOL0     H30632   7.976   9.128   0.042  0.4358  0.9314  1.0625
  227MOL0     H30633   8.461   9.115   0.091  0.7422  1.8200 -1.5450
  227MOL0     H30634   8.658   9.237   0.124  2.5813 -0.5695  1.6285
  227MOL0     H30635   8.662   9.599   0.399 -1.3515 -1.1271 -3.4505
  227MOL0     H30636   8.691   9.472   0.508 -0.6882 -0.1235 -1.0718
  227MOL0     H30637   8.876   9.627   0.509 -0.2119 -0.3211 -0.4243
  227MOL0     H30638   8.899   9.618   0.344 -0.5547  2.3237  1.7886
  227MOL0     H30639   9.071   9.479   0.435  0.3383 -2.1759 -1.9673
  227MOL0     H30640   8.966   9.378   0.348  2.9401  0.2780 -0.5525
  227MOL0     H30641   9.027   9.284   0.582  0.7167  0.4640  3.3152
  227MOL0     H30642   8.850   9.309   0.558 -1.6524  1.1120  2.8634
  227MOL0     H30643   8.962   9.584   0.868  3.5686 -0.2305  0.1951
  227MOL0     H30644   8.489   9.443   0.458  1.8302 -0.2498  1.1829
  227MOL0     H30645   8.282   9.299   0.429  0.7633  0.6468  1.5560
  228MOL0     O30646   3.384   3.981   5.537 -0.4430  0.7024 -0.1127
  228MOL0     C30647   3.474   3.968   5.452 -0.3847 -0.7480 -0.5945
  228MOL0     O30648   3.449   3.952   5.319  0.1461  0.7886  0.5249
  228MOL0     C30649   3.314   3.954   5.274  0.5144 -0.9561  0.4918
  228MOL0     C30650   3.262   4.077   5.238 -0.0467 -0.5480 -0.3653
  228MOL0     C30651   3.135   4.087   5.195  0.7176 -0.4579  0.7076
  228MOL0     C30652   3.052   3.972   5.172  0.4515  0.3580 -0.1919
  228MOL0     O30653   2.948   3.964   5.082 -0.2696  0.3415  0.2946
  228MOL0     C30654   2.880   4.082   5.048 -1.2749 -0.3052 -0.0648
  228MOL0     C30655   2.740   4.064   4.994 -0.8923  0.1223 -0.2618
  228MOL0     C30656   2.666   3.956   5.068  0.3283 -1.3623  0.7166
  228MOL0     C30657   2.714   3.819   5.012  0.1754  1.3330 -0.1844
  228MOL0     C30658   2.594   3.730   4.972  0.0322 -0.3861  0.1281
  228MOL0     C30659   2.649   3.580   4.951 -0.1987 -0.3694 -0.1202
  228MOL0     C30660   2.548   3.469   4.987  0.7983 -0.7773  0.6201
  228MOL0     C30661   2.444   3.456   4.870 -0.6772 -0.1487 -0.9864
  228MOL0     N30662   2.318   3.496   4.922  0.3136 -1.2194 -0.4463
  228MOL0     C30663   2.240   3.424   5.007  1.2490  0.3594 -0.2095
  228MOL0     C30664   2.132   3.512   5.032 -0.7756 -0.0899  0.9864
  228MOL0     C30665   2.003   3.493   5.107  0.2743  0.2953 -0.7038
  228MOL0     C30666   1.895   3.418   5.036 -0.2919 -0.4685 -0.1637
  228MOL0     C30667   1.834   3.499   4.922  0.5291 -0.6902 -0.7192
  228MOL0     C30668   1.693   3.448   4.882  0.3251  0.6558  0.1270
  228MOL0     O30669   1.692   3.301   4.854  0.2007 -0.4702  0.2753
  228MOL0     C30670   1.573   3.239   4.816 -0.8422 -0.1513  0.8980
  228MOL0     C30671   1.442   3.297   4.814 -0.1869 -0.2695  0.6921
  228MOL0     C30672   1.334   3.218   4.778  0.7144  0.6495 -0.2492
  228MOL0     C30673   1.206   3.279   4.816 -0.4402  0.4122  0.1992
  228MOL0     C30674   1.354   3.081   4.738 -0.1851  0.5539 -0.8211
  228MOL0     C30675   1.250   2.978   4.708 -1.1931 -0.0794  0.1512
  228MOL0     O30676   1.289   2.867   4.638 -0.5638  0.8816 -0.3318
  228MOL0     C30677   1.197   2.766   4.607 -0.4894 -0.2902  0.5250
  228MOL0     C30678   1.058   2.760   4.622 -0.1162  1.1393  0.1604
  228MOL0     C30679   0.991   2.661   4.574  0.1345 -0.8345  0.4185
  228MOL0     C30680   1.045   2.551   4.507 -0.4038 -0.3511 -0.0353
  228MOL0     O30681   0.976   2.449   4.450  0.6144 -0.2604 -0.4210
  228MOL0     C30682   0.840   2.437   4.451 -0.3010  0.5187 -0.3742
  228MOL0     C30683   0.787   2.303   4.377  0.9296 -0.9216 -0.0622
  228MOL0     C30684   0.877   2.272   4.264  0.5789  0.1840  0.0218
  228MOL0     C30685   0.842   2.127   4.212  0.2128  0.2078  0.7496
  228MOL0     C30686   0.933   2.071   4.103 -0.0179  0.1977 -0.0271
  228MOL0     C30687   1.076   2.023   4.144 -0.0803  0.4977  0.4320
  228MOL0     C30688   1.164   1.993   4.012  0.5751  0.7391 -0.2287
  228MOL0     C30689   1.233   2.111   3.941 -0.7541  0.4506 -0.6455
  228MOL0    Cl30690   1.329   2.031   3.801  0.0034 -0.2235 -0.3963
  228MOL0     C30691   1.190   2.550   4.482  0.3807  0.5752 -0.4450
  228MOL0     C30692   1.257   2.656   4.539  0.3456 -0.1341 -0.0997
  228MOL0     O30693   1.155   2.980   4.782 -0.6665 -0.0690 -0.4685
  228MOL0     C30694   1.479   3.031   4.733  0.7349 -0.1641 -0.3655
  228MOL0     C30695   1.589   3.106   4.780  0.0308  0.5752 -0.4984
  228MOL0     N30696   2.160   3.634   4.970 -0.2254  0.5748  0.2412
  228MOL0     N30697   2.267   3.616   4.899  0.5793  0.1273  0.7842
  228MOL0     C30698   3.103   3.851   5.209  0.9135  0.8834 -0.3302
  228MOL0     C30699   3.231   3.837   5.263 -0.0808  0.4725  0.0387
  228MOL0     C30700   3.615   3.951   5.500  0.0346 -0.4181  0.0605
  228MOL0     C30701   3.660   3.945   5.632  0.7179 -0.8428  0.9180
  228MOL0     C30702   3.797   3.932   5.658  0.6807 -0.5860 -0.3294
  228MOL0     C30703   3.899   3.909   5.561  0.5858  0.6820  0.2107
  228MOL0     O30704   4.030   3.885   5.583 -0.4394 -0.6068  0.4380
  228MOL0     C30705   4.088   3.874   5.708  0.8841  0.0523 -0.2341
  228MOL0     C30706   4.089   4.020   5.782 -0.2709  1.0907  0.0954
  228MOL0     C30707   4.191   4.121   5.708 -0.6602  0.1366  0.1044
  228MOL0     C30708   4.208   4.258   5.769 -0.3708 -0.1127 -0.0463
  228MOL0     C30709   4.220   4.254   5.916 -0.3297 -0.4707  0.2687
  228MOL0     C30710   4.221   4.234   6.035 -0.1125 -0.7238 -0.0050
  228MOL0     C30711   3.856   3.912   5.429  0.3059  1.1696 -0.0205
  228MOL0     C30712   3.723   3.936   5.396  0.7707  0.0572  0.3025
  228MOL0     H30713   3.326   4.164   5.235 -1.0818  0.2168 -1.8908
  228MOL0     H30714   3.101   4.185   5.162  2.0114 -0.2057  0.0828
  228MOL0     H30715   2.870   4.147   5.136  0.4232 -1.2997  0.9207
  228MOL0     H30716   2.939   4.134   4.972 -0.0365 -0.4352  0.7759
  228MOL0     H30717   2.689   4.159   5.014 -0.6571 -0.0297  1.1659
  228MOL0     H30718   2.715   4.047   4.889  0.1860 -0.0168 -0.5041
  228MOL0     H30719   2.677   3.963   5.177  0.9325 -0.8670  0.6344
  228MOL0     H30720   2.560   3.973   5.049  1.0549  0.5658 -2.3141
  228MOL0     H30721   2.773   3.828   4.921  1.4980 -2.8092  0.0501
  228MOL0     H30722   2.774   3.774   5.092 -0.2919  1.5337  0.2916
  228MOL0     H30723   2.526   3.734   5.058 -0.8985 -1.5482 -0.5234
  228MOL0     H30724   2.539   3.762   4.883  1.0123 -0.8825 -0.6722
  228MOL0     H30725   2.694   3.570   4.852 -3.0851  2.1442 -1.8626
  228MOL0     H30726   2.724   3.566   5.030 -1.1655 -3.2262  0.4452
  228MOL0     H30727   2.605   3.376   4.998 -0.6372 -1.4838  2.7860
  228MOL0     H30728   2.507   3.486   5.087 -1.1903  3.9884 -0.7593
  228MOL0     H30729   2.446   3.352   4.839 -1.0281 -1.0529  1.7761
  228MOL0     H30730   2.472   3.514   4.781 -1.1884 -0.3466 -1.2814
  228MOL0     H30731   2.268   3.325   5.042 -0.9641 -0.5302 -0.8201
  228MOL0     H30732   2.026   3.451   5.205 -1.6130  0.2381 -0.2556
  228MOL0     H30733   1.962   3.593   5.127  0.0657 -0.5042  4.0332
  228MOL0     H30734   1.825   3.402   5.118  0.0642  1.6449  0.6082
  228MOL0     H30735   1.942   3.328   4.994 -3.3505 -1.6681 -1.2437
  228MOL0     H30736   1.892   3.496   4.829 -2.0794 -0.5248 -2.4724
  228MOL0     H30737   1.826   3.602   4.957  3.1805  0.1779 -2.4351
  228MOL0     H30738   1.675   3.507   4.791  0.0847  1.0387  0.4188
  228MOL0     H30739   1.616   3.473   4.955  0.1646 -2.1134  1.0087
  228MOL0     H30740   1.435   3.396   4.859  2.2534 -0.7133  2.2362
  228MOL0     H30741   1.177   3.255   4.918 -0.2429  0.0022  0.1610
  228MOL0     H30742   1.210   3.389   4.822 -0.3085  0.4599 -0.6035
  228MOL0     H30743   1.125   3.257   4.747 -0.3026  0.0390  0.1587
  228MOL0     H30744   0.996   2.833   4.673  0.0682  1.3487  0.0851
  228MOL0     H30745   0.884   2.679   4.583  0.1893 -1.0112  1.4568
  228MOL0     H30746   0.815   2.430   4.557 -2.2120 -1.9094 -0.9051
  228MOL0     H30747   0.800   2.524   4.399 -0.3480 -0.2245 -1.6205
  228MOL0     H30748   0.790   2.221   4.449  2.6589 -1.7740 -1.0275
  228MOL0     H30749   0.687   2.315   4.335  0.6157  1.9844  1.2327
  228MOL0     H30750   0.980   2.268   4.300 -0.5526  0.4706  3.7423
  228MOL0     H30751   0.874   2.353   4.191  0.4003 -0.8515 -1.1548
  228MOL0     H30752   0.843   2.060   4.299 -1.4541 -0.3188  0.3986
  228MOL0     H30753   0.740   2.130   4.173  1.2589 -1.4142 -2.4582
  228MOL0     H30754   0.946   2.149   4.027  0.0065  1.7859  1.5418
  228MOL0     H30755   0.887   1.981   4.060 -0.8583 -0.4895  2.1680
  228MOL0     H30756   1.132   2.090   4.209  1.3389 -2.7534  2.8960
  228MOL0     H30757   1.063   1.935   4.209  1.7806  0.4542  0.7991
  228MOL0     H30758   1.095   1.941   3.945  1.9119 -0.9382 -0.3524
  228MOL0     H30759   1.241   1.921   4.043 -0.9426 -0.0708  1.8973
  228MOL0     H30760   1.303   2.161   4.009  0.3255 -0.1823 -1.2493
  228MOL0     H30761   1.160   2.182   3.904 -0.1881  1.0165 -0.6912
  228MOL0     H30762   1.250   2.467   4.447 -1.4536 -0.7668 -0.5571
  228MOL0     H30763   1.365   2.652   4.528  0.2525 -0.3893 -1.0666
  228MOL0     H30764   1.501   2.931   4.697 -0.9808 -0.9079  0.5567
  228MOL0     H30765   1.678   3.043   4.781 -1.2797 -1.3586  0.9537
  228MOL0     H30766   3.049   3.761   5.182  1.8080  0.4701 -0.7725
  228MOL0     H30767   3.265   3.738   5.291 -0.8425 -0.1016 -0.9659
  228MOL0     H30768   3.602   3.970   5.721 -0.2511  0.6229 -0.0841
  228MOL0     H30769   3.828   3.941   5.762 -2.7237  0.0777  0.7656
  228MOL0     H30770   4.022   3.809   5.766  1.5133 -0.3467  0.0490
  228MOL0     H30771   4.188   3.828   5.711  0.7504 -0.3171 -1.1343
  228MOL0     H30772   4.104   4.001   5.889  0.4160  1.5170  0.0857
  228MOL0     H30773   3.992   4.070   5.780 -0.4025  0.9638  1.6431
  228MOL0     H30774   4.150   4.131   5.608 -2.7237 -1.8141  0.6811
  228MOL0     H30775   4.290   4.080   5.689 -1.0743  0.1874 -2.5618
  228MOL0     H30776   4.126   4.320   5.730 -0.4807 -0.8798 -1.0865
  228MOL0     H30777   4.300   4.302   5.729 -0.0512 -0.5649  0.1912
  228MOL0     H30778   4.215   4.226   6.142 -1.9728 -3.6943 -0.2332
  228MOL0     H30779   3.935   3.904   5.355 -0.5705 -0.8167 -0.8147
  228MOL0     H30780   3.685   3.960   5.297 -1.3199  3.3550  1.7045
  229MOL0     O30781   3.532   0.975   0.506  0.1988  0.1327  0.4797
  229MOL0     C30782   3.424   1.033   0.473  0.4746 -0.8308  0.3854
  229MOL0     O30783   3.418   1.139   0.382  0.2771 -0.5863  0.5380
  229MOL0     C30784   3.524   1.222   0.346 -0.0633 -0.1516 -0.6025
  229MOL0     C30785   3.618   1.258   0.442  0.0843  0.1169 -0.0941
  229MOL0     C30786   3.726   1.333   0.407  0.3928  0.3200 -0.0754
  229MOL0     C30787   3.733   1.382   0.273  0.2985 -0.7039  0.7018
  229MOL0     O30788   3.834   1.473   0.251  0.0668 -0.1892 -0.4678
  229MOL0     C30789   3.891   1.495   0.119  0.9777 -0.1533  0.8231
  229MOL0     C30790   3.978   1.623   0.119  0.6851 -0.1102  0.3938
  229MOL0     C30791   4.103   1.592   0.189  0.4180 -0.0624  0.8891
  229MOL0     C30792   4.219   1.694   0.149 -0.3950  0.5654 -0.3059
  229MOL0     C30793   4.359   1.639   0.184 -0.1916 -0.3430 -0.2482
  229MOL0     C30794   4.460   1.737   0.132 -0.0749  0.3169  0.0586
  229MOL0     C30795   4.612   1.695   0.162  0.2572 -0.2659  0.6438
  229MOL0     C30796   4.691   1.803   0.098  0.5965  1.5879 -0.2485
  229MOL0     N30797   4.835   1.777   0.092  0.1120  0.4251 -0.2821
  229MOL0     C30798   4.918   1.872   0.029 -0.4759  0.0850  0.9825
  229MOL0     C30799   5.032   1.809   0.029 -1.0319  0.5458  0.0346
  229MOL0     C30800   5.163   1.838  -0.035  0.5025 -0.2789 -0.0394
  229MOL0     C30801   5.229   1.953   0.022 -0.1150 -1.1601 -0.4889
  229MOL0     C30802   5.261   1.936   0.168 -0.8524  0.7597  0.0144
  229MOL0     C30803   5.284   2.065   0.243  0.9322  0.7124 -0.0465
  229MOL0     O30804   5.166   2.145   0.226  0.3685  0.3062 -0.3379
  229MOL0     C30805   5.045   2.101   0.274 -0.1303 -0.5510  0.0698
  229MOL0     C30806   5.012   2.008   0.371  0.7044  0.7467 -0.1518
  229MOL0     C30807   4.882   1.979   0.407 -0.5148 -0.1278  0.2921
  229MOL0     C30808   4.866   1.857   0.497  0.3019 -0.1315  1.1163
  229MOL0     C30809   4.782   2.056   0.351 -0.4976 -0.3441 -0.3351
  229MOL0     C30810   4.635   2.041   0.390 -1.3923  0.3793  0.5951
  229MOL0     O30811   4.599   1.973   0.504 -0.1313 -0.2114 -0.2815
  229MOL0     C30812   4.466   1.970   0.524 -0.7092  0.1336 -0.1203
  229MOL0     C30813   4.391   2.073   0.587 -0.7303  0.0888  0.5331
  229MOL0     C30814   4.246   2.056   0.598 -0.6082 -0.0403  0.2076
  229MOL0     C30815   4.179   1.938   0.548  0.8846  0.2122  0.1145
  229MOL0     O30816   4.037   1.938   0.576  0.0640  0.2241  0.0443
  229MOL0     C30817   3.958   1.861   0.494  0.0925  0.8829  0.5663
  229MOL0     C30818   3.820   1.829   0.567 -0.6878 -0.1771  0.3375
  229MOL0     C30819   3.738   1.730   0.494  0.1603  0.5149 -0.0559
  229MOL0     C30820   3.594   1.704   0.561  0.4637  0.4037  0.5455
  229MOL0     C30821   3.522   1.586   0.489 -0.6549 -0.4011  0.5931
  229MOL0     C30822   3.371   1.614   0.502 -0.1543  0.2907 -0.7700
  229MOL0     C30823   3.298   1.474   0.471  0.5424  0.7631 -1.1162
  229MOL0     C30824   3.144   1.483   0.466 -1.2271 -0.7761  0.1069
  229MOL0    Cl30825   3.076   1.402   0.613  0.3175 -0.0324 -0.5073
  229MOL0     C30826   4.252   1.840   0.500 -0.8474  0.4922 -0.5697
  229MOL0     C30827   4.390   1.858   0.488 -0.3904  0.7145 -0.8772
  229MOL0     O30828   4.562   2.110   0.318  0.1655  0.4582 -0.8184
  229MOL0     C30829   4.815   2.162   0.268 -0.4323 -0.5415 -0.8031
  229MOL0     C30830   4.943   2.175   0.224  0.0738 -0.4570 -0.1525
  229MOL0     N30831   5.018   1.685   0.089  0.3755 -0.1411  0.8219
  229MOL0     N30832   4.903   1.667   0.139  0.3724  0.3488 -0.6976
  229MOL0     C30833   3.633   1.355   0.183 -0.5954 -0.1396 -0.6741
  229MOL0     C30834   3.533   1.270   0.214  0.4543  0.2346  0.2546
  229MOL0     C30835   3.289   0.993   0.523 -0.3222  0.8938 -0.0241
  229MOL0     C30836   3.285   0.908   0.631 -0.4292  0.3089  0.1290
  229MOL0     C30837   3.160   0.872   0.686  0.6946 -0.1023 -0.6595
  229MOL0     C30838   3.036   0.908   0.621  0.1164 -0.1495 -0.1839
  229MOL0     O30839   2.925   0.867   0.681  0.4299 -0.0188 -1.2728
  229MOL0     C30840   2.797   0.860   0.617  1.3432  0.4490 -1.1732
  229MOL0     C30841   2.785   0.757   0.509 -0.0737  0.8064  0.7751
  229MOL0     C30842   2.639   0.727   0.467 -0.4862 -0.3211  0.4380
  229MOL0     C30843   2.564   0.614   0.539 -0.6907  0.2660 -0.0259
  229MOL0     C30844   2.512   0.649   0.666 -0.6263  0.2828  0.1111
  229MOL0     C30845   2.474   0.678   0.776  0.1598  0.1214  0.5731
  229MOL0     C30846   3.048   0.993   0.512 -0.3359 -0.2333 -0.2961
  229MOL0     C30847   3.171   1.036   0.464 -0.2319 -0.2601  0.2664
  229MOL0     H30848   3.619   1.211   0.540  3.2798  1.3377  0.5930
  229MOL0     H30849   3.798   1.364   0.482 -0.4027 -2.0874  1.8016
  229MOL0     H30850   3.944   1.410   0.075 -0.8993 -0.9475  0.0307
  229MOL0     H30851   3.811   1.522   0.050  2.3473 -0.9410 -1.1824
  229MOL0     H30852   4.000   1.649   0.015  0.2496 -1.2372  0.0051
  229MOL0     H30853   3.916   1.699   0.168  0.5294  1.0959 -1.5538
  229MOL0     H30854   4.096   1.599   0.298  0.5713 -2.0062  1.0768
  229MOL0     H30855   4.140   1.489   0.177  1.9531  0.3864  1.4941
  229MOL0     H30856   4.212   1.713   0.041 -0.1895 -1.9283 -0.8291
  229MOL0     H30857   4.201   1.786   0.205 -1.9660 -0.4465  0.9177
  229MOL0     H30858   4.363   1.632   0.293  1.6121  1.6628 -0.1067
  229MOL0     H30859   4.386   1.538   0.154 -0.8015 -0.6118  0.0929
  229MOL0     H30860   4.435   1.736   0.025 -1.1189 -0.5801  0.2884
  229MOL0     H30861   4.449   1.835   0.178 -1.0041 -0.4679  1.5992
  229MOL0     H30862   4.630   1.701   0.270 -0.0576 -0.4854  0.7090
  229MOL0     H30863   4.638   1.594   0.128  1.5622 -0.6623  2.6746
  229MOL0     H30864   4.664   1.902   0.137 -3.3651  1.0895 -1.3262
  229MOL0     H30865   4.654   1.804  -0.005 -1.3404  0.6257  0.3848
  229MOL0     H30866   4.885   1.959  -0.026 -1.1938 -1.5750 -1.3875
  229MOL0     H30867   5.225   1.748  -0.027 -0.0491 -0.6853 -0.2519
  229MOL0     H30868   5.151   1.860  -0.142 -0.4868  1.6508  0.4184
  229MOL0     H30869   5.162   2.039   0.012  1.2853  0.0042 -0.1886
  229MOL0     H30870   5.322   1.958  -0.036 -0.2693 -1.5466 -0.7734
  229MOL0     H30871   5.354   1.880   0.185 -1.6527 -1.2118 -1.6531
  229MOL0     H30872   5.183   1.874   0.212  0.2128 -0.2165  0.6060
  229MOL0     H30873   5.368   2.114   0.193  1.8695 -1.3295 -0.6095
  229MOL0     H30874   5.307   2.057   0.350 -2.6778  0.9500  0.8670
  229MOL0     H30875   5.095   1.958   0.421  0.6430  5.1594  5.2791
  229MOL0     H30876   4.848   1.891   0.600  0.9221 -0.1032  1.2180
  229MOL0     H30877   4.790   1.784   0.468  1.9192 -1.1349 -0.8348
  229MOL0     H30878   4.960   1.801   0.506 -0.0779 -1.2481 -1.1919
  229MOL0     H30879   4.442   2.168   0.605  1.2117 -0.9767  0.9415
  229MOL0     H30880   4.189   2.130   0.652  0.8514  0.0402  1.7308
  229MOL0     H30881   3.956   1.904   0.394  1.0654 -0.9623 -0.2874
  229MOL0     H30882   3.999   1.759   0.492 -2.1395 -0.0830  0.8398
  229MOL0     H30883   3.843   1.798   0.670 -2.0072 -0.5905  0.5253
  229MOL0     H30884   3.751   1.913   0.579 -0.5267 -0.1025  0.7922
  229MOL0     H30885   3.790   1.635   0.482 -2.2833 -0.6220 -3.7205
  229MOL0     H30886   3.729   1.776   0.395  1.7113  0.8695 -0.0520
  229MOL0     H30887   3.588   1.676   0.667 -1.1216 -2.0940 -0.1188
  229MOL0     H30888   3.539   1.798   0.549 -0.5113 -0.0387  1.4040
  229MOL0     H30889   3.542   1.498   0.552 -0.3412  0.4459  1.7087
  229MOL0     H30890   3.560   1.573   0.387  2.3570  1.7253  1.3424
  229MOL0     H30891   3.340   1.645   0.602 -2.0780 -1.1908 -0.8619
  229MOL0     H30892   3.339   1.690   0.430 -0.4264 -0.1129 -1.0784
  229MOL0     H30893   3.330   1.408   0.553 -0.2933  1.6611 -0.0409
  229MOL0     H30894   3.331   1.436   0.374 -0.7499 -0.4783 -1.0960
  229MOL0     H30895   3.117   1.431   0.373  1.0821 -1.0877 -0.4626
  229MOL0     H30896   3.111   1.587   0.463 -0.2707 -0.3854  1.9179
  229MOL0     H30897   4.212   1.742   0.476  0.2148 -0.8544  2.5829
  229MOL0     H30898   4.444   1.772   0.450  0.7372  0.8245  0.3957
  229MOL0     H30899   4.749   2.233   0.219 -0.0223 -0.3227 -1.0378
  229MOL0     H30900   4.967   2.253   0.153 -1.2106  1.1300  1.0609
  229MOL0     H30901   3.636   1.383   0.078  0.6418 -3.9497 -1.8217
  229MOL0     H30902   3.457   1.233   0.147 -0.4556  1.6328  0.4739
  229MOL0     H30903   3.373   0.858   0.669 -1.1505 -0.3609  0.9933
  229MOL0     H30904   3.156   0.814   0.777  0.4403  1.3814  0.2973
  229MOL0     H30905   2.722   0.824   0.688 -0.7119  2.4047 -2.2436
  229MOL0     H30906   2.759   0.958   0.587 -3.3742 -0.1904  1.7927
  229MOL0     H30907   2.823   0.666   0.555  1.2762  1.2126  0.5072
  229MOL0     H30908   2.843   0.778   0.419 -0.4105  1.2610  0.6575
  229MOL0     H30909   2.654   0.702   0.361  0.9417 -1.0999  0.7968
  229MOL0     H30910   2.574   0.815   0.474 -0.2547 -0.2381  1.8507
  229MOL0     H30911   2.631   0.528   0.552  0.2919  0.7363 -1.7042
  229MOL0     H30912   2.490   0.575   0.469 -1.4200  2.3302 -0.4846
  229MOL0     H30913   2.436   0.699   0.874 -0.1269 -2.9196  1.2360
  229MOL0     H30914   2.958   1.030   0.465  0.1530  1.7273  0.2171
  229MOL0     H30915   3.170   1.108   0.383  1.1469  0.3449  0.7674
  230MOL0     O30916   2.828   3.612   3.218  0.1646  0.7314  0.7423
  230MOL0     C30917   2.788   3.729   3.230  0.6632 -0.3329  0.0158
  230MOL0     O30918   2.699   3.781   3.317 -0.2952 -0.1443  0.4013
  230MOL0     C30919   2.602   3.703   3.380  0.4457  0.7474 -0.9580
  230MOL0     C30920   2.566   3.566   3.354 -0.6613 -0.1824  0.3567
  230MOL0     C30921   2.451   3.516   3.410  0.3179  0.2656  0.2336
  230MOL0     C30922   2.367   3.586   3.497  0.5520 -0.3730 -0.5024
  230MOL0     O30923   2.249   3.532   3.560  0.2140  0.0252  0.3687
  230MOL0     C30924   2.174   3.435   3.479  1.0079  0.5519  0.3473
  230MOL0     C30925   2.055   3.403   3.573  1.3886  0.9251  0.1388
  230MOL0     C30926   1.939   3.317   3.506  0.0628  0.1062 -0.9466
  230MOL0     C30927   1.828   3.256   3.588 -0.4115 -0.0698 -0.0904
  230MOL0     C30928   1.763   3.139   3.506 -0.6433  0.1266 -0.8677
  230MOL0     C30929   1.653   3.071   3.587 -0.8136 -0.2095  0.5727
  230MOL0     C30930   1.532   3.164   3.589  0.4243  0.7363 -0.6799
  230MOL0     C30931   1.417   3.114   3.689  0.0378  0.5324 -0.6549
  230MOL0     N30932   1.378   2.978   3.664  0.0726 -0.0271  0.4544
  230MOL0     C30933   1.291   2.953   3.568  0.6214  0.8825 -0.2343
  230MOL0     C30934   1.314   2.826   3.528  0.0883 -0.3993  0.1181
  230MOL0     C30935   1.232   2.746   3.421 -0.1293  0.0581 -0.3347
  230MOL0     C30936   1.086   2.708   3.466 -1.8000 -0.0497 -0.0390
  230MOL0     C30937   1.033   2.639   3.347  0.1408  0.0274 -0.4025
  230MOL0     C30938   0.912   2.555   3.385  0.0573  0.5738  0.0706
  230MOL0     O30939   0.849   2.505   3.262 -0.3370 -0.0057  0.5038
  230MOL0     C30940   0.721   2.456   3.276  0.9889 -0.0233  0.4984
  230MOL0     C30941   0.658   2.416   3.158 -0.3854 -0.3434 -0.9295
  230MOL0     C30942   0.522   2.369   3.151  0.1403  0.1834 -0.0682
  230MOL0     C30943   0.454   2.349   3.017 -0.4450 -0.0794 -0.7683
  230MOL0     C30944   0.456   2.354   3.274  0.8836  0.1617 -0.2806
  230MOL0     C30945   0.324   2.280   3.275  0.0509 -0.5124 -0.1349
  230MOL0     O30946   0.212   2.332   3.352 -1.1590 -0.4706 -0.2037
  230MOL0     C30947   0.101   2.254   3.362 -0.4095  0.3885  0.1910
  230MOL0     C30948  -0.003   2.253   3.264  0.5013 -0.0164  0.3252
  230MOL0     C30949  -0.123   2.181   3.288  0.1623  0.5294  0.1618
  230MOL0     C30950  -0.151   2.120   3.406  0.1089  0.1120 -0.0340
  230MOL0     O30951  -0.286   2.076   3.413  0.1777  0.3601 -0.3999
  230MOL0     C30952  -0.310   1.969   3.516 -0.0273  0.1589  0.2858
  230MOL0     C30953  -0.444   1.892   3.489 -0.3782  0.5575  0.1314
  230MOL0     C30954  -0.451   1.846   3.343  0.3813 -0.0908  0.6656
  230MOL0     C30955  -0.525   1.715   3.324  0.0185 -0.1800  0.6444
  230MOL0     C30956  -0.530   1.666   3.176 -0.1474  0.0515 -0.1908
  230MOL0     C30957  -0.395   1.644   3.097  0.7521  0.0604  0.6618
  230MOL0     C30958  -0.423   1.586   2.952 -0.9250 -0.3188  0.6008
  230MOL0     C30959  -0.285   1.556   2.888  0.1486 -1.1230 -0.3531
  230MOL0    Cl30960  -0.176   1.440   2.983  0.4440  0.1482 -0.0697
  230MOL0     C30961  -0.043   2.107   3.503  0.4224  0.2371 -0.6034
  230MOL0     C30962   0.077   2.177   3.479 -1.1567  0.4405 -0.2520
  230MOL0     O30963   0.314   2.182   3.201 -0.0825 -0.2112  0.0714
  230MOL0     C30964   0.515   2.409   3.388  0.3288 -0.3805  0.5692
  230MOL0     C30965   0.642   2.462   3.393  1.1529 -0.1803  0.5751
  230MOL0     N30966   1.411   2.778   3.619 -0.6367  0.0694  0.5071
  230MOL0     N30967   1.444   2.863   3.705 -0.7281  0.0140  0.6778
  230MOL0     C30968   2.404   3.719   3.527  0.0659 -0.1705  0.1716
  230MOL0     C30969   2.517   3.776   3.463 -0.6016 -0.3938  0.0221
  230MOL0     C30970   2.854   3.829   3.150 -0.2495 -0.2877 -0.3652
  230MOL0     C30971   2.975   3.794   3.079  0.1076  0.2685 -0.6170
  230MOL0     C30972   3.049   3.890   3.012 -1.3823  0.2860  0.5599
  230MOL0     C30973   3.001   4.023   3.013  0.2663  0.0748  0.1735
  230MOL0     O30974   3.071   4.116   2.938 -0.2109  0.7838 -1.0975
  230MOL0     C30975   3.031   4.149   2.811  0.5825  0.1866 -0.3512
  230MOL0     C30976   3.050   4.038   2.710 -0.2613  0.2249 -0.1212
  230MOL0     C30977   2.971   4.057   2.588  0.4361 -0.3091  0.4172
  230MOL0     C30978   2.817   4.064   2.605 -0.2187  0.5623  0.2437
  230MOL0     C30979   2.755   3.969   2.696  0.0342  0.3578 -0.3193
  230MOL0     C30980   2.703   3.897   2.780  0.1421  0.9391  0.2293
  230MOL0     C30981   2.884   4.057   3.078  0.6918  0.2510 -0.3807
  230MOL0     C30982   2.802   3.959   3.140 -0.3619 -0.3793  0.3749
  230MOL0     H30983   2.625   3.505   3.286  1.0913  0.0506  1.5949
  230MOL0     H30984   2.436   3.411   3.384 -0.5876  0.4551 -0.0384
  230MOL0     H30985   2.143   3.479   3.384  1.7002 -0.7398 -0.5019
  230MOL0     H30986   2.233   3.345   3.457  0.2973  0.4299 -1.1570
  230MOL0     H30987   2.087   3.346   3.660 -0.5000 -2.3899 -1.1422
  230MOL0     H30988   2.003   3.489   3.616 -0.2621  0.1653 -0.2637
  230MOL0     H30989   1.884   3.386   3.441  0.1558  1.1559  0.0441
  230MOL0     H30990   1.988   3.228   3.465 -0.8551 -0.3637 -1.0341
  230MOL0     H30991   1.873   3.213   3.678  3.7899 -0.9748 -2.3626
  230MOL0     H30992   1.763   3.344   3.594 -0.3950 -0.1292  1.3041
  230MOL0     H30993   1.731   3.173   3.407  0.2829 -0.3212 -1.3332
  230MOL0     H30994   1.841   3.063   3.496 -0.2130  0.5888 -1.0898
  230MOL0     H30995   1.643   2.973   3.540  2.1623 -0.9122  1.1955
  230MOL0     H30996   1.686   3.052   3.690  0.0893 -1.0406  0.1400
  230MOL0     H30997   1.564   3.266   3.612  0.7627  0.8427 -1.5897
  230MOL0     H30998   1.490   3.165   3.488 -0.9827  0.2896 -0.1302
  230MOL0     H30999   1.333   3.183   3.687  1.1037  1.8563 -2.3185
  230MOL0     H31000   1.459   3.114   3.790 -1.2639  0.3556 -0.0885
  230MOL0     H31001   1.227   3.022   3.513 -0.2015 -1.2429 -2.0671
  230MOL0     H31002   1.225   2.813   3.335 -1.9520  1.2106  0.6369
  230MOL0     H31003   1.291   2.655   3.407  3.3378  1.8932  1.0382
  230MOL0     H31004   1.029   2.801   3.472  0.2082  1.1921  0.7840
  230MOL0     H31005   1.084   2.645   3.556  1.0169  0.7945  0.6891
  230MOL0     H31006   1.094   2.575   3.282 -1.8486 -0.4718 -1.9006
  230MOL0     H31007   0.993   2.718   3.283  0.5513  0.9825  0.5004
  230MOL0     H31008   0.847   2.616   3.449 -1.2909  2.7008 -3.0795
  230MOL0     H31009   0.953   2.464   3.431  0.7327  0.5860 -0.4954
  230MOL0     H31010   0.714   2.429   3.066  3.5900  1.9587  1.5117
  230MOL0     H31011   0.482   2.441   2.964  1.4306 -2.1094 -3.6181
  230MOL0     H31012   0.490   2.268   2.953  1.4291 -0.6750  0.9394
  230MOL0     H31013   0.346   2.337   3.031 -0.1076  0.7312  4.2695
  230MOL0     H31014   0.015   2.326   3.187 -0.8981  2.1916  1.9758
  230MOL0     H31015  -0.200   2.189   3.212 -0.0595  2.5467  0.5585
  230MOL0     H31016  -0.230   1.895   3.515 -0.3734 -0.2606  1.3805
  230MOL0     H31017  -0.314   2.021   3.612  0.9778  2.4182 -0.8250
  230MOL0     H31018  -0.450   1.799   3.546  0.5350 -1.6348 -3.0848
  230MOL0     H31019  -0.532   1.950   3.518 -1.4434 -2.5983  4.2431
  230MOL0     H31020  -0.349   1.829   3.310  1.1999  0.0497  2.9491
  230MOL0     H31021  -0.501   1.919   3.279  1.5876 -1.5381 -2.1200
  230MOL0     H31022  -0.463   1.648   3.384 -0.3485 -0.2006  1.0120
  230MOL0     H31023  -0.628   1.723   3.362 -0.1432  2.3107 -0.1356
  230MOL0     H31024  -0.597   1.727   3.114 -0.0106 -0.5017 -0.9052
  230MOL0     H31025  -0.584   1.571   3.179  0.7190 -0.4172  0.9833
  230MOL0     H31026  -0.327   1.729   3.107 -1.9462  2.1566  3.3891
  230MOL0     H31027  -0.328   1.575   3.150  0.5907  0.0623  0.8693
  230MOL0     H31028  -0.478   1.649   2.881 -1.6763 -0.4496  1.0572
  230MOL0     H31029  -0.468   1.487   2.963 -0.3065 -0.6945 -0.1239
  230MOL0     H31030  -0.229   1.646   2.861 -2.0732  0.2132 -0.7839
  230MOL0     H31031  -0.293   1.513   2.788  0.2138  2.3659 -2.0244
  230MOL0     H31032  -0.057   2.050   3.594  1.2339  1.1958  0.1498
  230MOL0     H31033   0.162   2.184   3.546 -2.7898  3.2096  1.7487
  230MOL0     H31034   0.458   2.406   3.480 -0.7517  0.9642 -0.0285
  230MOL0     H31035   0.678   2.498   3.489  1.0856  1.2713  0.0888
  230MOL0     H31036   2.345   3.783   3.591  0.5297  0.6319 -0.1809
  230MOL0     H31037   2.540   3.882   3.475  0.4718 -0.5712 -0.3366
  230MOL0     H31038   3.000   3.688   3.078  0.1479  0.2764 -0.3622
  230MOL0     H31039   3.130   3.849   2.952 -1.9904 -2.2138  1.3063
  230MOL0     H31040   2.928   4.172   2.838  0.8621 -1.1104  2.1330
  230MOL0     H31041   3.065   4.245   2.771  1.7520 -0.2734 -0.5245
  230MOL0     H31042   3.025   3.938   2.747 -0.2110  1.1885  2.7236
  230MOL0     H31043   3.158   4.028   2.692 -0.0075 -2.5661  2.0980
  230MOL0     H31044   2.990   3.978   2.516 -1.0495 -0.9440  0.6820
  230MOL0     H31045   3.000   4.151   2.539  1.6341 -1.9299 -2.1851
  230MOL0     H31046   2.769   4.058   2.507 -0.0258  5.3083 -0.3694
  230MOL0     H31047   2.792   4.168   2.631 -0.7645  0.3589  0.5429
  230MOL0     H31048   2.662   3.845   2.864  1.5305  1.0630  1.0131
  230MOL0     H31049   2.852   4.161   3.067 -1.8418 -0.5216 -1.0185
  230MOL0     H31050   2.709   3.986   3.188 -0.1449  1.1875 -0.0223
  231MOL0     O31051   4.386  11.265   2.374  0.2231  0.4561  0.0655
  231MOL0     C31052   4.432  11.375   2.396 -0.2351  0.0017  0.2854
  231MOL0     O31053   4.380  11.471   2.479 -0.5152  0.2216 -0.0530
  231MOL0     C31054   4.288  11.439   2.571 -0.2503  0.7919 -0.2257
  231MOL0     C31055   4.203  11.546   2.596  0.0782  0.9560  0.3639
  231MOL0     C31056   4.095  11.530   2.688  0.5740  1.1266 -0.4071
  231MOL0     C31057   4.065  11.395   2.744  1.0238  0.5175  0.0243
  231MOL0     O31058   3.960  11.377   2.829 -0.9064 -0.5722 -0.5064
  231MOL0     C31059   3.887  11.498   2.860 -0.3984  0.3599 -0.6908
  231MOL0     C31060   3.778  11.465   2.961  0.1222 -0.5920  0.2863
  231MOL0     C31061   3.655  11.560   2.963 -0.4430 -1.5519  0.6814
  231MOL0     C31062   3.558  11.502   3.056 -0.3619  0.5689 -0.2152
  231MOL0     C31063   3.418  11.573   3.051  0.1857  0.3455  0.2823
  231MOL0     C31064   3.359  11.573   3.194 -0.3486  0.2577  0.1477
  231MOL0     C31065   3.224  11.669   3.198  0.4219  1.1812  0.1433
  231MOL0     C31066   3.161  11.675   3.338 -0.9422 -0.3075 -0.1314
  231MOL0     N31067   3.048  11.770   3.343 -0.5785  0.7505 -0.2457
  231MOL0     C31068   3.052  11.901   3.295 -0.4172  0.3027 -0.4246
  231MOL0     C31069   2.936  11.960   3.349  0.7147 -0.1241 -0.2426
  231MOL0     C31070   2.896  12.096   3.346 -0.4694 -1.7438 -0.6334
  231MOL0     C31071   2.850  12.139   3.199  0.6848  0.3644  0.4255
  231MOL0     C31072   2.723  12.046   3.158  0.2247 -0.4423  0.5975
  231MOL0     C31073   2.650  12.109   3.027  0.6581 -0.5961 -0.0888
  231MOL0     O31074   2.586  12.008   2.953  0.5911  0.1288  0.4180
  231MOL0     C31075   2.450  11.991   2.984 -0.8328 -0.6073  0.7616
  231MOL0     C31076   2.380  11.893   2.909 -0.3742 -0.3760 -0.2109
  231MOL0     C31077   2.244  11.858   2.926 -0.5563 -0.0853 -0.2877
  231MOL0     C31078   2.196  11.736   2.850  0.5245  0.5486  0.3100
  231MOL0     C31079   2.182  11.925   3.034 -0.2082  0.5226  0.3930
  231MOL0     C31080   2.032  11.914   3.073 -0.8686 -0.8689 -0.0439
  231MOL0     O31081   1.979  11.805   3.031  0.4788 -0.4765  0.3066
  231MOL0     C31082   1.847  11.784   3.060  0.0716  0.0748  0.3297
  231MOL0     C31083   1.808  11.676   3.140 -0.2585 -0.4616 -0.3562
  231MOL0     C31084   1.671  11.641   3.157 -0.2970 -0.9241  0.5264
  231MOL0     C31085   1.576  11.725   3.098 -0.5069  0.2441  0.0708
  231MOL0     O31086   1.440  11.720   3.112  0.9456 -0.2052  0.1415
  231MOL0     C31087   1.398  11.624   3.209  0.0858  0.1230  0.7003
  231MOL0     C31088   1.243  11.627   3.223 -0.5127  1.0512 -0.2831
  231MOL0     C31089   1.197  11.555   3.337  0.7893 -0.5868  0.4652
  231MOL0     C31090   1.213  11.608   3.478 -0.1996 -0.1915 -0.5189
  231MOL0     C31091   1.108  11.553   3.579 -0.9227  1.1057  0.9220
  231MOL0     C31092   0.966  11.605   3.550  0.4795  0.0233 -0.5904
  231MOL0     C31093   0.864  11.569   3.658 -1.1829  0.3694 -0.1048
  231MOL0     C31094   0.733  11.645   3.642 -0.0942 -0.5535 -0.0742
  231MOL0    Cl31095   0.628  11.565   3.768  0.2276 -0.2334  0.0075
  231MOL0     C31096   1.614  11.835   3.018 -0.1507  0.6017  0.5064
  231MOL0     C31097   1.752  11.868   2.993  0.7026  0.5129 -1.2852
  231MOL0     O31098   1.978  12.004   3.141  0.3072  0.5839  0.2503
  231MOL0     C31099   2.245  12.018   3.114 -0.5267  0.4331 -0.2417
  231MOL0     C31100   2.386  12.049   3.093 -0.4959 -0.6379  0.7257
  231MOL0     N31101   2.866  11.857   3.416 -0.1329  0.5657  0.2184
  231MOL0     N31102   2.937  11.746   3.412 -0.0775  0.2379  0.0670
  231MOL0     C31103   4.144  11.281   2.707  0.1916  0.2040 -1.3501
  231MOL0     C31104   4.251  11.308   2.625  0.1206 -0.3968 -0.2438
  231MOL0     C31105   4.543  11.424   2.315  0.3975  1.1694 -0.1272
  231MOL0     C31106   4.595  11.551   2.345  0.1968  0.3002  0.1269
  231MOL0     C31107   4.712  11.595   2.283  0.0756  0.4678  0.5338
  231MOL0     C31108   4.767  11.524   2.179 -0.2741  0.6072 -0.4193
  231MOL0     O31109   4.865  11.587   2.107 -0.1315  0.6819 -1.0502
  231MOL0     C31110   4.866  11.576   1.962 -0.1195  0.0772 -0.6989
  231MOL0     C31111   4.919  11.705   1.901 -0.3284 -0.1472  0.6133
  231MOL0     C31112   5.049  11.773   1.961  0.1424 -0.3171  0.3536
  231MOL0     C31113   5.111  11.885   1.868 -1.0193 -0.6983 -0.0969
  231MOL0     C31114   5.184  11.833   1.751 -0.0594  0.4945  0.5951
  231MOL0     C31115   5.265  11.797   1.668 -0.2218 -0.2123 -0.5116
  231MOL0     C31116   4.715  11.402   2.145 -0.0767 -0.7355  0.8821
  231MOL0     C31117   4.609  11.345   2.222 -0.7474 -0.1623  0.2200
  231MOL0     H31118   4.213  11.634   2.533 -1.7748  0.5022 -0.6174
  231MOL0     H31119   4.039  11.623   2.678  1.4505  1.5976 -1.1150
  231MOL0     H31120   3.939  11.582   2.905  0.2063 -0.7799  0.8096
  231MOL0     H31121   3.833  11.527   2.769 -0.7617 -0.0151 -0.5991
  231MOL0     H31122   3.739  11.365   2.938 -0.2397 -0.6132  0.9927
  231MOL0     H31123   3.824  11.465   3.060  0.9756  4.4398  0.1473
  231MOL0     H31124   3.687  11.660   2.994  0.4896 -1.9444  1.0275
  231MOL0     H31125   3.606  11.571   2.865 -2.6046 -1.1205  1.7552
  231MOL0     H31126   3.541  11.399   3.023 -0.5643 -0.1561  1.9872
  231MOL0     H31127   3.606  11.501   3.154 -1.4109  1.1245  0.3284
  231MOL0     H31128   3.435  11.677   3.020  0.4661 -0.1514 -1.3311
  231MOL0     H31129   3.346  11.526   2.984 -0.9237  1.6804  0.4973
  231MOL0     H31130   3.343  11.466   3.213  1.0453 -0.7945 -3.7357
  231MOL0     H31131   3.436  11.599   3.268  0.5690 -0.9974 -0.3285
  231MOL0     H31132   3.258  11.768   3.166  1.1777  0.8613 -0.0569
  231MOL0     H31133   3.150  11.631   3.128  0.5930 -1.0473  1.1077
  231MOL0     H31134   3.242  11.712   3.401 -1.7615 -0.2371  0.8910
  231MOL0     H31135   3.133  11.571   3.357  0.3212 -0.1012  3.7893
  231MOL0     H31136   3.141  11.942   3.248  0.1541  1.8017  1.7873
  231MOL0     H31137   2.805  12.106   3.407 -0.6778  0.7119 -1.2415
  231MOL0     H31138   2.973  12.168   3.374 -1.0044 -1.2364 -0.4210
  231MOL0     H31139   2.938  12.132   3.134  0.8378  2.5032  0.3549
  231MOL0     H31140   2.831  12.246   3.198 -0.3913  0.2013 -1.2637
  231MOL0     H31141   2.654  12.040   3.242 -0.3348 -1.1242  0.0946
  231MOL0     H31142   2.756  11.944   3.137 -0.2254 -0.9240  2.1133
  231MOL0     H31143   2.724  12.153   2.959  0.2075  3.0927  1.5958
  231MOL0     H31144   2.592  12.199   3.049  3.4250  1.1742  0.5035
  231MOL0     H31145   2.441  11.845   2.832  2.3964  1.2183  0.8447
  231MOL0     H31146   2.178  11.647   2.911  0.3318  1.5435  1.7543
  231MOL0     H31147   2.100  11.754   2.801  1.2162 -0.2285 -1.4236
  231MOL0     H31148   2.258  11.718   2.762 -1.9068  1.7251 -1.7570
  231MOL0     H31149   1.878  11.598   3.167 -0.1306 -1.0521 -2.2698
  231MOL0     H31150   1.637  11.547   3.199 -3.1601  0.5413  1.7443
  231MOL0     H31151   1.439  11.527   3.179  0.3407  0.7800 -1.2172
  231MOL0     H31152   1.422  11.645   3.314 -1.1694  1.3838  0.7522
  231MOL0     H31153   1.212  11.729   3.246 -0.0007  1.5643 -1.7395
  231MOL0     H31154   1.193  11.599   3.130  2.1144  0.4068 -1.6281
  231MOL0     H31155   1.244  11.457   3.344 -1.9403 -1.9039  2.4338
  231MOL0     H31156   1.090  11.540   3.320  0.0122  1.0342  3.3019
  231MOL0     H31157   1.310  11.602   3.527  0.1697 -0.1817 -1.2453
  231MOL0     H31158   1.188  11.715   3.470 -0.9715 -0.3510 -0.3773
  231MOL0     H31159   1.143  11.567   3.681  4.0021  0.7978 -0.4484
  231MOL0     H31160   1.111  11.444   3.568  2.5942  0.9399  2.3673
  231MOL0     H31161   0.972  11.714   3.541  1.3064  0.3074  2.2777
  231MOL0     H31162   0.925  11.566   3.457 -1.1119 -0.0861  0.1198
  231MOL0     H31163   0.921  11.577   3.751  1.7990 -1.2233 -1.6448
  231MOL0     H31164   0.840  11.464   3.638  0.0787  0.4008 -2.0567
  231MOL0     H31165   0.701  11.646   3.537 -1.4098  0.3187  0.3108
  231MOL0     H31166   0.735  11.752   3.665  0.8651  0.1695 -3.0660
  231MOL0     H31167   1.540  11.893   2.963  0.2501 -0.1018 -0.8255
  231MOL0     H31168   1.778  11.951   2.929 -0.3129  0.3523 -1.9269
  231MOL0     H31169   2.204  12.071   3.200  2.3730  1.2663  0.7611
  231MOL0     H31170   2.431  12.124   3.158 -1.1761  1.2004 -0.8193
  231MOL0     H31171   4.114  11.186   2.749 -0.0726  0.9818  0.3065
  231MOL0     H31172   4.315  11.223   2.606 -1.1887 -0.6677 -4.4525
  231MOL0     H31173   4.538  11.608   2.417  0.1567  0.7818 -0.2777
  231MOL0     H31174   4.751  11.694   2.301 -2.9968  2.2811 -1.8061
  231MOL0     H31175   4.928  11.490   1.933 -0.5030 -0.4124 -0.0966
  231MOL0     H31176   4.764  11.571   1.923  0.3028  2.3471 -2.3364
  231MOL0     H31177   4.843  11.785   1.906  2.2251  2.3880  1.8265
  231MOL0     H31178   4.949  11.679   1.799  0.7544  0.9921  0.6196
  231MOL0     H31179   5.119  11.692   1.980  2.1611  1.7858  2.5974
  231MOL0     H31180   5.027  11.827   2.054  2.8011  0.4835  0.6021
  231MOL0     H31181   5.172  11.963   1.914 -0.8491 -0.9489  0.1088
  231MOL0     H31182   5.020  11.934   1.833 -0.9634 -1.9468 -2.2086
  231MOL0     H31183   5.316  11.747   1.588 -1.5998 -0.7773 -1.0627
  231MOL0     H31184   4.761  11.345   2.065  0.9382  2.0421 -0.6528
  231MOL0     H31185   4.586  11.239   2.214 -1.6818  0.1093 -1.1754
  232MOL0     O31186   1.675   0.540   5.476  0.4153  0.4983  0.3800
  232MOL0     C31187   1.748   0.447   5.443  0.2266  0.1282 -0.5203
  232MOL0     O31188   1.702   0.318   5.425  0.8599 -0.6390 -1.0300
  232MOL0     C31189   1.565   0.310   5.447  0.4544 -0.1903  0.7898
  232MOL0     C31190   1.470   0.308   5.336 -0.2204  0.8716 -0.1018
  232MOL0     C31191   1.336   0.290   5.347  0.9444  0.5299 -0.2608
  232MOL0     C31192   1.281   0.257   5.473 -0.8547 -0.8939 -0.2092
  232MOL0     O31193   1.149   0.211   5.480 -0.5412  0.1789  0.4497
  232MOL0     C31194   1.090   0.183   5.603  0.0329  0.0965  1.1760
  232MOL0     C31195   0.966   0.098   5.573  0.5436 -0.7153 -0.4574
  232MOL0     C31196   0.871   0.184   5.498  0.0897 -0.2694  0.6761
  232MOL0     C31197   0.726   0.133   5.521 -1.3577  0.1343 -0.6604
  232MOL0     C31198   0.649   0.225   5.615 -0.1475 -0.0651  0.0300
  232MOL0     C31199   0.726   0.225   5.748  0.3247 -0.1069  0.3411
  232MOL0     C31200   0.673   0.333   5.841 -0.6119 -0.2513  0.4907
  232MOL0     C31201   0.534   0.309   5.888 -0.6090 -0.4883  0.4960
  232MOL0     N31202   0.486   0.421   5.980 -0.8362  0.3407  0.4173
  232MOL0     C31203   0.359   0.471   5.984  0.1490 -1.0090 -0.0320
  232MOL0     C31204   0.359   0.558   6.082  0.6573 -0.1718 -0.2184
  232MOL0     C31205   0.243   0.640   6.121  0.8100 -0.4321  0.0504
  232MOL0     C31206   0.115   0.557   6.138 -0.4509  0.0619 -0.5554
  232MOL0     C31207   0.016   0.644   6.213  0.6977  0.2308 -0.0646
  232MOL0     C31208  -0.123   0.570   6.214  0.2965  0.0359  0.4744
  232MOL0     O31209  -0.215   0.657   6.278  0.0211 -0.3845  0.6444
  232MOL0     C31210  -0.332   0.607   6.314 -0.2158  1.1529  0.5438
  232MOL0     C31211  -0.396   0.495   6.255  0.1008 -0.2939 -0.2423
  232MOL0     C31212  -0.523   0.457   6.295 -0.2508  0.1284  0.2272
  232MOL0     C31213  -0.595   0.340   6.219 -0.8748 -0.6789 -0.0489
  232MOL0     C31214  -0.568   0.524   6.411 -0.6944 -0.4195  0.7203
  232MOL0     C31215  -0.694   0.483   6.477 -0.2422  0.3247  0.1850
  232MOL0     O31216  -0.740   0.352   6.461  0.2446 -0.6720  0.2209
  232MOL0     C31217  -0.855   0.325   6.529 -0.0618 -0.8314 -0.1011
  232MOL0     C31218  -0.833   0.233   6.627  0.7037 -0.2072  0.2688
  232MOL0     C31219  -0.934   0.194   6.705 -0.3086  0.4163 -0.2786
  232MOL0     C31220  -1.059   0.261   6.686  0.0054  1.1025 -0.6981
  232MOL0     O31221  -1.152   0.223   6.790 -0.7721 -0.1896 -0.2020
  232MOL0     C31222  -1.293   0.269   6.765 -0.6053 -0.8297  0.1733
  232MOL0     C31223  -1.356   0.180   6.651  0.0288 -0.6410  0.0604
  232MOL0     C31224  -1.510   0.216   6.630  0.0429 -0.0157 -0.1709
  232MOL0     C31225  -1.533   0.359   6.620  0.7709  0.0947 -0.0379
  232MOL0     C31226  -1.672   0.390   6.560 -0.8781 -0.6004 -0.9034
  232MOL0     C31227  -1.679   0.360   6.417  0.1187  1.5402  0.4922
  232MOL0     C31228  -1.809   0.391   6.337 -0.5831  0.4458 -0.8209
  232MOL0     C31229  -1.791   0.325   6.208 -0.2113 -0.1739  0.1713
  232MOL0    Cl31230  -1.646   0.388   6.126 -0.1409 -0.1590 -0.6890
  232MOL0     C31231  -1.075   0.373   6.604  0.0539  0.0212  0.8732
  232MOL0     C31232  -0.967   0.397   6.518 -0.6049 -0.2811 -1.2823
  232MOL0     O31233  -0.748   0.565   6.551 -1.0088 -0.2062 -0.7696
  232MOL0     C31234  -0.507   0.638   6.457 -0.5194  0.4471  0.4472
  232MOL0     C31235  -0.392   0.688   6.397  0.1271  0.8899  0.0319
  232MOL0     N31236   0.489   0.555   6.139  0.3382 -0.2002 -0.7749
  232MOL0     N31237   0.566   0.474   6.076 -0.8472  0.2097  0.2707
  232MOL0     C31238   1.365   0.267   5.585  0.9676  0.3094  0.9329
  232MOL0     C31239   1.504   0.295   5.574  0.7305 -0.1386  0.2007
  232MOL0     C31240   1.885   0.475   5.439 -0.4007 -0.4850  0.0511
  232MOL0     C31241   1.926   0.613   5.440 -0.7092  1.1244  0.1038
  232MOL0     C31242   2.065   0.646   5.441 -0.0215  0.1247 -0.7798
  232MOL0     C31243   2.159   0.546   5.432 -0.5705  0.7055 -0.9107
  232MOL0     O31244   2.294   0.589   5.427  0.7489 -0.0441  0.1276
  232MOL0     C31245   2.386   0.500   5.357 -0.7280 -0.0091 -0.2489
  232MOL0     C31246   2.469   0.427   5.456  0.2135 -0.3053  0.8867
  232MOL0     C31247   2.585   0.522   5.502  0.4844  0.2103 -0.6422
  232MOL0     C31248   2.677   0.453   5.598 -0.1098 -0.9323 -0.1724
  232MOL0     C31249   2.792   0.544   5.622  0.9784 -0.3435  0.2557
  232MOL0     C31250   2.902   0.590   5.644  0.3151  0.3681 -0.8501
  232MOL0     C31251   2.121   0.410   5.424  0.0752 -0.1494  0.8379
  232MOL0     C31252   1.981   0.377   5.426  0.2221 -0.9625 -0.5718
  232MOL0     H31253   1.517   0.327   5.240  2.1305  1.7557  1.1396
  232MOL0     H31254   1.261   0.293   5.268  1.2313 -1.9927 -0.7314
  232MOL0     H31255   1.156   0.123   5.667 -0.5545 -1.9321 -0.0517
  232MOL0     H31256   1.061   0.275   5.655  0.3751  0.1262  1.3232
  232MOL0     H31257   1.005   0.011   5.520  1.9629 -0.0271 -0.5945
  232MOL0     H31258   0.920   0.066   5.667 -1.7939  3.0669 -0.0891
  232MOL0     H31259   0.879   0.292   5.509 -0.1486 -0.3044  1.2374
  232MOL0     H31260   0.898   0.169   5.393 -1.4962 -1.6613  0.4269
  232MOL0     H31261   0.664   0.128   5.431 -2.4690  3.8927 -0.2649
  232MOL0     H31262   0.725   0.034   5.568 -2.1425 -0.5889 -2.1354
  232MOL0     H31263   0.650   0.330   5.586 -0.2474 -0.0302  0.1478
  232MOL0     H31264   0.545   0.197   5.632 -0.3690  1.4475  1.4960
  232MOL0     H31265   0.719   0.126   5.796  0.2911 -0.3678 -0.1896
  232MOL0     H31266   0.830   0.250   5.727 -0.1601  1.3318 -0.4956
  232MOL0     H31267   0.732   0.313   5.930 -1.2330 -0.0838  0.9436
  232MOL0     H31268   0.681   0.434   5.800  1.8243 -0.8000 -0.5506
  232MOL0     H31269   0.527   0.214   5.942  1.4421  0.2168  2.1263
  232MOL0     H31270   0.477   0.306   5.795  2.0623  0.3880 -1.2643
  232MOL0     H31271   0.272   0.445   5.924  0.4689 -2.7692  0.2235
  232MOL0     H31272   0.262   0.678   6.222 -0.2454 -1.2875  0.5931
  232MOL0     H31273   0.225   0.725   6.055 -3.3243 -0.5921  0.7294
  232MOL0     H31274   0.137   0.470   6.200 -3.0436  2.3871  4.2490
  232MOL0     H31275   0.078   0.529   6.039 -2.5115  0.9143 -0.0818
  232MOL0     H31276   0.004   0.736   6.155  1.7500  1.3214  1.3646
  232MOL0     H31277   0.055   0.671   6.312  3.6714 -1.3883 -0.6793
  232MOL0     H31278  -0.121   0.471   6.260 -2.0205  0.8556  2.5767
  232MOL0     H31279  -0.164   0.559   6.113 -3.2573  0.5176  1.7231
  232MOL0     H31280  -0.357   0.439   6.170  1.7003 -0.4253  0.5583
  232MOL0     H31281  -0.703   0.350   6.206 -0.9517 -3.4041 -2.2629
  232MOL0     H31282  -0.537   0.339   6.126  2.4977  0.9800  1.8514
  232MOL0     H31283  -0.577   0.245   6.270 -3.5820 -1.8303 -1.0650
  232MOL0     H31284  -0.730   0.202   6.641  1.2316  1.8077  1.1496
  232MOL0     H31285  -0.921   0.117   6.781 -2.7809  1.4384  1.3029
  232MOL0     H31286  -1.347   0.253   6.858  0.0783 -1.1013  0.5327
  232MOL0     H31287  -1.299   0.378   6.749 -3.8150 -0.7098  1.4716
  232MOL0     H31288  -1.322   0.212   6.552  2.0330  1.4933  1.3605
  232MOL0     H31289  -1.348   0.076   6.683  2.3066 -0.2731  0.8134
  232MOL0     H31290  -1.570   0.175   6.712 -0.8242 -4.0319 -2.5360
  232MOL0     H31291  -1.528   0.159   6.538 -0.7711 -0.8969  0.5161
  232MOL0     H31292  -1.539   0.394   6.724  0.6484 -1.2802  0.4461
  232MOL0     H31293  -1.459   0.408   6.556 -0.6400 -1.7933 -3.4044
  232MOL0     H31294  -1.684   0.499   6.565 -2.8905 -0.7228 -1.7975
  232MOL0     H31295  -1.744   0.331   6.617 -0.3454  1.0785  1.6961
  232MOL0     H31296  -1.587   0.395   6.368 -0.3742 -1.0862 -2.6342
  232MOL0     H31297  -1.670   0.252   6.410  1.7119  1.7332 -3.5380
  232MOL0     H31298  -1.813   0.499   6.319  2.5386  0.6487 -0.8095
  232MOL0     H31299  -1.898   0.353   6.389  0.5663 -0.3704  0.6510
  232MOL0     H31300  -1.869   0.362   6.141  0.9220 -0.7659 -1.5431
  232MOL0     H31301  -1.801   0.216   6.207  2.4492 -0.5422  2.6799
  232MOL0     H31302  -1.163   0.436   6.608 -0.5565 -0.8723  2.1872
  232MOL0     H31303  -0.975   0.485   6.456  2.2276 -0.0294 -1.3986
  232MOL0     H31304  -0.536   0.694   6.545 -0.4241 -0.4430  1.0486
  232MOL0     H31305  -0.332   0.772   6.429  0.4664  0.5312  0.3589
  232MOL0     H31306   1.324   0.262   5.686 -2.7161 -1.8016 -0.4595
  232MOL0     H31307   1.559   0.290   5.667 -2.2300  1.0697  2.1448
  232MOL0     H31308   1.863   0.699   5.459 -2.4159 -0.0641  0.0892
  232MOL0     H31309   2.102   0.744   5.470  1.9833 -1.6904  3.8640
  232MOL0     H31310   2.335   0.426   5.293 -1.5834  1.5516 -1.4446
  232MOL0     H31311   2.452   0.554   5.289 -3.9461 -1.6396 -5.2752
  232MOL0     H31312   2.518   0.348   5.399  0.4697 -1.9722  3.2710
  232MOL0     H31313   2.404   0.392   5.536  0.6419 -0.8278  1.0081
  232MOL0     H31314   2.551   0.622   5.531  1.6091  0.5353 -0.3560
  232MOL0     H31315   2.637   0.543   5.408 -1.7571  0.3693 -1.9189
  232MOL0     H31316   2.723   0.366   5.550  2.0038  0.1132 -0.1486
  232MOL0     H31317   2.614   0.425   5.683 -3.7379 -1.8760 -2.8955
  232MOL0     H31318   2.993   0.639   5.670  0.9093 -1.1723  0.1596
  232MOL0     H31319   2.196   0.331   5.419 -0.4981 -0.8576  2.6879
  232MOL0     H31320   1.955   0.272   5.417  1.0645 -1.1429 -0.9797
  233MOL0     O31321   6.924   6.841   3.307  0.4986  0.6267  0.4358
  233MOL0     C31322   6.901   6.776   3.202  0.1656  0.7091 -0.4902
  233MOL0     O31323   6.943   6.651   3.178 -0.7397  0.5206 -0.5397
  233MOL0     C31324   7.031   6.598   3.274  0.8641  0.8042  0.6103
  233MOL0     C31325   6.997   6.492   3.365  0.3327  1.3684 -1.1322
  233MOL0     C31326   7.087   6.470   3.471 -0.0274 -0.6151  0.2932
  233MOL0     C31327   7.201   6.543   3.490 -0.5195 -0.2339 -0.4227
  233MOL0     O31328   7.270   6.534   3.609 -0.2440  0.6921 -0.9149
  233MOL0     C31329   7.408   6.596   3.619  0.5599  0.2238 -0.6594
  233MOL0     C31330   7.464   6.579   3.765 -1.3337 -0.0193  0.1536
  233MOL0     C31331   7.511   6.427   3.755  0.0059 -1.1968  0.3872
  233MOL0     C31332   7.556   6.374   3.888  0.8335  0.4222 -0.0946
  233MOL0     C31333   7.679   6.437   3.942  0.0063  0.2270  0.0674
  233MOL0     C31334   7.705   6.370   4.074 -0.6323  0.0316  0.3547
  233MOL0     C31335   7.802   6.457   4.156  0.6595 -0.0536 -1.1656
  233MOL0     C31336   7.788   6.414   4.304  0.1285  0.4700 -0.2779
  233MOL0     N31337   7.868   6.302   4.354  0.1434 -0.3530  0.8652
  233MOL0     C31338   8.003   6.315   4.398  0.1137 -0.3434  0.1436
  233MOL0     C31339   8.039   6.180   4.408 -0.0129 -0.0078  0.1659
  233MOL0     C31340   8.170   6.115   4.454 -0.2190  0.1920 -0.3945
  233MOL0     C31341   8.287   6.107   4.346  1.4223  0.3241  0.0417
  233MOL0     C31342   8.421   6.059   4.401 -0.1679 -0.1015  0.2260
  233MOL0     C31343   8.427   5.960   4.517  0.7195  0.4828  0.1709
  233MOL0     O31344   8.382   6.001   4.649 -0.2134  0.3195  0.7171
  233MOL0     C31345   8.366   5.899   4.740  0.2871 -0.2267  0.2524
  233MOL0     C31346   8.281   5.922   4.844  0.4718 -0.0167 -0.3939
  233MOL0     C31347   8.273   5.856   4.963 -0.2672  0.6107  0.2377
  233MOL0     C31348   8.199   5.917   5.083  0.2141  0.5150 -0.3387
  233MOL0     C31349   8.347   5.741   4.971  0.0007 -0.6365 -0.5254
  233MOL0     C31350   8.350   5.660   5.085 -0.1341 -0.5591  0.1718
  233MOL0     O31351   8.312   5.532   5.068 -0.6393 -0.7555  1.1726
  233MOL0     C31352   8.272   5.450   5.169  0.1862  0.7083  1.0671
  233MOL0     C31353   8.265   5.482   5.307  1.1618 -0.7858 -0.0623
  233MOL0     C31354   8.187   5.392   5.386 -0.5465 -0.8578 -0.2887
  233MOL0     C31355   8.133   5.275   5.333 -0.5278 -0.0898  0.1290
  233MOL0     O31356   8.046   5.195   5.410 -0.5800  0.0495 -0.7337
  233MOL0     C31357   8.043   5.057   5.381  0.0980 -0.8576 -0.3529
  233MOL0     C31358   7.980   4.977   5.494 -0.1368  0.0998  0.7264
  233MOL0     C31359   7.992   4.831   5.455 -0.3927 -0.7410 -0.2222
  233MOL0     C31360   7.918   4.733   5.555 -0.2501 -0.0803  0.3662
  233MOL0     C31361   7.927   4.593   5.517  0.8806  1.0350  0.0925
  233MOL0     C31362   7.870   4.499   5.621  0.2332 -0.2811 -0.0396
  233MOL0     C31363   7.856   4.356   5.567 -0.0430  0.5711 -0.1842
  233MOL0     C31364   7.803   4.264   5.661 -0.1649  1.5579 -1.0574
  233MOL0    Cl31365   7.931   4.234   5.793 -0.0978  0.3575  0.0255
  233MOL0     C31366   8.165   5.240   5.202 -0.2471 -0.2996  0.3671
  233MOL0     C31367   8.239   5.327   5.121  0.9112  0.6293  0.1308
  233MOL0     O31368   8.401   5.711   5.187  0.0682 -0.0848  0.0554
  233MOL0     C31369   8.435   5.712   4.864 -0.6772 -1.3049 -1.1604
  233MOL0     C31370   8.452   5.793   4.758  0.1946 -0.1610 -0.3469
  233MOL0     N31371   7.929   6.095   4.389  0.5935  0.2945  0.8606
  233MOL0     N31372   7.826   6.168   4.357 -0.4885  0.4502 -0.0796
  233MOL0     C31373   7.239   6.644   3.398  0.5268  0.6377  1.3115
  233MOL0     C31374   7.156   6.667   3.291  0.2621 -0.9736  0.5433
  233MOL0     C31375   6.808   6.832   3.098  0.0387 -0.0009  0.1045
  233MOL0     C31376   6.813   6.789   2.959  0.3736 -0.2867 -0.3212
  233MOL0     C31377   6.734   6.849   2.858 -0.0655 -0.4076 -0.1930
  233MOL0     C31378   6.633   6.929   2.905  0.2450 -0.1330  0.8905
  233MOL0     O31379   6.547   6.966   2.800  0.0971  0.2010 -0.6118
  233MOL0     C31380   6.467   7.084   2.824 -0.2559 -1.2585 -0.7727
  233MOL0     C31381   6.366   7.135   2.723 -0.3392 -0.1852  0.4872
  233MOL0     C31382   6.268   7.028   2.697 -0.2524 -0.7033 -0.0393
  233MOL0     C31383   6.150   7.063   2.608 -0.9166  0.3534  1.3064
  233MOL0     C31384   6.070   6.944   2.580  0.6555  0.5770  0.6285
  233MOL0     C31385   5.987   6.859   2.575 -0.1462  0.2197  0.1431
  233MOL0     C31386   6.629   6.974   3.037  0.0244  0.1732  0.3264
  233MOL0     C31387   6.722   6.936   3.125  0.5023  0.6929 -0.4581
  233MOL0     H31388   6.906   6.434   3.377  2.0246 -1.1877  0.4495
  233MOL0     H31389   7.057   6.385   3.531 -1.8939 -0.6767 -0.6539
  233MOL0     H31390   7.472   6.546   3.546 -0.2234 -0.5193 -0.8521
  233MOL0     H31391   7.392   6.703   3.609 -0.1683  0.5518  2.7964
  233MOL0     H31392   7.547   6.643   3.795 -1.5025  1.2467 -1.8619
  233MOL0     H31393   7.378   6.601   3.830 -0.1142  0.7577  1.5690
  233MOL0     H31394   7.419   6.375   3.727 -0.8766  1.0941 -1.2982
  233MOL0     H31395   7.580   6.406   3.673 -2.3298 -2.7203 -1.3149
  233MOL0     H31396   7.475   6.387   3.960 -0.2975  0.1285 -1.2660
  233MOL0     H31397   7.570   6.267   3.873 -0.7432 -0.0420  1.3701
  233MOL0     H31398   7.765   6.423   3.875  0.6569  0.1881  0.8886
  233MOL0     H31399   7.657   6.543   3.955 -2.5221  0.1213 -2.4265
  233MOL0     H31400   7.611   6.355   4.127  0.3337  1.9183  2.8298
  233MOL0     H31401   7.748   6.273   4.049 -1.8542  0.1789 -2.8761
  233MOL0     H31402   7.909   6.438   4.144  1.0186 -1.1774  2.5478
  233MOL0     H31403   7.780   6.564   4.152  3.0475  0.4503 -2.5025
  233MOL0     H31404   7.684   6.394   4.331  0.8324 -4.7654 -0.3621
  233MOL0     H31405   7.821   6.497   4.368  0.2010  0.5437 -0.4114
  233MOL0     H31406   8.073   6.395   4.420  1.9476 -2.7346  3.9180
  233MOL0     H31407   8.207   6.173   4.539  2.1738  0.2886 -1.4255
  233MOL0     H31408   8.143   6.014   4.483 -1.0346  0.5034 -0.0393
  233MOL0     H31409   8.299   6.205   4.298 -0.8869 -0.0053 -1.3177
  233MOL0     H31410   8.265   6.029   4.273  0.3125  0.7743 -0.1287
  233MOL0     H31411   8.475   6.152   4.422 -3.6304  2.4640 -1.3160
  233MOL0     H31412   8.485   6.015   4.323  0.4557 -0.5428  0.9683
  233MOL0     H31413   8.526   5.914   4.516 -1.2746 -4.4527 -2.1351
  233MOL0     H31414   8.363   5.877   4.486 -0.3542  0.6438  1.8750
  233MOL0     H31415   8.219   6.009   4.825 -0.4938 -0.4610  0.6249
  233MOL0     H31416   8.130   5.994   5.051  0.9284  0.8717 -1.0534
  233MOL0     H31417   8.131   5.850   5.135 -1.3601  0.1559 -2.7181
  233MOL0     H31418   8.270   5.962   5.154  0.5049  0.2733 -0.4735
  233MOL0     H31419   8.304   5.572   5.353 -2.4128  1.9979 -2.0061
  233MOL0     H31420   8.169   5.399   5.492  0.3601  3.3809 -0.2564
  233MOL0     H31421   7.977   5.052   5.293 -0.1143 -0.2455 -0.2339
  233MOL0     H31422   8.142   5.018   5.354 -0.0041 -1.8100  0.5817
  233MOL0     H31423   8.037   4.984   5.587  2.6156 -3.1834 -0.5067
  233MOL0     H31424   7.875   5.000   5.517 -0.3213  0.0276  0.0099
  233MOL0     H31425   8.100   4.814   5.461 -0.4545 -0.6838  1.7945
  233MOL0     H31426   7.953   4.815   5.354  0.2945  0.8836 -0.7769
  233MOL0     H31427   7.962   4.748   5.654 -1.6030 -0.5706  1.0824
  233MOL0     H31428   7.824   4.788   5.566  1.3701  2.6162  1.7186
  233MOL0     H31429   8.029   4.558   5.494 -0.3204 -0.5580 -3.5561
  233MOL0     H31430   7.872   4.577   5.424  0.5633  3.4257 -0.2117
  233MOL0     H31431   7.928   4.521   5.711 -0.4230  1.9283 -0.0816
  233MOL0     H31432   7.771   4.537   5.646 -1.7436 -4.1935 -1.1172
  233MOL0     H31433   7.957   4.327   5.534 -0.7865 -2.3401 -0.1409
  233MOL0     H31434   7.790   4.348   5.481 -0.2620 -4.3030  0.1300
  233MOL0     H31435   7.778   4.167   5.617  2.9821  0.1905 -0.1433
  233MOL0     H31436   7.708   4.305   5.694 -0.0662  0.9962 -0.0181
  233MOL0     H31437   8.149   5.137   5.171  4.2348 -0.8928 -0.5694
  233MOL0     H31438   8.255   5.312   5.015 -4.4713 -1.9506 -0.6750
  233MOL0     H31439   8.510   5.637   4.887 -0.7456 -0.6584  1.4664
  233MOL0     H31440   8.537   5.774   4.693  1.1809 -2.5542  1.4656
  233MOL0     H31441   7.322   6.714   3.399 -1.1042  2.7719 -0.5642
  233MOL0     H31442   7.166   6.758   3.231 -0.5642 -1.8133 -0.9202
  233MOL0     H31443   6.886   6.719   2.917  1.5673  0.4186  0.5177
  233MOL0     H31444   6.749   6.831   2.752 -2.8227 -0.6944 -0.6053
  233MOL0     H31445   6.405   7.064   2.911 -2.1285 -1.5478 -2.1115
  233MOL0     H31446   6.531   7.168   2.853  1.9697 -2.3466 -2.2204
  233MOL0     H31447   6.423   7.164   2.634 -0.2482  2.2002  1.2305
  233MOL0     H31448   6.317   7.225   2.763  1.0868  1.2706 -0.8628
  233MOL0     H31449   6.229   7.006   2.797  2.1786 -1.0782  0.9003
  233MOL0     H31450   6.315   6.938   2.657 -3.1266 -3.2083  1.7642
  233MOL0     H31451   6.187   7.112   2.517 -1.3063  1.7645  1.8674
  233MOL0     H31452   6.085   7.135   2.658 -2.3222 -1.4014  2.0952
  233MOL0     H31453   5.920   6.778   2.559  1.1620 -0.4706 -2.3010
  233MOL0     H31454   6.559   7.055   3.056  1.6836  1.6352  0.3655
  233MOL0     H31455   6.731   6.987   3.221 -0.8277 -1.0432  0.6713
  234MOL0     O31456  10.740   7.019   9.762 -0.0825 -0.3422  0.5955
  234MOL0     C31457  10.645   7.055   9.694  0.0269  0.2807  0.5137
  234MOL0     O31458  10.613   7.005   9.570 -1.0058  0.1079  0.0249
  234MOL0     C31459  10.696   6.907   9.509 -0.3289  0.6265 -0.3444
  234MOL0     C31460  10.833   6.917   9.497  0.2609 -0.3586 -0.7962
  234MOL0     C31461  10.914   6.835   9.427  0.5146  0.7971 -0.3555
  234MOL0     C31462  10.863   6.712   9.378  0.9399 -0.1880  0.1651
  234MOL0     O31463  10.940   6.625   9.305 -0.0359 -0.2092  0.6017
  234MOL0     C31464  10.937   6.495   9.349 -1.2197 -0.3955 -0.5227
  234MOL0     C31465  10.977   6.401   9.235  0.3044  0.3092  0.3083
  234MOL0     C31466  10.868   6.399   9.125  0.3435 -0.7551  0.7079
  234MOL0     C31467  10.891   6.511   9.024 -0.0047 -0.2054 -0.2779
  234MOL0     C31468  10.773   6.534   8.928 -1.0564 -0.0306  0.0561
  234MOL0     C31469  10.639   6.579   9.008  0.3272 -0.3619  0.6568
  234MOL0     C31470  10.532   6.624   8.900 -0.9971 -0.2661  0.8115
  234MOL0     C31471  10.497   6.509   8.812  0.5221  0.2084 -0.6106
  234MOL0     N31472  10.361   6.509   8.761  0.3043  0.5850 -0.3409
  234MOL0     C31473  10.334   6.554   8.636 -0.5504  0.1003  0.2638
  234MOL0     C31474  10.202   6.521   8.617 -0.0417 -0.3812  0.2066
  234MOL0     C31475  10.127   6.524   8.493  0.1208  0.5658 -0.4356
  234MOL0     C31476  10.196   6.465   8.366  0.0763 -0.8097 -0.5148
  234MOL0     C31477  10.214   6.316   8.377 -0.2305 -0.3926  0.6310
  234MOL0     C31478  10.266   6.266   8.241 -0.9655  0.0712  0.4548
  234MOL0     O31479  10.322   6.131   8.245 -0.3164 -0.7627  0.5067
  234MOL0     C31480  10.248   6.014   8.246  0.7062  0.3177  0.6057
  234MOL0     C31481  10.112   6.003   8.263  0.1677  0.4710  0.3183
  234MOL0     C31482  10.055   5.871   8.277  0.4707 -0.2960 -0.2321
  234MOL0     C31483   9.912   5.862   8.243  0.3544 -0.7109 -1.2145
  234MOL0     C31484  10.134   5.752   8.270  1.0095  0.3202  0.3863
  234MOL0     C31485  10.079   5.608   8.284  1.1816  0.5188 -0.0032
  234MOL0     O31486   9.958   5.586   8.354 -0.5905 -0.3633 -0.2938
  234MOL0     C31487   9.923   5.467   8.397  1.0692 -0.2690  0.4034
  234MOL0     C31488   9.999   5.352   8.408 -0.3096  0.3944  0.0366
  234MOL0     C31489   9.948   5.232   8.462 -0.1536 -0.0399 -0.2080
  234MOL0     C31490   9.821   5.223   8.507  0.7449 -0.2372  0.0921
  234MOL0     O31491   9.779   5.099   8.554  0.8036 -0.3330 -0.2398
  234MOL0     C31492   9.649   5.053   8.571 -0.2922  0.6370 -0.7376
  234MOL0     C31493   9.634   4.905   8.587  0.6082  0.0525 -0.5880
  234MOL0     C31494   9.680   4.887   8.731 -0.3649 -0.2616 -0.2488
  234MOL0     C31495   9.694   4.735   8.755 -0.2548 -0.1450 -0.7618
  234MOL0     C31496   9.729   4.709   8.897 -0.4722  0.1026 -0.5436
  234MOL0     C31497   9.747   4.572   8.948  0.1682  0.0121  0.0536
  234MOL0     C31498   9.880   4.525   8.952 -0.2451  0.5260 -0.1836
  234MOL0     C31499   9.890   4.372   8.982  0.4856 -0.0816  0.0770
  234MOL0    Cl31500   9.841   4.317   9.155  0.3058 -0.0303  0.6903
  234MOL0     C31501   9.738   5.336   8.501 -0.4289  0.8553 -1.1016
  234MOL0     C31502   9.784   5.450   8.441 -0.7277  0.4210 -0.6711
  234MOL0     O31503  10.136   5.528   8.212 -0.3135  0.0776 -0.1017
  234MOL0     C31504  10.266   5.768   8.260 -0.0403 -0.0664 -0.1660
  234MOL0     C31505  10.321   5.896   8.242  0.7877 -0.2361  0.7033
  234MOL0     N31506  10.149   6.461   8.728  0.2034  0.2152 -1.0940
  234MOL0     N31507  10.252   6.444   8.817  0.6343 -0.9146  0.2411
  234MOL0     C31508  10.723   6.702   9.381  0.5744  0.8748 -0.0742
  234MOL0     C31509  10.639   6.798   9.443 -0.6702 -0.3644  0.3404
  234MOL0     C31510  10.548   7.152   9.746  0.2104  0.4295 -0.3944
  234MOL0     C31511  10.580   7.226   9.866  0.2250 -1.0069  0.1596
  234MOL0     C31512  10.499   7.328   9.902  0.5413 -0.2678 -0.4265
  234MOL0     C31513  10.374   7.353   9.844 -0.3361 -0.3558 -0.4055
  234MOL0     O31514  10.269   7.423   9.890 -0.2220 -0.4170 -0.3511
  234MOL0     C31515  10.248   7.411  10.027 -0.3739  0.0154 -0.5167
  234MOL0     C31516  10.108   7.471  10.077 -0.0521  0.3727  0.3273
  234MOL0     C31517   9.991   7.430  10.004 -0.4583  0.1181 -0.1534
  234MOL0     C31518   9.963   7.277   9.999  0.2220 -0.3191 -0.4453
  234MOL0     C31519   9.966   7.218  10.132  0.0696  0.3830 -0.6703
  234MOL0     C31520   9.983   7.157  10.233  0.5662 -0.1704 -0.1634
  234MOL0     C31521  10.350   7.282   9.726 -0.4371 -0.5100 -0.2639
  234MOL0     C31522  10.434   7.185   9.672  0.2000  0.3882 -0.0109
  234MOL0     H31523  10.881   6.998   9.551 -0.6470 -1.1753  1.3443
  234MOL0     H31524  11.020   6.858   9.424  1.3422 -1.7168  3.1429
  234MOL0     H31525  11.009   6.483   9.430  1.1104 -1.7503 -2.6672
  234MOL0     H31526  10.838   6.468   9.388 -1.0683 -1.3538 -0.7956
  234MOL0     H31527  11.073   6.428   9.191  0.4021  0.0336  0.3560
  234MOL0     H31528  10.994   6.299   9.269 -1.1090  0.0000  0.1495
  234MOL0     H31529  10.882   6.308   9.065 -1.1453  0.0805 -1.0070
  234MOL0     H31530  10.769   6.419   9.166  0.0856  2.0827 -1.0291
  234MOL0     H31531  10.909   6.604   9.078  0.5475  0.0574 -0.9154
  234MOL0     H31532  10.976   6.479   8.964 -1.4777 -4.7077 -0.3406
  234MOL0     H31533  10.794   6.615   8.858  3.2173  0.5626  1.7415
  234MOL0     H31534  10.757   6.439   8.875 -0.6971 -0.2531  0.3440
  234MOL0     H31535  10.585   6.516   9.080  1.8077  0.0672  2.2166
  234MOL0     H31536  10.678   6.663   9.065  3.8364  0.9403 -3.1936
  234MOL0     H31537  10.439   6.662   8.944 -1.6630  0.0068 -0.7597
  234MOL0     H31538  10.575   6.703   8.836 -1.6446 -0.7036 -0.1924
  234MOL0     H31539  10.512   6.411   8.860  0.0476 -1.3446 -3.4073
  234MOL0     H31540  10.561   6.509   8.723 -0.2083  4.7307 -1.3697
  234MOL0     H31541  10.403   6.590   8.560 -2.3052  0.1375 -1.3564
  234MOL0     H31542  10.032   6.470   8.499 -0.3536  1.4265  0.0716
  234MOL0     H31543  10.112   6.631   8.475  0.2261  0.1310 -3.6966
  234MOL0     H31544  10.292   6.518   8.358 -0.4973  0.6623  1.5190
  234MOL0     H31545  10.138   6.490   8.277  2.8612  0.9287 -1.9753
  234MOL0     H31546  10.120   6.267   8.404 -0.7757 -1.4330 -2.7214
  234MOL0     H31547  10.282   6.292   8.460 -1.8505 -0.2825  2.0535
  234MOL0     H31548  10.338   6.340   8.207 -0.8772  0.3735  1.2775
  234MOL0     H31549  10.188   6.260   8.164  0.3174 -2.6045 -0.7804
  234MOL0     H31550  10.046   6.089   8.255 -0.3365  0.1286  0.6834
  234MOL0     H31551   9.844   5.811   8.312  0.4081  1.2809  0.3839
  234MOL0     H31552   9.868   5.961   8.230  0.8681 -0.2811  0.0963
  234MOL0     H31553   9.887   5.827   8.142 -2.1625  2.7872 -2.0019
  234MOL0     H31554  10.101   5.365   8.373  1.2287  0.0843  3.9603
  234MOL0     H31555   9.995   5.134   8.467  0.4693  0.1739 -1.4362
  234MOL0     H31556   9.602   5.100   8.657  0.0760 -2.7756  1.5071
  234MOL0     H31557   9.604   5.074   8.473  1.1564  1.6212 -1.2354
  234MOL0     H31558   9.534   4.863   8.570  1.4735 -1.5602 -2.0079
  234MOL0     H31559   9.700   4.846   8.523  1.1445 -1.3944  1.1971
  234MOL0     H31560   9.605   4.926   8.800  1.2767  1.4304  0.6817
  234MOL0     H31561   9.774   4.938   8.754  0.8729 -2.6536  0.2649
  234MOL0     H31562   9.598   4.685   8.740 -0.1135 -0.8157  0.4041
  234MOL0     H31563   9.781   4.694   8.702  0.7995 -1.1616  1.5866
  234MOL0     H31564   9.660   4.759   8.965  0.4363 -2.8920  2.8169
  234MOL0     H31565   9.820   4.768   8.917  0.1066 -0.5708 -1.1278
  234MOL0     H31566   9.703   4.565   9.048 -3.1765  0.1772 -1.2769
  234MOL0     H31567   9.691   4.500   8.888 -0.5859  0.2795  0.4223
  234MOL0     H31568   9.924   4.580   9.036 -2.0336  2.3274 -0.3652
  234MOL0     H31569   9.927   4.565   8.862 -1.1791  1.2564 -0.3642
  234MOL0     H31570   9.992   4.333   8.978  0.0334 -1.5804  1.7035
  234MOL0     H31571   9.827   4.318   8.911 -0.1684 -0.2378  0.7557
  234MOL0     H31572   9.636   5.327   8.536 -0.8502  1.5647 -2.1090
  234MOL0     H31573   9.711   5.529   8.429 -0.3586  1.3165  2.2594
  234MOL0     H31574  10.338   5.687   8.251 -0.3037 -0.3473  0.2544
  234MOL0     H31575  10.426   5.912   8.222  0.2659  0.9484 -1.3397
  234MOL0     H31576  10.672   6.619   9.333  2.0676 -3.6741  5.1831
  234MOL0     H31577  10.533   6.783   9.424 -0.3285 -1.3091 -1.0428
  234MOL0     H31578  10.663   7.195   9.929  1.3024 -0.3999 -0.9284
  234MOL0     H31579  10.528   7.379   9.993  0.3558  0.7248 -0.9029
  234MOL0     H31580  10.263   7.306  10.056 -2.2315 -1.3648 -3.8655
  234MOL0     H31581  10.328   7.458  10.084 -0.6068  0.4544 -0.5484
  234MOL0     H31582  10.108   7.581  10.079  3.4836  0.4846 -0.3866
  234MOL0     H31583  10.099   7.460  10.186 -0.2413  0.5839  0.3344
  234MOL0     H31584  10.009   7.451   9.898 -2.3769 -0.0615 -0.5424
  234MOL0     H31585   9.906   7.484  10.047 -0.7898  1.1804 -2.0428
  234MOL0     H31586  10.039   7.229   9.938 -1.1038  2.6741 -5.0102
  234MOL0     H31587   9.871   7.252   9.945 -0.7361  3.3072 -0.7819
  234MOL0     H31588  10.003   7.102  10.322 -0.2864  0.6188  0.5254
  234MOL0     H31589  10.261   7.317   9.674 -0.7170 -1.3041 -0.3319
  234MOL0     H31590  10.420   7.140   9.574 -2.8206 -1.2305  1.0569
  235MOL0     O31591   9.167   8.867   5.225 -0.7767 -0.3947 -0.1130
  235MOL0     C31592   9.163   8.834   5.342  0.0866  0.7758  0.4100
  235MOL0     O31593   9.045   8.810   5.414  0.4680 -0.4313 -0.2068
  235MOL0     C31594   8.922   8.830   5.370 -0.2233  0.2891 -0.2234
  235MOL0     C31595   8.821   8.808   5.469 -0.1123 -0.2313 -0.5867
  235MOL0     C31596   8.688   8.816   5.435 -0.0052  0.5878  0.0181
  235MOL0     C31597   8.653   8.855   5.304 -0.2144  0.1147 -0.4634
  235MOL0     O31598   8.521   8.884   5.258  0.3325  0.0744 -0.3041
  235MOL0     C31599   8.416   8.817   5.341  0.6453 -0.2774  0.2571
  235MOL0     C31600   8.280   8.884   5.301  0.2086  0.4658  0.1255
  235MOL0     C31601   8.238   8.846   5.156 -0.0613  0.4208  0.1215
  235MOL0     C31602   8.110   8.919   5.118 -1.1249  0.1563 -0.0222
  235MOL0     C31603   7.997   8.888   5.218  0.2691 -0.5189  0.2975
  235MOL0     C31604   7.884   8.988   5.174  0.3955  0.2783  0.1682
  235MOL0     C31605   7.739   8.970   5.233  0.5325 -0.2152 -0.0907
  235MOL0     C31606   7.723   8.990   5.387  0.3470  0.0531 -0.0457
  235MOL0     N31607   7.650   9.113   5.428 -0.1165 -0.3720  0.3442
  235MOL0     C31608   7.683   9.234   5.392 -0.4054  0.2779  0.9789
  235MOL0     C31609   7.584   9.316   5.443 -0.1192  0.1487 -0.8139
  235MOL0     C31610   7.561   9.464   5.457 -0.1968  0.1145  0.9833
  235MOL0     C31611   7.635   9.530   5.566 -0.4589 -0.3737 -0.2395
  235MOL0     C31612   7.632   9.694   5.552 -0.2964 -0.1015  0.8067
  235MOL0     C31613   7.486   9.729   5.531 -0.3568 -0.2165 -0.4887
  235MOL0     O31614   7.403   9.686   5.632  0.5260  0.6862  0.4391
  235MOL0     C31615   7.285   9.744   5.634  0.2538  0.5204 -0.4568
  235MOL0     C31616   7.178   9.678   5.589  0.2601 -0.6374 -0.6179
  235MOL0     C31617   7.046   9.728   5.609 -0.6938  0.4647  0.4725
  235MOL0     C31618   6.943   9.634   5.539  1.2587 -0.4770  0.1995
  235MOL0     C31619   7.024   9.858   5.665 -0.8012 -0.1299 -0.3314
  235MOL0     C31620   6.889   9.919   5.679 -0.3269 -1.0745 -1.0300
  235MOL0     O31621   6.776   9.847   5.679 -0.3109 -0.0011  0.5224
  235MOL0     C31622   6.650   9.887   5.691  0.4163  0.3090 -0.2659
  235MOL0     C31623   6.557   9.824   5.771 -1.0677 -0.0202  0.3470
  235MOL0     C31624   6.423   9.845   5.757  0.9510  0.5075 -0.8414
  235MOL0     C31625   6.372   9.941   5.673  0.2517  0.2156  0.9495
  235MOL0     O31626   6.250   9.993   5.667  0.1376  0.5707  0.1520
  235MOL0     C31627   6.143   9.941   5.753 -0.5385 -0.3886 -0.8148
  235MOL0     C31628   6.010  10.001   5.728  0.2639 -0.0964 -0.0407
  235MOL0     C31629   5.903   9.947   5.834 -0.0063  0.3442  0.7361
  235MOL0     C31630   5.946   9.989   5.970 -0.6319  0.8015 -0.1664
  235MOL0     C31631   5.836   9.933   6.064 -0.7565  0.5594  0.2594
  235MOL0     C31632   5.713  10.020   6.070 -0.3281 -0.7217 -0.8050
  235MOL0     C31633   5.630   9.984   6.192 -0.2435 -0.5722 -0.9675
  235MOL0     C31634   5.505  10.076   6.194 -0.0980 -0.7761  1.1828
  235MOL0    Cl31635   5.555  10.242   6.237  0.0077 -0.1269  0.2861
  235MOL0     C31636   6.464  10.007   5.591 -0.7589 -0.6501  0.6654
  235MOL0     C31637   6.604   9.983   5.599  0.3248 -0.3229  0.1059
  235MOL0     O31638   6.894  10.040   5.704  0.6045 -0.3333  0.6100
  235MOL0     C31639   7.142   9.921   5.710 -0.7239 -0.8995 -0.4245
  235MOL0     C31640   7.272   9.871   5.692 -0.8710 -0.0020 -0.4191
  235MOL0     N31641   7.481   9.230   5.497 -0.4499 -0.0109  0.3743
  235MOL0     N31642   7.534   9.112   5.494  0.3740  0.3217  0.4584
  235MOL0     C31643   8.747   8.868   5.202 -0.5389 -0.1209  0.2551
  235MOL0     C31644   8.878   8.856   5.235 -0.0429 -0.2995 -0.0659
  235MOL0     C31645   9.280   8.830   5.426 -0.0984 -0.4669  0.3326
  235MOL0     C31646   9.398   8.875   5.372 -0.6156  0.9538  0.8404
  235MOL0     C31647   9.508   8.907   5.458  0.5486 -0.2803 -0.9942
  235MOL0     C31648   9.504   8.881   5.593 -0.1675 -0.3805 -0.0973
  235MOL0     O31649   9.614   8.885   5.682 -1.2460 -0.1715 -0.3675
  235MOL0     C31650   9.609   8.980   5.787  0.3474  0.1712 -0.3330
  235MOL0     C31651   9.726   9.073   5.794  0.3070  0.5392 -0.5136
  235MOL0     C31652   9.729   9.162   5.673  0.6302  0.3715 -0.2025
  235MOL0     C31653   9.855   9.256   5.679 -0.1688 -0.8540 -0.5062
  235MOL0     C31654   9.845   9.375   5.591 -1.4362 -0.0239  0.1445
  235MOL0     C31655   9.864   9.460   5.507  0.5188 -0.3617  0.3229
  235MOL0     C31656   9.393   8.816   5.639  0.1615 -0.4703  0.0979
  235MOL0     C31657   9.277   8.805   5.562  1.1955 -0.4576  0.0357
  235MOL0     H31658   8.842   8.777   5.571 -0.0125 -3.9842 -1.5961
  235MOL0     H31659   8.612   8.799   5.511 -0.5236 -3.0337 -1.1260
  235MOL0     H31660   8.417   8.708   5.324  2.4675 -0.3412  0.6242
  235MOL0     H31661   8.428   8.841   5.447 -2.0767 -0.0375  0.6015
  235MOL0     H31662   8.211   8.837   5.372  2.4996 -0.9746  1.5295
  235MOL0     H31663   8.275   8.989   5.331 -2.5719  0.6050 -0.5180
  235MOL0     H31664   8.316   8.885   5.089 -1.1375  1.0353 -0.8052
  235MOL0     H31665   8.212   8.740   5.162  0.7493  0.2611  1.0140
  235MOL0     H31666   8.127   9.027   5.128 -1.4825  0.1240  1.0583
  235MOL0     H31667   8.077   8.887   5.019 -0.2318 -0.7743 -0.0327
  235MOL0     H31668   7.951   8.789   5.214 -3.3845  0.9774  1.2696
  235MOL0     H31669   8.031   8.910   5.319  2.0840 -0.2322 -0.3317
  235MOL0     H31670   7.890   9.091   5.211 -4.3485  0.3697  1.3798
  235MOL0     H31671   7.882   8.990   5.065  0.5876 -1.2133  0.1183
  235MOL0     H31672   7.665   9.035   5.186  1.4964  1.5259  0.7346
  235MOL0     H31673   7.700   8.873   5.199 -2.1830 -0.0647  2.2523
  235MOL0     H31674   7.827   8.995   5.420  1.5193  1.6071 -3.5534
  235MOL0     H31675   7.676   8.905   5.438  1.0685  2.2519  4.9127
  235MOL0     H31676   7.781   9.259   5.350 -0.9550  1.7150  0.4890
  235MOL0     H31677   7.598   9.509   5.364 -1.0200 -0.0614  0.5583
  235MOL0     H31678   7.455   9.490   5.455 -0.1277  0.3521 -0.1398
  235MOL0     H31679   7.744   9.522   5.576 -0.3841  2.0088  2.3975
  235MOL0     H31680   7.593   9.512   5.665 -0.2012  0.9108  0.1215
  235MOL0     H31681   7.677   9.728   5.458 -1.4365 -0.4316  0.1173
  235MOL0     H31682   7.677   9.751   5.634  0.2277  1.4537 -0.5061
  235MOL0     H31683   7.453   9.705   5.430  1.1883  1.4083 -1.4309
  235MOL0     H31684   7.485   9.838   5.539  2.0577 -0.1452 -0.5118
  235MOL0     H31685   7.200   9.577   5.556 -1.5735 -2.7624  3.7939
  235MOL0     H31686   6.934   9.654   5.432 -2.1756 -1.4496  0.1924
  235MOL0     H31687   6.966   9.528   5.548 -4.0530 -2.0141 -0.7904
  235MOL0     H31688   6.842   9.630   5.580 -0.1584  0.1527 -2.8994
  235MOL0     H31689   6.586   9.736   5.829 -1.4321  1.6178  3.2369
  235MOL0     H31690   6.362   9.779   5.819  0.1943  0.0881 -2.0112
  235MOL0     H31691   6.131   9.832   5.744  1.5939 -0.5541 -2.3141
  235MOL0     H31692   6.178   9.953   5.856 -1.1522 -0.6622 -0.5624
  235MOL0     H31693   6.022  10.105   5.757 -0.8911 -0.3008  1.2225
  235MOL0     H31694   5.982   9.980   5.624 -0.5645 -2.8966  0.6528
  235MOL0     H31695   5.898   9.838   5.825  0.7771  0.4013 -0.6747
  235MOL0     H31696   5.800   9.981   5.819  0.1074  1.0213  1.4183
  235MOL0     H31697   6.043   9.943   5.991 -0.7923 -0.9952 -2.8761
  235MOL0     H31698   5.964  10.095   5.987  0.0033  0.5055  1.0840
  235MOL0     H31699   5.889   9.936   6.160  2.7844  2.3699 -1.5778
  235MOL0     H31700   5.800   9.836   6.030 -1.9581  1.2444 -0.4898
  235MOL0     H31701   5.730  10.126   6.093  2.0642 -1.1281 -0.4221
  235MOL0     H31702   5.651  10.014   5.980 -0.8774 -1.8017 -0.3715
  235MOL0     H31703   5.675  10.001   6.290 -0.0919 -1.0584 -0.9521
  235MOL0     H31704   5.586   9.884   6.186 -1.7048 -0.3818  3.1783
  235MOL0     H31705   5.425  10.054   6.267 -1.9942  1.8667  0.0286
  235MOL0     H31706   5.467  10.078   6.092 -0.0203 -0.5219  1.1597
  235MOL0     H31707   6.435  10.090   5.526  2.2431 -0.3096 -0.3855
  235MOL0     H31708   6.670  10.047   5.542 -0.1268  1.0366  1.0695
  235MOL0     H31709   7.137  10.019   5.756 -1.7486 -1.5166  0.8315
  235MOL0     H31710   7.352   9.936   5.726 -0.7291 -1.7500  2.9937
  235MOL0     H31711   8.716   8.883   5.099  3.2754 -1.3968 -1.2264
  235MOL0     H31712   8.947   8.874   5.153 -1.0969 -2.1631 -1.4540
  235MOL0     H31713   9.412   8.905   5.268 -0.7792 -1.0932  0.1692
  235MOL0     H31714   9.599   8.960   5.429  0.5084  0.9460  0.9601
  235MOL0     H31715   9.520   9.044   5.785 -0.4491 -0.8466  0.6620
  235MOL0     H31716   9.601   8.918   5.877  1.6148 -0.7517 -0.8267
  235MOL0     H31717   9.816   9.011   5.792  2.5288  3.5334  0.3934
  235MOL0     H31718   9.720   9.131   5.886 -0.8052  1.0876 -0.9184
  235MOL0     H31719   9.637   9.220   5.664  1.0303  1.2621  1.1460
  235MOL0     H31720   9.726   9.100   5.583 -2.1388 -1.0162  0.7679
  235MOL0     H31721   9.943   9.199   5.648 -0.1179 -0.0906 -1.8741
  235MOL0     H31722   9.873   9.293   5.780  1.4861  2.5354 -1.8536
  235MOL0     H31723   9.890   9.550   5.455 -0.2905  0.9324  2.0174
  235MOL0     H31724   9.380   8.788   5.744 -4.2461 -1.2205 -0.4459
  235MOL0     H31725   9.185   8.765   5.601  1.6152 -2.0028 -0.5094
  236MOL0     O31726   5.116   9.034  10.471 -0.4811 -0.0789  0.0712
  236MOL0     C31727   5.224   9.084  10.500  0.4075 -0.1579 -0.8772
  236MOL0     O31728   5.314   9.141  10.418 -0.1998  0.9230  0.2500
  236MOL0     C31729   5.276   9.143  10.285 -1.0589 -1.0096 -0.7139
  236MOL0     C31730   5.220   9.035  10.208  0.4073  0.1246 -0.1184
  236MOL0     C31731   5.181   9.061  10.076 -0.2857  1.1534 -0.9404
  236MOL0     C31732   5.188   9.187  10.015 -0.6326 -0.5374 -0.1858
  236MOL0     O31733   5.139   9.197   9.887  0.4174  0.1601 -0.0538
  236MOL0     C31734   5.134   9.324   9.827 -0.5020  0.2572 -0.0833
  236MOL0     C31735   5.056   9.300   9.699  0.4328  0.9429  0.0921
  236MOL0     C31736   4.999   9.431   9.641 -0.5035  0.3297 -0.0403
  236MOL0     C31737   4.905   9.402   9.523 -0.3703 -0.4907 -0.1770
  236MOL0     C31738   4.850   9.523   9.449 -0.0129  0.3572  0.1166
  236MOL0     C31739   4.741   9.475   9.359  0.1219  0.4996  0.2180
  236MOL0     C31740   4.669   9.580   9.284  0.3513 -0.2265 -1.3590
  236MOL0     C31741   4.550   9.526   9.204 -0.3750  0.0942 -0.2552
  236MOL0     N31742   4.485   9.643   9.135 -0.2092 -0.2778  1.4371
  236MOL0     C31743   4.353   9.647   9.098  0.0046 -0.8991  0.2595
  236MOL0     C31744   4.336   9.772   9.046  0.3585  0.9191 -0.9092
  236MOL0     C31745   4.216   9.835   9.003 -0.3648  0.2385 -0.6675
  236MOL0     C31746   4.151   9.753   8.892 -1.1394  0.4747 -0.4724
  236MOL0     C31747   4.047   9.833   8.813  0.1542 -0.0544 -0.6726
  236MOL0     C31748   4.003   9.765   8.683 -0.0459  0.1556 -1.1097
  236MOL0     O31749   3.879   9.691   8.685  0.1434  0.0869 -0.5765
  236MOL0     C31750   3.760   9.760   8.679  0.4047 -0.1225  0.2510
  236MOL0     C31751   3.761   9.895   8.653  0.2830 -0.0677 -0.1636
  236MOL0     C31752   3.636   9.956   8.620  0.0211 -1.0263  0.1568
  236MOL0     C31753   3.640  10.107   8.603  0.0456  0.1712  0.3811
  236MOL0     C31754   3.512   9.890   8.618  0.0048  0.0360 -0.3770
  236MOL0     C31755   3.377   9.953   8.595  0.3468 -0.4148  0.3461
  236MOL0     O31756   3.365  10.091   8.602  0.0998  0.4327  0.1397
  236MOL0     C31757   3.256  10.158   8.562 -0.0009  0.3209  0.6780
  236MOL0     C31758   3.244  10.278   8.625 -0.7458 -0.1665 -0.1674
  236MOL0     C31759   3.141  10.372   8.599 -1.0829 -0.2149 -0.1268
  236MOL0     C31760   3.046  10.336   8.504 -0.5866 -0.1471 -0.4315
  236MOL0     O31761   2.936  10.408   8.465 -0.8837 -0.1949 -0.5414
  236MOL0     C31762   2.910  10.531   8.538 -0.2167 -0.5886 -0.5706
  236MOL0     C31763   2.775  10.595   8.515 -0.2029  0.8085 -0.7009
  236MOL0     C31764   2.667  10.496   8.567 -0.1842 -0.1111 -0.4905
  236MOL0     C31765   2.610  10.415   8.458 -0.0577  0.8280 -0.6563
  236MOL0     C31766   2.489  10.321   8.478 -0.4152 -0.3524 -0.1122
  236MOL0     C31767   2.472  10.255   8.620 -1.1687 -0.1587  0.2331
  236MOL0     C31768   2.338  10.177   8.621  0.2923  0.6725 -0.3475
  236MOL0     C31769   2.317  10.062   8.519 -0.1963 -0.5855  0.8127
  236MOL0    Cl31770   2.151  10.021   8.512 -0.1323 -0.5036 -0.2261
  236MOL0     C31771   3.047  10.209   8.451  0.1306  0.3085 -0.4685
  236MOL0     C31772   3.158  10.120   8.479 -0.4054  0.5772 -0.1314
  236MOL0     O31773   3.285   9.875   8.560 -0.4555 -0.6365  0.0323
  236MOL0     C31774   3.513   9.747   8.649 -0.0364 -0.8740 -0.2709
  236MOL0     C31775   3.642   9.684   8.668  0.4067  0.6143 -0.3851
  236MOL0     N31776   4.461   9.831   9.028  0.3264 -0.0293  0.3289
  236MOL0     N31777   4.547   9.760   9.093 -0.6389  0.3675 -0.1934
  236MOL0     C31778   5.255   9.289  10.084 -0.3931  1.4029  0.4902
  236MOL0     C31779   5.292   9.271  10.218  0.4111 -0.1284  0.8993
  236MOL0     C31780   5.256   9.066  10.650  0.0739  0.8607  0.2541
  236MOL0     C31781   5.399   9.068  10.695  0.5595  1.6538 -0.2176
  236MOL0     C31782   5.433   9.060  10.832  0.1077 -0.2640  0.8949
  236MOL0     C31783   5.336   9.039  10.927 -0.7850  0.1156  0.0169
  236MOL0     O31784   5.378   9.022  11.063 -0.9929  0.1855  0.2223
  236MOL0     C31785   5.481   9.113  11.105 -0.4220 -0.9040 -0.5060
  236MOL0     C31786   5.481   9.114  11.262  0.2153  0.4774 -0.0802
  236MOL0     C31787   5.548   8.987  11.328  0.9004  0.0391  0.8891
  236MOL0     C31788   5.634   9.021  11.449 -0.2954  0.2397  0.0186
  236MOL0     C31789   5.575   9.097  11.553  0.2858  0.5094 -0.2117
  236MOL0     C31790   5.523   9.170  11.631  0.0696 -0.2150  0.4255
  236MOL0     C31791   5.205   9.028  10.886 -0.0552  0.3763  0.2540
  236MOL0     C31792   5.163   9.051  10.753  0.1627 -0.2183 -0.1726
  236MOL0     H31793   5.206   8.942  10.261 -0.3063 -1.5515 -2.9857
  236MOL0     H31794   5.124   8.978  10.035  0.0657 -0.0029  0.8144
  236MOL0     H31795   5.083   9.392   9.897 -1.7309 -1.9502  1.2741
  236MOL0     H31796   5.238   9.352   9.811 -0.1282  1.2261  3.1584
  236MOL0     H31797   5.118   9.244   9.628 -2.0183 -0.6775 -0.9186
  236MOL0     H31798   4.967   9.242   9.727 -0.9126  1.6631 -2.3513
  236MOL0     H31799   4.929   9.472   9.714 -1.8700  0.3871 -1.3317
  236MOL0     H31800   5.086   9.490   9.609 -0.6698 -0.4914 -2.2028
  236MOL0     H31801   4.958   9.342   9.448  0.1817  0.0394 -0.2201
  236MOL0     H31802   4.821   9.346   9.564 -0.7865  0.8391  0.8763
  236MOL0     H31803   4.800   9.588   9.521 -1.7018 -1.5559  0.7479
  236MOL0     H31804   4.929   9.570   9.389 -0.7056 -2.2296 -3.0842
  236MOL0     H31805   4.771   9.398   9.287 -2.2926  0.1209 -0.4789
  236MOL0     H31806   4.675   9.419   9.425  1.9021 -5.0966 -2.1237
  236MOL0     H31807   4.618   9.644   9.357 -0.1715 -2.2032  0.1045
  236MOL0     H31808   4.731   9.646   9.223 -1.1124  2.0270 -0.5444
  236MOL0     H31809   4.479   9.470   9.265 -1.2373  1.6336  0.2049
  236MOL0     H31810   4.584   9.452   9.131 -1.6430 -1.1750  0.3882
  236MOL0     H31811   4.280   9.569   9.115  1.0502 -1.9341  0.0515
  236MOL0     H31812   4.143   9.848   9.084 -1.2594 -1.5457 -1.1462
  236MOL0     H31813   4.241   9.928   8.950 -0.3156  0.1903 -0.7294
  236MOL0     H31814   4.089   9.670   8.927  0.9134 -0.8134  0.2616
  236MOL0     H31815   4.227   9.705   8.830 -0.7999  0.4102 -0.0071
  236MOL0     H31816   4.100   9.927   8.794 -0.7414  0.3833 -1.0427
  236MOL0     H31817   3.956   9.859   8.867  1.9660  2.2165  1.5839
  236MOL0     H31818   4.089   9.703   8.653  0.2120 -0.2618  0.4017
  236MOL0     H31819   3.996   9.838   8.601 -0.4000  1.8631  0.3743
  236MOL0     H31820   3.848   9.959   8.662  1.6329 -1.6465 -1.4288
  236MOL0     H31821   3.740  10.142   8.576  0.1705  1.9332  2.8338
  236MOL0     H31822   3.577  10.140   8.520 -1.6787  2.0552  2.3195
  236MOL0     H31823   3.605  10.161   8.691 -1.3073 -0.1463  0.0692
  236MOL0     H31824   3.321  10.309   8.695 -0.2131  1.0205 -1.2080
  236MOL0     H31825   3.142  10.459   8.664 -0.2387 -0.8552  0.7521
  236MOL0     H31826   2.930  10.511   8.644 -2.9473 -1.6253 -0.1786
  236MOL0     H31827   2.984  10.608   8.512 -0.7831  1.4248  3.0660
  236MOL0     H31828   2.775  10.687   8.574  1.0600  0.8421 -0.7113
  236MOL0     H31829   2.777  10.636   8.414 -1.7325  0.3292 -0.9426
  236MOL0     H31830   2.581  10.553   8.604 -1.4173 -3.0411  1.5005
  236MOL0     H31831   2.701  10.430   8.647  0.6196  1.3667  0.4354
  236MOL0     H31832   2.569  10.468   8.372 -0.6085 -1.8957 -2.1845
  236MOL0     H31833   2.693  10.364   8.409 -0.3808 -1.5883  1.1327
  236MOL0     H31834   2.490  10.243   8.402  0.8585  0.3160 -0.8189
  236MOL0     H31835   2.398  10.380   8.460 -0.7734 -1.7603 -3.8966
  236MOL0     H31836   2.561  10.197   8.644 -0.5047  0.7693  0.0876
  236MOL0     H31837   2.456  10.332   8.696  0.6179 -1.2470  1.8069
  236MOL0     H31838   2.256  10.249   8.628 -0.4277 -0.2459  1.1556
  236MOL0     H31839   2.330  10.123   8.715 -0.2776 -0.9821 -1.2993
  236MOL0     H31840   2.382   9.976   8.539  0.1945 -0.1052  1.6560
  236MOL0     H31841   2.344  10.094   8.418  0.5769 -2.4872  0.3629
  236MOL0     H31842   2.968  10.183   8.381 -2.6749  4.2612  0.8990
  236MOL0     H31843   3.150  10.026   8.425  0.3046 -1.1653  2.5821
  236MOL0     H31844   3.428   9.679   8.654  0.1991 -1.1146  0.6706
  236MOL0     H31845   3.655   9.577   8.656  1.3753  0.3837  2.1924
  236MOL0     H31846   5.278   9.384  10.036  3.2821  0.1666 -0.5216
  236MOL0     H31847   5.343   9.350  10.272  2.9068  0.0571 -1.4845
  236MOL0     H31848   5.476   9.082  10.620 -0.0930  1.2491 -0.9815
  236MOL0     H31849   5.535   9.076  10.865 -0.2231 -1.1881  2.4798
  236MOL0     H31850   5.581   9.092  11.066  0.7803  0.0183  1.8269
  236MOL0     H31851   5.451   9.214  11.077  1.5857  0.1285  0.8239
  236MOL0     H31852   5.382   9.141  11.300 -0.8201  0.7703 -2.7104
  236MOL0     H31853   5.542   9.196  11.300  1.4851 -0.6836  0.4432
  236MOL0     H31854   5.613   8.955  11.246 -1.4974  2.5973 -2.2804
  236MOL0     H31855   5.478   8.909  11.360 -1.6546  1.5087 -0.8118
  236MOL0     H31856   5.714   9.082  11.407 -0.9376 -0.2120 -1.9762
  236MOL0     H31857   5.677   8.930  11.491  0.3616  0.4286 -0.2440
  236MOL0     H31858   5.491   9.244  11.701 -0.7557  1.8383 -1.9731
  236MOL0     H31859   5.130   9.008  10.961  0.1109  1.7252  0.8203
  236MOL0     H31860   5.056   9.044  10.734  0.3108  0.7118 -1.5250
  237MOL0     O31861   7.759   7.551   6.871  0.3260 -0.5256  0.1105
  237MOL0     C31862   7.730   7.466   6.785  0.3298  0.1527  0.1406
  237MOL0     O31863   7.614   7.425   6.748  0.0889 -0.6834  0.0704
  237MOL0     C31864   7.493   7.451   6.812 -0.9926  0.4294 -0.3922
  237MOL0     C31865   7.419   7.345   6.848  0.0069  0.6404 -0.2404
  237MOL0     C31866   7.297   7.359   6.912 -0.2681 -0.2430 -0.0588
  237MOL0     C31867   7.245   7.487   6.940 -0.3356 -0.9086 -0.2743
  237MOL0     O31868   7.125   7.512   7.001 -0.1277 -0.5363  0.0446
  237MOL0     C31869   7.054   7.413   7.079 -0.1940 -0.2762 -0.3629
  237MOL0     C31870   6.930   7.481   7.145  0.7910  0.0309 -0.2786
  237MOL0     C31871   6.966   7.578   7.250 -0.1439  0.2385 -0.3934
  237MOL0     C31872   6.858   7.610   7.350  1.3854  0.1713 -0.1990
  237MOL0     C31873   6.866   7.732   7.434  0.7665  0.0819  1.2411
  237MOL0     C31874   6.859   7.869   7.358  0.2587  1.2671  0.2707
  237MOL0     C31875   6.862   7.987   7.460  0.0908 -0.2706 -0.9354
  237MOL0     C31876   6.878   8.124   7.392  0.9211  0.1690 -0.5933
  237MOL0     N31877   6.750   8.156   7.317 -0.0102 -0.4583 -0.9759
  237MOL0     C31878   6.723   8.109   7.194  0.9490  0.1248  0.0387
  237MOL0     C31879   6.621   8.185   7.151 -0.5600 -0.4123 -0.1690
  237MOL0     C31880   6.572   8.173   7.012  0.6347 -0.0389  0.6023
  237MOL0     C31881   6.586   8.312   6.939  0.2162  0.6746  0.1061
  237MOL0     C31882   6.467   8.325   6.843  0.1714 -0.2792 -0.4402
  237MOL0     C31883   6.453   8.228   6.738 -0.0337 -0.9149 -0.0520
  237MOL0     O31884   6.330   8.250   6.670 -0.5598 -0.1115  0.4003
  237MOL0     C31885   6.283   8.141   6.597 -0.4610 -0.0253  0.8507
  237MOL0     C31886   6.153   8.155   6.566  0.2790 -0.6757 -0.3408
  237MOL0     C31887   6.074   8.060   6.496  0.2076 -0.1753 -0.4263
  237MOL0     C31888   5.942   8.110   6.440 -0.8360 -0.4079  0.2302
  237MOL0     C31889   6.140   7.944   6.455 -0.5414 -0.2680 -0.8639
  237MOL0     C31890   6.065   7.834   6.397  0.3302 -0.3267 -0.5933
  237MOL0     O31891   6.140   7.740   6.320  0.1804 -0.0395  0.1935
  237MOL0     C31892   6.075   7.652   6.232  0.0850 -0.7795  0.2964
  237MOL0     C31893   5.954   7.674   6.174  1.0073 -0.4256  0.5557
  237MOL0     C31894   5.885   7.590   6.095  0.6479 -0.7531 -0.8313
  237MOL0     C31895   5.943   7.471   6.064  0.0219  0.7320  0.6795
  237MOL0     O31896   5.863   7.396   5.974  0.1370 -0.5091  0.6269
  237MOL0     C31897   5.932   7.303   5.887  0.1649  0.1979 -0.0160
  237MOL0     C31898   5.963   7.376   5.759  0.4761 -0.2032 -0.1922
  237MOL0     C31899   5.851   7.376   5.653  0.4045  0.7382  0.4405
  237MOL0     C31900   5.883   7.301   5.522 -0.3398  0.2954 -0.3670
  237MOL0     C31901   5.761   7.267   5.439  0.0934 -0.8218  0.4542
  237MOL0     C31902   5.779   7.161   5.329 -0.2159  0.2474 -0.6949
  237MOL0     C31903   5.683   7.177   5.205  0.5946  0.1096  0.2191
  237MOL0     C31904   5.629   7.040   5.144 -0.1262 -0.1618  0.3647
  237MOL0    Cl31905   5.545   6.945   5.269  0.2318 -0.0595  0.0341
  237MOL0     C31906   6.064   7.436   6.120 -1.0181  0.5977  0.9503
  237MOL0     C31907   6.139   7.528   6.204  0.6077 -0.4618 -0.1082
  237MOL0     O31908   5.946   7.823   6.424 -0.7520  0.0209 -0.2260
  237MOL0     C31909   6.281   7.931   6.488  0.5205 -1.2270 -0.4425
  237MOL0     C31910   6.350   8.023   6.563  0.5463 -0.1305 -0.0004
  237MOL0     N31911   6.578   8.272   7.254 -0.8166 -0.3384  0.1775
  237MOL0     N31912   6.660   8.257   7.352 -0.6184 -0.4381  0.2964
  237MOL0     C31913   7.322   7.597   6.902 -0.3517  1.0971  0.3241
  237MOL0     C31914   7.443   7.574   6.833 -0.2478 -1.5755  0.5494
  237MOL0     C31915   7.847   7.399   6.724 -0.1068 -0.4299  0.4508
  237MOL0     C31916   7.824   7.270   6.669 -0.0646  0.5765  0.5137
  237MOL0     C31917   7.919   7.203   6.601  0.0009  0.5648  0.1057
  237MOL0     C31918   8.056   7.247   6.605  0.5346 -0.1310  1.1614
  237MOL0     O31919   8.151   7.162   6.556  0.0453 -0.6542 -0.3098
  237MOL0     C31920   8.289   7.200   6.533 -0.2486 -0.2965 -0.2714
  237MOL0     C31921   8.377   7.145   6.652  0.3464 -0.5588 -1.1703
  237MOL0     C31922   8.493   7.236   6.689 -0.1820 -0.0170  1.2800
  237MOL0     C31923   8.546   7.216   6.822 -0.5643  0.3795 -0.1320
  237MOL0     C31924   8.629   7.093   6.819  0.7955  0.2594 -0.2129
  237MOL0     C31925   8.688   6.991   6.828 -0.5655  0.2628 -0.5870
  237MOL0     C31926   8.080   7.377   6.654 -0.9316  0.8258 -0.1478
  237MOL0     C31927   7.977   7.447   6.707 -0.8609 -0.3539  0.2567
  237MOL0     H31928   7.463   7.249   6.824  1.9343  1.4993 -0.3417
  237MOL0     H31929   7.235   7.273   6.933 -1.0676  0.5842  1.1478
  237MOL0     H31930   7.016   7.326   7.025  0.6299 -1.5582  1.0368
  237MOL0     H31931   7.129   7.380   7.152  1.0097  3.6467  0.3855
  237MOL0     H31932   6.871   7.523   7.063  0.8674 -2.1464 -1.5155
  237MOL0     H31933   6.872   7.406   7.199  1.3440  1.5104  2.5400
  237MOL0     H31934   7.056   7.539   7.300  1.8746  0.0935 -3.8092
  237MOL0     H31935   6.997   7.672   7.204  2.0577  0.6913  1.8296
  237MOL0     H31936   6.773   7.610   7.281  1.8847  2.4688 -0.8864
  237MOL0     H31937   6.843   7.527   7.420 -0.5866 -0.4949 -1.3217
  237MOL0     H31938   6.785   7.730   7.508  2.1469  0.7250  2.8366
  237MOL0     H31939   6.963   7.727   7.485  1.4627  2.1795  0.2381
  237MOL0     H31940   6.946   7.871   7.292 -2.0000  1.4355 -2.9317
  237MOL0     H31941   6.767   7.871   7.299  1.0249  1.4337 -0.9672
  237MOL0     H31942   6.771   7.985   7.520  1.7624  0.6425  1.8176
  237MOL0     H31943   6.955   7.985   7.517 -0.1175  2.9795 -0.3129
  237MOL0     H31944   6.967   8.118   7.329  1.1125  0.9141 -0.4059
  237MOL0     H31945   6.881   8.209   7.461 -3.8853  0.2264 -0.0903
  237MOL0     H31946   6.763   8.025   7.139 -1.3300 -1.3772  0.5323
  237MOL0     H31947   6.618   8.089   6.961 -0.6897  0.0027 -0.7112
  237MOL0     H31948   6.465   8.150   7.017  0.9614 -1.7062  0.3969
  237MOL0     H31949   6.682   8.328   6.889  1.9529 -2.3658  2.1612
  237MOL0     H31950   6.570   8.391   7.014 -1.3425 -1.8684  2.6628
  237MOL0     H31951   6.486   8.420   6.792  0.1599 -0.3751 -0.6244
  237MOL0     H31952   6.372   8.337   6.897 -0.0380  0.6441 -0.9765
  237MOL0     H31953   6.436   8.133   6.789 -2.8821 -1.0576 -1.1233
  237MOL0     H31954   6.539   8.221   6.671  0.3499 -1.1699  0.4558
  237MOL0     H31955   6.112   8.252   6.592  0.7707 -0.5033 -0.1987
  237MOL0     H31956   5.933   8.083   6.334 -0.7545  0.4095  0.0099
  237MOL0     H31957   5.855   8.067   6.490 -0.5103  0.4243  1.5578
  237MOL0     H31958   5.930   8.219   6.447  1.2321 -0.2373  2.1297
  237MOL0     H31959   5.905   7.769   6.196  0.5220 -0.0926 -1.7179
  237MOL0     H31960   5.790   7.620   6.053  1.4518  2.6344 -0.5510
  237MOL0     H31961   6.020   7.247   5.921 -0.2501 -0.1457  0.4996
  237MOL0     H31962   5.851   7.232   5.874 -2.1493  1.8171  3.7488
  237MOL0     H31963   5.980   7.480   5.789  1.0814 -0.0864 -0.9309
  237MOL0     H31964   6.054   7.342   5.711  1.4020  2.4119 -0.4425
  237MOL0     H31965   5.832   7.483   5.640  0.1306  0.7524  0.8998
  237MOL0     H31966   5.767   7.324   5.701  1.5723 -1.2368  0.4045
  237MOL0     H31967   5.949   7.362   5.459 -1.9946  1.0515 -1.4204
  237MOL0     H31968   5.936   7.210   5.552  0.8420  0.8743 -0.6420
  237MOL0     H31969   5.726   7.358   5.389  0.5068 -0.7759  0.2431
  237MOL0     H31970   5.687   7.228   5.511 -0.2095  2.3649  2.0536
  237MOL0     H31971   5.884   7.151   5.300 -0.1199  0.6762 -0.4945
  237MOL0     H31972   5.757   7.063   5.374  2.5390 -1.4055 -2.6571
  237MOL0     H31973   5.742   7.236   5.134 -2.1465  0.6790 -1.7415
  237MOL0     H31974   5.589   7.230   5.222 -2.1680 -3.0896 -3.2363
  237MOL0     H31975   5.718   6.987   5.109  0.4186  1.5873 -1.0241
  237MOL0     H31976   5.565   7.046   5.056  0.8643 -0.4359 -0.3948
  237MOL0     H31977   6.110   7.339   6.109  2.7987  2.3021  0.0716
  237MOL0     H31978   6.224   7.505   6.267  0.8034  1.1222  0.2574
  237MOL0     H31979   6.332   7.841   6.455 -1.3663 -2.7386  0.5425
  237MOL0     H31980   6.453   8.007   6.592  1.1657 -0.5022 -2.2192
  237MOL0     H31981   7.284   7.696   6.926 -0.0241  1.9041 -2.2159
  237MOL0     H31982   7.512   7.651   6.799  1.2736 -3.5516 -1.0680
  237MOL0     H31983   7.724   7.227   6.666  0.4724 -0.7046  0.7199
  237MOL0     H31984   7.890   7.103   6.570  0.9149  1.0777 -2.7330
  237MOL0     H31985   8.328   7.155   6.441  1.3540  0.1432  0.1561
  237MOL0     H31986   8.294   7.308   6.517  3.1980 -0.4738 -1.1159
  237MOL0     H31987   8.420   7.048   6.627  0.3057 -0.4752 -1.5879
  237MOL0     H31988   8.303   7.127   6.730  0.0416 -2.5383 -1.8701
  237MOL0     H31989   8.445   7.333   6.677  1.2663  0.4564 -1.4223
  237MOL0     H31990   8.579   7.227   6.622  0.5631 -1.8116  2.3646
  237MOL0     H31991   8.465   7.224   6.895 -1.0048  0.1495 -0.5979
  237MOL0     H31992   8.616   7.296   6.848  0.4461 -0.0639 -1.3630
  237MOL0     H31993   8.749   6.903   6.839 -1.2912 -0.2966 -1.0155
  237MOL0     H31994   8.181   7.416   6.652 -1.1475  1.3602 -0.8733
  237MOL0     H31995   8.003   7.540   6.756  3.3746 -1.6148  0.8088
  238MOL0     O31996   8.011   6.240   1.423  0.2956  0.8003  0.1185
  238MOL0     C31997   8.078   6.334   1.374  0.6487 -0.0522 -0.3137
  238MOL0     O31998   8.201   6.389   1.420 -0.0767 -0.0778 -0.4624
  238MOL0     C31999   8.242   6.327   1.540 -0.1393 -1.1143  0.2044
  238MOL0     C32000   8.333   6.223   1.532  0.4207  0.2997 -0.4918
  238MOL0     C32001   8.357   6.142   1.649  0.1827 -0.0456  0.2729
  238MOL0     C32002   8.313   6.174   1.772  0.5340  0.4113  1.3478
  238MOL0     O32003   8.331   6.106   1.888  0.0068  0.3125  0.2958
  238MOL0     C32004   8.404   5.985   1.898 -0.8620  0.5429  0.2067
  238MOL0     C32005   8.371   5.916   2.026  1.1454  0.9420 -0.0280
  238MOL0     C32006   8.403   6.018   2.141  1.0353  0.0690  0.0489
  238MOL0     C32007   8.411   5.939   2.274  0.0392 -0.0701  0.1935
  238MOL0     C32008   8.273   5.883   2.311  0.7683 -0.3858 -0.1984
  238MOL0     C32009   8.294   5.776   2.418  0.3840  0.0418 -1.1598
  238MOL0     C32010   8.164   5.740   2.487  0.1749  0.4702 -0.4254
  238MOL0     C32011   8.172   5.604   2.543 -0.6092  0.4399 -0.2643
  238MOL0     N32012   8.062   5.560   2.636  0.0010 -1.0169 -0.2905
  238MOL0     C32013   7.969   5.639   2.699 -0.2436  0.4070  0.1025
  238MOL0     C32014   7.890   5.555   2.771  0.7080  0.3618 -0.0758
  238MOL0     C32015   7.776   5.588   2.861  0.2645 -0.3456 -0.3287
  238MOL0     C32016   7.690   5.702   2.815 -0.0937 -0.5608 -0.0988
  238MOL0     C32017   7.579   5.729   2.919  0.4720  0.8502  0.8475
  238MOL0     C32018   7.512   5.861   2.886  0.9688  0.2405 -0.6842
  238MOL0     O32019   7.467   5.871   2.757 -1.0575 -0.8276 -0.7063
  238MOL0     C32020   7.375   5.970   2.730  1.1191  0.0811  0.4118
  238MOL0     C32021   7.425   6.069   2.649  0.7989  0.0952 -0.7684
  238MOL0     C32022   7.340   6.164   2.601 -0.1461 -0.9416  0.4343
  238MOL0     C32023   7.405   6.268   2.512 -0.0830  0.2287  0.2842
  238MOL0     C32024   7.208   6.170   2.654  0.0987 -0.8146  0.3559
  238MOL0     C32025   7.112   6.281   2.641  0.1612 -0.3715  1.0954
  238MOL0     O32026   6.978   6.245   2.662  0.1746 -0.3644 -0.4111
  238MOL0     C32027   6.870   6.331   2.676  0.4116 -0.0301 -0.6347
  238MOL0     C32028   6.752   6.275   2.725 -0.1298 -0.3161 -0.6406
  238MOL0     C32029   6.641   6.365   2.754  0.2193 -0.3066  0.0742
  238MOL0     C32030   6.647   6.503   2.731 -0.7530  0.1365  0.4831
  238MOL0     O32031   6.554   6.600   2.762  0.4621  0.3323 -0.2229
  238MOL0     C32032   6.436   6.577   2.835 -0.3586  0.5188  0.2083
  238MOL0     C32033   6.440   6.620   2.978 -0.3113 -0.6042 -0.1687
  238MOL0     C32034   6.512   6.516   3.067  0.3268  0.4669 -0.5518
  238MOL0     C32035   6.500   6.548   3.219 -1.3469 -0.0635 -0.5345
  238MOL0     C32036   6.582   6.450   3.305  0.9890 -1.0506  0.8226
  238MOL0     C32037   6.659   6.509   3.429 -0.1977  0.7614 -0.3727
  238MOL0     C32038   6.568   6.554   3.537  0.2844  0.7682 -1.4341
  238MOL0     C32039   6.639   6.650   3.640 -0.8506  0.0721 -0.5113
  238MOL0    Cl32040   6.639   6.566   3.804 -0.0738 -0.0099 -0.3234
  238MOL0     C32041   6.762   6.553   2.674 -0.3096  0.7222  0.3345
  238MOL0     C32042   6.864   6.461   2.639 -0.6735 -0.5080 -0.0911
  238MOL0     O32043   7.155   6.390   2.606 -0.5663  0.2484 -0.6327
  238MOL0     C32044   7.167   6.067   2.745 -0.3799 -0.5149 -0.2601
  238MOL0     C32045   7.246   5.960   2.773 -0.2285  0.3855  0.7178
  238MOL0     N32046   7.934   5.430   2.750  0.7577  0.6098 -0.0745
  238MOL0     N32047   8.041   5.436   2.678 -0.3400 -0.0240  1.1692
  238MOL0     C32048   8.240   6.293   1.780  0.4699 -0.4069  0.0402
  238MOL0     C32049   8.195   6.364   1.667  0.8549  0.2208  0.9833
  238MOL0     C32050   8.047   6.369   1.235 -0.1079 -0.3310 -0.4079
  238MOL0     C32051   8.144   6.419   1.151 -0.7795 -0.5620  0.8715
  238MOL0     C32052   8.127   6.452   1.007  0.3761 -0.8093 -0.0425
  238MOL0     C32053   7.994   6.427   0.956 -0.1219  0.0458 -0.6070
  238MOL0     O32054   7.966   6.459   0.830 -0.2271  0.4710  0.0375
  238MOL0     C32055   7.830   6.455   0.766 -0.3661 -0.1641  0.3120
  238MOL0     C32056   7.835   6.526   0.631  0.0114 -0.3065 -0.1406
  238MOL0     C32057   7.873   6.678   0.635 -0.1601 -0.1152  0.8188
  238MOL0     C32058   7.746   6.761   0.611 -0.2499  0.4931  0.1020
  238MOL0     C32059   7.664   6.784   0.719  0.2448  0.9533 -0.7853
  238MOL0     C32060   7.587   6.815   0.808 -0.6417 -0.3984  0.3548
  238MOL0     C32061   7.901   6.363   1.045 -0.2776 -0.8054 -0.2389
  238MOL0     C32062   7.923   6.344   1.186  0.1462  0.3749  0.3326
  238MOL0     H32063   8.368   6.197   1.432  0.6858 -1.6370  0.0461
  238MOL0     H32064   8.414   6.051   1.639 -0.6968 -0.5377 -0.4645
  238MOL0     H32065   8.382   5.928   1.807  1.1169  0.9201 -0.5611
  238MOL0     H32066   8.510   6.012   1.889 -0.5165 -0.8988 -0.2826
  238MOL0     H32067   8.270   5.878   2.007  0.7968  0.7564  1.9656
  238MOL0     H32068   8.431   5.826   2.046 -1.2063 -0.8411 -0.5856
  238MOL0     H32069   8.496   6.071   2.121  0.0296  1.2549 -1.8422
  238MOL0     H32070   8.320   6.088   2.158 -0.7538 -2.1839  1.2344
  238MOL0     H32071   8.485   5.858   2.270 -2.8673 -2.9294 -1.4583
  238MOL0     H32072   8.427   6.004   2.360 -0.3465 -0.9219  0.9255
  238MOL0     H32073   8.198   5.953   2.349  2.4818  1.0321  0.7350
  238MOL0     H32074   8.217   5.849   2.223 -1.1701  0.7052  0.5543
  238MOL0     H32075   8.347   5.686   2.386 -0.6779 -0.7348 -0.7487
  238MOL0     H32076   8.349   5.819   2.503  1.5920  0.6529 -2.1963
  238MOL0     H32077   8.140   5.821   2.557  1.2979  0.3083  0.1745
  238MOL0     H32078   8.097   5.747   2.401  0.1509 -0.5310 -0.5039
  238MOL0     H32079   8.265   5.600   2.601 -2.4688 -2.1758  2.9489
  238MOL0     H32080   8.189   5.522   2.472  1.6684  1.7347 -1.3193
  238MOL0     H32081   7.955   5.746   2.711  1.2439  0.3400  3.6838
  238MOL0     H32082   7.728   5.491   2.874 -0.1776 -0.1293 -0.3437
  238MOL0     H32083   7.820   5.617   2.957  1.2734 -1.6711 -0.3492
  238MOL0     H32084   7.646   5.658   2.725 -3.1268 -0.3538  1.1901
  238MOL0     H32085   7.747   5.791   2.785 -1.3564  0.1152 -0.5639
  238MOL0     H32086   7.630   5.738   3.015  1.7815 -1.0985  0.3790
  238MOL0     H32087   7.515   5.641   2.915  3.2430 -1.2368 -1.5565
  238MOL0     H32088   7.583   5.940   2.907 -0.8464  1.8163 -0.2279
  238MOL0     H32089   7.437   5.874   2.965 -2.3889  1.5389 -3.7638
  238MOL0     H32090   7.532   6.072   2.635  0.7022  2.3973 -1.5482
  238MOL0     H32091   7.444   6.347   2.577  2.5303  2.1768 -3.2538
  238MOL0     H32092   7.483   6.221   2.452  0.2643  0.0648  0.8581
  238MOL0     H32093   7.333   6.305   2.438 -0.4312  1.9721  1.4247
  238MOL0     H32094   6.738   6.173   2.758  1.2511 -0.4031 -0.2552
  238MOL0     H32095   6.541   6.334   2.782 -0.6420 -0.2094 -2.5686
  238MOL0     H32096   6.359   6.640   2.790 -1.1301 -0.3823  0.2247
  238MOL0     H32097   6.400   6.473   2.833  1.2862 -0.0924  0.3182
  238MOL0     H32098   6.479   6.722   2.976 -0.6969 -0.4595 -0.4065
  238MOL0     H32099   6.336   6.625   3.014  0.4086  1.8309  1.8746
  238MOL0     H32100   6.619   6.520   3.046  0.4806 -0.7043 -0.1156
  238MOL0     H32101   6.465   6.420   3.041  0.6248  0.9917 -3.2837
  238MOL0     H32102   6.548   6.645   3.232  1.1941 -1.3482  0.2155
  238MOL0     H32103   6.394   6.560   3.245 -1.5414 -1.2268 -0.7469
  238MOL0     H32104   6.660   6.399   3.247  0.2847  0.3878 -1.5173
  238MOL0     H32105   6.512   6.371   3.336  0.2111 -0.8085 -0.2760
  238MOL0     H32106   6.732   6.437   3.467 -0.6761  0.2025 -0.5033
  238MOL0     H32107   6.709   6.604   3.406 -0.6804  0.5637 -2.3651
  238MOL0     H32108   6.522   6.478   3.600  1.5792  1.2208  0.1496
  238MOL0     H32109   6.475   6.602   3.505 -1.4678 -0.1030  1.8657
  238MOL0     H32110   6.598   6.751   3.633 -0.8524  0.2390  1.4508
  238MOL0     H32111   6.746   6.662   3.622 -0.5253 -0.3180  1.0940
  238MOL0     H32112   6.764   6.658   2.645  0.0234  0.4185 -0.8011
  238MOL0     H32113   6.938   6.516   2.582 -1.8122 -0.6154 -1.7317
  238MOL0     H32114   7.066   6.062   2.783 -0.4455 -2.8388 -0.5946
  238MOL0     H32115   7.209   5.877   2.833 -2.7226  0.3857 -0.6893
  238MOL0     H32116   8.196   6.306   1.879  0.8045  1.1676  0.0020
  238MOL0     H32117   8.119   6.440   1.683  0.5722  0.1291  0.1337
  238MOL0     H32118   8.244   6.442   1.186 -0.8550  0.4848  0.4427
  238MOL0     H32119   8.198   6.497   0.939 -0.2702 -0.9288 -0.8116
  238MOL0     H32120   7.799   6.352   0.747 -1.6116  0.3540 -0.6016
  238MOL0     H32121   7.753   6.500   0.830  0.4304  2.0324 -0.2035
  238MOL0     H32122   7.739   6.506   0.582 -0.0019  0.1871 -0.3301
  238MOL0     H32123   7.910   6.469   0.576 -0.4206  0.3288 -1.4384
  238MOL0     H32124   7.944   6.705   0.557 -2.5385  0.8097 -1.1773
  238MOL0     H32125   7.917   6.705   0.731 -0.5635 -0.0363  0.9845
  238MOL0     H32126   7.685   6.708   0.537  0.6007 -1.6163  0.8586
  238MOL0     H32127   7.775   6.864   0.585  2.1580  1.0464  4.0715
  238MOL0     H32128   7.517   6.820   0.889  0.9038  0.3749  1.6943
  238MOL0     H32129   7.809   6.325   1.001 -1.7964  1.5447  0.6859
  238MOL0     H32130   7.847   6.287   1.237 -0.1241 -0.4159 -0.9017
  239MOL0     O32131   9.769   5.291   0.212 -0.0385  0.1873 -0.1765
  239MOL0     C32132   9.677   5.378   0.195 -0.0360  0.5945  0.0577
  239MOL0     O32133   9.645   5.481   0.273  0.2671 -0.3393 -0.1234
  239MOL0     C32134   9.707   5.501   0.391  0.5164  0.1335 -0.3783
  239MOL0     C32135   9.776   5.616   0.406  0.4213  0.1445 -0.0979
  239MOL0     C32136   9.835   5.650   0.519 -0.2489  0.4083 -0.4127
  239MOL0     C32137   9.865   5.552   0.620 -0.0183 -0.4598  0.1304
  239MOL0     O32138   9.935   5.607   0.734 -0.1055  0.0635 -0.0635
  239MOL0     C32139   9.934   5.525   0.851 -0.3678  0.3271 -0.2078
  239MOL0     C32140  10.030   5.590   0.949 -0.3719  0.5682 -0.3155
  239MOL0     C32141  10.010   5.537   1.090  0.2415  0.0010 -0.3614
  239MOL0     C32142  10.061   5.397   1.117 -0.4539 -0.5332 -0.7667
  239MOL0     C32143  10.036   5.366   1.266  0.1970  0.5099  0.6389
  239MOL0     C32144  10.084   5.235   1.316 -0.4806  0.3313  0.1580
  239MOL0     C32145  10.013   5.113   1.267  0.0124 -0.3121  0.3326
  239MOL0     C32146  10.090   4.984   1.290  0.0787  0.0937  0.3517
  239MOL0     N32147  10.013   4.855   1.287 -0.1063 -0.4837  0.1734
  239MOL0     C32148   9.928   4.806   1.189  0.9363  0.0894  0.1972
  239MOL0     C32149   9.889   4.680   1.225  0.4050 -0.3201 -0.8522
  239MOL0     C32150   9.771   4.603   1.164  0.1996  0.6408 -1.4196
  239MOL0     C32151   9.764   4.455   1.222  0.9712  0.3432  0.8936
  239MOL0     C32152   9.668   4.353   1.158 -0.2695  0.1638  0.0284
  239MOL0     C32153   9.522   4.381   1.156 -0.9241 -0.2194  0.1159
  239MOL0     O32154   9.488   4.421   1.290 -0.4702  0.2932  0.4789
  239MOL0     C32155   9.354   4.411   1.312 -0.0784  0.0785  0.3466
  239MOL0     C32156   9.329   4.414   1.445  0.2272  0.0099 -0.7763
  239MOL0     C32157   9.197   4.408   1.495 -1.0055 -0.1582  1.0654
  239MOL0     C32158   9.199   4.411   1.642  0.2563  0.3927 -0.5064
  239MOL0     C32159   9.086   4.412   1.402 -0.6018 -0.3785  0.0886
  239MOL0     C32160   8.942   4.419   1.432  0.3057 -0.5080  0.6760
  239MOL0     O32161   8.908   4.463   1.550  0.1879 -0.0936 -0.6458
  239MOL0     C32162   8.775   4.467   1.597 -0.4502 -0.5063 -0.5615
  239MOL0     C32163   8.671   4.553   1.545  0.3258 -0.0653  0.4234
  239MOL0     C32164   8.547   4.553   1.598  0.5244 -0.6399 -0.2621
  239MOL0     C32165   8.516   4.467   1.701 -0.3286 -0.3758 -0.3288
  239MOL0     O32166   8.391   4.445   1.749  0.5984  0.3762 -0.9717
  239MOL0     C32167   8.275   4.486   1.674  0.1768 -0.3342  0.2905
  239MOL0     C32168   8.241   4.399   1.549 -0.4755 -0.3378  0.2268
  239MOL0     C32169   8.125   4.455   1.470 -0.2545 -0.3897 -0.9399
  239MOL0     C32170   7.990   4.451   1.534  0.0535  0.2369 -1.0500
  239MOL0     C32171   7.876   4.470   1.436 -0.7350 -0.2802  0.9644
  239MOL0     C32172   7.737   4.456   1.495 -0.7217 -0.0436 -0.4679
  239MOL0     C32173   7.628   4.485   1.389 -0.6200 -0.0844 -0.7013
  239MOL0     C32174   7.484   4.483   1.452  0.3810  0.2167 -0.4791
  239MOL0    Cl32175   7.476   4.626   1.539 -0.1052 -0.4787  0.3998
  239MOL0     C32176   8.615   4.396   1.758 -0.6887  0.5153  0.7333
  239MOL0     C32177   8.744   4.394   1.709 -0.1832 -0.2738 -0.0991
  239MOL0     O32178   8.860   4.371   1.348 -0.5685  0.3805 -0.1456
  239MOL0     C32179   9.120   4.415   1.264  0.0253  0.5413 -0.2208
  239MOL0     C32180   9.249   4.414   1.218  0.1831  0.0449 -0.0863
  239MOL0     N32181   9.960   4.654   1.343 -0.1839  0.3987 -0.8752
  239MOL0     N32182  10.029   4.758   1.378 -1.1711 -0.1885 -0.5041
  239MOL0     C32183   9.803   5.431   0.609 -0.5799  0.4383 -0.2578
  239MOL0     C32184   9.717   5.405   0.495 -0.2687 -0.7221 -0.3170
  239MOL0     C32185   9.586   5.353   0.073  0.0393  0.1410 -0.0800
  239MOL0     C32186   9.636   5.287  -0.039  0.0489 -0.4111  1.2582
  239MOL0     C32187   9.551   5.258  -0.144 -0.0313 -0.0243  0.5606
  239MOL0     C32188   9.408   5.292  -0.137 -0.0900 -0.3730 -0.1590
  239MOL0     O32189   9.323   5.271  -0.239 -0.0233 -0.2259  0.1637
  239MOL0     C32190   9.366   5.219  -0.369  0.0016 -0.1868 -1.2883
  239MOL0     C32191   9.431   5.342  -0.447  0.7844 -1.0445 -0.0135
  239MOL0     C32192   9.446   5.323  -0.598 -0.9853  0.4105 -0.2839
  239MOL0     C32193   9.448   5.446  -0.692  0.0483  0.2565 -0.4533
  239MOL0     C32194   9.538   5.557  -0.656  0.5137  0.6123 -0.0321
  239MOL0     C32195   9.634   5.636  -0.643  1.2045 -0.5657  0.1834
  239MOL0     C32196   9.363   5.349  -0.017 -0.3261  0.4012  0.2064
  239MOL0     C32197   9.449   5.390   0.088  0.3590  1.3863  0.9075
  239MOL0     H32198   9.775   5.689   0.326 -0.6877 -0.3462 -0.5482
  239MOL0     H32199   9.871   5.751   0.532 -0.5431  0.9069 -2.9534
  239MOL0     H32200   9.830   5.538   0.884 -0.2777  0.7546 -0.0825
  239MOL0     H32201   9.958   5.419   0.842  1.2109  0.4290  1.9555
  239MOL0     H32202  10.134   5.574   0.919 -0.8109 -0.3068 -1.4203
  239MOL0     H32203  10.002   5.696   0.947 -1.0236  0.4523  1.0163
  239MOL0     H32204  10.059   5.601   1.164 -0.4242  0.2528 -0.1318
  239MOL0     H32205   9.904   5.544   1.116  0.5730 -0.4295  1.2722
  239MOL0     H32206  10.002   5.322   1.063 -4.4446  0.5441  1.6718
  239MOL0     H32207  10.162   5.374   1.082 -0.5784  0.3194 -1.7543
  239MOL0     H32208  10.086   5.443   1.326  1.7950 -0.0576  0.0968
  239MOL0     H32209   9.927   5.373   1.279  0.1224 -0.7558  0.7581
  239MOL0     H32210  10.189   5.225   1.287 -0.3430 -0.7358  0.9695
  239MOL0     H32211  10.081   5.239   1.425 -1.3319  2.8031  0.0989
  239MOL0     H32212   9.921   5.098   1.325 -0.0533 -0.3953  0.2072
  239MOL0     H32213   9.995   5.115   1.159  0.3684 -0.4355  0.2711
  239MOL0     H32214  10.131   4.979   1.391  0.3881 -3.7511  0.1779
  239MOL0     H32215  10.175   4.975   1.222 -1.3797  1.6871 -1.8553
  239MOL0     H32216   9.877   4.867   1.116 -3.3303 -2.0129  1.0619
  239MOL0     H32217   9.679   4.657   1.187  1.2857  2.2345 -0.6583
  239MOL0     H32218   9.784   4.602   1.055  0.5309  2.0632 -1.4096
  239MOL0     H32219   9.749   4.446   1.330  0.1357 -0.0663  0.7496
  239MOL0     H32220   9.863   4.409   1.214 -0.1889 -2.1579 -0.5178
  239MOL0     H32221   9.671   4.259   1.214  0.1665  1.5332  2.4197
  239MOL0     H32222   9.699   4.329   1.056  1.3368 -1.3940  0.8298
  239MOL0     H32223   9.462   4.292   1.137 -0.3957 -1.0810  2.1907
  239MOL0     H32224   9.506   4.464   1.087  1.4981  0.0151 -0.2651
  239MOL0     H32225   9.413   4.412   1.513  3.0325  0.9905 -3.9392
  239MOL0     H32226   9.232   4.509   1.677 -4.2932  1.5885  1.1630
  239MOL0     H32227   9.100   4.397   1.687  0.7316  2.4842  1.3422
  239MOL0     H32228   9.255   4.322   1.674 -0.7744 -0.3875 -0.8056
  239MOL0     H32229   8.686   4.610   1.454  1.8970 -0.3536  0.4691
  239MOL0     H32230   8.474   4.618   1.551  1.3061 -0.7291 -1.6587
  239MOL0     H32231   8.189   4.491   1.741 -1.7303  3.7377 -2.0978
  239MOL0     H32232   8.290   4.590   1.643  0.8555 -0.6058 -0.3386
  239MOL0     H32233   8.331   4.395   1.486 -1.8683 -0.0870 -1.8780
  239MOL0     H32234   8.222   4.298   1.586  1.2984 -0.4884  0.8143
  239MOL0     H32235   8.127   4.392   1.380 -0.1173 -1.5679 -0.1420
  239MOL0     H32236   8.154   4.552   1.429 -0.4368 -0.2305 -0.6980
  239MOL0     H32237   7.978   4.352   1.578  1.4819 -0.0945 -1.3390
  239MOL0     H32238   7.992   4.525   1.614  0.2274 -0.5266 -0.3331
  239MOL0     H32239   7.891   4.392   1.360  1.9271 -1.4835  2.5917
  239MOL0     H32240   7.894   4.567   1.389  2.5245 -1.6031 -0.8831
  239MOL0     H32241   7.732   4.358   1.544  0.9608  1.6714  3.6255
  239MOL0     H32242   7.727   4.531   1.575 -0.8806  0.8322 -1.2880
  239MOL0     H32243   7.640   4.400   1.321 -1.7514 -0.4489 -0.4728
  239MOL0     H32244   7.641   4.577   1.331  0.8830  1.8080  2.3595
  239MOL0     H32245   7.459   4.398   1.517 -0.1970 -2.0273 -3.4492
  239MOL0     H32246   7.410   4.486   1.372  0.2775 -0.6884 -0.4249
  239MOL0     H32247   8.587   4.324   1.834 -0.4427  0.1014  0.4386
  239MOL0     H32248   8.825   4.349   1.765 -0.2436  0.6488  0.7553
  239MOL0     H32249   9.038   4.421   1.193  0.4458 -0.5884 -0.8143
  239MOL0     H32250   9.273   4.424   1.112  1.5068  2.1676  0.3612
  239MOL0     H32251   9.811   5.345   0.675  1.2920  0.8715  0.1553
  239MOL0     H32252   9.665   5.310   0.482  0.4703 -0.8991 -2.3627
  239MOL0     H32253   9.743   5.278  -0.050  0.0552  2.0056 -4.4316
  239MOL0     H32254   9.582   5.202  -0.232 -1.9243  0.5924 -0.5770
  239MOL0     H32255   9.444   5.142  -0.360  1.1640  1.1232  0.3270
  239MOL0     H32256   9.279   5.180  -0.424 -1.0044 -2.2387  1.5408
  239MOL0     H32257   9.531   5.364  -0.408  1.2314  0.0945 -1.6813
  239MOL0     H32258   9.366   5.427  -0.423  1.4223 -0.4959 -0.1870
  239MOL0     H32259   9.354   5.275  -0.634 -1.5939  0.5831  0.9716
  239MOL0     H32260   9.538   5.267  -0.614  1.3166  3.8478 -0.0399
  239MOL0     H32261   9.347   5.488  -0.693  0.4706  1.5806  2.6373
  239MOL0     H32262   9.468   5.411  -0.794  0.6323 -0.8339  0.0152
  239MOL0     H32263   9.710   5.710  -0.651  0.4757  0.0312 -1.6673
  239MOL0     H32264   9.261   5.384  -0.009  0.2423  2.0321  0.7635
  239MOL0     H32265   9.412   5.445   0.174 -3.1607 -1.7717  1.6594
  240MOL0     O32266   7.625   5.216  10.127  0.2078  0.6739  0.4463
  240MOL0     C32267   7.532   5.152  10.179 -0.1884  0.0793  0.0004
  240MOL0     O32268   7.547   5.062  10.280 -0.9004 -0.1813  0.2036
  240MOL0     C32269   7.649   4.967  10.271  0.2448  0.3940  0.0209
  240MOL0     C32270   7.740   4.950  10.373  0.4685 -0.4030 -0.2128
  240MOL0     C32271   7.816   4.834  10.372  0.3678  1.0142 -0.7401
  240MOL0     C32272   7.816   4.739  10.268  0.5044 -0.0311 -0.5425
  240MOL0     O32273   7.914   4.643  10.249 -0.3328 -0.0930  0.3123
  240MOL0     C32274   7.969   4.577  10.360  1.0040  0.7983 -0.5081
  240MOL0     C32275   7.977   4.428  10.341  0.0855 -0.2619  0.0724
  240MOL0     C32276   7.831   4.380  10.327 -0.2936  0.4559  0.0363
  240MOL0     C32277   7.825   4.225  10.318  0.4785  0.0080  0.7056
  240MOL0     C32278   7.682   4.166  10.335  0.8765 -0.9491 -0.2709
  240MOL0     C32279   7.661   4.017  10.356  0.1613  0.6806 -0.7731
  240MOL0     C32280   7.587   3.991  10.489  0.2615 -0.1890 -0.1307
  240MOL0     C32281   7.442   4.030  10.496 -1.0300 -0.1396  0.0023
  240MOL0     N32282   7.370   3.926  10.425  0.3458  0.0288  0.2037
  240MOL0     C32283   7.337   3.931  10.295 -0.4766  0.1539  0.2855
  240MOL0     C32284   7.246   3.828  10.270 -0.1819 -0.4656 -0.3776
  240MOL0     C32285   7.222   3.760  10.132 -0.8958 -0.1292  0.0318
  240MOL0     C32286   7.359   3.739  10.054  0.2537 -0.7727  0.4888
  240MOL0     C32287   7.369   3.614   9.961 -0.8384 -0.4708  0.3677
  240MOL0     C32288   7.507   3.612   9.883  0.0604  0.3012 -0.3065
  240MOL0     O32289   7.611   3.606   9.981  0.7737  0.0086  0.4538
  240MOL0     C32290   7.720   3.673   9.937  0.3434 -0.0731  0.0280
  240MOL0     C32291   7.762   3.791   9.991 -0.7365 -0.1747 -0.1471
  240MOL0     C32292   7.883   3.852   9.955  0.5821  0.9877 -0.7355
  240MOL0     C32293   7.927   3.986  10.021 -0.0995 -0.1033  0.4603
  240MOL0     C32294   7.959   3.798   9.849 -0.0139  1.0906 -0.5435
  240MOL0     C32295   8.083   3.860   9.798  1.0040  0.4098 -0.1329
  240MOL0     O32296   8.176   3.781   9.743  0.0491 -0.5715 -0.0852
  240MOL0     C32297   8.284   3.829   9.664  0.4058  0.1299 -0.0856
  240MOL0     C32298   8.354   3.733   9.588 -1.1799 -0.3216 -0.4560
  240MOL0     C32299   8.472   3.774   9.513  0.4557 -0.6601 -0.0541
  240MOL0     C32300   8.499   3.914   9.505 -0.3911  0.7031  0.6345
  240MOL0     O32301   8.598   3.948   9.417 -1.2376 -0.0930  0.3972
  240MOL0     C32302   8.666   4.069   9.442  0.4715  0.3678 -0.7025
  240MOL0     C32303   8.798   4.079   9.364 -0.0067 -0.4344 -0.9530
  240MOL0     C32304   8.865   4.218   9.372 -0.1811 -0.2974 -0.3996
  240MOL0     C32305   9.010   4.217   9.330  0.4567 -0.0037 -0.2829
  240MOL0     C32306   9.065   4.352   9.304  0.7223  0.1963  0.3816
  240MOL0     C32307   9.069   4.389   9.158 -0.4575 -0.0136 -1.3951
  240MOL0     C32308   9.107   4.542   9.132  0.2165  0.1971  0.0445
  240MOL0     C32309   9.210   4.608   9.229  0.6953 -0.0629 -0.5965
  240MOL0    Cl32310   9.137   4.683   9.381  0.3171 -0.0805  0.0894
  240MOL0     C32311   8.424   4.007   9.579 -0.1584  0.5561 -0.1337
  240MOL0     C32312   8.322   3.969   9.665 -0.1094  0.3838 -0.2340
  240MOL0     O32313   8.084   3.980   9.807  0.1711  0.2956 -0.5083
  240MOL0     C32314   7.915   3.671   9.796 -0.6965 -0.2066  0.4202
  240MOL0     C32315   7.795   3.619   9.833  1.2971 -0.0424 -0.7592
  240MOL0     N32316   7.226   3.778  10.399  0.1466 -0.1109  0.9326
  240MOL0     N32317   7.289   3.837  10.492 -0.4524 -0.4003  1.0292
  240MOL0     C32318   7.722   4.771  10.176  0.2082  0.5923  0.5986
  240MOL0     C32319   7.634   4.871  10.177  0.4267 -0.4243 -0.8439
  240MOL0     C32320   7.394   5.173  10.131  0.3889  0.5059  0.4995
  240MOL0     C32321   7.367   5.274  10.049 -0.3097 -1.0067  1.1189
  240MOL0     C32322   7.238   5.307  10.012  1.1943  0.4336  0.5666
  240MOL0     C32323   7.128   5.227  10.058  1.0326  0.0919 -0.5471
  240MOL0     O32324   6.993   5.269  10.035 -0.0309  0.2049  0.2413
  240MOL0     C32325   6.946   5.256   9.896 -0.4154  0.4606 -0.4819
  240MOL0     C32326   6.793   5.225   9.887  0.0399 -0.6658  0.1195
  240MOL0     C32327   6.705   5.337   9.930 -0.1751  0.3155  0.6041
  240MOL0     C32328   6.552   5.315   9.918 -0.1521 -0.6166 -0.1064
  240MOL0     C32329   6.496   5.257  10.044 -0.1806  0.0610 -0.2049
  240MOL0     C32330   6.448   5.210  10.146  0.6949  0.9360 -0.0820
  240MOL0     C32331   7.155   5.109  10.129 -0.2793  0.5915  0.7260
  240MOL0     C32332   7.288   5.084  10.165  0.1429 -0.2153 -0.7328
  240MOL0     H32333   7.749   5.015  10.460 -0.1813 -1.8035  0.9350
  240MOL0     H32334   7.901   4.823  10.438  2.3054  0.2628 -3.1719
  240MOL0     H32335   8.071   4.615  10.371  1.3777 -0.2053 -0.3315
  240MOL0     H32336   7.911   4.602  10.449 -2.1187 -2.6671 -1.3264
  240MOL0     H32337   8.037   4.396  10.256 -0.2379 -1.4197  0.2682
  240MOL0     H32338   8.016   4.378  10.430 -3.8795 -4.0149  0.0192
  240MOL0     H32339   7.776   4.416  10.414  3.3548  3.8412  1.2710
  240MOL0     H32340   7.781   4.422  10.239 -0.0799 -2.6452 -1.7096
  240MOL0     H32341   7.871   4.188  10.226 -0.5844  0.8532 -0.1974
  240MOL0     H32342   7.883   4.177  10.398  0.7219 -1.6120 -0.4094
  240MOL0     H32343   7.632   4.216  10.419  2.0633 -0.9227  0.4451
  240MOL0     H32344   7.622   4.186  10.246  0.5940 -0.3054  0.0557
  240MOL0     H32345   7.595   3.981  10.277 -3.4211 -0.8521  2.5794
  240MOL0     H32346   7.757   3.966  10.349  0.8497  1.1057  3.3089
  240MOL0     H32347   7.596   3.885  10.513 -3.3571 -0.4666  0.6443
  240MOL0     H32348   7.645   4.043  10.565  0.1883  0.0036 -0.2053
  240MOL0     H32349   7.420   4.129  10.454  2.0586  0.5362 -0.2291
  240MOL0     H32350   7.405   4.031  10.599  1.5158 -2.3192  1.0520
  240MOL0     H32351   7.394   3.987  10.222  0.5906  1.2048  1.8806
  240MOL0     H32352   7.162   3.670  10.142  1.0113 -1.5082 -0.3509
  240MOL0     H32353   7.169   3.841  10.081  0.5689  0.8127 -0.0777
  240MOL0     H32354   7.438   3.734  10.130  2.2826  0.5048 -1.4214
  240MOL0     H32355   7.378   3.819   9.982 -1.4083 -3.1235 -2.8103
  240MOL0     H32356   7.292   3.613   9.884 -0.1360 -2.6719 -0.3863
  240MOL0     H32357   7.367   3.524  10.022  3.5715  1.0406  3.2670
  240MOL0     H32358   7.501   3.698   9.816 -3.2065  1.4540  1.2220
  240MOL0     H32359   7.501   3.527   9.816 -2.6075 -1.2313  1.6983
  240MOL0     H32360   7.705   3.835  10.072 -0.1123 -0.8901  0.7035
  240MOL0     H32361   7.900   4.066   9.952  0.9214 -1.5958 -1.8037
  240MOL0     H32362   7.885   3.999  10.121 -0.7068  0.2328  0.1641
  240MOL0     H32363   8.035   3.987  10.039  0.1440  0.8023 -0.8591
  240MOL0     H32364   8.313   3.632   9.584 -0.2552 -0.7164 -0.1633
  240MOL0     H32365   8.527   3.703   9.452  2.1792  0.9332 -0.4440
  240MOL0     H32366   8.608   4.161   9.430  4.0101  3.2199  1.8046
  240MOL0     H32367   8.692   4.072   9.548 -1.3352 -0.2277 -0.2138
  240MOL0     H32368   8.856   4.000   9.412  1.1176  1.0937  0.3494
  240MOL0     H32369   8.798   4.051   9.258 -3.3962 -3.2816 -0.3717
  240MOL0     H32370   8.861   4.252   9.476  1.4859  0.3112 -0.5166
  240MOL0     H32371   8.799   4.286   9.317  0.3625 -1.0915 -2.0744
  240MOL0     H32372   9.067   4.159   9.404  0.9981 -0.2051 -0.8473
  240MOL0     H32373   9.027   4.154   9.242 -0.3619 -2.0935  0.9638
  240MOL0     H32374   9.162   4.364   9.352  0.7728  1.8937 -0.0710
  240MOL0     H32375   8.999   4.424   9.355  0.1086 -2.1375  3.2163
  240MOL0     H32376   9.147   4.325   9.115 -1.1868 -2.2740  0.4662
  240MOL0     H32377   8.973   4.364   9.112 -0.9269 -1.5404  0.2870
  240MOL0     H32378   9.012   4.596   9.138 -1.5533 -2.7427  0.1201
  240MOL0     H32379   9.138   4.541   9.027  0.8438 -0.6719  0.2274
  240MOL0     H32380   9.273   4.676   9.170  0.2002  0.3574 -0.6539
  240MOL0     H32381   9.273   4.526   9.264 -1.0679 -1.2229  0.0010
  240MOL0     H32382   8.438   4.114   9.570 -1.1366  0.8430  1.3372
  240MOL0     H32383   8.279   4.045   9.730 -0.1068 -0.6574  1.0264
  240MOL0     H32384   7.978   3.612   9.730  0.0907  1.6552 -0.5994
  240MOL0     H32385   7.780   3.518   9.797  2.5320 -1.1368  1.5414
  240MOL0     H32386   7.721   4.698  10.095 -0.5616  0.6521  0.5491
  240MOL0     H32387   7.563   4.874  10.095 -0.4451  1.3501 -0.0912
  240MOL0     H32388   7.444   5.340  10.009 -0.4845  0.6928  3.3753
  240MOL0     H32389   7.214   5.378   9.934  0.2512 -2.3841 -1.9233
  240MOL0     H32390   6.954   5.347   9.836 -0.2682  0.6055 -0.2434
  240MOL0     H32391   6.993   5.174   9.842  0.9327  0.2443  0.9633
  240MOL0     H32392   6.780   5.139   9.953  1.0735  0.3760  1.7343
  240MOL0     H32393   6.767   5.206   9.782 -1.1594 -1.2491  0.4999
  240MOL0     H32394   6.738   5.428   9.878 -0.7972 -0.4212 -1.1384
  240MOL0     H32395   6.736   5.355  10.034  1.6789 -1.6906  0.4581
  240MOL0     H32396   6.514   5.267   9.827  1.5299 -1.5014 -0.3815
  240MOL0     H32397   6.514   5.417   9.924  0.9655 -0.1227 -1.0858
  240MOL0     H32398   6.396   5.172  10.232  2.4243  1.4445  1.2354
  240MOL0     H32399   7.077   5.059  10.185  0.7753 -0.6764  1.1189
  240MOL0     H32400   7.318   5.002  10.230 -0.5443  0.2970  0.2599
  241MOL0     O32401  10.546   2.147   3.694  0.8559 -0.0219 -0.0666
  241MOL0     C32402  10.526   2.262   3.642  0.6302  0.3280  0.0109
  241MOL0     O32403  10.476   2.284   3.513  0.1067  0.5715  0.1952
  241MOL0     C32404  10.425   2.177   3.442 -0.1305 -0.5309 -0.2259
  241MOL0     C32405  10.500   2.063   3.420 -0.8251  0.6476 -0.3939
  241MOL0     C32406  10.469   1.971   3.321  0.3056 -0.3118  0.5852
  241MOL0     C32407  10.338   1.970   3.275 -0.5979  0.7139  0.0019
  241MOL0     O32408  10.301   1.857   3.208  0.0052  0.4589 -0.5373
  241MOL0     C32409  10.169   1.834   3.182  0.1438  0.1897 -0.1617
  241MOL0     C32410  10.165   1.696   3.119 -1.2834  0.1964 -0.4397
  241MOL0     C32411  10.025   1.654   3.076 -0.0959  0.9705 -0.2256
  241MOL0     C32412  10.031   1.511   3.039 -0.5144  0.2329 -0.9763
  241MOL0     C32413   9.906   1.459   2.962 -0.3521 -0.2597  0.8563
  241MOL0     C32414   9.922   1.304   2.970  0.1170 -0.3381  0.3077
  241MOL0     C32415   9.804   1.265   2.881 -0.3859 -0.0117 -0.3601
  241MOL0     C32416   9.751   1.129   2.922 -0.0493 -0.5071 -0.3740
  241MOL0     N32417   9.632   1.093   2.850  0.6721  0.3888 -0.6949
  241MOL0     C32418   9.629   0.977   2.772  0.0337  0.7067  0.0493
  241MOL0     C32419   9.503   0.980   2.722  1.4120 -0.3427 -0.6024
  241MOL0     C32420   9.440   0.865   2.641 -0.1900 -0.3582 -0.2489
  241MOL0     C32421   9.532   0.817   2.532 -0.4955 -0.0332  0.8240
  241MOL0     C32422   9.514   0.911   2.414 -0.6807 -0.1173  0.7718
  241MOL0     C32423   9.545   1.061   2.426 -0.1983  0.6796  0.0623
  241MOL0     O32424   9.674   1.073   2.492 -0.0008 -1.3640 -0.3726
  241MOL0     C32425   9.721   1.195   2.511 -1.2209  0.2601  0.7394
  241MOL0     C32426   9.641   1.293   2.568 -0.0842  0.7234 -0.0188
  241MOL0     C32427   9.697   1.423   2.591  0.0312  0.2050  1.4634
  241MOL0     C32428   9.599   1.517   2.660 -0.3304  0.0350  0.2133
  241MOL0     C32429   9.831   1.457   2.541  0.3889  0.1080  0.2729
  241MOL0     C32430   9.888   1.600   2.549 -0.2210  0.1033 -1.0108
  241MOL0     O32431  10.024   1.608   2.516  0.1635 -0.3020 -0.2268
  241MOL0     C32432  10.095   1.719   2.547 -0.1949  0.0619 -0.4811
  241MOL0     C32433  10.110   1.782   2.671 -0.9857  0.5844 -0.9041
  241MOL0     C32434  10.189   1.896   2.690  0.3539  0.6646  0.3955
  241MOL0     C32435  10.257   1.952   2.578  0.3175  0.8378 -0.6989
  241MOL0     O32436  10.352   2.041   2.600  0.4450 -0.5023  0.2392
  241MOL0     C32437  10.390   2.137   2.496  0.5936 -0.2167  0.4929
  241MOL0     C32438  10.496   2.239   2.547  0.0732  0.0712 -0.7236
  241MOL0     C32439  10.644   2.184   2.538 -0.3909 -0.9866 -1.1561
  241MOL0     C32440  10.738   2.294   2.604 -0.3884 -0.1777 -0.2660
  241MOL0     C32441  10.885   2.295   2.552  0.8184 -0.0102  0.4330
  241MOL0     C32442  10.960   2.166   2.591 -0.4913  0.2007  0.0157
  241MOL0     C32443  11.105   2.161   2.540  0.0739  0.0455 -0.4134
  241MOL0     C32444  11.183   2.049   2.612 -0.2799  0.6650  0.4168
  241MOL0    Cl32445  11.091   1.897   2.617  0.2696  0.1504  0.0660
  241MOL0     C32446  10.232   1.891   2.452 -0.6675  0.1270 -0.6395
  241MOL0     C32447  10.162   1.778   2.433  0.9563 -0.1880 -0.5425
  241MOL0     O32448   9.820   1.693   2.601 -0.4271  0.5900 -0.1703
  241MOL0     C32449   9.902   1.358   2.484 -0.2321  0.7321  0.3327
  241MOL0     C32450   9.861   1.223   2.482  0.6421 -0.3605  0.6908
  241MOL0     N32451   9.421   1.077   2.779 -0.2738 -0.1762  0.5188
  241MOL0     N32452   9.501   1.146   2.858 -0.7993 -0.0823 -1.0541
  241MOL0     C32453  10.251   2.072   3.316 -0.2390 -0.0262  0.0523
  241MOL0     C32454  10.297   2.184   3.387 -1.1599  0.3779  0.4044
  241MOL0     C32455  10.544   2.383   3.729 -0.0774 -0.6444  0.0286
  241MOL0     C32456  10.516   2.507   3.676 -0.0215 -0.1498 -0.6015
  241MOL0     C32457  10.523   2.623   3.756  0.3091 -0.3553  0.3191
  241MOL0     C32458  10.577   2.626   3.882 -0.1513  0.1567  0.1825
  241MOL0     O32459  10.592   2.745   3.936  0.0306 -0.6163  0.1248
  241MOL0     C32460  10.604   2.749   4.083  0.2729  0.2702 -0.0050
  241MOL0     C32461  10.741   2.817   4.124 -0.1359 -0.2417 -0.2823
  241MOL0     C32462  10.745   2.854   4.278  1.0100  0.2931  0.3020
  241MOL0     C32463  10.863   2.796   4.355 -0.2365 -0.5880 -0.6394
  241MOL0     C32464  10.869   2.653   4.347 -0.1547 -0.5659 -0.0322
  241MOL0     C32465  10.884   2.536   4.355  0.2166  0.2923 -0.3798
  241MOL0     C32466  10.599   2.500   3.935  0.0288  0.6287  0.1132
  241MOL0     C32467  10.582   2.374   3.861 -0.5955 -0.8944  0.2945
  241MOL0     H32468  10.596   2.055   3.470 -0.1957 -0.3604 -1.6906
  241MOL0     H32469  10.534   1.886   3.300  0.6593 -0.3086  1.5727
  241MOL0     H32470  10.113   1.837   3.276  1.1841 -0.5853  0.5029
  241MOL0     H32471  10.128   1.898   3.104  0.8778 -2.4453 -2.8864
  241MOL0     H32472  10.227   1.700   3.029 -1.4867  0.3946 -0.5702
  241MOL0     H32473  10.195   1.622   3.194 -2.8877  1.1726  1.2290
  241MOL0     H32474   9.952   1.658   3.158 -2.5226  0.3406 -2.2402
  241MOL0     H32475   9.990   1.718   2.994 -1.6852  0.9896  0.4247
  241MOL0     H32476  10.125   1.495   2.984 -0.7077 -0.2299 -1.1785
  241MOL0     H32477  10.034   1.457   3.133  1.8566 -0.8501 -1.5779
  241MOL0     H32478   9.819   1.498   3.015  0.1517  0.5632  1.1038
  241MOL0     H32479   9.899   1.495   2.858 -1.8627  1.0731  1.3654
  241MOL0     H32480  10.013   1.278   2.915 -0.1051 -2.2095  0.7846
  241MOL0     H32481   9.924   1.281   3.077 -0.4708  0.4972  0.5110
  241MOL0     H32482   9.722   1.336   2.892  0.2655  0.4123  2.4690
  241MOL0     H32483   9.842   1.263   2.778  1.3382 -4.0495  0.1851
  241MOL0     H32484   9.728   1.139   3.029  2.2565  1.1366  0.0630
  241MOL0     H32485   9.840   1.068   2.903  0.5196  0.5062 -1.0915
  241MOL0     H32486   9.706   0.904   2.753 -1.3422 -0.6462 -0.5631
  241MOL0     H32487   9.421   0.781   2.708 -0.5089  0.5471  0.8345
  241MOL0     H32488   9.342   0.900   2.608 -0.4401 -1.6001 -0.8946
  241MOL0     H32489   9.522   0.714   2.497  0.7805 -0.0663  0.5087
  241MOL0     H32490   9.637   0.823   2.561  1.0648  1.7197 -4.1796
  241MOL0     H32491   9.418   0.901   2.363 -0.3760 -1.0752  0.3551
  241MOL0     H32492   9.583   0.872   2.338  0.3336  2.3343  0.3253
  241MOL0     H32493   9.459   1.110   2.473 -1.4926  0.7605 -2.2333
  241MOL0     H32494   9.544   1.109   2.327 -0.1014  1.4979  0.4523
  241MOL0     H32495   9.544   1.265   2.607  0.9278 -2.3951  0.5544
  241MOL0     H32496   9.628   1.556   2.758  2.1811  3.6596 -1.7290
  241MOL0     H32497   9.596   1.604   2.593 -2.3304  2.4019  3.1086
  241MOL0     H32498   9.498   1.476   2.671 -0.9317  1.7805  1.7724
  241MOL0     H32499  10.061   1.730   2.753 -1.8623  1.2780 -0.9738
  241MOL0     H32500  10.204   1.931   2.792  0.6529 -0.8551  0.8993
  241MOL0     H32501  10.439   2.087   2.413 -1.1172 -0.6781 -0.2897
  241MOL0     H32502  10.305   2.196   2.460 -0.2097  0.5253  3.2849
  241MOL0     H32503  10.491   2.328   2.483 -2.3707  1.2197  0.9339
  241MOL0     H32504  10.469   2.278   2.645 -2.2703  0.2999 -1.3966
  241MOL0     H32505  10.670   2.165   2.434  0.5364 -4.4029 -0.4528
  241MOL0     H32506  10.656   2.090   2.594  1.7766  0.2004  0.5246
  241MOL0     H32507  10.705   2.388   2.558 -3.5447 -1.0628 -0.0435
  241MOL0     H32508  10.734   2.286   2.713 -1.5023 -1.3099 -0.3654
  241MOL0     H32509  10.941   2.383   2.584  0.3601  0.2024  0.6724
  241MOL0     H32510  10.871   2.291   2.443  1.0414 -0.5809  0.4250
  241MOL0     H32511  10.961   2.189   2.698 -2.9989  3.0263 -0.4413
  241MOL0     H32512  10.911   2.070   2.572  0.4391  0.1540 -2.5959
  241MOL0     H32513  11.156   2.258   2.552 -0.1586  0.7207 -3.8681
  241MOL0     H32514  11.093   2.150   2.432 -1.0130  0.1201 -0.3133
  241MOL0     H32515  11.216   2.068   2.715 -2.0340  0.0170  1.1347
  241MOL0     H32516  11.265   2.033   2.543  0.0031  2.7104  0.2002
  241MOL0     H32517  10.277   1.937   2.365 -2.6031  0.6980 -1.3985
  241MOL0     H32518  10.152   1.735   2.334  0.0428  1.2057 -1.0887
  241MOL0     H32519  10.008   1.374   2.466  0.6336 -0.2097  3.7720
  241MOL0     H32520   9.928   1.144   2.450  1.2130 -1.2978  3.8401
  241MOL0     H32521  10.151   2.092   3.280 -0.8973  1.3272  2.4159
  241MOL0     H32522  10.244   2.278   3.400 -2.0443 -0.3129  2.0388
  241MOL0     H32523  10.480   2.513   3.574 -0.8597 -1.1553 -0.3795
  241MOL0     H32524  10.503   2.714   3.701  3.7363 -1.2438 -2.7641
  241MOL0     H32525  10.517   2.798   4.128 -0.3431 -0.0157 -0.8454
  241MOL0     H32526  10.600   2.647   4.121  0.2274 -1.3680 -3.9117
  241MOL0     H32527  10.768   2.904   4.065 -0.3667  0.7933  1.0808
  241MOL0     H32528  10.833   2.763   4.098  1.0053  1.5158 -0.0760
  241MOL0     H32529  10.657   2.801   4.315  1.5731 -2.4345 -1.8852
  241MOL0     H32530  10.741   2.961   4.300  4.0548  0.8222 -1.2167
  241MOL0     H32531  10.853   2.810   4.463 -2.7523 -0.2131 -0.8745
  241MOL0     H32532  10.954   2.838   4.311  0.4569 -2.8777 -1.5407
  241MOL0     H32533  10.909   2.433   4.368  0.5326  0.2405 -1.3732
  241MOL0     H32534  10.633   2.472   4.034  1.2306 -0.1159 -0.4811
  241MOL0     H32535  10.588   2.277   3.909  0.8374 -0.7259  0.5147
  242MOL0     O32536   4.646  10.087  10.984  0.3526  0.3156 -0.8537
  242MOL0     C32537   4.672  10.129  11.101  0.9527  0.2169 -0.1100
  242MOL0     O32538   4.768  10.220  11.132 -0.2239 -0.1748 -0.8369
  242MOL0     C32539   4.885  10.236  11.052  0.3928  0.1556  1.0781
  242MOL0     C32540   4.981  10.321  11.108  0.0525 -0.0913  0.2272
  242MOL0     C32541   5.099  10.350  11.045  0.3257  0.0108 -0.1782
  242MOL0     C32542   5.133  10.298  10.919  0.6343 -0.3210  1.0385
  242MOL0     O32543   5.255  10.338  10.866  0.4493  0.7073 -0.5191
  242MOL0     C32544   5.269  10.352  10.729  0.4641 -0.6475  0.3622
  242MOL0     C32545   5.397  10.421  10.691  0.6610 -0.0936  0.0456
  242MOL0     C32546   5.410  10.448  10.548  0.4589  0.1497  0.2213
  242MOL0     C32547   5.548  10.493  10.491  0.6195  0.3400  0.2856
  242MOL0     C32548   5.533  10.516  10.340 -0.0274 -0.4898 -1.3277
  242MOL0     C32549   5.667  10.568  10.282  0.6135  0.0289  0.0998
  242MOL0     C32550   5.638  10.603  10.137  0.2335  0.3344 -0.1610
  242MOL0     C32551   5.773  10.633  10.076 -0.5654  0.6534  0.4498
  242MOL0     N32552   5.781  10.665   9.934  0.1807 -0.7053  0.9984
  242MOL0     C32553   5.680  10.686   9.841  1.0132 -1.0580 -0.2902
  242MOL0     C32554   5.739  10.777   9.749 -0.0581  0.2252  0.4173
  242MOL0     C32555   5.661  10.840   9.640  0.8653 -0.1582 -0.2104
  242MOL0     C32556   5.546  10.933   9.689  0.2330  0.6558 -0.2178
  242MOL0     C32557   5.604  11.061   9.749  0.1307 -0.1744  0.0957
  242MOL0     C32558   5.498  11.126   9.851  0.7228 -0.4540  0.3103
  242MOL0     O32559   5.543  11.241   9.929  0.5008  0.8526  0.0807
  242MOL0     C32560   5.482  11.251  10.056  0.3379  0.1015  0.7388
  242MOL0     C32561   5.357  11.192  10.089  0.2087 -0.5376 -0.9274
  242MOL0     C32562   5.297  11.198  10.220  0.0836 -0.1234 -0.7950
  242MOL0     C32563   5.159  11.137  10.238  0.4982  0.2156  0.3373
  242MOL0     C32564   5.371  11.272  10.315 -0.2289  0.0951  0.5061
  242MOL0     C32565   5.318  11.297  10.454 -0.7316 -0.0261  0.4130
  242MOL0     O32566   5.407  11.345  10.547  0.3784 -0.1418  0.1582
  242MOL0     C32567   5.355  11.368  10.677  0.1392 -0.0565 -0.1165
  242MOL0     C32568   5.306  11.261  10.762 -0.2747 -0.0353 -0.3006
  242MOL0     C32569   5.261  11.300  10.884 -0.3158  1.1429 -0.6924
  242MOL0     C32570   5.256  11.436  10.922  0.0636 -0.9351 -0.4040
  242MOL0     O32571   5.212  11.455  11.049  0.2431  0.6303  0.0342
  242MOL0     C32572   5.156  11.576  11.095  0.3160 -0.6540 -1.0616
  242MOL0     C32573   5.114  11.558  11.236  0.3999 -0.0458  0.4874
  242MOL0     C32574   5.027  11.430  11.264 -0.6312 -0.4377 -0.3283
  242MOL0     C32575   4.893  11.421  11.195  0.4879 -0.4120 -0.4133
  242MOL0     C32576   4.834  11.282  11.216  0.0195 -0.2021  0.4001
  242MOL0     C32577   4.821  11.206  11.088  0.2287 -0.1185  0.7584
  242MOL0     C32578   4.729  11.090  11.116 -0.3506  0.2210 -0.4752
  242MOL0     C32579   4.616  11.080  11.022 -0.8292  0.2799  0.2929
  242MOL0    Cl32580   4.477  11.167  11.064  0.0055  0.3013  0.5024
  242MOL0     C32581   5.310  11.538  10.842  0.0061 -0.2674 -0.0184
  242MOL0     C32582   5.356  11.499  10.715 -0.4376 -0.2216 -0.6708
  242MOL0     O32583   5.200  11.299  10.472  0.1503 -1.0281 -1.1102
  242MOL0     C32584   5.493  11.334  10.273 -0.1309 -0.3962 -0.1672
  242MOL0     C32585   5.559  11.323  10.150  1.1912 -0.7293  0.0505
  242MOL0     N32586   5.872  10.788   9.775 -0.6592 -0.9435  0.1973
  242MOL0     N32587   5.895  10.722   9.885 -0.9273 -0.5807  0.0764
  242MOL0     C32588   5.030  10.240  10.844  0.3471  0.1066  0.0180
  242MOL0     C32589   4.914  10.205  10.911  0.3802 -0.2797 -0.2159
  242MOL0     C32590   4.577  10.087  11.203 -0.7584  0.7377 -0.7499
  242MOL0     C32591   4.599  10.139  11.331 -0.9796  0.1932  0.2450
  242MOL0     C32592   4.521  10.106  11.438  0.8040  0.4503 -0.5455
  242MOL0     C32593   4.405  10.031  11.415 -0.1066 -0.1252 -0.9464
  242MOL0     O32594   4.314  10.009  11.522  0.0559  0.6575 -0.6349
  242MOL0     C32595   4.327  10.078  11.646  0.1015 -0.3426  0.4894
  242MOL0     C32596   4.376   9.993  11.765  1.1866  0.5734  1.2642
  242MOL0     C32597   4.297   9.854  11.760 -0.7447  0.2381 -1.0559
  242MOL0     C32598   4.315   9.770  11.892 -0.3998  0.0534  0.0004
  242MOL0     C32599   4.225   9.648  11.884  0.1375 -0.1375 -0.5674
  242MOL0     C32600   4.167   9.543  11.878 -0.3050 -0.2949  0.0955
  242MOL0     C32601   4.381   9.985  11.287  0.2422  0.3781 -0.8067
  242MOL0     C32602   4.473  10.002  11.178  0.1817  0.1092 -0.7782
  242MOL0     H32603   4.967  10.379  11.198 -3.8335  0.5117 -0.6029
  242MOL0     H32604   5.175  10.408  11.095 -0.3591 -0.6630  1.7113
  242MOL0     H32605   5.267  10.252  10.683  1.8586 -1.4749  2.0028
  242MOL0     H32606   5.182  10.402  10.687  0.4354 -0.2129  0.9329
  242MOL0     H32607   5.403  10.517  10.744 -3.1290 -0.2757  1.0791
  242MOL0     H32608   5.486  10.368  10.725  1.3867 -0.1732 -1.8725
  242MOL0     H32609   5.380  10.367  10.480  2.7815  0.1034 -0.8472
  242MOL0     H32610   5.343  10.533  10.529  2.1077  1.5261  0.3037
  242MOL0     H32611   5.569  10.587  10.543 -0.4568  1.2571 -0.8581
  242MOL0     H32612   5.629  10.423  10.511  1.2307  1.9839  4.4705
  242MOL0     H32613   5.509  10.420  10.294 -2.1146 -0.7398  0.1623
  242MOL0     H32614   5.451  10.587  10.323 -1.7946 -2.3124 -0.7342
  242MOL0     H32615   5.688  10.660  10.338 -1.6954  2.0209 -2.0522
  242MOL0     H32616   5.734  10.481  10.286 -1.8329 -2.2043 -2.6352
  242MOL0     H32617   5.585  10.525  10.083 -1.4029 -1.1244  3.2501
  242MOL0     H32618   5.581  10.697  10.139  2.4690  1.7605  1.2652
  242MOL0     H32619   5.839  10.549  10.103 -3.5387 -0.8526  3.8436
  242MOL0     H32620   5.813  10.715  10.135 -0.6209 -1.0849  3.0503
  242MOL0     H32621   5.574  10.664   9.852  0.3765  1.7385 -0.1996
  242MOL0     H32622   5.738  10.893   9.583 -1.1293  2.4643 -0.6131
  242MOL0     H32623   5.630  10.759   9.573  0.5416  0.2820 -0.5933
  242MOL0     H32624   5.485  10.873   9.758  2.3599 -0.1494  1.0789
  242MOL0     H32625   5.482  10.951   9.602  1.0539 -3.3541 -1.8881
  242MOL0     H32626   5.631  11.133   9.671 -1.5977  1.3121  0.7939
  242MOL0     H32627   5.697  11.034   9.800 -0.0149  0.6222  0.8104
  242MOL0     H32628   5.460  11.047   9.917 -1.2684 -1.5755 -1.9715
  242MOL0     H32629   5.412  11.158   9.791  2.5318  0.3988 -2.0003
  242MOL0     H32630   5.308  11.121  10.023  0.3379 -1.1401 -0.3855
  242MOL0     H32631   5.129  11.060  10.166  0.5546 -0.3840  0.9395
  242MOL0     H32632   5.159  11.095  10.339 -0.8321  0.1607  0.3240
  242MOL0     H32633   5.078  11.209  10.230 -3.1990 -3.5826  0.2276
  242MOL0     H32634   5.301  11.164  10.714 -0.7004  0.4991 -1.3510
  242MOL0     H32635   5.224  11.216  10.942  3.4136  0.5388  1.1373
  242MOL0     H32636   5.225  11.660  11.107 -2.5070  1.6531  0.3696
  242MOL0     H32637   5.074  11.608  11.030 -2.6603  0.4907  2.8635
  242MOL0     H32638   5.200  11.563  11.303  0.6660  0.6195  0.0957
  242MOL0     H32639   5.061  11.649  11.264 -1.1620 -1.7524  3.7935
  242MOL0     H32640   5.027  11.432  11.374  2.5678 -0.2917 -0.2303
  242MOL0     H32641   5.097  11.350  11.237  2.2533  1.2455  1.5413
  242MOL0     H32642   4.827  11.490  11.250 -0.4370 -3.2893  2.4525
  242MOL0     H32643   4.897  11.449  11.090  0.7967 -0.4631 -0.4157
  242MOL0     H32644   4.738  11.296  11.267  0.5292 -1.3884  1.7560
  242MOL0     H32645   4.892  11.214  11.279  2.8147  0.2356 -1.5040
  242MOL0     H32646   4.791  11.256  10.995 -2.7139 -3.9966 -0.6533
  242MOL0     H32647   4.917  11.158  11.066 -0.0499  0.2885 -1.6961
  242MOL0     H32648   4.695  11.105  11.219  2.0604  1.2111  0.2721
  242MOL0     H32649   4.799  11.006  11.118 -0.2894  0.1265  3.8966
  242MOL0     H32650   4.589  10.974  11.021 -0.0127  0.0739 -1.2956
  242MOL0     H32651   4.647  11.099  10.919 -0.8459  1.8420  0.5537
  242MOL0     H32652   5.319  11.642  10.871 -1.3491 -0.1260 -0.0344
  242MOL0     H32653   5.406  11.569  10.648  1.8810  0.7108  1.8627
  242MOL0     H32654   5.538  11.401  10.345 -2.0652  0.5157  0.2532
  242MOL0     H32655   5.645  11.376  10.113  0.1953 -1.2129 -3.2637
  242MOL0     H32656   5.042  10.200  10.743  3.0316 -0.7129  0.5832
  242MOL0     H32657   4.846  10.146  10.851  2.8084 -2.0510 -1.4148
  242MOL0     H32658   4.684  10.203  11.351 -0.1505 -0.8574  0.1880
  242MOL0     H32659   4.534  10.154  11.535 -1.9223  0.0149  0.1297
  242MOL0     H32660   4.394  10.164  11.647 -1.4730  1.0672 -2.3381
  242MOL0     H32661   4.225  10.108  11.669  0.3219 -0.5003  1.7023
  242MOL0     H32662   4.352  10.039  11.861 -0.2599 -4.1835  3.5157
  242MOL0     H32663   4.481   9.962  11.760  0.8170 -0.6194 -0.5085
  242MOL0     H32664   4.330   9.796  11.673 -1.9886 -2.2790  0.0438
  242MOL0     H32665   4.191   9.878  11.746 -0.1406  2.1767 -2.8577
  242MOL0     H32666   4.297   9.823  11.986 -0.5600 -1.3671  0.7904
  242MOL0     H32667   4.417   9.732  11.896 -0.7865 -1.0141 -0.0568
  242MOL0     H32668   4.112   9.452  11.861 -0.4943  0.0076 -1.0524
  242MOL0     H32669   4.293   9.924  11.272 -0.1928 -0.2485  3.3565
  242MOL0     H32670   4.445   9.962  11.082 -1.5709 -1.4465  0.3065
  243MOL0     O32671   5.949   2.658  10.929 -0.5311  0.5841 -0.7838
  243MOL0     C32672   6.010   2.717  11.019 -0.9475 -0.3064 -0.1185
  243MOL0     O32673   5.965   2.752  11.141 -0.1546 -0.0902 -0.4060
  243MOL0     C32674   5.835   2.764  11.183  0.4272  0.2364 -0.5233
  243MOL0     C32675   5.814   2.760  11.322 -0.6823 -0.0065  0.0399
  243MOL0     C32676   5.687   2.778  11.381 -0.5535  0.2852  0.0084
  243MOL0     C32677   5.585   2.821  11.303 -1.5442 -0.1846  0.7701
  243MOL0     O32678   5.470   2.846  11.360  0.1345  0.5907  0.0513
  243MOL0     C32679   5.350   2.833  11.277 -0.3990  1.1100 -0.1380
  243MOL0     C32680   5.233   2.840  11.380  0.1290  0.4550 -0.1886
  243MOL0     C32681   5.209   2.984  11.427 -0.3472 -0.8912  0.5751
  243MOL0     C32682   5.123   2.989  11.557  0.1153 -0.2121 -1.0872
  243MOL0     C32683   4.972   3.016  11.525  0.9335  1.1313 -0.6110
  243MOL0     C32684   4.903   3.005  11.669  0.0311 -0.1870  0.1459
  243MOL0     C32685   4.762   3.063  11.674  0.1365  0.6426 -0.0803
  243MOL0     C32686   4.676   2.985  11.582  0.5087  0.1999  0.6035
  243MOL0     N32687   4.693   2.840  11.596 -0.0811 -0.4879  0.4091
  243MOL0     C32688   4.687   2.767  11.715  0.6270  0.2766 -0.0459
  243MOL0     C32689   4.709   2.635  11.685  0.7090 -0.5745 -0.4422
  243MOL0     C32690   4.712   2.511  11.772 -0.2841  0.0371  0.3503
  243MOL0     C32691   4.597   2.501  11.873 -0.7378  0.2086  0.2958
  243MOL0     C32692   4.454   2.493  11.807  0.0940 -0.4020 -0.8847
  243MOL0     C32693   4.357   2.589  11.880  0.3231 -0.0126 -0.1640
  243MOL0     O32694   4.336   2.553  12.019  0.7192 -0.3343  0.1777
  243MOL0     C32695   4.235   2.625  12.080 -0.0901 -0.1955 -0.3242
  243MOL0     C32696   4.269   2.747  12.154  0.3280 -0.6910 -0.9186
  243MOL0     C32697   4.173   2.819  12.228  0.3496 -0.0099 -0.2575
  243MOL0     C32698   4.217   2.948  12.298 -0.1337 -0.4425  1.4201
  243MOL0     C32699   4.037   2.774  12.226  0.2061 -0.7327 -0.0257
  243MOL0     C32700   3.920   2.830  12.309 -0.2491 -0.7037 -0.1479
  243MOL0     O32701   3.798   2.770  12.289 -0.4903 -0.0882  0.6922
  243MOL0     C32702   3.689   2.821  12.352 -0.0517  0.2839 -0.0439
  243MOL0     C32703   3.622   2.921  12.299  0.2608 -0.1682  0.2977
  243MOL0     C32704   3.514   2.985  12.364  0.3934 -0.3217  0.0615
  243MOL0     C32705   3.466   2.939  12.489  0.3230 -0.6860  0.2692
  243MOL0     O32706   3.359   3.007  12.544  0.0169  0.1117 -0.0536
  243MOL0     C32707   3.283   2.937  12.651 -0.0570 -0.1649  1.0476
  243MOL0     C32708   3.186   3.045  12.705  0.3404 -0.3024  0.4786
  243MOL0     C32709   3.155   3.023  12.857 -0.2877 -0.2781  0.1497
  243MOL0     C32710   3.024   3.096  12.908  0.7659  0.1588  0.0143
  243MOL0     C32711   3.054   3.229  12.992  0.3873 -0.1158 -0.1590
  243MOL0     C32712   2.925   3.282  13.049  1.2242  0.2340 -0.5449
  243MOL0     C32713   2.963   3.394  13.146 -0.1253  0.1889  1.0932
  243MOL0     C32714   2.843   3.451  13.214  1.5955  0.7314 -0.6562
  243MOL0    Cl32715   2.766   3.574  13.121  0.4538 -0.0336 -0.2243
  243MOL0     C32716   3.518   2.809  12.532 -0.4850 -0.4134  0.2761
  243MOL0     C32717   3.633   2.755  12.464 -0.7368 -0.6634 -0.3932
  243MOL0     O32718   3.938   2.946  12.360  0.4259 -0.4625 -0.4047
  243MOL0     C32719   4.003   2.659  12.139 -0.4800 -0.6793  0.0877
  243MOL0     C32720   4.105   2.585  12.080  0.5540 -0.1636  0.1184
  243MOL0     N32721   4.737   2.637  11.552 -0.2380  0.1478  0.8384
  243MOL0     N32722   4.724   2.752  11.496 -0.0112 -0.3341 -0.1292
  243MOL0     C32723   5.603   2.819  11.158 -0.2731 -0.8339 -0.1722
  243MOL0     C32724   5.723   2.791  11.103  0.0323  0.2068 -0.1844
  243MOL0     C32725   6.158   2.725  11.001  0.0089 -0.5593 -1.1392
  243MOL0     C32726   6.236   2.647  10.906 -0.6923 -1.1965 -0.6746
  243MOL0     C32727   6.372   2.674  10.889  0.0784  0.7510  0.3626
  243MOL0     C32728   6.436   2.774  10.961 -0.1174  0.2769 -0.5507
  243MOL0     O32729   6.565   2.808  10.934 -0.1773 -0.7723 -0.0752
  243MOL0     C32730   6.648   2.692  10.947 -0.5482  0.1537 -0.0002
  243MOL0     C32731   6.773   2.722  11.024 -0.3931 -1.0235 -1.1642
  243MOL0     C32732   6.845   2.602  11.090  0.3203 -0.4332  1.4297
  243MOL0     C32733   6.988   2.652  11.129 -1.0168 -0.5028 -0.1654
  243MOL0     C32734   7.057   2.552  11.202  0.3830  0.0708 -0.9352
  243MOL0     C32735   7.128   2.476  11.259 -0.2418 -0.0205  0.3278
  243MOL0     C32736   6.360   2.851  11.053 -0.3227  0.3934 -0.0959
  243MOL0     C32737   6.222   2.832  11.066 -0.4813  1.1829  0.4463
  243MOL0     H32738   5.899   2.725  11.380  1.1766  1.4521 -1.6676
  243MOL0     H32739   5.668   2.766  11.487 -0.9619 -1.4192 -0.2292
  243MOL0     H32740   5.338   2.908  11.198 -0.2547 -1.8482 -3.1794
  243MOL0     H32741   5.342   2.738  11.224 -0.3545  2.9239 -3.6810
  243MOL0     H32742   5.143   2.787  11.346  0.4420  0.3114 -0.8010
  243MOL0     H32743   5.267   2.772  11.459  1.2028  2.1088  0.8207
  243MOL0     H32744   5.302   3.042  11.427 -1.1694  0.4851  1.3994
  243MOL0     H32745   5.142   3.017  11.348  0.1729 -2.2925 -0.4904
  243MOL0     H32746   5.140   2.892  11.604 -0.4144 -2.6859 -5.4834
  243MOL0     H32747   5.150   3.074  11.621  0.8022 -0.9638 -0.3665
  243MOL0     H32748   4.976   3.122  11.498  0.4826  1.1106 -0.7723
  243MOL0     H32749   4.935   2.945  11.451 -0.9840  0.5299  0.8352
  243MOL0     H32750   4.919   2.903  11.704 -1.4688  0.4883  3.1734
  243MOL0     H32751   4.950   3.065  11.748  1.5279  0.3918 -1.1277
  243MOL0     H32752   4.737   3.072  11.780  2.7197  2.7816  0.4686
  243MOL0     H32753   4.763   3.161  11.624 -0.5087  0.7198  0.0525
  243MOL0     H32754   4.695   3.007  11.476  0.7783 -3.0613 -0.1138
  243MOL0     H32755   4.568   2.994  11.594  0.3329 -3.1682  2.5492
  243MOL0     H32756   4.666   2.811  11.812  1.5046 -2.8195  1.6732
  243MOL0     H32757   4.707   2.419  11.712  3.9216  0.7899 -1.5490
  243MOL0     H32758   4.806   2.510  11.828 -0.4977 -1.2599  0.7301
  243MOL0     H32759   4.607   2.585  11.943  1.0377  0.8360 -0.6741
  243MOL0     H32760   4.601   2.408  11.931  0.4872  0.6230  0.9038
  243MOL0     H32761   4.414   2.391  11.812  1.0041 -0.7094  1.0160
  243MOL0     H32762   4.467   2.515  11.701 -2.1321  1.4459 -0.8695
  243MOL0     H32763   4.267   2.567  11.822  0.4827  0.4831 -0.6024
  243MOL0     H32764   4.398   2.688  11.859 -0.8046  0.2902 -1.0989
  243MOL0     H32765   4.369   2.788  12.164  0.2752 -0.8265  0.2271
  243MOL0     H32766   4.145   3.028  12.279 -0.3101 -0.2503  2.8018
  243MOL0     H32767   4.218   2.923  12.405  1.8258 -1.0716  1.2935
  243MOL0     H32768   4.310   2.989  12.256 -0.6678 -1.4574 -0.9019
  243MOL0     H32769   3.646   2.954  12.198  1.9581  0.3107  0.8345
  243MOL0     H32770   3.459   3.074  12.334 -0.1877  0.2156  2.4827
  243MOL0     H32771   3.229   2.852  12.607  2.2061  0.1346 -2.7632
  243MOL0     H32772   3.347   2.909  12.735  3.1973  2.4888 -0.3217
  243MOL0     H32773   3.210   3.147  12.671 -0.0518 -1.0035 -2.1228
  243MOL0     H32774   3.095   3.022  12.649  2.0188 -1.5263 -1.9200
  243MOL0     H32775   3.244   3.051  12.914 -0.1340 -1.1604  0.3581
  243MOL0     H32776   3.132   2.916  12.859 -1.4806 -0.0416  2.7604
  243MOL0     H32777   2.945   3.105  12.833  0.6223  1.5179  0.3089
  243MOL0     H32778   2.981   3.026  12.980 -0.0233  1.7257  1.1117
  243MOL0     H32779   3.085   3.312  12.928 -3.5945  0.7355 -1.3196
  243MOL0     H32780   3.135   3.216  13.064 -0.6177 -0.3385  0.9567
  243MOL0     H32781   2.863   3.319  12.966  2.0965  0.9166 -0.9141
  243MOL0     H32782   2.874   3.199  13.098 -2.0148  2.2449 -0.2240
  243MOL0     H32783   3.037   3.460  13.099 -0.0406  0.3641  1.4733
  243MOL0     H32784   3.025   3.354  13.226  2.9914 -0.0814 -1.2799
  243MOL0     H32785   2.867   3.486  13.315 -3.4669 -0.1342  1.1363
  243MOL0     H32786   2.766   3.375  13.231  0.4392  1.8829 -0.5550
  243MOL0     H32787   3.474   2.758  12.616  1.7707 -0.6424  1.3970
  243MOL0     H32788   3.666   2.656  12.496 -1.0429 -1.6301 -2.8545
  243MOL0     H32789   3.903   2.619  12.129 -0.3074 -1.1159  0.0961
  243MOL0     H32790   4.065   2.498  12.028  2.2877 -0.4186 -0.8404
  243MOL0     H32791   5.523   2.847  11.090 -1.3010 -0.2745  1.2408
  243MOL0     H32792   5.738   2.794  10.996 -0.1941  1.5498 -0.2023
  243MOL0     H32793   6.188   2.569  10.847 -1.5528 -0.2814 -1.2104
  243MOL0     H32794   6.431   2.612  10.823  0.5602  1.3042  0.2733
  243MOL0     H32795   6.598   2.610  11.001 -0.4663 -0.4005 -0.7600
  243MOL0     H32796   6.669   2.660  10.845 -6.2567  0.8627 -1.7200
  243MOL0     H32797   6.756   2.811  11.086  0.6900 -0.2318 -1.9534
  243MOL0     H32798   6.832   2.775  10.949  0.3439  0.8795  0.6465
  243MOL0     H32799   6.844   2.521  11.016 -1.3080 -0.7384  1.7391
  243MOL0     H32800   6.771   2.560  11.159  0.0085 -0.8261  0.8701
  243MOL0     H32801   6.994   2.747  11.184  2.2143 -0.2565 -0.7690
  243MOL0     H32802   7.053   2.657  11.042  0.7811 -2.1327  0.9905
  243MOL0     H32803   7.188   2.400  11.305 -0.2114 -0.5522 -0.5678
  243MOL0     H32804   6.411   2.928  11.110 -0.8897 -0.0592  1.0523
  243MOL0     H32805   6.159   2.896  11.126 -2.3343 -1.2094  1.2007
  244MOL0     O32806   6.999   9.718   8.153 -0.3685 -0.7484  0.5119
  244MOL0     C32807   7.077   9.644   8.210 -0.0081  0.5917 -0.2800
  244MOL0     O32808   7.039   9.527   8.288 -0.0067  0.2321 -0.1284
  244MOL0     C32809   6.903   9.508   8.315  0.1041  0.2951 -1.2995
  244MOL0     C32810   6.864   9.482   8.451  0.4319  0.1974 -0.0925
  244MOL0     C32811   6.737   9.435   8.483 -0.0791  0.0733 -0.4523
  244MOL0     C32812   6.644   9.418   8.382  0.7846  0.3900  0.5528
  244MOL0     O32813   6.522   9.365   8.396  0.1155 -0.8420 -0.3913
  244MOL0     C32814   6.450   9.381   8.518  1.1172 -0.0362 -0.1954
  244MOL0     C32815   6.311   9.351   8.474  0.1906  0.4911  0.6330
  244MOL0     C32816   6.234   9.295   8.592  0.0413  0.6765 -1.5295
  244MOL0     C32817   6.226   9.400   8.708 -0.1449  0.6117  0.3264
  244MOL0     C32818   6.129   9.368   8.828 -0.1475  0.3251 -0.4128
  244MOL0     C32819   6.175   9.247   8.906 -0.6366  0.7995 -0.1717
  244MOL0     C32820   6.086   9.236   9.033 -0.2378  0.1545  0.1909
  244MOL0     C32821   6.101   9.107   9.115  0.0831  0.5267  0.0084
  244MOL0     N32822   6.240   9.093   9.154 -1.1588 -0.9610 -1.0103
  244MOL0     C32823   6.295   9.175   9.256  0.4365  0.3267 -0.1905
  244MOL0     C32824   6.423   9.129   9.260 -0.0054  0.1578  0.1022
  244MOL0     C32825   6.532   9.177   9.353 -0.2854 -0.3550 -0.4139
  244MOL0     C32826   6.586   9.062   9.437 -0.4031 -0.4786  0.3248
  244MOL0     C32827   6.652   9.118   9.569 -0.6890 -0.7403 -0.2308
  244MOL0     C32828   6.689   9.019   9.679  0.8536  1.1926 -0.8710
  244MOL0     O32829   6.568   8.933   9.691  0.3190 -0.3960 -0.2061
  244MOL0     C32830   6.571   8.837   9.796 -1.1421 -0.9215 -0.1293
  244MOL0     C32831   6.686   8.784   9.851  0.4229  0.4013 -0.4019
  244MOL0     C32832   6.685   8.677   9.943 -1.0162  0.1289  0.2265
  244MOL0     C32833   6.819   8.643  10.020 -0.3871  0.4771  0.0159
  244MOL0     C32834   6.564   8.610   9.965 -0.8009  0.2720 -0.4325
  244MOL0     C32835   6.555   8.487  10.057 -0.1025  0.2026 -0.0449
  244MOL0     O32836   6.648   8.396  10.037  0.2794  0.6961 -0.3389
  244MOL0     C32837   6.613   8.265  10.081 -0.4755 -0.8636  0.7828
  244MOL0     C32838   6.697   8.220  10.175 -0.9640  0.6203  0.5322
  244MOL0     C32839   6.679   8.095  10.229 -0.5305 -0.3439  0.1122
  244MOL0     C32840   6.568   8.021  10.202  0.2071 -0.2127  1.0130
  244MOL0     O32841   6.546   7.894  10.251 -0.0253  0.6908 -0.6432
  244MOL0     C32842   6.477   7.792  10.171  0.2902  0.7859 -0.3050
  244MOL0     C32843   6.578   7.676  10.165  0.2014 -0.2302 -0.4891
  244MOL0     C32844   6.507   7.543  10.136  0.2332 -0.0204  0.7479
  244MOL0     C32845   6.571   7.418  10.194 -0.0379  0.1518  0.1314
  244MOL0     C32846   6.483   7.298  10.149 -0.5699  0.2865  0.2688
  244MOL0     C32847   6.558   7.169  10.192 -0.2275 -0.6612  0.2222
  244MOL0     C32848   6.505   7.042  10.124 -0.3306 -0.4854 -0.0374
  244MOL0     C32849   6.540   6.919  10.203  0.3109 -0.9895  0.0954
  244MOL0    Cl32850   6.492   6.776  10.110 -0.0910  0.1461  0.1137
  244MOL0     C32851   6.475   8.078  10.110 -0.5793 -0.2677  0.9670
  244MOL0     C32852   6.494   8.197  10.045 -0.1090  0.2987  0.4607
  244MOL0     O32853   6.472   8.486  10.147  0.0349  0.5383  0.4849
  244MOL0     C32854   6.446   8.668   9.920  0.1081 -0.2553  0.7034
  244MOL0     C32855   6.447   8.786   9.839 -0.3417  1.0061 -0.7747
  244MOL0     N32856   6.438   9.024   9.161 -0.3960  0.2811  0.5339
  244MOL0     N32857   6.331   9.017   9.094 -0.1863  0.1529  0.0017
  244MOL0     C32858   6.678   9.461   8.256 -0.4480 -0.4321  0.1212
  244MOL0     C32859   6.804   9.507   8.224  0.2285 -0.5740  0.5642
  244MOL0     C32860   7.225   9.657   8.188  0.0050 -0.2000  0.9393
  244MOL0     C32861   7.283   9.769   8.135  0.5191 -0.7200  0.2473
  244MOL0     C32862   7.423   9.801   8.144  0.0285  0.7400  0.6714
  244MOL0     C32863   7.503   9.701   8.216  0.1773 -0.0121  0.6130
  244MOL0     O32864   7.631   9.749   8.237 -0.3817 -0.5023 -0.1237
  244MOL0     C32865   7.731   9.665   8.294 -0.0041 -0.2948 -0.4943
  244MOL0     C32866   7.869   9.736   8.295 -0.3079  0.2768  0.4722
  244MOL0     C32867   7.910   9.793   8.433  0.0863 -0.6665  0.0699
  244MOL0     C32868   7.950   9.676   8.529 -0.5579  0.1692 -0.1304
  244MOL0     C32869   8.002   9.736   8.650 -0.1001  1.0581  0.4567
  244MOL0     C32870   8.047   9.793   8.745 -0.6021  0.5383 -0.4001
  244MOL0     C32871   7.444   9.579   8.258 -0.7293 -0.0536  0.2284
  244MOL0     C32872   7.306   9.561   8.240 -0.6293 -0.1882 -0.5370
  244MOL0     H32873   6.934   9.480   8.533 -0.6464 -1.1513  0.8318
  244MOL0     H32874   6.709   9.407   8.584  1.0644  2.5787  0.6617
  244MOL0     H32875   6.488   9.310   8.592  0.0978  1.3632  1.7936
  244MOL0     H32876   6.458   9.477   8.569 -0.1230 -0.6833  1.3214
  244MOL0     H32877   6.265   9.439   8.427  2.3681  2.1048  1.3558
  244MOL0     H32878   6.315   9.269   8.402 -0.4445 -1.7014  2.9744
  244MOL0     H32879   6.136   9.258   8.560 -1.5400  1.2169  2.2201
  244MOL0     H32880   6.283   9.201   8.621  2.6120  2.4167  0.1428
  244MOL0     H32881   6.325   9.420   8.750  2.8177  0.0505 -5.3476
  244MOL0     H32882   6.197   9.490   8.653  2.1524  1.1560 -0.1118
  244MOL0     H32883   6.108   9.455   8.891  0.2017  0.9570 -1.1555
  244MOL0     H32884   6.030   9.362   8.782  0.1051  2.9140 -1.4363
  244MOL0     H32885   6.169   9.164   8.835 -0.7457 -0.3643  1.1494
  244MOL0     H32886   6.283   9.253   8.925 -0.2551 -2.1202 -1.0629
  244MOL0     H32887   6.112   9.327   9.089 -0.6004 -0.5633  1.5621
  244MOL0     H32888   5.979   9.236   9.010 -0.3426 -1.9899  0.4546
  244MOL0     H32889   6.063   9.021   9.059 -0.5824  0.0819  1.1108
  244MOL0     H32890   6.035   9.114   9.202  0.9133  1.1762  0.5931
  244MOL0     H32891   6.246   9.244   9.323 -0.7808 -1.1994  0.5728
  244MOL0     H32892   6.608   9.229   9.295  0.5461 -0.9537  0.1191
  244MOL0     H32893   6.502   9.252   9.428  0.3313 -0.2790 -0.2354
  244MOL0     H32894   6.662   9.014   9.374 -0.4662 -0.0353 -0.0939
  244MOL0     H32895   6.491   9.011   9.458 -1.5752  2.5118  2.9167
  244MOL0     H32896   6.581   9.185   9.618 -1.0284  0.4691 -2.2449
  244MOL0     H32897   6.737   9.183   9.545 -2.4191  1.3646 -0.9822
  244MOL0     H32898   6.707   9.062   9.778 -3.5034 -1.1572  1.2280
  244MOL0     H32899   6.771   8.956   9.643 -0.8873 -1.3570 -0.6659
  244MOL0     H32900   6.781   8.832   9.828  0.5436  0.1955 -0.3388
  244MOL0     H32901   6.832   8.704  10.109 -3.9323 -0.7490  1.5403
  244MOL0     H32902   6.820   8.543  10.065 -0.8511  0.0879 -0.8153
  244MOL0     H32903   6.906   8.654   9.954  0.2436 -0.4892  0.6488
  244MOL0     H32904   6.783   8.275  10.211 -1.3609  0.9826  0.9431
  244MOL0     H32905   6.739   8.049  10.307 -0.1155 -0.3419 -0.1983
  244MOL0     H32906   6.380   7.769  10.218  0.5118  1.3942  0.4598
  244MOL0     H32907   6.454   7.825  10.069 -0.0882  2.1119  0.1979
  244MOL0     H32908   6.662   7.704  10.101  3.0354 -2.4445  1.9739
  244MOL0     H32909   6.621   7.669  10.265 -4.1103  2.1752  1.8015
  244MOL0     H32910   6.498   7.545  10.027 -3.9561  3.0038  0.9045
  244MOL0     H32911   6.402   7.550  10.166 -1.1932  0.1482 -3.6469
  244MOL0     H32912   6.677   7.415  10.169  0.1700 -4.5314  0.6106
  244MOL0     H32913   6.563   7.419  10.303 -1.6459 -0.7169  0.0483
  244MOL0     H32914   6.475   7.307  10.040  0.9429  1.7767  0.2263
  244MOL0     H32915   6.382   7.317  10.187 -1.0144 -2.9761  1.0576
  244MOL0     H32916   6.661   7.177  10.155 -0.7499  2.3182 -0.9114
  244MOL0     H32917   6.557   7.163  10.302  0.9777 -1.6707  0.2017
  244MOL0     H32918   6.542   7.039  10.021 -1.6590  0.3744 -0.5721
  244MOL0     H32919   6.396   7.054  10.129 -0.3647 -1.2815  1.8127
  244MOL0     H32920   6.473   6.920  10.289  0.1727 -0.0337 -0.0118
  244MOL0     H32921   6.643   6.912  10.238 -0.8289 -2.7460  3.5639
  244MOL0     H32922   6.387   8.030  10.069  1.4533 -0.0158 -4.4902
  244MOL0     H32923   6.426   8.236   9.970  0.3887 -2.4335 -1.6140
  244MOL0     H32924   6.346   8.627   9.930 -2.1298  4.8112  2.3757
  244MOL0     H32925   6.355   8.827   9.798 -0.7970  1.0330  0.2538
  244MOL0     H32926   6.596   9.451   8.185  1.4038 -1.0204 -2.0587
  244MOL0     H32927   6.814   9.545   8.123  0.2547  1.5323  1.3129
  244MOL0     H32928   7.223   9.845   8.086  0.3260 -0.8242  0.3218
  244MOL0     H32929   7.461   9.899   8.118  0.0588  0.9750  1.5710
  244MOL0     H32930   7.704   9.638   8.397  3.0207 -1.8394 -0.0104
  244MOL0     H32931   7.741   9.568   8.244 -1.8644 -2.1298  2.3921
  244MOL0     H32932   7.862   9.820   8.225  2.1898  0.3424  0.2112
  244MOL0     H32933   7.955   9.677   8.260  0.0269 -0.8639  3.0187
  244MOL0     H32934   7.824   9.845   8.477 -1.6088 -4.5973  1.9391
  244MOL0     H32935   7.989   9.867   8.416 -0.5050  0.0788  0.5015
  244MOL0     H32936   8.033   9.619   8.485 -2.5827 -1.1587 -2.4235
  244MOL0     H32937   7.870   9.605   8.552  0.1582 -2.2042 -4.0536
  244MOL0     H32938   8.059   9.832   8.844  1.5855  1.2484 -0.9057
  244MOL0     H32939   7.509   9.519   8.322 -0.3721 -1.5181 -1.4244
  244MOL0     H32940   7.274   9.469   8.290  2.0262  0.5076  2.8513
  245MOL0     O32941   3.432   5.536   5.548  0.2699  0.3205  0.6315
  245MOL0     C32942   3.481   5.435   5.591 -0.0070  0.1890 -0.0259
  245MOL0     O32943   3.444   5.312   5.558  0.1258  0.1710 -0.2996
  245MOL0     C32944   3.353   5.287   5.462  0.8279  0.1479  0.1011
  245MOL0     C32945   3.217   5.277   5.483  0.8107 -0.6098 -0.1012
  245MOL0     C32946   3.137   5.215   5.386  0.1364  0.9662  0.3636
  245MOL0     C32947   3.187   5.180   5.262 -0.6223 -0.0651 -0.8078
  245MOL0     O32948   3.090   5.125   5.183  0.2796 -0.0810 -0.1754
  245MOL0     C32949   3.117   5.123   5.046  0.0131 -0.1050 -0.0460
  245MOL0     C32950   2.983   5.097   4.971  0.7104 -0.1282 -0.0113
  245MOL0     C32951   2.899   4.977   5.021 -0.5844  0.4063 -0.1984
  245MOL0     C32952   2.970   4.849   4.973 -0.0307  0.3622 -1.3477
  245MOL0     C32953   2.896   4.729   5.051 -0.7374 -0.1123  0.6998
  245MOL0     C32954   2.947   4.593   5.004 -0.0788 -0.0098 -0.9611
  245MOL0     C32955   3.097   4.558   5.024  0.2852 -0.0566 -0.2424
  245MOL0     C32956   3.133   4.575   5.171 -1.1184  0.1881  1.0574
  245MOL0     N32957   3.063   4.499   5.269 -0.0689  0.2156 -0.0952
  245MOL0     C32958   3.124   4.395   5.338 -0.4515  0.1817 -0.8526
  245MOL0     C32959   3.025   4.351   5.423 -0.5615 -0.0241  0.6722
  245MOL0     C32960   3.049   4.231   5.525 -0.0520 -0.9636  0.5594
  245MOL0     C32961   2.924   4.136   5.531  0.1434  0.2467  0.3831
  245MOL0     C32962   2.941   4.025   5.631  0.5505  1.4129  0.9815
  245MOL0     C32963   3.065   3.933   5.614 -0.3189 -0.2145 -0.7086
  245MOL0     O32964   3.064   3.835   5.723 -0.6806  0.1904  0.2091
  245MOL0     C32965   3.176   3.778   5.764 -0.5019 -1.3301  0.3075
  245MOL0     C32966   3.179   3.762   5.900 -0.9752 -0.9283  0.2183
  245MOL0     C32967   3.299   3.707   5.951 -0.1067 -0.2475 -0.2726
  245MOL0     C32968   3.297   3.683   6.100 -0.5908 -1.3959  0.1678
  245MOL0     C32969   3.414   3.688   5.876  0.4418  0.5363 -0.3235
  245MOL0     C32970   3.548   3.645   5.926  0.6115  0.2122  0.1059
  245MOL0     O32971   3.659   3.698   5.862  0.0525 -0.3573 -0.3165
  245MOL0     C32972   3.789   3.673   5.912 -0.7978  0.3580 -0.4578
  245MOL0     C32973   3.854   3.742   6.014  0.0422 -0.3425  0.2776
  245MOL0     C32974   3.985   3.719   6.056  0.8175 -0.0569  0.5335
  245MOL0     C32975   4.051   3.622   5.983 -0.5368  0.7135  0.5664
  245MOL0     O32976   4.188   3.592   6.005 -0.5419 -0.0247  0.2018
  245MOL0     C32977   4.271   3.703   6.046 -0.1380  0.2007 -0.0993
  245MOL0     C32978   4.405   3.701   5.963  0.3192  1.0148 -0.6511
  245MOL0     C32979   4.501   3.811   6.010 -0.3482 -0.4767  0.7332
  245MOL0     C32980   4.607   3.859   5.911 -0.0956 -0.3313  0.4380
  245MOL0     C32981   4.681   3.989   5.942 -0.1258 -0.6318  1.3610
  245MOL0     C32982   4.596   4.101   5.999 -0.0780  0.0417 -0.8090
  245MOL0     C32983   4.682   4.220   6.049 -0.1713  0.6322 -0.4343
  245MOL0     C32984   4.583   4.328   6.099 -0.7095  0.1343  0.4955
  245MOL0    Cl32985   4.511   4.279   6.260  0.2441 -0.2626  0.1873
  245MOL0     C32986   3.990   3.536   5.882 -0.6442 -0.4745 -0.2921
  245MOL0     C32987   3.859   3.564   5.851  0.1526  0.2134  0.0291
  245MOL0     O32988   3.555   3.570   6.024  0.1117  0.8753  0.4889
  245MOL0     C32989   3.403   3.715   5.740 -0.6555  0.3517 -0.0854
  245MOL0     C32990   3.284   3.754   5.677 -0.4029  0.9993 -0.5005
  245MOL0     N32991   2.916   4.428   5.406 -0.0004 -0.8801 -0.4209
  245MOL0     N32992   2.940   4.515   5.315  0.7935  0.4050  0.2438
  245MOL0     C32993   3.328   5.197   5.236 -0.2347  0.5432 -0.5798
  245MOL0     C32994   3.402   5.250   5.336 -0.7273 -0.1517 -0.5122
  245MOL0     C32995   3.575   5.452   5.709 -0.1326 -0.2899 -0.1046
  245MOL0     C32996   3.680   5.361   5.731 -0.2922  0.2757  0.4191
  245MOL0     C32997   3.749   5.363   5.838 -0.7819  0.1114 -0.8695
  245MOL0     C32998   3.737   5.466   5.933 -0.8419  0.0060 -0.7253
  245MOL0     O32999   3.829   5.477   6.039 -0.5894 -0.2214 -0.6081
  245MOL0     C33000   3.801   5.589   6.137 -0.9413 -0.1768  1.1804
  245MOL0     C33001   3.898   5.587   6.255 -0.0913  0.8244 -1.0027
  245MOL0     C33002   4.047   5.573   6.203  0.0339  0.0485  0.8225
  245MOL0     C33003   4.154   5.638   6.289  0.3897  0.2145  0.1847
  245MOL0     C33004   4.284   5.597   6.231  0.1416  0.1183  0.0597
  245MOL0     C33005   4.388   5.549   6.187  0.0433 -0.4619 -0.3864
  245MOL0     C33006   3.641   5.570   5.910 -0.4396  0.2026  0.2510
  245MOL0     C33007   3.553   5.561   5.796 -0.1609  0.2274 -0.6144
  245MOL0     H33008   3.159   5.307   5.569  1.8317  0.2312  0.3143
  245MOL0     H33009   3.030   5.205   5.401 -0.0314  0.4732 -1.0544
  245MOL0     H33010   3.159   5.219   5.014  0.0160 -0.5147 -1.3433
  245MOL0     H33011   3.195   5.051   5.018  0.8206 -0.1897  2.1875
  245MOL0     H33012   2.932   5.193   4.984  2.4211  0.7388  0.4995
  245MOL0     H33013   2.997   5.094   4.863 -2.4397  3.7578 -0.7590
  245MOL0     H33014   2.904   4.974   5.130  0.8274 -2.7182 -0.2146
  245MOL0     H33015   2.796   4.969   4.986 -0.2365 -2.1073 -0.9153
  245MOL0     H33016   2.968   4.857   4.864 -2.7441  3.3074 -1.1887
  245MOL0     H33017   3.075   4.847   5.005 -0.8209  0.4111  1.4818
  245MOL0     H33018   2.895   4.739   5.160  1.0384  1.9550  0.5880
  245MOL0     H33019   2.794   4.724   5.012  0.1308 -3.4393 -1.5561
  245MOL0     H33020   2.887   4.516   5.054 -2.9056  0.9790 -2.5796
  245MOL0     H33021   2.930   4.585   4.896 -2.4507  2.8268 -0.9201
  245MOL0     H33022   3.121   4.455   4.996 -1.1743 -0.5271  0.1398
  245MOL0     H33023   3.158   4.630   4.969 -3.5846  0.0379 -5.0936
  245MOL0     H33024   3.105   4.679   5.189 -2.2348 -0.0387  0.6718
  245MOL0     H33025   3.239   4.560   5.193 -1.5825 -1.7472  2.2355
  245MOL0     H33026   3.225   4.357   5.339 -1.3651 -2.4035 -0.8286
  245MOL0     H33027   3.141   4.173   5.508  1.3619  0.6620  2.2254
  245MOL0     H33028   3.076   4.279   5.620  2.2984  0.9367 -0.9369
  245MOL0     H33029   2.910   4.099   5.429  6.2892  2.1515 -1.6242
  245MOL0     H33030   2.844   4.198   5.572  1.0670 -0.1218  2.9409
  245MOL0     H33031   2.852   3.962   5.641  2.5886 -2.0013 -0.3156
  245MOL0     H33032   2.963   4.068   5.729  0.5674  1.4882  0.9447
  245MOL0     H33033   3.155   3.995   5.616  0.9023 -1.7900 -3.0063
  245MOL0     H33034   3.059   3.880   5.519  2.2404 -0.2895 -0.8840
  245MOL0     H33035   3.090   3.778   5.960 -1.2348 -2.5173  0.2978
  245MOL0     H33036   3.208   3.734   6.138 -0.4152 -0.1234 -1.0983
  245MOL0     H33037   3.290   3.575   6.120 -2.2802 -2.4690 -4.8546
  245MOL0     H33038   3.379   3.731   6.153 -2.3407  1.3886  0.5857
  245MOL0     H33039   3.805   3.829   6.058 -1.3952 -2.5255  3.4146
  245MOL0     H33040   4.033   3.774   6.136  0.8403  1.5975 -0.5488
  245MOL0     H33041   4.235   3.804   6.024 -1.8803 -1.1486 -4.5451
  245MOL0     H33042   4.292   3.682   6.151  0.5631 -0.2527 -0.3210
  245MOL0     H33043   4.455   3.605   5.977  2.1353  1.8360 -1.2255
  245MOL0     H33044   4.374   3.721   5.860  0.1176 -0.9283 -1.0133
  245MOL0     H33045   4.539   3.797   6.112  1.1318  3.4423  0.8774
  245MOL0     H33046   4.431   3.893   6.029  0.1215  0.1844 -0.3762
  245MOL0     H33047   4.682   3.780   5.906 -0.1907 -0.4223  0.4491
  245MOL0     H33048   4.563   3.869   5.811 -0.9914 -0.5999  0.7937
  245MOL0     H33049   4.737   4.024   5.855 -0.9654  0.2222  1.1338
  245MOL0     H33050   4.755   3.968   6.019  0.0116 -0.0669  1.3900
  245MOL0     H33051   4.525   4.133   5.922 -0.4993  1.3648  0.0928
  245MOL0     H33052   4.540   4.059   6.083 -1.9951  1.9117 -1.0634
  245MOL0     H33053   4.743   4.262   5.969 -1.9227  1.4538 -1.4010
  245MOL0     H33054   4.737   4.187   6.138 -1.3958 -1.3578 -0.3460
  245MOL0     H33055   4.506   4.347   6.024  0.4421 -1.2998 -1.1180
  245MOL0     H33056   4.640   4.420   6.114 -1.8388  0.5714  2.4343
  245MOL0     H33057   4.042   3.451   5.838  2.1538  1.1206 -0.3045
  245MOL0     H33058   3.801   3.519   5.771  1.4308 -0.2934 -0.6328
  245MOL0     H33059   3.485   3.676   5.680  0.5276  0.2697  1.5171
  245MOL0     H33060   3.276   3.757   5.568 -0.5996 -1.7691 -0.6451
  245MOL0     H33061   3.377   5.177   5.141  2.9536  0.5028  0.9381
  245MOL0     H33062   3.509   5.253   5.318 -0.7999 -1.9919 -1.5221
  245MOL0     H33063   3.711   5.280   5.666  0.5984  0.6363  0.3820
  245MOL0     H33064   3.837   5.299   5.842  0.3289  1.5795 -1.1472
  245MOL0     H33065   3.830   5.672   6.071 -0.2389 -0.9037  0.5494
  245MOL0     H33066   3.696   5.587   6.167 -1.1942 -2.0986  0.3368
  245MOL0     H33067   3.876   5.505   6.324 -1.5253  0.6641 -1.6202
  245MOL0     H33068   3.883   5.677   6.315 -0.1652  0.0619  0.1482
  245MOL0     H33069   4.056   5.613   6.101 -1.5065 -2.4242 -0.3815
  245MOL0     H33070   4.082   5.470   6.191 -2.7338 -0.9498  0.7335
  245MOL0     H33071   4.156   5.601   6.392 -0.9454 -0.9774 -0.1872
  245MOL0     H33072   4.136   5.746   6.286 -0.8442  0.0211 -0.0605
  245MOL0     H33073   4.472   5.490   6.156 -0.0382 -1.0927  0.5492
  245MOL0     H33074   3.635   5.658   5.973 -0.8525 -0.6098  1.3805
  245MOL0     H33075   3.465   5.623   5.781 -0.4286  0.0551  0.2097
  246MOL0     O33076   8.219   3.658   6.819  1.2538 -0.2701  0.0911
  246MOL0     C33077   8.301   3.566   6.832  0.1231  0.4657 -0.3885
  246MOL0     O33078   8.276   3.441   6.888  0.7260  0.1234 -0.1354
  246MOL0     C33079   8.160   3.386   6.932  0.2164 -0.8365  0.3550
  246MOL0     C33080   8.021   3.435   6.922 -0.0433  0.5566  0.3520
  246MOL0     C33081   7.910   3.354   6.965  0.3795 -0.2933  0.0563
  246MOL0     C33082   7.933   3.225   7.016 -1.0367  0.3385 -0.0252
  246MOL0     O33083   7.819   3.147   7.052  0.7369 -0.3109  0.8094
  246MOL0     C33084   7.834   3.011   7.077 -0.2310 -1.1984 -0.4029
  246MOL0     C33085   7.698   2.945   7.072  0.9468  0.2406  0.2492
  246MOL0     C33086   7.701   2.795   7.104 -0.1620  0.1822  0.1872
  246MOL0     C33087   7.778   2.705   7.004  0.0132 -0.9834 -0.3339
  246MOL0     C33088   7.817   2.563   7.053 -0.2966  0.0409  0.5438
  246MOL0     C33089   7.900   2.568   7.182  0.7193  0.7076  0.9563
  246MOL0     C33090   7.939   2.429   7.233  0.4586  0.6090  0.9971
  246MOL0     C33091   7.805   2.337   7.243 -1.7171  0.2855 -0.4037
  246MOL0     N33092   7.694   2.396   7.316  0.2049 -0.0095 -0.1467
  246MOL0     C33093   7.703   2.452   7.443 -0.6072 -0.2085 -0.0683
  246MOL0     C33094   7.594   2.531   7.457 -0.8540  0.7049 -0.3457
  246MOL0     C33095   7.572   2.630   7.572  0.7280  0.1279  0.7078
  246MOL0     C33096   7.691   2.710   7.626 -0.2443 -0.6510 -0.1727
  246MOL0     C33097   7.713   2.836   7.544  0.4054  0.1979  0.4049
  246MOL0     C33098   7.838   2.911   7.571 -1.2584  0.6772 -0.9751
  246MOL0     O33099   7.861   2.919   7.708  0.5277  0.2130  0.4560
  246MOL0     C33100   7.797   3.018   7.773 -0.7052  0.2570 -0.1878
  246MOL0     C33101   7.691   3.012   7.858 -0.7142  0.4703  0.0339
  246MOL0     C33102   7.647   3.117   7.930  0.7188  0.2322  0.2295
  246MOL0     C33103   7.522   3.098   8.013 -0.1012 -0.9188 -0.7128
  246MOL0     C33104   7.700   3.244   7.908 -0.0767 -0.2421 -0.1201
  246MOL0     C33105   7.642   3.366   7.965  0.7379 -0.0765 -0.1558
  246MOL0     O33106   7.573   3.446   7.882  0.3898  0.3983  1.2636
  246MOL0     C33107   7.485   3.528   7.948 -0.4034  0.3828  0.3052
  246MOL0     C33108   7.501   3.663   7.956 -0.1678 -0.1319  0.5267
  246MOL0     C33109   7.394   3.742   8.011 -0.9439  0.3427  0.6818
  246MOL0     C33110   7.286   3.681   8.074 -0.1206  0.9095  0.3669
  246MOL0     O33111   7.198   3.762   8.138  0.3823  0.3826  0.6665
  246MOL0     C33112   7.072   3.706   8.173  0.6178  0.1570 -0.2661
  246MOL0     C33113   6.977   3.808   8.241 -0.1485 -0.3465 -0.7902
  246MOL0     C33114   7.050   3.868   8.371  0.3232  0.0128  0.8206
  246MOL0     C33115   7.084   3.748   8.470  0.6841  0.8668  0.2543
  246MOL0     C33116   7.094   3.809   8.607 -0.8865  0.4925 -0.2343
  246MOL0     C33117   7.132   3.686   8.695 -0.2419 -0.3660  0.2215
  246MOL0     C33118   7.132   3.714   8.844  0.4419  0.1418 -0.5066
  246MOL0     C33119   6.989   3.754   8.899 -0.0567 -0.4569 -0.8189
  246MOL0    Cl33120   6.847   3.648   8.868  0.0939 -0.5554 -0.1633
  246MOL0     C33121   7.274   3.542   8.067 -0.2695 -0.3134  0.6020
  246MOL0     C33122   7.368   3.465   7.995 -0.1871  0.4138 -0.4590
  246MOL0     O33123   7.667   3.385   8.080  0.0779  0.5442  0.5272
  246MOL0     C33124   7.796   3.264   7.806 -0.9111 -0.0025  0.4824
  246MOL0     C33125   7.849   3.146   7.749  0.4222 -0.8705  0.0865
  246MOL0     N33126   7.516   2.529   7.337  0.1810  0.0740 -0.9296
  246MOL0     N33127   7.577   2.438   7.261 -0.3160  0.1175  0.6898
  246MOL0     C33128   8.067   3.185   7.037  0.3668  0.3335 -0.1179
  246MOL0     C33129   8.172   3.259   6.989 -0.0016  0.8460 -0.5957
  246MOL0     C33130   8.440   3.594   6.791 -1.5593 -0.4833 -0.5663
  246MOL0     C33131   8.465   3.707   6.707 -0.3247 -0.1154 -0.2613
  246MOL0     C33132   8.593   3.728   6.658  0.7594 -0.3123  0.3292
  246MOL0     C33133   8.704   3.651   6.693  0.1929  0.5084  0.3089
  246MOL0     O33134   8.835   3.681   6.660 -0.8477  0.4612  0.5061
  246MOL0     C33135   8.874   3.809   6.615 -0.0131 -0.1858  0.6738
  246MOL0     C33136   8.864   3.810   6.457  0.4512 -0.0946  0.8404
  246MOL0     C33137   8.967   3.722   6.395 -0.8657  0.2811  0.2047
  246MOL0     C33138   9.025   3.770   6.262  0.3117  0.3522  0.3257
  246MOL0     C33139   8.936   3.730   6.149 -0.3577 -0.4012  0.2023
  246MOL0     C33140   8.860   3.700   6.058 -0.0646  0.2285  0.3450
  246MOL0     C33141   8.675   3.539   6.774  0.1261  0.4821 -0.6874
  246MOL0     C33142   8.547   3.514   6.824 -0.5428 -0.1364 -0.0413
  246MOL0     H33143   7.995   3.536   6.893 -1.0768  0.2139  0.0592
  246MOL0     H33144   7.806   3.385   6.961  0.2999  0.1193  3.1731
  246MOL0     H33145   7.908   2.962   7.013  1.8277 -1.6436  2.1953
  246MOL0     H33146   7.870   3.003   7.179 -1.0769  2.5751  0.3353
  246MOL0     H33147   7.633   2.978   7.155 -2.4844 -1.6291 -1.4684
  246MOL0     H33148   7.646   2.982   6.983  2.3883  4.2311  0.8484
  246MOL0     H33149   7.754   2.788   7.199  2.5510  3.4210 -0.8928
  246MOL0     H33150   7.600   2.753   7.108 -0.6536  0.9470 -2.2097
  246MOL0     H33151   7.726   2.696   6.908 -1.3578  0.0282  0.2922
  246MOL0     H33152   7.870   2.758   6.976  1.5860 -2.6769  1.2932
  246MOL0     H33153   7.727   2.505   7.076 -0.5353 -0.2459 -0.9884
  246MOL0     H33154   7.875   2.503   6.983  0.2347 -3.8517  3.9192
  246MOL0     H33155   7.988   2.629   7.158  1.1761 -0.7744 -1.6172
  246MOL0     H33156   7.834   2.614   7.255 -1.2470  3.8605 -2.4648
  246MOL0     H33157   8.015   2.371   7.180 -2.6556 -0.7572 -2.3976
  246MOL0     H33158   7.982   2.436   7.333  1.6538 -0.6540  0.6014
  246MOL0     H33159   7.840   2.243   7.287 -2.5185 -1.0617 -2.4925
  246MOL0     H33160   7.761   2.314   7.145 -1.7061  4.3073 -1.4967
  246MOL0     H33161   7.791   2.456   7.507 -1.4042 -0.0663  1.0316
  246MOL0     H33162   7.501   2.707   7.537 -0.6418  0.7433  4.3769
  246MOL0     H33163   7.520   2.577   7.653  0.7503 -1.0814 -0.0476
  246MOL0     H33164   7.784   2.654   7.610 -0.1299 -0.3059 -0.7435
  246MOL0     H33165   7.679   2.732   7.732  1.2337  1.3289 -0.3763
  246MOL0     H33166   7.629   2.906   7.558 -0.1953 -1.0775  4.3371
  246MOL0     H33167   7.715   2.799   7.441  0.6993 -1.4206  0.9705
  246MOL0     H33168   7.830   3.011   7.528 -2.0307 -0.0606 -2.6461
  246MOL0     H33169   7.923   2.857   7.528  0.1675  1.7307  0.3787
  246MOL0     H33170   7.655   2.913   7.882  1.0093 -0.2722 -0.2976
  246MOL0     H33171   7.501   2.992   8.032  0.9714 -1.1422 -0.7385
  246MOL0     H33172   7.531   3.164   8.099  1.0033 -0.0414 -1.4812
  246MOL0     H33173   7.434   3.136   7.959 -1.4526 -0.2425  1.7956
  246MOL0     H33174   7.594   3.703   7.917 -0.4286  0.5335  0.5700
  246MOL0     H33175   7.408   3.850   8.012  4.7550 -0.0985  1.0788
  246MOL0     H33176   7.022   3.654   8.090 -3.4297  1.6822  0.9437
  246MOL0     H33177   7.088   3.622   8.241 -2.4807 -0.3524  0.0001
  246MOL0     H33178   6.945   3.895   8.183  1.2957  0.6070 -0.1914
  246MOL0     H33179   6.882   3.762   8.270  0.0548 -0.5582 -0.4628
  246MOL0     H33180   6.980   3.936   8.419 -2.4536 -2.3784  0.4117
  246MOL0     H33181   7.146   3.911   8.340 -0.0344  0.2354  0.0163
  246MOL0     H33182   6.998   3.679   8.472  1.4181 -0.0857 -0.1214
  246MOL0     H33183   7.172   3.689   8.443 -0.8993 -0.7220 -1.8370
  246MOL0     H33184   6.994   3.846   8.629 -0.8862  2.7773 -3.3947
  246MOL0     H33185   7.178   3.880   8.601  0.3756 -0.9442 -0.2937
  246MOL0     H33186   7.062   3.607   8.665 -0.0783  0.4781 -2.7583
  246MOL0     H33187   7.231   3.652   8.661  1.1898  0.9507  2.8176
  246MOL0     H33188   7.196   3.801   8.862 -0.5711  0.5136  1.6255
  246MOL0     H33189   7.177   3.623   8.887  1.2179 -0.4952 -2.5781
  246MOL0     H33190   6.967   3.856   8.866  0.4340  0.3004  1.0689
  246MOL0     H33191   6.998   3.753   9.008 -1.2865  0.9753 -0.6770
  246MOL0     H33192   7.193   3.484   8.110 -0.0901  0.2258  1.6841
  246MOL0     H33193   7.351   3.368   7.950 -1.9765  1.4863 -2.2769
  246MOL0     H33194   7.834   3.359   7.770  1.6109 -1.4477 -0.9530
  246MOL0     H33195   7.935   3.165   7.685  0.6811 -0.3361  0.5930
  246MOL0     H33196   8.102   3.094   7.084  0.8133  1.1314  1.1334
  246MOL0     H33197   8.273   3.221   6.999 -0.1624  0.8115  1.1474
  246MOL0     H33198   8.382   3.771   6.677 -1.3330 -0.9167  0.7219
  246MOL0     H33199   8.604   3.819   6.598 -0.3975  0.1333  0.7634
  246MOL0     H33200   8.805   3.885   6.653 -0.0017 -1.1279  2.6897
  246MOL0     H33201   8.974   3.842   6.644 -0.2127 -0.9297  2.2839
  246MOL0     H33202   8.890   3.913   6.429  0.3156 -0.3763 -0.3930
  246MOL0     H33203   8.764   3.788   6.419 -0.3695  2.5773  1.1860
  246MOL0     H33204   8.912   3.628   6.387 -1.8857  0.8484  0.3782
  246MOL0     H33205   9.047   3.699   6.466  0.9345  0.4419 -1.6760
  246MOL0     H33206   9.111   3.706   6.240  0.7669  1.0249  0.1336
  246MOL0     H33207   9.052   3.875   6.262 -1.5096  0.8633 -0.1089
  246MOL0     H33208   8.780   3.674   5.992  0.0777 -0.1368  0.3147
  246MOL0     H33209   8.755   3.470   6.800 -0.2511  0.2283 -0.1858
  246MOL0     H33210   8.524   3.427   6.883 -1.7351 -0.0803 -0.3875
  247MOL0     O33211   1.113   5.436   5.623 -0.3049 -0.4240 -0.3827
  247MOL0     C33212   1.005   5.377   5.607 -0.1782  0.1991  0.1577
  247MOL0     O33213   0.903   5.359   5.698 -0.0969 -0.2176 -0.5739
  247MOL0     C33214   0.886   5.438   5.805 -0.7075 -0.3059  0.5050
  247MOL0     C33215   0.947   5.568   5.805 -0.3148 -0.0436  0.0298
  247MOL0     C33216   0.935   5.643   5.926  0.6867  0.2776 -0.1005
  247MOL0     C33217   0.859   5.586   6.038 -0.3280  0.2107  0.6803
  247MOL0     O33218   0.846   5.665   6.147 -0.1526  0.4267  0.5650
  247MOL0     C33219   0.715   5.713   6.170 -0.6065  0.2387  0.0264
  247MOL0     C33220   0.733   5.859   6.229 -0.0039  0.9283 -0.4164
  247MOL0     C33221   0.793   5.857   6.372 -0.3871 -0.4466 -0.1995
  247MOL0     C33222   0.855   6.005   6.406  0.7510  0.0010  0.3768
  247MOL0     C33223   0.755   6.117   6.373 -0.8533 -0.2076  0.2668
  247MOL0     C33224   0.790   6.249   6.443 -0.6605 -0.3160  0.0394
  247MOL0     C33225   0.942   6.287   6.428 -0.3774 -0.2576  0.7790
  247MOL0     C33226   0.966   6.307   6.284 -0.4701 -0.1687 -0.2738
  247MOL0     N33227   1.107   6.311   6.255  0.4419  0.5938 -0.3968
  247MOL0     C33228   1.199   6.365   6.344 -0.0842  0.6191 -0.8186
  247MOL0     C33229   1.318   6.329   6.295  0.1828 -0.4072  0.1152
  247MOL0     C33230   1.455   6.355   6.365 -0.1021 -0.9277 -0.2442
  247MOL0     C33231   1.575   6.380   6.279 -0.4379  0.3714 -0.0254
  247MOL0     C33232   1.706   6.404   6.357  0.5582 -0.1519  0.2746
  247MOL0     C33233   1.789   6.286   6.393 -0.1290 -0.0653 -0.4905
  247MOL0     O33234   1.723   6.211   6.502 -0.2232  0.3678  0.5225
  247MOL0     C33235   1.769   6.079   6.512 -0.6543 -0.0009 -0.1222
  247MOL0     C33236   1.683   5.989   6.573 -0.3279  0.3687  0.3805
  247MOL0     C33237   1.711   5.849   6.580 -0.8590 -0.5743 -0.1900
  247MOL0     C33238   1.609   5.760   6.642  0.4289 -0.1385 -0.0879
  247MOL0     C33239   1.830   5.803   6.526 -1.0308  0.2246  0.7842
  247MOL0     C33240   1.895   5.662   6.533  0.4861 -0.7855  0.2787
  247MOL0     O33241   2.009   5.647   6.467  0.5172  1.0454 -0.9776
  247MOL0     C33242   2.090   5.542   6.498 -0.3783 -0.6748 -0.9294
  247MOL0     C33243   2.089   5.419   6.440  0.1688 -0.4880  0.1552
  247MOL0     C33244   2.184   5.325   6.481 -0.8982 -0.5688 -0.5676
  247MOL0     C33245   2.283   5.361   6.578 -0.1332 -0.6452 -0.0582
  247MOL0     O33246   2.382   5.289   6.625 -0.5901  0.1296  0.8500
  247MOL0     C33247   2.372   5.145   6.605 -0.4545  0.7494  0.1611
  247MOL0     C33248   2.474   5.072   6.682 -0.2663  0.6597 -0.0921
  247MOL0     C33249   2.622   5.091   6.629 -0.0734 -0.4473 -0.2931
  247MOL0     C33250   2.694   4.964   6.663  0.2404 -0.4903 -0.4731
  247MOL0     C33251   2.708   4.941   6.813 -0.8487 -0.5897 -0.0399
  247MOL0     C33252   2.832   4.846   6.812  0.5897  0.2494 -0.0822
  247MOL0     C33253   2.860   4.783   6.956  0.1668 -0.1688  0.0805
  247MOL0     C33254   2.966   4.685   6.954 -0.0986 -0.2680 -0.3072
  247MOL0    Cl33255   2.923   4.544   6.850  0.3480 -0.0718 -0.1442
  247MOL0     C33256   2.285   5.491   6.625 -0.2382  0.4254  0.3360
  247MOL0     C33257   2.186   5.579   6.587 -0.3224 -0.1315  0.1099
  247MOL0     O33258   1.851   5.588   6.623 -0.7961  0.6528  0.4944
  247MOL0     C33259   1.909   5.892   6.459 -0.6674 -0.2248  0.4794
  247MOL0     C33260   1.883   6.029   6.446 -0.2855  0.5957 -0.4437
  247MOL0     N33261   1.299   6.256   6.179  0.5738 -0.7889 -0.7564
  247MOL0     N33262   1.171   6.241   6.159 -0.1115 -0.2015 -0.4339
  247MOL0     C33263   0.791   5.473   6.026  0.7440 -0.4608 -0.7356
  247MOL0     C33264   0.810   5.398   5.911 -0.6282 -0.6428 -0.0286
  247MOL0     C33265   0.985   5.278   5.493 -0.9117  0.3357  0.1141
  247MOL0     C33266   0.907   5.163   5.512 -0.3932  0.3509  0.4547
  247MOL0     C33267   0.895   5.076   5.402 -0.1446 -0.4002 -0.5550
  247MOL0     C33268   0.971   5.084   5.279  0.1498 -0.4348  0.2085
  247MOL0     O33269   0.960   4.995   5.181 -0.2009  0.6212  0.7156
  247MOL0     C33270   0.924   5.041   5.056 -0.4032  0.7938  0.4718
  247MOL0     C33271   0.773   5.026   5.026  0.0017 -0.1277 -0.1373
  247MOL0     C33272   0.751   5.085   4.884  0.5701  0.5464  0.2469
  247MOL0     C33273   0.614   5.030   4.839 -0.2769 -0.2193 -0.1024
  247MOL0     C33274   0.501   5.080   4.920 -0.2063 -0.0047 -0.2008
  247MOL0     C33275   0.434   5.119   5.008  0.7681 -0.7634  0.1097
  247MOL0     C33276   1.056   5.200   5.273  0.3902 -0.0633  0.7587
  247MOL0     C33277   1.063   5.294   5.376  0.3234 -1.0452 -0.3767
  247MOL0     H33278   1.016   5.604   5.729 -0.7209 -3.2684 -2.0654
  247MOL0     H33279   0.977   5.741   5.945  0.1493  1.2328 -3.3357
  247MOL0     H33280   0.660   5.721   6.075 -1.5562  2.3978  0.7018
  247MOL0     H33281   0.658   5.650   6.239 -1.4757  0.3488 -0.5735
  247MOL0     H33282   0.789   5.918   6.156 -0.2251  1.6779  0.0089
  247MOL0     H33283   0.638   5.914   6.233 -1.6707 -1.8061  0.2923
  247MOL0     H33284   0.719   5.820   6.444 -0.3823 -0.0650  0.0006
  247MOL0     H33285   0.875   5.785   6.376  0.5499  0.5973 -0.2059
  247MOL0     H33286   0.880   5.988   6.511 -2.9746 -1.1902  1.2553
  247MOL0     H33287   0.949   6.018   6.353  0.3203  0.5426 -0.2794
  247MOL0     H33288   0.754   6.128   6.264 -2.9569 -1.0731  0.1507
  247MOL0     H33289   0.655   6.081   6.399 -3.0992  1.8880 -4.1629
  247MOL0     H33290   0.738   6.332   6.395 -0.3378 -1.7357 -3.0301
  247MOL0     H33291   0.765   6.247   6.549  0.5523 -0.8574  0.3303
  247MOL0     H33292   0.965   6.383   6.475 -0.1904  0.5718 -0.9236
  247MOL0     H33293   1.008   6.213   6.476  4.6904  3.6893  0.7530
  247MOL0     H33294   0.916   6.401   6.258  0.2900  0.9804  2.1368
  247MOL0     H33295   0.922   6.237   6.213  0.1642  0.9555 -1.8344
  247MOL0     H33296   1.186   6.414   6.440 -1.1396  0.9683 -1.1297
  247MOL0     H33297   1.455   6.443   6.429  2.9527 -0.0787 -1.2139
  247MOL0     H33298   1.480   6.268   6.426 -0.9100 -3.3743 -3.1583
  247MOL0     H33299   1.554   6.462   6.210 -0.7865  0.8888  0.6833
  247MOL0     H33300   1.594   6.289   6.222 -2.3924 -0.9333  1.2572
  247MOL0     H33301   1.692   6.464   6.447 -1.3577 -1.2357  0.7551
  247MOL0     H33302   1.765   6.464   6.288  2.3086 -2.1185 -0.0597
  247MOL0     H33303   1.891   6.308   6.427  0.5278 -4.1246  0.6487
  247MOL0     H33304   1.793   6.215   6.310 -0.8671  0.7874 -1.2781
  247MOL0     H33305   1.603   6.037   6.628  0.9351 -0.0424  2.7079
  247MOL0     H33306   1.613   5.663   6.590 -3.1005 -0.0633 -0.7379
  247MOL0     H33307   1.647   5.721   6.738 -0.0709  1.6533  0.8675
  247MOL0     H33308   1.508   5.800   6.635  0.2061 -0.6825 -0.0639
  247MOL0     H33309   2.004   5.396   6.377 -0.8596  2.5405  0.2948
  247MOL0     H33310   2.180   5.229   6.431  0.1272 -0.4905 -0.8178
  247MOL0     H33311   2.273   5.108   6.632 -0.1007  1.0653  1.9969
  247MOL0     H33312   2.397   5.105   6.506 -0.4180 -1.3712  0.9893
  247MOL0     H33313   2.462   5.117   6.781  0.2810 -0.6366  0.5964
  247MOL0     H33314   2.442   4.967   6.683 -1.9310  1.1141 -1.5880
  247MOL0     H33315   2.665   5.184   6.665 -0.2416 -0.5958  0.2936
  247MOL0     H33316   2.627   5.104   6.520  2.6992  2.0026  0.0157
  247MOL0     H33317   2.657   4.870   6.621  1.6659  0.2188 -3.6179
  247MOL0     H33318   2.793   4.977   6.619  0.3609 -0.5670 -0.2262
  247MOL0     H33319   2.618   4.903   6.862 -2.2011  5.6548  3.2878
  247MOL0     H33320   2.727   5.033   6.869  0.0245 -1.2100  0.7084
  247MOL0     H33321   2.805   4.766   6.742 -2.0275  0.4973  0.5189
  247MOL0     H33322   2.923   4.890   6.772  0.7873  0.0615  0.1609
  247MOL0     H33323   2.772   4.729   6.993  0.2979 -1.3245 -1.2200
  247MOL0     H33324   2.872   4.864   7.030 -1.9749  0.5181 -0.2549
  247MOL0     H33325   2.984   4.642   7.053  0.9578  0.1190 -0.3174
  247MOL0     H33326   3.059   4.734   6.925 -0.6839  2.2517  1.6927
  247MOL0     H33327   2.373   5.519   6.681  0.7235  0.3249 -1.0791
  247MOL0     H33328   2.200   5.681   6.620  0.9159 -1.3331  3.7955
  247MOL0     H33329   1.999   5.855   6.410 -2.0280 -4.4876  0.8536
  247MOL0     H33330   1.947   6.096   6.390 -1.6479  0.0838 -2.7219
  247MOL0     H33331   0.719   5.440   6.100 -1.2258  2.3600 -1.2556
  247MOL0     H33332   0.759   5.304   5.892  0.4194 -0.9832 -1.2719
  247MOL0     H33333   0.841   5.148   5.597 -1.6945  2.3046 -0.1388
  247MOL0     H33334   0.835   4.986   5.389 -0.1648 -0.0354 -4.1882
  247MOL0     H33335   0.947   5.147   5.038 -0.9728  1.0307  1.0863
  247MOL0     H33336   0.985   4.998   4.976 -0.9080 -1.3844  1.1980
  247MOL0     H33337   0.714   5.087   5.095  1.3992  2.2335 -0.8986
  247MOL0     H33338   0.742   4.922   5.035  0.2600 -0.1534  0.4662
  247MOL0     H33339   0.831   5.057   4.815  0.7492  2.7718 -0.5291
  247MOL0     H33340   0.754   5.194   4.887  2.8280  0.5890  3.9096
  247MOL0     H33341   0.612   4.921   4.851  0.1888 -0.1392  0.7663
  247MOL0     H33342   0.593   5.063   4.737 -0.7506  1.4157  0.4921
  247MOL0     H33343   0.378   5.146   5.095  2.2892  2.9500  0.1202
  247MOL0     H33344   1.111   5.209   5.180 -2.0626 -0.8799 -0.8567
  247MOL0     H33345   1.121   5.383   5.355  1.1458 -1.3291  0.6285
  248MOL0     O33346   9.631   4.114   0.050 -0.4882 -1.1201 -0.3759
  248MOL0     C33347   9.688   4.228   0.039  0.2290  0.1503 -0.0573
  248MOL0     O33348   9.763   4.292   0.138  0.4338 -0.1039  0.3136
  248MOL0     C33349   9.809   4.198   0.229  0.7856  0.0165  0.0635
  248MOL0     C33350   9.758   4.200   0.358  1.5823 -0.3165  0.1958
  248MOL0     C33351   9.808   4.107   0.450  0.4999  0.0404  0.6891
  248MOL0     C33352   9.895   4.001   0.415 -1.0217  0.4581 -0.5079
  248MOL0     O33353   9.918   3.901   0.510 -0.2647  0.1591  0.4374
  248MOL0     C33354   9.941   3.765   0.463  0.4017 -0.0574 -1.1971
  248MOL0     C33355   9.981   3.674   0.588  0.6464 -0.1417  0.6791
  248MOL0     C33356  10.032   3.534   0.542 -0.4287  0.2968  0.2748
  248MOL0     C33357  10.084   3.447   0.667 -0.1424  0.1871  1.1062
  248MOL0     C33358  10.108   3.307   0.620 -0.4477  0.0836  0.0582
  248MOL0     C33359   9.980   3.224   0.622 -0.0298 -0.6886  0.3142
  248MOL0     C33360  10.016   3.083   0.577 -0.4390  0.6052 -1.1889
  248MOL0     C33361   9.887   3.011   0.542 -0.4034 -0.1102  0.3464
  248MOL0     N33362   9.913   2.877   0.505 -0.2157  0.0418  0.0402
  248MOL0     C33363   9.999   2.783   0.564  0.1397 -0.8717 -1.0208
  248MOL0     C33364   9.997   2.684   0.473  0.3982 -0.1507  0.6946
  248MOL0     C33365  10.078   2.552   0.491 -0.3167  0.4940 -0.2410
  248MOL0     C33366   9.986   2.451   0.561  0.9547  0.7762  0.0960
  248MOL0     C33367  10.049   2.307   0.591  0.7828 -0.5157  0.6287
  248MOL0     C33368  10.114   2.245   0.462  0.3625 -0.4549  0.3819
  248MOL0     O33369  10.132   2.101   0.466 -0.5029  1.1116  0.5695
  248MOL0     C33370  10.219   2.045   0.375 -0.6196  0.9049  1.2548
  248MOL0     C33371  10.293   1.928   0.412 -0.3190 -0.6147 -0.3074
  248MOL0     C33372  10.406   1.888   0.336 -0.4446  1.0852 -0.1290
  248MOL0     C33373  10.497   1.785   0.399 -0.4395 -0.8807  0.2115
  248MOL0     C33374  10.440   1.949   0.212  1.0288 -0.4037  0.2293
  248MOL0     C33375  10.533   1.892   0.109  0.2268  0.5960  0.4625
  248MOL0     O33376  10.584   1.992   0.027  0.2752  0.0716  0.6732
  248MOL0     C33377  10.654   1.955  -0.088  0.2453  0.4727 -0.4762
  248MOL0     C33378  10.611   1.856  -0.185  0.1538 -0.1456  0.6538
  248MOL0     C33379  10.689   1.818  -0.297  0.3723  0.3413 -0.0759
  248MOL0     C33380  10.818   1.876  -0.319 -0.4987  1.2600 -0.1696
  248MOL0     O33381  10.898   1.833  -0.418  0.1466  0.1681  0.4549
  248MOL0     C33382  10.869   1.706  -0.489  0.5282  0.0275  0.1610
  248MOL0     C33383  10.989   1.662  -0.584  0.1323  0.0148 -1.2146
  248MOL0     C33384  10.963   1.674  -0.733 -1.1595  0.2196 -0.0745
  248MOL0     C33385  11.081   1.606  -0.809 -0.7603  0.8565  0.0709
  248MOL0     C33386  11.211   1.676  -0.801  0.0475 -0.5768  0.0934
  248MOL0     C33387  11.338   1.595  -0.823 -0.3618  0.2513  1.4259
  248MOL0     C33388  11.457   1.639  -0.740  0.6280 -0.5552  0.1608
  248MOL0     C33389  11.585   1.550  -0.760  0.4564  0.1108  0.2278
  248MOL0    Cl33390  11.660   1.558  -0.924  0.1627 -0.3648  0.2471
  248MOL0     C33391  10.869   1.960  -0.219  0.3948 -0.0378  0.1575
  248MOL0     C33392  10.788   1.992  -0.103 -0.0785  0.1733  0.1648
  248MOL0     O33393  10.558   1.774   0.100 -0.3189 -0.3285 -0.0754
  248MOL0     C33394  10.373   2.067   0.177 -0.0883  0.1358  0.1712
  248MOL0     C33395  10.263   2.106   0.255  0.2092 -0.6117 -0.5981
  248MOL0     N33396   9.914   2.719   0.370 -0.1682  0.6195  0.4350
  248MOL0     N33397   9.861   2.825   0.389  0.5950 -0.5071  0.3571
  248MOL0     C33398   9.952   4.005   0.286 -0.8326 -0.1376  0.3261
  248MOL0     C33399   9.901   4.100   0.195  0.4895  0.4325 -0.7923
  248MOL0     C33400   9.682   4.295  -0.092  0.1453  0.0954 -0.8176
  248MOL0     C33401   9.718   4.431  -0.104  0.6448  0.7439  0.3347
  248MOL0     C33402   9.684   4.493  -0.225  0.0968  0.0424 -0.5305
  248MOL0     C33403   9.633   4.428  -0.338  0.2743 -0.0244 -0.6580
  248MOL0     O33404   9.623   4.498  -0.455 -0.5314  0.2512 -0.0947
  248MOL0     C33405   9.606   4.449  -0.593  0.3584 -0.6007 -1.1005
  248MOL0     C33406   9.673   4.553  -0.683  0.3400 -0.2968  0.7055
  248MOL0     C33407   9.638   4.517  -0.830  0.2484 -0.3459  0.2841
  248MOL0     C33408   9.665   4.632  -0.919 -0.0703 -0.0068  0.5811
  248MOL0     C33409   9.683   4.604  -1.063 -0.0326  0.0633  0.1839
  248MOL0     C33410   9.689   4.574  -1.182 -0.3084 -0.1006 -0.7064
  248MOL0     C33411   9.606   4.294  -0.320 -0.1146 -0.0696  0.5875
  248MOL0     C33412   9.618   4.228  -0.202 -0.2675 -0.4418  0.5218
  248MOL0     H33413   9.682   4.273   0.383 -0.2270 -2.1351  0.2854
  248MOL0     H33414   9.762   4.106   0.549  0.1957 -0.8108  0.5518
  248MOL0     H33415   9.850   3.728   0.415  1.0441 -2.7087 -0.5308
  248MOL0     H33416  10.027   3.755   0.395  0.0677 -1.4179 -1.4561
  248MOL0     H33417  10.055   3.728   0.647  0.1357  2.2019 -0.6697
  248MOL0     H33418   9.893   3.658   0.651 -0.3976  1.3817 -0.3139
  248MOL0     H33419   9.942   3.485   0.504  0.2159 -2.5461  2.1087
  248MOL0     H33420  10.117   3.537   0.474  1.0502 -0.5648  2.0094
  248MOL0     H33421  10.178   3.495   0.698  0.3290 -0.7314  1.1477
  248MOL0     H33422  10.015   3.432   0.750  2.4099  1.4711  3.6331
  248MOL0     H33423  10.152   3.323   0.521  0.7810  2.4704  0.9038
  248MOL0     H33424  10.182   3.263   0.686 -1.5035 -0.0116  1.2068
  248MOL0     H33425   9.937   3.234   0.722  0.3782  1.5134  0.3028
  248MOL0     H33426   9.912   3.264   0.546  0.5796  1.8785  1.0304
  248MOL0     H33427  10.086   3.092   0.493 -0.0973  0.3334 -0.9370
  248MOL0     H33428  10.067   3.033   0.659 -2.8013  0.9264  0.5870
  248MOL0     H33429   9.855   3.058   0.449 -0.2731  0.4886  0.6017
  248MOL0     H33430   9.817   3.013   0.627 -1.6867  0.0627 -0.6860
  248MOL0     H33431  10.053   2.786   0.658 -1.8077  2.2690  0.1758
  248MOL0     H33432  10.104   2.511   0.393  0.5381  1.7344 -0.5564
  248MOL0     H33433  10.175   2.566   0.539  0.8777 -0.3587 -2.2589
  248MOL0     H33434   9.890   2.444   0.509  1.0470 -1.9534  0.1252
  248MOL0     H33435   9.953   2.500   0.653 -2.2232 -3.0591  1.2640
  248MOL0     H33436   9.960   2.248   0.616 -0.1475  0.5154 -0.1374
  248MOL0     H33437  10.123   2.311   0.671  4.4161  0.2351 -2.4884
  248MOL0     H33438  10.213   2.292   0.455  1.4340 -2.3385  1.6940
  248MOL0     H33439  10.056   2.265   0.372 -4.8566 -1.4414  3.1588
  248MOL0     H33440  10.274   1.895   0.514  1.6451 -2.0359 -0.3502
  248MOL0     H33441  10.604   1.808   0.390  0.7975 -5.3461  1.2380
  248MOL0     H33442  10.497   1.794   0.508  1.9456  1.2124  0.1296
  248MOL0     H33443  10.484   1.684   0.360 -0.5153 -0.3900 -1.0857
  248MOL0     H33444  10.508   1.823  -0.183 -0.3961  0.9074 -2.9569
  248MOL0     H33445  10.659   1.743  -0.369  0.7805  0.6508 -0.5802
  248MOL0     H33446  10.836   1.630  -0.418 -1.1255  1.4642  1.0159
  248MOL0     H33447  10.782   1.714  -0.555  0.4655 -3.7245 -0.4509
  248MOL0     H33448  11.064   1.737  -0.558 -1.4285  0.6439  1.8743
  248MOL0     H33449  11.015   1.557  -0.566 -0.5693 -0.0479 -0.5150
  248MOL0     H33450  10.956   1.780  -0.759  0.4730  0.6958  1.2381
  248MOL0     H33451  10.872   1.623  -0.765 -1.8531  3.2145 -3.5035
  248MOL0     H33452  11.104   1.506  -0.771  1.0321  0.8481 -0.9283
  248MOL0     H33453  11.050   1.597  -0.914  0.3962 -2.7036 -0.1006
  248MOL0     H33454  11.220   1.723  -0.703  1.1547  0.9174 -0.6969
  248MOL0     H33455  11.204   1.762  -0.868 -0.0008 -2.8942 -3.1028
  248MOL0     H33456  11.321   1.492  -0.790 -0.1816 -0.9347 -1.8290
  248MOL0     H33457  11.366   1.593  -0.928 -0.1779 -2.1051  1.4718
  248MOL0     H33458  11.426   1.639  -0.635 -0.0269  1.9445  0.0258
  248MOL0     H33459  11.486   1.742  -0.764 -1.5288  0.5575  1.9476
  248MOL0     H33460  11.565   1.445  -0.737  0.0321  0.6544  2.5950
  248MOL0     H33461  11.663   1.573  -0.687  1.4702 -1.3459 -0.3745
  248MOL0     H33462  10.972   1.993  -0.226  0.2731  0.1503 -0.9488
  248MOL0     H33463  10.844   2.053  -0.032 -1.1592 -2.6869  3.8038
  248MOL0     H33464  10.411   2.118   0.089 -0.0577  1.7902  1.1045
  248MOL0     H33465  10.219   2.202   0.227 -1.1412 -1.3287 -1.0535
  248MOL0     H33466  10.020   3.924   0.264 -0.8112 -0.2528  0.8073
  248MOL0     H33467   9.947   4.093   0.097  0.2001 -1.0841 -0.8416
  248MOL0     H33468   9.749   4.496  -0.022 -2.3546  1.1267  1.3028
  248MOL0     H33469   9.704   4.592  -0.266 -1.1004 -0.6581 -3.0285
  248MOL0     H33470   9.646   4.349  -0.609  0.1012 -0.6277 -1.5883
  248MOL0     H33471   9.499   4.441  -0.614  0.3258 -0.9385 -0.8092
  248MOL0     H33472   9.780   4.571  -0.675  0.1581  1.3480  0.0080
  248MOL0     H33473   9.636   4.652  -0.655  1.2433  0.3595 -0.3327
  248MOL0     H33474   9.534   4.487  -0.851 -0.2206  1.0460  0.5536
  248MOL0     H33475   9.698   4.431  -0.861 -0.0869 -0.7653  0.7752
  248MOL0     H33476   9.761   4.677  -0.890  0.7078 -1.3601  0.1662
  248MOL0     H33477   9.595   4.714  -0.898 -1.3444 -0.7472 -0.6534
  248MOL0     H33478   9.699   4.550  -1.286 -1.0491 -0.6850 -0.6478
  248MOL0     H33479   9.566   4.240  -0.405  1.2904 -3.0592  1.6720
  248MOL0     H33480   9.589   4.125  -0.185  1.1297 -0.6102  2.1197
  249MOL0     O33481   5.405   2.475   2.377 -0.1601  1.2874  0.6315
  249MOL0     C33482   5.363   2.359   2.363 -1.3191 -0.4938 -0.4860
  249MOL0     O33483   5.412   2.270   2.273  0.1471 -0.2498  0.8665
  249MOL0     C33484   5.499   2.301   2.174  0.4769  0.2538 -1.5218
  249MOL0     C33485   5.553   2.186   2.115  0.4446  0.7513  0.0137
  249MOL0     C33486   5.639   2.187   2.007  0.4953  0.1414 -0.7678
  249MOL0     C33487   5.677   2.315   1.962  0.1448  0.3569  0.6991
  249MOL0     O33488   5.764   2.308   1.857  0.0283  0.1783  0.7544
  249MOL0     C33489   5.833   2.430   1.817  0.7370 -0.4350  0.4460
  249MOL0     C33490   5.959   2.443   1.915  0.5798  0.1897  0.2967
  249MOL0     C33491   6.061   2.547   1.858  0.8850 -0.1062  0.5693
  249MOL0     C33492   6.149   2.608   1.969 -0.4962  0.0263  0.2462
  249MOL0     C33493   6.204   2.738   1.919 -0.2447 -0.2175  0.6901
  249MOL0     C33494   6.275   2.814   2.035  0.4194  0.3814 -0.6798
  249MOL0     C33495   6.345   2.942   2.003  0.8061  0.2594  0.2877
  249MOL0     C33496   6.492   2.929   1.967 -0.4476  0.6833  0.0340
  249MOL0     N33497   6.517   2.852   1.842 -0.8634  0.2683 -0.3172
  249MOL0     C33498   6.512   2.901   1.714  0.1618 -1.2121 -0.1783
  249MOL0     C33499   6.569   2.814   1.637 -0.4276 -1.3646  0.9171
  249MOL0     C33500   6.568   2.838   1.486 -0.3153 -0.0358 -0.3710
  249MOL0     C33501   6.430   2.865   1.422  0.6913 -0.6571 -0.8760
  249MOL0     C33502   6.368   2.736   1.372 -0.1808 -0.3425  0.2656
  249MOL0     C33503   6.333   2.641   1.488 -0.1333 -0.6765 -0.4628
  249MOL0     O33504   6.218   2.561   1.454  0.0410  0.2954  0.3449
  249MOL0     C33505   6.091   2.608   1.480 -0.2172 -0.2802 -0.0919
  249MOL0     C33506   5.988   2.513   1.466 -0.0486 -0.2588  0.4552
  249MOL0     C33507   5.853   2.542   1.482 -0.0973 -0.4977 -0.1700
  249MOL0     C33508   5.751   2.421   1.451  0.5706 -0.0553 -0.1210
  249MOL0     C33509   5.813   2.672   1.522 -0.1370 -0.0232  0.4187
  249MOL0     C33510   5.668   2.714   1.573 -0.9628  0.2168  0.0144
  249MOL0     O33511   5.660   2.834   1.626 -0.2298  0.4762  0.0119
  249MOL0     C33512   5.560   2.842   1.717  0.6678  0.2242 -0.0965
  249MOL0     C33513   5.570   2.786   1.847  0.8777 -0.4925  1.0329
  249MOL0     C33514   5.460   2.799   1.939  0.7785  0.0039 -0.1575
  249MOL0     C33515   5.331   2.845   1.893 -0.0394 -0.5563 -0.3272
  249MOL0     O33516   5.216   2.835   1.963  0.3084 -0.1433 -0.2225
  249MOL0     C33517   5.210   2.740   2.071 -0.3562  0.9740 -0.5811
  249MOL0     C33518   5.067   2.733   2.134  1.2594 -0.1891 -0.5901
  249MOL0     C33519   4.975   2.719   2.017  0.5572  0.0013  0.7051
  249MOL0     C33520   4.822   2.689   2.069  0.4522 -0.9437  1.0924
  249MOL0     C33521   4.722   2.695   1.954  0.0306 -1.1515  0.3873
  249MOL0     C33522   4.578   2.711   2.010 -0.2852  0.5228  0.9663
  249MOL0     C33523   4.475   2.719   1.898 -1.0375  0.0269  0.2682
  249MOL0     C33524   4.331   2.705   1.929 -0.9377 -0.0898  0.3573
  249MOL0    Cl33525   4.257   2.859   1.985  0.1958 -0.1068  0.0338
  249MOL0     C33526   5.321   2.885   1.760 -0.0179  0.1817  0.1814
  249MOL0     C33527   5.438   2.897   1.676 -0.8650  0.4263 -0.1411
  249MOL0     O33528   5.578   2.637   1.558 -0.0654 -0.1921  0.1465
  249MOL0     C33529   5.917   2.767   1.534  0.1552  0.0017 -0.1907
  249MOL0     C33530   6.057   2.736   1.518  0.4371 -0.4241  0.4048
  249MOL0     N33531   6.598   2.700   1.702  0.1420 -0.2556  0.3977
  249MOL0     N33532   6.564   2.727   1.827  0.4014  0.7472 -0.6619
  249MOL0     C33533   5.633   2.438   2.029 -0.8657  0.3296  0.0138
  249MOL0     C33534   5.545   2.427   2.130  0.4961 -0.5070 -0.2617
  249MOL0     C33535   5.268   2.313   2.465  0.5097  0.1774 -0.4645
  249MOL0     C33536   5.215   2.394   2.556 -0.2061 -0.1853 -0.3570
  249MOL0     C33537   5.138   2.348   2.668 -0.4471  0.0164  0.1973
  249MOL0     C33538   5.108   2.208   2.683 -0.5062  0.9122 -0.0114
  249MOL0     O33539   5.025   2.155   2.780 -0.0781  0.6280 -0.1666
  249MOL0     C33540   4.911   2.238   2.819  0.5230 -0.5044  0.5105
  249MOL0     C33541   4.785   2.147   2.849  0.6041 -0.1421 -0.0831
  249MOL0     C33542   4.683   2.211   2.952 -0.9288  0.1477  0.3838
  249MOL0     C33543   4.640   2.360   2.933 -1.0847 -0.2573 -0.0167
  249MOL0     C33544   4.556   2.361   2.813  0.5032  0.2033 -0.1772
  249MOL0     C33545   4.478   2.357   2.719 -0.4530 -0.2379  0.6426
  249MOL0     C33546   5.162   2.121   2.592 -0.3000  0.1428  0.2303
  249MOL0     C33547   5.235   2.173   2.476  0.2488 -0.1980  0.0637
  249MOL0     H33548   5.512   2.093   2.152  1.5991  0.2814  0.1483
  249MOL0     H33549   5.682   2.099   1.961  1.5164  0.6778 -0.8751
  249MOL0     H33550   5.867   2.411   1.714 -1.5713  0.0038 -0.4506
  249MOL0     H33551   5.770   2.519   1.807  0.8993 -0.3178  0.4576
  249MOL0     H33552   5.910   2.474   2.007 -1.5872  3.5446 -1.7623
  249MOL0     H33553   6.000   2.342   1.923 -3.3634 -1.7249 -0.8078
  249MOL0     H33554   6.136   2.490   1.802  1.0341  0.4003  0.2471
  249MOL0     H33555   6.013   2.606   1.780 -0.5455  2.3164  3.0964
  249MOL0     H33556   6.089   2.639   2.055  1.5896  2.7456  0.8470
  249MOL0     H33557   6.236   2.545   1.991  1.4476  1.8429 -1.7267
  249MOL0     H33558   6.278   2.717   1.842  1.5845 -1.3773  2.6685
  249MOL0     H33559   6.131   2.802   1.870  0.9121  1.6140  1.2541
  249MOL0     H33560   6.195   2.830   2.108  0.2613  0.9821 -0.9826
  249MOL0     H33561   6.347   2.745   2.081 -1.4488  0.4042  2.6195
  249MOL0     H33562   6.296   2.969   1.908  0.1547 -3.0799 -0.4540
  249MOL0     H33563   6.342   3.019   2.080  3.2756  0.8884 -0.1515
  249MOL0     H33564   6.545   2.866   2.039  1.1482  1.9956  0.0535
  249MOL0     H33565   6.546   3.020   1.940  2.5207 -1.0517 -0.3048
  249MOL0     H33566   6.458   2.991   1.689  2.1008  0.3603  1.0043
  249MOL0     H33567   6.636   2.919   1.457  0.9818 -1.1464 -0.5454
  249MOL0     H33568   6.605   2.743   1.447 -1.5688 -1.7071  2.2521
  249MOL0     H33569   6.452   2.928   1.336  1.4987 -1.6090 -1.3734
  249MOL0     H33570   6.370   2.920   1.496  2.7605 -1.9025  1.8796
  249MOL0     H33571   6.431   2.674   1.307  0.1335  0.2898 -0.0450
  249MOL0     H33572   6.286   2.767   1.307 -1.1035 -0.2618  1.4299
  249MOL0     H33573   6.301   2.700   1.574  0.3824 -2.9685  1.3968
  249MOL0     H33574   6.414   2.572   1.514 -0.0072 -1.6839 -3.1206
  249MOL0     H33575   6.021   2.416   1.430  0.4256  0.7299 -1.9377
  249MOL0     H33576   5.726   2.361   1.539  1.8615  1.2730  1.2159
  249MOL0     H33577   5.662   2.466   1.408 -0.7724 -1.5478  1.0033
  249MOL0     H33578   5.809   2.361   1.380  2.3732 -1.5693  2.4317
  249MOL0     H33579   5.664   2.748   1.885  1.5798  1.1028  0.9828
  249MOL0     H33580   5.473   2.762   2.040 -1.7520  0.4906  0.4087
  249MOL0     H33581   5.231   2.639   2.035 -2.4927 -0.3182  1.4511
  249MOL0     H33582   5.285   2.763   2.147 -0.6588  1.4771 -0.4300
  249MOL0     H33583   5.051   2.640   2.189 -1.3012  0.9284  0.7455
  249MOL0     H33584   5.043   2.826   2.186 -0.7622 -0.5600 -0.7670
  249MOL0     H33585   5.004   2.635   1.954 -0.1292  1.2222 -1.3151
  249MOL0     H33586   4.975   2.817   1.968 -2.6318 -1.5038 -2.7830
  249MOL0     H33587   4.806   2.586   2.100 -0.9260 -0.5187  1.8391
  249MOL0     H33588   4.786   2.761   2.143 -1.0179  0.5350 -0.9393
  249MOL0     H33589   4.723   2.606   1.890 -0.5786 -2.2330  1.8335
  249MOL0     H33590   4.749   2.785   1.897  0.1443 -1.8458 -0.6978
  249MOL0     H33591   4.548   2.624   2.070 -1.4667  0.2659  0.0442
  249MOL0     H33592   4.570   2.806   2.063  3.6210  3.1165 -2.4341
  249MOL0     H33593   4.504   2.635   1.835  0.0629  0.3930  0.2700
  249MOL0     H33594   4.494   2.811   1.841 -0.5690  1.7516  3.0418
  249MOL0     H33595   4.324   2.621   1.999  2.4468 -1.4772 -0.7734
  249MOL0     H33596   4.283   2.672   1.836 -2.2904 -4.4176  2.3323
  249MOL0     H33597   5.219   2.908   1.732  0.7228  0.6157 -2.4351
  249MOL0     H33598   5.425   2.934   1.575 -0.8154  1.2861  0.1582
  249MOL0     H33599   5.906   2.871   1.561 -2.0040 -0.6882  1.9100
  249MOL0     H33600   6.123   2.822   1.510 -1.5531  1.0787 -0.7947
  249MOL0     H33601   5.674   2.529   1.986 -0.0227 -1.6695 -3.8907
  249MOL0     H33602   5.515   2.512   2.190  2.0240 -0.9387  1.1698
  249MOL0     H33603   5.246   2.498   2.555 -0.1028 -0.2161 -1.4101
  249MOL0     H33604   5.127   2.414   2.753 -3.5808 -0.9935  0.7341
  249MOL0     H33605   4.929   2.303   2.905  3.4073  0.1308 -0.4569
  249MOL0     H33606   4.885   2.312   2.743  0.1878 -0.8367  0.2931
  249MOL0     H33607   4.807   2.046   2.883 -0.8382 -0.8183 -1.0260
  249MOL0     H33608   4.737   2.145   2.751 -1.7514 -0.4841  0.9964
  249MOL0     H33609   4.718   2.195   3.054 -0.3562 -2.4071 -0.1326
  249MOL0     H33610   4.586   2.160   2.938 -1.6393  2.2942 -6.2237
  249MOL0     H33611   4.726   2.425   2.917 -1.4420  0.7936  2.0088
  249MOL0     H33612   4.580   2.397   3.017  1.5251  4.4231  0.0675
  249MOL0     H33613   4.408   2.362   2.638  1.5713 -0.1021 -1.1932
  249MOL0     H33614   5.152   2.014   2.603 -1.1225 -0.0922 -2.3397
  249MOL0     H33615   5.279   2.105   2.403  2.4257  2.6098 -1.4091
  250MOL0     O33616   9.433  10.866   0.373 -0.0555  0.5978  0.5086
  250MOL0     C33617   9.396  10.917   0.481 -0.6774  0.2170  0.3427
  250MOL0     O33618   9.464  11.024   0.542 -0.1575  0.2253  0.3380
  250MOL0     C33619   9.578  11.057   0.480 -0.4873  0.6210 -0.0580
  250MOL0     C33620   9.592  11.169   0.407 -0.1521 -0.2195  0.1402
  250MOL0     C33621   9.707  11.208   0.353  0.2785 -0.2498  0.3135
  250MOL0     C33622   9.821  11.120   0.369  0.9082  0.7182  0.3342
  250MOL0     O33623   9.937  11.165   0.320 -1.2655  0.2312  0.2177
  250MOL0     C33624  10.062  11.089   0.343  0.4082  0.2614  0.2677
  250MOL0     C33625  10.188  11.159   0.294  0.7019  0.2459 -0.2910
  250MOL0     C33626  10.183  11.169   0.131  0.0609  0.3104  0.4133
  250MOL0     C33627  10.212  11.033   0.065  0.4181  0.9942  0.7790
  250MOL0     C33628  10.147  11.025  -0.076 -0.1414 -0.5994 -0.4325
  250MOL0     C33629  10.137  10.900  -0.155 -0.4062  0.5067  0.2957
  250MOL0     C33630  10.273  10.830  -0.157 -0.7058 -0.2150 -0.7710
  250MOL0     C33631  10.251  10.710  -0.260  0.1183  0.5792 -0.4723
  250MOL0     N33632  10.176  10.592  -0.215  0.7338 -0.4967 -0.8679
  250MOL0     C33633  10.231  10.498  -0.129 -0.8538 -0.6103 -0.1677
  250MOL0     C33634  10.136  10.407  -0.119 -0.6042 -0.2053 -0.1646
  250MOL0     C33635  10.132  10.286  -0.027 -0.0361 -0.3033 -0.1346
  250MOL0     C33636  10.089  10.143  -0.085  1.1734  0.4120 -0.5211
  250MOL0     C33637  10.199  10.080  -0.169  0.5591 -0.3137 -0.3675
  250MOL0     C33638  10.176   9.935  -0.205 -0.3016  0.4251 -0.4459
  250MOL0     O33639  10.170   9.855  -0.083 -0.1689  0.3055  0.4570
  250MOL0     C33640  10.068   9.770  -0.053 -0.9663  0.7398 -0.7571
  250MOL0     C33641  10.085   9.659   0.029 -0.3216 -0.1020 -0.4883
  250MOL0     C33642   9.978   9.571   0.060 -0.2507 -0.4878 -0.6002
  250MOL0     C33643  10.026   9.437   0.123 -0.0091 -0.0513 -0.7172
  250MOL0     C33644   9.848   9.603   0.009  0.4317  0.7000 -0.0332
  250MOL0     C33645   9.735   9.501   0.017  0.6629 -0.0727  0.2670
  250MOL0     O33646   9.613   9.554   0.005 -0.1339  0.2533 -0.3661
  250MOL0     C33647   9.499   9.484   0.027 -0.0535 -0.5314 -0.3550
  250MOL0     C33648   9.421   9.532   0.132 -0.0496 -0.5873 -0.4010
  250MOL0     C33649   9.300   9.469   0.169  0.3728 -0.4223 -0.1010
  250MOL0     C33650   9.256   9.359   0.091 -0.1171  0.1695 -0.2049
  250MOL0     O33651   9.134   9.305   0.123  0.1858 -0.6135  0.3322
  250MOL0     C33652   9.064   9.214   0.032 -1.7292  0.6268 -0.2184
  250MOL0     C33653   8.940   9.157   0.090  0.1239 -0.1492 -0.2024
  250MOL0     C33654   8.961   9.065   0.216  1.1059  0.3579  0.1668
  250MOL0     C33655   8.825   9.033   0.291  0.2900  0.6541 -0.8552
  250MOL0     C33656   8.837   8.921   0.396 -0.4761  0.0480  0.3766
  250MOL0     C33657   8.854   8.779   0.321  0.5911 -0.2517 -0.2830
  250MOL0     C33658   8.860   8.666   0.422 -0.3797  0.0022  0.6694
  250MOL0     C33659   8.946   8.547   0.380 -0.9225 -0.0003 -0.7388
  250MOL0    Cl33660   8.936   8.411   0.491 -0.1630  0.0748  0.1633
  250MOL0     C33661   9.345   9.308  -0.010 -0.0189 -0.0151  0.0290
  250MOL0     C33662   9.464   9.374  -0.050  0.6110 -0.0569 -0.1014
  250MOL0     O33663   9.759   9.387   0.025  0.4892  0.8284  0.3669
  250MOL0     C33664   9.833   9.719  -0.061  0.5608 -0.7399 -0.1026
  250MOL0     C33665   9.938   9.800  -0.087  0.8056  0.1102  0.7713
  250MOL0     N33666  10.022  10.452  -0.183  0.0198 -0.1232  0.4709
  250MOL0     N33667  10.047  10.565  -0.232  0.7581  0.4534 -0.0869
  250MOL0     C33668   9.814  11.003   0.451  0.5888  0.9591  0.0195
  250MOL0     C33669   9.689  10.978   0.516 -0.2550  0.4966 -0.0107
  250MOL0     C33670   9.278  10.856   0.550 -1.3071  0.3300 -0.7421
  250MOL0     C33671   9.224  10.908   0.665  0.0518  0.3378  0.8131
  250MOL0     C33672   9.123  10.838   0.730 -0.7152 -0.0316 -1.0535
  250MOL0     C33673   9.052  10.731   0.676  0.0698  1.1859 -0.0923
  250MOL0     O33674   8.951  10.662   0.720  0.2201 -0.4162 -0.4065
  250MOL0     C33675   8.875  10.701   0.847 -1.5321 -0.1148  0.4093
  250MOL0     C33676   8.754  10.606   0.858 -1.1516  0.1709 -0.3646
  250MOL0     C33677   8.801  10.459   0.845  0.5214 -0.2827 -0.4599
  250MOL0     C33678   8.676  10.359   0.875  0.1406  0.2956 -0.2978
  250MOL0     C33679   8.589  10.347   0.753 -0.2901  0.0014 -0.6346
  250MOL0     C33680   8.513  10.329   0.666  0.6843  0.0597 -0.1542
  250MOL0     C33681   9.116  10.667   0.569  0.5944 -0.5840 -0.4262
  250MOL0     C33682   9.229  10.727   0.503  0.5124  0.3444 -0.1388
  250MOL0     H33683   9.513  11.240   0.383  0.4240 -0.0731 -1.4634
  250MOL0     H33684   9.716  11.303   0.300  0.1379 -0.7069 -0.5591
  250MOL0     H33685  10.079  11.066   0.449  1.1575 -1.7808 -0.2538
  250MOL0     H33686  10.060  10.993   0.291 -0.3266 -0.0850  0.9068
  250MOL0     H33687  10.198  11.259   0.337  1.6393 -0.4284  1.1150
  250MOL0     H33688  10.276  11.104   0.328 -0.0761  0.5317  2.4220
  250MOL0     H33689  10.087  11.208   0.097  0.7899  2.1360  0.3533
  250MOL0     H33690  10.250  11.246   0.093  1.4688 -0.2001  1.7628
  250MOL0     H33691  10.318  11.013   0.047  0.2107  0.3293  0.2939
  250MOL0     H33692  10.184  10.950   0.130  2.2609 -0.0044  0.3671
  250MOL0     H33693  10.047  11.066  -0.061 -1.2279 -2.7331 -1.3966
  250MOL0     H33694  10.201  11.095  -0.140 -0.4606  1.5667  1.5741
  250MOL0     H33695  10.060  10.835  -0.113  1.0187  0.1551  2.5190
  250MOL0     H33696  10.098  10.912  -0.257 -3.2389 -2.6968  0.8559
  250MOL0     H33697  10.358  10.896  -0.179 -0.3570 -0.7428 -1.0207
  250MOL0     H33698  10.302  10.797  -0.057 -1.1351 -1.5476 -1.0707
  250MOL0     H33699  10.345  10.667  -0.296  0.3759  1.6067 -1.0658
  250MOL0     H33700  10.199  10.750  -0.347 -3.2404 -2.0630  0.0884
  250MOL0     H33701  10.331  10.502  -0.087 -0.4926  1.1227 -1.0908
  250MOL0     H33702  10.235  10.271   0.007  0.3911 -0.5652 -1.4563
  250MOL0     H33703  10.067  10.317   0.055  1.0000  0.5286  0.3911
  250MOL0     H33704  10.002  10.145  -0.150  2.1082  0.8504 -1.7933
  250MOL0     H33705  10.065  10.082   0.003  0.0390  1.5354 -0.0184
  250MOL0     H33706  10.293  10.089  -0.114 -0.5268  4.3017  1.2358
  250MOL0     H33707  10.205  10.134  -0.264  1.9919  0.7490  0.2883
  250MOL0     H33708  10.260   9.894  -0.262 -1.6674 -3.5333  0.0644
  250MOL0     H33709  10.082   9.932  -0.260 -0.0923 -0.2515 -0.7772
  250MOL0     H33710  10.183   9.624   0.060 -1.3365 -2.4954  0.2512
  250MOL0     H33711  10.101   9.450   0.202  0.3753  0.2528 -1.1316
  250MOL0     H33712   9.950   9.375   0.173  0.8021 -0.6431 -0.1930
  250MOL0     H33713  10.080   9.385   0.043  1.2679  2.6622 -1.7374
  250MOL0     H33714   9.458   9.619   0.186  1.7411 -1.5250 -0.0194
  250MOL0     H33715   9.243   9.504   0.254 -1.8055 -0.1105 -1.6017
  250MOL0     H33716   9.042   9.275  -0.056 -2.1139  2.4595  1.0977
  250MOL0     H33717   9.120   9.124   0.005 -1.0030  1.5885 -2.0810
  250MOL0     H33718   8.864   9.233   0.107  0.9678  0.5998  0.3398
  250MOL0     H33719   8.897   9.099   0.008  0.9378 -2.2792  0.7941
  250MOL0     H33720   9.030   9.104   0.292 -1.4003 -0.7964  3.2767
  250MOL0     H33721   9.002   8.970   0.180 -1.7103  0.0976 -2.7719
  250MOL0     H33722   8.786   9.114   0.353  0.0515  0.3475 -0.5998
  250MOL0     H33723   8.749   9.002   0.218  1.0888 -1.1583 -0.9937
  250MOL0     H33724   8.741   8.927   0.449 -2.0529 -2.2726 -1.9890
  250MOL0     H33725   8.920   8.945   0.463 -0.9549  1.8481  0.3914
  250MOL0     H33726   8.765   8.769   0.259  0.8731 -1.5851 -0.4958
  250MOL0     H33727   8.941   8.789   0.256  2.3415  0.0323  1.9841
  250MOL0     H33728   8.756   8.639   0.442  0.1462 -1.1351  2.0990
  250MOL0     H33729   8.916   8.697   0.511  0.7396 -0.7077  0.2460
  250MOL0     H33730   9.049   8.577   0.360 -1.5245  2.1659 -0.8561
  250MOL0     H33731   8.916   8.505   0.284 -2.8026  1.4984 -0.8542
  250MOL0     H33732   9.328   9.216  -0.065 -1.2434  0.1252  0.1439
  250MOL0     H33733   9.514   9.335  -0.138 -0.3299  1.0485 -1.1730
  250MOL0     H33734   9.732   9.740  -0.096  0.8921 -2.3453 -2.2995
  250MOL0     H33735   9.918   9.884  -0.152  1.7602  0.5708  1.0468
  250MOL0     H33736   9.892  10.932   0.477 -2.3983 -2.1877  1.1090
  250MOL0     H33737   9.686  10.895   0.585 -2.0904  1.1590  0.7630
  250MOL0     H33738   9.262  11.005   0.696  2.2446 -0.2092  0.0090
  250MOL0     H33739   9.082  10.876   0.823 -3.0201  3.0179 -3.1010
  250MOL0     H33740   8.940  10.694   0.935  1.1708  1.6540 -1.2776
  250MOL0     H33741   8.836  10.803   0.847 -0.6478  0.2441  1.2835
  250MOL0     H33742   8.691  10.631   0.772 -0.5195  4.3518  0.1882
  250MOL0     H33743   8.701  10.621   0.952  2.8898 -1.2637  2.4523
  250MOL0     H33744   8.890  10.445   0.906  0.0686 -0.1886  0.2297
  250MOL0     H33745   8.818  10.443   0.738 -3.7297 -0.8706 -1.2268
  250MOL0     H33746   8.611  10.399   0.953  0.6015 -2.1490  1.4565
  250MOL0     H33747   8.695  10.255   0.903 -0.7812 -0.9769 -3.8570
  250MOL0     H33748   8.434  10.317   0.595 -2.7502 -1.3448  3.5272
  250MOL0     H33749   9.079  10.576   0.524 -1.0645 -0.1906  0.0684
  250MOL0     H33750   9.276  10.669   0.424  0.9668 -3.0619  2.4243
  251MOL0     O33751   4.521  10.039   9.957  0.0368  0.2069 -0.0042
  251MOL0     C33752   4.470  10.116  10.035 -0.9074 -0.1469 -0.3675
  251MOL0     O33753   4.460  10.253  10.023  0.1680 -0.4986  0.2684
  251MOL0     C33754   4.475  10.315   9.898 -0.2766 -0.1801 -0.8237
  251MOL0     C33755   4.516  10.448   9.900 -0.9995 -0.6681 -0.3552
  251MOL0     C33756   4.537  10.520   9.780  0.0530 -0.2083  0.6489
  251MOL0     C33757   4.515  10.462   9.656 -1.1203  0.7001 -0.5398
  251MOL0     O33758   4.515  10.516   9.531  0.0139 -0.1374  0.1315
  251MOL0     C33759   4.485  10.656   9.539  0.2891 -0.1877 -0.8285
  251MOL0     C33760   4.450  10.699   9.400  0.1481 -0.0825  0.2418
  251MOL0     C33761   4.471  10.846   9.365  0.1513 -0.0300 -0.8561
  251MOL0     C33762   4.443  10.876   9.215 -0.1724 -0.7491  0.1189
  251MOL0     C33763   4.420  11.033   9.189  0.7204  0.4740  0.5736
  251MOL0     C33764   4.540  11.118   9.238 -0.9114  0.1512  0.3635
  251MOL0     C33765   4.578  11.246   9.144  0.0268  0.1071  0.1527
  251MOL0     C33766   4.661  11.353   9.212 -0.1847 -0.2411 -0.5421
  251MOL0     N33767   4.714  11.454   9.123 -0.5864  0.5693  0.7906
  251MOL0     C33768   4.646  11.570   9.098 -0.2549 -0.1241  0.2332
  251MOL0     C33769   4.724  11.647   9.016 -0.4910  0.1024  0.8773
  251MOL0     C33770   4.700  11.789   8.955  0.4732  0.3499 -0.5618
  251MOL0     C33771   4.687  11.786   8.801  0.3586  0.9610  0.1670
  251MOL0     C33772   4.580  11.670   8.769  0.6921  0.1779 -0.2064
  251MOL0     C33773   4.522  11.691   8.625 -0.1327  0.9137 -0.2438
  251MOL0     O33774   4.398  11.615   8.608 -0.0227  0.5092 -0.0679
  251MOL0     C33775   4.279  11.678   8.651  0.4465 -0.2361  0.7009
  251MOL0     C33776   4.182  11.599   8.705  0.1749  0.4974 -0.2883
  251MOL0     C33777   4.063  11.656   8.752  0.3804 -0.7965 -0.7009
  251MOL0     C33778   3.966  11.556   8.823  0.0284 -0.6935  1.0587
  251MOL0     C33779   4.039  11.792   8.747  1.4753 -0.4682  0.5893
  251MOL0     C33780   3.906  11.860   8.789  0.6967  0.4293 -0.7859
  251MOL0     O33781   3.912  11.975   8.871  0.6129  0.1097 -0.7090
  251MOL0     C33782   3.826  12.077   8.843  0.6680 -0.2503 -0.9647
  251MOL0     C33783   3.745  12.085   8.734  0.3901 -0.0065  0.3698
  251MOL0     C33784   3.664  12.198   8.713 -0.9849  0.2274 -0.2072
  251MOL0     C33785   3.657  12.304   8.803 -0.1088 -0.8317 -1.1430
  251MOL0     O33786   3.575  12.412   8.776 -0.5451 -0.0977  0.0784
  251MOL0     C33787   3.571  12.514   8.881 -0.3225  1.2897 -0.2152
  251MOL0     C33788   3.502  12.629   8.814  0.0048  0.3313 -0.2488
  251MOL0     C33789   3.571  12.681   8.696 -0.6809 -0.9512  0.4568
  251MOL0     C33790   3.496  12.798   8.631  0.3910  0.0893 -0.7435
  251MOL0     C33791   3.560  12.848   8.504 -0.3952  0.4655 -0.5973
  251MOL0     C33792   3.460  12.935   8.430 -0.7235  1.0373  0.6486
  251MOL0     C33793   3.514  12.975   8.295  0.6506  0.0432  0.4101
  251MOL0     C33794   3.416  13.073   8.224 -0.7256  0.2009  0.1170
  251MOL0    Cl33795   3.250  13.012   8.213 -0.2305  0.5345 -0.3715
  251MOL0     C33796   3.734  12.283   8.926 -0.0498 -0.7445 -1.0699
  251MOL0     C33797   3.818  12.172   8.940  0.3395 -0.0660 -0.1113
  251MOL0     O33798   3.806  11.804   8.752  0.2329 -0.3028 -0.0242
  251MOL0     C33799   4.136  11.873   8.691 -0.6307  0.5200 -0.3367
  251MOL0     C33800   4.257  11.818   8.648  0.6096  0.2654 -0.7290
  251MOL0     N33801   4.841  11.572   8.992  0.2886 -0.0937  0.3838
  251MOL0     N33802   4.831  11.460   9.055  0.5728 -0.0849  0.2596
  251MOL0     C33803   4.459  10.327   9.659  0.0861 -0.0881 -0.2453
  251MOL0     C33804   4.440  10.259   9.778 -0.6377 -0.2715  0.0055
  251MOL0     C33805   4.409  10.058  10.159 -0.0285  0.0079  0.2592
  251MOL0     C33806   4.415   9.922  10.184  0.2741  0.3585 -0.3250
  251MOL0     C33807   4.350   9.865  10.298 -0.3696 -0.7028 -0.2896
  251MOL0     C33808   4.299   9.951  10.397 -0.7330 -0.1627 -0.2672
  251MOL0     O33809   4.239   9.920  10.521 -1.0240 -0.5724  0.4271
  251MOL0     C33810   4.246   9.779  10.568 -0.5370 -0.0237  0.8924
  251MOL0     C33811   4.117   9.730  10.506  0.3376  0.5074  0.9469
  251MOL0     C33812   4.086   9.586  10.545 -0.0441  0.0731  0.0636
  251MOL0     C33813   4.035   9.584  10.685 -0.3893  0.0599  0.2158
  251MOL0     C33814   3.890   9.590  10.681  1.0049  0.1573 -0.6805
  251MOL0     C33815   3.765   9.594  10.689 -0.2449 -0.3243 -0.3508
  251MOL0     C33816   4.293  10.087  10.367 -0.1032  0.9407 -0.4477
  251MOL0     C33817   4.350  10.144  10.254  0.1805  0.5134  0.4937
  251MOL0     H33818   4.528  10.493   9.998 -2.8527  0.3695 -0.5573
  251MOL0     H33819   4.566  10.625   9.778 -0.5335 -0.0518 -0.2888
  251MOL0     H33820   4.399  10.680   9.602 -1.5283 -1.8747 -2.5266
  251MOL0     H33821   4.578  10.710   9.561  0.0193 -0.2766  0.6622
  251MOL0     H33822   4.528  10.655   9.336  1.0600  4.1237 -1.8840
  251MOL0     H33823   4.350  10.662   9.375 -0.1744  1.2844 -0.5649
  251MOL0     H33824   4.411  10.913   9.428 -1.1834 -1.8390 -0.1139
  251MOL0     H33825   4.577  10.866   9.382 -0.0071  0.8020 -0.8105
  251MOL0     H33826   4.525  10.835   9.156 -0.4401 -0.4401 -0.4775
  251MOL0     H33827   4.355  10.818   9.187  0.7212 -2.5934  0.9942
  251MOL0     H33828   4.416  11.040   9.079 -0.4590 -3.1499  0.2649
  251MOL0     H33829   4.323  11.056   9.232  1.5426  1.1685  2.1185
  251MOL0     H33830   4.524  11.157   9.339  2.6042  0.4460  0.9203
  251MOL0     H33831   4.624  11.048   9.247 -0.7372 -0.1107 -2.3741
  251MOL0     H33832   4.633  11.218   9.054  2.8958  2.2576  1.1018
  251MOL0     H33833   4.489  11.300   9.109 -0.8085 -0.1949  1.6896
  251MOL0     H33834   4.748  11.311   9.263 -0.2225  1.1477  0.7716
  251MOL0     H33835   4.598  11.402   9.287  2.5786  1.6053  0.7505
  251MOL0     H33836   4.555  11.601   9.148  0.5991  0.5168  1.4435
  251MOL0     H33837   4.614  11.833   9.007  0.7618 -0.1119  0.3431
  251MOL0     H33838   4.795  11.836   8.984  1.2404 -1.5390  0.1863
  251MOL0     H33839   4.783  11.769   8.753 -1.4586  0.9747 -3.8506
  251MOL0     H33840   4.655  11.888   8.779  2.5569  1.9138  1.1349
  251MOL0     H33841   4.500  11.674   8.844  0.5288  2.2677 -0.4381
  251MOL0     H33842   4.619  11.568   8.781  0.9507  0.1721 -1.0917
  251MOL0     H33843   4.595  11.672   8.546  2.4258 -0.5023  2.2767
  251MOL0     H33844   4.504  11.798   8.620 -2.3219  0.8798  3.3426
  251MOL0     H33845   4.209  11.494   8.707  1.2383  0.7650 -0.1760
  251MOL0     H33846   4.015  11.478   8.882 -1.3184 -1.4457  1.2381
  251MOL0     H33847   3.904  11.619   8.889 -0.1096  0.5452 -0.2025
  251MOL0     H33848   3.909  11.508   8.743  1.3861 -2.6783  1.2204
  251MOL0     H33849   3.748  12.022   8.645 -0.9750 -0.8908  0.9253
  251MOL0     H33850   3.612  12.203   8.618  2.4664  0.7772 -2.2189
  251MOL0     H33851   3.509  12.478   8.964 -0.8203 -1.1069 -1.5247
  251MOL0     H33852   3.670  12.545   8.917 -0.8311 -0.0822  2.6809
  251MOL0     H33853   3.401  12.592   8.794 -0.4858  2.1550 -1.3830
  251MOL0     H33854   3.491  12.706   8.891 -2.9822 -1.5684  1.4296
  251MOL0     H33855   3.581  12.606   8.618 -1.3215 -1.5735  0.9610
  251MOL0     H33856   3.669  12.723   8.719 -2.0668  2.6569  0.5357
  251MOL0     H33857   3.389  12.776   8.621  0.5692 -1.5044  0.4524
  251MOL0     H33858   3.502  12.881   8.702 -1.8364 -0.2430 -0.0808
  251MOL0     H33859   3.591  12.758   8.450 -0.3193 -0.4289  0.8769
  251MOL0     H33860   3.656  12.894   8.527 -0.9329  0.1666  2.8842
  251MOL0     H33861   3.368  12.876   8.423  1.4729 -2.9837  2.2349
  251MOL0     H33862   3.432  13.019   8.494 -4.3731 -0.0396  0.6942
  251MOL0     H33863   3.527  12.894   8.223  5.2414  0.3292  0.5940
  251MOL0     H33864   3.610  13.023   8.318 -0.4040  1.3726  2.3494
  251MOL0     H33865   3.458  13.091   8.124  0.3712 -0.6913  0.3962
  251MOL0     H33866   3.421  13.173   8.268 -0.9816 -0.3689  1.4814
  251MOL0     H33867   3.728  12.356   9.006  0.0444 -0.8977 -0.9250
  251MOL0     H33868   3.871  12.163   9.034  1.8398  0.3217 -0.8963
  251MOL0     H33869   4.119  11.980   8.678 -0.0090  0.4071 -2.5436
  251MOL0     H33870   4.329  11.883   8.599  1.3000 -0.9838 -1.4173
  251MOL0     H33871   4.448  10.268   9.569 -2.3674 -1.8858  1.1034
  251MOL0     H33872   4.391  10.162   9.780 -0.0780 -0.5725 -0.5681
  251MOL0     H33873   4.464   9.856  10.114  2.8716  0.9424  0.8212
  251MOL0     H33874   4.376   9.761  10.317  2.1307  0.0342  0.8239
  251MOL0     H33875   4.330   9.726  10.521 -0.2030  1.2177  0.0659
  251MOL0     H33876   4.241   9.768  10.677  0.9390 -1.2393  0.8690
  251MOL0     H33877   4.123   9.729  10.397 -0.0494  0.0693  0.9249
  251MOL0     H33878   4.027   9.791  10.521 -0.2146  0.5432 -2.0377
  251MOL0     H33879   4.172   9.519  10.549 -0.5409 -0.5255  0.9151
  251MOL0     H33880   4.020   9.534  10.475 -1.2611 -0.9617  1.8997
  251MOL0     H33881   4.074   9.662  10.750  0.7944 -0.9719  0.7875
  251MOL0     H33882   4.072   9.490  10.727  0.9886 -0.2380 -1.5269
  251MOL0     H33883   3.661   9.602  10.715  0.3531  2.1737  1.5717
  251MOL0     H33884   4.243  10.150  10.440  0.8707  0.3974  0.7198
  251MOL0     H33885   4.341  10.251  10.241 -0.8179  0.4719  0.7582
  252MOL0     O33886  11.299  10.021   0.426 -0.4150  0.2034  0.2725
  252MOL0     C33887  11.321   9.895   0.419  0.2185 -0.1320 -0.0425
  252MOL0     O33888  11.324   9.810   0.520 -0.5459  0.5331  0.1645
  252MOL0     C33889  11.206   9.744   0.568  0.8401  0.0807 -0.5067
  252MOL0     C33890  11.072   9.779   0.543 -0.4407 -0.5763 -0.4755
  252MOL0     C33891  10.968   9.706   0.595 -1.0716 -0.8614  0.2002
  252MOL0     C33892  10.988   9.592   0.677 -0.0673  0.1530 -0.5028
  252MOL0     O33893  10.884   9.516   0.738 -0.1456  0.3885  0.2785
  252MOL0     C33894  10.748   9.548   0.698 -0.7339  0.2030 -0.4980
  252MOL0     C33895  10.643   9.435   0.718 -1.0112 -0.0979 -0.1594
  252MOL0     C33896  10.663   9.316   0.628  0.5659 -0.2568  0.3223
  252MOL0     C33897  10.584   9.195   0.677 -0.9468  0.4576  0.6054
  252MOL0     C33898  10.606   9.072   0.587 -0.7564 -0.7451 -0.2166
  252MOL0     C33899  10.508   8.951   0.611 -1.2332 -0.2194 -0.6714
  252MOL0     C33900  10.513   8.850   0.498 -0.4843  0.3345 -0.5011
  252MOL0     C33901  10.660   8.783   0.495 -0.3234  0.6199  0.7051
  252MOL0     N33902  10.719   8.734   0.623  0.5394  0.9334 -0.6985
  252MOL0     C33903  10.688   8.620   0.691  0.5591  0.1288  1.8441
  252MOL0     C33904  10.746   8.623   0.805  0.1636 -0.4675  0.0298
  252MOL0     C33905  10.735   8.506   0.907 -0.8309 -0.2097  0.2818
  252MOL0     C33906  10.850   8.490   0.998 -0.6736 -1.2008  0.4365
  252MOL0     C33907  10.979   8.458   0.917  0.4096  0.4487  0.8953
  252MOL0     C33908  11.102   8.416   0.997  0.8335 -0.0084  0.1194
  252MOL0     O33909  11.202   8.369   0.902 -0.0455  0.7902 -0.0989
  252MOL0     C33910  11.326   8.327   0.932  0.4653 -1.1079 -0.9708
  252MOL0     C33911  11.359   8.284   1.059 -0.5984 -0.8310 -1.0424
  252MOL0     C33912  11.494   8.263   1.093 -1.0411  0.2166 -0.3671
  252MOL0     C33913  11.517   8.216   1.244  0.2567 -0.3995 -0.0447
  252MOL0     C33914  11.594   8.274   0.989 -0.0960 -0.3437 -0.0962
  252MOL0     C33915  11.748   8.257   1.007 -0.2469  0.0374 -0.2241
  252MOL0     O33916  11.830   8.295   0.907 -0.5623  0.4168 -0.0996
  252MOL0     C33917  11.955   8.266   0.930  1.2534  0.3290  0.5065
  252MOL0     C33918  12.039   8.355   0.994  0.6856  0.0597  0.2397
  252MOL0     C33919  12.175   8.312   1.014 -0.6235  0.2087 -0.5192
  252MOL0     C33920  12.231   8.199   0.958  0.1237 -0.8944 -0.2493
  252MOL0     O33921  12.353   8.136   0.986  0.8443 -0.5223  0.2415
  252MOL0     C33922  12.448   8.225   1.051  0.4973 -0.1163  0.2609
  252MOL0     C33923  12.505   8.333   0.960  0.1303  0.8064  0.2223
  252MOL0     C33924  12.543   8.275   0.820  0.1362  0.1554 -0.4500
  252MOL0     C33925  12.670   8.186   0.822  0.6160 -0.7085  0.3513
  252MOL0     C33926  12.802   8.252   0.833 -0.5398 -0.5430 -0.2649
  252MOL0     C33927  12.916   8.153   0.805 -1.0082  0.6784 -0.8237
  252MOL0     C33928  13.046   8.227   0.822  0.4820  1.1086 -0.1054
  252MOL0     C33929  13.087   8.230   0.969 -0.5809  0.2042 -1.0512
  252MOL0    Cl33930  13.265   8.219   0.974 -0.1582  0.0356  0.2100
  252MOL0     C33931  12.146   8.120   0.885  1.1447  0.3281  0.9283
  252MOL0     C33932  12.001   8.151   0.867 -0.4016  0.2944  0.0786
  252MOL0     O33933  11.784   8.221   1.122 -0.4463  0.4452 -0.1596
  252MOL0     C33934  11.553   8.318   0.860  0.5088  1.1067 -0.5572
  252MOL0     C33935  11.417   8.345   0.831  0.0011 -0.4083 -0.5464
  252MOL0     N33936  10.813   8.741   0.817  0.4449 -0.4280  0.6971
  252MOL0     N33937  10.802   8.798   0.705  0.4993  0.4406  0.8839
  252MOL0     C33938  11.120   9.559   0.710  0.3763  0.4611  0.2508
  252MOL0     C33939  11.224   9.632   0.651  0.2172  0.6413 -0.8030
  252MOL0     C33940  11.313   9.840   0.286 -0.6596 -0.3911  0.2990
  252MOL0     C33941  11.351   9.709   0.259 -0.4288 -0.1639  0.2714
  252MOL0     C33942  11.348   9.668   0.124 -0.6662  0.2859 -0.1364
  252MOL0     C33943  11.307   9.745   0.015  0.1051 -1.0987  1.0211
  252MOL0     O33944  11.296   9.701  -0.111 -0.2698 -0.0643  0.2284
  252MOL0     C33945  11.388   9.600  -0.168 -0.0982 -0.2090 -0.2556
  252MOL0     C33946  11.322   9.494  -0.247 -0.0286 -0.3459  0.8857
  252MOL0     C33947  11.237   9.401  -0.162  0.3630  0.9806  0.0675
  252MOL0     C33948  11.161   9.293  -0.250  0.3614 -0.1435  0.0883
  252MOL0     C33949  11.056   9.347  -0.336 -0.4332 -0.9055 -0.7540
  252MOL0     C33950  10.971   9.411  -0.405 -1.2297  0.3315  0.0963
  252MOL0     C33951  11.279   9.877   0.043 -0.2353  0.5512 -0.1515
  252MOL0     C33952  11.280   9.926   0.179  0.5110 -0.2809  0.2108
  252MOL0     H33953  11.045   9.859   0.474  0.3642 -1.9618 -2.4990
  252MOL0     H33954  10.868   9.746   0.589 -0.1781  1.3369 -1.1047
  252MOL0     H33955  10.729   9.642   0.749  0.3438  1.2399 -1.9238
  252MOL0     H33956  10.762   9.571   0.592  3.8152 -0.9850 -0.3542
  252MOL0     H33957  10.664   9.405   0.821 -0.3635  1.7069  0.2799
  252MOL0     H33958  10.541   9.477   0.715 -2.4223 -3.1774  0.8243
  252MOL0     H33959  10.628   9.343   0.528  1.2472 -0.1496  0.1029
  252MOL0     H33960  10.770   9.293   0.617  0.7166  1.0972 -1.4650
  252MOL0     H33961  10.610   9.169   0.780  2.0815 -2.2676 -0.6861
  252MOL0     H33962  10.477   9.217   0.672 -1.2698 -1.2603 -0.8093
  252MOL0     H33963  10.598   9.111   0.485 -2.1760  0.6471  0.3751
  252MOL0     H33964  10.711   9.045   0.598 -0.6708 -0.7381 -0.9923
  252MOL0     H33965  10.532   8.903   0.706 -4.3665 -2.2119 -0.7181
  252MOL0     H33966  10.407   8.993   0.618 -0.5129  1.4369  0.3250
  252MOL0     H33967  10.428   8.785   0.519  0.8940 -0.5142  3.1776
  252MOL0     H33968  10.489   8.890   0.399 -3.3760 -2.3888 -1.0438
  252MOL0     H33969  10.730   8.857   0.454  0.5765 -0.7401 -0.2725
  252MOL0     H33970  10.662   8.702   0.423 -0.1884  2.4861 -1.5009
  252MOL0     H33971  10.633   8.539   0.644 -1.1124  1.9765  0.4372
  252MOL0     H33972  10.642   8.502   0.964 -1.1612 -0.6230 -0.2832
  252MOL0     H33973  10.733   8.415   0.846  1.0816 -0.4329  0.4833
  252MOL0     H33974  10.834   8.424   1.084  0.1074  0.2912  1.7830
  252MOL0     H33975  10.870   8.590   1.037 -0.6244 -1.4520  1.0674
  252MOL0     H33976  11.008   8.536   0.846 -0.4538  1.3544  1.5206
  252MOL0     H33977  10.964   8.372   0.851 -0.2520  1.6532 -0.5846
  252MOL0     H33978  11.068   8.343   1.071 -0.2008  3.6908  3.6700
  252MOL0     H33979  11.143   8.511   1.033 -0.5128  0.9172 -0.6938
  252MOL0     H33980  11.275   8.267   1.125 -0.6535 -1.9768 -1.3803
  252MOL0     H33981  11.436   8.270   1.295  1.2945  0.8410  0.3384
  252MOL0     H33982  11.509   8.108   1.259 -0.0759 -0.3920 -0.1518
  252MOL0     H33983  11.611   8.250   1.287  0.1281 -0.9528  0.6912
  252MOL0     H33984  11.989   8.438   1.044  1.7459  0.6689  0.3065
  252MOL0     H33985  12.225   8.381   1.082 -2.3220  2.0564 -1.0753
  252MOL0     H33986  12.407   8.266   1.143  1.8495  0.5089  0.6095
  252MOL0     H33987  12.527   8.154   1.079  1.2614  1.1826  1.5170
  252MOL0     H33988  12.440   8.421   0.956  1.0616  1.4880 -0.0342
  252MOL0     H33989  12.602   8.360   1.002  0.5777 -1.5280  0.8215
  252MOL0     H33990  12.574   8.361   0.760  0.0601  0.5103  0.0218
  252MOL0     H33991  12.450   8.228   0.786  0.6116 -0.1157 -1.4096
  252MOL0     H33992  12.666   8.110   0.901  1.2937 -2.0868 -0.8969
  252MOL0     H33993  12.675   8.131   0.728  0.3386 -0.8109  0.3952
  252MOL0     H33994  12.803   8.296   0.933 -1.3196 -2.4917  0.6496
  252MOL0     H33995  12.812   8.325   0.752  1.1910 -0.9145 -0.4300
  252MOL0     H33996  12.901   8.054   0.849  2.8422  0.7891  1.1071
  252MOL0     H33997  12.901   8.132   0.698 -0.0830 -0.7647 -0.7059
  252MOL0     H33998  13.052   8.327   0.780  2.7640  1.4107  0.7837
  252MOL0     H33999  13.121   8.168   0.767 -0.4704 -1.2314  0.9936
  252MOL0     H34000  13.050   8.140   1.018  0.0448 -2.0113 -4.3251
  252MOL0     H34001  13.045   8.315   1.023  0.0751 -1.1726  1.7907
  252MOL0     H34002  12.199   8.037   0.841  1.4669  0.3780  1.2182
  252MOL0     H34003  11.929   8.092   0.811 -0.8626 -0.3750  1.3375
  252MOL0     H34004  11.618   8.336   0.775  0.4175  0.6377 -0.7301
  252MOL0     H34005  11.389   8.382   0.733  1.8868 -0.0258 -0.9706
  252MOL0     H34006  11.141   9.465   0.761 -2.1912 -1.4087 -1.8298
  252MOL0     H34007  11.320   9.591   0.679  0.3925  1.7523  0.3361
  252MOL0     H34008  11.400   9.643   0.330  0.1455 -1.4934 -1.3104
  252MOL0     H34009  11.385   9.571   0.094  3.7543  1.7621 -0.1978
  252MOL0     H34010  11.464   9.651  -0.228  0.0267  0.6621  0.6062
  252MOL0     H34011  11.439   9.546  -0.089 -1.6626  0.0742  1.0003
  252MOL0     H34012  11.394   9.430  -0.298  0.0839 -0.6619  1.4256
  252MOL0     H34013  11.250   9.540  -0.315 -1.5589  1.3531  3.4951
  252MOL0     H34014  11.162   9.458  -0.106 -1.3249  0.6152 -1.7103
  252MOL0     H34015  11.298   9.355  -0.084  0.6743  1.5873  0.1909
  252MOL0     H34016  11.110   9.220  -0.186 -4.2394  1.8944 -0.8855
  252MOL0     H34017  11.232   9.235  -0.310  0.7229 -0.2473  0.6004
  252MOL0     H34018  10.907   9.471  -0.466 -0.7512 -1.8411 -2.7349
  252MOL0     H34019  11.256   9.954  -0.031 -2.5744  0.1863  0.1261
  252MOL0     H34020  11.265  10.032   0.194 -0.2440 -0.5735  1.7964
  253MOL0     O34021   5.292   0.891   6.491  0.2699 -0.0343 -0.3479
  253MOL0     C34022   5.376   0.943   6.567 -0.9844 -0.8725 -0.3416
  253MOL0     O34023   5.347   0.982   6.689 -0.0982 -0.8306 -0.3747
  253MOL0     C34024   5.216   0.973   6.741 -0.2529 -1.2284 -0.8280
  253MOL0     C34025   5.162   0.847   6.776  0.3099  0.1951 -0.4571
  253MOL0     C34026   5.033   0.830   6.826  0.6505  0.0111  0.3611
  253MOL0     C34027   4.954   0.948   6.852 -0.4614  0.5782  0.2467
  253MOL0     O34028   4.820   0.942   6.885 -0.4703  0.0721  0.1018
  253MOL0     C34029   4.728   0.927   6.777  0.3741  0.0142 -1.0841
  253MOL0     C34030   4.634   0.808   6.797  0.5262 -0.1099  0.0541
  253MOL0     C34031   4.534   0.844   6.925  1.0599  0.3823 -1.4241
  253MOL0     C34032   4.423   0.740   6.943  0.1042  0.0867 -0.6328
  253MOL0     C34033   4.346   0.683   6.821  1.2222 -0.2443  0.5666
  253MOL0     C34034   4.206   0.636   6.856  0.6076  0.5893  0.7900
  253MOL0     C34035   4.128   0.645   6.727 -0.7215 -0.4591 -0.0873
  253MOL0     C34036   4.025   0.543   6.732  0.2536 -0.0654 -1.3838
  253MOL0     N34037   3.916   0.582   6.644 -0.2309 -0.3746  0.1151
  253MOL0     C34038   3.918   0.584   6.513 -0.7240 -0.3913 -0.5291
  253MOL0     C34039   3.801   0.641   6.481  0.2585 -0.4570 -0.1577
  253MOL0     C34040   3.754   0.658   6.345 -0.3141 -0.3013 -0.1804
  253MOL0     C34041   3.671   0.542   6.292 -0.0401 -0.3689 -0.4907
  253MOL0     C34042   3.527   0.550   6.353 -0.4086  0.0510  0.3362
  253MOL0     C34043   3.425   0.458   6.294  0.2182  0.2534 -0.0298
  253MOL0     O34044   3.306   0.447   6.372  0.4588  0.3562  0.4712
  253MOL0     C34045   3.238   0.331   6.350 -0.6539  0.7593  0.8624
  253MOL0     C34046   3.258   0.250   6.236  0.8645  0.2434 -0.1699
  253MOL0     C34047   3.172   0.136   6.227 -0.9580 -0.3451 -0.7872
  253MOL0     C34048   3.199   0.062   6.100 -0.0708  1.5592 -0.5749
  253MOL0     C34049   3.072   0.114   6.323  0.6550 -0.5657  0.1731
  253MOL0     C34050   2.981  -0.001   6.326  0.0982  0.6085 -0.1569
  253MOL0     O34051   2.862   0.025   6.378  0.8192 -0.2387  0.2502
  253MOL0     C34052   2.760  -0.075   6.357  0.3226 -0.2094 -0.7947
  253MOL0     C34053   2.672  -0.101   6.462 -0.0516  0.0890 -0.0574
  253MOL0     C34054   2.576  -0.201   6.457 -0.0011 -0.7232 -0.0631
  253MOL0     C34055   2.555  -0.262   6.334 -0.1060  0.1507  0.9784
  253MOL0     O34056   2.458  -0.361   6.336  0.6368 -0.0630  0.9559
  253MOL0     C34057   2.425  -0.434   6.213 -0.4563 -0.1307 -0.4541
  253MOL0     C34058   2.331  -0.545   6.252  0.1020  0.5150  0.1803
  253MOL0     C34059   2.190  -0.483   6.274 -0.7352 -0.6150 -0.6328
  253MOL0     C34060   2.100  -0.568   6.354 -0.6598 -0.0157  0.1658
  253MOL0     C34061   1.960  -0.505   6.375 -0.0919  0.6993 -0.5631
  253MOL0     C34062   1.873  -0.608   6.445 -0.1977  0.4731 -0.6794
  253MOL0     C34063   1.724  -0.567   6.456 -0.2548 -0.1268 -0.3009
  253MOL0     C34064   1.644  -0.671   6.532 -0.4060 -0.1882  0.2243
  253MOL0    Cl34065   1.479  -0.621   6.526 -0.2142  0.3369 -0.0031
  253MOL0     C34066   2.641  -0.238   6.226  0.3111  0.5516  0.1592
  253MOL0     C34067   2.748  -0.149   6.237 -0.2553 -0.2855  0.8946
  253MOL0     O34068   3.030  -0.111   6.289  0.6221  0.6221  0.5405
  253MOL0     C34069   3.057   0.209   6.431  0.1302  0.5934  0.0361
  253MOL0     C34070   3.151   0.307   6.449 -0.4297 -0.5831  0.4550
  253MOL0     N34071   3.727   0.681   6.597 -0.3520  0.9295  1.3651
  253MOL0     N34072   3.810   0.642   6.687  0.4571  0.6290 -0.1919
  253MOL0     C34073   5.013   1.073   6.821  0.4746  0.3516  0.0221
  253MOL0     C34074   5.135   1.086   6.756  0.0553 -0.1486  0.5307
  253MOL0     C34075   5.501   0.988   6.500  0.5938  1.0539 -0.2703
  253MOL0     C34076   5.595   1.056   6.575 -1.0278  0.5341 -0.1542
  253MOL0     C34077   5.703   1.104   6.502 -0.3758  0.7849  0.3168
  253MOL0     C34078   5.714   1.092   6.363 -0.1570 -0.0861 -0.7898
  253MOL0     O34079   5.829   1.151   6.309  0.2139 -0.7990  0.7054
  253MOL0     C34080   5.917   1.066   6.231  0.2690 -0.4886 -0.0706
  253MOL0     C34081   5.987   0.963   6.322 -0.8912 -0.7678 -0.1699
  253MOL0     C34082   6.084   1.039   6.425 -0.2726 -0.3629  0.2691
  253MOL0     C34083   6.127   0.958   6.542 -0.4491  0.0391  0.3167
  253MOL0     C34084   6.017   0.922   6.628 -0.2415  1.0041  0.3525
  253MOL0     C34085   5.920   0.892   6.688  0.6991  0.6395 -0.5878
  253MOL0     C34086   5.620   1.018   6.291 -0.1293 -0.1681 -1.3846
  253MOL0     C34087   5.513   0.964   6.359 -0.4926 -0.0567 -0.2271
  253MOL0     H34088   5.226   0.763   6.753  1.5044  0.5635  1.3698
  253MOL0     H34089   4.986   0.735   6.848 -0.7268 -0.0460 -2.3783
  253MOL0     H34090   4.675   1.020   6.757 -0.0747 -0.3061 -1.4118
  253MOL0     H34091   4.792   0.912   6.690  0.3090 -0.5332 -1.0417
  253MOL0     H34092   4.578   0.806   6.703 -0.4234  1.4979  0.5271
  253MOL0     H34093   4.686   0.715   6.817 -0.3983 -0.3251  1.6583
  253MOL0     H34094   4.597   0.862   7.013  2.7102  0.8620 -2.6491
  253MOL0     H34095   4.473   0.934   6.913 -3.1885 -2.2093 -1.4018
  253MOL0     H34096   4.468   0.662   7.004  2.0110  0.7170 -1.1658
  253MOL0     H34097   4.355   0.794   7.010 -0.0946 -1.6356  0.6164
  253MOL0     H34098   4.341   0.764   6.748  2.8082  0.4813  1.2152
  253MOL0     H34099   4.400   0.597   6.781 -0.9976 -0.0655 -3.2258
  253MOL0     H34100   4.217   0.533   6.890 -2.5399 -0.6573 -1.5286
  253MOL0     H34101   4.149   0.691   6.931 -0.0159  0.2833  0.5427
  253MOL0     H34102   4.092   0.746   6.706  3.1672  0.5905 -2.6817
  253MOL0     H34103   4.195   0.621   6.644  0.7045 -2.5477  1.5455
  253MOL0     H34104   3.983   0.551   6.833  0.3772  2.5755 -1.4796
  253MOL0     H34105   4.065   0.444   6.709 -0.8894 -0.2713 -2.6033
  253MOL0     H34106   4.002   0.547   6.455  0.5808  2.9252 -0.9951
  253MOL0     H34107   3.693   0.749   6.338 -0.6645 -0.6386 -1.9837
  253MOL0     H34108   3.844   0.673   6.285  0.0064 -1.3772  0.0228
  253MOL0     H34109   3.718   0.444   6.310 -0.7660 -0.7563 -0.6967
  253MOL0     H34110   3.666   0.558   6.184  2.0774  1.8887 -0.3540
  253MOL0     H34111   3.486   0.651   6.339  0.4052  0.2974 -0.3524
  253MOL0     H34112   3.527   0.522   6.459 -1.4858  0.9610  0.5991
  253MOL0     H34113   3.474   0.361   6.279  0.9632  0.1235  2.6728
  253MOL0     H34114   3.390   0.491   6.196  0.7827 -2.7069 -1.3273
  253MOL0     H34115   3.318   0.279   6.151 -2.1402  1.8888 -1.8835
  253MOL0     H34116   3.213  -0.047   6.103 -1.2692  1.3076 -2.1103
  253MOL0     H34117   3.115   0.081   6.031  0.3731  1.7167 -1.0775
  253MOL0     H34118   3.287   0.094   6.043  0.7293 -0.9918 -0.9245
  253MOL0     H34119   2.675  -0.038   6.550 -0.8224  0.0215  0.0207
  253MOL0     H34120   2.514  -0.201   6.546 -0.3803  1.1880 -0.2920
  253MOL0     H34121   2.380  -0.376   6.132 -0.4392  1.2163  0.4582
  253MOL0     H34122   2.522  -0.467   6.175 -1.5970 -0.6319 -3.1041
  253MOL0     H34123   2.330  -0.621   6.173  0.6259  0.0037  0.6559
  253MOL0     H34124   2.379  -0.593   6.338  0.5321 -0.1029 -0.4011
  253MOL0     H34125   2.148  -0.449   6.178 -0.8498 -1.9405 -1.0608
  253MOL0     H34126   2.215  -0.397   6.337 -0.8698  1.3966 -3.1377
  253MOL0     H34127   2.087  -0.660   6.296  2.0006 -2.3909  3.0040
  253MOL0     H34128   2.141  -0.603   6.449 -0.9109 -3.3704 -0.8101
  253MOL0     H34129   1.924  -0.492   6.273  0.5456 -0.9213 -1.0281
  253MOL0     H34130   1.969  -0.413   6.434 -0.8630 -0.9407  2.3188
  253MOL0     H34131   1.883  -0.698   6.383  3.3962  1.4349 -1.7122
  253MOL0     H34132   1.914  -0.624   6.546  0.3060  1.6737 -0.6793
  253MOL0     H34133   1.673  -0.552   6.361  2.5068  2.1374 -1.6049
  253MOL0     H34134   1.716  -0.471   6.510 -3.1715 -1.6871  2.3471
  253MOL0     H34135   1.687  -0.695   6.630 -1.4789 -1.2050  0.4655
  253MOL0     H34136   1.636  -0.763   6.475 -1.5720 -1.1007  1.7822
  253MOL0     H34137   2.633  -0.290   6.131  1.3324 -1.6903  1.2351
  253MOL0     H34138   2.816  -0.132   6.154  0.5507 -2.4231  1.0577
  253MOL0     H34139   2.977   0.196   6.503 -0.0594 -0.4982 -0.3541
  253MOL0     H34140   3.133   0.360   6.542 -2.2675 -2.0224  0.9807
  253MOL0     H34141   4.964   1.169   6.836 -3.5793 -1.2126 -1.5825
  253MOL0     H34142   5.164   1.190   6.742 -4.4351  1.0714 -1.6309
  253MOL0     H34143   5.579   1.084   6.678 -1.0909  0.6849 -0.2057
  253MOL0     H34144   5.777   1.168   6.548 -0.8544  0.1893  1.9725
  253MOL0     H34145   5.868   1.023   6.144  0.6297  1.7013 -1.4151
  253MOL0     H34146   5.998   1.128   6.191  2.9046 -3.3921  0.3226
  253MOL0     H34147   6.025   0.877   6.266 -3.1381 -1.7733 -0.2529
  253MOL0     H34148   5.906   0.917   6.378 -1.7851 -1.2327 -1.7749
  253MOL0     H34149   6.029   1.123   6.468 -2.4526 -0.7702 -1.5155
  253MOL0     H34150   6.167   1.073   6.362 -1.1295  1.0329 -0.1587
  253MOL0     H34151   6.209   1.011   6.591 -0.1370 -0.4428  0.3247
  253MOL0     H34152   6.157   0.862   6.499 -1.2754 -0.8425  1.6725
  253MOL0     H34153   5.837   0.873   6.753  1.4651  0.4559  0.3649
  253MOL0     H34154   5.631   0.998   6.185  0.6773  1.2953 -1.5980
  253MOL0     H34155   5.451   0.890   6.308  0.5044 -2.6017  2.0560
  254MOL0     O34156  11.189   2.488   7.289  0.4279 -0.0443  0.9600
  254MOL0     C34157  11.240   2.425   7.371 -0.2845  0.0168 -0.6589
  254MOL0     O34158  11.176   2.339   7.459 -0.1127  0.3114  0.0954
  254MOL0     C34159  11.044   2.339   7.465 -0.5330  0.3635 -0.2899
  254MOL0     C34160  10.980   2.412   7.560  0.6282  0.4306 -0.7428
  254MOL0     C34161  10.842   2.399   7.582 -0.2838 -0.3079 -0.1956
  254MOL0     C34162  10.767   2.323   7.500 -0.2930  0.7347  0.2528
  254MOL0     O34163  10.646   2.323   7.548  0.7812  0.1854  0.6978
  254MOL0     C34164  10.564   2.214   7.504 -0.0815 -0.2251 -0.4468
  254MOL0     C34165  10.421   2.230   7.550  0.0558  0.7859  0.8231
  254MOL0     C34166  10.349   2.101   7.515 -0.5758 -0.2309 -0.3544
  254MOL0     C34167  10.195   2.130   7.509 -0.3484  0.4473 -0.2761
  254MOL0     C34168  10.110   2.007   7.526  0.7712  0.5942 -0.0343
  254MOL0     C34169   9.961   2.045   7.529  0.5334  0.9612 -0.3719
  254MOL0     C34170   9.911   2.092   7.396 -0.2416 -0.1697 -0.0225
  254MOL0     C34171   9.754   2.109   7.402 -0.1029  0.9291  0.2881
  254MOL0     N34172   9.686   1.975   7.422  0.5101 -0.4360 -0.3473
  254MOL0     C34173   9.597   1.927   7.327 -0.0994  0.0870  1.6021
  254MOL0     C34174   9.503   1.853   7.392  0.1097 -0.1321 -0.8245
  254MOL0     C34175   9.371   1.798   7.335  0.0073  0.0988 -0.3358
  254MOL0     C34176   9.263   1.912   7.322 -0.5850 -0.2008 -0.6672
  254MOL0     C34177   9.128   1.845   7.288 -0.1414 -0.4991  0.2827
  254MOL0     C34178   9.020   1.946   7.318  0.2325 -0.8018 -0.1450
  254MOL0     O34179   8.900   1.899   7.258 -0.6270  0.1449  0.2456
  254MOL0     C34180   8.807   1.989   7.215 -1.0730 -0.0063  0.2539
  254MOL0     C34181   8.789   2.118   7.271 -0.9925  0.5881 -0.2710
  254MOL0     C34182   8.679   2.202   7.241  0.6990 -0.6657 -0.4035
  254MOL0     C34183   8.695   2.348   7.297 -0.2911  0.5179  0.0081
  254MOL0     C34184   8.577   2.156   7.161  0.3768  0.4410  0.6233
  254MOL0     C34185   8.455   2.229   7.117  0.4204 -0.1306 -0.3001
  254MOL0     O34186   8.472   2.370   7.109 -0.0224 -0.0201 -0.9053
  254MOL0     C34187   8.375   2.463   7.075  0.0139  0.1367  0.6518
  254MOL0     C34188   8.258   2.430   6.992  0.7702 -0.5115 -0.1139
  254MOL0     C34189   8.194   2.545   6.931 -0.0952  0.2723 -0.3168
  254MOL0     C34190   8.230   2.677   6.961 -0.4735  0.1367  0.4821
  254MOL0     O34191   8.143   2.775   6.923 -0.4078 -0.5570  0.1417
  254MOL0     C34192   8.213   2.878   6.850  0.0531  0.0247  0.9583
  254MOL0     C34193   8.132   2.944   6.732  0.5012  0.6451  0.7676
  254MOL0     C34194   8.224   3.020   6.639  0.5509 -0.4124  0.4218
  254MOL0     C34195   8.276   3.150   6.695 -0.4445  0.1396  0.6269
  254MOL0     C34196   8.338   3.246   6.590 -0.4423 -0.1926  0.4366
  254MOL0     C34197   8.486   3.210   6.577  0.0696  0.4353 -0.0745
  254MOL0     C34198   8.564   3.289   6.464 -0.0374 -0.0756  1.0671
  254MOL0     C34199   8.702   3.239   6.456 -0.8392  0.2656 -0.0699
  254MOL0    Cl34200   8.788   3.236   6.609  0.2523  0.0187  0.1393
  254MOL0     C34201   8.350   2.705   7.038  0.9641 -0.6111 -0.5459
  254MOL0     C34202   8.414   2.597   7.098  0.1497  0.4455  0.2832
  254MOL0     O34203   8.348   2.168   7.098 -0.9698 -0.3525  0.3789
  254MOL0     C34204   8.594   2.023   7.110  0.6734 -0.4489  0.1710
  254MOL0     C34205   8.702   1.935   7.135  0.1818 -0.9509  0.2778
  254MOL0     N34206   9.546   1.852   7.525  0.1004 -0.5570  0.1666
  254MOL0     N34207   9.654   1.923   7.537 -0.2688 -0.2038 -0.2263
  254MOL0     C34208  10.831   2.246   7.403 -0.2188 -0.7845  0.1237
  254MOL0     C34209  10.971   2.242   7.383  0.3769  0.3511 -0.4737
  254MOL0     C34210  11.391   2.429   7.383  0.9664  0.5914 -0.2230
  254MOL0     C34211  11.457   2.331   7.454  0.5453  0.6931  0.6287
  254MOL0     C34212  11.598   2.341   7.474  0.7340  0.3744 -0.3593
  254MOL0     C34213  11.662   2.451   7.418  0.3417 -0.2913 -1.2364
  254MOL0     O34214  11.793   2.463   7.442  0.0050  0.4873 -0.1695
  254MOL0     C34215  11.826   2.573   7.527 -0.0823  0.3239 -0.4435
  254MOL0     C34216  11.939   2.539   7.625 -0.4018 -0.3441 -0.4102
  254MOL0     C34217  11.888   2.441   7.733 -0.0434  0.1500  0.8646
  254MOL0     C34218  11.783   2.504   7.829 -0.5886 -0.4718  0.3332
  254MOL0     C34219  11.837   2.606   7.923 -0.6247  0.4335 -0.1295
  254MOL0     C34220  11.884   2.697   7.995  0.8268  0.3682  0.5734
  254MOL0     C34221  11.593   2.544   7.344  0.2495 -0.2623  0.3110
  254MOL0     C34222  11.459   2.541   7.330  0.0498 -0.4930  0.6752
  254MOL0     H34223  11.036   2.478   7.626 -1.6380  3.6698 -1.8297
  254MOL0     H34224  10.815   2.452   7.673  1.0002 -1.8920  1.1868
  254MOL0     H34225  10.560   2.201   7.396 -1.7656 -0.1065 -0.4166
  254MOL0     H34226  10.613   2.119   7.527  1.4933  0.3966 -1.0905
  254MOL0     H34227  10.415   2.229   7.659 -0.0297  0.6784  0.8162
  254MOL0     H34228  10.377   2.319   7.504  1.1886  1.9963  1.9874
  254MOL0     H34229  10.376   2.050   7.422 -2.3700 -1.3921 -0.2840
  254MOL0     H34230  10.376   2.023   7.586  0.5228 -0.8240 -1.3893
  254MOL0     H34231  10.176   2.200   7.591  3.3565  0.6907  0.5701
  254MOL0     H34232  10.170   2.177   7.413 -1.4754  0.2415 -0.1024
  254MOL0     H34233  10.118   1.929   7.450  2.7236 -1.2336  1.9343
  254MOL0     H34234  10.124   1.965   7.626 -0.1866 -1.5206 -0.7378
  254MOL0     H34235   9.903   1.958   7.561 -1.2898  2.1828 -0.1768
  254MOL0     H34236   9.942   2.120   7.607 -0.6124  1.7416 -1.3656
  254MOL0     H34237   9.958   2.191   7.392 -0.6206  0.4092  4.6664
  254MOL0     H34238   9.940   2.026   7.314  3.0790 -1.3511  1.9333
  254MOL0     H34239   9.722   2.148   7.305 -1.2389 -0.4382  0.0820
  254MOL0     H34240   9.719   2.185   7.473 -2.8721 -0.8949  1.0551
  254MOL0     H34241   9.600   1.950   7.221 -0.9920 -4.7242  0.2879
  254MOL0     H34242   9.391   1.762   7.233 -1.1366 -1.5756 -0.0035
  254MOL0     H34243   9.340   1.706   7.385 -1.1252  1.2142  1.1102
  254MOL0     H34244   9.289   1.992   7.252 -0.4939 -0.2417 -0.6791
  254MOL0     H34245   9.258   1.962   7.420  1.5397 -2.4307  0.6670
  254MOL0     H34246   9.120   1.766   7.364 -2.5509 -1.1881 -0.5802
  254MOL0     H34247   9.127   1.809   7.185  0.6066 -2.4530  0.9052
  254MOL0     H34248   9.048   2.039   7.268  0.7731  0.2279  1.9875
  254MOL0     H34249   9.006   1.966   7.424 -0.1923  1.2749 -0.5422
  254MOL0     H34250   8.862   2.151   7.344  0.2121 -3.1761  0.4732
  254MOL0     H34251   8.781   2.341   7.365  0.4237  0.9637 -0.8223
  254MOL0     H34252   8.700   2.409   7.206  0.1880  2.4006  1.2592
  254MOL0     H34253   8.610   2.388   7.352 -0.8958 -2.7944  1.7085
  254MOL0     H34254   8.223   2.330   6.969  1.0547 -1.0072  1.4489
  254MOL0     H34255   8.107   2.533   6.868 -0.8989  1.5841  0.5079
  254MOL0     H34256   8.238   2.959   6.919  0.3498  2.6651 -2.0399
  254MOL0     H34257   8.309   2.847   6.808 -0.0033  0.0557  0.8070
  254MOL0     H34258   8.085   2.867   6.670 -0.9946  1.7798  0.4412
  254MOL0     H34259   8.050   3.004   6.772  1.0695  2.3425 -0.4924
  254MOL0     H34260   8.166   3.044   6.550  0.4560 -2.3681 -0.0895
  254MOL0     H34261   8.316   2.971   6.604  0.8009  0.6529 -0.4742
  254MOL0     H34262   8.185   3.196   6.736 -1.5740 -0.8638 -0.6534
  254MOL0     H34263   8.349   3.116   6.769  1.0916 -3.3276 -2.1664
  254MOL0     H34264   8.343   3.352   6.615  5.7289 -0.0503 -0.0825
  254MOL0     H34265   8.288   3.228   6.494  1.3491 -1.1309 -0.3563
  254MOL0     H34266   8.542   3.216   6.670 -0.1627 -0.9908  0.1856
  254MOL0     H34267   8.492   3.102   6.562  2.6550  0.3592  1.1280
  254MOL0     H34268   8.551   3.394   6.493  0.0668  1.1035 -2.6683
  254MOL0     H34269   8.517   3.264   6.369  2.0393 -3.0588  0.6735
  254MOL0     H34270   8.755   3.303   6.385 -0.0640 -1.1560 -0.8101
  254MOL0     H34271   8.697   3.136   6.420  1.8669  0.9204 -2.7086
  254MOL0     H34272   8.380   2.807   7.059  2.2058 -0.9800 -0.4620
  254MOL0     H34273   8.504   2.611   7.157  1.2845  2.4003 -1.6980
  254MOL0     H34274   8.515   1.987   7.045  0.0601 -1.3872  1.4013
  254MOL0     H34275   8.699   1.835   7.092 -2.8756 -0.1425 -1.7164
  254MOL0     H34276  10.769   2.184   7.339  2.1018 -1.0184 -2.0233
  254MOL0     H34277  11.011   2.171   7.312  2.8726  1.2550 -0.0702
  254MOL0     H34278  11.399   2.247   7.489  2.6444 -1.0682  0.0667
  254MOL0     H34279  11.653   2.266   7.530  2.3546  0.7066 -1.4253
  254MOL0     H34280  11.843   2.664   7.468 -1.8706  2.5832  2.2534
  254MOL0     H34281  11.738   2.593   7.589  1.2725  0.6405  1.4735
  254MOL0     H34282  12.003   2.621   7.658  0.8871 -2.0451  1.6429
  254MOL0     H34283  12.003   2.477   7.561 -0.1501 -1.3609  0.7753
  254MOL0     H34284  11.966   2.400   7.797 -1.0370 -3.5984 -0.1076
  254MOL0     H34285  11.846   2.356   7.680 -0.8610  0.5859  0.7940
  254MOL0     H34286  11.725   2.427   7.880  0.4346 -1.7932 -0.3998
  254MOL0     H34287  11.701   2.547   7.771  0.2330 -1.0844 -1.3742
  254MOL0     H34288  11.917   2.770   8.066  2.4276  1.1340 -0.8767
  254MOL0     H34289  11.647   2.623   7.292 -1.6512  2.4511  2.1813
  254MOL0     H34290  11.402   2.611   7.270  0.2001 -0.7895  0.1855
  255MOL0     O34291   4.177   9.482   2.370 -0.0216  0.8291  1.2689
  255MOL0     C34292   4.186   9.419   2.258 -0.1643  0.0886 -0.6428
  255MOL0     O34293   4.291   9.415   2.175 -0.1158  0.3507 -0.6186
  255MOL0     C34294   4.410   9.476   2.217 -0.3472  0.8934 -0.4928
  255MOL0     C34295   4.453   9.588   2.146  0.7611  0.8175  0.1166
  255MOL0     C34296   4.574   9.648   2.178 -0.2783 -0.2895  0.3470
  255MOL0     C34297   4.641   9.601   2.297  0.4573  0.5432 -0.8475
  255MOL0     O34298   4.761   9.644   2.331  0.7562  0.5392  0.5245
  255MOL0     C34299   4.848   9.707   2.236 -0.3793  1.3972  0.2456
  255MOL0     C34300   4.996   9.717   2.266 -0.2740  0.5137 -0.0907
  255MOL0     C34301   5.063   9.575   2.256  0.7760 -0.7661  0.1136
  255MOL0     C34302   5.183   9.564   2.342 -0.0917  0.5583 -0.6979
  255MOL0     C34303   5.301   9.657   2.296 -0.2197 -0.0296 -0.4491
  255MOL0     C34304   5.418   9.608   2.391  0.1449 -0.3563 -0.1269
  255MOL0     C34305   5.484   9.476   2.352  0.2603  0.2269  0.1296
  255MOL0     C34306   5.603   9.448   2.445 -0.2134  0.4276  0.6479
  255MOL0     N34307   5.722   9.469   2.365 -0.5937 -0.1360  0.3136
  255MOL0     C34308   5.800   9.585   2.375  0.2564  0.8851  0.4264
  255MOL0     C34309   5.923   9.551   2.336 -0.8552 -0.6132 -0.1556
  255MOL0     C34310   6.049   9.641   2.332  0.5125 -0.8035 -0.5746
  255MOL0     C34311   6.032   9.781   2.410 -0.1666  0.2189  0.7687
  255MOL0     C34312   6.142   9.872   2.360 -0.6308  0.1792  1.1032
  255MOL0     C34313   6.247   9.895   2.468 -0.6785 -0.2266 -0.3136
  255MOL0     O34314   6.344   9.991   2.433  0.0163  0.2650 -0.5427
  255MOL0     C34315   6.414  10.075   2.518 -0.8759  0.4908  0.0714
  255MOL0     C34316   6.386  10.101   2.648  0.3185 -0.5641  0.9484
  255MOL0     C34317   6.464  10.188   2.727  0.5693  0.2138 -0.9244
  255MOL0     C34318   6.412  10.215   2.872 -0.0489  0.3082  0.1087
  255MOL0     C34319   6.567  10.260   2.663 -0.6958  0.5074 -0.7171
  255MOL0     C34320   6.655  10.345   2.745  0.0924  0.1505  0.1997
  255MOL0     O34321   6.740  10.428   2.670 -0.9716 -0.1830 -0.4412
  255MOL0     C34322   6.831  10.504   2.736  0.0986  0.2812 -0.1803
  255MOL0     C34323   6.787  10.594   2.823  0.3880 -0.7567  0.0659
  255MOL0     C34324   6.875  10.662   2.902  0.3833  0.3239 -1.1126
  255MOL0     C34325   7.009  10.655   2.885 -0.0596 -0.2295 -0.9290
  255MOL0     O34326   7.084  10.733   2.977 -0.0996 -0.3051  0.0182
  255MOL0     C34327   7.228  10.729   2.963 -0.4331 -0.1785  0.0077
  255MOL0     C34328   7.301  10.858   3.015 -0.0146  0.0947  0.2737
  255MOL0     C34329   7.292  10.981   2.933  1.1528  0.6488 -0.0754
  255MOL0     C34330   7.355  11.101   2.988 -0.6861 -0.2920 -0.4128
  255MOL0     C34331   7.358  11.207   2.877  0.4072 -0.4889 -0.2742
  255MOL0     C34332   7.358  11.358   2.920  0.3591 -0.6657  0.1442
  255MOL0     C34333   7.485  11.368   3.004 -0.2998 -0.2606 -1.3733
  255MOL0     C34334   7.514  11.507   3.053  0.2544  1.6217 -0.6300
  255MOL0    Cl34335   7.685  11.528   3.098  0.0241 -0.5415  0.3278
  255MOL0     C34336   7.054  10.558   2.792 -1.4025  0.0371 -0.6246
  255MOL0     C34337   6.963  10.481   2.721  0.8271 -0.3528  0.3410
  255MOL0     O34338   6.676  10.306   2.861  0.1978  1.0240  0.2138
  255MOL0     C34339   6.589  10.238   2.520 -0.2529 -0.1665 -0.2960
  255MOL0     C34340   6.512  10.143   2.451  0.1405 -0.0080  0.0012
  255MOL0     N34341   5.922   9.421   2.295  1.0235 -0.2140  0.5396
  255MOL0     N34342   5.807   9.373   2.314 -0.2010  0.1413  0.1615
  255MOL0     C34343   4.593   9.494   2.377 -0.0666 -0.2419 -0.0585
  255MOL0     C34344   4.488   9.423   2.319  0.4451  0.2688  0.2149
  255MOL0     C34345   4.077   9.338   2.216 -0.2088  0.7826  0.5922
  255MOL0     C34346   4.072   9.280   2.088  0.3814  0.0567  0.2793
  255MOL0     C34347   3.964   9.202   2.056 -1.1603  0.2682  0.4155
  255MOL0     C34348   3.863   9.170   2.146 -0.6028 -0.4503 -0.4361
  255MOL0     O34349   3.764   9.092   2.101  0.4876 -0.5805 -0.0578
  255MOL0     C34350   3.667   9.045   2.196  0.0134 -0.4105  0.1703
  255MOL0     C34351   3.582   8.951   2.116  0.0825  0.1488  0.1425
  255MOL0     C34352   3.533   8.985   1.975 -0.0210 -0.6300 -0.4505
  255MOL0     C34353   3.467   8.862   1.915 -0.2930  0.8702  0.9550
  255MOL0     C34354   3.339   8.845   1.976 -0.5434 -0.0564 -0.2860
  255MOL0     C34355   3.248   8.808   2.048 -0.1926  0.3357  0.4628
  255MOL0     C34356   3.868   9.219   2.278 -1.9421  0.3266  0.2851
  255MOL0     C34357   3.972   9.309   2.311 -0.0929  0.6710  0.5278
  255MOL0     H34358   4.387   9.631   2.072  0.9805  1.4101  0.2521
  255MOL0     H34359   4.616   9.736   2.131  2.2538 -1.6919 -0.1799
  255MOL0     H34360   4.851   9.650   2.143  3.5318 -1.4721  1.8548
  255MOL0     H34361   4.816   9.810   2.216 -0.2370  1.4900  0.4857
  255MOL0     H34362   5.053   9.775   2.192  1.6211  0.3010  1.1348
  255MOL0     H34363   5.009   9.760   2.365  0.1457 -0.7977  0.4525
  255MOL0     H34364   4.984   9.502   2.274  1.2898 -2.4584 -3.5154
  255MOL0     H34365   5.089   9.567   2.150 -0.1265 -0.1781 -0.1561
  255MOL0     H34366   5.161   9.602   2.442  3.3196 -0.9815  0.8411
  255MOL0     H34367   5.217   9.460   2.335  0.4192  0.5516  1.2173
  255MOL0     H34368   5.314   9.668   2.188  1.2160 -0.8343 -0.3905
  255MOL0     H34369   5.277   9.760   2.325 -0.2770 -0.3185  0.5556
  255MOL0     H34370   5.503   9.675   2.402  0.9843 -1.6037  1.4427
  255MOL0     H34371   5.378   9.596   2.492 -0.7770 -0.3351 -0.4716
  255MOL0     H34372   5.413   9.394   2.369  1.9584 -0.8995  2.1828
  255MOL0     H34373   5.509   9.474   2.245  1.9386 -0.2036  0.5133
  255MOL0     H34374   5.615   9.345   2.481 -0.6595 -0.4640 -1.6161
  255MOL0     H34375   5.602   9.508   2.537 -0.3838  0.0107  0.9227
  255MOL0     H34376   5.760   9.675   2.420  1.9846  1.9890 -0.1490
  255MOL0     H34377   6.135   9.583   2.367  0.9411  1.1276  1.8484
  255MOL0     H34378   6.059   9.670   2.227 -3.0718  2.1140 -0.3115
  255MOL0     H34379   6.026   9.787   2.519 -3.2584  0.0230  0.6964
  255MOL0     H34380   5.943   9.836   2.378 -1.4414 -0.4394  2.9764
  255MOL0     H34381   6.102   9.972   2.338  1.4596  1.5073  2.9613
  255MOL0     H34382   6.177   9.830   2.265  0.4029  0.6518  1.2647
  255MOL0     H34383   6.296   9.802   2.495 -0.5702 -0.2370 -0.5415
  255MOL0     H34384   6.190   9.915   2.559 -0.7636 -0.1282 -0.3879
  255MOL0     H34385   6.295  10.058   2.689  0.2151  0.7354  2.1825
  255MOL0     H34386   6.312  10.171   2.872 -0.4079  1.1036  0.7607
  255MOL0     H34387   6.491  10.165   2.927  1.8029  3.1428  0.2176
  255MOL0     H34388   6.408  10.322   2.895 -0.2256  0.7090 -1.6235
  255MOL0     H34389   6.682  10.620   2.825  0.4802 -0.2796 -0.7578
  255MOL0     H34390   6.841  10.745   2.964 -0.9611 -1.3025  0.4449
  255MOL0     H34391   7.273  10.650   3.022 -0.0098  1.0694  1.4058
  255MOL0     H34392   7.256  10.721   2.857 -1.8460  0.4046 -0.4455
  255MOL0     H34393   7.254  10.870   3.113  0.3590  2.1776  0.2252
  255MOL0     H34394   7.407  10.839   3.029  0.9347  2.1849 -3.0290
  255MOL0     H34395   7.183  10.993   2.929  0.0083 -5.1368  2.7910
  255MOL0     H34396   7.330  10.969   2.831 -1.0118 -0.2963 -0.8297
  255MOL0     H34397   7.298  11.138   3.074  0.4134 -0.1054  0.2608
  255MOL0     H34398   7.456  11.078   3.024 -1.1512  1.0129  1.9822
  255MOL0     H34399   7.266  11.191   2.820  2.0180 -4.3082 -2.1421
  255MOL0     H34400   7.437  11.196   2.802 -0.6167  1.3785 -1.7178
  255MOL0     H34401   7.356  11.429   2.836  0.2556  2.6581  2.7270
  255MOL0     H34402   7.274  11.383   2.986  0.9937 -0.0591  0.7293
  255MOL0     H34403   7.567  11.333   2.940  1.2385 -0.6146  0.6986
  255MOL0     H34404   7.485  11.307   3.095 -0.5374  1.5795 -0.0788
  255MOL0     H34405   7.453  11.531   3.141 -1.0022 -1.1315 -0.6786
  255MOL0     H34406   7.502  11.587   2.979  1.5362  2.6702  0.2391
  255MOL0     H34407   7.157  10.534   2.768 -0.7490  2.0336  0.0107
  255MOL0     H34408   7.003  10.395   2.666  0.2417 -2.1817  2.6263
  255MOL0     H34409   6.666  10.294   2.468  1.4799  0.5073  2.7628
  255MOL0     H34410   6.541  10.128   2.348  0.9858 -1.1321  0.3802
  255MOL0     H34411   4.650   9.456   2.461 -0.1832  0.9262  0.5717
  255MOL0     H34412   4.451   9.330   2.362 -3.2063  0.7283 -1.5501
  255MOL0     H34413   4.139   9.297   2.005 -0.7085  0.5036 -0.5291
  255MOL0     H34414   3.953   9.164   1.955 -1.8799 -3.1008  1.6031
  255MOL0     H34415   3.709   8.990   2.281 -2.8012 -1.7836  0.7730
  255MOL0     H34416   3.600   9.123   2.233 -0.6566 -1.6515  1.6701
  255MOL0     H34417   3.501   8.907   2.176  1.3892 -0.0359  1.8306
  255MOL0     H34418   3.650   8.865   2.108 -1.6979 -1.7923  3.6170
  255MOL0     H34419   3.614   9.015   1.908 -0.4968  0.8283 -0.3927
  255MOL0     H34420   3.465   9.070   1.984  1.5412  1.1697 -3.7332
  255MOL0     H34421   3.523   8.771   1.940  1.6781  1.9350  0.6284
  255MOL0     H34422   3.464   8.864   1.806  0.9871  1.0905  0.9091
  255MOL0     H34423   3.166   8.759   2.097 -1.2548 -1.3402 -2.7189
  255MOL0     H34424   3.789   9.193   2.348  0.0540  2.5935  3.7199
  255MOL0     H34425   3.972   9.354   2.410 -0.1173 -0.4768  1.0629
  256MOL0     O34426  10.631   9.682   9.452 -0.4314 -0.0035 -0.6537
  256MOL0     C34427  10.634   9.650   9.339 -0.6697  0.0959  0.4477
  256MOL0     O34428  10.539   9.584   9.274 -0.5758 -0.9419  0.2226
  256MOL0     C34429  10.420   9.547   9.324 -0.5053 -0.3709 -0.1757
  256MOL0     C34430  10.305   9.571   9.245  0.2276  0.4616 -0.1709
  256MOL0     C34431  10.179   9.543   9.290 -0.2920 -0.1458  0.4523
  256MOL0     C34432  10.160   9.481   9.414  0.5999 -0.8488  0.3961
  256MOL0     O34433  10.035   9.432   9.434  0.2610 -0.0055 -0.5177
  256MOL0     C34434  10.009   9.374   9.567  0.9483  0.3083  0.0364
  256MOL0     C34435   9.862   9.357   9.580  1.0548  0.5851  0.6918
  256MOL0     C34436   9.810   9.295   9.712 -0.2344  0.1322  0.5140
  256MOL0     C34437   9.656   9.291   9.736  0.4626  0.2120 -0.8070
  256MOL0     C34438   9.574   9.197   9.646 -0.1860  0.0498  0.8132
  256MOL0     C34439   9.522   9.258   9.517 -1.1312 -0.3387 -0.7220
  256MOL0     C34440   9.490   9.164   9.410 -0.2325 -0.0821  0.2647
  256MOL0     C34441   9.382   9.047   9.441 -0.0062  0.5386  0.8958
  256MOL0     N34442   9.295   9.031   9.320 -0.5886  0.1361 -0.1895
  256MOL0     C34443   9.300   8.920   9.240 -0.2131 -0.6383  0.3523
  256MOL0     C34444   9.180   8.918   9.177  0.2664  0.1485 -0.3357
  256MOL0     C34445   9.134   8.827   9.066 -0.0846  0.2105 -0.0634
  256MOL0     C34446   9.011   8.745   9.066 -0.2350 -1.1167 -0.6403
  256MOL0     C34447   8.982   8.653   8.948  0.6637 -0.3910  0.5211
  256MOL0     C34448   8.971   8.730   8.809 -0.5274 -0.2689  0.3356
  256MOL0     O34449   8.947   8.644   8.699 -0.1200  0.1743  0.6102
  256MOL0     C34450   8.829   8.584   8.683 -0.4559  0.4816  0.6125
  256MOL0     C34451   8.839   8.468   8.602 -0.3310 -0.8955 -1.5159
  256MOL0     C34452   8.724   8.402   8.560  0.0397  0.5865  0.0561
  256MOL0     C34453   8.747   8.269   8.491 -0.1255 -0.1678 -0.2037
  256MOL0     C34454   8.592   8.464   8.581  0.1513  0.5103 -0.0755
  256MOL0     C34455   8.467   8.394   8.539  0.6996  0.1654  0.2790
  256MOL0     O34456   8.345   8.450   8.574  0.0792  0.1272  0.2106
  256MOL0     C34457   8.235   8.423   8.500  0.7526  0.3716  0.3779
  256MOL0     C34458   8.180   8.290   8.500 -0.4320 -0.0767 -0.3334
  256MOL0     C34459   8.074   8.257   8.423  0.7762  0.4445  0.0973
  256MOL0     C34460   8.008   8.360   8.339  0.0589  0.5207 -0.3963
  256MOL0     O34461   7.910   8.317   8.250  0.0679 -0.6739  0.3169
  256MOL0     C34462   7.871   8.416   8.158  0.2021  0.0801  0.6758
  256MOL0     C34463   7.781   8.368   8.047 -0.0040  0.0437  0.7083
  256MOL0     C34464   7.749   8.484   7.949 -0.0905 -1.3063  0.0387
  256MOL0     C34465   7.677   8.431   7.825  0.3516  0.5051 -0.1778
  256MOL0     C34466   7.616   8.556   7.756 -0.4216  0.8324 -0.5993
  256MOL0     C34467   7.532   8.508   7.630 -0.3064  0.0957 -0.5156
  256MOL0     C34468   7.473   8.633   7.567 -0.6228  0.1855  0.2473
  256MOL0     C34469   7.403   8.597   7.445  0.2739  0.7523  0.5052
  256MOL0    Cl34470   7.298   8.731   7.396  0.0133  0.0875  0.5398
  256MOL0     C34471   8.053   8.497   8.354 -0.5608  0.3416  0.3130
  256MOL0     C34472   8.173   8.527   8.434 -0.1867  0.6338 -0.5934
  256MOL0     O34473   8.472   8.288   8.480 -0.9591  0.2559 -0.3607
  256MOL0     C34474   8.584   8.584   8.655  0.7150  0.5348 -0.5398
  256MOL0     C34475   8.704   8.629   8.722  0.4669  0.7749  0.1737
  256MOL0     N34476   9.116   9.039   9.209 -0.2136  0.5666  0.6438
  256MOL0     N34477   9.190   9.101   9.300  0.0867  0.3392 -0.4303
  256MOL0     C34478  10.274   9.460   9.500 -1.2026 -0.7755 -0.5449
  256MOL0     C34479  10.403   9.497   9.449 -0.4043  0.9965 -0.4159
  256MOL0     C34480  10.760   9.675   9.265 -0.2859  0.4038 -0.3093
  256MOL0     C34481  10.805   9.585   9.155  0.6954  0.2874  1.2538
  256MOL0     C34482  10.918   9.611   9.076 -0.1782  0.7018 -0.3657
  256MOL0     C34483  11.001   9.720   9.112 -0.4138  0.3774 -0.4366
  256MOL0     O34484  11.109   9.732   9.036 -0.1170 -0.2157  0.2390
  256MOL0     C34485  11.203   9.844   9.063  0.4858 -0.0878 -0.2596
  256MOL0     C34486  11.141   9.968   9.001 -0.3176 -0.6256  1.9417
  256MOL0     C34487  11.240  10.090   8.991 -0.5383  0.9263  0.5497
  256MOL0     C34488  11.267  10.158   9.129  0.3566 -0.2408 -0.1466
  256MOL0     C34489  11.369  10.088   9.212 -0.9787  0.4484  0.6782
  256MOL0     C34490  11.470  10.056   9.276 -0.0169 -0.2763 -0.6027
  256MOL0     C34491  10.953   9.811   9.215  0.1660  0.6205 -0.9213
  256MOL0     C34492  10.841   9.791   9.294 -0.2212  0.2272 -0.0808
  256MOL0     H34493  10.301   9.632   9.155  0.3162  4.7375  2.4104
  256MOL0     H34494  10.098   9.579   9.227  1.1532  2.2624 -0.1543
  256MOL0     H34495  10.048   9.272   9.560  1.9903  0.6579  0.5110
  256MOL0     H34496  10.052   9.435   9.647  1.0303 -1.0660  1.0882
  256MOL0     H34497   9.818   9.457   9.579 -1.9012 -0.6372  0.0488
  256MOL0     H34498   9.833   9.309   9.486  1.8083  0.5064  0.4883
  256MOL0     H34499   9.837   9.190   9.723 -3.3991 -0.6808  1.6750
  256MOL0     H34500   9.858   9.354   9.791  2.1276 -0.6304 -0.2734
  256MOL0     H34501   9.629   9.262   9.838 -1.6848  3.3148 -0.3317
  256MOL0     H34502   9.615   9.393   9.731  0.3626  0.2321  0.2317
  256MOL0     H34503   9.638   9.112   9.621  1.3311  1.8116 -1.9153
  256MOL0     H34504   9.486   9.161   9.699 -0.1468 -1.2626  0.0334
  256MOL0     H34505   9.429   9.309   9.542  1.2341  3.6774  0.7840
  256MOL0     H34506   9.599   9.332   9.491  0.4766 -1.3013  0.9798
  256MOL0     H34507   9.450   9.223   9.326  1.9482  2.1417  0.6515
  256MOL0     H34508   9.585   9.126   9.370  1.1660  1.5040  1.8725
  256MOL0     H34509   9.303   9.074   9.511 -1.4202  1.1937 -0.8833
  256MOL0     H34510   9.430   8.953   9.472 -0.0940  0.9754  2.4222
  256MOL0     H34511   9.387   8.858   9.224  0.9034  1.2050 -1.1291
  256MOL0     H34512   9.142   8.887   8.975  2.5196 -0.5819 -0.4498
  256MOL0     H34513   9.209   8.749   9.049 -1.7775 -1.4107 -0.4084
  256MOL0     H34514   8.920   8.805   9.060  1.5734  2.1004  1.4410
  256MOL0     H34515   9.016   8.681   9.155  1.1171 -1.2027 -0.7575
  256MOL0     H34516   8.892   8.594   8.968  1.1549 -2.2083 -2.2037
  256MOL0     H34517   9.063   8.580   8.935  0.6188 -0.3811  0.1927
  256MOL0     H34518   9.056   8.797   8.793 -0.7292  0.3385  1.6910
  256MOL0     H34519   8.888   8.802   8.809  0.9454  1.5588  2.2128
  256MOL0     H34520   8.942   8.438   8.587  0.4019  0.3647  0.5051
  256MOL0     H34521   8.679   8.192   8.528 -0.2534  0.5306  1.0821
  256MOL0     H34522   8.758   8.281   8.383 -1.8288 -2.3426 -0.7000
  256MOL0     H34523   8.844   8.236   8.531 -1.5097 -0.7599  2.9005
  256MOL0     H34524   8.229   8.211   8.557 -1.6315 -1.2019 -0.8146
  256MOL0     H34525   8.047   8.152   8.426 -2.2742  1.0937  4.0945
  256MOL0     H34526   7.816   8.489   8.219 -3.5180 -0.8446 -1.2648
  256MOL0     H34527   7.958   8.466   8.115 -0.9950  2.8292  1.2569
  256MOL0     H34528   7.839   8.298   7.985  0.1686  2.4815 -2.1441
  256MOL0     H34529   7.698   8.310   8.087  1.3768 -2.4549  0.1747
  256MOL0     H34530   7.844   8.526   7.915  0.9577 -3.3311  0.2838
  256MOL0     H34531   7.693   8.562   8.001 -2.4274 -1.0829 -2.5724
  256MOL0     H34532   7.743   8.376   7.758  0.2801  2.1138 -1.6703
  256MOL0     H34533   7.600   8.362   7.861 -1.1370  1.6704 -0.9766
  256MOL0     H34534   7.700   8.623   7.735  0.7511 -1.0756 -2.2634
  256MOL0     H34535   7.553   8.616   7.823 -0.0741  3.1578 -2.2255
  256MOL0     H34536   7.594   8.455   7.557  0.2799  0.7113 -0.4764
  256MOL0     H34537   7.449   8.443   7.655 -0.6019 -0.7398 -3.3025
  256MOL0     H34538   7.547   8.713   7.554  0.0074 -0.5011 -0.4891
  256MOL0     H34539   7.395   8.669   7.636 -0.6627 -1.7936  1.2978
  256MOL0     H34540   7.344   8.506   7.459 -0.3108  0.2167 -3.9289
  256MOL0     H34541   7.476   8.559   7.374 -0.6625 -0.8361  0.3342
  256MOL0     H34542   8.006   8.575   8.297 -0.9126 -0.7197 -0.8978
  256MOL0     H34543   8.210   8.628   8.425 -1.2474  0.9319 -2.0777
  256MOL0     H34544   8.488   8.627   8.680  0.2823 -1.8545  2.6898
  256MOL0     H34545   8.700   8.711   8.793 -0.1098 -0.7268  1.9699
  256MOL0     H34546  10.268   9.405   9.593  0.3329  1.8042  1.2007
  256MOL0     H34547  10.490   9.471   9.508 -1.1389  1.1877  0.7887
  256MOL0     H34548  10.746   9.498   9.130  2.7994 -1.0762  0.7932
  256MOL0     H34549  10.947   9.546   8.994 -2.1971 -0.4973 -0.1834
  256MOL0     H34550  11.221   9.867   9.168 -1.6700 -1.9493  0.6039
  256MOL0     H34551  11.296   9.818   9.011 -1.4509 -0.9133 -3.6024
  256MOL0     H34552  11.055   9.998   9.062 -1.6546 -0.5652  0.0955
  256MOL0     H34553  11.116   9.937   8.900  0.6517 -0.3044  1.5922
  256MOL0     H34554  11.183  10.162   8.932  0.2903 -0.8459 -2.6858
  256MOL0     H34555  11.333  10.081   8.934  1.9915  1.1611  4.3162
  256MOL0     H34556  11.174  10.160   9.187  0.1392 -0.6067 -0.4768
  256MOL0     H34557  11.308  10.258   9.112  2.6073 -0.8721  1.0710
  256MOL0     H34558  11.560  10.034   9.331 -0.7973  1.3170  1.4725
  256MOL0     H34559  11.006   9.898   9.252 -1.5129  0.8135  1.1819
  256MOL0     H34560  10.825   9.842   9.388 -3.0924  1.7254 -1.2679
  257MOL0     O34561   3.482   3.726   4.923  0.4512  0.4792  0.4766
  257MOL0     C34562   3.576   3.799   4.931 -0.9026  0.2122  0.8394
  257MOL0     O34563   3.585   3.918   4.873  0.3989 -0.2399  0.3737
  257MOL0     C34564   3.467   3.972   4.821 -0.4341  0.0957 -0.3623
  257MOL0     C34565   3.370   4.028   4.911 -0.3163  0.3090  0.8482
  257MOL0     C34566   3.261   4.100   4.861 -0.7221  0.1085  0.3322
  257MOL0     C34567   3.235   4.111   4.721  0.7155  0.2897  0.0271
  257MOL0     O34568   3.120   4.172   4.681 -0.3171  0.5908 -0.3704
  257MOL0     C34569   3.102   4.193   4.544  0.3763 -0.5175  0.2237
  257MOL0     C34570   2.972   4.259   4.522 -0.3307  0.8294  0.0638
  257MOL0     C34571   2.862   4.154   4.559 -0.0372 -0.0338 -0.1790
  257MOL0     C34572   2.826   4.042   4.451  0.1909 -0.5308  0.1952
  257MOL0     C34573   2.709   3.960   4.514 -0.0081  0.6274  0.1645
  257MOL0     C34574   2.644   3.864   4.418  0.3336 -1.4284  0.0175
  257MOL0     C34575   2.502   3.828   4.461  0.2639  0.3219 -0.2468
  257MOL0     C34576   2.500   3.723   4.573  0.1211 -0.1152  1.0662
  257MOL0     N34577   2.434   3.602   4.538  0.0256 -0.3146 -0.4928
  257MOL0     C34578   2.303   3.581   4.561  0.3336  0.0708  0.1521
  257MOL0     C34579   2.289   3.447   4.569 -0.7049 -0.3932 -0.3005
  257MOL0     C34580   2.169   3.367   4.618  1.1254 -0.0770  0.2391
  257MOL0     C34581   2.037   3.381   4.533  1.0257 -0.0894 -0.6476
  257MOL0     C34582   1.925   3.297   4.595 -0.3058  0.4516 -0.0443
  257MOL0     C34583   1.803   3.282   4.499  0.2284  0.4666 -0.8461
  257MOL0     O34584   1.839   3.176   4.416 -0.1896  0.5659 -0.3274
  257MOL0     C34585   1.729   3.096   4.386  0.3552  0.3841  0.4961
  257MOL0     C34586   1.615   3.139   4.307 -0.1700 -0.5512 -1.1883
  257MOL0     C34587   1.514   3.054   4.258 -0.3960 -0.4606  0.2778
  257MOL0     C34588   1.430   3.122   4.157  0.4339  0.4593 -0.0380
  257MOL0     C34589   1.513   2.920   4.297 -0.3135  0.5257  0.1876
  257MOL0     C34590   1.411   2.818   4.259  0.2584 -0.5518  0.2933
  257MOL0     O34591   1.304   2.870   4.196  0.4989  0.8539 -0.0122
  257MOL0     C34592   1.220   2.784   4.134  0.6834  0.7995  0.6450
  257MOL0     C34593   1.226   2.759   3.995 -0.1169  0.3454  0.5425
  257MOL0     C34594   1.128   2.678   3.933 -0.5012  0.3107  0.0885
  257MOL0     C34595   1.022   2.627   4.011  0.4776  1.3440 -0.5458
  257MOL0     O34596   0.911   2.571   3.965  0.0198  0.1340  0.3266
  257MOL0     C34597   0.922   2.486   3.856 -0.0309  0.4448  0.2153
  257MOL0     C34598   0.784   2.413   3.848 -0.7567  0.0821 -0.2967
  257MOL0     C34599   0.791   2.323   3.719 -0.3315  0.6278 -0.3502
  257MOL0     C34600   0.663   2.246   3.716 -0.1710  1.1567 -0.5214
  257MOL0     C34601   0.664   2.141   3.603 -0.2984  0.7252 -1.9940
  257MOL0     C34602   0.542   2.041   3.603  0.6248 -0.3788  0.1602
  257MOL0     C34603   0.533   1.963   3.480  0.1849 -0.2611  0.1846
  257MOL0     C34604   0.400   1.913   3.457  0.0407  0.8872 -0.4987
  257MOL0    Cl34605   0.369   1.783   3.582 -0.0572 -0.0879 -0.0291
  257MOL0     C34606   1.012   2.650   4.150  0.2429 -1.0202  0.4480
  257MOL0     C34607   1.107   2.738   4.210 -0.8009  0.6408  0.0854
  257MOL0     O34608   1.442   2.699   4.264 -0.9974 -0.1446 -0.1988
  257MOL0     C34609   1.615   2.882   4.391 -0.2379 -0.4177  1.4571
  257MOL0     C34610   1.720   2.961   4.435 -0.9834 -0.1796 -0.3349
  257MOL0     N34611   2.415   3.393   4.539  0.1551  0.2275 -0.5788
  257MOL0     N34612   2.504   3.486   4.522 -0.0943 -0.0344 -0.6884
  257MOL0     C34613   3.332   4.058   4.634  0.8506  0.2320 -0.6867
  257MOL0     C34614   3.451   3.996   4.686 -0.4653  0.0450  0.9984
  257MOL0     C34615   3.699   3.743   4.991 -0.2426 -0.2001  0.1016
  257MOL0     C34616   3.719   3.604   4.996  0.3970  0.4238 -1.1497
  257MOL0     C34617   3.840   3.552   5.041 -0.8555  0.5377 -0.4458
  257MOL0     C34618   3.947   3.641   5.082 -0.4190 -0.1181  0.1381
  257MOL0     O34619   4.066   3.580   5.115  0.1334 -0.3065  0.3760
  257MOL0     C34620   4.167   3.650   5.187  0.5060  0.5195 -0.4109
  257MOL0     C34621   4.215   3.552   5.292  0.9144 -0.4386 -0.0620
  257MOL0     C34622   4.250   3.414   5.237  0.6627 -0.9943  0.6931
  257MOL0     C34623   4.364   3.416   5.134 -0.2224  0.4550  0.1035
  257MOL0     C34624   4.479   3.471   5.198 -0.6454  0.8295 -0.0276
  257MOL0     C34625   4.587   3.498   5.257  1.0199 -0.3002  1.0975
  257MOL0     C34626   3.924   3.775   5.076  1.1795  0.4434 -0.6725
  257MOL0     C34627   3.804   3.828   5.032  1.1432 -0.2361  0.4669
  257MOL0     H34628   3.385   4.019   5.018  1.4330  0.5123  0.6633
  257MOL0     H34629   3.195   4.155   4.928 -1.8928 -2.8587  1.8308
  257MOL0     H34630   3.176   4.259   4.498 -0.3770 -0.0667 -0.3767
  257MOL0     H34631   3.105   4.093   4.500  1.2274  0.2007 -1.4386
  257MOL0     H34632   2.968   4.347   4.587 -1.6028  1.4658 -0.8329
  257MOL0     H34633   2.956   4.298   4.421 -0.3742 -1.0368 -0.6981
  257MOL0     H34634   2.871   4.112   4.659 -1.7339  1.0535  0.4698
  257MOL0     H34635   2.765   4.205   4.569  0.6430  0.9443  1.9151
  257MOL0     H34636   2.785   4.093   4.364  1.0382  0.1636  0.1892
  257MOL0     H34637   2.915   3.985   4.425 -0.8869 -1.6229 -1.2744
  257MOL0     H34638   2.742   3.894   4.595  2.1802 -0.5683 -1.6097
  257MOL0     H34639   2.640   4.031   4.560  1.7241  0.8374  2.6232
  257MOL0     H34640   2.645   3.907   4.318 -1.2877 -0.6912  0.2752
  257MOL0     H34641   2.717   3.784   4.411  4.3408  1.8405  0.7501
  257MOL0     H34642   2.444   3.916   4.489  1.7894  1.8300 -1.5800
  257MOL0     H34643   2.466   3.780   4.369  2.1488 -0.0391 -0.8477
  257MOL0     H34644   2.445   3.771   4.654 -0.0797  0.5540  0.5502
  257MOL0     H34645   2.603   3.694   4.598  0.4538 -0.4229 -0.5201
  257MOL0     H34646   2.222   3.647   4.590  2.2493  2.6767 -0.0479
  257MOL0     H34647   2.206   3.266   4.637 -0.0730 -0.6491 -0.3508
  257MOL0     H34648   2.134   3.397   4.717 -1.5149 -2.2040  0.0670
  257MOL0     H34649   2.066   3.365   4.428  2.8666 -2.2089  0.0943
  257MOL0     H34650   2.004   3.482   4.559  0.0510 -0.9315  1.6242
  257MOL0     H34651   1.897   3.340   4.692 -0.1526  0.3465  0.0477
  257MOL0     H34652   1.964   3.196   4.609  1.8696  1.3402  0.9206
  257MOL0     H34653   1.772   3.374   4.448 -0.0719  0.1202 -1.2856
  257MOL0     H34654   1.718   3.258   4.563 -0.7709 -2.4563 -3.0603
  257MOL0     H34655   1.617   3.244   4.283  0.0545 -0.3688 -0.4178
  257MOL0     H34656   1.468   3.219   4.124 -0.6945  0.8680 -0.1937
  257MOL0     H34657   1.413   3.054   4.073 -0.4850  1.3342 -0.5862
  257MOL0     H34658   1.339   3.150   4.212  0.9818  3.5459 -0.5174
  257MOL0     H34659   1.303   2.797   3.928 -0.7784 -0.9390 -1.0210
  257MOL0     H34660   1.142   2.656   3.828  1.1584 -1.8883  0.7128
  257MOL0     H34661   0.929   2.544   3.763  0.4862 -1.0135 -0.6927
  257MOL0     H34662   1.008   2.418   3.862 -0.5792 -0.7260 -3.1890
  257MOL0     H34663   0.772   2.355   3.940 -1.2161 -0.2883 -0.5907
  257MOL0     H34664   0.697   2.479   3.846 -1.8829 -1.3156  0.9038
  257MOL0     H34665   0.878   2.256   3.710 -1.3017 -0.5309 -1.4341
  257MOL0     H34666   0.805   2.397   3.640  0.3118 -0.2526 -1.0932
  257MOL0     H34667   0.667   2.178   3.802  1.1546  1.7076 -0.1111
  257MOL0     H34668   0.575   2.311   3.724  0.5389  2.0982 -0.0769
  257MOL0     H34669   0.760   2.090   3.608 -0.8373 -0.2327 -1.0917
  257MOL0     H34670   0.682   2.205   3.516 -0.3211  1.7805 -1.2521
  257MOL0     H34671   0.557   1.991   3.699  2.2901  2.5011  1.5290
  257MOL0     H34672   0.462   2.116   3.608  0.5775 -0.4516  0.4832
  257MOL0     H34673   0.597   1.875   3.470 -0.5560 -0.9929  1.5691
  257MOL0     H34674   0.547   2.027   3.393 -0.5278  1.6036  1.3684
  257MOL0     H34675   0.384   1.861   3.362  0.0216 -0.5379  0.2630
  257MOL0     H34676   0.339   2.003   3.464  0.5417  1.1987 -0.1524
  257MOL0     H34677   0.931   2.603   4.205 -0.5307 -0.3622 -0.1078
  257MOL0     H34678   1.100   2.750   4.318  0.5909 -1.6604  0.5214
  257MOL0     H34679   1.615   2.781   4.430  0.6599 -1.6634 -1.4553
  257MOL0     H34680   1.802   2.944   4.503  0.2095  0.5585 -1.5318
  257MOL0     H34681   3.316   4.069   4.527  2.3462 -1.6650 -1.1584
  257MOL0     H34682   3.537   3.976   4.623 -0.3063  0.0319  1.2196
  257MOL0     H34683   3.654   3.527   4.956  0.8740 -0.9737  0.6302
  257MOL0     H34684   3.855   3.444   5.038 -3.9019 -0.0222  1.0023
  257MOL0     H34685   4.250   3.667   5.118 -0.7549  2.0555 -1.6432
  257MOL0     H34686   4.139   3.747   5.229 -0.6874  0.4506 -1.0077
  257MOL0     H34687   4.140   3.547   5.372  0.4187 -1.3145 -0.5724
  257MOL0     H34688   4.311   3.581   5.336  0.4004  0.3259  0.5998
  257MOL0     H34689   4.163   3.365   5.191  0.2807  0.9719 -0.8098
  257MOL0     H34690   4.288   3.352   5.319  2.3091 -0.8316  0.0970
  257MOL0     H34691   4.342   3.476   5.046 -0.4116 -0.6535 -0.6192
  257MOL0     H34692   4.385   3.314   5.099 -0.5810 -0.5778  2.6747
  257MOL0     H34693   4.681   3.527   5.300  1.7114  2.7917 -2.0036
  257MOL0     H34694   4.005   3.843   5.101  0.3970  0.9356  0.6706
  257MOL0     H34695   3.800   3.935   5.048  0.8541 -0.1921  0.1050
  258MOL0     O34696   2.153   4.798  11.008  1.1559 -0.3064 -0.3499
  258MOL0     C34697   2.230   4.855  10.935 -0.1168  0.7816  0.5419
  258MOL0     O34698   2.221   4.857  10.798  0.1563 -0.0381  0.1295
  258MOL0     C34699   2.124   4.799  10.724 -0.3013  0.4518 -0.2896
  258MOL0     C34700   1.995   4.771  10.774  0.3186 -0.5055 -0.0689
  258MOL0     C34701   1.885   4.717  10.697  0.4630  0.5690 -0.7111
  258MOL0     C34702   1.901   4.708  10.559 -0.0552  0.6689  0.5393
  258MOL0     O34703   1.797   4.668  10.477  0.8797  0.2584  0.3179
  258MOL0     C34704   1.841   4.555  10.395  0.1987 -0.5973  0.1300
  258MOL0     C34705   1.718   4.458  10.355  0.5160 -1.5110  0.3858
  258MOL0     C34706   1.620   4.526  10.257  0.2028  0.5862 -0.4487
  258MOL0     C34707   1.478   4.465  10.254  0.3655 -0.1790 -0.7855
  258MOL0     C34708   1.381   4.552  10.180  0.5339 -0.1690  0.4152
  258MOL0     C34709   1.384   4.534  10.031 -0.1315  0.5272 -0.6581
  258MOL0     C34710   1.269   4.607   9.965 -0.3205 -0.0178 -0.3026
  258MOL0     C34711   1.279   4.588   9.815 -0.9495 -0.6618 -0.2159
  258MOL0     N34712   1.152   4.550   9.752 -0.0109  0.4765 -0.9182
  258MOL0     C34713   1.095   4.427   9.763  1.2804  1.1297  0.2936
  258MOL0     C34714   0.983   4.416   9.681 -0.1567  0.3700  0.9187
  258MOL0     C34715   0.874   4.321   9.667 -0.5077  0.0463  0.5376
  258MOL0     C34716   0.791   4.329   9.796 -0.0687 -0.3436 -0.3310
  258MOL0     C34717   0.702   4.455   9.806  0.0605  0.4686 -0.3664
  258MOL0     C34718   0.637   4.465   9.940 -0.0952 -0.0578 -0.5293
  258MOL0     O34719   0.545   4.356   9.960 -0.7183  0.0812  0.9656
  258MOL0     C34720   0.435   4.371  10.048 -1.1265 -0.2673  0.4641
  258MOL0     C34721   0.457   4.440  10.167  0.3173  0.3283 -0.1516
  258MOL0     C34722   0.357   4.459  10.267 -0.0014 -0.5341 -0.5767
  258MOL0     C34723   0.397   4.524  10.402  0.5441 -0.1526 -0.9526
  258MOL0     C34724   0.225   4.402  10.246 -0.3414 -1.2167  1.3327
  258MOL0     C34725   0.118   4.402  10.348  0.0411  0.5417  0.9512
  258MOL0     O34726   0.147   4.357  10.475 -0.1046 -0.1300 -0.1244
  258MOL0     C34727   0.039   4.350  10.565  0.7763  0.5952 -0.0673
  258MOL0     C34728  -0.010   4.466  10.623  0.4279  0.0020 -0.1111
  258MOL0     C34729  -0.094   4.459  10.726 -0.1158 -0.5194  0.1627
  258MOL0     C34730  -0.158   4.344  10.772 -0.3761  1.0365  1.2223
  258MOL0     O34731  -0.247   4.334  10.871  0.5749 -0.7874 -0.0817
  258MOL0     C34732  -0.245   4.428  10.984  1.0747 -0.4235 -0.2796
  258MOL0     C34733  -0.302   4.366  11.105 -0.9851 -0.5708  0.2073
  258MOL0     C34734  -0.287   4.476  11.214  0.4824 -0.5540 -0.9628
  258MOL0     C34735  -0.341   4.410  11.349  0.0293 -0.5097  0.2153
  258MOL0     C34736  -0.287   4.487  11.478 -0.3533  0.1089 -0.3114
  258MOL0     C34737  -0.132   4.483  11.493  0.0804 -0.1566  0.8539
  258MOL0     C34738  -0.088   4.577  11.599 -1.0834  0.2927  0.1410
  258MOL0     C34739   0.064   4.619  11.582 -0.4358 -0.8263 -0.0514
  258MOL0    Cl34740   0.172   4.480  11.578  0.2206  0.0150  0.0293
  258MOL0     C34741  -0.109   4.225  10.706 -0.4352 -0.0096 -1.1492
  258MOL0     C34742  -0.012   4.229  10.609 -0.4750  0.3849 -0.7811
  258MOL0     O34743   0.012   4.441  10.302 -0.3942  0.0276  0.0221
  258MOL0     C34744   0.209   4.331  10.125  0.0924 -0.2129  0.1148
  258MOL0     C34745   0.316   4.317  10.023  0.2631 -0.7677  1.0687
  258MOL0     N34746   0.979   4.546   9.626  0.0846  0.2096  0.6674
  258MOL0     N34747   1.076   4.623   9.667  0.3016  1.0632  0.7702
  258MOL0     C34748   2.033   4.740  10.512  0.4544 -0.2628  0.1302
  258MOL0     C34749   2.140   4.783  10.588  0.2325  0.1923 -0.5573
  258MOL0     C34750   2.341   4.927  11.000 -0.2476 -0.6678 -0.5014
  258MOL0     C34751   2.384   5.050  10.947 -0.4497  0.0086  0.6519
  258MOL0     C34752   2.469   5.134  11.015  0.4392  0.4911 -0.2306
  258MOL0     C34753   2.522   5.097  11.141 -0.1550 -0.9523  0.9109
  258MOL0     O34754   2.598   5.194  11.201 -0.3693  0.3379 -0.0109
  258MOL0     C34755   2.572   5.220  11.342  0.3840  0.1094 -0.0160
  258MOL0     C34756   2.702   5.184  11.426  0.0086 -0.5042 -0.5669
  258MOL0     C34757   2.822   5.253  11.368  0.3053 -0.0877  0.1397
  258MOL0     C34758   2.946   5.251  11.454  0.0541 -0.4353  0.3130
  258MOL0     C34759   3.061   5.324  11.386 -0.3556  0.2146  0.0010
  258MOL0     C34760   3.150   5.401  11.350 -0.7602 -0.4635  0.7272
  258MOL0     C34761   2.483   4.971  11.188 -0.1497 -0.0464 -0.0519
  258MOL0     C34762   2.392   4.889  11.125  0.0641 -0.0278  0.3919
  258MOL0     H34763   1.959   4.792  10.874  1.4592 -0.8998  0.4334
  258MOL0     H34764   1.786   4.700  10.740  0.9978 -1.5564 -0.1835
  258MOL0     H34765   1.888   4.587  10.301  0.9160  1.0596  1.0040
  258MOL0     H34766   1.906   4.487  10.451  1.8811  1.7919  1.2508
  258MOL0     H34767   1.756   4.368  10.304 -0.2345 -0.8762 -1.3644
  258MOL0     H34768   1.677   4.422  10.450  2.2533  2.1572  2.7552
  258MOL0     H34769   1.619   4.632  10.285  0.0206  0.3494  0.5015
  258MOL0     H34770   1.652   4.530  10.153 -0.1866  3.1818 -0.5382
  258MOL0     H34771   1.480   4.362  10.218 -5.3154 -1.2586  0.8754
  258MOL0     H34772   1.439   4.443  10.354  3.9609  1.7405  1.2724
  258MOL0     H34773   1.281   4.535  10.223  0.3675 -2.0087 -0.5881
  258MOL0     H34774   1.403   4.656  10.204 -1.9502  0.6009 -0.2485
  258MOL0     H34775   1.484   4.565  10.001  0.1533  1.9093  1.5011
  258MOL0     H34776   1.347   4.433  10.008 -0.5645  0.8958 -1.6564
  258MOL0     H34777   1.181   4.564  10.013  1.5187 -1.1581  2.3026
  258MOL0     H34778   1.273   4.715   9.982  3.1466 -0.1223  0.3643
  258MOL0     H34779   1.347   4.508   9.784 -0.8443 -0.6896  0.0788
  258MOL0     H34780   1.329   4.683   9.793  1.2422 -1.3180  1.5721
  258MOL0     H34781   1.129   4.347   9.828 -2.5575 -0.5475  0.4828
  258MOL0     H34782   0.814   4.356   9.582  2.4804 -1.2105 -2.2800
  258MOL0     H34783   0.898   4.216   9.649 -1.7718 -0.2804  0.6249
  258MOL0     H34784   0.843   4.315   9.891 -1.7413  1.7918  0.9984
  258MOL0     H34785   0.724   4.245   9.775  0.2318 -0.7107  0.1661
  258MOL0     H34786   0.633   4.469   9.722 -0.6572  1.2366  0.3265
  258MOL0     H34787   0.755   4.550   9.791 -0.7557  1.4313  2.2918
  258MOL0     H34788   0.591   4.564   9.935 -0.1206  0.1164  1.8776
  258MOL0     H34789   0.713   4.463  10.018 -0.1825  0.9415 -0.4187
  258MOL0     H34790   0.551   4.480  10.202 -1.4169  0.7202  4.7971
  258MOL0     H34791   0.400   4.442  10.475  2.4617  1.0512  0.4162
  258MOL0     H34792   0.498   4.566  10.406  0.7431 -0.5308 -1.8588
  258MOL0     H34793   0.322   4.597  10.435 -1.1245 -1.4146 -1.7800
  258MOL0     H34794   0.026   4.560  10.583 -1.4006  0.6813 -0.2471
  258MOL0     H34795  -0.136   4.554  10.758  1.8814  1.2378 -2.0585
  258MOL0     H34796  -0.138   4.444  10.997  1.4001 -0.2845 -2.6243
  258MOL0     H34797  -0.289   4.526  10.960 -1.6880 -1.9416 -1.9553
  258MOL0     H34798  -0.408   4.367  11.082 -1.1552  2.7977  0.6901
  258MOL0     H34799  -0.263   4.269  11.138 -1.5774 -0.5019  1.1508
  258MOL0     H34800  -0.351   4.564  11.203 -0.0844 -0.6799  1.0753
  258MOL0     H34801  -0.184   4.511  11.219  1.0713 -2.3300  0.6473
  258MOL0     H34802  -0.451   4.406  11.352  0.0635 -3.6795 -0.1005
  258MOL0     H34803  -0.305   4.307  11.349  0.6880 -0.2855  1.2308
  258MOL0     H34804  -0.312   4.430  11.568  1.5062 -1.0401 -0.4649
  258MOL0     H34805  -0.335   4.585  11.479 -2.6118 -0.9412  0.7094
  258MOL0     H34806  -0.095   4.389  11.534  2.3981 -0.2009 -1.1582
  258MOL0     H34807  -0.088   4.510  11.397  0.2236 -2.5358  0.1917
  258MOL0     H34808  -0.105   4.533  11.698  0.9729 -0.7717  0.0895
  258MOL0     H34809  -0.158   4.659  11.584  0.3615  1.5210 -0.1366
  258MOL0     H34810   0.086   4.680  11.670 -1.9248 -0.4427  0.0912
  258MOL0     H34811   0.076   4.687  11.497 -3.1041  1.9947  1.6299
  258MOL0     H34812  -0.123   4.131  10.758  2.1047  0.5319  0.7484
  258MOL0     H34813   0.032   4.137  10.572 -0.3696  1.6839 -4.2455
  258MOL0     H34814   0.117   4.276  10.110 -2.0177  3.2933 -0.9951
  258MOL0     H34815   0.301   4.254   9.936 -0.3343  3.8033 -2.6099
  258MOL0     H34816   2.045   4.724  10.405 -0.4199  0.6854 -0.1251
  258MOL0     H34817   2.234   4.818  10.545  1.7193 -0.5771  1.8581
  258MOL0     H34818   2.341   5.081  10.853  0.1088  1.0532  0.7310
  258MOL0     H34819   2.496   5.234  10.986 -4.0150  2.1414  0.5664
  258MOL0     H34820   2.569   5.330  11.345  0.3900  0.0845  0.9082
  258MOL0     H34821   2.475   5.185  11.378  1.9198 -0.9638  3.4995
  258MOL0     H34822   2.712   5.076  11.442 -1.8114 -0.4786  1.1250
  258MOL0     H34823   2.677   5.228  11.523  0.5838 -1.3825 -0.0040
  258MOL0     H34824   2.804   5.358  11.345  0.8799  0.9869  3.8222
  258MOL0     H34825   2.856   5.198  11.280 -1.6711 -0.0299 -0.6915
  258MOL0     H34826   2.983   5.149  11.467  1.2981  0.0981  1.2173
  258MOL0     H34827   2.941   5.309  11.547  0.5809  4.7944 -2.5251
  258MOL0     H34828   3.237   5.458  11.323 -2.7762  2.6625  0.2201
  258MOL0     H34829   2.524   4.932  11.280 -0.2358 -0.9158 -0.3793
  258MOL0     H34830   2.362   4.801  11.181  0.2304 -0.5173 -0.2820
  259MOL0     O34831   0.052   7.240   1.565  0.2239 -0.7715 -0.0313
  259MOL0     C34832  -0.001   7.221   1.671  0.1463 -0.1077  0.0499
  259MOL0     O34833  -0.126   7.218   1.696  0.0880  0.2792 -0.5429
  259MOL0     C34834  -0.212   7.240   1.590 -0.3520 -0.1033 -0.0322
  259MOL0     C34835  -0.338   7.292   1.612  0.3193 -0.6228  0.5392
  259MOL0     C34836  -0.433   7.311   1.517  0.2155  0.1681  0.2742
  259MOL0     C34837  -0.417   7.252   1.390 -0.0635 -1.0194 -0.3146
  259MOL0     O34838  -0.520   7.268   1.302 -0.3462  0.1136  0.1145
  259MOL0     C34839  -0.512   7.303   1.163 -0.6299  0.6457 -0.0061
  259MOL0     C34840  -0.644   7.262   1.102 -0.5109  0.3313  0.1114
  259MOL0     C34841  -0.764   7.335   1.159 -0.4141  0.0469  0.4706
  259MOL0     C34842  -0.898   7.261   1.159  1.0423  0.0926 -0.2820
  259MOL0     C34843  -1.018   7.335   1.223 -0.3170  0.6685  0.4426
  259MOL0     C34844  -1.014   7.361   1.378  0.0075  0.9168  0.7020
  259MOL0     C34845  -1.159   7.405   1.429 -0.0850 -0.3852  0.6887
  259MOL0     C34846  -1.150   7.465   1.572  0.3038 -0.2052 -0.6172
  259MOL0     N34847  -1.146   7.355   1.665 -0.0710 -0.5476 -0.8492
  259MOL0     C34848  -1.169   7.222   1.640  0.1640  0.0342 -0.0543
  259MOL0     C34849  -1.113   7.160   1.748 -0.3095  0.3025 -0.2513
  259MOL0     C34850  -1.127   7.009   1.786  0.2830  0.1521  0.5472
  259MOL0     C34851  -1.008   6.935   1.733  0.9603  0.0596  0.1373
  259MOL0     C34852  -1.003   6.791   1.783 -0.4304  0.2960  0.0438
  259MOL0     C34853  -0.985   6.752   1.932 -0.1352 -0.2158  0.0775
  259MOL0     O34854  -1.117   6.761   1.994  0.1117  0.3336  0.0546
  259MOL0     C34855  -1.130   6.771   2.129 -0.2605 -0.1402 -0.1054
  259MOL0     C34856  -1.034   6.754   2.233  0.1085 -0.1752  0.2073
  259MOL0     C34857  -1.066   6.773   2.366 -0.6819 -0.0313 -0.4075
  259MOL0     C34858  -0.966   6.759   2.484  0.1634 -0.6921 -0.0124
  259MOL0     C34859  -1.197   6.801   2.409 -0.6218  0.3057 -0.3437
  259MOL0     C34860  -1.234   6.830   2.551  0.3411  0.4452 -0.5474
  259MOL0     O34861  -1.310   6.940   2.564  0.0858  0.3388  0.0160
  259MOL0     C34862  -1.348   6.958   2.699 -0.1149  0.5896 -0.4280
  259MOL0     C34863  -1.263   6.994   2.807 -0.1072 -0.2475 -0.6737
  259MOL0     C34864  -1.316   7.006   2.937  0.2910 -0.4877 -0.0459
  259MOL0     C34865  -1.457   6.996   2.965 -0.4186 -0.3619  0.0728
  259MOL0     O34866  -1.507   7.011   3.093 -0.0616 -0.4651  0.0805
  259MOL0     C34867  -1.645   7.021   3.107 -0.3371  0.0859 -0.1118
  259MOL0     C34868  -1.685   7.090   3.236  0.5093  0.3674 -0.7302
  259MOL0     C34869  -1.654   7.004   3.350 -0.3944 -0.1373 -0.6614
  259MOL0     C34870  -1.703   7.057   3.486 -0.0130  1.1902  0.0578
  259MOL0     C34871  -1.628   7.177   3.551 -1.3139  0.5446  0.4668
  259MOL0     C34872  -1.522   7.108   3.645  0.0679  0.1270 -0.7289
  259MOL0     C34873  -1.440   7.214   3.709  0.5075 -0.3092  0.3928
  259MOL0     C34874  -1.307   7.163   3.748  0.8723 -0.4551  0.2380
  259MOL0    Cl34875  -1.336   7.043   3.882  0.1526 -0.0222 -0.2799
  259MOL0     C34876  -1.538   6.967   2.854 -0.3691 -1.1410 -0.0911
  259MOL0     C34877  -1.484   6.950   2.722  0.3202  0.9615 -1.1504
  259MOL0     O34878  -1.222   6.742   2.638  0.4972  0.3132  0.0480
  259MOL0     C34879  -1.298   6.817   2.309  1.3105  0.6856 -0.1226
  259MOL0     C34880  -1.266   6.807   2.168  0.7068 -0.8967 -0.3836
  259MOL0     N34881  -1.050   7.253   1.835 -0.3093  0.5800 -0.2781
  259MOL0     N34882  -1.067   7.366   1.778  0.3492 -0.5966  0.0816
  259MOL0     C34883  -0.295   7.198   1.361  0.3062  0.4944 -0.4147
  259MOL0     C34884  -0.195   7.194   1.459  0.2389  0.1627 -0.0054
  259MOL0     C34885   0.086   7.191   1.783 -0.6589 -0.3579 -0.6356
  259MOL0     C34886   0.221   7.149   1.766  0.2944 -0.1394  0.1844
  259MOL0     C34887   0.309   7.121   1.876  0.2456 -1.1356 -0.0582
  259MOL0     C34888   0.261   7.145   2.009 -0.1468  0.3227  0.4755
  259MOL0     O34889   0.333   7.139   2.120  0.5369 -0.1290 -0.6284
  259MOL0     C34890   0.455   7.057   2.129  0.1299 -0.2304 -0.1524
  259MOL0     C34891   0.491   7.028   2.270  0.2255 -0.4902  0.6236
  259MOL0     C34892   0.577   6.903   2.296  0.2725 -0.1211 -0.4677
  259MOL0     C34893   0.648   6.912   2.435  0.1297  1.1122 -0.9437
  259MOL0     C34894   0.547   6.900   2.547  0.3702 -0.3649  0.5249
  259MOL0     C34895   0.467   6.878   2.640 -1.2419  0.2288  0.5228
  259MOL0     C34896   0.121   7.185   2.029  0.0544  0.9578  0.1060
  259MOL0     C34897   0.045   7.204   1.911  0.4206 -0.3391 -0.6065
  259MOL0     H34898  -0.365   7.327   1.712 -0.6802 -0.2845  0.1678
  259MOL0     H34899  -0.537   7.337   1.533  0.0851 -0.4051  0.4079
  259MOL0     H34900  -0.488   7.408   1.146  0.5684  0.1475 -1.6661
  259MOL0     H34901  -0.433   7.241   1.119  0.6874  1.7834  0.6935
  259MOL0     H34902  -0.644   7.282   0.994  0.9272 -2.1617 -0.4458
  259MOL0     H34903  -0.661   7.155   1.118 -0.9168  0.4291  0.3501
  259MOL0     H34904  -0.745   7.356   1.265  0.0536  0.3658  0.3288
  259MOL0     H34905  -0.788   7.423   1.098 -2.4157 -0.7591  0.0099
  259MOL0     H34906  -0.917   7.242   1.054  1.3992 -2.0832  0.0109
  259MOL0     H34907  -0.894   7.165   1.211  0.3806  0.6329  0.8270
  259MOL0     H34908  -1.025   7.432   1.173  1.5146  0.0279 -1.2243
  259MOL0     H34909  -1.107   7.274   1.203  1.0727 -0.8922 -1.4688
  259MOL0     H34910  -0.981   7.274   1.436 -2.6240  0.1617  1.2256
  259MOL0     H34911  -0.935   7.430   1.407  0.9242 -0.5881  1.9172
  259MOL0     H34912  -1.188   7.484   1.359  1.4495  0.3669  0.8523
  259MOL0     H34913  -1.232   7.328   1.400  1.0200 -1.0104 -0.5488
  259MOL0     H34914  -1.234   7.533   1.588  0.7617 -0.0219  1.3194
  259MOL0     H34915  -1.055   7.519   1.582  0.6112 -0.4302 -2.0997
  259MOL0     H34916  -1.213   7.170   1.556  0.0300  0.4109 -0.2214
  259MOL0     H34917  -1.144   6.993   1.893  2.2889 -2.5255  0.5601
  259MOL0     H34918  -1.207   6.959   1.731  0.6786 -4.6870  3.7558
  259MOL0     H34919  -0.914   6.977   1.768  0.0699  1.3396  1.0767
  259MOL0     H34920  -1.006   6.942   1.623  2.4502 -3.8381 -0.2432
  259MOL0     H34921  -0.908   6.759   1.740  0.2454  1.5765  0.5364
  259MOL0     H34922  -1.082   6.732   1.734 -0.5006  0.2965  0.1561
  259MOL0     H34923  -0.924   6.821   1.991  0.7950 -1.3934  0.5295
  259MOL0     H34924  -0.940   6.652   1.935 -0.4415 -0.3490  0.3027
  259MOL0     H34925  -0.935   6.717   2.208  0.0589 -1.2089  1.4738
  259MOL0     H34926  -0.969   6.849   2.547  0.8027  0.0531 -1.0083
  259MOL0     H34927  -0.997   6.679   2.551  0.2939 -1.2682 -0.6265
  259MOL0     H34928  -0.863   6.740   2.452  1.1843 -1.3649  3.3354
  259MOL0     H34929  -1.163   7.023   2.777 -1.1556  0.8481 -3.4241
  259MOL0     H34930  -1.249   7.048   3.012  0.9838  2.5644 -2.1867
  259MOL0     H34931  -1.681   7.082   3.024  2.1211 -0.7218 -1.9004
  259MOL0     H34932  -1.692   6.922   3.100 -0.7038  0.2326  0.1975
  259MOL0     H34933  -1.651   7.193   3.250 -0.2313  0.2657  3.0041
  259MOL0     H34934  -1.794   7.092   3.233 -0.0027 -1.2594  4.8204
  259MOL0     H34935  -1.544   7.010   3.347 -0.3399 -0.7442 -0.1664
  259MOL0     H34936  -1.687   6.903   3.323  2.2735 -0.9516 -1.2119
  259MOL0     H34937  -1.809   7.084   3.481  0.0551  1.2922 -2.8012
  259MOL0     H34938  -1.693   6.969   3.549 -0.8377 -1.1748 -2.8445
  259MOL0     H34939  -1.686   7.245   3.613  1.7977  2.4478  1.4994
  259MOL0     H34940  -1.564   7.225   3.476  0.7388 -0.3444  1.5582
  259MOL0     H34941  -1.565   7.046   3.724  2.6642 -0.9526 -0.0779
  259MOL0     H34942  -1.459   7.038   3.589 -1.1920 -0.3851 -1.5688
  259MOL0     H34943  -1.497   7.260   3.790 -1.5554 -0.8758 -0.6554
  259MOL0     H34944  -1.422   7.299   3.642 -0.9695  0.1065  0.4811
  259MOL0     H34945  -1.239   7.241   3.784  1.0411 -0.3198 -0.3679
  259MOL0     H34946  -1.267   7.118   3.657 -1.2372  0.7380 -1.3736
  259MOL0     H34947  -1.646   6.958   2.861 -0.3131 -0.4677  2.3966
  259MOL0     H34948  -1.546   6.909   2.643  0.6859 -1.9722 -0.0549
  259MOL0     H34949  -1.401   6.841   2.330  0.6189 -0.7375 -1.6264
  259MOL0     H34950  -1.340   6.816   2.089 -2.5099  0.9779  2.5708
  259MOL0     H34951  -0.265   7.146   1.271  2.0839 -0.1987  0.5216
  259MOL0     H34952  -0.108   7.137   1.427  0.1559  0.4517 -0.7581
  259MOL0     H34953   0.254   7.118   1.667  0.4238  0.5478  0.0098
  259MOL0     H34954   0.414   7.103   1.858  0.6938  0.3337  0.9050
  259MOL0     H34955   0.431   6.961   2.082  0.1297 -0.6405  0.6726
  259MOL0     H34956   0.537   7.111   2.081  0.0755  0.2735  0.3101
  259MOL0     H34957   0.398   6.998   2.318  0.7019  1.3783  2.8945
  259MOL0     H34958   0.522   7.125   2.309 -2.5108 -0.1585  2.2150
  259MOL0     H34959   0.656   6.903   2.221 -0.7930  1.2022 -1.6369
  259MOL0     H34960   0.515   6.813   2.291  0.0879 -0.0149 -0.1307
  259MOL0     H34961   0.708   7.001   2.454 -0.6286  1.3740  0.3304
  259MOL0     H34962   0.720   6.830   2.443 -1.4886 -0.2452  0.4769
  259MOL0     H34963   0.401   6.863   2.723 -0.2830 -4.0830  0.7429
  259MOL0     H34964   0.092   7.208   2.131 -0.9780  3.1616 -0.6155
  259MOL0     H34965  -0.060   7.223   1.930  0.8526  4.5374 -1.8793
  260MOL0     O34966   0.545   6.503   5.742 -0.9419 -0.3435 -0.0761
  260MOL0     C34967   0.500   6.552   5.633 -0.9137  0.7036 -1.3873
  260MOL0     O34968   0.575   6.585   5.518 -0.8246  1.2236 -0.1756
  260MOL0     C34969   0.709   6.555   5.522  0.9464 -0.8111  0.5998
  260MOL0     C34970   0.790   6.661   5.542 -1.1614 -1.0264  0.5565
  260MOL0     C34971   0.931   6.640   5.550  0.5823 -0.7425  0.7558
  260MOL0     C34972   0.984   6.516   5.534 -1.7821 -0.0835  0.7329
  260MOL0     O34973   1.126   6.510   5.550 -0.1843 -0.9282  0.8465
  260MOL0     C34974   1.195   6.395   5.492  0.0023  0.0728 -0.0242
  260MOL0     C34975   1.334   6.398   5.536  0.0237  0.0654  0.4321
  260MOL0     C34976   1.343   6.401   5.686  0.3430 -0.0651  0.4337
  260MOL0     C34977   1.259   6.305   5.772 -0.2976  0.6215  0.6361
  260MOL0     C34978   1.267   6.162   5.728  0.7028 -0.0577  0.4730
  260MOL0     C34979   1.187   6.059   5.810 -0.0494  0.0683 -0.9382
  260MOL0     C34980   1.038   6.072   5.781 -0.3467  0.2224  0.2725
  260MOL0     C34981   0.949   6.162   5.865 -0.0196  0.4580  0.3546
  260MOL0     N34982   0.815   6.113   5.860 -0.2296  1.0389  0.1464
  260MOL0     C34983   0.730   6.107   5.747 -0.3096 -0.3288  0.2776
  260MOL0     C34984   0.612   6.056   5.792  0.4680  0.1153 -0.9163
  260MOL0     C34985   0.485   6.031   5.728 -1.0250  0.1440  0.5980
  260MOL0     C34986   0.396   6.147   5.751 -0.0761  0.2175 -0.7221
  260MOL0     C34987   0.260   6.104   5.686 -1.0035 -0.6973  0.5113
  260MOL0     C34988   0.158   6.216   5.686 -0.7305  0.5491  0.4812
  260MOL0     O34989   0.106   6.246   5.819  0.2053  0.2510 -0.2783
  260MOL0     C34990  -0.012   6.189   5.861  0.1918 -0.4631  0.0302
  260MOL0     C34991  -0.092   6.251   5.962 -0.2174 -0.7164  0.1844
  260MOL0     C34992  -0.215   6.194   6.008  0.8691  0.4747  0.0148
  260MOL0     C34993  -0.283   6.266   6.119 -0.5220 -0.2605  0.2489
  260MOL0     C34994  -0.257   6.078   5.950  0.1154 -0.1118 -0.8106
  260MOL0     C34995  -0.376   5.997   5.993 -0.7355 -0.2843  0.3115
  260MOL0     O34996  -0.394   5.862   5.943 -0.7314  0.3232 -0.2632
  260MOL0     C34997  -0.522   5.798   5.954 -0.1319  0.0218  0.2101
  260MOL0     C34998  -0.648   5.870   5.959  0.2533 -1.0646 -0.1884
  260MOL0     C34999  -0.774   5.803   5.979 -0.6223 -0.0045  0.6090
  260MOL0     C35000  -0.773   5.665   5.971 -0.4723  0.4269 -0.3486
  260MOL0     O35001  -0.895   5.603   5.982 -1.3150  0.0671  0.5746
  260MOL0     C35002  -0.975   5.642   6.101 -0.1007 -1.0593 -0.1115
  260MOL0     C35003  -1.100   5.728   6.058  0.0902  0.0354  0.5250
  260MOL0     C35004  -1.168   5.766   6.185  0.7269 -0.5110  0.3081
  260MOL0     C35005  -1.305   5.814   6.168 -0.7684  0.5460  0.6741
  260MOL0     C35006  -1.360   5.881   6.291  0.5047  0.0111 -0.1151
  260MOL0     C35007  -1.506   5.909   6.270  0.6632  1.1809  0.2662
  260MOL0     C35008  -1.563   5.994   6.371  0.4966 -0.4122  0.6436
  260MOL0     C35009  -1.704   6.043   6.321 -0.2491 -0.6362 -0.7424
  260MOL0    Cl35010  -1.782   6.129   6.449  0.2078 -0.1683  0.1615
  260MOL0     C35011  -0.658   5.592   5.961 -0.2284  0.1841  0.2800
  260MOL0     C35012  -0.525   5.663   5.969  0.0939 -0.1717 -0.5579
  260MOL0     O35013  -0.442   6.046   6.086 -0.0842  0.1302 -0.6289
  260MOL0     C35014  -0.174   6.010   5.858  0.1928  0.4267 -1.1108
  260MOL0     C35015  -0.048   6.055   5.817 -0.1983 -0.6333 -0.8118
  260MOL0     N35016   0.621   6.023   5.928  0.0385 -0.2425  0.2904
  260MOL0     N35017   0.740   6.062   5.961 -0.7247 -0.5683 -0.8014
  260MOL0     C35018   0.903   6.399   5.520 -0.0702 -0.1809 -1.3429
  260MOL0     C35019   0.764   6.429   5.504  0.7023  0.2295  0.2672
  260MOL0     C35020   0.354   6.565   5.619 -0.0849 -0.6580  0.1825
  260MOL0     C35021   0.298   6.613   5.498  0.3902 -0.0058  0.1442
  260MOL0     C35022   0.151   6.641   5.502 -0.0430  0.8147  1.0326
  260MOL0     C35023   0.071   6.613   5.607  1.7619 -0.0801 -0.3195
  260MOL0     O35024  -0.067   6.635   5.594  0.1393  1.1160  0.1488
  260MOL0     C35025  -0.156   6.571   5.692  0.7163 -0.3991 -0.2989
  260MOL0     C35026  -0.299   6.606   5.671  0.2743  0.1605  0.6798
  260MOL0     C35027  -0.353   6.563   5.533 -0.0122  0.5761 -0.2363
  260MOL0     C35028  -0.494   6.508   5.540  0.1568  0.0864  0.8385
  260MOL0     C35029  -0.505   6.375   5.604 -0.3333  0.1686  0.3136
  260MOL0     C35030  -0.503   6.264   5.658  0.5580 -0.0235  0.2909
  260MOL0     C35031   0.139   6.579   5.724 -0.3625  0.8653 -0.1921
  260MOL0     C35032   0.278   6.547   5.736 -0.2824  0.0590  0.9173
  260MOL0     H35033   0.750   6.762   5.547  0.7892 -0.2225  0.5183
  260MOL0     H35034   0.996   6.718   5.587  0.9886 -1.0735  0.7528
  260MOL0     H35035   1.153   6.303   5.533  1.1427  0.8066  3.0922
  260MOL0     H35036   1.182   6.395   5.384  2.7936  0.8806 -0.4455
  260MOL0     H35037   1.385   6.311   5.493 -4.2582 -3.4828  1.7851
  260MOL0     H35038   1.382   6.488   5.498 -2.2591  1.3115  0.3186
  260MOL0     H35039   1.449   6.386   5.710  0.3763  0.9356  0.9403
  260MOL0     H35040   1.322   6.503   5.718  0.3718  0.1850 -0.3332
  260MOL0     H35041   1.300   6.297   5.873  2.0256 -2.9398 -0.4230
  260MOL0     H35042   1.154   6.337   5.776 -0.6680 -0.1053 -1.6353
  260MOL0     H35043   1.241   6.146   5.623  0.9388  1.0234  0.2387
  260MOL0     H35044   1.374   6.140   5.732  0.6637 -0.2848  0.3014
  260MOL0     H35045   1.216   5.955   5.789 -0.1274  0.2016 -1.7515
  260MOL0     H35046   1.209   6.068   5.916 -0.1819  1.4871 -1.0204
  260MOL0     H35047   1.023   6.096   5.675  0.4230  0.2139  0.1564
  260MOL0     H35048   1.004   5.970   5.796 -1.0307  0.2954 -0.6444
  260MOL0     H35049   0.963   6.261   5.820 -0.4406  0.3394 -0.0430
  260MOL0     H35050   0.975   6.155   5.971 -0.6101  1.0520  0.5463
  260MOL0     H35051   0.745   6.137   5.644  0.9650 -1.4911  0.0954
  260MOL0     H35052   0.491   6.000   5.624  0.2819 -0.3556  0.8113
  260MOL0     H35053   0.450   5.937   5.773  0.9137 -1.2119 -0.5695
  260MOL0     H35054   0.444   6.235   5.707 -1.7275  1.7703  0.4320
  260MOL0     H35055   0.369   6.152   5.857 -1.3750  0.7695 -1.0531
  260MOL0     H35056   0.231   6.020   5.750  0.9787 -1.9504 -0.1340
  260MOL0     H35057   0.281   6.066   5.586  3.3164 -2.0821  1.7434
  260MOL0     H35058   0.082   6.193   5.611 -2.1552  0.2977  1.9480
  260MOL0     H35059   0.211   6.299   5.638  2.6342 -1.5779  0.2701
  260MOL0     H35060  -0.073   6.352   5.994  1.8383 -2.0091  3.6303
  260MOL0     H35061  -0.383   6.293   6.083  0.3389  0.7542 -1.4866
  260MOL0     H35062  -0.281   6.207   6.212  4.8707 -0.1437  0.5147
  260MOL0     H35063  -0.252   6.369   6.137 -0.6589 -0.5420  2.4104
  260MOL0     H35064  -0.636   5.977   5.951  0.7158 -0.7250  3.3754
  260MOL0     H35065  -0.868   5.853   6.002 -0.5119  0.4056  0.1957
  260MOL0     H35066  -1.005   5.549   6.149  1.7222 -1.5472  0.1890
  260MOL0     H35067  -0.910   5.695   6.171 -1.5838  0.2867  0.2902
  260MOL0     H35068  -1.060   5.823   6.020  0.4224  0.6835  2.3757
  260MOL0     H35069  -1.169   5.679   5.988  0.0538 -1.1632  1.3804
  260MOL0     H35070  -1.108   5.846   6.229 -1.2947  1.0953  0.2892
  260MOL0     H35071  -1.163   5.672   6.241  2.2712 -1.4984 -1.3791
  260MOL0     H35072  -1.298   5.888   6.088  1.8815  1.4364  1.6371
  260MOL0     H35073  -1.366   5.728   6.138 -1.4575  0.9854  0.7956
  260MOL0     H35074  -1.332   5.985   6.308 -0.4572  0.2117  0.2871
  260MOL0     H35075  -1.339   5.819   6.378  2.3249 -0.0451 -0.5467
  260MOL0     H35076  -1.513   5.962   6.175 -1.2898  0.2554 -0.1520
  260MOL0     H35077  -1.568   5.819   6.260 -0.1512  1.9063 -1.7963
  260MOL0     H35078  -1.504   6.085   6.384 -0.9561  1.1960 -2.8515
  260MOL0     H35079  -1.576   5.946   6.468 -1.4326 -0.6311  0.3133
  260MOL0     H35080  -1.767   5.962   6.285  1.3018 -1.9313 -0.6292
  260MOL0     H35081  -1.691   6.112   6.236  1.3528  1.9806  1.4420
  260MOL0     H35082  -0.673   5.484   5.970 -0.4719  0.0580 -1.2551
  260MOL0     H35083  -0.439   5.597   5.977  0.9399  0.9994  0.3637
  260MOL0     H35084  -0.200   5.918   5.807  1.8367 -1.0132  0.5052
  260MOL0     H35085   0.008   5.992   5.749 -2.4689 -2.8431 -0.7851
  260MOL0     H35086   0.929   6.294   5.519  3.7110  0.3668  2.8740
  260MOL0     H35087   0.685   6.357   5.487  0.5308  0.1919  1.1890
  260MOL0     H35088   0.357   6.635   5.409 -0.3707 -0.0625 -0.3822
  260MOL0     H35089   0.106   6.669   5.408 -0.9495 -0.7906  0.9532
  260MOL0     H35090  -0.158   6.462   5.691 -2.0411 -0.4436  0.7559
  260MOL0     H35091  -0.126   6.607   5.791  1.8415 -0.0831 -0.7352
  260MOL0     H35092  -0.317   6.714   5.678 -3.4744  0.0046 -2.7431
  260MOL0     H35093  -0.358   6.557   5.749 -2.0755 -1.4447 -1.9238
  260MOL0     H35094  -0.299   6.482   5.481 -2.5497 -0.7003 -1.0463
  260MOL0     H35095  -0.363   6.658   5.481 -1.8082  1.9550  2.4222
  260MOL0     H35096  -0.527   6.492   5.437  0.1437 -2.2506  1.1348
  260MOL0     H35097  -0.554   6.587   5.587 -0.6912  0.8244 -1.3841
  260MOL0     H35098  -0.500   6.167   5.703  1.8236  0.5638  1.5440
  260MOL0     H35099   0.081   6.566   5.814 -3.5147  0.6664 -2.1165
  260MOL0     H35100   0.315   6.531   5.836 -1.9920 -1.7752  1.3289
  261MOL0     O35101  10.987   3.482   4.073 -0.1610 -0.1792 -0.1441
  261MOL0     C35102  11.025   3.405   4.165 -0.0855  0.2701  0.1902
  261MOL0     O35103  10.961   3.289   4.200  0.5619  0.5387 -0.0008
  261MOL0     C35104  10.852   3.255   4.129 -0.2844  1.5985  0.1300
  261MOL0     C35105  10.859   3.173   4.012 -0.3052 -1.2274 -0.2509
  261MOL0     C35106  10.744   3.123   3.949  0.8786 -1.1485  1.0197
  261MOL0     C35107  10.622   3.154   4.018  0.1798  0.3585  0.4251
  261MOL0     O35108  10.499   3.122   3.966 -0.0871  0.2133 -0.4329
  261MOL0     C35109  10.489   3.066   3.833  0.8991  0.2975  0.1389
  261MOL0     C35110  10.342   3.024   3.781 -0.4734  0.1554 -0.3704
  261MOL0     C35111  10.231   3.132   3.774  0.3469 -0.1213 -0.5743
  261MOL0     C35112  10.096   3.054   3.796 -1.1465  0.3935 -0.5808
  261MOL0     C35113   9.974   3.145   3.780  0.1688 -0.9072  0.4391
  261MOL0     C35114   9.852   3.075   3.802 -0.5648  0.3609 -0.7472
  261MOL0     C35115   9.734   3.130   3.730  1.0446 -0.0052 -1.0610
  261MOL0     C35116   9.616   3.035   3.766  0.4495 -0.9035  0.9951
  261MOL0     N35117   9.490   3.068   3.696 -0.4868  0.6365 -0.5155
  261MOL0     C35118   9.416   3.180   3.732 -0.7908 -0.1272 -0.3722
  261MOL0     C35119   9.301   3.160   3.665 -0.0427 -0.4033 -0.4460
  261MOL0     C35120   9.200   3.264   3.672 -0.2412 -0.4553 -0.2891
  261MOL0     C35121   9.155   3.301   3.528  1.4301 -0.3804  0.9144
  261MOL0     C35122   9.034   3.208   3.478 -0.4011 -0.9191  0.9266
  261MOL0     C35123   8.988   3.258   3.344 -0.2155  0.2544 -0.3254
  261MOL0     O35124   8.891   3.163   3.296  0.5788 -0.9929 -0.1390
  261MOL0     C35125   8.771   3.217   3.244 -1.7055  0.0319  0.6518
  261MOL0     C35126   8.772   3.285   3.122 -0.2646 -0.1459  0.0087
  261MOL0     C35127   8.654   3.313   3.055  0.6621  0.5341 -0.3659
  261MOL0     C35128   8.670   3.382   2.931 -0.4151  0.0403  0.2750
  261MOL0     C35129   8.522   3.271   3.104 -0.9941 -0.4387  0.3346
  261MOL0     C35130   8.392   3.296   3.022  0.2081  0.5423  0.2193
  261MOL0     O35131   8.392   3.371   2.908  0.5417  0.0094  0.0042
  261MOL0     C35132   8.280   3.375   2.831  0.7346  1.1474 -0.0326
  261MOL0     C35133   8.304   3.332   2.704  0.1006  1.1180 -0.1110
  261MOL0     C35134   8.219   3.375   2.594 -1.2937  0.5423 -0.5836
  261MOL0     C35135   8.102   3.441   2.617  0.8123 -0.4416  0.0717
  261MOL0     O35136   8.042   3.479   2.499  1.0888 -0.3120 -1.1512
  261MOL0     C35137   7.962   3.598   2.492 -0.1399 -1.1202 -0.5702
  261MOL0     C35138   8.013   3.689   2.385  0.2763  0.8882 -0.5105
  261MOL0     C35139   8.128   3.778   2.437 -0.9137 -0.2371  0.0609
  261MOL0     C35140   8.252   3.698   2.493  0.1893 -0.5001  0.4139
  261MOL0     C35141   8.377   3.782   2.511  0.0054 -0.1214  0.7326
  261MOL0     C35142   8.346   3.903   2.600  0.2033 -0.4347  0.0342
  261MOL0     C35143   8.472   3.991   2.621  0.6793 -1.0532  0.4778
  261MOL0     C35144   8.449   4.121   2.701 -0.1258 -0.6826 -0.7910
  261MOL0    Cl35145   8.481   4.090   2.874 -0.3096 -0.0043 -0.1337
  261MOL0     C35146   8.063   3.469   2.751 -0.1877 -0.5677 -0.1158
  261MOL0     C35147   8.154   3.441   2.859  0.5472 -0.1318  0.0673
  261MOL0     O35148   8.292   3.240   3.073  0.0723  0.0272  0.0500
  261MOL0     C35149   8.534   3.205   3.226 -0.5221 -0.8800 -0.3350
  261MOL0     C35150   8.654   3.184   3.295  0.4128  0.4052  0.6390
  261MOL0     N35151   9.306   3.048   3.593 -0.1615  0.2156 -0.3278
  261MOL0     N35152   9.425   2.988   3.605 -0.0336 -0.3350 -0.2437
  261MOL0     C35153  10.615   3.237   4.130  0.4414 -0.7433  0.3524
  261MOL0     C35154  10.735   3.294   4.175 -0.5989  0.3540 -0.0329
  261MOL0     C35155  11.144   3.460   4.249 -0.0143  0.1076  0.0235
  261MOL0     C35156  11.193   3.594   4.228  0.0199 -0.1066 -0.5259
  261MOL0     C35157  11.294   3.652   4.316 -0.0533 -0.0676  0.5780
  261MOL0     C35158  11.340   3.582   4.423 -0.8451 -0.5516 -0.4744
  261MOL0     O35159  11.428   3.633   4.517 -0.6720 -0.3104  0.9198
  261MOL0     C35160  11.442   3.777   4.543 -1.1779  0.5676  0.5051
  261MOL0     C35161  11.499   3.871   4.436  0.0309  0.1984 -0.2059
  261MOL0     C35162  11.600   3.814   4.339  0.4313  0.3843  0.4685
  261MOL0     C35163  11.669   3.915   4.252 -0.0785 -0.0838  1.1316
  261MOL0     C35164  11.758   3.997   4.335  0.2922 -0.5808  0.0302
  261MOL0     C35165  11.849   4.052   4.399  0.4166 -0.0856  0.0607
  261MOL0     C35166  11.291   3.456   4.440  0.1806  0.8510  1.5741
  261MOL0     C35167  11.200   3.385   4.356  0.4284  0.6668 -0.2115
  261MOL0     H35168  10.961   3.147   3.986  1.5178  2.5123  2.2092
  261MOL0     H35169  10.742   3.069   3.855 -2.3369  0.3996  0.0230
  261MOL0     H35170  10.526   3.144   3.766  3.6395  0.3590  1.5960
  261MOL0     H35171  10.547   2.974   3.824  2.6058  1.1325  1.9620
  261MOL0     H35172  10.363   2.995   3.677  2.6599  1.7189 -0.3023
  261MOL0     H35173  10.307   2.934   3.832  2.6708 -2.1224 -1.8948
  261MOL0     H35174  10.234   3.200   3.860 -1.7103 -0.8738  0.1505
  261MOL0     H35175  10.244   3.191   3.683  0.8381  1.3149  0.3968
  261MOL0     H35176  10.096   2.965   3.732  0.9724  0.5599 -0.9126
  261MOL0     H35177  10.096   3.023   3.901 -0.2081  0.3035 -0.5974
  261MOL0     H35178   9.992   3.217   3.861 -0.1417  0.3138 -0.5495
  261MOL0     H35179   9.977   3.198   3.685 -2.2245  2.0274  1.8240
  261MOL0     H35180   9.876   2.978   3.757  0.2413  0.5023 -0.6332
  261MOL0     H35181   9.832   3.065   3.909  0.3276  1.7176 -0.4278
  261MOL0     H35182   9.724   3.235   3.758  1.2269  0.4237 -2.5072
  261MOL0     H35183   9.755   3.128   3.623  3.1527 -1.9516 -0.6694
  261MOL0     H35184   9.622   3.020   3.874  2.3151 -1.6662  0.8199
  261MOL0     H35185   9.646   2.941   3.721 -1.8356 -1.1052 -0.2694
  261MOL0     H35186   9.444   3.263   3.794  1.9585  0.5481 -2.3438
  261MOL0     H35187   9.111   3.229   3.726  0.3540  0.5624  1.4175
  261MOL0     H35188   9.228   3.355   3.725 -2.4724  0.8652 -1.2016
  261MOL0     H35189   9.241   3.299   3.460 -0.7142  1.0373 -2.0187
  261MOL0     H35190   9.129   3.406   3.534  2.3742 -0.0998  0.3737
  261MOL0     H35191   8.954   3.189   3.550  0.4948  1.0120  2.5206
  261MOL0     H35192   9.075   3.107   3.461  0.3250 -0.1302 -3.1249
  261MOL0     H35193   9.071   3.259   3.273 -0.8156 -0.6853 -1.0833
  261MOL0     H35194   8.948   3.359   3.358  0.4045  0.4016  0.4545
  261MOL0     H35195   8.872   3.310   3.087  1.1256 -0.0421  3.6638
  261MOL0     H35196   8.773   3.416   2.920 -0.2700  0.7313  3.1675
  261MOL0     H35197   8.649   3.313   2.848  3.5820 -0.2877 -0.6496
  261MOL0     H35198   8.605   3.470   2.934 -0.8906 -0.3086  3.4672
  261MOL0     H35199   8.392   3.270   2.690 -0.7588  0.0550 -0.9938
  261MOL0     H35200   8.239   3.349   2.491  1.4714 -0.6418  0.1464
  261MOL0     H35201   7.875   3.564   2.435  1.1758 -0.2810 -3.2573
  261MOL0     H35202   7.942   3.651   2.585 -0.7275 -1.7241 -0.3484
  261MOL0     H35203   8.051   3.631   2.300 -3.2809  1.2420 -2.5509
  261MOL0     H35204   7.930   3.743   2.339  2.2751  1.6515 -3.4839
  261MOL0     H35205   8.085   3.837   2.518  2.4747  1.3991  0.8297
  261MOL0     H35206   8.146   3.858   2.364 -1.5711  1.2747  1.4947
  261MOL0     H35207   8.214   3.651   2.583 -2.2978 -0.9455 -0.7771
  261MOL0     H35208   8.271   3.616   2.423  0.5347 -0.2072  0.1592
  261MOL0     H35209   8.417   3.824   2.418 -1.3750  0.5439  0.4224
  261MOL0     H35210   8.450   3.714   2.554  2.1851 -0.0296 -2.4659
  261MOL0     H35211   8.270   3.963   2.547  1.2261  0.2895 -0.6518
  261MOL0     H35212   8.299   3.867   2.692  0.7229 -0.0357  0.4583
  261MOL0     H35213   8.514   4.006   2.521  1.8618 -0.3413  1.0519
  261MOL0     H35214   8.547   3.930   2.672  4.1249  0.5631 -2.1813
  261MOL0     H35215   8.344   4.147   2.685  0.3183  0.2644 -2.2720
  261MOL0     H35216   8.507   4.208   2.671  0.2240 -0.1345  1.2911
  261MOL0     H35217   7.970   3.512   2.786  1.2311  2.2302  0.5099
  261MOL0     H35218   8.132   3.468   2.962 -1.5242  1.0078 -0.6239
  261MOL0     H35219   8.434   3.172   3.256 -1.8779  0.6363 -2.8352
  261MOL0     H35220   8.664   3.112   3.375  0.6506 -4.6244 -3.3903
  261MOL0     H35221  10.525   3.280   4.172  0.9539  0.0012  0.7197
  261MOL0     H35222  10.738   3.358   4.263 -2.4374  1.7259 -0.9001
  261MOL0     H35223  11.157   3.652   4.144 -1.4141 -1.2643 -0.7554
  261MOL0     H35224  11.332   3.749   4.286 -0.0421  0.2899  1.7120
  261MOL0     H35225  11.345   3.818   4.572 -1.3356  2.4634 -2.3206
  261MOL0     H35226  11.514   3.792   4.625 -1.5065 -1.0201  1.1157
  261MOL0     H35227  11.541   3.952   4.497 -2.0026 -1.7329  4.1967
  261MOL0     H35228  11.414   3.921   4.389 -0.6800 -2.6676 -2.2137
  261MOL0     H35229  11.556   3.734   4.279  2.4188 -1.7166  1.6568
  261MOL0     H35230  11.670   3.746   4.389 -1.7282  0.0307  3.2540
  261MOL0     H35231  11.597   3.969   4.190  2.6054 -0.3449 -2.5695
  261MOL0     H35232  11.733   3.876   4.173 -1.4234 -0.8818  0.3899
  261MOL0     H35233  11.930   4.096   4.454 -0.2939 -0.0470  1.1130
  261MOL0     H35234  11.326   3.402   4.528 -1.6178 -3.6450 -0.1413
  261MOL0     H35235  11.178   3.281   4.380  3.3360  0.3396  1.4413
  262MOL0     O35236   2.755   8.715   9.390  0.6821  0.7645 -0.0692
  262MOL0     C35237   2.708   8.612   9.341  0.5896 -0.1426  0.1265
  262MOL0     O35238   2.754   8.487   9.376 -0.1945 -0.3709  0.2000
  262MOL0     C35239   2.874   8.459   9.441 -0.2556  0.2811  0.8398
  262MOL0     C35240   2.887   8.348   9.521 -0.3840  0.0667  0.1495
  262MOL0     C35241   3.009   8.305   9.586 -0.9396 -0.4696  0.5885
  262MOL0     C35242   3.131   8.380   9.573  0.2762 -0.0336  0.3900
  262MOL0     O35243   3.236   8.342   9.644 -0.6812  0.4416  0.4123
  262MOL0     C35244   3.365   8.399   9.612  0.2327  1.0537  0.1728
  262MOL0     C35245   3.469   8.331   9.704  0.4799 -0.5960  0.4516
  262MOL0     C35246   3.490   8.192   9.685  0.6255  0.7318  0.2260
  262MOL0     C35247   3.576   8.136   9.801  0.7123 -0.4588 -0.5553
  262MOL0     C35248   3.627   7.994   9.776 -1.6325 -0.4234  0.0565
  262MOL0     C35249   3.721   7.941   9.885 -0.1844 -0.5994  0.3163
  262MOL0     C35250   3.647   7.877  10.010 -0.1556  0.0183  0.6442
  262MOL0     C35251   3.738   7.795  10.086  0.6816 -0.3623 -0.1350
  262MOL0     N35252   3.727   7.654  10.039  0.6437  0.4133 -0.4319
  262MOL0     C35253   3.809   7.580   9.949  0.6821 -0.1029 -0.4148
  262MOL0     C35254   3.742   7.460   9.933  0.5309 -0.5034 -0.3692
  262MOL0     C35255   3.805   7.345   9.856  0.9523 -0.1452  0.3255
  262MOL0     C35256   3.888   7.256   9.949  0.1899 -0.2407 -0.3030
  262MOL0     C35257   3.972   7.153   9.872  1.1290  0.6969  0.9316
  262MOL0     C35258   3.891   7.038   9.802 -0.2966  0.4549  0.1117
  262MOL0     O35259   3.801   6.981   9.903  0.4631 -0.3290  0.4668
  262MOL0     C35260   3.843   6.866   9.968  0.3822  0.4765 -0.2961
  262MOL0     C35261   3.973   6.834   9.991  0.9455 -0.3232 -0.4015
  262MOL0     C35262   3.993   6.716  10.074 -0.4881 -0.4977  0.6405
  262MOL0     C35263   4.130   6.671  10.089  0.5343  0.0393 -0.8764
  262MOL0     C35264   3.886   6.650  10.137 -0.7223  1.6531 -0.3906
  262MOL0     C35265   3.912   6.539  10.233  1.3105  0.1239  0.0834
  262MOL0     O35266   3.838   6.430  10.204 -0.2847 -0.0720 -0.0909
  262MOL0     C35267   3.845   6.306  10.269 -0.4210  0.0341 -0.3925
  262MOL0     C35268   3.829   6.196  10.192  0.0151 -0.0546 -0.6477
  262MOL0     C35269   3.861   6.077  10.245 -0.2654  0.3706 -0.0645
  262MOL0     C35270   3.886   6.054  10.382 -0.0465 -0.0224 -0.0673
  262MOL0     O35271   3.915   5.929  10.417  0.5227  0.0892  0.9532
  262MOL0     C35272   3.822   5.856  10.500  0.1342 -0.2819 -1.5316
  262MOL0     C35273   3.821   5.703  10.489 -1.0503 -0.2903  0.7927
  262MOL0     C35274   3.715   5.647  10.587  0.5166 -0.2371  0.1092
  262MOL0     C35275   3.564   5.653  10.545  0.0609 -0.0730 -0.0572
  262MOL0     C35276   3.466   5.558  10.625 -0.1609 -0.7311  0.0443
  262MOL0     C35277   3.323   5.589  10.571 -0.3164  0.2540 -0.4981
  262MOL0     C35278   3.216   5.497  10.634 -0.1039 -1.1259  0.4345
  262MOL0     C35279   3.083   5.542  10.577  0.3573  0.8690 -0.0100
  262MOL0    Cl35280   2.941   5.473  10.668  0.1145 -0.1325 -0.1443
  262MOL0     C35281   3.885   6.162  10.465  0.8331  1.2010  0.5869
  262MOL0     C35282   3.866   6.293  10.406 -1.0619  0.6175  0.2550
  262MOL0     O35283   3.997   6.550  10.324  0.9487  0.5454  0.3226
  262MOL0     C35284   3.755   6.695  10.121 -0.4386 -0.4019  0.2547
  262MOL0     C35285   3.738   6.805  10.031 -0.2212 -0.1700  0.1619
  262MOL0     N35286   3.642   7.460  10.017 -0.0051 -1.5394  0.3954
  262MOL0     N35287   3.627   7.571  10.087 -0.8011  0.3902  1.2351
  262MOL0     C35288   3.117   8.485   9.482  0.1934 -1.5762  0.4609
  262MOL0     C35289   2.993   8.524   9.418  0.1408 -0.4690  0.0297
  262MOL0     C35290   2.614   8.627   9.230  0.3576 -0.2870 -0.1092
  262MOL0     C35291   2.600   8.744   9.159 -0.1082  0.3698  0.0711
  262MOL0     C35292   2.513   8.750   9.055  0.6782  0.2731  0.3553
  262MOL0     C35293   2.421   8.646   9.028 -0.9732  0.5490 -0.9586
  262MOL0     O35294   2.319   8.638   8.934 -0.3760 -0.1915 -0.0890
  262MOL0     C35295   2.267   8.763   8.877  1.1239  0.3026 -0.8418
  262MOL0     C35296   2.122   8.749   8.825 -0.7343  0.0350  1.0616
  262MOL0     C35297   2.017   8.830   8.906  0.8599  0.2101 -0.4928
  262MOL0     C35298   1.878   8.782   8.864  0.9411  0.1263  0.6940
  262MOL0     C35299   1.828   8.776   8.726  0.2808  0.5761  0.9028
  262MOL0     C35300   1.796   8.774   8.613  0.8937  0.2189  0.9615
  262MOL0     C35301   2.437   8.518   9.093  0.2011 -0.4033  0.2623
  262MOL0     C35302   2.530   8.519   9.193 -0.4038 -0.1058 -0.4939
  262MOL0     H35303   2.798   8.285   9.520 -0.3681 -0.2360 -4.5809
  262MOL0     H35304   3.002   8.222   9.656  2.0015 -0.8737  0.5404
  262MOL0     H35305   3.407   8.381   9.513  1.3011  1.0036  0.6273
  262MOL0     H35306   3.367   8.506   9.632 -2.9835  0.9841  1.5448
  262MOL0     H35307   3.557   8.394   9.692 -1.5501  2.2899 -0.2013
  262MOL0     H35308   3.435   8.348   9.806 -1.7790 -4.2685  0.5085
  262MOL0     H35309   3.404   8.124   9.684  1.9015 -0.9396 -0.9795
  262MOL0     H35310   3.534   8.181   9.586 -0.1599 -0.6009 -0.0011
  262MOL0     H35311   3.658   8.205   9.820 -1.6484  2.0085  1.7213
  262MOL0     H35312   3.519   8.128   9.895 -0.8453  0.9353 -1.3345
  262MOL0     H35313   3.553   7.914   9.758 -1.1496 -0.3168 -3.0769
  262MOL0     H35314   3.687   8.007   9.686 -0.7931  1.9330  0.9098
  262MOL0     H35315   3.776   7.863   9.831  0.1583  0.4158 -0.8625
  262MOL0     H35316   3.788   8.023   9.914 -0.4160 -0.8606  1.6881
  262MOL0     H35317   3.623   7.964  10.072 -1.4221  0.5604 -0.5304
  262MOL0     H35318   3.557   7.818   9.988 -0.9819  2.2099 -2.6298
  262MOL0     H35319   3.706   7.798  10.190 -1.9765 -2.4650 -0.7505
  262MOL0     H35320   3.841   7.828  10.073  2.0744 -3.0942  2.7036
  262MOL0     H35321   3.904   7.611   9.908  0.2158 -2.2326 -3.3719
  262MOL0     H35322   3.723   7.279   9.827  1.0059 -0.3889  0.7131
  262MOL0     H35323   3.863   7.389   9.775 -0.3334 -0.4070 -0.7663
  262MOL0     H35324   3.821   7.213  10.023 -0.4765  0.2428 -0.6168
  262MOL0     H35325   3.963   7.322   9.994  0.8154 -0.1528 -1.4281
  262MOL0     H35326   4.038   7.100   9.941 -0.8810 -3.0311  0.2738
  262MOL0     H35327   4.033   7.205   9.799 -2.2762 -0.2351 -2.9570
  262MOL0     H35328   3.949   6.957   9.755 -0.9070  0.7665 -1.2420
  262MOL0     H35329   3.829   7.084   9.724 -3.5535 -2.3165  0.8360
  262MOL0     H35330   4.055   6.893   9.949  0.5424  2.2455  2.1405
  262MOL0     H35331   4.196   6.701  10.007 -0.8592  2.6784 -1.1371
  262MOL0     H35332   4.169   6.708  10.184  0.9023 -0.7711 -0.7021
  262MOL0     H35333   4.128   6.562  10.099 -0.1372 -0.1548 -2.6966
  262MOL0     H35334   3.819   6.191  10.084 -1.3027 -1.1320 -0.5102
  262MOL0     H35335   3.865   5.990  10.181  1.0974 -0.9698  1.7621
  262MOL0     H35336   3.846   5.881  10.603  1.1409  0.5021 -1.9406
  262MOL0     H35337   3.724   5.902  10.486  1.3634  2.2727 -2.3312
  262MOL0     H35338   3.789   5.669  10.390 -1.2433  0.6491  0.5281
  262MOL0     H35339   3.922   5.664  10.505 -0.2206  1.3614 -0.1710
  262MOL0     H35340   3.737   5.692  10.685  0.4851 -0.4857  0.2308
  262MOL0     H35341   3.737   5.541  10.599 -0.5602 -0.6480 -1.3949
  262MOL0     H35342   3.532   5.757  10.554 -0.7046 -0.2725 -0.3671
  262MOL0     H35343   3.562   5.625  10.439 -1.6616 -2.0356  0.4322
  262MOL0     H35344   3.481   5.583  10.730 -0.4218  0.3292 -0.1627
  262MOL0     H35345   3.485   5.453  10.603 -3.3964 -1.7912  1.7033
  262MOL0     H35346   3.292   5.693  10.583 -1.3997  0.2572 -2.8134
  262MOL0     H35347   3.325   5.567  10.464 -1.8791 -0.3495 -0.4337
  262MOL0     H35348   3.195   5.499  10.742 -2.5136  1.6279  0.0300
  262MOL0     H35349   3.244   5.395  10.607  0.3176 -0.8275 -0.2624
  262MOL0     H35350   3.078   5.496  10.479  1.1562 -3.9622  1.9402
  262MOL0     H35351   3.056   5.647  10.593 -0.2580  0.7006  0.0926
  262MOL0     H35352   3.908   6.155  10.570 -0.1830  0.8417  0.8006
  262MOL0     H35353   3.902   6.370  10.473  4.9437 -2.5120  1.3530
  262MOL0     H35354   3.672   6.663  10.183 -1.3936  4.6111  2.0434
  262MOL0     H35355   3.641   6.849  10.007 -0.8612 -2.2019 -1.2441
  262MOL0     H35356   3.201   8.553   9.480 -0.5591 -0.6333  0.2043
  262MOL0     H35357   2.999   8.597   9.338  1.0014 -0.0784  0.4392
  262MOL0     H35358   2.669   8.822   9.190 -0.3448 -0.1465  2.0919
  262MOL0     H35359   2.519   8.843   9.000 -0.0011  0.2141  0.1812
  262MOL0     H35360   2.270   8.834   8.960 -2.6806 -2.1773  1.7553
  262MOL0     H35361   2.320   8.793   8.786  0.5841  0.2392 -1.1797
  262MOL0     H35362   2.101   8.642   8.825  1.0852 -0.3730 -0.3993
  262MOL0     H35363   2.124   8.774   8.719  0.5418  0.8548  1.2454
  262MOL0     H35364   2.013   8.938   8.886  0.8438  0.2377 -0.3397
  262MOL0     H35365   2.021   8.801   9.011 -0.5286 -0.6271 -0.6504
  262MOL0     H35366   1.799   8.829   8.924 -2.0844 -1.7011 -1.5544
  262MOL0     H35367   1.864   8.680   8.902  0.3488 -0.3122 -0.6288
  262MOL0     H35368   1.770   8.782   8.509  1.5773 -0.1087  0.7540
  262MOL0     H35369   2.354   8.450   9.076 -0.7357  0.2029  2.0651
  262MOL0     H35370   2.546   8.427   9.248  0.0205  0.3268  0.1219
  263MOL0     O35371  11.387   2.344   8.257  0.7288  0.3536 -0.1200
  263MOL0     C35372  11.500   2.298   8.270 -0.0427  0.5675 -0.5497
  263MOL0     O35373  11.616   2.367   8.309  0.4475  0.2079 -0.2413
  263MOL0     C35374  11.591   2.497   8.361  0.4197  0.6796 -0.2855
  263MOL0     C35375  11.540   2.509   8.489 -0.2693  0.0739 -0.2127
  263MOL0     C35376  11.506   2.634   8.540 -0.1671  0.1715 -1.3230
  263MOL0     C35377  11.516   2.750   8.463  0.0878 -1.0008 -0.1882
  263MOL0     O35378  11.483   2.880   8.509  0.0940  0.2246  0.3026
  263MOL0     C35379  11.364   2.881   8.589 -0.7841 -0.2914 -0.0018
  263MOL0     C35380  11.303   3.026   8.597  0.1747 -0.2848 -0.7345
  263MOL0     C35381  11.191   3.016   8.704  0.0178  0.5898  0.3959
  263MOL0     C35382  11.123   3.156   8.728 -0.7708 -0.0044 -0.9304
  263MOL0     C35383  11.017   3.155   8.834  0.2428  0.5523  0.0344
  263MOL0     C35384  10.877   3.133   8.773 -0.1631  0.4282  0.4069
  263MOL0     C35385  10.775   3.100   8.887  0.0848 -0.2183 -0.3037
  263MOL0     C35386  10.644   3.067   8.821  0.0881  0.0118  0.2949
  263MOL0     N35387  10.537   3.059   8.921  0.0189 -0.1827 -0.4221
  263MOL0     C35388  10.479   2.943   8.962  0.6327  0.6465  0.0445
  263MOL0     C35389  10.352   2.971   9.015 -0.3286 -0.3477  0.1307
  263MOL0     C35390  10.246   2.878   9.077 -0.5184  0.3485 -0.7325
  263MOL0     C35391  10.213   2.747   9.008  0.7044  0.8769  0.4017
  263MOL0     C35392  10.275   2.614   9.076 -0.3283  0.3842  0.5117
  263MOL0     C35393  10.431   2.610   9.101  0.3514 -0.0849  0.0453
  263MOL0     O35394  10.461   2.470   9.125 -0.5200 -0.2056 -0.0828
  263MOL0     C35395  10.597   2.437   9.136  0.7484  0.9115  0.4502
  263MOL0     C35396  10.605   2.300   9.146 -0.7601  0.5394 -0.9907
  263MOL0     C35397  10.729   2.234   9.175 -0.1523 -0.0045  0.2880
  263MOL0     C35398  10.734   2.087   9.205  0.0898  0.1736  0.6870
  263MOL0     C35399  10.849   2.308   9.164  0.3327 -0.5827  0.5284
  263MOL0     C35400  10.990   2.249   9.163  0.8221 -0.0946  0.3427
  263MOL0     O35401  11.091   2.332   9.188 -0.6123 -0.1962 -0.7365
  263MOL0     C35402  11.221   2.280   9.170 -0.0014  0.3182 -0.0952
  263MOL0     C35403  11.284   2.174   9.245  0.5773  0.1198 -0.3557
  263MOL0     C35404  11.422   2.144   9.245 -0.4392 -0.1941  0.3951
  263MOL0     C35405  11.499   2.203   9.135  0.8164  0.2156  0.2163
  263MOL0     O35406  11.631   2.171   9.114 -0.1029 -0.4423  0.5492
  263MOL0     C35407  11.663   2.118   8.978 -0.3182  0.4795 -0.9173
  263MOL0     C35408  11.812   2.087   8.973  0.5572 -0.6259  0.0416
  263MOL0     C35409  11.898   2.226   8.958  0.2081  0.2551 -0.5653
  263MOL0     C35410  12.035   2.196   8.884  1.0512  0.6622  0.0390
  263MOL0     C35411  12.123   2.315   8.899 -0.0187 -0.6125 -0.0893
  263MOL0     C35412  12.192   2.351   8.761 -0.5322 -0.4502  0.2676
  263MOL0     C35413  12.310   2.463   8.772 -0.6447 -0.4150 -0.3533
  263MOL0     C35414  12.324   2.552   8.660 -0.5865 -1.3082  0.0713
  263MOL0    Cl35415  12.172   2.644   8.632  0.0305 -0.1511 -0.1691
  263MOL0     C35416  11.424   2.294   9.047  0.1822 -0.3394 -1.0475
  263MOL0     C35417  11.297   2.339   9.064 -0.5666  1.0284  0.5800
  263MOL0     O35418  11.010   2.133   9.143  0.2668 -0.2001 -0.1158
  263MOL0     C35419  10.834   2.448   9.154  1.2012 -0.4460  0.2456
  263MOL0     C35420  10.709   2.517   9.142 -1.2681  0.6516 -0.0260
  263MOL0     N35421  10.345   3.106   9.017 -0.2350 -0.0521  0.2922
  263MOL0     N35422  10.445   3.161   8.958  1.2582 -1.0165  0.4698
  263MOL0     C35423  11.575   2.745   8.339 -0.1905 -0.7339  1.0550
  263MOL0     C35424  11.621   2.618   8.291  0.2170  0.4249 -0.3779
  263MOL0     C35425  11.520   2.155   8.245  0.5250  1.0760 -0.5156
  263MOL0     C35426  11.648   2.092   8.233  0.5134 -0.7919 -0.7840
  263MOL0     C35427  11.652   1.954   8.205  0.2858 -0.5259 -0.2785
  263MOL0     C35428  11.535   1.876   8.174 -0.3958  0.3618  0.9697
  263MOL0     O35429  11.542   1.745   8.140  0.9212 -0.3558  0.3928
  263MOL0     C35430  11.658   1.683   8.090  0.0015  0.3396 -0.2905
  263MOL0     C35431  11.761   1.634   8.202 -0.4226  0.0576 -0.1116
  263MOL0     C35432  11.722   1.488   8.248  0.1951 -0.3002 -0.0765
  263MOL0     C35433  11.748   1.452   8.393 -0.0858 -0.4690 -0.2794
  263MOL0     C35434  11.868   1.513   8.447  0.1957  0.1722 -1.2781
  263MOL0     C35435  11.957   1.571   8.496 -0.2177 -0.9334 -0.0906
  263MOL0     C35436  11.412   1.937   8.194  0.4652  0.1698  0.5811
  263MOL0     C35437  11.404   2.070   8.236  0.6381 -0.5122 -0.0477
  263MOL0     H35438  11.511   2.428   8.556 -0.1477  0.6351  0.5393
  263MOL0     H35439  11.483   2.638   8.646 -1.0393 -0.9876 -1.4422
  263MOL0     H35440  11.297   2.801   8.555 -0.2546 -0.3835 -0.8767
  263MOL0     H35441  11.397   2.856   8.690 -0.1082  1.0220  0.1200
  263MOL0     H35442  11.368   3.110   8.624 -0.6108  0.8208 -2.1240
  263MOL0     H35443  11.274   3.052   8.494 -0.0547 -0.9344 -0.8387
  263MOL0     H35444  11.115   2.947   8.665  0.2197  1.1098 -0.9324
  263MOL0     H35445  11.240   2.983   8.796  1.5148 -1.9675 -1.2062
  263MOL0     H35446  11.200   3.223   8.766 -0.6970 -0.6298  0.0633
  263MOL0     H35447  11.085   3.196   8.634 -1.6995  0.4274 -0.3915
  263MOL0     H35448  11.031   3.083   8.914  0.1531  2.2956  1.6854
  263MOL0     H35449  11.021   3.255   8.879  0.7877  0.5319  0.0361
  263MOL0     H35450  10.836   3.215   8.713 -1.5031 -0.8870 -0.5620
  263MOL0     H35451  10.880   3.047   8.705 -2.2128 -0.2871  1.1365
  263MOL0     H35452  10.792   3.011   8.949 -2.4878 -0.5557  0.0015
  263MOL0     H35453  10.767   3.196   8.937  2.1395 -0.8536  1.3988
  263MOL0     H35454  10.662   2.983   8.753  2.4885  1.1267 -0.5630
  263MOL0     H35455  10.622   3.141   8.744  2.4115 -0.6387 -1.1180
  263MOL0     H35456  10.515   2.841   8.949  0.5064  0.7450 -1.2996
  263MOL0     H35457  10.278   2.855   9.179 -1.5885 -0.7031 -0.6118
  263MOL0     H35458  10.155   2.937   9.094  0.7740  1.3799  4.2868
  263MOL0     H35459  10.239   2.752   8.902 -0.2753 -1.1924  0.0080
  263MOL0     H35460  10.105   2.736   9.019  0.5272  1.5835 -0.4442
  263MOL0     H35461  10.240   2.531   9.012 -0.5223  1.3400 -0.6624
  263MOL0     H35462  10.221   2.598   9.170 -0.6013  2.1596  0.6790
  263MOL0     H35463  10.459   2.674   9.185  3.7687  1.7676 -2.2738
  263MOL0     H35464  10.474   2.649   9.008 -2.5583  3.7210  0.0438
  263MOL0     H35465  10.517   2.237   9.144 -1.4266  1.4557 -2.9661
  263MOL0     H35466  10.804   2.055   9.282  1.0004 -2.5221 -1.0892
  263MOL0     H35467  10.633   2.050   9.224 -0.2857  0.6769 -0.2225
  263MOL0     H35468  10.777   2.037   9.117  3.3110  1.1052  1.5857
  263MOL0     H35469  11.226   2.117   9.317  0.0172  1.0096 -0.0843
  263MOL0     H35470  11.469   2.076   9.315  0.6560  0.2629  0.1240
  263MOL0     H35471  11.616   2.020   8.961  0.2372 -0.0692  0.5360
  263MOL0     H35472  11.631   2.184   8.897 -4.3175  0.1360  0.1610
  263MOL0     H35473  11.844   2.018   9.051 -0.0574 -2.4565 -1.2520
  263MOL0     H35474  11.835   2.032   8.881  0.8257  0.4276 -0.5462
  263MOL0     H35475  11.916   2.265   9.059 -0.9334  0.2741 -0.3451
  263MOL0     H35476  11.845   2.295   8.891  0.4561  0.7000 -0.3115
  263MOL0     H35477  12.076   2.104   8.928 -0.8609 -1.2367 -1.8823
  263MOL0     H35478  12.009   2.179   8.779 -0.4872 -0.6640  0.6007
  263MOL0     H35479  12.196   2.302   8.980 -1.6714  1.3412  1.8333
  263MOL0     H35480  12.070   2.405   8.932  2.5213  0.9215  0.0925
  263MOL0     H35481  12.237   2.259   8.724  1.7706  0.8103 -0.2669
  263MOL0     H35482  12.114   2.377   8.688  0.0191 -0.1696 -0.2349
  263MOL0     H35483  12.409   2.419   8.781  0.4656  1.9866  0.0079
  263MOL0     H35484  12.283   2.521   8.861  0.6089 -0.1323 -0.1298
  263MOL0     H35485  12.355   2.501   8.569  2.8283 -0.7701  0.7846
  263MOL0     H35486  12.413   2.613   8.676 -1.3615 -0.6248  2.2592
  263MOL0     H35487  11.461   2.337   8.954 -1.7050  0.0692 -1.6616
  263MOL0     H35488  11.267   2.419   8.997 -2.0882 -1.8481 -2.4717
  263MOL0     H35489  10.921   2.511   9.137  1.0486  0.3918  2.2930
  263MOL0     H35490  10.723   2.624   9.136 -2.5198  0.7362 -3.6082
  263MOL0     H35491  11.595   2.842   8.295  1.3831  0.9951  5.1139
  263MOL0     H35492  11.653   2.625   8.187  1.0829  0.5471 -0.1067
  263MOL0     H35493  11.740   2.148   8.243 -1.6867  2.8125  1.8093
  263MOL0     H35494  11.750   1.910   8.184  0.0859 -0.3374 -1.6984
  263MOL0     H35495  11.630   1.606   8.017  0.7279  1.0078 -1.2934
  263MOL0     H35496  11.694   1.760   8.021 -2.2381  2.2330  0.5423
  263MOL0     H35497  11.764   1.709   8.281 -0.6028 -1.2930  1.2172
  263MOL0     H35498  11.861   1.627   8.157  0.1410 -1.1776  1.2348
  263MOL0     H35499  11.747   1.403   8.183  2.6407  0.9773 -0.9138
  263MOL0     H35500  11.613   1.499   8.251  0.1422 -0.9396  2.9674
  263MOL0     H35501  11.758   1.344   8.408 -0.2278 -0.6330 -1.2524
  263MOL0     H35502  11.665   1.485   8.456 -0.5913 -0.1015 -1.1262
  263MOL0     H35503  12.027   1.643   8.532 -2.0925  2.6051 -2.8675
  263MOL0     H35504  11.314   1.891   8.180  0.5181  0.6015 -1.6329
  263MOL0     H35505  11.308   2.118   8.251  2.0433  2.4526  0.3778
  264MOL0     O35506   1.296   1.556   0.055 -0.4999 -0.2399 -0.6618
  264MOL0     C35507   1.259   1.653  -0.015  0.4434 -0.2452  0.1314
  264MOL0     O35508   1.266   1.648  -0.159 -0.1347 -0.0664  0.3345
  264MOL0     C35509   1.324   1.547  -0.226  0.6223  0.1580  0.1871
  264MOL0     C35510   1.329   1.409  -0.191 -0.1098  0.4537 -0.2009
  264MOL0     C35511   1.391   1.316  -0.276 -0.3596 -0.0636  1.1694
  264MOL0     C35512   1.447   1.353  -0.397  0.2963  1.1182 -0.2359
  264MOL0     O35513   1.508   1.243  -0.475 -0.6221  0.0310 -1.3319
  264MOL0     C35514   1.572   1.272  -0.599 -0.7759  0.2901  0.2140
  264MOL0     C35515   1.634   1.144  -0.663  0.3806 -0.4574  0.3237
  264MOL0     C35516   1.526   1.032  -0.667  0.1807  0.7373  0.1735
  264MOL0     C35517   1.560   0.912  -0.766 -0.0983  0.3666 -0.3399
  264MOL0     C35518   1.699   0.850  -0.741  0.3266  0.1589 -0.5709
  264MOL0     C35519   1.707   0.710  -0.788  0.0015  0.4324  0.4561
  264MOL0     C35520   1.699   0.719  -0.941 -0.4571 -0.9928  0.1848
  264MOL0     C35521   1.778   0.605  -1.002 -0.3224 -0.5135  0.2985
  264MOL0     N35522   1.917   0.660  -1.030  0.3401 -0.2952  0.1278
  264MOL0     C35523   2.015   0.693  -0.943 -0.2216 -0.3011 -0.8527
  264MOL0     C35524   2.098   0.773  -1.008 -1.1011 -0.8756 -0.1392
  264MOL0     C35525   2.236   0.828  -0.971  0.0847  0.4506  0.1507
  264MOL0     C35526   2.264   0.969  -1.031  0.4622  0.6152  0.3390
  264MOL0     C35527   2.178   1.080  -0.967 -0.1422  0.6970  0.0753
  264MOL0     C35528   2.048   1.132  -1.035 -0.2493 -0.3942  0.8506
  264MOL0     O35529   2.010   1.242  -0.961  0.4560 -0.3446 -1.1760
  264MOL0     C35530   1.878   1.283  -0.964 -0.2269  0.5620 -0.8270
  264MOL0     C35531   1.847   1.385  -0.872 -0.1000  0.7328 -0.5536
  264MOL0     C35532   1.729   1.454  -0.869 -0.6369 -0.2761  0.8806
  264MOL0     C35533   1.719   1.563  -0.767  1.0993 -0.1354  0.0376
  264MOL0     C35534   1.627   1.423  -0.964 -0.6161  0.5710 -0.9188
  264MOL0     C35535   1.487   1.468  -0.956 -0.2743 -1.1786 -0.3177
  264MOL0     O35536   1.458   1.572  -0.880 -0.5285  0.0076 -0.3240
  264MOL0     C35537   1.331   1.608  -0.862  0.2391 -0.9937 -0.2777
  264MOL0     C35538   1.287   1.735  -0.905  0.1540  0.6460 -0.1158
  264MOL0     C35539   1.153   1.771  -0.870  0.0998 -0.4372  0.4386
  264MOL0     C35540   1.068   1.690  -0.802 -0.7032  0.8006  0.7752
  264MOL0     O35541   0.937   1.724  -0.798  0.0145 -0.1083  0.1440
  264MOL0     C35542   0.837   1.645  -0.744  1.8831 -0.2214 -0.2972
  264MOL0     C35543   0.705   1.724  -0.764  0.5006  0.7619 -0.3667
  264MOL0     C35544   0.664   1.751  -0.909  0.2603  0.8448  0.4013
  264MOL0     C35545   0.624   1.618  -0.980  0.5658  0.5440  0.3771
  264MOL0     C35546   0.526   1.650  -1.097 -0.8742  0.0026  0.1889
  264MOL0     C35547   0.479   1.532  -1.180  0.8869  0.7095 -0.2600
  264MOL0     C35548   0.597   1.429  -1.202  1.3440 -0.1432 -0.8876
  264MOL0     C35549   0.579   1.340  -1.322  0.6631  0.1606  0.0920
  264MOL0    Cl35550   0.725   1.277  -1.387  0.0230 -0.3833 -0.4268
  264MOL0     C35551   1.114   1.562  -0.756 -0.4475 -0.1147  0.2530
  264MOL0     C35552   1.251   1.530  -0.776  0.0836  1.1683  0.1433
  264MOL0     O35553   1.399   1.402  -1.003 -0.1463 -0.4097  0.0740
  264MOL0     C35554   1.663   1.328  -1.060  0.3615  0.9127 -0.3235
  264MOL0     C35555   1.785   1.258  -1.064 -0.4880  0.7792  0.3573
  264MOL0     N35556   2.050   0.769  -1.137  0.1807  0.2284 -0.6633
  264MOL0     N35557   1.952   0.692  -1.156  0.6807  0.7523 -0.7687
  264MOL0     C35558   1.425   1.486  -0.435 -0.0571  0.3393 -0.5395
  264MOL0     C35559   1.363   1.586  -0.353  0.3713  0.4472  0.8540
  264MOL0     C35560   1.245   1.779   0.050 -0.4362 -0.7515  0.1468
  264MOL0     C35561   1.282   1.801   0.185 -0.1585  0.0093 -0.0990
  264MOL0     C35562   1.255   1.914   0.256  0.4152  0.4821  0.6528
  264MOL0     C35563   1.187   2.015   0.189  0.0972 -0.3725 -0.1041
  264MOL0     O35564   1.134   2.127   0.255 -0.1843 -0.1749  1.0492
  264MOL0     C35565   1.126   2.128   0.397 -0.2447 -0.3205  0.0406
  264MOL0     C35566   1.004   2.057   0.460 -0.6169  0.5306  0.2906
  264MOL0     C35567   0.991   2.085   0.615 -0.6704 -0.3515 -0.5119
  264MOL0     C35568   0.947   1.957   0.706 -0.3699 -0.2312  0.7001
  264MOL0     C35569   0.809   1.924   0.665  0.2628  0.2823 -0.4825
  264MOL0     C35570   0.690   1.900   0.634 -0.2287 -0.1874 -0.2590
  264MOL0     C35571   1.159   2.012   0.052 -0.7316  0.1632 -0.8344
  264MOL0     C35572   1.180   1.885  -0.013 -0.0656  1.0997 -0.2680
  264MOL0     H35573   1.296   1.382  -0.091 -0.6433  2.4249  0.2027
  264MOL0     H35574   1.410   1.216  -0.239 -0.0653 -0.0703  1.0011
  264MOL0     H35575   1.504   1.312  -0.675  1.7013  0.9064 -1.8054
  264MOL0     H35576   1.655   1.342  -0.593 -0.1517 -0.1374 -2.1563
  264MOL0     H35577   1.675   1.175  -0.760  1.4566  0.0509  0.9259
  264MOL0     H35578   1.715   1.109  -0.598 -0.9199  0.7809  2.7167
  264MOL0     H35579   1.512   0.993  -0.566  0.1992  1.1318  0.3313
  264MOL0     H35580   1.429   1.075  -0.693 -1.9033 -1.7061  3.2615
  264MOL0     H35581   1.470   0.849  -0.766  0.3061 -0.2511 -1.5564
  264MOL0     H35582   1.559   0.957  -0.866  0.8663  1.0775 -0.0433
  264MOL0     H35583   1.780   0.920  -0.762 -0.8386  1.5936 -0.4386
  264MOL0     H35584   1.697   0.826  -0.634 -1.3868 -1.1233 -0.8357
  264MOL0     H35585   1.807   0.672  -0.768 -0.4457 -2.0329 -1.5281
  264MOL0     H35586   1.632   0.642  -0.747 -0.3215 -0.3958 -1.4081
  264MOL0     H35587   1.596   0.712  -0.975 -1.8037  0.2006  3.5523
  264MOL0     H35588   1.734   0.816  -0.978 -2.6569 -0.2068  0.0054
  264MOL0     H35589   1.739   0.554  -1.090  2.1178 -0.6409 -0.8025
  264MOL0     H35590   1.777   0.518  -0.935  2.5707  0.1351  1.3518
  264MOL0     H35591   2.008   0.667  -0.838  0.7349  1.7422 -0.2406
  264MOL0     H35592   2.236   0.843  -0.863 -0.0181 -1.1683  0.3963
  264MOL0     H35593   2.314   0.754  -0.991  1.3573  1.2693  1.8135
  264MOL0     H35594   2.263   0.980  -1.140 -0.3775 -1.6919  0.0626
  264MOL0     H35595   2.368   0.996  -1.011  2.3635 -2.6796 -3.4529
  264MOL0     H35596   2.249   1.160  -0.945  0.8680 -0.6520  2.0427
  264MOL0     H35597   2.135   1.040  -0.874 -1.6846  1.0835 -0.4305
  264MOL0     H35598   1.975   1.051  -1.038  0.2316 -0.8114  0.3040
  264MOL0     H35599   2.053   1.166  -1.139 -0.9627 -1.9648  0.2791
  264MOL0     H35600   1.919   1.405  -0.792 -1.0308 -3.7405  1.7107
  264MOL0     H35601   1.686   1.648  -0.827 -1.5345 -0.6132  0.6569
  264MOL0     H35602   1.641   1.540  -0.694  0.7464 -0.6774 -0.5088
  264MOL0     H35603   1.812   1.602  -0.725  0.9944  0.3158 -0.1433
  264MOL0     H35604   1.355   1.803  -0.955  1.7630  0.0644  1.2196
  264MOL0     H35605   1.117   1.863  -0.915  1.9595 -0.3673 -1.0369
  264MOL0     H35606   0.822   1.549  -0.794 -2.5199 -0.6620  1.4298
  264MOL0     H35607   0.849   1.624  -0.637 -0.8317 -1.1575 -0.1176
  264MOL0     H35608   0.619   1.682  -0.710 -0.7511  2.6718 -0.7458
  264MOL0     H35609   0.735   1.820  -0.720 -1.0772  1.2298 -0.2388
  264MOL0     H35610   0.745   1.801  -0.963 -1.6898  3.4152 -0.3443
  264MOL0     H35611   0.577   1.817  -0.907  1.5794  2.6628  0.7462
  264MOL0     H35612   0.715   1.567  -1.013 -0.0897 -0.3418 -0.1239
  264MOL0     H35613   0.568   1.555  -0.910 -0.9185  1.1602 -0.2161
  264MOL0     H35614   0.579   1.717  -1.165 -1.3390 -1.3199 -1.5279
  264MOL0     H35615   0.445   1.708  -1.052  0.8609  1.3688  1.6987
  264MOL0     H35616   0.387   1.482  -1.150  0.6533  0.4300 -1.4241
  264MOL0     H35617   0.448   1.568  -1.278 -3.7337 -0.2233  0.6185
  264MOL0     H35618   0.614   1.364  -1.116  2.6454  0.6767 -0.4857
  264MOL0     H35619   0.687   1.486  -1.225  0.0095  2.1505 -0.7094
  264MOL0     H35620   0.534   1.393  -1.407  1.3568  0.3789 -0.1461
  264MOL0     H35621   0.509   1.259  -1.301 -1.2364  0.6183 -3.7085
  264MOL0     H35622   1.038   1.497  -0.713 -0.8439 -1.1794 -1.9407
  264MOL0     H35623   1.280   1.430  -0.744 -3.9167  0.0671  0.8454
  264MOL0     H35624   1.588   1.278  -1.120  0.2633 -0.2373  0.7050
  264MOL0     H35625   1.805   1.193  -1.149 -0.8002  0.8314  0.2419
  264MOL0     H35626   1.455   1.517  -0.535  2.3767 -1.6497 -0.5292
  264MOL0     H35627   1.362   1.690  -0.386  0.9178 -0.3333 -1.8977
  264MOL0     H35628   1.335   1.725   0.242 -0.6394 -0.0890  0.2213
  264MOL0     H35629   1.286   1.915   0.360 -0.4691  0.1151  0.9326
  264MOL0     H35630   1.221   2.091   0.437  0.8675 -0.5124 -2.5374
  264MOL0     H35631   1.113   2.231   0.433  2.0892  0.6085 -1.5217
  264MOL0     H35632   1.008   1.951   0.434  1.1728  1.0003 -1.6025
  264MOL0     H35633   0.911   2.097   0.419 -1.1488 -3.1359 -2.6071
  264MOL0     H35634   0.914   2.161   0.632 -1.3583 -0.2124 -3.6407
  264MOL0     H35635   1.087   2.128   0.646 -2.2744  1.8038  1.8707
  264MOL0     H35636   0.943   1.974   0.813  0.1758  0.9247  0.5537
  264MOL0     H35637   1.021   1.878   0.686 -0.2949  0.2219 -0.9790
  264MOL0     H35638   0.589   1.901   0.599  0.0763 -0.5963 -1.2127
  264MOL0     H35639   1.119   2.103   0.009 -0.3327  2.2869  2.8725
  264MOL0     H35640   1.151   1.878  -0.117  2.7210 -1.4238 -1.0309
  265MOL0     O35641   3.840   3.015   2.731 -0.2838  0.0316 -0.3651
  265MOL0     C35642   3.823   2.912   2.666  0.0012 -0.0170 -0.0862
  265MOL0     O35643   3.851   2.896   2.527  0.2955  0.5914 -0.0233
  265MOL0     C35644   3.883   3.005   2.448 -0.1999  0.1498 -0.7633
  265MOL0     C35645   4.019   3.025   2.415  0.0497  0.8259  0.3171
  265MOL0     C35646   4.049   3.112   2.306  0.2405 -0.9121  0.2192
  265MOL0     C35647   3.949   3.174   2.230 -0.1130  0.6918 -0.0068
  265MOL0     O35648   3.994   3.264   2.130 -0.5785  0.6518  0.6678
  265MOL0     C35649   3.906   3.368   2.092  0.0939  0.2772 -0.0864
  265MOL0     C35650   3.881   3.468   2.207  0.3501 -0.9398 -0.8032
  265MOL0     C35651   3.808   3.589   2.152 -0.2188  0.7631  0.8113
  265MOL0     C35652   3.729   3.654   2.264 -0.2593 -0.3381  0.7518
  265MOL0     C35653   3.668   3.792   2.222 -0.2047  0.5785 -0.6891
  265MOL0     C35654   3.536   3.849   2.295  0.1893  1.2068  0.7094
  265MOL0     C35655   3.413   3.801   2.228  0.3504  0.0094 -0.2141
  265MOL0     C35656   3.300   3.778   2.333  0.4589 -0.4896  0.4217
  265MOL0     N35657   3.229   3.910   2.369 -0.6657 -0.1114  0.1628
  265MOL0     C35658   3.151   3.979   2.279 -0.3061 -1.0491 -0.5544
  265MOL0     C35659   3.164   4.107   2.306 -0.8915  1.0156 -0.3310
  265MOL0     C35660   3.095   4.226   2.244 -0.2061  0.4948 -0.2700
  265MOL0     C35661   3.091   4.234   2.086 -0.0244 -0.8974 -0.1887
  265MOL0     C35662   3.227   4.243   2.019  0.3339  0.2172 -0.2771
  265MOL0     C35663   3.238   4.197   1.875  0.4552 -0.3175  0.5738
  265MOL0     O35664   3.115   4.242   1.812 -1.1709 -0.3424  0.1061
  265MOL0     C35665   3.097   4.242   1.673 -0.2930 -0.0518  0.7168
  265MOL0     C35666   3.170   4.154   1.592  0.8622  0.1346 -0.1976
  265MOL0     C35667   3.141   4.143   1.452 -0.2757  0.2582  0.0038
  265MOL0     C35668   3.217   4.037   1.379 -0.0436  0.6103 -0.5044
  265MOL0     C35669   3.030   4.209   1.395  0.2778  0.8336 -0.1875
  265MOL0     C35670   2.970   4.183   1.263  0.6838  0.1639  0.5848
  265MOL0     O35671   2.882   4.275   1.211  0.0611  0.3948 -0.4336
  265MOL0     C35672   2.853   4.278   1.082 -0.3907 -0.1498 -1.2796
  265MOL0     C35673   2.916   4.366   1.000  0.6711 -0.7168  0.8662
  265MOL0     C35674   2.864   4.372   0.868 -0.7099 -0.7361 -0.9399
  265MOL0     C35675   2.770   4.289   0.813 -0.2451  0.1830  0.3260
  265MOL0     O35676   2.753   4.292   0.668  0.1757 -0.1388 -0.1001
  265MOL0     C35677   2.652   4.205   0.621 -1.1080 -0.1948  0.1995
  265MOL0     C35678   2.512   4.258   0.636  0.3572  0.1605 -0.0697
  265MOL0     C35679   2.466   4.362   0.531 -0.1836 -0.9681  0.1282
  265MOL0     C35680   2.528   4.499   0.551  0.4277  0.0541 -0.1309
  265MOL0     C35681   2.496   4.603   0.442 -0.0850 -0.5418  0.1161
  265MOL0     C35682   2.560   4.735   0.475 -1.1174  0.9634 -0.1744
  265MOL0     C35683   2.560   4.825   0.348 -0.2767 -0.3643 -0.0906
  265MOL0     C35684   2.425   4.906   0.354  0.4500 -0.5525 -0.5742
  265MOL0    Cl35685   2.413   5.040   0.238  0.5598  0.0319 -0.6764
  265MOL0     C35686   2.713   4.201   0.903  0.7480 -0.2783 -0.4214
  265MOL0     C35687   2.749   4.197   1.040 -0.4011 -0.6372  0.7485
  265MOL0     O35688   3.010   4.080   1.209 -0.7100  0.2398 -0.6570
  265MOL0     C35689   2.957   4.297   1.480  0.4417  0.3590  0.1709
  265MOL0     C35690   2.988   4.313   1.620  0.0283 -0.3536  0.5986
  265MOL0     N35691   3.249   4.119   2.410  0.4810  0.6518 -0.1691
  265MOL0     N35692   3.281   4.002   2.453  0.7003  0.2284  0.7046
  265MOL0     C35693   3.815   3.152   2.266  0.4130 -0.2125  0.1642
  265MOL0     C35694   3.784   3.075   2.379 -0.8632 -0.2391  0.4971
  265MOL0     C35695   3.785   2.775   2.731 -0.8138 -0.2408  0.9618
  265MOL0     C35696   3.790   2.651   2.664 -0.4112 -1.5063  0.4020
  265MOL0     C35697   3.767   2.529   2.730  0.1244 -0.1153 -0.0176
  265MOL0     C35698   3.728   2.520   2.857  0.7077  0.0986 -0.2835
  265MOL0     O35699   3.694   2.392   2.902  0.1218 -0.3336  0.4998
  265MOL0     C35700   3.600   2.382   3.017  0.8304 -0.5112 -0.3838
  265MOL0     C35701   3.499   2.262   3.008 -1.1358 -0.1332  0.2318
  265MOL0     C35702   3.430   2.248   2.873  0.5052 -0.1126  0.0178
  265MOL0     C35703   3.305   2.162   2.867 -0.4197 -0.2468 -0.0164
  265MOL0     C35704   3.203   2.196   2.763  0.1660  0.3504 -0.2110
  265MOL0     C35705   3.137   2.204   2.662 -0.0883 -0.2532 -0.1521
  265MOL0     C35706   3.737   2.647   2.932 -0.3307 -0.3134 -0.7081
  265MOL0     C35707   3.766   2.771   2.871 -0.2383 -0.2557  0.6668
  265MOL0     H35708   4.086   2.958   2.467 -2.3341 -2.2680 -0.2688
  265MOL0     H35709   4.155   3.122   2.281 -0.1897 -0.1531 -1.4585
  265MOL0     H35710   3.947   3.418   2.004 -0.0652  0.9661  0.2274
  265MOL0     H35711   3.809   3.326   2.065  0.1648  0.6904 -1.0380
  265MOL0     H35712   3.831   3.414   2.288  1.7561 -0.0758  0.6985
  265MOL0     H35713   3.975   3.504   2.250 -1.4588  1.8627  1.1598
  265MOL0     H35714   3.884   3.657   2.112  1.5953 -0.7179  1.6068
  265MOL0     H35715   3.740   3.556   2.073  1.8096  0.3419 -0.8510
  265MOL0     H35716   3.662   3.587   2.319 -0.5262 -0.1543  0.6507
  265MOL0     H35717   3.804   3.687   2.336  0.2629  1.4703 -0.5427
  265MOL0     H35718   3.750   3.864   2.221  0.7680 -0.4734  0.2511
  265MOL0     H35719   3.627   3.776   2.121 -0.0758  2.1365 -1.0070
  265MOL0     H35720   3.522   3.829   2.401 -0.0713  0.3801  0.5255
  265MOL0     H35721   3.526   3.958   2.284 -0.6054  0.9836 -1.3309
  265MOL0     H35722   3.386   3.871   2.148 -1.0806 -2.3843 -1.9266
  265MOL0     H35723   3.415   3.706   2.174 -0.7171 -1.3180  1.9358
  265MOL0     H35724   3.340   3.725   2.420 -2.4452 -1.6301  1.1645
  265MOL0     H35725   3.229   3.705   2.293  0.0900  1.0800 -1.9634
  265MOL0     H35726   3.108   3.931   2.192 -1.6673 -0.3223 -0.3028
  265MOL0     H35727   2.992   4.237   2.281 -0.4268  2.0593 -1.2220
  265MOL0     H35728   3.147   4.311   2.289 -1.0201 -0.2694  2.2793
  265MOL0     H35729   3.029   4.317   2.050  1.7852  0.0032 -1.3777
  265MOL0     H35730   3.046   4.140   2.054 -1.8975 -0.0757 -0.0779
  265MOL0     H35731   3.299   4.172   2.060  1.5231  0.4684 -1.8591
  265MOL0     H35732   3.275   4.340   2.037 -0.5432  0.6971 -0.4903
  265MOL0     H35733   3.248   4.088   1.869 -1.5633 -0.5025 -0.1436
  265MOL0     H35734   3.322   4.247   1.825  1.6683 -1.6172  1.2142
  265MOL0     H35735   3.250   4.102   1.645  0.3504  1.8540  2.4507
  265MOL0     H35736   3.251   4.083   1.286 -0.1783 -0.2246 -0.9753
  265MOL0     H35737   3.301   3.989   1.431 -1.2087  0.7842  1.6731
  265MOL0     H35738   3.150   3.954   1.356  0.9186 -0.7727  1.3479
  265MOL0     H35739   2.995   4.434   1.030 -1.0976  1.9953 -0.1956
  265MOL0     H35740   2.915   4.447   0.810 -0.5422  0.7647  1.0339
  265MOL0     H35741   2.663   4.172   0.517 -0.3643 -0.1626  0.2614
  265MOL0     H35742   2.671   4.117   0.683 -0.1445 -2.4977 -3.0727
  265MOL0     H35743   2.444   4.172   0.632  2.3700 -1.5454  0.4554
  265MOL0     H35744   2.499   4.314   0.729  2.0420  1.9135 -0.8177
  265MOL0     H35745   2.358   4.372   0.539 -0.4555 -1.0902 -2.6405
  265MOL0     H35746   2.495   4.323   0.433  0.6585 -1.5796  0.6033
  265MOL0     H35747   2.503   4.535   0.651 -0.5348 -1.6863  0.2856
  265MOL0     H35748   2.635   4.478   0.561  0.5695  1.7124  3.4279
  265MOL0     H35749   2.387   4.616   0.439 -0.7597 -4.5425  1.2776
  265MOL0     H35750   2.528   4.558   0.347 -0.6837 -1.8919  0.5239
  265MOL0     H35751   2.523   4.780   0.568 -0.6741  0.7586  0.1065
  265MOL0     H35752   2.668   4.721   0.481 -1.2437 -1.3216 -1.8752
  265MOL0     H35753   2.569   4.770   0.254  0.0556  1.0071 -0.9041
  265MOL0     H35754   2.648   4.888   0.364  1.4869 -2.9328  0.7773
  265MOL0     H35755   2.402   4.941   0.455 -2.3582  1.9809 -1.9204
  265MOL0     H35756   2.349   4.835   0.321  0.8302 -0.2383 -2.2306
  265MOL0     H35757   2.626   4.141   0.879  0.5207 -0.1150 -0.0194
  265MOL0     H35758   2.699   4.131   1.110 -1.2465 -2.5730 -1.5422
  265MOL0     H35759   2.879   4.359   1.437  1.9766  1.4777 -1.1094
  265MOL0     H35760   2.923   4.372   1.684  1.8512 -0.3042  2.4839
  265MOL0     H35761   3.733   3.193   2.208  0.8727  0.2623 -0.1612
  265MOL0     H35762   3.679   3.070   2.408 -0.4515  2.0408  2.7785
  265MOL0     H35763   3.808   2.639   2.557 -2.3795 -0.5976 -0.0978
  265MOL0     H35764   3.776   2.449   2.657  0.2851 -1.1512  1.1171
  265MOL0     H35765   3.658   2.360   3.107  3.1499  1.6436 -1.2391
  265MOL0     H35766   3.547   2.474   3.041  1.4563 -0.6097  1.5709
  265MOL0     H35767   3.425   2.278   3.087  0.4496 -0.3416  1.8051
  265MOL0     H35768   3.551   2.169   3.033  2.4115  1.3671 -0.8619
  265MOL0     H35769   3.510   2.209   2.809 -0.0264 -1.8113  0.3528
  265MOL0     H35770   3.389   2.347   2.851 -2.3823 -0.7672  1.8634
  265MOL0     H35771   3.253   2.164   2.963 -1.2179 -4.8041 -0.1033
  265MOL0     H35772   3.336   2.057   2.860 -1.4452 -0.5967  0.4170
  265MOL0     H35773   3.083   2.206   2.570  1.3519  0.2389 -1.0230
  265MOL0     H35774   3.714   2.645   3.038  0.4082 -0.2866 -0.5376
  265MOL0     H35775   3.754   2.869   2.916 -3.5630  1.4317 -3.2169
  266MOL0     O35776   9.944   8.926   7.134  0.0269 -0.0274  0.1580
  266MOL0     C35777  10.009   8.973   7.222  0.7028 -0.7179 -0.1574
  266MOL0     O35778  10.119   8.909   7.278  0.1306 -0.4519 -0.6914
  266MOL0     C35779  10.134   8.782   7.227  0.3154 -0.2428  0.1000
  266MOL0     C35780  10.064   8.671   7.285 -0.2149 -0.5476 -0.7657
  266MOL0     C35781  10.087   8.545   7.233 -0.4576 -0.0395 -0.4486
  266MOL0     C35782  10.181   8.527   7.132  0.7539  0.0027 -1.1704
  266MOL0     O35783  10.205   8.391   7.107 -0.6955  0.0966  0.0477
  266MOL0     C35784  10.287   8.359   6.994  0.7209 -0.3085  0.4015
  266MOL0     C35785  10.308   8.214   6.989  0.3647 -0.0180 -0.2429
  266MOL0     C35786  10.405   8.153   6.885 -0.1996  0.6833 -0.2476
  266MOL0     C35787  10.546   8.137   6.940  0.4320 -0.1384  0.2552
  266MOL0     C35788  10.647   8.108   6.823  0.0742  0.6182 -0.5962
  266MOL0     C35789  10.635   7.972   6.742  0.7252  0.1766  0.3808
  266MOL0     C35790  10.622   7.844   6.822  0.4866 -0.4219  0.1233
  266MOL0     C35791  10.628   7.723   6.734  0.1880  0.0719  0.6820
  266MOL0     N35792  10.659   7.598   6.791 -0.8046 -0.0067  0.1462
  266MOL0     C35793  10.765   7.552   6.866  0.5708 -0.7671 -0.7128
  266MOL0     C35794  10.747   7.420   6.887 -0.2736  0.6059 -0.5275
  266MOL0     C35795  10.853   7.349   6.968  0.2755  1.2157 -0.3189
  266MOL0     C35796  10.838   7.195   6.951 -0.2936 -0.8586 -0.4737
  266MOL0     C35797  10.918   7.133   6.832 -0.1716  0.3035  0.3416
  266MOL0     C35798  10.911   7.205   6.703  0.6874  0.2092  0.5599
  266MOL0     O35799  10.959   7.126   6.592 -0.3914 -0.1315 -0.3016
  266MOL0     C35800  10.978   7.185   6.465 -0.0220 -0.4595 -0.6895
  266MOL0     C35801  10.952   7.315   6.417 -1.1730  0.0755 -0.9933
  266MOL0     C35802  10.979   7.360   6.285 -0.5741  0.0397  0.7169
  266MOL0     C35803  10.946   7.501   6.235 -0.0980  0.0472 -0.6850
  266MOL0     C35804  11.031   7.268   6.194 -1.0229 -0.2956 -0.4192
  266MOL0     C35805  11.064   7.309   6.056  0.2538 -0.2240  0.1189
  266MOL0     O35806  11.156   7.410   6.030 -0.4651  0.4313 -0.8569
  266MOL0     C35807  11.167   7.450   5.898  0.0459 -0.5630 -0.0867
  266MOL0     C35808  11.252   7.385   5.805 -0.6450 -0.1813  0.6104
  266MOL0     C35809  11.261   7.418   5.666 -0.2166 -0.2450  0.0644
  266MOL0     C35810  11.185   7.523   5.620  0.5390 -0.1517  0.0238
  266MOL0     O35811  11.185   7.548   5.484 -1.0224  0.6092 -0.3607
  266MOL0     C35812  11.145   7.678   5.442  0.3933  0.0317  0.3888
  266MOL0     C35813  11.185   7.724   5.302  0.2955 -0.3791  0.9753
  266MOL0     C35814  11.338   7.727   5.268  0.2924 -0.5481 -0.2238
  266MOL0     C35815  11.376   7.799   5.135  0.5847 -0.3625 -0.0580
  266MOL0     C35816  11.522   7.822   5.127  0.2225  0.4482  0.0286
  266MOL0     C35817  11.567   7.912   5.005  0.2431  0.5779  0.3088
  266MOL0     C35818  11.717   7.939   5.031  0.3114 -0.6517 -0.0273
  266MOL0     C35819  11.781   7.988   4.906 -0.9037  0.3594 -0.5572
  266MOL0    Cl35820  11.951   8.029   4.945  0.1993  0.3505 -0.6319
  266MOL0     C35821  11.102   7.601   5.712 -0.6167  0.2453  0.1103
  266MOL0     C35822  11.091   7.557   5.842  0.2013 -0.4511  0.6807
  266MOL0     O35823  10.985   7.267   5.968  0.0481  0.1112  0.1503
  266MOL0     C35824  11.073   7.141   6.238 -0.2266  0.4173  0.2627
  266MOL0     C35825  11.042   7.104   6.368 -0.7605 -0.8222 -0.2487
  266MOL0     N35826  10.624   7.381   6.841  0.3451 -0.0577 -0.6275
  266MOL0     N35827  10.578   7.484   6.778  0.7080 -0.5956 -0.5877
  266MOL0     C35828  10.252   8.635   7.079  0.0001 -0.3029 -0.3431
  266MOL0     C35829  10.231   8.760   7.133  0.1245  0.1963  0.2311
  266MOL0     C35830   9.981   9.108   7.284 -0.9033  0.5188 -0.5120
  266MOL0     C35831   9.855   9.167   7.279 -0.9346  0.5743 -0.2910
  266MOL0     C35832   9.830   9.286   7.346  0.9141  0.3570  0.1769
  266MOL0     C35833   9.929   9.349   7.418  0.2041  0.8260 -0.3859
  266MOL0     O35834   9.890   9.443   7.505 -0.1753  1.1034  0.2288
  266MOL0     C35835   9.984   9.537   7.557  0.0605 -0.4402 -0.1844
  266MOL0     C35836   9.902   9.641   7.642 -0.2621  0.8944  0.3270
  266MOL0     C35837   9.859   9.758   7.542  0.5244  0.5145  0.5383
  266MOL0     C35838   9.737   9.837   7.589 -0.1959 -0.0363 -0.8499
  266MOL0     C35839   9.692   9.956   7.505  0.2181  0.1673  0.1667
  266MOL0     C35840   9.635  10.021   7.419 -0.1301 -0.3474  0.8495
  266MOL0     C35841  10.059   9.301   7.416 -0.1281 -0.2318 -0.1341
  266MOL0     C35842  10.089   9.182   7.348  0.4891  0.6839  0.2607
  266MOL0     H35843   9.983   8.685   7.355  1.8123  1.9176  1.2951
  266MOL0     H35844  10.044   8.454   7.274 -0.7443 -0.2406 -1.1662
  266MOL0     H35845  10.234   8.381   6.902  1.7804 -2.8688 -0.9201
  266MOL0     H35846  10.378   8.420   6.996 -0.0146  0.9979 -1.9373
  266MOL0     H35847  10.346   8.183   7.086 -1.8293  0.4762  0.8331
  266MOL0     H35848  10.210   8.168   6.971  0.7440 -0.2716 -1.9086
  266MOL0     H35849  10.371   8.052   6.862  0.8566 -0.7560  3.6856
  266MOL0     H35850  10.402   8.220   6.799 -2.0551 -0.0855 -0.8186
  266MOL0     H35851  10.570   8.231   6.990  0.6614  0.3115 -0.6740
  266MOL0     H35852  10.541   8.050   7.006 -2.7222 -1.0687 -0.9972
  266MOL0     H35853  10.651   8.190   6.751 -1.6437 -0.2684 -1.7684
  266MOL0     H35854  10.745   8.109   6.870  0.2817  1.7564 -1.0107
  266MOL0     H35855  10.541   7.984   6.688  0.3975 -2.0521  0.3662
  266MOL0     H35856  10.721   7.977   6.674 -1.0981  1.1042 -1.9642
  266MOL0     H35857  10.696   7.846   6.903  0.7748  1.1965 -0.1410
  266MOL0     H35858  10.523   7.845   6.867 -0.0662 -4.2346 -0.6554
  266MOL0     H35859  10.711   7.734   6.663  1.4911  0.3299  2.1824
  266MOL0     H35860  10.544   7.712   6.665 -0.9557 -1.2294  2.2379
  266MOL0     H35861  10.856   7.603   6.898  1.1103 -1.2464 -1.4413
  266MOL0     H35862  10.947   7.374   6.918 -0.0849  1.4897 -0.8666
  266MOL0     H35863  10.846   7.374   7.075 -1.2352  0.5624 -0.2355
  266MOL0     H35864  10.741   7.160   6.914  0.8257 -1.9814 -2.5223
  266MOL0     H35865  10.852   7.147   7.049  2.1487  2.1732  0.8419
  266MOL0     H35866  10.886   7.030   6.812  2.4671 -0.9769  2.1718
  266MOL0     H35867  11.022   7.132   6.866  0.2589  1.0612 -0.8996
  266MOL0     H35868  10.966   7.299   6.711  1.9369 -0.0683 -2.8403
  266MOL0     H35869  10.807   7.233   6.684  1.1293 -0.4650 -3.8524
  266MOL0     H35870  10.898   7.383   6.482  0.0650  2.1053 -1.9835
  266MOL0     H35871  10.905   7.560   6.318  2.3001 -0.0663  0.6879
  266MOL0     H35872  11.035   7.553   6.201  1.8346 -0.7408  2.6729
  266MOL0     H35873  10.869   7.495   6.158  0.9327 -4.1261 -1.6363
  266MOL0     H35874  11.303   7.303   5.855  1.2135 -0.3315 -1.3935
  266MOL0     H35875  11.312   7.357   5.593 -0.8622 -2.6172  1.4918
  266MOL0     H35876  11.036   7.680   5.450  0.2482  0.8832 -1.3251
  266MOL0     H35877  11.176   7.743   5.524  0.5750 -1.6027  1.6568
  266MOL0     H35878  11.141   7.653   5.231 -0.2379 -0.2079  1.1320
  266MOL0     H35879  11.146   7.819   5.266 -0.9347 -1.0882  0.3520
  266MOL0     H35880  11.386   7.630   5.257 -0.6903 -1.2275  1.2346
  266MOL0     H35881  11.389   7.779   5.349  0.8666 -1.0954 -0.2265
  266MOL0     H35882  11.349   7.746   5.044  0.8749  1.5937 -1.3514
  266MOL0     H35883  11.323   7.895   5.142  0.6148 -0.3879  0.6947
  266MOL0     H35884  11.571   7.726   5.112 -0.3507  0.3599 -1.4423
  266MOL0     H35885  11.556   7.874   5.217  0.7160 -0.7340  0.5383
  266MOL0     H35886  11.545   7.866   4.909  0.8815 -1.2543  0.9901
  266MOL0     H35887  11.502   8.000   5.011 -1.9686 -0.9518 -0.0727
  266MOL0     H35888  11.765   7.853   5.079 -0.3599 -0.1963  1.5293
  266MOL0     H35889  11.728   8.020   5.104  1.2801 -1.3661  0.6377
  266MOL0     H35890  11.733   8.077   4.863 -0.0668  0.4937 -1.2383
  266MOL0     H35891  11.766   7.904   4.838  0.5510 -0.3768  0.0007
  266MOL0     H35892  11.050   7.692   5.685  0.9682  0.5172 -2.3649
  266MOL0     H35893  11.028   7.612   5.912  1.4061 -1.6917  2.8676
  266MOL0     H35894  11.111   7.066   6.170 -4.8287 -2.7141  0.6602
  266MOL0     H35895  11.066   7.004   6.405 -0.1363 -0.8321 -0.6711
  266MOL0     H35896  10.316   8.629   6.991 -1.2105  0.5381 -1.3157
  266MOL0     H35897  10.284   8.846   7.094 -2.0163  1.5073  0.0393
  266MOL0     H35898   9.770   9.126   7.227 -2.2645  1.4167  1.1271
  266MOL0     H35899   9.736   9.340   7.336  0.3328 -1.0908 -3.9519
  266MOL0     H35900  10.063   9.483   7.610 -0.4115  1.0940  2.1977
  266MOL0     H35901  10.025   9.600   7.478 -0.6617  1.2561  0.7446
  266MOL0     H35902   9.961   9.679   7.725  0.2044  1.4273 -0.2421
  266MOL0     H35903   9.809   9.607   7.690 -0.7044 -0.6182 -1.4443
  266MOL0     H35904   9.832   9.712   7.447 -1.3517 -2.0783  2.1896
  266MOL0     H35905   9.938   9.827   7.510  1.3036 -0.5228  0.1394
  266MOL0     H35906   9.751   9.873   7.691  0.3831  0.3904 -1.0760
  266MOL0     H35907   9.646   9.776   7.596 -2.1293  2.7438  0.1723
  266MOL0     H35908   9.576  10.080   7.352 -1.2354 -3.2079 -0.8716
  266MOL0     H35909  10.140   9.347   7.471  0.7483 -0.4968 -1.1587
  266MOL0     H35910  10.191   9.147   7.356  0.0685 -1.0076 -1.1428
  267MOL0     O35911   9.058   8.213   8.388  0.5527  0.0178  0.5870
  267MOL0     C35912   9.130   8.139   8.317  0.3147  0.3612  0.1264
  267MOL0     O35913   9.074   8.073   8.209 -0.1505 -0.2239  0.7304
  267MOL0     C35914   8.939   8.059   8.206 -0.9612 -0.4679  0.3527
  267MOL0     C35915   8.859   8.161   8.152 -1.6172 -0.7124  0.2727
  267MOL0     C35916   8.717   8.154   8.128  0.3766 -0.3081 -0.0387
  267MOL0     C35917   8.657   8.036   8.178  0.4271 -0.1579  0.1624
  267MOL0     O35918   8.523   8.011   8.180  0.0514 -0.1041 -0.0478
  267MOL0     C35919   8.443   8.115   8.137  0.3715  0.2653  0.2208
  267MOL0     C35920   8.301   8.063   8.155 -0.6263 -0.0532 -0.0576
  267MOL0     C35921   8.203   8.119   8.054  0.2513 -0.5196  0.3424
  267MOL0     C35922   8.068   8.050   8.071  0.3046 -0.3670  0.1887
  267MOL0     C35923   7.980   8.057   7.951 -0.1096  0.0847  0.1721
  267MOL0     C35924   7.846   7.985   7.980 -1.0666  0.0159 -0.1890
  267MOL0     C35925   7.746   7.994   7.866 -0.2046 -0.7343 -0.6890
  267MOL0     C35926   7.614   7.936   7.918  0.5520  0.6209 -0.1395
  267MOL0     N35927   7.542   8.028   8.007 -0.1921  1.1462  1.3699
  267MOL0     C35928   7.544   8.028   8.140  0.5240  0.0030 -0.1954
  267MOL0     C35929   7.464   8.139   8.183 -0.2720 -0.5488 -0.2936
  267MOL0     C35930   7.449   8.181   8.327  1.2960  0.3728 -0.3886
  267MOL0     C35931   7.588   8.237   8.380  0.4401  0.3248  0.3171
  267MOL0     C35932   7.605   8.205   8.530  0.2800  0.2051  0.9334
  267MOL0     C35933   7.722   8.276   8.594 -0.3864 -0.6974  0.5555
  267MOL0     O35934   7.685   8.402   8.662  0.0466  0.1323  0.3253
  267MOL0     C35935   7.775   8.482   8.722 -0.5323  0.4429 -0.1905
  267MOL0     C35936   7.733   8.580   8.812 -0.1670  0.6607  0.9044
  267MOL0     C35937   7.825   8.662   8.883 -1.0103  0.5166 -0.1563
  267MOL0     C35938   7.774   8.764   8.983 -0.6431 -0.3742 -0.0437
  267MOL0     C35939   7.970   8.634   8.875  0.1294  0.1838  0.6944
  267MOL0     C35940   8.080   8.716   8.943 -0.1103 -0.2227 -0.1482
  267MOL0     O35941   8.201   8.660   8.934 -0.1454  0.1990  0.3893
  267MOL0     C35942   8.298   8.674   9.029 -0.1262  0.0514  0.3332
  267MOL0     C35943   8.427   8.639   8.996 -0.6551 -0.4477  0.0633
  267MOL0     C35944   8.536   8.653   9.089  0.0802  0.2222  0.7444
  267MOL0     C35945   8.507   8.693   9.224  0.0901 -0.3497  0.1462
  267MOL0     O35946   8.600   8.710   9.322 -0.2568 -0.2213 -0.0729
  267MOL0     C35947   8.733   8.756   9.289  0.3541  0.2169  0.1311
  267MOL0     C35948   8.785   8.851   9.390 -1.0208 -0.3138 -0.2602
  267MOL0     C35949   8.717   8.984   9.362  0.6823  0.2193 -0.4113
  267MOL0     C35950   8.759   9.092   9.454 -0.0261 -0.2712 -0.9111
  267MOL0     C35951   8.892   9.166   9.433  0.1882  0.7616 -0.6973
  267MOL0     C35952   8.896   9.305   9.510 -0.8664 -0.6413  0.4186
  267MOL0     C35953   9.016   9.384   9.458 -0.5831  0.1025 -0.4947
  267MOL0     C35954   9.083   9.454   9.578 -0.5182  0.1410  0.4927
  267MOL0    Cl35955   9.179   9.323   9.664  0.1433 -0.1918 -0.8398
  267MOL0     C35956   8.375   8.726   9.252  0.0588  0.2206 -0.6527
  267MOL0     C35957   8.271   8.712   9.161  0.6988  0.1066 -0.2179
  267MOL0     O35958   8.058   8.829   8.993  0.2917  0.2714  0.1622
  267MOL0     C35959   8.003   8.538   8.785 -0.2452  1.0530  0.0121
  267MOL0     C35960   7.914   8.461   8.709 -0.6558 -0.5602  0.0497
  267MOL0     N35961   7.418   8.191   8.063  0.5968 -0.6905  0.0541
  267MOL0     N35962   7.456   8.122   7.963 -0.2468  0.0290 -0.6069
  267MOL0     C35963   8.738   7.935   8.238 -0.2628  0.8715  1.1753
  267MOL0     C35964   8.876   7.942   8.245 -0.4669 -0.4565  0.8065
  267MOL0     C35965   9.271   8.121   8.352 -0.4485  0.6655  0.2321
  267MOL0     C35966   9.356   8.041   8.279 -0.5501 -0.1139  0.1543
  267MOL0     C35967   9.491   8.011   8.331 -0.1555 -0.3766  0.0371
  267MOL0     C35968   9.537   8.069   8.455 -0.4236 -0.5866  0.5770
  267MOL0     O35969   9.661   8.045   8.518 -0.4339 -1.0797 -0.3418
  267MOL0     C35970   9.766   8.013   8.432  0.0733  0.4331  0.0465
  267MOL0     C35971   9.900   8.003   8.502 -1.0654  0.1854  0.6214
  267MOL0     C35972   9.912   7.878   8.585 -0.3114 -0.4151  0.3254
  267MOL0     C35973   9.881   7.890   8.733 -0.1142 -0.6852  0.3814
  267MOL0     C35974   9.866   7.759   8.802  0.5780 -0.7602  0.2995
  267MOL0     C35975   9.852   7.656   8.857 -0.1954 -0.7815  0.6001
  267MOL0     C35976   9.453   8.148   8.517 -1.3571  0.7779 -0.7127
  267MOL0     C35977   9.327   8.171   8.469  0.5765  0.3179 -1.1264
  267MOL0     H35978   8.912   8.246   8.112 -2.0582 -1.0156 -1.0170
  267MOL0     H35979   8.663   8.239   8.086  0.7358 -0.1343 -0.1595
  267MOL0     H35980   8.467   8.213   8.180  1.3344 -1.3270  3.6492
  267MOL0     H35981   8.459   8.129   8.030  1.9323 -1.0895  0.2469
  267MOL0     H35982   8.296   7.956   8.131 -2.6754 -0.3010  1.1784
  267MOL0     H35983   8.289   8.078   8.262  0.2322  0.4062 -0.0208
  267MOL0     H35984   8.191   8.228   8.060  0.4016 -0.1276 -3.6846
  267MOL0     H35985   8.245   8.104   7.954  2.2533  2.6081  0.5458
  267MOL0     H35986   8.083   7.942   8.079  0.3437 -0.2449  2.1485
  267MOL0     H35987   8.024   8.079   8.166  0.1009  0.6311 -0.1943
  267MOL0     H35988   7.948   8.155   7.913 -2.0307 -1.4016 -2.4635
  267MOL0     H35989   8.041   8.011   7.873  0.3199  0.7435  0.1132
  267MOL0     H35990   7.872   7.881   8.002 -0.0141  0.2629 -0.1815
  267MOL0     H35991   7.802   8.039   8.065  2.0726 -1.3285  2.5373
  267MOL0     H35992   7.738   8.100   7.839  1.9961 -0.2263  0.4248
  267MOL0     H35993   7.788   7.945   7.778  2.5941  0.1695  0.0411
  267MOL0     H35994   7.636   7.845   7.975 -1.4877 -0.5046 -1.0525
  267MOL0     H35995   7.570   7.901   7.824  0.3162 -0.5539  0.3990
  267MOL0     H35996   7.592   7.964   8.213 -0.4421 -1.0463 -0.4504
  267MOL0     H35997   7.368   8.250   8.349  2.0909  1.0009  0.6368
  267MOL0     H35998   7.414   8.091   8.380 -2.8454  0.1358 -3.0475
  267MOL0     H35999   7.613   8.337   8.342  0.0447 -0.1525 -1.3140
  267MOL0     H36000   7.668   8.180   8.333 -0.9736 -1.2210 -0.3018
  267MOL0     H36001   7.615   8.097   8.537 -1.2272  0.1160  2.8280
  267MOL0     H36002   7.523   8.236   8.597 -1.0936  0.1468 -0.6443
  267MOL0     H36003   7.780   8.303   8.505 -2.8393  0.2848 -0.8461
  267MOL0     H36004   7.777   8.208   8.660 -0.7440  1.1116  2.8141
  267MOL0     H36005   7.628   8.604   8.827 -0.7251 -2.2507  2.2841
  267MOL0     H36006   7.838   8.780   9.070  1.0170 -1.5322 -0.9943
  267MOL0     H36007   7.758   8.856   8.926  2.1766 -0.7954 -1.6672
  267MOL0     H36008   7.678   8.720   9.013 -0.7709 -1.0924 -1.4033
  267MOL0     H36009   8.452   8.598   8.899 -2.4460 -0.7562 -0.3041
  267MOL0     H36010   8.640   8.645   9.062 -0.4745 -0.4263 -1.3469
  267MOL0     H36011   8.796   8.670   9.266  1.0109  0.9958 -1.1007
  267MOL0     H36012   8.733   8.814   9.196 -2.8531 -0.8816 -0.6680
  267MOL0     H36013   8.764   8.798   9.484 -1.0480  0.4616  0.1748
  267MOL0     H36014   8.894   8.857   9.377 -1.0522  2.3734  0.3045
  267MOL0     H36015   8.612   8.963   9.385  1.2623 -2.6128  0.0065
  267MOL0     H36016   8.739   9.018   9.261  1.6202  1.5755  0.2167
  267MOL0     H36017   8.686   9.172   9.453  0.8659  1.0069  4.3888
  267MOL0     H36018   8.761   9.048   9.554  3.8569 -0.9217 -1.1125
  267MOL0     H36019   8.913   9.183   9.327 -0.9560 -2.2124 -1.5221
  267MOL0     H36020   8.975   9.103   9.466 -0.3803 -0.9755 -2.3644
  267MOL0     H36021   8.799   9.352   9.489 -1.2445  0.4041  3.8749
  267MOL0     H36022   8.889   9.285   9.617  1.6412 -1.1422  0.5422
  267MOL0     H36023   8.973   9.454   9.385 -1.5254  0.1447  0.0874
  267MOL0     H36024   9.088   9.321   9.405 -2.4505 -0.7860 -2.1290
  267MOL0     H36025   9.023   9.517   9.645 -0.4100  2.2129 -1.2399
  267MOL0     H36026   9.153   9.526   9.534 -0.1928 -1.5293 -1.8940
  267MOL0     H36027   8.347   8.760   9.352 -1.3053 -3.7196  0.4703
  267MOL0     H36028   8.168   8.735   9.187  1.0220  1.4021 -0.0080
  267MOL0     H36029   8.110   8.521   8.769  0.0142  1.8460  0.8469
  267MOL0     H36030   7.949   8.384   8.640 -0.6978 -0.9860  0.4965
  267MOL0     H36031   8.685   7.843   8.263 -3.0912  1.8102 -0.8457
  267MOL0     H36032   8.939   7.869   8.294 -1.4985 -2.5362 -0.8008
  267MOL0     H36033   9.326   8.024   8.176 -3.3881 -1.1342  1.0454
  267MOL0     H36034   9.550   7.949   8.265 -0.7257  0.2910 -1.1508
  267MOL0     H36035   9.742   7.918   8.383 -4.4267  0.8638  1.0097
  267MOL0     H36036   9.777   8.085   8.351  2.2189 -0.9955 -1.0485
  267MOL0     H36037   9.919   8.088   8.568 -0.8614 -1.6729  3.1394
  267MOL0     H36038   9.976   8.003   8.424 -1.1551 -0.5266  0.5264
  267MOL0     H36039  10.007   7.826   8.567 -2.0275 -2.8059 -3.1148
  267MOL0     H36040   9.852   7.793   8.553  2.1028 -2.2142  0.2353
  267MOL0     H36041   9.796   7.958   8.747  1.0837  0.5855  1.9492
  267MOL0     H36042   9.966   7.940   8.781  0.1150 -1.4498  0.7788
  267MOL0     H36043   9.829   7.559   8.896 -3.1422 -0.9367 -1.2150
  267MOL0     H36044   9.477   8.180   8.618 -1.3085 -2.5442  0.4512
  267MOL0     H36045   9.262   8.234   8.529  0.3781 -0.2649 -0.7310
  268MOL0     O36046   9.665   8.624   5.431  0.6277  0.3198 -0.5073
  268MOL0     C36047   9.759   8.602   5.507 -0.6131 -0.1713  0.2293
  268MOL0     O36048   9.812   8.480   5.556  0.2584  0.1515  0.3362
  268MOL0     C36049   9.721   8.384   5.596 -0.5314  0.2930 -0.2286
  268MOL0     C36050   9.614   8.417   5.681 -0.0341  0.8563  0.4254
  268MOL0     C36051   9.529   8.313   5.731  0.1765 -0.1615 -0.1791
  268MOL0     C36052   9.545   8.180   5.690  1.1765 -0.2123 -0.4574
  268MOL0     O36053   9.447   8.081   5.697 -0.0072  0.0576  0.1531
  268MOL0     C36054   9.477   7.955   5.772  0.1893  0.4172 -0.0093
  268MOL0     C36055   9.465   7.957   5.918  0.6584  0.0643 -0.1946
  268MOL0     C36056   9.340   8.028   5.963  0.6196  0.1224 -0.1697
  268MOL0     C36057   9.322   8.044   6.111  0.0232  0.2707  0.3476
  268MOL0     C36058   9.391   7.948   6.203 -1.0545  0.3029 -1.0778
  268MOL0     C36059   9.358   7.977   6.352 -0.0994 -0.1753  0.3979
  268MOL0     C36060   9.431   8.105   6.401  0.2090  1.2864  0.2107
  268MOL0     C36061   9.399   8.151   6.540 -0.3197  0.4618  0.5531
  268MOL0     N36062   9.263   8.200   6.559  0.0903  0.3547  0.1521
  268MOL0     C36063   9.205   8.295   6.480 -0.3859  0.3837 -0.9288
  268MOL0     C36064   9.085   8.313   6.526  0.4325  0.1621 -0.2550
  268MOL0     C36065   8.985   8.406   6.481 -0.2485  0.4456  0.4331
  268MOL0     C36066   8.845   8.361   6.503  0.0516  0.2426  0.6447
  268MOL0     C36067   8.805   8.248   6.400 -0.4784  0.0720 -0.3031
  268MOL0     C36068   8.669   8.191   6.421 -0.3667 -0.3087 -0.2675
  268MOL0     O36069   8.574   8.287   6.378  0.4059 -0.4696  0.0495
  268MOL0     C36070   8.450   8.247   6.326 -0.0644  0.3632  0.5402
  268MOL0     C36071   8.348   8.337   6.332  1.1970 -0.4806 -0.3923
  268MOL0     C36072   8.230   8.322   6.261  0.1927 -0.2555  0.3854
  268MOL0     C36073   8.135   8.443   6.265 -0.4797 -0.7314  1.0688
  268MOL0     C36074   8.207   8.214   6.174  0.5959  0.2211  0.2311
  268MOL0     C36075   8.079   8.183   6.114 -0.8243  0.0426 -0.1396
  268MOL0     O36076   8.080   8.131   5.988 -0.2049 -0.4279  0.8576
  268MOL0     C36077   7.965   8.068   5.943  0.6874  0.1704 -0.0623
  268MOL0     C36078   7.930   7.951   5.999 -0.2833 -0.1221 -0.1966
  268MOL0     C36079   7.816   7.880   5.965  0.4361  0.0509 -0.7400
  268MOL0     C36080   7.723   7.940   5.874 -0.0668  0.0466 -0.2227
  268MOL0     O36081   7.600   7.883   5.866  0.2299  0.2696  0.5346
  268MOL0     C36082   7.560   7.824   5.742  0.0243  0.7236  0.8515
  268MOL0     C36083   7.661   7.756   5.646 -1.0609 -0.7417  0.4743
  268MOL0     C36084   7.687   7.614   5.692 -1.0710 -0.4057 -0.5368
  268MOL0     C36085   7.751   7.537   5.582  0.0977  0.2252 -0.5740
  268MOL0     C36086   7.806   7.402   5.637 -0.3163  1.6158 -0.1838
  268MOL0     C36087   7.900   7.330   5.540 -0.2247  0.2476  0.4235
  268MOL0     C36088   8.038   7.390   5.524  1.1110 -0.0123  0.4410
  268MOL0     C36089   8.150   7.320   5.606  0.2960  0.8538  0.2702
  268MOL0    Cl36090   8.312   7.383   5.552 -0.2217  0.1977 -0.4269
  268MOL0     C36091   7.752   8.059   5.820 -0.2736  0.4775  0.1387
  268MOL0     C36092   7.869   8.128   5.855  0.1700 -0.1715  0.0264
  268MOL0     O36093   7.978   8.205   6.180  0.3801 -0.7579 -0.2873
  268MOL0     C36094   8.306   8.112   6.175 -0.1639 -1.1738 -0.3391
  268MOL0     C36095   8.423   8.130   6.245 -0.0914 -0.6638 -0.2748
  268MOL0     N36096   9.066   8.244   6.644  0.1635  0.1261  0.8825
  268MOL0     N36097   9.174   8.172   6.665 -0.0298 -0.3530  0.5313
  268MOL0     C36098   9.657   8.152   5.606  0.4032 -0.8426  1.1810
  268MOL0     C36099   9.744   8.251   5.560  0.8329  0.1341  0.9025
  268MOL0     C36100   9.845   8.718   5.532 -0.4551  0.3635 -0.3100
  268MOL0     C36101   9.902   8.751   5.657  0.5163  0.6179  0.1706
  268MOL0     C36102   9.995   8.853   5.676  0.9863 -1.1076 -0.0351
  268MOL0     C36103  10.044   8.927   5.566  0.1778 -0.6963 -0.2679
  268MOL0     O36104  10.139   9.020   5.571 -0.8509 -0.0183 -0.0879
  268MOL0     C36105  10.204   9.044   5.702  0.2267 -0.5025  0.1065
  268MOL0     C36106  10.297   9.163   5.690  0.5844 -0.1745 -0.5972
  268MOL0     C36107  10.213   9.295   5.655  0.3699  0.1887  0.0905
  268MOL0     C36108  10.302   9.415   5.656  0.0272  1.3495  0.1381
  268MOL0     C36109  10.438   9.404   5.585  0.6139  1.1664 -0.2130
  268MOL0     C36110  10.539   9.412   5.529 -0.5326 -0.0592  0.3230
  268MOL0     C36111   9.972   8.912   5.444  0.0900 -0.3480  0.6277
  268MOL0     C36112   9.873   8.808   5.428 -0.2007 -0.7562  0.1095
  268MOL0     H36113   9.612   8.520   5.715 -0.8163  0.5967  1.2089
  268MOL0     H36114   9.445   8.334   5.796  0.8075 -1.2850  1.0447
  268MOL0     H36115   9.416   7.872   5.734  1.2556 -0.0357 -0.8009
  268MOL0     H36116   9.572   7.913   5.738 -0.8969 -0.6031 -1.9849
  268MOL0     H36117   9.461   7.858   5.965 -0.7234 -0.8992 -2.1984
  268MOL0     H36118   9.546   8.023   5.951  0.3607 -0.3027  1.3531
  268MOL0     H36119   9.331   8.131   5.929  2.5875  1.1745  2.1883
  268MOL0     H36120   9.254   7.971   5.926  0.6748 -1.0194  1.3265
  268MOL0     H36121   9.354   8.145   6.139  2.8332 -0.7533  1.1308
  268MOL0     H36122   9.216   8.026   6.129  0.6334 -1.8181  2.2859
  268MOL0     H36123   9.363   7.844   6.182 -0.5198 -0.6951  2.4818
  268MOL0     H36124   9.499   7.963   6.201 -1.2158  2.1013  0.7968
  268MOL0     H36125   9.251   7.995   6.364 -0.1870  0.9877 -1.7010
  268MOL0     H36126   9.381   7.891   6.416 -4.6840  0.1940  2.9536
  268MOL0     H36127   9.539   8.084   6.409 -0.5565 -2.9549  2.2824
  268MOL0     H36128   9.410   8.188   6.333 -2.1780  0.1692 -0.5222
  268MOL0     H36129   9.473   8.227   6.566  0.3033 -0.3113  1.1345
  268MOL0     H36130   9.414   8.071   6.614  0.5044 -1.8128 -1.8882
  268MOL0     H36131   9.245   8.355   6.398 -0.2443 -0.3099 -1.3765
  268MOL0     H36132   9.006   8.499   6.535 -2.8019 -0.0648  2.5249
  268MOL0     H36133   9.003   8.423   6.375  0.7016  2.6167  0.8838
  268MOL0     H36134   8.782   8.447   6.478  0.9554  0.7749  0.1560
  268MOL0     H36135   8.829   8.317   6.602  4.1125  0.0554  1.3810
  268MOL0     H36136   8.880   8.168   6.400 -0.2781  0.1916  1.7062
  268MOL0     H36137   8.808   8.294   6.301  2.1353 -1.8888 -1.2482
  268MOL0     H36138   8.653   8.183   6.529  0.3917  1.1891 -0.0104
  268MOL0     H36139   8.657   8.095   6.370 -0.5603 -1.6476  2.1466
  268MOL0     H36140   8.371   8.416   6.402  1.4674 -2.1647  1.5055
  268MOL0     H36141   8.185   8.540   6.274  1.3867 -1.1172 -2.9737
  268MOL0     H36142   8.081   8.453   6.170  0.4393 -3.3115  0.1846
  268MOL0     H36143   8.069   8.417   6.348  2.6081 -2.3787  3.2336
  268MOL0     H36144   7.993   7.909   6.078 -1.7485 -0.5773  0.7724
  268MOL0     H36145   7.803   7.784   6.014  0.5083  0.5580  0.3052
  268MOL0     H36146   7.487   7.746   5.764  2.9329 -2.8543 -1.1604
  268MOL0     H36147   7.506   7.908   5.697 -1.2164 -0.3258  0.3392
  268MOL0     H36148   7.625   7.749   5.543 -2.7032 -0.7815  1.0246
  268MOL0     H36149   7.747   7.823   5.640 -1.6970 -0.0689 -3.3204
  268MOL0     H36150   7.598   7.575   5.742 -1.2782  0.0930 -0.5188
  268MOL0     H36151   7.766   7.613   5.769  0.7295  2.5580 -2.1477
  268MOL0     H36152   7.687   7.520   5.495 -0.0855 -3.9847  0.1955
  268MOL0     H36153   7.838   7.600   5.560  1.0079 -1.2049 -1.1920
  268MOL0     H36154   7.723   7.332   5.652  0.4752  0.9075  1.0951
  268MOL0     H36155   7.850   7.420   5.736  0.7290 -1.1349 -0.0496
  268MOL0     H36156   7.907   7.223   5.561 -2.5321 -0.7084 -2.8792
  268MOL0     H36157   7.853   7.328   5.442  1.2698  0.0835 -0.3250
  268MOL0     H36158   8.043   7.495   5.555 -1.9756  0.9239 -1.7548
  268MOL0     H36159   8.059   7.391   5.417  2.4334  2.3133  0.6641
  268MOL0     H36160   8.155   7.213   5.580  3.3593  0.7172  1.0058
  268MOL0     H36161   8.141   7.330   5.715  0.2669  1.3547  0.2231
  268MOL0     H36162   7.684   8.092   5.742  0.1002  1.3896  0.1889
  268MOL0     H36163   7.905   8.220   5.811 -0.2595  0.4548  0.9581
  268MOL0     H36164   8.296   8.022   6.116  3.7380 -0.6294 -2.1601
  268MOL0     H36165   8.504   8.059   6.233  3.3964  3.3703 -4.1603
  268MOL0     H36166   9.678   8.055   5.562  0.3216 -0.5646  0.5169
  268MOL0     H36167   9.829   8.213   5.505 -0.4993 -1.0165 -0.4481
  268MOL0     H36168   9.865   8.687   5.736  0.2569  1.7822  1.0303
  268MOL0     H36169  10.041   8.848   5.774 -0.6347  0.6140  0.8556
  268MOL0     H36170  10.121   9.070   5.768 -2.4886 -1.0863 -2.8204
  268MOL0     H36171  10.263   8.954   5.725 -0.7423 -2.0269 -2.9134
  268MOL0     H36172  10.355   9.151   5.599 -0.3734  0.6121 -1.3332
  268MOL0     H36173  10.367   9.179   5.772 -1.4400 -1.8826  1.6234
  268MOL0     H36174  10.129   9.323   5.720 -1.5512 -0.1935 -2.0821
  268MOL0     H36175  10.171   9.284   5.554 -2.1613 -2.7256  1.3174
  268MOL0     H36176  10.328   9.437   5.760  1.8462  0.9598 -0.1986
  268MOL0     H36177  10.245   9.498   5.613 -0.8769 -0.2471 -1.8867
  268MOL0     H36178  10.635   9.423   5.482  0.6799 -2.4074  2.0422
  268MOL0     H36179  10.008   8.984   5.371  3.8013  0.8247  3.3064
  268MOL0     H36180   9.821   8.794   5.333  1.4445 -1.2581 -0.7563
  269MOL0     O36181   0.666   3.678   4.423  0.4757  0.1034  1.3948
  269MOL0     C36182   0.674   3.583   4.503  0.5406  0.4714 -0.5708
  269MOL0     O36183   0.771   3.564   4.590 -0.1768  0.6011 -0.0256
  269MOL0     C36184   0.859   3.665   4.631  0.2069 -0.1770 -0.1342
  269MOL0     C36185   0.858   3.709   4.766  0.2757  0.4443 -0.9210
  269MOL0     C36186   0.951   3.802   4.811  0.7500  0.2322  0.1895
  269MOL0     C36187   1.042   3.855   4.722  0.1752 -1.0221 -0.0266
  269MOL0     O36188   1.133   3.943   4.777  0.2063 -0.0862 -0.3695
  269MOL0     C36189   1.157   4.055   4.696  0.9455  0.7009 -0.7253
  269MOL0     C36190   1.241   4.162   4.773 -0.2304  0.3150  0.4569
  269MOL0     C36191   1.164   4.229   4.892 -0.7180 -0.3566 -0.4421
  269MOL0     C36192   1.020   4.265   4.857 -0.5570 -0.3299  0.6286
  269MOL0     C36193   0.939   4.348   4.958 -0.4488  0.9120  0.1871
  269MOL0     C36194   0.993   4.492   4.958 -0.1919 -0.0379  0.5712
  269MOL0     C36195   0.958   4.567   4.827  0.2565  0.1894 -1.4610
  269MOL0     C36196   0.945   4.713   4.864  0.2795 -0.1727 -0.0770
  269MOL0     N36197   0.913   4.774   4.735 -0.8311 -0.2769  1.0635
  269MOL0     C36198   0.793   4.788   4.668  0.9149  1.0568 -0.0489
  269MOL0     C36199   0.816   4.854   4.557 -0.4575 -0.2924 -0.6935
  269MOL0     C36200   0.717   4.889   4.449 -1.0698  1.2084  0.3967
  269MOL0     C36201   0.680   4.755   4.379 -0.0000  0.5027 -1.0374
  269MOL0     C36202   0.577   4.676   4.457  0.2541  0.9789 -0.0820
  269MOL0     C36203   0.570   4.519   4.420 -0.5650  0.2894  0.4213
  269MOL0     O36204   0.463   4.458   4.488 -0.2272  0.0977 -0.0097
  269MOL0     C36205   0.333   4.484   4.451  0.1400 -1.0851  0.2654
  269MOL0     C36206   0.245   4.424   4.539  0.2759  0.3483 -0.4186
  269MOL0     C36207   0.104   4.432   4.523 -0.1946  0.3060  0.9036
  269MOL0     C36208   0.019   4.346   4.615  0.3366 -0.0489 -0.3235
  269MOL0     C36209   0.054   4.510   4.416  0.2455 -0.2497 -0.0711
  269MOL0     C36210  -0.090   4.533   4.396 -0.7344  0.2699 -1.3768
  269MOL0     O36211  -0.123   4.660   4.355  1.2218  0.0028  0.3168
  269MOL0     C36212  -0.247   4.693   4.302 -0.1436 -0.6670  0.5823
  269MOL0     C36213  -0.288   4.666   4.167  0.2545  0.4436 -1.3468
  269MOL0     C36214  -0.417   4.692   4.124 -0.1903 -0.8831 -0.3382
  269MOL0     C36215  -0.510   4.759   4.212  0.1677 -0.4824  0.3675
  269MOL0     O36216  -0.633   4.801   4.182 -0.4757  0.3918 -0.2973
  269MOL0     C36217  -0.697   4.762   4.062  1.0652 -0.0856  0.0442
  269MOL0     C36218  -0.762   4.622   4.051  0.5044  0.0006 -0.2051
  269MOL0     C36219  -0.799   4.599   3.904  0.5332  0.2270  0.0166
  269MOL0     C36220  -0.867   4.458   3.887 -0.3394 -1.1140  0.1818
  269MOL0     C36221  -0.909   4.443   3.740  1.2794  0.4582  1.2087
  269MOL0     C36222  -0.964   4.300   3.735  0.5053  0.6142 -0.2235
  269MOL0     C36223  -1.034   4.291   3.596 -0.0926 -0.0181  0.9649
  269MOL0     C36224  -1.186   4.338   3.607 -0.6987  0.3269  0.6494
  269MOL0    Cl36225  -1.258   4.289   3.453  0.2977  0.4555 -0.0388
  269MOL0     C36226  -0.468   4.806   4.343 -0.0895  0.0750  1.4497
  269MOL0     C36227  -0.335   4.769   4.382 -0.0488 -0.7965 -0.4314
  269MOL0     O36228  -0.170   4.441   4.401  0.0176  0.1243 -0.3132
  269MOL0     C36229   0.142   4.578   4.333 -0.5237 -0.0565  0.4913
  269MOL0     C36230   0.281   4.556   4.343  0.1276  0.0368  0.0299
  269MOL0     N36231   0.955   4.884   4.558 -1.0940  0.2388  0.5769
  269MOL0     N36232   1.013   4.832   4.664 -0.0398 -0.6808  0.9304
  269MOL0     C36233   1.038   3.825   4.585 -0.6153 -0.6215  0.4559
  269MOL0     C36234   0.951   3.726   4.545  1.0993  0.1227 -0.4975
  269MOL0     C36235   0.582   3.478   4.500  0.0474  0.9398 -0.0298
  269MOL0     C36236   0.611   3.347   4.551  0.1175 -0.0306 -0.3976
  269MOL0     C36237   0.517   3.239   4.540 -0.1949 -0.3308  1.0282
  269MOL0     C36238   0.393   3.260   4.475  0.5494 -0.8538 -0.9661
  269MOL0     O36239   0.298   3.167   4.438  0.5272  1.1828  0.2588
  269MOL0     C36240   0.304   3.038   4.506 -1.2649 -0.0927  0.3047
  269MOL0     C36241   0.213   2.926   4.470 -0.1552 -0.3245 -0.1117
  269MOL0     C36242   0.066   2.965   4.514 -0.2019 -0.0914 -0.8405
  269MOL0     C36243  -0.033   2.852   4.480 -0.2865 -0.2882 -0.2476
  269MOL0     C36244  -0.173   2.888   4.495 -0.8430  0.2036  1.0714
  269MOL0     C36245  -0.289   2.912   4.505 -0.1954 -0.8864 -0.3895
  269MOL0     C36246   0.357   3.386   4.425  0.2664  0.3380 -0.0637
  269MOL0     C36247   0.462   3.487   4.425  0.0869  0.8905  0.1753
  269MOL0     H36248   0.790   3.658   4.833  1.2994  1.3936  0.9282
  269MOL0     H36249   0.954   3.821   4.918  4.1307 -0.4305  0.3484
  269MOL0     H36250   1.215   4.030   4.607  0.4971 -0.4456 -0.7078
  269MOL0     H36251   1.058   4.095   4.675  0.3406 -0.1942  0.3488
  269MOL0     H36252   1.324   4.114   4.824  1.1813  1.3544 -0.7955
  269MOL0     H36253   1.281   4.247   4.717  0.8634  0.5201  1.5139
  269MOL0     H36254   1.173   4.164   4.980 -0.2595 -1.0941 -1.0165
  269MOL0     H36255   1.216   4.321   4.921 -1.2173 -0.0680 -0.4499
  269MOL0     H36256   1.007   4.314   4.760 -2.1266  0.9479  1.4236
  269MOL0     H36257   0.966   4.170   4.848  0.5452 -0.9146 -0.0289
  269MOL0     H36258   0.837   4.345   4.918  1.4727 -2.2919 -5.6734
  269MOL0     H36259   0.947   4.307   5.059 -1.4718 -0.4976 -0.2773
  269MOL0     H36260   0.954   4.537   5.050  1.0824  1.9071  0.2349
  269MOL0     H36261   1.101   4.490   4.977 -0.1503 -0.5735  0.2947
  269MOL0     H36262   1.026   4.547   4.744  2.2989  1.2727 -0.1219
  269MOL0     H36263   0.852   4.545   4.810 -1.2451  3.3910  2.1573
  269MOL0     H36264   1.038   4.760   4.898 -0.2496  2.6031 -2.0999
  269MOL0     H36265   0.860   4.733   4.929 -1.6177 -1.8806 -1.8650
  269MOL0     H36266   0.707   4.734   4.705  2.1205 -0.9024  0.0699
  269MOL0     H36267   0.626   4.942   4.478 -0.4734  2.6254 -0.2079
  269MOL0     H36268   0.763   4.948   4.370 -1.1837  2.1067  0.9782
  269MOL0     H36269   0.775   4.705   4.357  0.3063  1.1274 -1.1464
  269MOL0     H36270   0.642   4.779   4.279  0.3665 -1.3290 -1.6587
  269MOL0     H36271   0.480   4.717   4.429 -1.3895 -0.7733  2.5534
  269MOL0     H36272   0.580   4.689   4.565 -1.8246 -1.3942  0.3589
  269MOL0     H36273   0.658   4.470   4.463 -1.0463 -1.4162 -0.4747
  269MOL0     H36274   0.547   4.481   4.320  1.8068 -2.0994  0.6678
  269MOL0     H36275   0.282   4.380   4.631 -3.2512 -2.4831 -0.0981
  269MOL0     H36276  -0.042   4.275   4.559 -0.0282 -1.0206  1.2572
  269MOL0     H36277   0.085   4.298   4.687 -0.8493 -2.1956 -0.5908
  269MOL0     H36278  -0.045   4.414   4.672  0.3430  1.3433 -1.9032
  269MOL0     H36279  -0.225   4.614   4.096  2.6440 -1.4793  1.8903
  269MOL0     H36280  -0.455   4.660   4.027 -3.0618 -1.9159  1.0085
  269MOL0     H36281  -0.782   4.827   4.038 -0.6775 -0.7123  3.8188
  269MOL0     H36282  -0.626   4.767   3.979 -0.1829 -1.1520 -1.1434
  269MOL0     H36283  -0.684   4.555   4.089  1.3596  1.3468  0.4749
  269MOL0     H36284  -0.852   4.606   4.111  0.3531 -3.5840 -1.1476
  269MOL0     H36285  -0.710   4.593   3.840  0.8551 -2.5435  0.5990
  269MOL0     H36286  -0.870   4.670   3.861 -1.4585 -2.8383 -2.2268
  269MOL0     H36287  -0.795   4.377   3.904 -0.1408 -0.9010  0.3526
  269MOL0     H36288  -0.956   4.447   3.949  0.1807 -0.1956  1.1100
  269MOL0     H36289  -0.818   4.458   3.681 -0.5726  1.1955 -1.6808
  269MOL0     H36290  -0.988   4.514   3.713  0.9089  0.1035  1.3419
  269MOL0     H36291  -0.884   4.227   3.753 -2.0041 -1.9814  1.3755
  269MOL0     H36292  -1.033   4.276   3.817  1.5270  0.5390  0.6489
  269MOL0     H36293  -1.028   4.185   3.572  1.2403  0.8203 -3.3547
  269MOL0     H36294  -0.979   4.348   3.520  0.0831 -0.0505  1.0673
  269MOL0     H36295  -1.201   4.445   3.623  0.1892  0.2742  2.0213
  269MOL0     H36296  -1.224   4.270   3.684 -1.4575 -0.7053 -0.6018
  269MOL0     H36297  -0.529   4.872   4.404 -1.0784 -0.0084  0.5732
  269MOL0     H36298  -0.303   4.807   4.479 -0.8242  1.8902 -1.1423
  269MOL0     H36299   0.108   4.642   4.252  0.4745  0.8862  0.7967
  269MOL0     H36300   0.339   4.607   4.267 -1.0018 -0.3521 -1.1416
  269MOL0     H36301   1.103   3.874   4.514 -3.4373  1.4832 -0.9052
  269MOL0     H36302   0.950   3.681   4.446  0.3187 -4.2916  1.2982
  269MOL0     H36303   0.704   3.337   4.607 -1.0260  0.0738  1.6359
  269MOL0     H36304   0.552   3.146   4.584 -3.0041 -2.4655 -0.8723
  269MOL0     H36305   0.407   3.004   4.497 -1.4414 -0.6732  0.4377
  269MOL0     H36306   0.288   3.058   4.612  1.6724 -1.3514  1.0751
  269MOL0     H36307   0.246   2.829   4.507  0.0040 -0.7973 -1.4088
  269MOL0     H36308   0.219   2.919   4.361  1.8192  4.1805 -0.5068
  269MOL0     H36309   0.034   3.050   4.453 -2.2435 -0.6955 -0.6775
  269MOL0     H36310   0.069   2.990   4.620  3.4278 -2.2489 -0.2612
  269MOL0     H36311   0.002   2.772   4.546 -0.2582  0.5513  0.7820
  269MOL0     H36312  -0.005   2.821   4.379 -1.4596  1.9409 -1.3328
  269MOL0     H36313  -0.395   2.912   4.522 -0.0643 -3.3525  0.9923
  269MOL0     H36314   0.270   3.386   4.360  0.2666 -2.1922 -0.1395
  269MOL0     H36315   0.451   3.577   4.366 -1.0720 -0.2213 -1.4200
  270MOL0     O36316   9.294   0.710   9.832  1.0391 -0.2019  0.0252
  270MOL0     C36317   9.277   0.593   9.856 -0.0060  1.0461 -0.4401
  270MOL0     O36318   9.153   0.526   9.868  1.1030 -0.3517  0.2117
  270MOL0     C36319   9.036   0.599   9.856  0.1693  1.4858 -0.6771
  270MOL0     C36320   8.937   0.530   9.800  1.2836 -0.9410  1.0809
  270MOL0     C36321   8.823   0.600   9.773 -0.2613 -0.2528  0.3654
  270MOL0     C36322   8.805   0.738   9.816  0.1985  0.3049  0.0930
  270MOL0     O36323   8.694   0.810   9.785  1.3249 -0.3265  0.1325
  270MOL0     C36324   8.573   0.728   9.774 -0.3186 -0.0459 -0.2506
  270MOL0     C36325   8.459   0.806   9.838 -0.7004 -0.9280 -0.4586
  270MOL0     C36326   8.326   0.765   9.795 -0.8387 -0.2821  0.1553
  270MOL0     C36327   8.220   0.808   9.899  0.8110 -0.4507  0.2025
  270MOL0     C36328   8.200   0.967   9.895  0.2464 -0.6284 -0.4285
  270MOL0     C36329   8.125   1.009  10.017  0.2315  0.6297  0.1068
  270MOL0     C36330   8.096   1.152  10.002 -0.1625 -0.6551  0.2484
  270MOL0     C36331   7.994   1.191  10.114 -0.8509 -0.1058 -0.5613
  270MOL0     N36332   8.073   1.229  10.237  0.2547  0.2598  0.6545
  270MOL0     C36333   8.072   1.343  10.298  0.9128  0.1566  0.4854
  270MOL0     C36334   8.142   1.328  10.413 -0.2114 -1.0508  0.3656
  270MOL0     C36335   8.184   1.441  10.512 -0.2500 -0.3611  0.0413
  270MOL0     C36336   8.065   1.509  10.583  0.1836  0.0348  0.0682
  270MOL0     C36337   8.107   1.635  10.655 -0.6101 -1.1581 -0.1403
  270MOL0     C36338   8.007   1.669  10.764  0.2800 -0.4524  0.2737
  270MOL0     O36339   7.874   1.663  10.706 -0.5357  0.4715 -1.0081
  270MOL0     C36340   7.759   1.695  10.766 -0.2868  1.1207  0.0657
  270MOL0     C36341   7.741   1.782  10.878 -0.4606  0.9825  0.5836
  270MOL0     C36342   7.626   1.790  10.946  0.4100  0.6281  0.3717
  270MOL0     C36343   7.614   1.881  11.067 -0.0549  0.0129 -0.1440
  270MOL0     C36344   7.511   1.717  10.889  0.4367  1.1744  0.2529
  270MOL0     C36345   7.374   1.721  10.951 -0.2794 -0.4373  0.0517
  270MOL0     O36346   7.303   1.610  10.941 -0.7556 -0.5664  0.0892
  270MOL0     C36347   7.178   1.618  10.990  0.4000  0.2579 -0.7023
  270MOL0     C36348   7.143   1.538  11.101 -0.2566  0.0121  0.1347
  270MOL0     C36349   7.014   1.537  11.144 -0.1663 -0.2620 -0.1999
  270MOL0     C36350   6.918   1.626  11.092  0.4923  0.8484  0.4474
  270MOL0     O36351   6.795   1.620  11.139  0.4342  0.2908  0.1469
  270MOL0     C36352   6.747   1.738  11.198 -0.6899  1.0214 -0.4099
  270MOL0     C36353   6.600   1.726  11.243  0.0012 -1.1419 -0.4200
  270MOL0     C36354   6.511   1.729  11.113 -0.3700  0.1481  0.5184
  270MOL0     C36355   6.365   1.704  11.146  0.0580  1.0010 -0.1765
  270MOL0     C36356   6.261   1.727  11.031 -0.0780  0.4532  0.0680
  270MOL0     C36357   6.302   1.847  10.938 -0.9802 -0.1113  0.4288
  270MOL0     C36358   6.185   1.852  10.839 -0.2737 -0.1306 -0.3760
  270MOL0     C36359   6.206   1.967  10.744 -0.7485  0.2395 -0.1304
  270MOL0    Cl36360   6.057   1.995  10.642  0.2983 -0.1955 -0.2610
  270MOL0     C36361   6.961   1.716  10.987  0.0238  0.1545  0.2528
  270MOL0     C36362   7.095   1.707  10.937  0.5082  0.2676 -0.6141
  270MOL0     O36363   7.336   1.824  11.011 -0.3256  0.1373  0.1445
  270MOL0     C36364   7.530   1.636  10.778 -0.3900  0.1224 -0.0916
  270MOL0     C36365   7.656   1.614  10.726  0.4141 -0.5105 -0.3079
  270MOL0     N36366   8.179   1.194  10.430 -0.3033 -0.0440 -0.6039
  270MOL0     N36367   8.152   1.139  10.310 -0.6243 -0.4766 -0.2718
  270MOL0     C36368   8.906   0.800   9.891  0.4457  0.5277 -0.1324
  270MOL0     C36369   9.017   0.727   9.921  0.4829 -0.2212 -0.7555
  270MOL0     C36370   9.402   0.522   9.856  0.3167  0.3985 -0.5518
  270MOL0     C36371   9.396   0.381   9.841  0.7814  0.0169 -0.1439
  270MOL0     C36372   9.516   0.304   9.809  1.4118 -0.0148  0.0779
  270MOL0     C36373   9.641   0.367   9.803 -0.1190  0.1138  0.6037
  270MOL0     O36374   9.752   0.303   9.750  0.2266 -0.4777 -0.0450
  270MOL0     C36375   9.748   0.166   9.689  0.5188  0.3046  0.2271
  270MOL0     C36376   9.889   0.122   9.646 -0.2352  0.0091 -0.3294
  270MOL0     C36377   9.881  -0.021   9.597  0.2875 -0.2580 -0.1622
  270MOL0     C36378  10.015  -0.041   9.522  0.1667  0.8459 -0.9842
  270MOL0     C36379  10.127  -0.044   9.622 -0.5870 -0.5133 -1.0376
  270MOL0     C36380  10.238  -0.055   9.688  0.2950 -0.5561 -0.1935
  270MOL0     C36381   9.645   0.511   9.833 -0.7630 -0.1933 -0.3628
  270MOL0     C36382   9.533   0.578   9.864  0.8048 -0.1858  0.2146
  270MOL0     H36383   8.951   0.437   9.746  1.0847  1.2630 -3.1863
  270MOL0     H36384   8.753   0.564   9.699 -0.1410  0.6486 -0.1907
  270MOL0     H36385   8.549   0.705   9.670 -0.7773  1.6343 -0.5342
  270MOL0     H36386   8.578   0.627   9.817  0.0730 -0.2588 -0.7958
  270MOL0     H36387   8.466   0.802   9.947  0.9664  2.4654 -0.3100
  270MOL0     H36388   8.466   0.909   9.801  1.2775 -0.5328  0.8574
  270MOL0     H36389   8.309   0.803   9.694  0.4564 -2.3096 -0.8984
  270MOL0     H36390   8.318   0.656   9.792  0.0142 -0.3934  1.1755
  270MOL0     H36391   8.125   0.762   9.872  1.7170 -1.5778 -1.1809
  270MOL0     H36392   8.260   0.780   9.998  1.0734 -1.5824 -0.2058
  270MOL0     H36393   8.299   1.014   9.905  0.4138 -1.3604  2.2296
  270MOL0     H36394   8.164   0.985   9.794  0.6098 -2.4734 -0.9205
  270MOL0     H36395   8.033   0.951  10.021  0.0366  0.9991  1.5133
  270MOL0     H36396   8.193   0.987  10.099  0.3931 -0.7952 -0.3835
  270MOL0     H36397   8.189   1.209  10.006 -1.0856  0.8341  2.4411
  270MOL0     H36398   8.048   1.175   9.906  1.9478 -0.0208 -0.6991
  270MOL0     H36399   7.917   1.120  10.145 -0.2098 -0.4528  0.3017
  270MOL0     H36400   7.932   1.273  10.077 -3.2195 -1.9136 -0.8418
  270MOL0     H36401   8.025   1.432  10.257  3.0482  0.5354 -1.3750
  270MOL0     H36402   8.250   1.397  10.588 -0.4307  0.3855  0.6441
  270MOL0     H36403   8.237   1.524  10.463 -0.3471  0.7681  1.7614
  270MOL0     H36404   8.026   1.442  10.659 -0.1792 -0.1394 -0.2676
  270MOL0     H36405   7.988   1.536  10.511 -1.3875 -2.8078  0.5394
  270MOL0     H36406   8.116   1.719  10.585 -0.3577 -1.4518 -0.4692
  270MOL0     H36407   8.203   1.617  10.705 -0.7627 -2.6634 -0.3254
  270MOL0     H36408   8.014   1.773  10.798  3.0686 -1.4600  3.1685
  270MOL0     H36409   8.022   1.606  10.852  0.1911  3.3479  3.2668
  270MOL0     H36410   7.831   1.832  10.912  0.4035 -0.5626  0.6795
  270MOL0     H36411   7.562   1.830  11.149  2.0807 -0.0002  1.2929
  270MOL0     H36412   7.712   1.916  11.102 -0.3909 -0.1675  1.0268
  270MOL0     H36413   7.548   1.966  11.046  1.0667  1.3053  1.2611
  270MOL0     H36414   7.225   1.482  11.145  1.5500  1.1317 -1.6612
  270MOL0     H36415   6.967   1.464  11.211  0.3826 -0.3279  0.1174
  270MOL0     H36416   6.810   1.767  11.283 -0.8623  2.5429 -0.7719
  270MOL0     H36417   6.757   1.823  11.129  1.1176  3.1005  2.1932
  270MOL0     H36418   6.576   1.630  11.291 -3.4100  0.5172  1.5708
  270MOL0     H36419   6.564   1.812  11.300 -0.7958 -1.7627  0.0500
  270MOL0     H36420   6.549   1.651  11.046  1.8062  0.9696  0.7075
  270MOL0     H36421   6.536   1.820  11.057  2.1701 -0.1122  1.0733
  270MOL0     H36422   6.366   1.601  11.182  0.1775  0.7673 -0.8327
  270MOL0     H36423   6.329   1.747  11.240 -0.8569  0.2274 -0.1509
  270MOL0     H36424   6.161   1.728  11.075 -1.4739 -1.9536 -2.6946
  270MOL0     H36425   6.256   1.641  10.964  1.2631 -0.6223  1.2991
  270MOL0     H36426   6.313   1.940  10.994  0.7860  0.8758 -1.4306
  270MOL0     H36427   6.390   1.821  10.877  0.5592  2.6137  1.3397
  270MOL0     H36428   6.095   1.865  10.901  0.4961 -0.8809  0.9574
  270MOL0     H36429   6.170   1.757  10.788 -1.9769 -0.7407  1.1489
  270MOL0     H36430   6.228   2.059  10.800  1.5890  1.1821 -2.4014
  270MOL0     H36431   6.291   1.940  10.680 -0.9632  1.1081 -0.8000
  270MOL0     H36432   6.896   1.782  10.931  1.0657 -0.3856 -1.6861
  270MOL0     H36433   7.127   1.776  10.860  1.4725  2.0264  1.2654
  270MOL0     H36434   7.452   1.583  10.724  1.2296 -1.4484 -0.9860
  270MOL0     H36435   7.668   1.544  10.645 -1.2054 -1.0341 -0.1320
  270MOL0     H36436   8.903   0.905   9.918  3.5150  0.9557 -1.0406
  270MOL0     H36437   9.093   0.769   9.985  1.2300 -4.0866  1.1958
  270MOL0     H36438   9.297   0.338   9.826  0.9073 -1.0138  1.6215
  270MOL0     H36439   9.503   0.203   9.771 -3.2095  0.7307 -0.8603
  270MOL0     H36440   9.712   0.107   9.773  3.9748 -0.6789  1.1689
  270MOL0     H36441   9.689   0.173   9.597  0.2033 -1.1186  0.2976
  270MOL0     H36442   9.950   0.122   9.737  0.3238 -1.4102 -0.6817
  270MOL0     H36443   9.929   0.189   9.570  1.9194 -0.6232  0.1694
  270MOL0     H36444   9.800  -0.033   9.524  0.8034 -2.0625 -0.4832
  270MOL0     H36445   9.865  -0.092   9.679 -0.2711  0.1363  0.0725
  270MOL0     H36446  10.031   0.041   9.450 -0.0328  0.3693 -1.5815
  270MOL0     H36447  10.011  -0.132   9.461  0.4145  0.7266 -0.8233
  270MOL0     H36448  10.322  -0.062   9.755  1.0734  2.8562 -0.6217
  270MOL0     H36449   9.736   0.566   9.814 -0.9494 -0.9209 -4.1699
  270MOL0     H36450   9.533   0.676   9.911 -2.1922 -0.3379  0.7560
  271MOL0     O36451   1.714   7.289   5.241 -0.7606 -1.2884  0.4475
  271MOL0     C36452   1.691   7.338   5.127  0.3484 -0.0825 -0.5353
  271MOL0     O36453   1.777   7.400   5.050 -0.0402  0.1350  0.1883
  271MOL0     C36454   1.910   7.411   5.090  0.2405  0.6765 -0.4528
  271MOL0     C36455   1.978   7.350   5.189  0.0813  0.3823 -0.6891
  271MOL0     C36456   2.118   7.369   5.207  0.0276  1.2758  0.5037
  271MOL0     C36457   2.187   7.455   5.117  0.3398 -0.3504  0.4566
  271MOL0     O36458   2.322   7.471   5.108 -0.7273 -0.5876  0.5579
  271MOL0     C36459   2.388   7.473   5.236 -0.1667  0.0193 -0.3665
  271MOL0     C36460   2.501   7.583   5.221  0.2049  0.0256 -0.2422
  271MOL0     C36461   2.607   7.565   5.107  0.4114 -0.5818  1.0688
  271MOL0     C36462   2.671   7.424   5.099  0.8489 -0.1611 -0.5550
  271MOL0     C36463   2.582   7.311   5.035  0.3329  0.9598 -0.5340
  271MOL0     C36464   2.680   7.188   5.018  1.0161  1.5261  0.6730
  271MOL0     C36465   2.630   7.067   4.928 -0.0554 -0.9452 -0.4556
  271MOL0     C36466   2.484   7.010   4.953  0.0516  0.1910  0.4781
  271MOL0     N36467   2.475   6.955   5.083 -0.0811 -0.2875  0.3868
  271MOL0     C36468   2.400   6.998   5.191  1.2001 -0.3086  1.0060
  271MOL0     C36469   2.414   6.913   5.286 -0.2383  0.7954 -0.0974
  271MOL0     C36470   2.348   6.911   5.419  0.4349 -0.1566  0.5011
  271MOL0     C36471   2.213   6.842   5.426  0.4368  0.1085  0.2474
  271MOL0     C36472   2.128   6.899   5.309 -0.4005 -0.3626 -0.0591
  271MOL0     C36473   1.995   6.830   5.313 -0.2674 -0.5200 -0.3300
  271MOL0     O36474   1.899   6.917   5.380  0.1762 -0.2577 -0.5237
  271MOL0     C36475   1.764   6.911   5.363 -1.3390  1.3588  0.4260
  271MOL0     C36476   1.697   6.798   5.314  0.8215  1.2321 -1.0986
  271MOL0     C36477   1.558   6.789   5.306  1.6246 -1.3453 -0.5406
  271MOL0     C36478   1.491   6.682   5.224 -0.2669  0.0292 -0.5443
  271MOL0     C36479   1.488   6.899   5.362  0.4478 -0.7551 -0.9261
  271MOL0     C36480   1.338   6.907   5.368 -0.2795 -0.0939  0.3194
  271MOL0     O36481   1.286   7.017   5.426  0.1252 -0.7410 -0.7958
  271MOL0     C36482   1.164   7.058   5.397  1.4166  0.2994 -0.2612
  271MOL0     C36483   1.096   7.154   5.466  0.0853  0.2795 -0.4355
  271MOL0     C36484   0.972   7.197   5.441 -0.2124 -0.5064 -0.0772
  271MOL0     C36485   0.890   7.150   5.343  0.7210 -0.1149  0.7603
  271MOL0     O36486   0.762   7.194   5.318  0.0800  0.7518  0.1316
  271MOL0     C36487   0.689   7.261   5.420  0.2329  0.2784 -0.1646
  271MOL0     C36488   0.640   7.172   5.540  0.8045 -0.6028 -1.0409
  271MOL0     C36489   0.572   7.043   5.514  0.5093 -0.5135 -0.2844
  271MOL0     C36490   0.458   7.074   5.418 -0.5948  0.8559 -1.7777
  271MOL0     C36491   0.353   6.958   5.436 -0.2681 -0.0461 -0.1454
  271MOL0     C36492   0.229   6.976   5.343 -0.2859 -0.5067 -0.3388
  271MOL0     C36493   0.116   7.070   5.407  0.8522 -0.0720  0.8763
  271MOL0     C36494  -0.002   6.982   5.461 -0.4526 -0.7448  0.6104
  271MOL0    Cl36495  -0.131   7.100   5.521 -0.1219 -0.2767  0.1705
  271MOL0     C36496   0.952   7.061   5.258  0.7606 -0.1245 -1.1240
  271MOL0     C36497   1.083   7.017   5.283 -0.1447  0.2695  0.2044
  271MOL0     O36498   1.277   6.813   5.326 -0.1791 -0.6418 -0.2919
  271MOL0     C36499   1.560   7.007   5.410  0.6867 -0.7224 -0.3734
  271MOL0     C36500   1.696   7.015   5.416  0.6085 -0.4443 -0.4143
  271MOL0     N36501   2.498   6.809   5.245 -0.4870  0.2058  0.5264
  271MOL0     N36502   2.544   6.845   5.127 -0.6183 -0.2754 -0.4878
  271MOL0     C36503   2.118   7.520   5.018  0.0081 -0.0828 -0.2231
  271MOL0     C36504   1.980   7.502   5.006  0.7834  0.4008 -0.3638
  271MOL0     C36505   1.556   7.339   5.077  1.3068 -0.4583  0.5821
  271MOL0     C36506   1.455   7.272   5.144  1.2863 -0.0119 -0.0532
  271MOL0     C36507   1.325   7.269   5.094  0.5378 -0.1524 -0.1568
  271MOL0     C36508   1.291   7.337   4.979 -0.1797  0.1792 -0.2108
  271MOL0     O36509   1.164   7.346   4.920 -0.4629 -0.0496  0.2889
  271MOL0     C36510   1.057   7.307   5.004 -0.3474  0.1891 -0.4999
  271MOL0     C36511   0.944   7.362   4.925  0.1568 -0.7079 -0.5880
  271MOL0     C36512   0.817   7.307   4.995 -0.6436  0.0738 -0.1187
  271MOL0     C36513   0.698   7.347   4.919  0.5153  0.3202  0.6394
  271MOL0     C36514   0.583   7.286   4.983  0.2486  0.8524  0.1757
  271MOL0     C36515   0.480   7.239   5.023 -0.2578  1.2540  0.3114
  271MOL0     C36516   1.393   7.410   4.914  0.7709  0.1516  1.2265
  271MOL0     C36517   1.520   7.414   4.961 -0.1227  1.0003  0.1337
  271MOL0     H36518   1.930   7.271   5.244  1.1333  0.0208 -0.2715
  271MOL0     H36519   2.178   7.317   5.281 -1.1510 -1.4565 -0.3451
  271MOL0     H36520   2.323   7.490   5.322  2.3405  1.2607  1.4087
  271MOL0     H36521   2.434   7.379   5.268 -1.5998  0.2975  2.9518
  271MOL0     H36522   2.450   7.680   5.215 -1.7996 -1.0183 -1.0693
  271MOL0     H36523   2.555   7.573   5.316 -0.8644 -2.4402  0.1821
  271MOL0     H36524   2.560   7.591   5.011  3.0303 -1.4462 -0.5716
  271MOL0     H36525   2.687   7.636   5.131  0.3267 -0.4584  0.9901
  271MOL0     H36526   2.753   7.438   5.028  2.7253  0.0325  1.5186
  271MOL0     H36527   2.701   7.387   5.198  2.2620  0.1552 -0.8509
  271MOL0     H36528   2.512   7.276   5.112  1.6617 -0.5262  0.0431
  271MOL0     H36529   2.524   7.346   4.949 -1.2526 -0.6026 -0.1600
  271MOL0     H36530   2.774   7.212   4.968  0.0066  1.2253 -1.5031
  271MOL0     H36531   2.715   7.150   5.114  1.6208 -0.9291 -0.4389
  271MOL0     H36532   2.625   7.108   4.827  0.9371  0.5759  0.0879
  271MOL0     H36533   2.705   6.987   4.921  1.1161  0.2602 -3.0779
  271MOL0     H36534   2.472   6.930   4.879  1.1212 -0.4208  0.9331
  271MOL0     H36535   2.411   7.086   4.924  1.9641  1.5337 -1.1241
  271MOL0     H36536   2.334   7.084   5.192  1.7374  0.1149  1.7978
  271MOL0     H36537   2.419   6.875   5.494  1.1247 -0.5636 -0.3271
  271MOL0     H36538   2.325   7.014   5.448 -0.4533  1.3513 -4.6369
  271MOL0     H36539   2.169   6.853   5.526 -2.2293 -1.8610 -0.5966
  271MOL0     H36540   2.219   6.734   5.408  1.7598 -0.1785  2.0272
  271MOL0     H36541   2.163   6.885   5.207 -2.9680  0.6021 -1.1545
  271MOL0     H36542   2.105   7.005   5.323 -4.2636 -0.8983 -1.1520
  271MOL0     H36543   2.002   6.735   5.366  2.0582  0.1849  0.7399
  271MOL0     H36544   1.957   6.794   5.217 -0.7578  0.0539 -0.3628
  271MOL0     H36545   1.752   6.708   5.291  1.9080  1.0393  1.8313
  271MOL0     H36546   1.568   6.619   5.180  1.5198  1.5870  0.2236
  271MOL0     H36547   1.439   6.617   5.295 -1.9596  1.0611 -0.7898
  271MOL0     H36548   1.425   6.725   5.148  1.1641 -0.2127 -1.9745
  271MOL0     H36549   1.149   7.202   5.548  0.0183 -0.2755 -0.0569
  271MOL0     H36550   0.942   7.269   5.517 -1.5237  1.5098 -2.3825
  271MOL0     H36551   0.750   7.346   5.452  0.5673  0.5062 -1.3642
  271MOL0     H36552   0.597   7.295   5.372 -1.7975 -3.1694  0.9094
  271MOL0     H36553   0.730   7.148   5.597  1.1396 -2.2043 -2.1445
  271MOL0     H36554   0.571   7.216   5.612  0.8070 -2.9648  0.5131
  271MOL0     H36555   0.543   6.997   5.608  0.8717 -2.0559 -0.8977
  271MOL0     H36556   0.655   6.984   5.474  2.2046 -0.6790  3.1955
  271MOL0     H36557   0.412   7.168   5.449 -1.8442 -0.0463 -0.7582
  271MOL0     H36558   0.504   7.084   5.319  0.3244  1.5215 -1.2902
  271MOL0     H36559   0.330   6.950   5.543  0.1522  2.7462  0.2355
  271MOL0     H36560   0.409   6.866   5.416 -0.6019 -0.2191 -0.2896
  271MOL0     H36561   0.250   6.996   5.237 -1.6714 -3.7222 -1.3556
  271MOL0     H36562   0.191   6.874   5.345  0.4978 -0.8573  3.2416
  271MOL0     H36563   0.066   7.139   5.339 -0.1299  0.6522  2.2768
  271MOL0     H36564   0.154   7.132   5.489 -1.0154 -0.1781  1.8776
  271MOL0     H36565   0.039   6.916   5.538  2.1506  1.1936  1.0035
  271MOL0     H36566  -0.037   6.920   5.378  3.4944 -0.2384 -1.6518
  271MOL0     H36567   0.888   7.014   5.184 -2.9769 -1.8170  2.7194
  271MOL0     H36568   1.128   6.958   5.204 -4.4593  1.0497 -3.1723
  271MOL0     H36569   1.505   7.099   5.429 -3.9874 -3.2827  0.0142
  271MOL0     H36570   1.759   7.093   5.458  1.0256 -1.6304  1.2797
  271MOL0     H36571   2.170   7.587   4.951  1.4899  0.0511  1.0043
  271MOL0     H36572   1.923   7.553   4.929  0.8912 -0.7084 -1.2038
  271MOL0     H36573   1.470   7.216   5.236 -2.2997 -1.0282  0.0695
  271MOL0     H36574   1.254   7.214   5.154 -0.3702  1.2193  0.0727
  271MOL0     H36575   1.054   7.198   5.000 -0.0163  0.1930 -0.9628
  271MOL0     H36576   1.063   7.347   5.105  0.4853 -0.4629 -0.2792
  271MOL0     H36577   0.945   7.324   4.823  0.8766 -1.4518 -0.3163
  271MOL0     H36578   0.941   7.471   4.923  1.1809 -0.6326  0.5296
  271MOL0     H36579   0.811   7.351   5.095 -2.9652  0.7257 -0.5049
  271MOL0     H36580   0.835   7.199   4.997  1.4739  0.3819 -0.4316
  271MOL0     H36581   0.709   7.322   4.813 -0.9029  1.8273  0.0850
  271MOL0     H36582   0.701   7.456   4.929  0.6873  0.2459  1.4267
  271MOL0     H36583   0.398   7.177   5.053  0.0658 -0.1180 -1.3992
  271MOL0     H36584   1.354   7.487   4.848 -0.5747 -0.9267  0.7186
  271MOL0     H36585   1.601   7.475   4.922  0.8501  0.3104  0.9993
  272MOL0     O36586   0.186   5.807   0.373 -0.1085 -0.4991 -0.2127
  272MOL0     C36587   0.274   5.835   0.456 -0.7362  0.1716  0.3915
  272MOL0     O36588   0.285   5.954   0.521 -0.2095 -0.0951  0.1152
  272MOL0     C36589   0.200   6.049   0.511 -0.2155  0.9520  0.1698
  272MOL0     C36590   0.074   6.026   0.566 -0.6058 -0.1245  0.5620
  272MOL0     C36591  -0.036   6.113   0.561  0.8278  0.0335 -1.0567
  272MOL0     C36592  -0.011   6.237   0.506  0.0058 -0.5401 -0.4255
  272MOL0     O36593  -0.120   6.313   0.512 -0.3490  0.1952 -0.0616
  272MOL0     C36594  -0.137   6.429   0.425  0.0472 -0.5318  0.3191
  272MOL0     C36595  -0.097   6.543   0.513  0.2718 -0.1782  0.1254
  272MOL0     C36596  -0.174   6.554   0.643 -0.2936 -0.2834  0.2602
  272MOL0     C36597  -0.322   6.589   0.623  0.1962  0.4630  0.6831
  272MOL0     C36598  -0.395   6.640   0.746 -0.4612 -0.2439  0.3795
  272MOL0     C36599  -0.549   6.632   0.712  0.4733  0.6069 -0.7202
  272MOL0     C36600  -0.641   6.646   0.834 -0.5508  1.1754  1.0342
  272MOL0     C36601  -0.638   6.524   0.928  0.6901 -0.2966 -0.0103
  272MOL0     N36602  -0.739   6.429   0.890 -0.4457  0.1836 -0.1248
  272MOL0     C36603  -0.725   6.291   0.915 -0.0201 -0.5838  0.4018
  272MOL0     C36604  -0.832   6.237   0.879  0.1890  0.4401 -0.3341
  272MOL0     C36605  -0.879   6.096   0.905  0.5019  0.3526 -0.4173
  272MOL0     C36606  -0.932   6.027   0.780  0.0308  0.8053 -0.2248
  272MOL0     C36607  -1.086   6.014   0.783  0.5894  0.0778  0.2268
  272MOL0     C36608  -1.161   6.143   0.796  0.0982 -0.7728 -0.2407
  272MOL0     O36609  -1.301   6.114   0.768  0.4997 -0.4610  0.6300
  272MOL0     C36610  -1.371   6.050   0.866  0.2094  0.3033  0.1559
  272MOL0     C36611  -1.345   6.017   1.000 -1.0838 -0.0620 -0.0754
  272MOL0     C36612  -1.441   5.960   1.086  0.1284  0.1035  0.0800
  272MOL0     C36613  -1.408   5.910   1.222 -0.0256 -0.3175  0.1435
  272MOL0     C36614  -1.573   5.951   1.036  0.3244  0.0954 -0.4911
  272MOL0     C36615  -1.686   5.928   1.126 -0.4177 -0.6356  0.0423
  272MOL0     O36616  -1.786   6.024   1.115  0.8836  0.1085 -0.4842
  272MOL0     C36617  -1.878   6.046   1.208 -1.3556  0.3352 -0.5734
  272MOL0     C36618  -1.832   6.072   1.332  0.6943  0.2503  0.0684
  272MOL0     C36619  -1.926   6.111   1.437  1.0355 -0.4242 -0.7621
  272MOL0     C36620  -2.058   6.141   1.410  0.7637 -0.7573  0.6034
  272MOL0     O36621  -2.145   6.155   1.509  0.3759  0.0339 -0.1966
  272MOL0     C36622  -2.233   6.264   1.503 -0.6779  0.4690  0.0122
  272MOL0     C36623  -2.166   6.410   1.479  0.5869 -0.6727 -0.0109
  272MOL0     C36624  -2.065   6.441   1.586 -0.4234  0.7853  0.8476
  272MOL0     C36625  -2.009   6.579   1.555  0.5097 -0.0870  0.5515
  272MOL0     C36626  -1.897   6.625   1.648 -1.0625  0.4451 -0.2980
  272MOL0     C36627  -1.756   6.557   1.601 -0.2190 -0.6318 -0.1788
  272MOL0     C36628  -1.654   6.580   1.711 -0.3541  0.7360 -0.1626
  272MOL0     C36629  -1.510   6.553   1.672 -0.0794 -0.1907  0.5711
  272MOL0    Cl36630  -1.394   6.559   1.806 -0.2348 -0.1287  0.0997
  272MOL0     C36631  -2.100   6.126   1.275 -0.3962 -0.9995 -0.7067
  272MOL0     C36632  -2.006   6.089   1.183  1.6151  1.1050  0.0010
  272MOL0     O36633  -1.684   5.823   1.194 -0.4994  0.1749  0.1120
  272MOL0     C36634  -1.599   6.001   0.904  0.0667 -0.1438 -0.0478
  272MOL0     C36635  -1.497   6.032   0.824  0.0583 -0.4170  0.8284
  272MOL0     N36636  -0.917   6.337   0.841  0.3054 -0.2279 -0.6596
  272MOL0     N36637  -0.867   6.454   0.850  0.3609 -0.2564  0.6369
  272MOL0     C36638   0.117   6.271   0.464 -0.0215 -0.3478 -0.3443
  272MOL0     C36639   0.227   6.175   0.454  0.2587  0.5887 -0.0673
  272MOL0     C36640   0.387   5.738   0.464  0.3786 -0.1735 -0.1819
  272MOL0     C36641   0.460   5.749   0.583 -0.1197 -0.0840  0.5163
  272MOL0     C36642   0.574   5.665   0.602  1.2415 -0.2395  0.1300
  272MOL0     C36643   0.597   5.567   0.509 -1.2946  0.6799  0.1443
  272MOL0     O36644   0.716   5.490   0.519  0.1629 -0.4413 -0.5670
  272MOL0     C36645   0.786   5.475   0.654 -0.3418  0.1691 -1.0681
  272MOL0     C36646   0.849   5.337   0.680 -1.0051 -0.2360 -0.0717
  272MOL0     C36647   0.943   5.355   0.804  0.0058 -0.0742 -0.1198
  272MOL0     C36648   1.027   5.236   0.836 -0.3970  0.6438  0.4339
  272MOL0     C36649   1.106   5.186   0.717  0.9570 -0.4967 -0.0532
  272MOL0     C36650   1.159   5.158   0.610 -0.4217 -0.5407 -0.0115
  272MOL0     C36651   0.524   5.560   0.394 -0.5583 -0.4926  1.0005
  272MOL0     C36652   0.418   5.641   0.366 -0.6245 -0.7333  1.0073
  272MOL0     H36653   0.055   5.939   0.628  1.1079 -1.3144 -0.4899
  272MOL0     H36654  -0.127   6.089   0.616  1.4666  1.4248  0.7267
  272MOL0     H36655  -0.074   6.437   0.336 -2.7493 -1.0300 -1.8655
  272MOL0     H36656  -0.239   6.422   0.385  0.3080  0.3032 -0.5086
  272MOL0     H36657   0.011   6.542   0.532  0.4264 -1.2641 -0.6725
  272MOL0     H36658  -0.113   6.631   0.450  0.4125  1.3120  2.1015
  272MOL0     H36659  -0.167   6.458   0.694  1.2752 -0.7321 -0.7452
  272MOL0     H36660  -0.128   6.630   0.707  0.6362  0.6462 -1.4472
  272MOL0     H36661  -0.335   6.661   0.542  0.0320  2.2030  2.2044
  272MOL0     H36662  -0.372   6.496   0.593  0.2490  0.8422 -0.6221
  272MOL0     H36663  -0.366   6.567   0.822  2.0327  1.2584  0.9875
  272MOL0     H36664  -0.348   6.735   0.770 -0.6721 -0.0341 -0.0228
  272MOL0     H36665  -0.567   6.712   0.639  1.5842 -0.1329 -1.8465
  272MOL0     H36666  -0.576   6.549   0.646 -2.3332  0.7348  0.1185
  272MOL0     H36667  -0.606   6.729   0.896  1.2367  1.1029  0.1787
  272MOL0     H36668  -0.741   6.665   0.794 -1.8759 -4.2175  0.9656
  272MOL0     H36669  -0.653   6.559   1.031 -1.4708  1.6949 -0.8958
  272MOL0     H36670  -0.546   6.465   0.928 -0.3549 -2.1434 -3.1331
  272MOL0     H36671  -0.645   6.235   0.962  0.2958  0.1613  0.7766
  272MOL0     H36672  -0.789   6.059   0.955  2.2602  2.4860 -1.8550
  272MOL0     H36673  -0.966   6.084   0.971  1.3373 -2.1031  0.3667
  272MOL0     H36674  -0.879   5.933   0.793  1.3707  1.3305 -1.5674
  272MOL0     H36675  -0.895   6.078   0.690  1.6521 -4.1148 -2.6645
  272MOL0     H36676  -1.104   5.945   0.865 -0.8051 -1.3545 -1.2294
  272MOL0     H36677  -1.137   5.956   0.705 -1.2226  2.6369 -0.6420
  272MOL0     H36678  -1.127   6.221   0.728 -2.0164  1.6210  1.2560
  272MOL0     H36679  -1.163   6.185   0.897  0.0225  0.4100 -0.7097
  272MOL0     H36680  -1.256   6.044   1.056 -0.9552 -0.9782  0.1808
  272MOL0     H36681  -1.405   5.801   1.217 -0.3668 -0.2977 -3.7462
  272MOL0     H36682  -1.314   5.952   1.260 -0.7925  1.5173  0.1521
  272MOL0     H36683  -1.485   5.940   1.294  1.3308 -2.0145  2.4124
  272MOL0     H36684  -1.730   6.042   1.353  1.9673  2.1585 -2.8512
  272MOL0     H36685  -1.900   6.124   1.541  2.4369 -1.1456 -1.0083
  272MOL0     H36686  -2.312   6.238   1.431  0.5551 -1.2055 -0.8260
  272MOL0     H36687  -2.271   6.274   1.605  0.4667  2.0813  0.3157
  272MOL0     H36688  -2.132   6.419   1.376  1.5266  1.1874  0.4154
  272MOL0     H36689  -2.239   6.492   1.482  2.5715  1.2075  3.3539
  272MOL0     H36690  -1.985   6.367   1.576 -2.1811 -1.0307 -0.7310
  272MOL0     H36691  -2.111   6.444   1.685 -0.4000 -1.0994  0.9553
  272MOL0     H36692  -1.969   6.588   1.453  2.0552 -2.8785  0.8296
  272MOL0     H36693  -2.084   6.658   1.564 -1.1747 -1.5411 -0.0412
  272MOL0     H36694  -1.918   6.598   1.752  1.6075 -0.0246  0.1795
  272MOL0     H36695  -1.881   6.733   1.643  3.8948 -0.0845 -0.3259
  272MOL0     H36696  -1.773   6.452   1.577 -2.3780  0.0117 -1.8200
  272MOL0     H36697  -1.718   6.610   1.513  0.5223  0.9946  1.0538
  272MOL0     H36698  -1.673   6.511   1.793 -0.4883 -0.1968 -0.9633
  272MOL0     H36699  -1.660   6.684   1.747 -0.3239  0.0247  2.0180
  272MOL0     H36700  -1.480   6.619   1.590 -0.1514 -4.0876 -2.9657
  272MOL0     H36701  -1.510   6.458   1.617 -1.5541  0.8982 -1.4474
  272MOL0     H36702  -2.199   6.165   1.254 -0.5159  1.1700  3.0708
  272MOL0     H36703  -2.029   6.099   1.078  2.2040 -1.3724 -0.4498
  272MOL0     H36704  -1.698   6.014   0.862 -0.0536 -0.9108 -0.0194
  272MOL0     H36705  -1.540   6.054   0.726  0.1838 -1.3628  0.5500
  272MOL0     H36706   0.149   6.369   0.430  1.1671 -1.1624 -1.7029
  272MOL0     H36707   0.327   6.196   0.418 -0.0989  2.2977 -0.1570
  272MOL0     H36708   0.441   5.827   0.656  0.1184 -0.6519  1.1916
  272MOL0     H36709   0.640   5.670   0.688  1.8661 -2.6321 -0.1407
  272MOL0     H36710   0.863   5.553   0.649 -1.3153  1.5572  2.5503
  272MOL0     H36711   0.719   5.490   0.739  0.6726 -2.9887  0.4355
  272MOL0     H36712   0.910   5.309   0.593 -0.3449  2.1704 -0.4622
  272MOL0     H36713   0.779   5.256   0.704 -2.7732  1.2695  0.0637
  272MOL0     H36714   0.876   5.371   0.889  0.5242 -0.4781  0.3694
  272MOL0     H36715   1.002   5.446   0.789 -1.7904  1.2707  0.6092
  272MOL0     H36716   0.963   5.155   0.873 -0.7609  1.8173  2.5188
  272MOL0     H36717   1.104   5.275   0.902  0.8084 -0.6202 -0.1770
  272MOL0     H36718   1.222   5.149   0.524 -0.5502  1.6402 -0.3796
  272MOL0     H36719   0.550   5.494   0.311  1.4709 -1.6542  2.4523
  272MOL0     H36720   0.356   5.645   0.277 -1.1072 -0.8840  1.3346
  273MOL0     O36721   5.189   9.719   0.345  0.0953  0.2730 -0.4177
  273MOL0     C36722   5.151   9.822   0.288  0.1361 -0.8564  0.4177
  273MOL0     O36723   5.156   9.951   0.342 -0.8026 -0.6228  1.2468
  273MOL0     C36724   5.234   9.979   0.455 -0.8133 -0.1050  0.5740
  273MOL0     C36725   5.178  10.016   0.575 -0.4628  0.3309 -0.7305
  273MOL0     C36726   5.254  10.042   0.687 -0.5103  0.0616  0.5974
  273MOL0     C36727   5.394  10.021   0.684 -0.8028  0.3017 -0.3120
  273MOL0     O36728   5.486  10.027   0.786 -0.6979  0.0281  0.9987
  273MOL0     C36729   5.473  10.128   0.884  0.2762 -0.1902  0.0087
  273MOL0     C36730   5.584  10.098   0.991 -0.2959  0.0889  0.2389
  273MOL0     C36731   5.544  10.004   1.099  0.3821  1.1412 -0.1116
  273MOL0     C36732   5.673   9.982   1.179  0.0688  0.7451  0.1420
  273MOL0     C36733   5.709  10.090   1.277 -0.8946 -0.5286  1.0220
  273MOL0     C36734   5.834  10.041   1.349  0.2576 -0.5650 -0.0639
  273MOL0     C36735   5.858  10.152   1.462 -0.5188 -0.1977  0.0727
  273MOL0     C36736   5.962  10.110   1.565  0.4689 -0.0128 -0.7356
  273MOL0     N36737   6.073  10.052   1.502 -0.3122  0.2554 -0.2276
  273MOL0     C36738   6.114   9.924   1.532 -0.0827  0.1810  0.1240
  273MOL0     C36739   6.208   9.897   1.438 -0.3116  0.8666 -0.0571
  273MOL0     C36740   6.290   9.771   1.438  0.6254  1.6872  0.4762
  273MOL0     C36741   6.186   9.661   1.400 -0.7921 -1.0400  0.1843
  273MOL0     C36742   6.268   9.535   1.399 -0.2659 -0.1835  0.2364
  273MOL0     C36743   6.192   9.410   1.337 -0.5523 -1.6743 -0.3987
  273MOL0     O36744   6.182   9.437   1.196  0.1298 -1.1244 -0.0872
  273MOL0     C36745   6.146   9.350   1.106  0.1673  0.6324  0.1216
  273MOL0     C36746   6.166   9.214   1.117 -1.0043  0.0970 -0.0872
  273MOL0     C36747   6.117   9.121   1.029  0.4284 -0.5561 -0.4419
  273MOL0     C36748   6.157   8.982   1.050 -0.2475 -0.1997 -0.4308
  273MOL0     C36749   6.045   9.180   0.913 -0.0838  0.5429 -0.4713
  273MOL0     C36750   6.002   9.084   0.803 -0.4423  0.7121 -0.7998
  273MOL0     O36751   6.006   9.135   0.681 -0.7141  0.0966 -0.4500
  273MOL0     C36752   5.985   9.062   0.566  0.7883 -0.0299 -0.7188
  273MOL0     C36753   6.038   8.934   0.538 -0.4026 -1.6962 -0.6561
  273MOL0     C36754   5.974   8.860   0.444  0.6938  0.1397  0.4354
  273MOL0     C36755   5.860   8.899   0.371 -0.8969  0.1555  0.1645
  273MOL0     O36756   5.797   8.831   0.280  0.5671 -0.8181 -0.3898
  273MOL0     C36757   5.782   8.697   0.320  0.8422 -0.0184 -0.2828
  273MOL0     C36758   5.677   8.639   0.226  0.4930 -0.0415 -0.5808
  273MOL0     C36759   5.533   8.691   0.258 -0.6053  1.0254 -0.8215
  273MOL0     C36760   5.465   8.604   0.371  0.1971 -0.2074  0.5198
  273MOL0     C36761   5.318   8.631   0.371  0.6566 -0.2528 -0.5275
  273MOL0     C36762   5.275   8.769   0.433 -0.1181  0.6657 -0.8617
  273MOL0     C36763   5.119   8.786   0.443 -0.0855 -0.1715  0.5442
  273MOL0     C36764   5.063   8.907   0.510  0.5099  0.2592 -0.2212
  273MOL0    Cl36765   4.892   8.920   0.473  0.3695 -0.2678  0.6850
  273MOL0     C36766   5.821   9.031   0.401 -0.0408  0.0697  0.2791
  273MOL0     C36767   5.881   9.113   0.496  1.5130 -0.4819  0.5149
  273MOL0     O36768   5.978   8.964   0.824  1.4738  0.2953 -0.2008
  273MOL0     C36769   6.015   9.317   0.906 -0.2116 -0.4725  0.1968
  273MOL0     C36770   6.076   9.402   1.003  0.0365  0.0583 -0.2416
  273MOL0     N36771   6.235  10.021   1.382  0.4509 -0.0858 -0.4916
  273MOL0     N36772   6.158  10.116   1.408  1.3330  0.1687  0.5243
  273MOL0     C36773   5.444   9.978   0.558 -1.1248 -0.5547  0.0370
  273MOL0     C36774   5.363   9.960   0.443  0.3954  0.3258 -0.0793
  273MOL0     C36775   5.090   9.805   0.153  0.4158  0.7895  0.0083
  273MOL0     C36776   5.044   9.680   0.109  0.4573 -0.1267 -0.0133
  273MOL0     C36777   4.976   9.676  -0.019  0.6074 -0.1097  0.7062
  273MOL0     C36778   4.949   9.789  -0.100  0.4015 -0.8426 -1.5282
  273MOL0     O36779   4.887   9.794  -0.226  0.2150 -0.0883 -0.3039
  273MOL0     C36780   4.794   9.684  -0.250  0.3600  0.4380 -0.4606
  273MOL0     C36781   4.676   9.724  -0.334 -0.2802  0.5239  0.1177
  273MOL0     C36782   4.705   9.760  -0.480 -0.1969 -0.4248  0.6010
  273MOL0     C36783   4.578   9.790  -0.557 -0.6937 -0.2254 -0.1121
  273MOL0     C36784   4.512   9.663  -0.575  0.0239 -0.2612  0.1999
  273MOL0     C36785   4.459   9.551  -0.582  0.5455 -0.0184 -0.1706
  273MOL0     C36786   5.000   9.911  -0.060 -0.7520  0.6198 -1.0046
  273MOL0     C36787   5.063   9.921   0.068 -0.1841  0.3243 -0.1045
  273MOL0     H36788   5.073   9.995   0.588  0.1265 -2.3638  0.3614
  273MOL0     H36789   5.204  10.065   0.780 -1.8020  1.1713 -0.3325
  273MOL0     H36790   5.487  10.226   0.838 -2.4651  0.3966  0.2596
  273MOL0     H36791   5.371  10.125   0.923  0.5204 -0.7283  0.6320
  273MOL0     H36792   5.668  10.050   0.940 -1.8057 -1.4886 -0.8659
  273MOL0     H36793   5.616  10.193   1.036 -0.9030  0.4135 -0.0065
  273MOL0     H36794   5.466  10.047   1.163  1.7453  0.5338  2.0881
  273MOL0     H36795   5.506   9.918   1.044  0.9092  0.0264  1.2027
  273MOL0     H36796   5.667   9.883   1.225 -0.4374  1.0800  0.7959
  273MOL0     H36797   5.754   9.970   1.106 -0.9104 -0.3713 -0.7997
  273MOL0     H36798   5.727  10.191   1.241 -0.7572  0.0532  2.6593
  273MOL0     H36799   5.630  10.104   1.351 -1.5988  0.4584  0.0901
  273MOL0     H36800   5.818   9.941   1.391 -0.5588 -1.5561 -2.5295
  273MOL0     H36801   5.927  10.030   1.293  0.6989 -0.7582  0.6864
  273MOL0     H36802   5.892  10.241   1.409 -3.9080  1.2101 -0.0139
  273MOL0     H36803   5.757  10.170   1.500 -1.0317 -1.7581 -0.4391
  273MOL0     H36804   5.925  10.039   1.639 -0.3059 -0.1706 -1.2516
  273MOL0     H36805   5.994  10.196   1.624  0.3355 -0.4490 -0.0205
  273MOL0     H36806   6.057   9.857   1.594  3.5481 -2.0945  1.3360
  273MOL0     H36807   6.376   9.781   1.372  0.7422  1.1423  0.5392
  273MOL0     H36808   6.330   9.750   1.538 -1.8932 -0.4163  1.1505
  273MOL0     H36809   6.149   9.669   1.297  0.4435  0.2798 -0.1932
  273MOL0     H36810   6.105   9.653   1.473 -0.3533 -0.3090  0.7657
  273MOL0     H36811   6.291   9.518   1.505 -0.9861  1.0883  0.6161
  273MOL0     H36812   6.360   9.543   1.340 -1.2437 -2.2850 -1.7034
  273MOL0     H36813   6.095   9.389   1.383  0.1794  1.3294  2.8582
  273MOL0     H36814   6.256   9.323   1.358  0.9969 -0.5917 -0.4472
  273MOL0     H36815   6.210   9.187   1.213 -0.8004 -0.1011 -0.2362
  273MOL0     H36816   6.236   8.977   1.125 -0.4335 -3.2236 -0.3270
  273MOL0     H36817   6.068   8.921   1.066 -0.5734  0.1855 -0.7286
  273MOL0     H36818   6.207   8.938   0.963 -0.4534  0.0649 -0.6878
  273MOL0     H36819   6.122   8.902   0.599  0.9030  1.2668 -0.7315
  273MOL0     H36820   6.012   8.768   0.399  1.9457  1.1398 -0.6317
  273MOL0     H36821   5.882   8.655   0.307  1.8486  2.3331 -0.6622
  273MOL0     H36822   5.741   8.688   0.421 -2.3299 -1.5626 -1.5520
  273MOL0     H36823   5.712   8.662   0.125  1.7463 -2.8976 -0.8865
  273MOL0     H36824   5.672   8.530   0.218 -2.1278  0.0136 -0.3901
  273MOL0     H36825   5.482   8.696   0.162 -3.1190 -0.9118  0.2863
  273MOL0     H36826   5.529   8.788   0.307 -4.4902  0.0568  1.2019
  273MOL0     H36827   5.478   8.496   0.380 -1.9344 -0.3659  2.5641
  273MOL0     H36828   5.511   8.640   0.463  1.1463  1.1674 -0.4397
  273MOL0     H36829   5.266   8.553   0.427  1.6428  0.5396  1.6074
  273MOL0     H36830   5.282   8.633   0.268 -1.2029  4.4109 -0.0318
  273MOL0     H36831   5.308   8.751   0.536  0.3179  1.2106 -0.9009
  273MOL0     H36832   5.333   8.856   0.400 -2.2625  2.6570  0.2613
  273MOL0     H36833   5.074   8.702   0.495  3.8880 -0.9760  3.1078
  273MOL0     H36834   5.082   8.785   0.340  1.5416  1.0360 -0.1077
  273MOL0     H36835   5.111   8.997   0.472 -2.4281  1.2670 -1.8825
  273MOL0     H36836   5.073   8.901   0.619 -1.6675  1.3512  0.1126
  273MOL0     H36837   5.732   9.079   0.360  0.0369 -0.1903 -0.2125
  273MOL0     H36838   5.847   9.213   0.522  1.5090 -0.1038 -0.8656
  273MOL0     H36839   5.950   9.356   0.828 -0.6326 -2.6901 -0.6242
  273MOL0     H36840   6.058   9.508   1.017 -0.5014 -0.2234  1.5122
  273MOL0     H36841   5.548   9.946   0.552 -1.5529 -1.8852 -0.7235
  273MOL0     H36842   5.404   9.929   0.348 -1.5245 -1.3794 -0.4055
  273MOL0     H36843   5.064   9.592   0.169 -0.7862 -1.7642 -1.8923
  273MOL0     H36844   4.943   9.583  -0.063 -0.0644  0.8835 -0.9707
  273MOL0     H36845   4.836   9.597  -0.302 -2.5916 -0.6296 -1.2429
  273MOL0     H36846   4.754   9.644  -0.157 -0.7307 -0.6361 -1.3503
  273MOL0     H36847   4.625   9.814  -0.297  0.5548  0.3959  1.6772
  273MOL0     H36848   4.620   9.631  -0.330  2.6684 -1.3663  0.4769
  273MOL0     H36849   4.771   9.683  -0.523 -0.1135  0.2887 -0.5968
  273MOL0     H36850   4.771   9.847  -0.490 -0.1274 -0.7580 -3.3708
  273MOL0     H36851   4.604   9.839  -0.651  2.4265 -2.7151 -0.7354
  273MOL0     H36852   4.511   9.855  -0.499 -0.5809 -0.9617  0.8778
  273MOL0     H36853   4.412   9.455  -0.570 -2.1549  1.1634 -0.5931
  273MOL0     H36854   4.977  10.000  -0.117  2.6216  1.2331 -1.6296
  273MOL0     H36855   5.104  10.021   0.085  3.1835 -0.8354 -0.5101
  274MOL0     O36856   3.143   4.922   8.216 -0.5282  0.9305 -0.0833
  274MOL0     C36857   3.218   4.899   8.120  0.5054 -0.0629 -0.0127
  274MOL0     O36858   3.345   4.860   8.130  0.0693  0.6746  0.1107
  274MOL0     C36859   3.396   4.820   8.251 -0.0779 -0.7840 -1.1438
  274MOL0     C36860   3.530   4.854   8.284  0.0267  0.1174  0.2478
  274MOL0     C36861   3.591   4.803   8.406  0.0669 -0.1559  0.6305
  274MOL0     C36862   3.506   4.723   8.490  0.4274 -0.5556  0.3938
  274MOL0     O36863   3.557   4.676   8.599  0.9675  0.3163  0.0739
  274MOL0     C36864   3.549   4.534   8.614 -0.7913 -0.0275 -0.1031
  274MOL0     C36865   3.633   4.462   8.504  0.1219  0.3334  0.3939
  274MOL0     C36866   3.785   4.501   8.514 -0.0601 -0.0939  1.0992
  274MOL0     C36867   3.846   4.491   8.370  1.0713 -0.4504 -0.3847
  274MOL0     C36868   3.991   4.534   8.368 -0.1078  0.0622 -0.9070
  274MOL0     C36869   4.055   4.550   8.228  0.6199  0.1528 -1.0805
  274MOL0     C36870   4.111   4.414   8.175 -0.0313 -0.0825  0.6096
  274MOL0     C36871   4.140   4.427   8.029 -0.3804  0.2330 -0.0263
  274MOL0     N36872   4.014   4.450   7.947 -0.0718  0.6395 -0.3085
  274MOL0     C36873   3.906   4.365   7.945 -1.3155 -0.3395  0.2340
  274MOL0     C36874   3.815   4.424   7.869  0.0694  0.0509 -0.0863
  274MOL0     C36875   3.691   4.360   7.825 -0.9222 -0.2976  0.7438
  274MOL0     C36876   3.587   4.359   7.926 -0.7752 -0.6387  0.8275
  274MOL0     C36877   3.520   4.499   7.963  0.1752 -0.7927 -1.1092
  274MOL0     C36878   3.425   4.545   7.848 -0.3195  0.2051 -0.7234
  274MOL0     O36879   3.315   4.455   7.838 -0.9557  0.2584  0.5942
  274MOL0     C36880   3.208   4.522   7.798  0.7489  0.1189  0.8450
  274MOL0     C36881   3.120   4.567   7.887  0.1653  0.5378 -0.3373
  274MOL0     C36882   3.007   4.641   7.854  0.1424  0.1218  0.7050
  274MOL0     C36883   2.930   4.705   7.961 -0.2601 -0.6908 -0.3310
  274MOL0     C36884   2.968   4.653   7.716  0.0381 -0.3164 -0.6985
  274MOL0     C36885   2.844   4.710   7.671  0.0853  0.1437 -0.0893
  274MOL0     O36886   2.743   4.716   7.758  0.4050  0.4077 -0.0698
  274MOL0     C36887   2.642   4.810   7.738 -0.0326  0.9615  0.4098
  274MOL0     C36888   2.661   4.944   7.684  0.1919  0.1518  0.7554
  274MOL0     C36889   2.552   5.026   7.649 -0.1279  0.6618  0.1159
  274MOL0     C36890   2.418   4.980   7.652  0.0867  0.1205  0.2562
  274MOL0     O36891   2.312   5.066   7.615 -0.3327 -0.6225 -0.0540
  274MOL0     C36892   2.180   5.045   7.666 -0.4780  0.0934 -0.8315
  274MOL0     C36893   2.112   4.959   7.557  0.3569  1.0867  0.6918
  274MOL0     C36894   2.080   5.038   7.434  0.8115  0.0936 -0.5831
  274MOL0     C36895   2.023   4.955   7.316 -0.1073  0.2389 -0.0178
  274MOL0     C36896   2.117   4.847   7.259 -0.5725 -0.5618 -0.1421
  274MOL0     C36897   2.057   4.707   7.289 -0.3866  0.4832  0.2532
  274MOL0     C36898   2.168   4.615   7.254 -0.0702 -0.3760 -0.3982
  274MOL0     C36899   2.140   4.465   7.255 -0.6378 -0.5353 -0.4316
  274MOL0    Cl36900   1.969   4.421   7.209  0.0506 -0.6143  0.2253
  274MOL0     C36901   2.402   4.855   7.720 -0.1231  0.3130 -1.0147
  274MOL0     C36902   2.514   4.769   7.759  0.8703  0.5358 -0.3109
  274MOL0     O36903   2.835   4.750   7.557 -1.1136 -0.7243  0.4249
  274MOL0     C36904   3.054   4.592   7.626 -0.3776 -0.6535  0.1913
  274MOL0     C36905   3.178   4.539   7.664  0.1161 -0.6519 -0.1556
  274MOL0     N36906   3.858   4.546   7.820  0.9392  1.1386  0.6767
  274MOL0     N36907   3.974   4.565   7.877 -0.2360  0.0074 -0.6574
  274MOL0     C36908   3.370   4.693   8.456 -1.1453 -0.4765  0.2952
  274MOL0     C36909   3.321   4.738   8.337 -0.2782  0.2202  0.4232
  274MOL0     C36910   3.169   4.943   7.986 -0.7932  0.7206  0.4285
  274MOL0     C36911   3.223   4.902   7.868 -0.6637 -0.3263 -0.4637
  274MOL0     C36912   3.178   4.956   7.749  0.0672  0.4985 -0.3460
  274MOL0     C36913   3.060   5.037   7.747 -1.4501 -0.4680  0.1611
  274MOL0     O36914   3.002   5.092   7.640  0.4647  0.0200  1.0287
  274MOL0     C36915   3.023   5.030   7.516 -0.3104  0.1542  0.1973
  274MOL0     C36916   2.911   5.063   7.413 -0.2488 -0.4277  0.1635
  274MOL0     C36917   2.940   5.202   7.351 -0.4526 -0.3209  1.0879
  274MOL0     C36918   2.808   5.258   7.303 -0.6307 -0.9495 -0.2925
  274MOL0     C36919   2.824   5.404   7.296 -0.2260 -0.0636 -0.9288
  274MOL0     C36920   2.834   5.525   7.306  0.1987  0.0689 -0.1889
  274MOL0     C36921   2.997   5.066   7.872  0.0304  0.5190  0.4918
  274MOL0     C36922   3.052   5.020   7.988 -0.6988  0.6471 -0.0389
  274MOL0     H36923   3.584   4.907   8.207  2.1519 -3.1969 -0.7408
  274MOL0     H36924   3.693   4.827   8.432 -0.7744  0.8349  3.3869
  274MOL0     H36925   3.593   4.502   8.709 -1.9921 -2.4526 -0.2876
  274MOL0     H36926   3.446   4.496   8.617 -0.4132 -1.0832  0.1414
  274MOL0     H36927   3.610   4.357   8.525 -2.0308 -0.1225 -3.3653
  274MOL0     H36928   3.595   4.475   8.402  2.5384 -4.1234 -1.3443
  274MOL0     H36929   3.804   4.600   8.557  0.0296  1.5369 -2.4105
  274MOL0     H36930   3.832   4.441   8.593  0.1619 -3.7843 -1.5783
  274MOL0     H36931   3.840   4.384   8.345 -1.5587 -0.3190 -0.5701
  274MOL0     H36932   3.793   4.551   8.296  1.7913  0.7784  0.0790
  274MOL0     H36933   4.004   4.628   8.421 -4.8728  1.4837 -1.7670
  274MOL0     H36934   4.033   4.453   8.429 -0.5923  0.0249 -0.6186
  274MOL0     H36935   3.982   4.593   8.158 -0.8492 -2.4122 -1.2594
  274MOL0     H36936   4.135   4.623   8.243  0.3395  0.1858  0.3966
  274MOL0     H36937   4.200   4.375   8.225  0.9803 -2.0306 -2.3973
  274MOL0     H36938   4.036   4.336   8.187  1.3361 -2.7556 -4.9096
  274MOL0     H36939   4.201   4.346   7.989 -0.7288 -1.1719  2.1240
  274MOL0     H36940   4.207   4.513   8.017  0.3763  0.4666  4.2172
  274MOL0     H36941   3.900   4.263   7.983 -0.8348  0.0273  1.3388
  274MOL0     H36942   3.655   4.395   7.728 -0.5281 -0.1245  0.6572
  274MOL0     H36943   3.717   4.257   7.800  1.0016  0.5001 -0.8808
  274MOL0     H36944   3.635   4.328   8.019  0.5720 -1.2441 -0.0417
  274MOL0     H36945   3.512   4.284   7.903 -0.5197 -1.4869  2.5633
  274MOL0     H36946   3.601   4.570   7.983  2.3613 -2.6178 -2.8735
  274MOL0     H36947   3.458   4.486   8.053 -0.2861  0.9994 -1.1387
  274MOL0     H36948   3.467   4.561   7.748 -0.4750  0.1669 -0.7955
  274MOL0     H36949   3.390   4.642   7.886 -3.1959 -1.3564  0.9211
  274MOL0     H36950   3.135   4.550   7.993  2.6434 -3.4201 -1.1268
  274MOL0     H36951   2.913   4.811   7.939 -0.3654 -0.5007  0.6228
  274MOL0     H36952   2.828   4.668   7.972 -0.3968 -0.9417 -2.1036
  274MOL0     H36953   2.988   4.698   8.054  1.1404 -0.7783 -1.1804
  274MOL0     H36954   2.757   4.992   7.670  1.0768 -1.4259  1.1950
  274MOL0     H36955   2.587   5.120   7.608  2.7040 -1.3365 -2.4990
  274MOL0     H36956   2.184   5.003   7.767 -0.9028  1.9687  0.0068
  274MOL0     H36957   2.131   5.140   7.687  0.7119  0.5524  0.0128
  274MOL0     H36958   2.183   4.878   7.538  1.1323  2.3984 -2.5672
  274MOL0     H36959   2.023   4.898   7.578  0.6808 -1.5215 -4.1014
  274MOL0     H36960   2.168   5.098   7.406 -1.1320  2.3583 -2.1906
  274MOL0     H36961   1.999   5.104   7.464  0.0224  0.2243 -2.8394
  274MOL0     H36962   1.935   4.908   7.360  0.6964 -0.9791  0.3052
  274MOL0     H36963   1.988   5.021   7.235  2.3815  1.2871 -0.3249
  274MOL0     H36964   2.214   4.853   7.310  0.8545 -2.7467 -2.3492
  274MOL0     H36965   2.153   4.859   7.157  0.7905  0.1566  0.3780
  274MOL0     H36966   2.033   4.684   7.393  1.0718 -0.1427  0.4651
  274MOL0     H36967   1.972   4.686   7.223  1.8915 -2.5813 -1.9853
  274MOL0     H36968   2.247   4.629   7.328 -0.6659 -2.5719  0.7486
  274MOL0     H36969   2.218   4.634   7.158 -0.1163 -4.0224 -1.3051
  274MOL0     H36970   2.154   4.417   7.352  0.2775 -1.8800 -1.1977
  274MOL0     H36971   2.213   4.414   7.192  1.9986  2.0944  0.2188
  274MOL0     H36972   2.303   4.814   7.739  0.8516 -0.9243  2.2830
  274MOL0     H36973   2.494   4.684   7.824  0.7130  1.3815  0.7969
  274MOL0     H36974   3.029   4.589   7.520  1.9855 -1.0656 -0.4275
  274MOL0     H36975   3.233   4.484   7.588  1.3059  2.6835 -1.9016
  274MOL0     H36976   3.298   4.643   8.521 -0.5446 -0.5199  0.9333
  274MOL0     H36977   3.225   4.705   8.299  1.0354 -0.4155 -2.6469
  274MOL0     H36978   3.314   4.843   7.877  1.8400  3.0834 -1.5464
  274MOL0     H36979   3.238   4.933   7.662  1.5320 -0.3796  0.8344
  274MOL0     H36980   3.119   5.074   7.487 -0.0024  0.0036  0.9660
  274MOL0     H36981   3.034   4.923   7.537 -0.3815  0.3073  1.0535
  274MOL0     H36982   2.814   5.056   7.463 -1.1380 -6.7015 -1.5268
  274MOL0     H36983   2.916   4.993   7.329 -1.5441  0.2666 -0.5126
  274MOL0     H36984   2.996   5.193   7.257 -3.9521 -0.4217 -1.2024
  274MOL0     H36985   2.999   5.262   7.420  0.9244 -2.1979  1.6203
  274MOL0     H36986   2.730   5.244   7.378 -1.6685  2.3986 -0.6087
  274MOL0     H36987   2.770   5.217   7.209 -2.4084  0.3473 -0.1736
  274MOL0     H36988   2.849   5.630   7.320 -1.1991  0.0828  1.6459
  274MOL0     H36989   2.915   5.135   7.887  1.1430  2.5264 -2.0887
  274MOL0     H36990   3.028   5.074   8.079  2.0238  2.8623 -0.5009
  275MOL0     O36991   4.253   0.669   6.393  0.1724  0.1773  0.5002
  275MOL0     C36992   4.370   0.623   6.383 -0.1054  0.1138  0.7754
  275MOL0     O36993   4.399   0.489   6.382 -0.0921 -0.2252 -0.3299
  275MOL0     C36994   4.287   0.405   6.377 -0.9878  0.5605 -0.4787
  275MOL0     C36995   4.221   0.360   6.486  0.3614 -0.7682  0.2002
  275MOL0     C36996   4.116   0.273   6.459 -0.5109  0.6636 -0.5701
  275MOL0     C36997   4.086   0.217   6.336 -0.4453  0.0812 -0.3105
  275MOL0     O36998   3.997   0.120   6.335  0.1086 -0.4528 -0.4830
  275MOL0     C36999   3.967   0.058   6.210  0.2820 -0.7447  0.1231
  275MOL0     C37000   3.844  -0.041   6.224 -0.1735  0.2676  0.3029
  275MOL0     C37001   3.722   0.024   6.282 -0.6312  0.2350 -0.2793
  275MOL0     C37002   3.593  -0.024   6.227 -0.6488  0.9016  0.5675
  275MOL0     C37003   3.563  -0.168   6.280 -0.7028 -0.6610  0.3870
  275MOL0     C37004   3.438  -0.232   6.227 -0.1763 -0.5856 -0.2132
  275MOL0     C37005   3.419  -0.376   6.267 -1.3652  0.4522  0.4064
  275MOL0     C37006   3.318  -0.391   6.379 -0.4162 -0.0150  0.0120
  275MOL0     N37007   3.301  -0.540   6.414  1.5736 -0.4393 -0.6915
  275MOL0     C37008   3.219  -0.625   6.354 -0.7717  0.2706 -0.5835
  275MOL0     C37009   3.212  -0.737   6.431 -0.2223 -0.2511  0.3477
  275MOL0     C37010   3.129  -0.855   6.407  0.2258 -0.5570 -0.7768
  275MOL0     C37011   3.131  -0.934   6.532  0.7763  0.8402 -0.0082
  275MOL0     C37012   3.031  -1.052   6.534  0.3911 -0.1746  0.2214
  275MOL0     C37013   3.030  -1.130   6.667 -0.1413  0.4780 -0.2959
  275MOL0     O37014   3.083  -1.050   6.776 -0.2109 -0.0211 -0.3983
  275MOL0     C37015   3.153  -1.132   6.857  0.8180  0.7718 -0.7365
  275MOL0     C37016   3.093  -1.207   6.958 -0.2579 -0.5040 -0.5708
  275MOL0     C37017   3.172  -1.293   7.033  1.1435 -0.1438 -0.3227
  275MOL0     C37018   3.095  -1.367   7.138 -1.0994 -0.1772 -0.4839
  275MOL0     C37019   3.308  -1.309   7.006 -0.3240 -0.0779  0.4462
  275MOL0     C37020   3.389  -1.405   7.076 -0.4235  0.5095  0.0971
  275MOL0     O37021   3.473  -1.474   6.999 -0.9518 -0.1408 -0.3281
  275MOL0     C37022   3.577  -1.537   7.058  0.4265  0.5848  1.1293
  275MOL0     C37023   3.673  -1.471   7.127  0.2521 -0.2365 -0.2186
  275MOL0     C37024   3.787  -1.533   7.170  0.6377  0.4592 -0.5166
  275MOL0     C37025   3.817  -1.672   7.141  0.5978 -0.1861  0.8619
  275MOL0     O37026   3.941  -1.722   7.170 -0.3454  0.4318  0.1451
  275MOL0     C37027   3.956  -1.862   7.191 -0.3113  0.3012  0.7591
  275MOL0     C37028   3.988  -1.947   7.067 -0.1750  0.5282  0.7102
  275MOL0     C37029   4.025  -2.096   7.100  0.0539  0.6754 -0.4533
  275MOL0     C37030   3.967  -2.196   6.996 -0.0985 -0.2334 -0.3871
  275MOL0     C37031   4.024  -2.334   6.984 -0.1040  0.1459 -0.5366
  275MOL0     C37032   4.030  -2.416   7.116  0.0454  0.6566 -0.0294
  275MOL0     C37033   3.876  -2.439   7.155 -1.7465  0.1808  0.1364
  275MOL0     C37034   3.868  -2.534   7.271 -0.1738  0.1403  0.3708
  275MOL0    Cl37035   3.710  -2.564   7.340 -0.4404 -0.2630  0.4160
  275MOL0     C37036   3.723  -1.742   7.075 -0.4288  0.1251 -0.2806
  275MOL0     C37037   3.602  -1.681   7.027  0.4605 -0.3448  0.2481
  275MOL0     O37038   3.373  -1.423   7.197 -0.9891  0.2455 -0.1133
  275MOL0     C37039   3.367  -1.236   6.894  1.1516  0.0756 -0.1252
  275MOL0     C37040   3.287  -1.148   6.825  0.0116  0.5175  0.0298
  275MOL0     N37041   3.288  -0.707   6.547  0.2435 -0.2407 -0.0242
  275MOL0     N37042   3.336  -0.587   6.536 -0.7544 -0.0858  0.0729
  275MOL0     C37043   4.167   0.257   6.227  0.5805 -0.7683  0.1558
  275MOL0     C37044   4.260   0.359   6.247 -0.6740  0.5142  0.1097
  275MOL0     C37045   4.476   0.715   6.377  0.8732 -0.3762  0.2106
  275MOL0     C37046   4.593   0.679   6.316  0.4100  0.5201 -0.6039
  275MOL0     C37047   4.691   0.773   6.310 -0.3657 -0.3326 -1.0617
  275MOL0     C37048   4.685   0.899   6.371  0.4511 -0.8599  0.6195
  275MOL0     O37049   4.788   0.989   6.376 -0.2892 -0.6579 -0.8019
  275MOL0     C37050   4.908   0.975   6.306 -0.2364  0.1047 -0.0493
  275MOL0     C37051   5.007   1.057   6.395 -0.3400  0.2737  1.2034
  275MOL0     C37052   4.998   1.202   6.361 -0.3167 -0.3403  0.3242
  275MOL0     C37053   5.041   1.283   6.483 -0.0632 -0.2422 -0.8768
  275MOL0     C37054   5.187   1.278   6.494 -0.3076 -1.2349  0.5031
  275MOL0     C37055   5.310   1.289   6.497 -0.3219 -0.3320  0.2949
  275MOL0     C37056   4.573   0.924   6.445  0.1003 -0.4590 -0.6185
  275MOL0     C37057   4.463   0.831   6.456 -0.4388  0.6462  0.1344
  275MOL0     H37058   4.246   0.402   6.583  1.0425  2.8259 -1.3706
  275MOL0     H37059   4.049   0.240   6.537  0.8013 -2.1313 -0.4861
  275MOL0     H37060   3.939   0.133   6.136 -0.6473 -0.8230  0.3843
  275MOL0     H37061   4.054   0.007   6.169 -0.7313 -0.1446 -3.0361
  275MOL0     H37062   3.830  -0.084   6.125  0.3268 -3.7910  1.8059
  275MOL0     H37063   3.874  -0.129   6.282  1.0608  0.3873 -0.1264
  275MOL0     H37064   3.721   0.026   6.391 -0.9380  0.8217 -0.2902
  275MOL0     H37065   3.730   0.130   6.253  1.3072 -0.7039 -3.8495
  275MOL0     H37066   3.511   0.041   6.260 -2.7845 -0.7184 -1.2741
  275MOL0     H37067   3.599  -0.019   6.118 -0.1254 -1.8611  0.4117
  275MOL0     H37068   3.651  -0.227   6.252 -1.1194 -0.6641 -1.0220
  275MOL0     H37069   3.561  -0.173   6.389 -0.3134  2.0445  0.5852
  275MOL0     H37070   3.348  -0.180   6.260 -1.2166 -2.2288 -0.3762
  275MOL0     H37071   3.450  -0.228   6.118  2.4159 -0.8865 -0.0097
  275MOL0     H37072   3.383  -0.445   6.190  3.1327 -2.1225  0.3017
  275MOL0     H37073   3.510  -0.422   6.308 -1.2592  1.7468  1.6900
  275MOL0     H37074   3.223  -0.343   6.352  0.4910  3.1232  1.8271
  275MOL0     H37075   3.362  -0.329   6.458  0.7300 -0.9724  0.1551
  275MOL0     H37076   3.171  -0.610   6.258 -1.2764  0.3686 -0.3183
  275MOL0     H37077   3.028  -0.825   6.377  0.7416  1.3903 -0.7155
  275MOL0     H37078   3.159  -0.919   6.323  0.7805  0.6398 -1.5117
  275MOL0     H37079   3.117  -0.865   6.616  2.0995 -0.1405  1.0440
  275MOL0     H37080   3.225  -0.980   6.561  1.2250  2.7959  1.9036
  275MOL0     H37081   3.053  -1.116   6.448  0.5230 -0.6196  0.5807
  275MOL0     H37082   2.925  -1.026   6.521  0.3879 -0.0210  0.5442
  275MOL0     H37083   3.090  -1.220   6.648 -0.6698  0.3333 -1.3058
  275MOL0     H37084   2.928  -1.152   6.701  0.6486  1.5245  3.1391
  275MOL0     H37085   2.986  -1.196   6.971 -0.9815 -2.9876 -3.2358
  275MOL0     H37086   3.147  -1.357   7.234 -0.1931 -1.0607 -0.8622
  275MOL0     H37087   3.001  -1.313   7.134  0.6168  3.1315  0.2160
  275MOL0     H37088   3.087  -1.469   7.098  3.0546  0.0036 -2.4060
  275MOL0     H37089   3.645  -1.370   7.154 -1.9895 -1.7245  3.9680
  275MOL0     H37090   3.862  -1.484   7.231  0.5851 -0.8051  0.5974
  275MOL0     H37091   4.049  -1.872   7.248 -0.4084 -1.8759  0.6063
  275MOL0     H37092   3.878  -1.909   7.251 -2.9560  0.3904 -2.3395
  275MOL0     H37093   3.905  -1.941   6.995  1.1859  4.0158 -0.8122
  275MOL0     H37094   4.073  -1.919   7.004  0.2508 -1.9246  0.0836
  275MOL0     H37095   3.983  -2.115   7.199  1.8286  3.1072  0.8636
  275MOL0     H37096   4.129  -2.125   7.117  0.4234  1.1234 -1.8205
  275MOL0     H37097   3.863  -2.222   7.017  0.4144 -1.1479  1.1981
  275MOL0     H37098   3.970  -2.148   6.898 -1.4422  2.2280  0.6939
  275MOL0     H37099   4.119  -2.324   6.932 -1.0504  0.3802 -2.2670
  275MOL0     H37100   3.966  -2.388   6.909 -0.8547  1.3885 -0.8782
  275MOL0     H37101   4.073  -2.514   7.092 -0.1655 -0.0230  2.1165
  275MOL0     H37102   4.079  -2.364   7.199 -0.9590 -0.7626  1.5248
  275MOL0     H37103   3.839  -2.497   7.070 -1.6668 -3.3242  2.2508
  275MOL0     H37104   3.822  -2.345   7.166  0.3350  1.6092 -1.1732
  275MOL0     H37105   3.929  -2.480   7.344  0.0014 -0.6983  0.8553
  275MOL0     H37106   3.930  -2.620   7.246  1.7817  1.6238 -0.1768
  275MOL0     H37107   3.737  -1.849   7.064 -2.2213 -0.0896 -0.8803
  275MOL0     H37108   3.529  -1.733   6.967 -0.5961  0.1804  1.0498
  275MOL0     H37109   3.473  -1.247   6.875  1.2181 -0.9031  0.6966
  275MOL0     H37110   3.337  -1.092   6.746  1.0294 -0.2220  0.1325
  275MOL0     H37111   4.163   0.218   6.126 -3.2493 -3.0690  1.0059
  275MOL0     H37112   4.320   0.408   6.171 -0.4025 -0.5984 -0.4170
  275MOL0     H37113   4.597   0.584   6.263 -2.8932  0.4096 -0.8577
  275MOL0     H37114   4.769   0.743   6.240 -0.4259  0.0367 -1.2950
  275MOL0     H37115   4.930   0.871   6.282  0.8944 -0.1148  1.7727
  275MOL0     H37116   4.894   1.026   6.210  4.6166  0.4004 -0.8331
  275MOL0     H37117   5.102   1.023   6.352 -2.0851 -3.7694  0.1354
  275MOL0     H37118   5.005   1.040   6.504 -1.5750 -1.0485  1.0004
  275MOL0     H37119   4.897   1.228   6.328 -0.0272  2.8225  1.5476
  275MOL0     H37120   5.064   1.235   6.281  0.0206  1.0665  1.1448
  275MOL0     H37121   4.997   1.245   6.576 -0.1146 -1.0705 -1.2383
  275MOL0     H37122   5.007   1.387   6.478 -2.9991 -1.1713 -3.9620
  275MOL0     H37123   5.417   1.289   6.496 -0.2857 -0.9719  1.6240
  275MOL0     H37124   4.566   1.008   6.513 -6.0160 -0.7842 -0.3037
  275MOL0     H37125   4.376   0.855   6.518 -1.3928  0.0367 -0.9348
  276MOL0     O37126   6.803   6.060   6.301  0.5206 -0.2786  0.4721
  276MOL0     C37127   6.761   5.953   6.260  0.7476 -0.0760 -0.4822
  276MOL0     O37128   6.713   5.931   6.125  0.2155  0.4099  0.8360
  276MOL0     C37129   6.700   6.044   6.051 -0.4848 -0.6046 -0.1221
  276MOL0     C37130   6.571   6.092   6.021  0.2045 -0.3196 -0.4086
  276MOL0     C37131   6.554   6.200   5.949 -0.0829 -0.3957  0.8600
  276MOL0     C37132   6.669   6.268   5.893  0.4625 -0.8469  0.0055
  276MOL0     O37133   6.647   6.378   5.825  0.8053 -0.5403  0.3105
  276MOL0     C37134   6.680   6.497   5.904  0.2956 -0.1115 -0.9191
  276MOL0     C37135   6.546   6.571   5.939  0.4686  0.0088  0.4820
  276MOL0     C37136   6.503   6.682   5.847  0.1133 -0.6829  0.6250
  276MOL0     C37137   6.590   6.808   5.841 -0.3933 -0.0263 -0.0813
  276MOL0     C37138   6.515   6.909   5.758 -0.1953 -0.0253 -0.3357
  276MOL0     C37139   6.588   7.042   5.725 -0.3691  0.4802  0.3032
  276MOL0     C37140   6.480   7.132   5.647 -0.6294  0.3610 -0.6494
  276MOL0     C37141   6.362   7.169   5.729 -0.4353 -0.8343  0.8633
  276MOL0     N37142   6.383   7.226   5.859  0.3450 -0.0650 -0.2233
  276MOL0     C37143   6.471   7.324   5.897  0.6297 -0.2233  0.1307
  276MOL0     C37144   6.458   7.340   6.033  0.5708 -0.3192 -0.1232
  276MOL0     C37145   6.531   7.436   6.127  0.5467  0.1678 -0.2565
  276MOL0     C37146   6.666   7.492   6.073  1.2441  0.1646 -0.3745
  276MOL0     C37147   6.783   7.385   6.067  1.4712 -0.5619  0.3546
  276MOL0     C37148   6.786   7.274   5.965  0.0426  0.4148  0.5114
  276MOL0     O37149   6.775   7.318   5.824 -0.0235  0.2046  0.5000
  276MOL0     C37150   6.883   7.369   5.758 -0.8115  0.6580 -0.2822
  276MOL0     C37151   6.897   7.363   5.621  1.0555  0.6022  0.3125
  276MOL0     C37152   7.010   7.400   5.543 -0.1576  0.8428  0.3159
  276MOL0     C37153   6.991   7.376   5.394 -0.4463 -0.0973 -0.1787
  276MOL0     C37154   7.124   7.451   5.614  0.5660  1.1391 -0.1979
  276MOL0     C37155   7.237   7.518   5.540 -0.2972  0.0183  0.2694
  276MOL0     O37156   7.206   7.565   5.416  0.0555 -0.2628  0.3785
  276MOL0     C37157   7.286   7.654   5.344 -0.0149  0.3725 -0.1251
  276MOL0     C37158   7.370   7.755   5.391  0.0143 -0.1769 -0.0649
  276MOL0     C37159   7.457   7.829   5.309 -0.4065 -0.4506 -0.2581
  276MOL0     C37160   7.450   7.817   5.171  0.1423  1.4327 -0.2614
  276MOL0     O37161   7.525   7.882   5.077  0.2058  0.0666 -0.7970
  276MOL0     C37162   7.628   7.968   5.125 -0.3795 -0.4116 -0.2671
  276MOL0     C37163   7.700   8.018   5.001 -0.4322  0.5768 -0.6698
  276MOL0     C37164   7.609   8.089   4.902 -0.6889  0.2704  0.1366
  276MOL0     C37165   7.647   8.054   4.758  0.9120 -0.2828  0.5820
  276MOL0     C37166   7.563   8.141   4.662  0.6083 -0.0394 -0.1799
  276MOL0     C37167   7.421   8.090   4.651  1.3144  0.0799 -0.4029
  276MOL0     C37168   7.361   8.144   4.516  0.0889  0.1673  0.0775
  276MOL0     C37169   7.307   8.289   4.534  0.3394 -0.3667  0.5379
  276MOL0    Cl37170   7.185   8.314   4.664  0.0929  0.4673  0.4673
  276MOL0     C37171   7.353   7.730   5.117 -0.3728 -0.0706 -0.1030
  276MOL0     C37172   7.277   7.643   5.203 -0.2342  0.3913 -0.3145
  276MOL0     O37173   7.344   7.539   5.593 -0.3287  0.4918  0.3817
  276MOL0     C37174   7.120   7.443   5.750  0.7131  0.2497 -0.6930
  276MOL0     C37175   7.006   7.397   5.820  0.5589 -0.6538 -0.8058
  276MOL0     N37176   6.375   7.238   6.079 -0.4100 -0.6365 -0.2351
  276MOL0     N37177   6.323   7.173   5.973  1.0564  0.7532 -0.0295
  276MOL0     C37178   6.796   6.221   5.919 -0.7099 -0.7609  0.1684
  276MOL0     C37179   6.810   6.103   5.994 -0.6979 -0.8290 -0.8733
  276MOL0     C37180   6.767   5.834   6.345  0.0324  0.9087 -0.8905
  276MOL0     C37181   6.728   5.696   6.313 -0.3166  0.0367  1.4841
  276MOL0     C37182   6.755   5.590   6.397  0.0206  0.3918 -0.2179
  276MOL0     C37183   6.830   5.611   6.516  0.0488  0.0880  0.2602
  276MOL0     O37184   6.848   5.494   6.584 -0.6969 -0.9348 -0.6199
  276MOL0     C37185   6.845   5.505   6.727  0.6488  0.8655 -0.2084
  276MOL0     C37186   6.797   5.372   6.784  0.1198 -0.1353 -0.4783
  276MOL0     C37187   6.664   5.318   6.718  0.5870 -0.3502  0.6105
  276MOL0     C37188   6.683   5.199   6.623 -0.7673 -0.6651 -0.7922
  276MOL0     C37189   6.566   5.150   6.558  0.2203 -0.7411  0.1941
  276MOL0     C37190   6.465   5.114   6.511 -0.1857  0.1620  0.8097
  276MOL0     C37191   6.877   5.735   6.546 -0.8622 -0.4723 -0.1534
  276MOL0     C37192   6.849   5.838   6.463  0.6440  0.6908 -0.0807
  276MOL0     H37193   6.488   6.052   6.078 -0.8644  2.4131  0.1250
  276MOL0     H37194   6.448   6.223   5.937  0.4543  1.2879 -1.3126
  276MOL0     H37195   6.723   6.471   6.001 -0.6742  3.1289  0.5207
  276MOL0     H37196   6.746   6.570   5.856  0.9121  0.4945  0.7617
  276MOL0     H37197   6.462   6.501   5.933 -2.0094  2.9208 -1.9583
  276MOL0     H37198   6.556   6.611   6.040 -2.4247 -0.3580  0.9969
  276MOL0     H37199   6.492   6.648   5.744 -0.1858  0.8182  0.1256
  276MOL0     H37200   6.405   6.720   5.876  0.5784  1.1206 -0.0227
  276MOL0     H37201   6.608   6.848   5.941 -1.0313 -0.6150  0.2808
  276MOL0     H37202   6.686   6.788   5.793 -0.6168  0.1072 -0.5911
  276MOL0     H37203   6.497   6.862   5.661 -0.5768  1.1199 -0.8373
  276MOL0     H37204   6.425   6.934   5.814  0.0779  2.6331 -0.9631
  276MOL0     H37205   6.617   7.097   5.815 -0.3331 -1.5127  1.5537
  276MOL0     H37206   6.663   7.025   5.648 -1.8060 -2.6064 -0.5519
  276MOL0     H37207   6.518   7.226   5.605 -2.0792  0.9443 -0.7133
  276MOL0     H37208   6.450   7.090   5.551 -1.1700  1.7078 -1.0996
  276MOL0     H37209   6.309   7.076   5.752  0.1110 -1.0384  1.3046
  276MOL0     H37210   6.289   7.228   5.672  1.2071 -2.5687 -3.4824
  276MOL0     H37211   6.534   7.389   5.836 -0.5932  0.4279 -0.4886
  276MOL0     H37212   6.461   7.521   6.135 -2.4378 -1.6780 -3.7807
  276MOL0     H37213   6.539   7.385   6.224  0.2719 -1.1805 -0.9239
  276MOL0     H37214   6.701   7.585   6.119  2.8333  1.6433 -4.1689
  276MOL0     H37215   6.649   7.528   5.971  0.6984 -1.0254 -0.7176
  276MOL0     H37216   6.782   7.348   6.170 -0.8158  1.8402  1.3138
  276MOL0     H37217   6.878   7.439   6.057  0.7528  1.5925  3.4838
  276MOL0     H37218   6.716   7.191   5.975  0.2976  0.0092 -0.8907
  276MOL0     H37219   6.889   7.240   5.973  1.8656  3.4543 -4.6691
  276MOL0     H37220   6.815   7.315   5.567  1.4304  1.0966 -0.7251
  276MOL0     H37221   6.958   7.473   5.356 -4.3680 -0.8159  0.8770
  276MOL0     H37222   7.085   7.351   5.345 -1.8327 -0.3413 -2.8879
  276MOL0     H37223   6.915   7.302   5.368  0.7873 -1.8586  0.9480
  276MOL0     H37224   7.376   7.772   5.499 -0.7259 -0.9343  0.0994
  276MOL0     H37225   7.513   7.908   5.357 -2.4241  0.0572  1.3991
  276MOL0     H37226   7.584   8.053   5.179 -0.9471 -0.9380  0.1099
  276MOL0     H37227   7.692   7.914   5.195 -1.2471  0.0005  0.8904
  276MOL0     H37228   7.783   8.084   5.028  1.0929 -0.1274 -3.2770
  276MOL0     H37229   7.765   7.942   4.957  2.1802  1.3889  1.5072
  276MOL0     H37230   7.616   8.197   4.915 -1.5682  0.2430  1.0041
  276MOL0     H37231   7.509   8.048   4.921 -0.5963  0.8671  2.1898
  276MOL0     H37232   7.754   8.070   4.741  0.3768  3.1462 -0.3037
  276MOL0     H37233   7.629   7.947   4.747 -1.5566 -0.0787  2.0680
  276MOL0     H37234   7.613   8.132   4.565 -1.0191 -1.9160 -0.9261
  276MOL0     H37235   7.553   8.245   4.695  1.1863  0.0534 -0.2933
  276MOL0     H37236   7.410   7.982   4.645  0.7144  0.1745 -1.1095
  276MOL0     H37237   7.365   8.134   4.734 -0.5684  0.8530 -2.0161
  276MOL0     H37238   7.280   8.078   4.485  1.4189 -0.7031 -1.7113
  276MOL0     H37239   7.424   8.149   4.427 -0.1258 -0.2117 -0.0962
  276MOL0     H37240   7.262   8.322   4.440  1.7489  0.3920  0.1023
  276MOL0     H37241   7.385   8.363   4.554 -1.5066  2.1646 -1.0916
  276MOL0     H37242   7.338   7.712   5.011  1.5662 -1.4203 -0.1927
  276MOL0     H37243   7.201   7.576   5.164  0.9392 -0.7274 -0.7868
  276MOL0     H37244   7.215   7.475   5.792  1.2839  1.8154 -2.9585
  276MOL0     H37245   7.012   7.398   5.928 -0.8113  1.2699 -0.6981
  276MOL0     H37246   6.883   6.279   5.891 -1.8871  0.7768 -0.3966
  276MOL0     H37247   6.912   6.074   6.018  0.2470  2.6583 -0.1218
  276MOL0     H37248   6.677   5.672   6.220 -0.2422 -1.1679  1.7472
  276MOL0     H37249   6.713   5.494   6.370  0.2131  0.4890 -0.8929
  276MOL0     H37250   6.950   5.515   6.758  0.3528  2.0337  0.4851
  276MOL0     H37251   6.774   5.580   6.762 -0.0240  0.7471 -1.2789
  276MOL0     H37252   6.780   5.392   6.890  0.8416  2.6491 -0.7933
  276MOL0     H37253   6.874   5.296   6.773 -3.6847 -4.1553 -2.5145
  276MOL0     H37254   6.627   5.403   6.660 -2.0907 -0.1521  2.4645
  276MOL0     H37255   6.600   5.292   6.803  2.1755  0.4723  2.1287
  276MOL0     H37256   6.730   5.116   6.676  1.8786 -0.0841 -2.0568
  276MOL0     H37257   6.750   5.235   6.544 -1.2766  4.8758  0.8338
  276MOL0     H37258   6.372   5.102   6.458 -1.4081  1.5523  2.5162
  276MOL0     H37259   6.934   5.754   6.636 -0.9358 -2.3819  0.3454
  276MOL0     H37260   6.889   5.932   6.501 -2.0911  1.6827  0.5955
  277MOL0     O37261   2.713   1.339   9.759  0.1987  0.8526  0.8782
  277MOL0     C37262   2.814   1.379   9.812 -1.0642  1.2513  0.0261
  277MOL0     O37263   2.919   1.436   9.755  0.6779 -0.4982  0.1647
  277MOL0     C37264   2.922   1.445   9.617 -0.2473  0.1762  0.8687
  277MOL0     C37265   3.010   1.544   9.572  0.0332 -0.9825 -0.8297
  277MOL0     C37266   3.035   1.560   9.434 -0.3616 -0.2821  0.0273
  277MOL0     C37267   2.976   1.484   9.336  0.7058  0.5324  0.1660
  277MOL0     O37268   3.016   1.521   9.208 -0.3817  0.5617  0.1343
  277MOL0     C37269   2.951   1.445   9.101  0.3752 -0.1866 -0.6265
  277MOL0     C37270   2.987   1.476   8.959  0.0863 -0.2051  0.1449
  277MOL0     C37271   2.943   1.619   8.911 -0.2778  0.3602 -0.4213
  277MOL0     C37272   2.890   1.599   8.770  0.4505 -1.6230  1.2829
  277MOL0     C37273   2.823   1.735   8.732  0.5264 -0.0287  0.3717
  277MOL0     C37274   2.676   1.733   8.786 -0.3739  0.1148 -0.4487
  277MOL0     C37275   2.605   1.860   8.732 -0.0265  1.0718 -0.7281
  277MOL0     C37276   2.455   1.841   8.763  0.6015 -0.0292 -0.6796
  277MOL0     N37277   2.377   1.961   8.731  0.0880 -1.0707  0.8358
  277MOL0     C37278   2.376   2.091   8.781  0.2451  0.3245  0.1361
  277MOL0     C37279   2.248   2.141   8.766  0.1138  0.0386 -0.0553
  277MOL0     C37280   2.181   2.257   8.834  0.1564 -0.9691  0.1733
  277MOL0     C37281   2.265   2.316   8.951  0.4084 -0.4053 -0.4437
  277MOL0     C37282   2.170   2.353   9.064 -0.0345 -0.4928 -0.7388
  277MOL0     C37283   2.244   2.404   9.199 -0.2556  0.5750 -0.0089
  277MOL0     O37284   2.248   2.550   9.197 -0.6533  0.1383 -1.0846
  277MOL0     C37285   2.276   2.611   9.318  0.4639  0.1940 -0.0203
  277MOL0     C37286   2.217   2.732   9.354  0.5240 -0.6327 -0.7843
  277MOL0     C37287   2.258   2.805   9.470 -0.1008  0.3817  1.0275
  277MOL0     C37288   2.182   2.930   9.488 -0.1614 -0.7825 -0.4575
  277MOL0     C37289   2.366   2.764   9.550 -0.6271  0.1073  0.5907
  277MOL0     C37290   2.427   2.834   9.670  0.0754  0.6572  0.0599
  277MOL0     O37291   2.526   2.760   9.728 -0.2415 -0.7240 -0.6801
  277MOL0     C37292   2.614   2.823   9.826 -0.2254  1.6930  0.7713
  277MOL0     C37293   2.597   2.784   9.954 -0.0545 -0.1473 -1.5200
  277MOL0     C37294   2.689   2.824  10.055  0.3414  0.0159 -0.5590
  277MOL0     C37295   2.789   2.917  10.020 -0.0271 -0.2567 -1.0975
  277MOL0     O37296   2.882   2.945  10.121 -0.0138 -0.1133  0.4656
  277MOL0     C37297   2.989   2.853  10.119 -0.2593  0.8597 -0.1554
  277MOL0     C37298   3.090   2.878  10.224 -1.0803  0.4678 -0.2020
  277MOL0     C37299   3.157   3.007  10.190  0.1193 -0.0820 -0.3264
  277MOL0     C37300   3.284   3.056  10.271  0.3835 -0.2137 -0.0995
  277MOL0     C37301   3.316   3.203  10.239  0.2453  0.0936 -0.7999
  277MOL0     C37302   3.412   3.264  10.337 -0.1178  0.8974 -0.0700
  277MOL0     C37303   3.377   3.418  10.343 -0.0234  0.3872  0.4332
  277MOL0     C37304   3.489   3.490  10.424  0.2847  0.0912  0.1544
  277MOL0    Cl37305   3.640   3.511  10.327  0.1789 -0.0810 -0.5426
  277MOL0     C37306   2.792   2.969   9.890 -1.1078  0.8201  0.4556
  277MOL0     C37307   2.709   2.912   9.789  0.4436  0.2455  0.5477
  277MOL0     O37308   2.383   2.945   9.712 -0.4333 -0.6469 -0.5590
  277MOL0     C37309   2.426   2.641   9.507 -0.3930  0.3140  0.4714
  277MOL0     C37310   2.378   2.567   9.406 -0.2913  0.5646  0.8338
  277MOL0     N37311   2.183   2.058   8.683  0.3413  0.1520 -0.3851
  277MOL0     N37312   2.261   1.958   8.663  0.7438 -0.5350  0.4523
  277MOL0     C37313   2.891   1.386   9.380  0.5745  0.1848 -0.2852
  277MOL0     C37314   2.858   1.365   9.514  0.4984 -1.5226  0.3562
  277MOL0     C37315   2.836   1.337   9.953 -0.1788  0.0870  0.0634
  277MOL0     C37316   2.963   1.361  10.007 -0.0368  0.0371 -0.0823
  277MOL0     C37317   2.996   1.325  10.137 -0.3994  0.5674 -0.7651
  277MOL0     C37318   2.893   1.273  10.224 -0.6425 -0.3572  0.5792
  277MOL0     O37319   2.898   1.234  10.352 -0.3296  0.2940  0.6679
  277MOL0     C37320   3.023   1.258  10.429 -0.0851  0.1706  0.7936
  277MOL0     C37321   2.993   1.273  10.570  0.1187  0.6458  0.2482
  277MOL0     C37322   3.104   1.363  10.635 -0.1012 -0.1595 -0.7277
  277MOL0     C37323   3.137   1.301  10.774  0.7731 -0.5831 -0.3457
  277MOL0     C37324   3.253   1.370  10.830 -0.4764  0.7919 -0.1788
  277MOL0     C37325   3.353   1.405  10.890  0.5637 -0.4384  0.2204
  277MOL0     C37326   2.769   1.251  10.165 -0.8147  0.7548 -0.5184
  277MOL0     C37327   2.734   1.295  10.037  0.3719  0.5539  0.0335
  277MOL0     H37328   3.046   1.620   9.640 -2.3511  0.6423 -1.2364
  277MOL0     H37329   3.103   1.637   9.400 -1.0495  0.9619  1.3380
  277MOL0     H37330   2.959   1.339   9.126  2.6732  0.3297  1.1128
  277MOL0     H37331   2.845   1.474   9.101  0.6321  0.7819 -0.2216
  277MOL0     H37332   3.095   1.457   8.959  0.3423  0.9116 -2.3673
  277MOL0     H37333   2.934   1.394   8.909 -2.6489 -0.4636  3.1458
  277MOL0     H37334   2.869   1.666   8.976  0.5819  0.8420  0.2240
  277MOL0     H37335   3.030   1.685   8.903 -1.6251  2.2174 -0.2799
  277MOL0     H37336   2.958   1.580   8.686 -0.8903  2.0354 -0.8809
  277MOL0     H37337   2.821   1.515   8.768 -1.3755 -0.1854 -0.1169
  277MOL0     H37338   2.876   1.822   8.771 -0.6347  0.2656  1.3645
  277MOL0     H37339   2.826   1.734   8.623  1.9872 -0.0113  0.3988
  277MOL0     H37340   2.621   1.642   8.762  0.5816 -0.3918 -0.7381
  277MOL0     H37341   2.680   1.747   8.894  1.0561  2.7579 -0.7651
  277MOL0     H37342   2.643   1.949   8.783 -1.8694  2.2854 -1.3904
  277MOL0     H37343   2.614   1.861   8.623 -0.1263  1.9801 -0.7344
  277MOL0     H37344   2.443   1.816   8.868  0.3703 -4.5211 -1.5685
  277MOL0     H37345   2.424   1.751   8.709 -2.9525 -0.6477  2.0145
  277MOL0     H37346   2.454   2.142   8.837  1.6738  1.2114 -2.4700
  277MOL0     H37347   2.166   2.338   8.763  1.2032 -1.5260 -0.7143
  277MOL0     H37348   2.085   2.228   8.876 -3.6092  3.4044 -4.2553
  277MOL0     H37349   2.314   2.408   8.918 -0.8763 -0.1426 -1.7213
  277MOL0     H37350   2.332   2.235   8.980  2.3712  1.1915 -0.2837
  277MOL0     H37351   2.123   2.257   9.088  1.4201 -1.1160 -0.2443
  277MOL0     H37352   2.088   2.419   9.034  1.2668 -0.6725 -5.5827
  277MOL0     H37353   2.348   2.369   9.198 -0.8496 -1.3024 -0.5619
  277MOL0     H37354   2.189   2.367   9.286 -3.1161  0.3121 -1.7997
  277MOL0     H37355   2.144   2.773   9.284  0.9605  3.4255  0.8361
  277MOL0     H37356   2.254   3.012   9.477  0.3580 -1.4007 -1.8425
  277MOL0     H37357   2.106   2.943   9.410 -2.0043  0.1490  1.3697
  277MOL0     H37358   2.133   2.943   9.585  0.8013 -1.5891  0.1434
  277MOL0     H37359   2.516   2.716   9.979 -0.9936  2.0492  2.2341
  277MOL0     H37360   2.688   2.790  10.158  2.5394  0.7397 -0.2526
  277MOL0     H37361   2.937   2.760  10.144 -0.6151  1.1396  0.1487
  277MOL0     H37362   3.022   2.859  10.014 -5.3979 -2.7961 -2.4376
  277MOL0     H37363   3.045   2.870  10.323 -0.2833 -2.8930  0.0020
  277MOL0     H37364   3.161   2.795  10.214 -0.3567  1.0830 -0.2890
  277MOL0     H37365   3.075   3.076  10.211 -0.7068 -0.5961 -1.7355
  277MOL0     H37366   3.186   3.015  10.085  2.9566 -2.1639  0.1884
  277MOL0     H37367   3.275   3.046  10.379 -1.6594 -2.0073 -0.3605
  277MOL0     H37368   3.368   2.993  10.239  0.2182  0.7489 -2.7415
  277MOL0     H37369   3.221   3.256  10.237 -0.7907 -1.7168 -1.4818
  277MOL0     H37370   3.353   3.224  10.138 -0.3932  1.8773 -0.6853
  277MOL0     H37371   3.398   3.225  10.438  0.0262  1.9017  0.3495
  277MOL0     H37372   3.515   3.248  10.304 -0.0335 -4.2923  1.7646
  277MOL0     H37373   3.281   3.413  10.394  1.2700 -1.6390  2.8694
  277MOL0     H37374   3.354   3.470  10.249 -1.6798  1.2239  1.2609
  277MOL0     H37375   3.501   3.426  10.511 -1.2870 -0.1632  0.2127
  277MOL0     H37376   3.458   3.585  10.468 -1.8678  0.4352 -1.8605
  277MOL0     H37377   2.871   3.041   9.868  0.3415 -0.7494  0.3121
  277MOL0     H37378   2.713   2.948   9.687 -1.3062  3.8594  1.5809
  277MOL0     H37379   2.504   2.599   9.570 -2.2297 -0.9773  2.0043
  277MOL0     H37380   2.424   2.471   9.383 -0.0272 -0.2044  4.1626
  277MOL0     H37381   2.848   1.326   9.301 -2.2951  0.9465  0.5874
  277MOL0     H37382   2.794   1.282   9.543  0.4986 -1.8155 -0.4659
  277MOL0     H37383   3.040   1.415   9.953 -1.1310  0.3687 -1.3625
  277MOL0     H37384   3.094   1.358  10.171 -0.8778 -0.4490  1.8147
  277MOL0     H37385   3.085   1.168  10.417 -0.5684 -0.5067  2.8917
  277MOL0     H37386   3.053   1.355  10.389 -2.1087  0.5159 -0.0183
  277MOL0     H37387   2.988   1.174  10.616  0.9531  1.0249  1.2032
  277MOL0     H37388   2.896   1.318  10.592 -0.9649 -1.2182 -0.5403
  277MOL0     H37389   3.058   1.460  10.657 -2.6679 -1.3798 -0.3565
  277MOL0     H37390   3.194   1.376  10.573 -0.3510  1.8866 -0.7219
  277MOL0     H37391   3.161   1.195  10.765  0.7917 -0.4801 -1.6487
  277MOL0     H37392   3.055   1.319  10.845  0.7436  2.2218 -0.9825
  277MOL0     H37393   3.446   1.411  10.942  0.2358  0.2075  0.7366
  277MOL0     H37394   2.683   1.212  10.220 -0.0326 -0.1152  0.1125
  277MOL0     H37395   2.635   1.282   9.994  1.9305 -4.1480 -2.9075
  278MOL0     O37396   6.452   6.216   4.937 -0.2057  0.1073  0.8340
  278MOL0     C37397   6.373   6.242   4.846 -0.0271  0.4562 -1.2853
  278MOL0     O37398   6.402   6.337   4.754 -0.3094  0.0071  0.8134
  278MOL0     C37399   6.519   6.403   4.723  0.3374 -0.3728 -0.2606
  278MOL0     C37400   6.524   6.459   4.597 -0.8793  0.6012  0.0730
  278MOL0     C37401   6.636   6.528   4.554  0.3317 -0.0807 -0.4447
  278MOL0     C37402   6.743   6.544   4.639  0.5483  0.0004  0.2555
  278MOL0     O37403   6.856   6.616   4.611 -0.2775 -0.4174  0.2086
  278MOL0     C37404   6.911   6.617   4.472 -0.5137 -0.4912  0.7764
  278MOL0     C37405   7.040   6.700   4.450  1.4435 -0.0756 -0.1289
  278MOL0     C37406   7.007   6.834   4.525 -0.2519  0.2680  1.1250
  278MOL0     C37407   7.121   6.941   4.503  0.2417 -0.1837 -0.5073
  278MOL0     C37408   7.082   7.078   4.558 -0.4871 -0.2546  0.5642
  278MOL0     C37409   7.066   7.094   4.710  0.3133  0.4557 -0.1525
  278MOL0     C37410   6.949   7.019   4.786  0.4448  0.2103  0.3953
  278MOL0     C37411   6.994   6.902   4.864 -0.3303  0.6175 -1.3196
  278MOL0     N37412   7.074   6.950   4.976 -0.2760 -0.2106 -0.5964
  278MOL0     C37413   7.215   6.927   4.988  0.0111  0.4647  0.1923
  278MOL0     C37414   7.247   6.999   5.094 -0.1538 -0.0247  0.2102
  278MOL0     C37415   7.368   6.997   5.166 -0.1716 -0.1015  0.4385
  278MOL0     C37416   7.367   6.881   5.263  0.0182 -0.0225  0.0039
  278MOL0     C37417   7.414   6.759   5.184 -0.2973  0.7446  0.8938
  278MOL0     C37418   7.458   6.650   5.280  0.9074  0.2995  0.3530
  278MOL0     O37419   7.345   6.571   5.331  0.0884 -0.2015 -0.1955
  278MOL0     C37420   7.368   6.461   5.407  0.2957 -0.3116  0.1349
  278MOL0     C37421   7.261   6.362   5.411 -0.5284 -0.2651 -0.1672
  278MOL0     C37422   7.282   6.248   5.474 -0.2611  0.5362  0.0999
  278MOL0     C37423   7.165   6.148   5.465 -0.1355 -0.2863  0.9282
  278MOL0     C37424   7.392   6.220   5.554 -0.9090 -0.7936  0.2432
  278MOL0     C37425   7.410   6.119   5.661  1.3138 -0.3441  0.6685
  278MOL0     O37426   7.300   6.041   5.685 -0.6887 -0.2604 -0.1646
  278MOL0     C37427   7.311   5.946   5.780  1.2253 -0.2999 -0.6779
  278MOL0     C37428   7.389   5.834   5.746  0.4081  0.3473  0.2802
  278MOL0     C37429   7.395   5.723   5.824 -0.4366 -0.1239 -0.1382
  278MOL0     C37430   7.326   5.722   5.939  0.1720 -0.6059 -1.0003
  278MOL0     O37431   7.335   5.612   6.027  0.7452 -0.3005 -0.3003
  278MOL0     C37432   7.451   5.626   6.099  0.0385 -0.0946 -1.0973
  278MOL0     C37433   7.447   5.570   6.246 -0.0836 -0.3374  0.6612
  278MOL0     C37434   7.381   5.681   6.334 -0.6029  0.2946 -0.8694
  278MOL0     C37435   7.416   5.664   6.485 -0.2054  0.4617  0.4658
  278MOL0     C37436   7.309   5.731   6.574  0.6465 -0.0541  0.4947
  278MOL0     C37437   7.347   5.715   6.719  0.2365 -0.1841 -0.3714
  278MOL0     C37438   7.263   5.813   6.802  0.0007  0.1594  0.0150
  278MOL0     C37439   7.250   5.774   6.947 -0.4065  0.5150  0.2738
  278MOL0    Cl37440   7.161   5.616   6.949  0.5057  0.4984  0.1334
  278MOL0     C37441   7.239   5.832   5.987  0.1739  0.0633 -1.1739
  278MOL0     C37442   7.229   5.942   5.894 -0.4641  1.0165  0.4503
  278MOL0     O37443   7.523   6.098   5.710  1.1865 -0.0103 -0.0885
  278MOL0     C37444   7.509   6.308   5.527 -0.5910  0.8114 -0.1814
  278MOL0     C37445   7.495   6.425   5.461 -0.0106  0.5111 -0.3978
  278MOL0     N37446   7.135   7.055   5.152  0.5329 -0.1282  0.4219
  278MOL0     N37447   7.031   7.022   5.083 -0.4521  0.2911  0.0406
  278MOL0     C37448   6.739   6.499   4.766  0.1949 -0.6553 -0.7232
  278MOL0     C37449   6.627   6.420   4.811 -0.1323  0.6578 -0.7591
  278MOL0     C37450   6.246   6.173   4.842 -0.3763 -0.0579  0.8653
  278MOL0     C37451   6.227   6.050   4.914  0.5838 -0.6791 -0.8531
  278MOL0     C37452   6.100   5.992   4.894  0.2390  0.4629  0.1043
  278MOL0     C37453   6.013   6.029   4.792  0.8489  0.0796 -0.5504
  278MOL0     O37454   5.899   5.959   4.755  1.3293  0.3608 -0.0991
  278MOL0     C37455   5.871   5.836   4.825  0.2206 -0.1649 -0.2803
  278MOL0     C37456   5.734   5.776   4.792 -0.6352 -0.1070 -0.9172
  278MOL0     C37457   5.715   5.726   4.647 -0.1821 -0.3259  0.3299
  278MOL0     C37458   5.803   5.602   4.599  0.3902  0.8219  0.6233
  278MOL0     C37459   5.938   5.636   4.584 -0.4427 -0.2381  0.1870
  278MOL0     C37460   6.052   5.661   4.575 -0.0454 -0.0914  0.4268
  278MOL0     C37461   6.040   6.138   4.720 -0.1783  0.9483  1.3521
  278MOL0     C37462   6.155   6.208   4.742 -0.2504 -0.1091 -0.5404
  278MOL0     H37463   6.438   6.452   4.531  1.0596  2.5873 -2.9243
  278MOL0     H37464   6.650   6.573   4.457  2.9538 -1.5520 -0.8583
  278MOL0     H37465   6.926   6.520   4.424 -0.9873  0.4636 -1.3942
  278MOL0     H37466   6.838   6.670   4.411 -0.1860 -0.8492  0.0614
  278MOL0     H37467   7.122   6.647   4.498  0.9568 -1.8121 -1.1268
  278MOL0     H37468   7.058   6.714   4.343  0.6807 -0.0843 -0.2665
  278MOL0     H37469   6.912   6.873   4.487  0.4554 -1.6749 -3.2942
  278MOL0     H37470   7.013   6.796   4.628  0.6056 -2.8326  0.0598
  278MOL0     H37471   7.206   6.888   4.547 -1.0310 -2.7827 -0.9734
  278MOL0     H37472   7.139   6.961   4.397 -0.5261 -0.4278 -0.6911
  278MOL0     H37473   7.171   7.142   4.546  0.1275 -0.9972  1.0355
  278MOL0     H37474   6.989   7.119   4.519  0.9116 -0.1705 -3.1458
  278MOL0     H37475   7.163   7.076   4.757  2.8705  1.3657 -4.5846
  278MOL0     H37476   7.033   7.198   4.719 -0.9294  0.2242 -1.6252
  278MOL0     H37477   6.890   7.093   4.842 -1.2874  0.9510 -2.1907
  278MOL0     H37478   6.881   6.973   4.713  0.9673 -1.0905  0.6993
  278MOL0     H37479   7.059   6.828   4.817  2.4698  0.9503  1.7081
  278MOL0     H37480   6.902   6.857   4.904  1.6810 -2.1110  0.5717
  278MOL0     H37481   7.284   6.878   4.920 -0.1562 -2.4253  1.9079
  278MOL0     H37482   7.446   6.971   5.094 -0.5627 -2.5100  0.8106
  278MOL0     H37483   7.399   7.092   5.210 -0.0650  0.6473 -1.1688
  278MOL0     H37484   7.268   6.863   5.306  0.2168 -0.5782  0.2455
  278MOL0     H37485   7.431   6.904   5.349  1.7399  0.3381 -1.3118
  278MOL0     H37486   7.494   6.782   5.113 -0.6036 -1.1207 -0.1035
  278MOL0     H37487   7.337   6.723   5.115  2.8071  0.0952 -2.5559
  278MOL0     H37488   7.513   6.711   5.352 -1.5353  0.1582  2.4697
  278MOL0     H37489   7.529   6.581   5.234 -0.8230 -1.8303  0.7042
  278MOL0     H37490   7.175   6.400   5.357  0.8914  0.5547 -1.9374
  278MOL0     H37491   7.118   6.163   5.367  3.2433 -1.7758 -1.1398
  278MOL0     H37492   7.201   6.045   5.471 -1.6989 -1.0254 -1.0871
  278MOL0     H37493   7.090   6.164   5.543  1.0360 -0.5228  2.1294
  278MOL0     H37494   7.444   5.844   5.653  1.5827  0.0200  0.9150
  278MOL0     H37495   7.462   5.644   5.792  3.0313  2.1560  0.9418
  278MOL0     H37496   7.531   5.580   6.040  0.8634  0.6192 -0.5636
  278MOL0     H37497   7.480   5.731   6.108  0.7808 -0.3158 -0.8088
  278MOL0     H37498   7.378   5.485   6.242  2.0172 -2.0771 -1.0904
  278MOL0     H37499   7.545   5.542   6.287 -1.2439 -6.6868  0.1122
  278MOL0     H37500   7.273   5.667   6.331 -0.3873 -3.0762  1.4309
  278MOL0     H37501   7.413   5.781   6.305 -3.6382  2.1769  1.6747
  278MOL0     H37502   7.423   5.558   6.510  2.3902 -0.0596 -1.9851
  278MOL0     H37503   7.505   5.726   6.502 -1.7627  2.4616  1.7663
  278MOL0     H37504   7.212   5.684   6.557  1.0155 -0.4817 -0.5372
  278MOL0     H37505   7.300   5.835   6.542  0.7984 -0.0068  0.6055
  278MOL0     H37506   7.344   5.609   6.746  0.9926 -0.5841 -1.7367
  278MOL0     H37507   7.451   5.748   6.730 -0.4417  1.7305  0.6212
  278MOL0     H37508   7.163   5.816   6.758 -0.6133  1.0687  1.3993
  278MOL0     H37509   7.306   5.913   6.808 -1.0818  0.6066  5.2186
  278MOL0     H37510   7.206   5.843   7.020  1.0517 -0.5754  2.3006
  278MOL0     H37511   7.353   5.761   6.981 -0.3093  1.5904  0.4337
  278MOL0     H37512   7.180   5.842   6.078 -0.0339  1.8192 -1.4611
  278MOL0     H37513   7.169   6.023   5.935 -1.5156  0.6015 -0.2398
  278MOL0     H37514   7.595   6.284   5.587 -1.1060 -0.2298  0.1773
  278MOL0     H37515   7.577   6.496   5.459  0.6455 -0.1159  1.9484
  278MOL0     H37516   6.823   6.525   4.829  0.1009 -2.2467  0.1202
  278MOL0     H37517   6.628   6.375   4.910  2.6674 -0.4875 -1.2247
  278MOL0     H37518   6.294   6.007   4.987 -3.2345 -2.1275  2.1843
  278MOL0     H37519   6.083   5.906   4.957  2.3045 -0.7611 -0.8968
  278MOL0     H37520   5.942   5.754   4.807  0.4972 -1.4150  4.9215
  278MOL0     H37521   5.873   5.850   4.933  1.5092 -2.0375 -0.0116
  278MOL0     H37522   5.660   5.854   4.812 -0.3478  0.8294 -3.1811
  278MOL0     H37523   5.727   5.690   4.859  3.0470  1.1573  1.4063
  278MOL0     H37524   5.730   5.820   4.593 -3.4297 -0.1689 -0.4708
  278MOL0     H37525   5.613   5.693   4.627  0.1385 -0.2677 -1.5709
  278MOL0     H37526   5.767   5.560   4.505  4.9916  0.8404 -1.4203
  278MOL0     H37527   5.792   5.519   4.668 -0.6462 -1.7641 -2.3963
  278MOL0     H37528   6.159   5.674   4.575  0.2897 -1.9343 -2.8200
  278MOL0     H37529   5.968   6.155   4.640  1.3373 -0.7584 -0.4802
  278MOL0     H37530   6.166   6.287   4.668  2.2685 -0.6688 -0.8666
  279MOL0     O37531  10.320   5.375   0.294 -0.0077  0.2557  0.1296
  279MOL0     C37532  10.290   5.259   0.300  0.1881  0.0732  0.6202
  279MOL0     O37533  10.185   5.199   0.225  0.4506  1.2084 -0.7065
  279MOL0     C37534  10.121   5.273   0.132 -0.4843 -0.6949  0.1212
  279MOL0     C37535  10.058   5.401   0.156 -0.1177  0.7179 -0.0431
  279MOL0     C37536  10.005   5.482   0.056  0.3670  0.0878 -0.2117
  279MOL0     C37537  10.006   5.433  -0.072  0.1124  0.2270  0.0693
  279MOL0     O37538   9.962   5.527  -0.165  0.5498  0.7071 -0.2539
  279MOL0     C37539   9.963   5.486  -0.307  0.3863 -0.3738  0.3798
  279MOL0     C37540   9.916   5.603  -0.397  0.5058  0.3014 -0.2144
  279MOL0     C37541  10.025   5.691  -0.442  0.1431 -0.2347  0.2106
  279MOL0     C37542   9.991   5.792  -0.557  0.7439 -0.0995 -0.6418
  279MOL0     C37543  10.118   5.861  -0.605 -0.2210 -0.3347 -0.4004
  279MOL0     C37544  10.159   5.968  -0.510 -0.1371 -0.0337 -0.3764
  279MOL0     C37545  10.254   6.071  -0.569 -0.5221  0.0722  0.0657
  279MOL0     C37546  10.239   6.211  -0.494 -1.1674 -0.2173  0.3853
  279MOL0     N37547  10.341   6.301  -0.555 -0.0743 -0.0661 -0.1117
  279MOL0     C37548  10.474   6.299  -0.522 -0.3863  0.4571 -0.8436
  279MOL0     C37549  10.538   6.383  -0.605  0.0230 -0.0842  0.9958
  279MOL0     C37550  10.674   6.414  -0.646 -0.2135 -0.0518 -0.2672
  279MOL0     C37551  10.748   6.498  -0.539 -1.2834  0.9108 -0.9987
  279MOL0     C37552  10.876   6.553  -0.610  0.4770  0.2576  0.4461
  279MOL0     C37553  10.953   6.627  -0.506  0.1936  0.2573  0.1181
  279MOL0     O37554  10.979   6.540  -0.395 -0.2393 -0.1169 -0.3119
  279MOL0     C37555  11.106   6.494  -0.388 -0.5312  0.7335  0.2631
  279MOL0     C37556  11.177   6.538  -0.279 -0.6825 -0.5883 -1.3763
  279MOL0     C37557  11.312   6.508  -0.261  0.0146 -0.6000 -0.7267
  279MOL0     C37558  11.389   6.567  -0.147 -0.2451 -0.4810  0.3382
  279MOL0     C37559  11.381   6.427  -0.354  0.0587  0.7881  0.5180
  279MOL0     C37560  11.528   6.382  -0.356 -0.2248  0.2419 -0.4548
  279MOL0     O37561  11.573   6.332  -0.472  0.0191  0.0592  0.3676
  279MOL0     C37562  11.711   6.326  -0.484  0.5138 -0.2628 -0.4678
  279MOL0     C37563  11.760   6.401  -0.594 -0.2134  0.9788 -0.4421
  279MOL0     C37564  11.892   6.411  -0.619  0.9155 -0.1540 -0.1543
  279MOL0     C37565  11.982   6.333  -0.549  0.7064  0.9730 -0.2188
  279MOL0     O37566  12.106   6.342  -0.595 -0.0443  0.2937  0.4704
  279MOL0     C37567  12.209   6.359  -0.490  0.3743 -0.5632 -0.0439
  279MOL0     C37568  12.343   6.400  -0.546 -0.8895  0.2043  0.3677
  279MOL0     C37569  12.464   6.400  -0.459  0.0171 -0.1906 -0.7863
  279MOL0     C37570  12.595   6.429  -0.526  0.8103  0.1380  0.0002
  279MOL0     C37571  12.696   6.468  -0.424  0.3259 -0.1062  0.3475
  279MOL0     C37572  12.721   6.367  -0.313 -0.0002  1.0041  0.0797
  279MOL0     C37573  12.844   6.406  -0.222 -0.3643  0.2312  0.0745
  279MOL0     C37574  12.974   6.404  -0.300  0.1645  0.8361 -1.2732
  279MOL0    Cl37575  12.981   6.256  -0.396 -0.3739 -0.2184 -0.1364
  279MOL0     C37576  11.934   6.251  -0.441 -0.2872  0.2008 -0.0465
  279MOL0     C37577  11.795   6.246  -0.405  0.6930  0.2261  0.2698
  279MOL0     O37578  11.593   6.411  -0.256  0.2464 -0.3352  0.0202
  279MOL0     C37579  11.304   6.376  -0.462 -0.9740 -0.6908  0.3883
  279MOL0     C37580  11.169   6.399  -0.477 -0.6626 -1.0978 -0.1390
  279MOL0     N37581  10.438   6.429  -0.693  0.0081  0.7211  0.0679
  279MOL0     N37582  10.326   6.387  -0.663 -0.6180  0.4288 -0.2995
  279MOL0     C37583  10.071   5.305  -0.099  0.7648  0.0400 -0.2883
  279MOL0     C37584  10.127   5.226   0.002  0.5084  0.4906 -0.1389
  279MOL0     C37585  10.342   5.171   0.410 -0.1656  0.1691  0.8375
  279MOL0     C37586  10.291   5.042   0.430 -0.2417 -0.5331  0.7363
  279MOL0     C37587  10.363   4.949   0.517 -0.8493 -0.7344  0.6053
  279MOL0     C37588  10.478   4.978   0.582 -1.0640  0.1168  0.1642
  279MOL0     O37589  10.549   4.889   0.661  0.4516 -0.0654  0.9628
  279MOL0     C37590  10.463   4.816   0.754 -0.1031 -0.7772  0.1263
  279MOL0     C37591  10.567   4.719   0.816  0.7402  0.9744 -0.0682
  279MOL0     C37592  10.573   4.583   0.737  0.6328 -0.1187  0.2220
  279MOL0     C37593  10.608   4.458   0.819 -0.6632  0.3639  0.3521
  279MOL0     C37594  10.500   4.424   0.906  0.1029  0.3111  0.2388
  279MOL0     C37595  10.410   4.390   0.977 -0.4885 -1.1840 -0.0196
  279MOL0     C37596  10.535   5.109   0.551  0.1713  0.1529 -0.1276
  279MOL0     C37597  10.463   5.204   0.482  0.5742 -0.7392  0.5042
  279MOL0     H37598  10.051   5.441   0.257 -3.0303 -0.8222  0.4906
  279MOL0     H37599   9.942   5.570   0.068 -1.5118 -1.3281  0.8656
  279MOL0     H37600  10.062   5.446  -0.330 -0.3398 -1.6602 -0.6505
  279MOL0     H37601   9.885   5.410  -0.308  1.0337 -1.0552  0.9300
  279MOL0     H37602   9.874   5.551  -0.484  0.9114 -0.3131 -0.0455
  279MOL0     H37603   9.835   5.660  -0.348  1.2569  1.5253 -0.3409
  279MOL0     H37604  10.049   5.752  -0.355 -1.1113 -0.6495  0.8726
  279MOL0     H37605  10.110   5.629  -0.471  0.0693 -0.1974 -0.0957
  279MOL0     H37606   9.956   5.734  -0.642 -0.5965  1.0054 -0.8877
  279MOL0     H37607   9.908   5.855  -0.526  1.4129  0.1200  0.8047
  279MOL0     H37608  10.198   5.788  -0.626 -0.4294 -0.9963  0.9791
  279MOL0     H37609  10.083   5.902  -0.700 -2.4349 -0.9117  0.1108
  279MOL0     H37610  10.065   6.021  -0.491 -0.2008  0.2406 -1.4229
  279MOL0     H37611  10.197   5.925  -0.416 -0.9596 -0.9431 -0.4436
  279MOL0     H37612  10.359   6.045  -0.555 -0.7466 -0.3821  1.0509
  279MOL0     H37613  10.234   6.085  -0.675 -1.1632 -0.1574  0.1491
  279MOL0     H37614  10.272   6.220  -0.390 -4.0351  3.1801  1.1888
  279MOL0     H37615  10.137   6.248  -0.508 -1.2154 -1.2658 -2.7344
  279MOL0     H37616  10.517   6.246  -0.437 -2.8180 -0.9944 -0.4274
  279MOL0     H37617  10.733   6.324  -0.667  0.8140  1.0096 -2.2143
  279MOL0     H37618  10.684   6.469  -0.740  2.8275 -0.2179 -0.1646
  279MOL0     H37619  10.765   6.432  -0.453 -1.9000  0.0145 -1.5481
  279MOL0     H37620  10.678   6.578  -0.515 -0.5938  1.8436 -1.9742
  279MOL0     H37621  10.858   6.614  -0.699 -1.4500  1.2015  1.4197
  279MOL0     H37622  10.936   6.471  -0.650  0.0203  0.9705 -1.8354
  279MOL0     H37623  10.882   6.707  -0.485  0.3055  0.1476  0.9628
  279MOL0     H37624  11.037   6.690  -0.539 -0.7916  2.3156  1.2995
  279MOL0     H37625  11.125   6.601  -0.207 -1.2049 -0.7576 -1.5991
  279MOL0     H37626  11.447   6.488  -0.097 -1.0615 -0.9584  0.5503
  279MOL0     H37627  11.456   6.647  -0.181 -1.1343  0.4154  0.6682
  279MOL0     H37628  11.335   6.611  -0.062  0.7246  2.2540 -0.3648
  279MOL0     H37629  11.696   6.459  -0.660  0.1154  0.6859 -1.0197
  279MOL0     H37630  11.915   6.483  -0.697 -0.2922  0.9551  0.4807
  279MOL0     H37631  12.170   6.433  -0.419  2.5875  0.3396  0.3059
  279MOL0     H37632  12.217   6.272  -0.424  0.8319 -1.1774 -0.8852
  279MOL0     H37633  12.357   6.325  -0.625 -1.9799  1.3998 -1.0139
  279MOL0     H37634  12.328   6.488  -0.610 -0.2996 -0.6757 -1.0258
  279MOL0     H37635  12.460   6.303  -0.409 -0.9290  0.7248  0.9939
  279MOL0     H37636  12.457   6.479  -0.383 -1.7843  0.6560 -1.7582
  279MOL0     H37637  12.632   6.341  -0.580  1.7975 -0.4465  1.5726
  279MOL0     H37638  12.599   6.501  -0.609 -1.2371 -1.7471 -1.9017
  279MOL0     H37639  12.680   6.566  -0.379  0.4037  0.6555 -1.2048
  279MOL0     H37640  12.792   6.481  -0.476 -1.5355  2.1707 -2.8493
  279MOL0     H37641  12.635   6.357  -0.245  1.5379 -3.5437  1.7458
  279MOL0     H37642  12.732   6.263  -0.345 -0.1337 -1.1973  5.9718
  279MOL0     H37643  12.840   6.341  -0.134  0.1635  1.1375  0.7961
  279MOL0     H37644  12.836   6.502  -0.169  4.3956  0.7938  0.2521
  279MOL0     H37645  13.053   6.409  -0.224 -1.1674 -1.1794  0.3513
  279MOL0     H37646  12.978   6.487  -0.371  1.3314  1.1894 -0.8224
  279MOL0     H37647  12.011   6.188  -0.399  0.2416  0.3358 -0.7851
  279MOL0     H37648  11.748   6.176  -0.337 -1.5132 -0.3370 -1.7117
  279MOL0     H37649  11.359   6.330  -0.543  0.8184  2.3246 -0.2555
  279MOL0     H37650  11.115   6.366  -0.565  0.2573  3.6834 -2.8796
  279MOL0     H37651  10.072   5.275  -0.204  1.3614 -1.7528  0.1891
  279MOL0     H37652  10.174   5.132  -0.024  0.1762  0.6919 -1.5509
  279MOL0     H37653  10.205   4.998   0.380  0.5696 -2.1413  0.6838
  279MOL0     H37654  10.312   4.857   0.540  0.3947 -1.6558 -0.1715
  279MOL0     H37655  10.434   4.882   0.836 -0.3138  1.7709 -1.8788
  279MOL0     H37656  10.370   4.776   0.713 -0.8288  0.9607 -0.0022
  279MOL0     H37657  10.528   4.686   0.913 -0.7914 -1.3263 -1.3696
  279MOL0     H37658  10.669   4.759   0.815  1.3283 -0.2362  2.6534
  279MOL0     H37659  10.648   4.593   0.659 -0.3752 -0.8459 -0.8795
  279MOL0     H37660  10.476   4.567   0.689  1.4311 -0.3939 -1.3691
  279MOL0     H37661  10.694   4.476   0.883 -1.2318  0.7958  1.0026
  279MOL0     H37662  10.635   4.379   0.748  0.2993 -0.3152  1.4371
  279MOL0     H37663  10.321   4.360   1.028 -1.0380 -0.2643 -0.4203
  279MOL0     H37664  10.632   5.129   0.595 -0.5986 -1.3529  2.4827
  279MOL0     H37665  10.504   5.303   0.465  3.3674 -1.7201  1.1456
  280MOL0     O37666   5.748   5.515   6.152 -0.1092  0.0035 -0.5310
  280MOL0     C37667   5.703   5.496   6.262  0.3458 -0.7945 -0.6580
  280MOL0     O37668   5.615   5.572   6.324 -0.2031 -0.5958 -0.0406
  280MOL0     C37669   5.575   5.696   6.297  0.2462 -0.6730  0.0493
  280MOL0     C37670   5.503   5.771   6.395  0.2315  0.1779 -0.0310
  280MOL0     C37671   5.479   5.909   6.376 -0.6754 -0.4725  0.6221
  280MOL0     C37672   5.507   5.976   6.258 -0.5381 -0.7109  0.6018
  280MOL0     O37673   5.475   6.108   6.243  0.1745 -0.4247  0.1834
  280MOL0     C37674   5.564   6.186   6.158  0.2972  0.6481 -0.2088
  280MOL0     C37675   5.712   6.188   6.196 -0.4672  0.3713  0.1123
  280MOL0     C37676   5.744   6.216   6.345  0.7323  0.4513 -0.4844
  280MOL0     C37677   5.695   6.350   6.409 -0.9339  1.2090 -0.6581
  280MOL0     C37678   5.774   6.387   6.533  0.0523  0.1693  0.0601
  280MOL0     C37679   5.745   6.525   6.603  0.7585 -0.5096  0.4263
  280MOL0     C37680   5.610   6.594   6.557  0.1232  0.1447  0.1252
  280MOL0     C37681   5.592   6.726   6.640  0.0701  0.0412  0.3096
  280MOL0     N37682   5.477   6.797   6.593 -0.4141 -0.3087  0.1317
  280MOL0     C37683   5.473   6.897   6.503  0.1020  0.3012  0.0378
  280MOL0     C37684   5.345   6.945   6.510  0.0280  0.2125 -1.0483
  280MOL0     C37685   5.286   7.051   6.428  0.5821  0.2739 -0.6170
  280MOL0     C37686   5.319   7.192   6.489  0.1890 -0.2381 -0.0510
  280MOL0     C37687   5.261   7.213   6.632 -0.8018 -1.3239 -0.0927
  280MOL0     C37688   5.113   7.210   6.642 -1.0791  0.3610  0.4753
  280MOL0     O37689   5.068   7.238   6.775 -0.2781 -0.2812 -0.8023
  280MOL0     C37690   4.928   7.233   6.811  0.6637 -0.2983  1.0589
  280MOL0     C37691   4.818   7.230   6.719  0.6549  0.7819 -0.8042
  280MOL0     C37692   4.685   7.207   6.756 -0.9385  0.3029  0.5332
  280MOL0     C37693   4.580   7.186   6.655 -0.0430  0.3354  0.5491
  280MOL0     C37694   4.652   7.197   6.894 -0.1356 -0.5163  0.1328
  280MOL0     C37695   4.514   7.174   6.936  0.1713  0.1067  0.1237
  280MOL0     O37696   4.406   7.251   6.887  0.3233  0.1881 -0.2373
  280MOL0     C37697   4.274   7.248   6.936 -0.6179 -0.3080 -0.8617
  280MOL0     C37698   4.176   7.313   6.867  0.3440  0.6567  0.1638
  280MOL0     C37699   4.038   7.306   6.891 -0.1682 -0.2807 -0.5985
  280MOL0     C37700   4.002   7.227   7.003 -0.1051  0.5564  0.1816
  280MOL0     O37701   3.863   7.221   7.038 -0.6024  0.3711  0.1718
  280MOL0     C37702   3.814   7.096   7.081  1.2101  0.1200  1.4204
  280MOL0     C37703   3.769   7.013   6.965  0.8484 -0.3896 -0.5795
  280MOL0     C37704   3.695   7.098   6.859 -0.0509 -0.7070  0.2252
  280MOL0     C37705   3.620   7.006   6.759  0.2173 -0.1095 -0.6556
  280MOL0     C37706   3.481   6.976   6.830  0.3173  0.0581  0.5618
  280MOL0     C37707   3.368   7.079   6.817  1.0481  0.4678 -0.2807
  280MOL0     C37708   3.264   7.071   6.924 -0.6834 -0.1744 -0.4422
  280MOL0     C37709   3.169   7.186   6.927 -0.6401 -0.0942 -0.9133
  280MOL0    Cl37710   3.259   7.325   6.995 -0.0412  0.4331 -0.2726
  280MOL0     C37711   4.101   7.175   7.082 -0.5811  0.0919 -0.9454
  280MOL0     C37712   4.236   7.175   7.048 -0.6096 -0.4662  0.5217
  280MOL0     O37713   4.507   7.084   7.015 -0.7076  0.0077  0.3699
  280MOL0     C37714   4.764   7.208   6.989  0.3418 -0.5749 -0.5983
  280MOL0     C37715   4.897   7.225   6.944  0.3712  0.0034 -0.2883
  280MOL0     N37716   5.277   6.873   6.605 -0.1569 -0.1202 -0.9647
  280MOL0     N37717   5.359   6.790   6.660  0.2436 -0.2220  0.8424
  280MOL0     C37718   5.568   5.898   6.155 -0.0070 -0.1435  0.4089
  280MOL0     C37719   5.605   5.764   6.174 -0.5851  0.5647 -0.7308
  280MOL0     C37720   5.765   5.379   6.342  0.3945 -1.0506 -0.7948
  280MOL0     C37721   5.698   5.310   6.449  0.9972 -0.2617  0.7082
  280MOL0     C37722   5.771   5.220   6.524 -0.0038  0.6143 -0.3161
  280MOL0     C37723   5.906   5.185   6.497  0.4708  0.2420 -0.4178
  280MOL0     O37724   5.968   5.093   6.581 -0.2746 -0.4895  0.2799
  280MOL0     C37725   6.085   5.019   6.535 -0.3695 -0.0660 -0.4529
  280MOL0     C37726   6.103   4.902   6.638 -0.0556 -0.1815 -0.6740
  280MOL0     C37727   6.195   4.802   6.589 -0.1964  0.5129 -0.6893
  280MOL0     C37728   6.202   4.692   6.700  0.0901  0.8892  0.3623
  280MOL0     C37729   6.249   4.556   6.636 -0.3918  0.3772  0.1968
  280MOL0     C37730   6.274   4.455   6.583 -0.0428  0.4449  1.5543
  280MOL0     C37731   5.968   5.254   6.403  0.3902 -0.2713  0.1323
  280MOL0     C37732   5.898   5.343   6.328 -0.2513 -0.6818 -0.5747
  280MOL0     H37733   5.486   5.717   6.488  1.2872 -0.5137 -0.2119
  280MOL0     H37734   5.435   5.953   6.465  3.2450  0.4848  2.3211
  280MOL0     H37735   5.550   6.139   6.061  2.2385  1.2971 -0.8454
  280MOL0     H37736   5.526   6.288   6.160  0.6451  0.7957 -0.9412
  280MOL0     H37737   5.757   6.091   6.171 -0.0604  0.1090  1.7825
  280MOL0     H37738   5.768   6.263   6.139 -1.0229 -0.3754 -1.4865
  280MOL0     H37739   5.714   6.135   6.411  0.7459  0.4139 -0.5241
  280MOL0     H37740   5.853   6.212   6.351  0.7666 -3.5819 -1.2357
  280MOL0     H37741   5.709   6.420   6.326  0.1727  1.7986  0.0035
  280MOL0     H37742   5.590   6.327   6.431 -0.8719  0.0847 -1.4100
  280MOL0     H37743   5.769   6.301   6.600 -2.7879  1.2030  1.3347
  280MOL0     H37744   5.881   6.399   6.514  0.1540  0.4770  0.7780
  280MOL0     H37745   5.746   6.506   6.711  0.3677  1.4019  0.8044
  280MOL0     H37746   5.825   6.598   6.585 -1.0152  1.9702  1.9163
  280MOL0     H37747   5.625   6.600   6.449  0.7747 -4.7400 -0.2454
  280MOL0     H37748   5.522   6.536   6.586  0.1294  0.1676  0.1861
  280MOL0     H37749   5.682   6.787   6.629  0.3200 -0.4019 -0.1591
  280MOL0     H37750   5.579   6.686   6.741 -0.4629  0.3603  0.3732
  280MOL0     H37751   5.549   6.936   6.437  0.2267  0.2914  0.1731
  280MOL0     H37752   5.324   7.042   6.326  3.2329 -1.3432  0.3888
  280MOL0     H37753   5.179   7.037   6.412 -0.0063  2.8839  0.4962
  280MOL0     H37754   5.272   7.270   6.430 -0.8038 -1.4662 -0.9391
  280MOL0     H37755   5.428   7.200   6.485  0.2923 -1.0339  0.7223
  280MOL0     H37756   5.301   7.303   6.678  0.8759 -1.3329 -1.4583
  280MOL0     H37757   5.291   7.124   6.689 -0.3388 -0.5420  0.9113
  280MOL0     H37758   5.079   7.107   6.625  2.0074 -0.9850  1.5405
  280MOL0     H37759   5.070   7.258   6.554  2.7488 -0.1276 -1.8949
  280MOL0     H37760   4.839   7.229   6.612  0.7359 -0.1312 -0.7894
  280MOL0     H37761   4.532   7.282   6.635  0.7859  0.6158 -0.1642
  280MOL0     H37762   4.624   7.146   6.563 -1.1370 -1.2829  0.6894
  280MOL0     H37763   4.510   7.105   6.677 -1.7970  0.7436 -2.8051
  280MOL0     H37764   4.216   7.363   6.780  4.3909 -0.5832  1.1303
  280MOL0     H37765   3.977   7.346   6.811  1.1300  1.5769 -0.7381
  280MOL0     H37766   3.878   7.048   7.155  2.9147 -0.2658 -0.2347
  280MOL0     H37767   3.724   7.119   7.140 -0.8188 -1.3286 -0.8911
  280MOL0     H37768   3.853   6.963   6.915  1.2228  0.3602 -0.7054
  280MOL0     H37769   3.704   6.933   7.004  1.5364 -0.3915  0.5947
  280MOL0     H37770   3.783   7.139   6.809  0.1089 -1.0614  0.2120
  280MOL0     H37771   3.640   7.180   6.906  0.5044 -2.1928  3.7357
  280MOL0     H37772   3.599   7.046   6.659 -0.9220  0.7701 -0.0794
  280MOL0     H37773   3.679   6.914   6.744  1.2139 -0.1761  2.7780
  280MOL0     H37774   3.490   6.932   6.929  0.3937 -0.8268  0.1715
  280MOL0     H37775   3.444   6.897   6.764 -0.6623  1.4021 -0.5720
  280MOL0     H37776   3.423   7.170   6.840  3.4456 -0.6770 -1.2222
  280MOL0     H37777   3.329   7.080   6.715  1.8628 -1.6273 -0.6503
  280MOL0     H37778   3.312   7.037   7.016  0.9710  0.0580 -1.1950
  280MOL0     H37779   3.191   6.994   6.894 -2.9050  2.7530 -3.2350
  280MOL0     H37780   3.083   7.166   6.992  0.9026 -1.5182  0.8087
  280MOL0     H37781   3.142   7.213   6.825  0.3273  0.8891 -0.9186
  280MOL0     H37782   4.069   7.156   7.184  3.0595 -0.6704  0.2221
  280MOL0     H37783   4.306   7.138   7.122 -1.1777  0.0644  1.3426
  280MOL0     H37784   4.753   7.220   7.097 -1.9144  5.4690 -1.1016
  280MOL0     H37785   4.975   7.237   7.018 -2.0731  0.7457  2.3173
  280MOL0     H37786   5.587   5.939   6.056 -3.6849 -1.6984 -1.1016
  280MOL0     H37787   5.659   5.729   6.087  1.3703  1.9233 -0.1448
  280MOL0     H37788   5.594   5.334   6.467  0.6865  0.1304 -1.3452
  280MOL0     H37789   5.711   5.177   6.604 -0.3143 -3.0424 -2.3030
  280MOL0     H37790   6.076   4.988   6.431  2.1663  0.6967 -0.9706
  280MOL0     H37791   6.167   5.092   6.534 -0.6206  0.2477  0.7137
  280MOL0     H37792   6.002   4.866   6.661  0.4046  1.0577  4.4447
  280MOL0     H37793   6.145   4.932   6.734 -0.3530 -1.2186 -0.2055
  280MOL0     H37794   6.296   4.840   6.571  0.2229  0.1081  0.6667
  280MOL0     H37795   6.170   4.758   6.492  0.0320  1.4089 -1.1597
  280MOL0     H37796   6.103   4.675   6.742 -0.6180 -0.4426 -1.7193
  280MOL0     H37797   6.272   4.717   6.780 -0.0043 -0.6170  0.9334
  280MOL0     H37798   6.300   4.365   6.532  0.2763  1.0484  0.6176
  280MOL0     H37799   6.071   5.229   6.383  0.0230 -0.1823 -2.1591
  280MOL0     H37800   5.937   5.390   6.238 -0.6386  1.2605  0.2447
  281MOL0     O37801   6.842   7.273   8.249 -0.4044  0.1884  0.6209
  281MOL0     C37802   6.932   7.356   8.245 -0.2079 -0.1749  0.7417
  281MOL0     O37803   6.911   7.488   8.238  0.2740  0.0204 -0.4022
  281MOL0     C37804   6.790   7.554   8.252  0.4899  0.5959  0.5982
  281MOL0     C37805   6.814   7.692   8.277  0.0402 -0.4777 -0.0293
  281MOL0     C37806   6.710   7.777   8.296 -0.1116 -0.1753 -0.1924
  281MOL0     C37807   6.577   7.727   8.300  0.3819 -1.2351 -0.3677
  281MOL0     O37808   6.479   7.819   8.324  0.7762  0.2021 -0.1714
  281MOL0     C37809   6.334   7.776   8.311  1.0263  0.2293 -1.1348
  281MOL0     C37810   6.246   7.891   8.361  0.0458  0.8200 -0.1360
  281MOL0     C37811   6.202   7.989   8.251 -0.8844 -0.2714 -0.0322
  281MOL0     C37812   6.320   8.080   8.218 -0.3689 -0.3297  0.2376
  281MOL0     C37813   6.295   8.217   8.150 -0.9227 -0.3546  0.1361
  281MOL0     C37814   6.249   8.188   8.008  0.8432  0.8394 -0.8135
  281MOL0     C37815   6.222   8.315   7.917 -0.9923  0.3967 -0.2836
  281MOL0     C37816   6.111   8.278   7.818 -0.6407  0.2219 -0.9390
  281MOL0     N37817   6.078   8.380   7.716 -0.8417  0.9520 -0.0716
  281MOL0     C37818   6.163   8.480   7.676 -0.0975  0.6303 -0.9796
  281MOL0     C37819   6.091   8.541   7.581  0.1010  0.1951  0.6120
  281MOL0     C37820   6.143   8.656   7.512  0.6534  0.0624 -0.3832
  281MOL0     C37821   6.072   8.787   7.549  0.6215 -0.3351  0.8754
  281MOL0     C37822   6.104   8.904   7.454  0.3829 -0.5182 -0.0026
  281MOL0     C37823   6.086   9.038   7.523 -0.2902  0.1662 -0.6665
  281MOL0     O37824   6.192   9.058   7.618 -0.3058 -0.2480  0.2735
  281MOL0     C37825   6.252   9.182   7.629  0.6857  0.5911  0.0041
  281MOL0     C37826   6.283   9.237   7.752  1.2580  0.0548 -0.0069
  281MOL0     C37827   6.335   9.364   7.769 -0.5180 -0.0167 -0.2409
  281MOL0     C37828   6.325   9.439   7.896 -0.0997 -0.5314 -0.3546
  281MOL0     C37829   6.381   9.439   7.655 -0.9543  0.1297  0.2126
  281MOL0     C37830   6.454   9.572   7.651 -0.5529  0.7851  0.3323
  281MOL0     O37831   6.429   9.649   7.551  0.4589 -0.1290  0.1617
  281MOL0     C37832   6.491   9.769   7.543 -0.6881  0.6563 -0.2351
  281MOL0     C37833   6.425   9.879   7.598  0.4671 -0.0064 -0.2288
  281MOL0     C37834   6.487  10.000   7.592 -0.0193  0.2486  0.0423
  281MOL0     C37835   6.622  10.008   7.557 -0.6662  0.6817 -0.2610
  281MOL0     O37836   6.691  10.128   7.566  0.0366  0.0883  1.0209
  281MOL0     C37837   6.773  10.176   7.452  0.6403 -0.5301  0.1914
  281MOL0     C37838   6.689  10.278   7.379 -1.1091 -0.0900 -0.7756
  281MOL0     C37839   6.643  10.405   7.460  0.2391 -0.0789 -0.0620
  281MOL0     C37840   6.491  10.400   7.486 -0.3375  0.2606  1.6754
  281MOL0     C37841   6.425  10.497   7.386  0.1639  0.4879  0.7981
  281MOL0     C37842   6.296  10.550   7.451  0.1039 -0.9366 -0.4377
  281MOL0     C37843   6.190  10.446   7.448  0.0109 -0.2648 -1.1406
  281MOL0     C37844   6.055  10.502   7.501 -0.0053  0.8774  0.5216
  281MOL0    Cl37845   5.982  10.589   7.359  0.4372 -0.0549 -0.0539
  281MOL0     C37846   6.694   9.887   7.513  0.1893  0.9404  0.0159
  281MOL0     C37847   6.622   9.772   7.508 -0.3424 -0.0618  0.0805
  281MOL0     O37848   6.528   9.595   7.747 -0.3780  0.4500  0.4239
  281MOL0     C37849   6.367   9.381   7.533 -0.3646 -0.2579 -0.0969
  281MOL0     C37850   6.303   9.250   7.518  0.4352 -0.5992  0.0464
  281MOL0     N37851   5.970   8.465   7.550 -0.9782 -0.5362 -0.4919
  281MOL0     N37852   5.972   8.362   7.637 -0.3966  0.5776  0.1492
  281MOL0     C37853   6.552   7.588   8.269  0.2694 -1.2407 -0.0136
  281MOL0     C37854   6.663   7.507   8.232  0.1449  0.5650  0.2457
  281MOL0     C37855   7.077   7.298   8.247  0.2929  0.0744  0.4690
  281MOL0     C37856   7.185   7.395   8.249  1.7686  0.3027  0.2408
  281MOL0     C37857   7.318   7.343   8.241 -0.0192 -0.7372  1.4826
  281MOL0     C37858   7.347   7.208   8.239 -0.3232 -1.1042 -0.3095
  281MOL0     O37859   7.476   7.175   8.217  0.3142 -0.5444  0.2119
  281MOL0     C37860   7.510   7.040   8.190 -0.2960  0.1350 -0.2282
  281MOL0     C37861   7.639   7.043   8.120  0.3923 -0.3641  0.7643
  281MOL0     C37862   7.751   7.058   8.228 -0.8647 -1.0025 -0.3685
  281MOL0     C37863   7.857   7.161   8.182  0.8129  0.9443 -0.2033
  281MOL0     C37864   7.970   7.084   8.132 -0.1032  1.1426  0.8902
  281MOL0     C37865   8.054   7.000   8.084 -0.1108  0.3157  0.7015
  281MOL0     C37866   7.247   7.111   8.260 -1.2238 -0.4340  0.3257
  281MOL0     C37867   7.115   7.160   8.266  0.6515 -0.7952  0.0955
  281MOL0     H37868   6.918   7.723   8.271 -0.5022  1.2712 -1.4029
  281MOL0     H37869   6.721   7.885   8.299 -2.2986  0.1485 -1.7468
  281MOL0     H37870   6.310   7.739   8.211  2.5469 -1.9030 -0.7875
  281MOL0     H37871   6.318   7.690   8.376 -1.6242  1.2372 -0.3552
  281MOL0     H37872   6.157   7.860   8.416  0.6638  0.7955  0.8962
  281MOL0     H37873   6.294   7.944   8.444 -2.6162  0.8856  1.4658
  281MOL0     H37874   6.168   7.934   8.163 -0.6551 -0.3409 -0.0769
  281MOL0     H37875   6.118   8.050   8.284 -0.9923 -0.3600 -0.1433
  281MOL0     H37876   6.380   8.088   8.309  1.9892  0.0244 -1.2869
  281MOL0     H37877   6.384   8.027   8.147 -0.2205 -1.3133  1.0846
  281MOL0     H37878   6.230   8.285   8.207 -3.9957 -1.5305 -1.7163
  281MOL0     H37879   6.386   8.277   8.145 -0.7857 -0.6088 -0.3758
  281MOL0     H37880   6.326   8.130   7.957  1.1350 -1.2939  1.8004
  281MOL0     H37881   6.159   8.126   8.008  0.2461  1.6740  0.2208
  281MOL0     H37882   6.189   8.402   7.974 -1.3685  1.4454 -2.0167
  281MOL0     H37883   6.315   8.355   7.875 -1.1849  2.1449  0.8656
  281MOL0     H37884   6.024   8.255   7.880  0.9103  2.1935  2.2124
  281MOL0     H37885   6.138   8.185   7.767  2.4833  1.5293 -1.9059
  281MOL0     H37886   6.263   8.503   7.713 -0.2151 -1.6640  1.0189
  281MOL0     H37887   6.250   8.665   7.532 -0.0252  3.4317  2.9446
  281MOL0     H37888   6.123   8.641   7.406 -0.9816 -0.8443  0.0030
  281MOL0     H37889   6.097   8.805   7.654 -0.4810 -0.1922  1.1170
  281MOL0     H37890   5.963   8.778   7.546  0.6883 -1.0882  0.5132
  281MOL0     H37891   6.042   8.895   7.365  0.0619  0.9677  0.0313
  281MOL0     H37892   6.207   8.919   7.421  0.6894  2.1506  1.7738
  281MOL0     H37893   5.995   9.033   7.584 -0.8538 -3.8317 -1.5443
  281MOL0     H37894   6.073   9.122   7.454 -1.3417  1.4944  1.0816
  281MOL0     H37895   6.252   9.178   7.838 -0.5954  0.0699 -0.6402
  281MOL0     H37896   6.228   9.416   7.943  0.4448  0.3956  1.3034
  281MOL0     H37897   6.408   9.407   7.960  0.3345 -1.6640 -1.4502
  281MOL0     H37898   6.324   9.548   7.891 -3.2955 -0.3879  0.7029
  281MOL0     H37899   6.325   9.858   7.635 -0.4855 -0.0056 -2.5984
  281MOL0     H37900   6.428  10.088   7.615  1.0338  1.8309 -2.8406
  281MOL0     H37901   6.860  10.227   7.494  0.3713 -0.0742  0.2049
  281MOL0     H37902   6.810  10.088   7.400 -1.2616  0.5100 -3.2373
  281MOL0     H37903   6.751  10.312   7.295  3.2910 -1.7472  1.4784
  281MOL0     H37904   6.601  10.233   7.333 -0.6821  1.4519 -3.2631
  281MOL0     H37905   6.664  10.501   7.411 -3.3845  1.1965  0.5985
  281MOL0     H37906   6.688  10.409   7.560 -2.6765 -1.4085  1.4044
  281MOL0     H37907   6.457  10.299   7.462 -3.0599  1.3899  0.3475
  281MOL0     H37908   6.463  10.427   7.588 -2.4206  2.1281  0.7044
  281MOL0     H37909   6.390  10.452   7.293  1.8970  1.5086 -0.4236
  281MOL0     H37910   6.494  10.580   7.365 -0.3291  0.8677  0.6652
  281MOL0     H37911   6.314  10.601   7.546  1.0334  0.4640 -1.3325
  281MOL0     H37912   6.270  10.629   7.380 -2.0234 -1.0554  0.1404
  281MOL0     H37913   6.220  10.371   7.522 -1.9755  0.7747  0.8553
  281MOL0     H37914   6.193  10.390   7.355  2.6838 -1.1165 -0.6323
  281MOL0     H37915   6.071  10.579   7.577  2.5224  3.5671 -2.4046
  281MOL0     H37916   5.993  10.423   7.545 -0.4464  0.1481 -1.3283
  281MOL0     H37917   6.799   9.900   7.490  0.4763  1.9866  1.6691
  281MOL0     H37918   6.677   9.683   7.480  0.5590  0.0798  1.3102
  281MOL0     H37919   6.413   9.413   7.440  0.1620  2.7822  1.0683
  281MOL0     H37920   6.291   9.209   7.418  0.0658 -0.6807  0.1250
  281MOL0     H37921   6.455   7.541   8.277  0.0152 -0.8835 -0.8768
  281MOL0     H37922   6.653   7.401   8.213  1.5696  0.4484  0.0311
  281MOL0     H37923   7.159   7.500   8.241 -0.7872 -0.1560  1.5730
  281MOL0     H37924   7.408   7.401   8.227  0.4418 -0.4513  4.8576
  281MOL0     H37925   7.519   6.981   8.281 -1.8508  2.6005  1.6631
  281MOL0     H37926   7.441   7.001   8.114 -1.6319  0.6285  0.6746
  281MOL0     H37927   7.642   7.131   8.055  4.0147  0.0266  1.2262
  281MOL0     H37928   7.651   6.953   8.060 -0.0641  0.2039 -0.1916
  281MOL0     H37929   7.799   6.963   8.255 -0.6406 -0.5500  0.8788
  281MOL0     H37930   7.710   7.102   8.319 -1.1868 -0.6535 -0.6815
  281MOL0     H37931   7.886   7.228   8.263 -0.0729  0.6633  0.3714
  281MOL0     H37932   7.808   7.223   8.106 -0.5275 -0.8530 -0.8967
  281MOL0     H37933   8.120   6.924   8.049 -0.3455  0.5115 -0.2061
  281MOL0     H37934   7.263   7.004   8.249  1.4197 -0.1283  0.5704
  281MOL0     H37935   7.029   7.094   8.275 -1.1631  1.6033  1.2759
  282MOL0     O37936   6.700   2.772   3.077  0.1244  0.2696  0.2410
  282MOL0     C37937   6.608   2.804   3.150  0.3029  0.4393  0.3591
  282MOL0     O37938   6.580   2.932   3.175 -0.0864 -0.5460  0.9997
  282MOL0     C37939   6.646   3.022   3.105  0.1367 -0.7041 -0.4234
  282MOL0     C37940   6.731   3.125   3.160 -0.2993  0.0113  0.1407
  282MOL0     C37941   6.781   3.231   3.079 -0.0033  0.8126  0.1873
  282MOL0     C37942   6.758   3.219   2.938 -0.2376 -0.2737  0.1057
  282MOL0     O37943   6.810   3.312   2.855  0.1584  0.3139 -0.4219
  282MOL0     C37944   6.745   3.437   2.867 -0.1805  0.3557 -0.2157
  282MOL0     C37945   6.720   3.482   2.725  0.1807  0.5452  0.6367
  282MOL0     C37946   6.598   3.417   2.670  0.4647  1.4316  0.1514
  282MOL0     C37947   6.569   3.471   2.531  0.8732  0.3012  0.1835
  282MOL0     C37948   6.427   3.455   2.495  0.0603 -0.3502 -0.0348
  282MOL0     C37949   6.415   3.486   2.341  0.5826  0.5110 -0.5799
  282MOL0     C37950   6.272   3.459   2.292  0.2325  0.2503  0.8025
  282MOL0     C37951   6.252   3.304   2.277  0.4945 -0.6273  0.3812
  282MOL0     N37952   6.113   3.281   2.222 -0.1630  0.2307  0.4431
  282MOL0     C37953   5.994   3.301   2.293 -0.6852 -0.0024  0.1703
  282MOL0     C37954   5.895   3.228   2.236  0.3682 -0.5438 -1.2812
  282MOL0     C37955   5.756   3.225   2.272  0.2924  0.4740  1.2058
  282MOL0     C37956   5.662   3.221   2.151 -0.3411 -1.3193  0.5319
  282MOL0     C37957   5.520   3.238   2.193  0.3997 -0.3714 -0.1016
  282MOL0     C37958   5.414   3.195   2.083 -0.0904  0.5196  0.2438
  282MOL0     O37959   5.276   3.210   2.123 -0.5159  0.4167  0.0542
  282MOL0     C37960   5.175   3.181   2.027  0.5443 -0.2826 -0.3084
  282MOL0     C37961   5.047   3.147   2.065 -0.2824 -0.1613  0.5606
  282MOL0     C37962   4.930   3.116   1.989 -0.5276  0.4997 -0.0551
  282MOL0     C37963   4.802   3.101   2.068 -0.0028  0.7016  0.9863
  282MOL0     C37964   4.946   3.136   1.849 -0.2760  0.0083  0.5039
  282MOL0     C37965   4.842   3.116   1.746 -0.8210 -0.2634 -0.4074
  282MOL0     O37966   4.852   3.193   1.637 -0.0947  0.5026  1.7558
  282MOL0     C37967   4.755   3.197   1.543 -0.0608 -0.7484  0.6455
  282MOL0     C37968   4.795   3.183   1.400 -0.0360  0.7139  0.2809
  282MOL0     C37969   4.703   3.195   1.297 -1.1044  0.5171  0.4436
  282MOL0     C37970   4.568   3.225   1.330 -0.7077  0.3940 -0.2972
  282MOL0     O37971   4.475   3.212   1.229  0.0972 -0.1911  0.6420
  282MOL0     C37972   4.340   3.189   1.275  0.7022 -0.5253 -0.2339
  282MOL0     C37973   4.253   3.172   1.148 -0.7034 -0.6411 -0.7849
  282MOL0     C37974   4.105   3.193   1.170  0.0954 -0.3688  0.7316
  282MOL0     C37975   4.064   3.317   1.256 -0.4128  0.0765  0.1448
  282MOL0     C37976   3.914   3.357   1.222 -1.0572  0.8898  0.3554
  282MOL0     C37977   3.821   3.243   1.251  1.3504  0.3388  0.5700
  282MOL0     C37978   3.674   3.284   1.264  0.2307  0.9783 -0.4206
  282MOL0     C37979   3.588   3.163   1.251 -0.0541 -0.8056  0.5555
  282MOL0    Cl37980   3.485   3.148   1.388  0.4291  0.0907 -0.0057
  282MOL0     C37981   4.537   3.254   1.465 -0.3903  0.5991 -0.5093
  282MOL0     C37982   4.627   3.242   1.571 -0.4384 -0.1083 -0.8549
  282MOL0     O37983   4.755   3.035   1.764  0.2815  0.1793  0.4550
  282MOL0     C37984   5.083   3.156   1.802  0.6169  0.5986 -0.5511
  282MOL0     C37985   5.185   3.187   1.889 -1.1436  0.6269  0.8521
  282MOL0     N37986   5.956   3.159   2.132 -0.0292 -0.0725 -0.4126
  282MOL0     N37987   6.082   3.183   2.138 -0.8124 -0.0301  0.4137
  282MOL0     C37988   6.679   3.121   2.889  0.4077  0.1699 -0.2227
  282MOL0     C37989   6.625   3.027   2.968 -0.5485  0.4468 -0.5858
  282MOL0     C37990   6.513   2.702   3.203  0.2932 -0.8739  0.3545
  282MOL0     C37991   6.513   2.569   3.161  0.9938 -0.0799  0.0395
  282MOL0     C37992   6.416   2.479   3.207 -0.3612 -0.6803 -0.4187
  282MOL0     C37993   6.320   2.524   3.299  0.0584 -0.0442 -1.1645
  282MOL0     O37994   6.220   2.452   3.357  0.2437 -0.2365  0.9732
  282MOL0     C37995   6.227   2.312   3.371  0.1358 -0.6654 -0.5796
  282MOL0     C37996   6.292   2.271   3.498 -0.2749  0.1580  0.2250
  282MOL0     C37997   6.441   2.310   3.500 -0.0072  0.6713 -0.4258
  282MOL0     C37998   6.526   2.218   3.396  0.2118 -0.6986 -0.9083
  282MOL0     C37999   6.534   2.084   3.446 -0.5661  0.0922 -0.2787
  282MOL0     C38000   6.555   1.983   3.503  0.8301  0.2890  0.5854
  282MOL0     C38001   6.318   2.661   3.334  0.1457 -0.1962  0.2781
  282MOL0     C38002   6.415   2.745   3.290  0.2178  0.6445 -0.4121
  282MOL0     H38003   6.753   3.141   3.266 -0.2602  0.0812  0.1225
  282MOL0     H38004   6.836   3.315   3.121  0.9189 -0.5439  1.7828
  282MOL0     H38005   6.655   3.429   2.927  1.5243  1.6038  2.7131
  282MOL0     H38006   6.803   3.514   2.918  0.9796  0.6567 -1.8906
  282MOL0     H38007   6.715   3.591   2.735  0.6177  0.4249  2.7070
  282MOL0     H38008   6.810   3.467   2.664 -0.3337  1.2634 -0.3250
  282MOL0     H38009   6.623   3.311   2.671  1.6267  1.6796  1.6508
  282MOL0     H38010   6.517   3.424   2.744 -1.4174 -0.4854 -1.6022
  282MOL0     H38011   6.590   3.578   2.542  1.2870  0.1856  0.5283
  282MOL0     H38012   6.639   3.427   2.459  2.3073  0.8484  1.1957
  282MOL0     H38013   6.387   3.354   2.506  0.5777 -0.6889 -1.1483
  282MOL0     H38014   6.362   3.521   2.554  0.0440 -1.8732  1.7649
  282MOL0     H38015   6.447   3.590   2.328  1.9004  0.7560  3.3434
  282MOL0     H38016   6.483   3.416   2.292 -1.7731 -0.8763 -2.0686
  282MOL0     H38017   6.194   3.497   2.358 -1.1763 -1.9914  0.5403
  282MOL0     H38018   6.266   3.500   2.191  0.3851 -1.3014  0.1364
  282MOL0     H38019   6.273   3.260   2.375  1.7778  1.4626  1.1038
  282MOL0     H38020   6.321   3.262   2.202 -1.4990 -0.8335 -1.4367
  282MOL0     H38021   5.979   3.355   2.386 -1.0456  2.6302 -1.3137
  282MOL0     H38022   5.746   3.135   2.335  4.5213 -0.5972  0.6000
  282MOL0     H38023   5.720   3.309   2.332 -2.6654  0.1010  0.1374
  282MOL0     H38024   5.668   3.126   2.097  0.6964 -0.9438 -0.0233
  282MOL0     H38025   5.684   3.300   2.079  1.0705 -1.9428  0.2569
  282MOL0     H38026   5.499   3.340   2.226 -2.0976 -1.3060  1.4797
  282MOL0     H38027   5.506   3.174   2.280 -1.4489  0.3561  0.1796
  282MOL0     H38028   5.433   3.090   2.057 -0.3428  0.5233  0.0426
  282MOL0     H38029   5.436   3.255   1.994  1.1894 -1.9191 -1.2042
  282MOL0     H38030   5.047   3.108   2.167 -2.9867 -0.6832  0.4442
  282MOL0     H38031   4.822   3.084   2.174 -1.2290  0.3105  1.1675
  282MOL0     H38032   4.750   3.198   2.069  2.8521  2.3435  2.0672
  282MOL0     H38033   4.732   3.027   2.028 -0.2463  0.4935  1.7874
  282MOL0     H38034   4.896   3.164   1.366  0.3769 -0.6230  2.1054
  282MOL0     H38035   4.730   3.176   1.193  0.0320 -0.2983  0.8771
  282MOL0     H38036   4.335   3.106   1.346  2.4946 -0.4235  0.0712
  282MOL0     H38037   4.301   3.273   1.332 -1.5905 -3.1557  2.3857
  282MOL0     H38038   4.292   3.238   1.070  0.5884  2.9363  2.5602
  282MOL0     H38039   4.274   3.067   1.125  2.3565  0.1724 -2.3436
  282MOL0     H38040   4.068   3.110   1.230 -2.3656  0.0548 -0.0928
  282MOL0     H38041   4.062   3.194   1.069 -0.4114  2.2947  0.8839
  282MOL0     H38042   4.093   3.295   1.359 -0.9231  1.7122  0.6676
  282MOL0     H38043   4.121   3.406   1.225 -2.1104  1.7700  1.6585
  282MOL0     H38044   3.903   3.384   1.116  3.1456  0.3399 -0.4307
  282MOL0     H38045   3.893   3.443   1.285 -0.2755  1.9386 -0.7503
  282MOL0     H38046   3.834   3.159   1.183  0.0756 -2.4918  3.5358
  282MOL0     H38047   3.861   3.199   1.343  0.6098 -0.3677  0.5581
  282MOL0     H38048   3.648   3.363   1.193 -0.4850  2.1347  1.0771
  282MOL0     H38049   3.649   3.325   1.362 -0.2418 -0.4460  0.0906
  282MOL0     H38050   3.648   3.072   1.242  1.7232  0.4467 -1.1613
  282MOL0     H38051   3.527   3.189   1.164 -0.5865 -0.0818  1.1291
  282MOL0     H38052   4.437   3.290   1.488 -0.7796 -0.9989  0.4272
  282MOL0     H38053   4.603   3.275   1.672 -2.6739 -2.7972 -0.3783
  282MOL0     H38054   5.098   3.145   1.695 -0.4216 -2.1907 -0.5069
  282MOL0     H38055   5.281   3.203   1.840 -0.4404 -0.2652  1.8813
  282MOL0     H38056   6.644   3.110   2.787 -0.8729 -2.8469  0.4427
  282MOL0     H38057   6.576   2.940   2.926  0.0966 -1.0703  1.6194
  282MOL0     H38058   6.584   2.538   3.084 -0.0164  0.2798 -1.0725
  282MOL0     H38059   6.418   2.378   3.168 -0.4402 -0.5094 -0.8692
  282MOL0     H38060   6.122   2.290   3.389  0.9897 -2.1850  3.8717
  282MOL0     H38061   6.272   2.265   3.282  1.6077 -2.1496  0.8881
  282MOL0     H38062   6.285   2.165   3.523  0.3613  0.0168 -0.1760
  282MOL0     H38063   6.247   2.325   3.582  1.1642 -0.1761  1.2498
  282MOL0     H38064   6.474   2.285   3.601 -1.4366  3.1430  0.7439
  282MOL0     H38065   6.447   2.418   3.483 -0.3173  0.8626  0.6470
  282MOL0     H38066   6.623   2.269   3.395 -0.2801  0.6552  2.6254
  282MOL0     H38067   6.499   2.214   3.291  0.8972 -1.5795 -1.0580
  282MOL0     H38068   6.568   1.897   3.566 -0.7821 -1.4360 -1.3029
  282MOL0     H38069   6.242   2.690   3.405  1.9330 -1.8487  3.0435
  282MOL0     H38070   6.422   2.849   3.319  0.1300  0.9260 -1.3643
  283MOL0     O38071  10.087   2.444   2.354 -0.8114  0.4689 -0.0555
  283MOL0     C38072  10.091   2.448   2.234  0.4540  0.3904 -0.5989
  283MOL0     O38073   9.995   2.392   2.154  0.1131  0.2370  0.2287
  283MOL0     C38074   9.866   2.388   2.201 -0.0536 -0.4206 -0.8099
  283MOL0     C38075   9.806   2.507   2.238 -0.2240 -0.1199  0.5942
  283MOL0     C38076   9.670   2.502   2.269 -0.1914  0.4704 -0.1711
  283MOL0     C38077   9.603   2.376   2.271  0.0936  0.7040  0.5398
  283MOL0     O38078   9.468   2.380   2.304 -0.7027 -0.6793 -0.3465
  283MOL0     C38079   9.385   2.261   2.278  0.1943  0.0625  0.4814
  283MOL0     C38080   9.245   2.263   2.328  0.0914 -0.0089 -0.2442
  283MOL0     C38081   9.165   2.148   2.272  1.1229 -0.6990 -0.9154
  283MOL0     C38082   9.110   2.179   2.128 -0.1068 -0.0057  0.1718
  283MOL0     C38083   9.031   2.054   2.075  0.2898  0.3449  0.6819
  283MOL0     C38084   8.963   2.086   1.940  1.1970  0.9831 -0.2931
  283MOL0     C38085   8.869   2.208   1.940 -1.0240 -0.5697  0.8530
  283MOL0     C38086   8.762   2.205   2.038  0.5947 -0.8811  0.5200
  283MOL0     N38087   8.658   2.296   1.988 -1.1894 -0.2482 -0.3024
  283MOL0     C38088   8.539   2.309   2.055  0.1042  0.5249  0.7240
  283MOL0     C38089   8.473   2.415   2.002 -0.3847  0.2004 -0.3643
  283MOL0     C38090   8.336   2.466   2.048  0.3603 -0.1612  0.3430
  283MOL0     C38091   8.308   2.593   1.968  0.3739  0.0620 -0.1572
  283MOL0     C38092   8.169   2.647   2.004  0.2766 -0.0508  0.7706
  283MOL0     C38093   8.128   2.767   1.926  0.0399 -0.6456  0.4478
  283MOL0     O38094   7.988   2.770   1.918  0.4293 -0.2664 -0.0803
  283MOL0     C38095   7.923   2.708   1.813 -0.2692 -0.5092  0.1889
  283MOL0     C38096   7.808   2.632   1.838 -0.0720  0.5493  0.7699
  283MOL0     C38097   7.743   2.567   1.732 -0.1611  0.5312 -0.1790
  283MOL0     C38098   7.605   2.501   1.766 -0.1460  0.2117 -0.5245
  283MOL0     C38099   7.797   2.571   1.601  0.1250  0.2166 -0.7028
  283MOL0     C38100   7.737   2.508   1.486 -0.5366 -0.4577  0.6234
  283MOL0     O38101   7.629   2.435   1.502  0.4742 -0.0974  0.1045
  283MOL0     C38102   7.583   2.370   1.391 -0.5702  0.0997  0.7139
  283MOL0     C38103   7.532   2.445   1.279  0.1794 -0.0450  0.5385
  283MOL0     C38104   7.465   2.378   1.173 -0.0474  0.1535  0.1898
  283MOL0     C38105   7.447   2.244   1.173 -0.6094  0.3998  0.2975
  283MOL0     O38106   7.388   2.164   1.080 -0.2784  0.3948  1.5432
  283MOL0     C38107   7.311   2.213   0.967  0.2765 -0.3640 -0.0693
  283MOL0     C38108   7.307   2.110   0.860  0.1970  0.5417  0.3127
  283MOL0     C38109   7.235   2.163   0.736  0.7257  0.4850  0.1144
  283MOL0     C38110   7.082   2.120   0.743  0.5556  0.6433 -0.0792
  283MOL0     C38111   6.998   2.157   0.623 -0.3570  0.2448 -0.3786
  283MOL0     C38112   7.036   2.086   0.487 -0.2978 -0.2032  0.4485
  283MOL0     C38113   6.975   1.945   0.487  0.6094  0.6879 -0.2725
  283MOL0     C38114   6.983   1.869   0.354  0.5390 -0.9170  0.3898
  283MOL0    Cl38115   6.886   1.724   0.371 -0.5583 -0.2325  0.2192
  283MOL0     C38116   7.502   2.171   1.280  0.1737  0.0687  0.3725
  283MOL0     C38117   7.577   2.233   1.383 -0.0066  0.0318 -0.1861
  283MOL0     O38118   7.803   2.510   1.377  1.1173  0.5978 -0.2651
  283MOL0     C38119   7.912   2.647   1.576  0.1316  0.1914 -0.0859
  283MOL0     C38120   7.960   2.718   1.682  0.1407  0.4312  0.1914
  283MOL0     N38121   8.560   2.479   1.912 -0.2572 -0.7806 -0.4265
  283MOL0     N38122   8.656   2.396   1.897 -0.2261 -0.5344 -0.3638
  283MOL0     C38123   9.674   2.259   2.249  0.3452  0.2120  0.4257
  283MOL0     C38124   9.805   2.265   2.211 -0.0917 -0.4895 -0.0568
  283MOL0     C38125  10.212   2.509   2.180 -0.7794  0.4928 -0.2021
  283MOL0     C38126  10.318   2.563   2.254  0.7594  0.0889 -0.2462
  283MOL0     C38127  10.424   2.626   2.190 -0.0520 -1.1060  1.0937
  283MOL0     C38128  10.439   2.634   2.049 -0.6593 -0.2188 -0.3126
  283MOL0     O38129  10.547   2.697   2.004  0.5826  0.0139 -0.0394
  283MOL0     C38130  10.579   2.687   1.860 -0.0384  0.0318  0.2553
  283MOL0     C38131  10.512   2.790   1.778  0.2214 -0.4070 -0.4318
  283MOL0     C38132  10.564   2.929   1.789  0.3662  0.2958 -0.4873
  283MOL0     C38133  10.538   3.004   1.659 -0.0034 -0.3777 -0.0478
  283MOL0     C38134  10.399   2.987   1.617  0.5872  0.8629  0.1500
  283MOL0     C38135  10.285   3.000   1.583  0.7031  0.6571 -0.0267
  283MOL0     C38136  10.342   2.565   1.979  0.3707 -0.3168  0.4991
  283MOL0     C38137  10.230   2.511   2.038  0.3978 -0.3943  0.0143
  283MOL0     H38138   9.864   2.598   2.222 -1.4806  0.1189 -4.3153
  283MOL0     H38139   9.617   2.595   2.287  0.8774  1.7872 -3.1184
  283MOL0     H38140   9.385   2.262   2.169 -0.2171  0.1054  0.4772
  283MOL0     H38141   9.435   2.170   2.311  0.4597 -0.9017 -2.3232
  283MOL0     H38142   9.263   2.252   2.436 -2.6405 -1.1323  0.1728
  283MOL0     H38143   9.201   2.359   2.301 -2.0147 -0.5996  0.8641
  283MOL0     H38144   9.219   2.054   2.279 -1.4417 -2.1590  1.6658
  283MOL0     H38145   9.075   2.127   2.331  0.8782  1.7166 -0.3211
  283MOL0     H38146   9.052   2.272   2.132  1.3655  0.8956  1.8625
  283MOL0     H38147   9.189   2.198   2.054 -1.6181 -1.3883 -1.8864
  283MOL0     H38148   9.099   1.968   2.073  1.8924  1.5453  1.3177
  283MOL0     H38149   8.942   2.020   2.129 -0.7878 -3.3660 -2.8497
  283MOL0     H38150   9.036   2.087   1.858 -0.1062  1.2190 -1.5128
  283MOL0     H38151   8.898   1.999   1.927 -0.5134  1.2703  4.5219
  283MOL0     H38152   8.938   2.292   1.954  1.8011 -2.6851  0.4911
  283MOL0     H38153   8.825   2.210   1.839 -1.4968 -0.8502  1.0499
  283MOL0     H38154   8.806   2.221   2.137  0.9878 -0.3964  0.2747
  283MOL0     H38155   8.722   2.106   2.016 -1.7853  0.6720 -3.0126
  283MOL0     H38156   8.508   2.234   2.127 -0.2789  2.7547  3.0599
  283MOL0     H38157   8.254   2.394   2.045 -0.1424  0.4481 -1.5309
  283MOL0     H38158   8.338   2.483   2.157  0.9272 -0.2676  0.3501
  283MOL0     H38159   8.315   2.562   1.863 -0.1662 -2.4606  0.4684
  283MOL0     H38160   8.378   2.676   1.979 -0.5689  0.6481  1.8070
  283MOL0     H38161   8.168   2.671   2.110  1.1609 -0.0766  0.7925
  283MOL0     H38162   8.103   2.564   1.979  1.1779 -1.2646  2.2365
  283MOL0     H38163   8.179   2.765   1.829 -0.5908  1.3999  0.0090
  283MOL0     H38164   8.157   2.860   1.976 -0.1529 -2.1138  3.5540
  283MOL0     H38165   7.761   2.619   1.935 -1.0158 -0.3239  0.2125
  283MOL0     H38166   7.599   2.393   1.745  0.5964  0.1691 -0.5447
  283MOL0     H38167   7.578   2.499   1.872  1.6058 -0.9185 -0.0537
  283MOL0     H38168   7.517   2.546   1.720 -1.6507  0.5673  2.4471
  283MOL0     H38169   7.554   2.551   1.274  2.9457 -0.5924 -1.0371
  283MOL0     H38170   7.447   2.434   1.081  2.7849 -0.5544 -0.8839
  283MOL0     H38171   7.207   2.226   0.997  0.5651 -1.0040  1.2836
  283MOL0     H38172   7.351   2.305   0.924 -2.3773  0.3328 -1.2249
  283MOL0     H38173   7.409   2.096   0.822 -0.6437 -0.2806 -1.7841
  283MOL0     H38174   7.254   2.019   0.886  2.3940 -0.6045  1.0721
  283MOL0     H38175   7.271   2.111   0.647  0.0692 -1.8706  1.1441
  283MOL0     H38176   7.255   2.269   0.716  2.0299  0.0602 -1.0155
  283MOL0     H38177   7.074   2.012   0.759 -0.8706  0.7170 -0.1187
  283MOL0     H38178   7.027   2.161   0.829 -1.0550 -1.9236  0.2311
  283MOL0     H38179   6.999   2.266   0.614 -1.3305  0.1183 -3.0990
  283MOL0     H38180   6.893   2.134   0.643 -0.1423 -0.9408 -0.5588
  283MOL0     H38181   7.002   2.143   0.401 -1.1879 -1.6032 -0.1494
  283MOL0     H38182   7.144   2.069   0.476 -0.5218 -1.2644 -0.2485
  283MOL0     H38183   6.870   1.958   0.515 -0.0619  0.5160 -2.5277
  283MOL0     H38184   7.030   1.879   0.555 -2.4227  0.2217  1.9974
  283MOL0     H38185   7.088   1.845   0.336  0.0157 -2.9158 -0.1847
  283MOL0     H38186   6.933   1.926   0.274  0.6117 -1.2766  0.0873
  283MOL0     H38187   7.490   2.063   1.286 -1.9062  0.2384  0.1525
  283MOL0     H38188   7.631   2.195   1.469  2.6439 -0.7407 -2.0428
  283MOL0     H38189   7.958   2.673   1.481  0.4304 -2.2166 -0.6544
  283MOL0     H38190   8.043   2.782   1.654 -0.0142 -0.5021 -2.7310
  283MOL0     H38191   9.631   2.159   2.242 -0.9762  0.8432 -0.9519
  283MOL0     H38192   9.854   2.168   2.210  0.8634 -0.0490 -2.1108
  283MOL0     H38193  10.310   2.550   2.362  1.3773  0.0565 -0.1978
  283MOL0     H38194  10.504   2.662   2.253  3.3214 -2.6240 -1.9275
  283MOL0     H38195  10.688   2.692   1.854  0.0703  0.9361  2.0277
  283MOL0     H38196  10.550   2.595   1.809 -1.9610  1.2265 -0.9199
  283MOL0     H38197  10.413   2.796   1.824  1.0957  1.2647  1.3809
  283MOL0     H38198  10.504   2.760   1.673 -1.4013 -0.4563 -0.3245
  283MOL0     H38199  10.668   2.934   1.821  0.3642 -2.2178  0.1203
  283MOL0     H38200  10.505   2.973   1.870  4.5819 -0.0464  3.1388
  283MOL0     H38201  10.608   2.969   1.583  0.7281 -2.0349  1.3060
  283MOL0     H38202  10.574   3.105   1.682 -1.5752 -0.3090  2.4941
  283MOL0     H38203  10.182   3.007   1.556  0.7062  0.7724 -0.0096
  283MOL0     H38204  10.339   2.571   1.870 -1.8613  1.3445  0.5691
  283MOL0     H38205  10.150   2.479   1.972 -0.1472  0.0229  0.4558
  284MOL0     O38206   1.955   6.844   2.265 -0.2978 -0.5697 -0.5801
  284MOL0     C38207   1.986   6.950   2.326  1.1051 -0.5940  0.5076
  284MOL0     O38208   1.900   7.056   2.350  0.1399 -0.2201  0.1714
  284MOL0     C38209   1.771   7.060   2.320  0.1859 -0.3377  0.5775
  284MOL0     C38210   1.736   7.168   2.234  0.3141  0.5978  0.2062
  284MOL0     C38211   1.600   7.181   2.196 -0.0596  1.1298 -0.9806
  284MOL0     C38212   1.504   7.086   2.246  0.8677  0.3672  0.1694
  284MOL0     O38213   1.369   7.094   2.228  1.0027 -0.7617  0.4144
  284MOL0     C38214   1.319   7.133   2.090  0.2638 -0.4481  0.1642
  284MOL0     C38215   1.191   7.060   2.056 -0.4689  0.7423 -0.2651
  284MOL0     C38216   1.081   7.059   2.168  0.1235  0.9381 -0.3553
  284MOL0     C38217   0.979   6.948   2.143  0.0093  0.2889 -0.6966
  284MOL0     C38218   0.902   6.962   2.010  0.4818  0.0552  0.6011
  284MOL0     C38219   0.847   6.819   1.965 -0.3653 -0.0800 -0.3544
  284MOL0     C38220   0.774   6.836   1.833  0.4482 -0.4396  1.2353
  284MOL0     C38221   0.643   6.919   1.847 -1.0920 -0.3207  0.4297
  284MOL0     N38222   0.553   6.893   1.741 -0.0448 -0.2197  0.1172
  284MOL0     C38223   0.505   6.768   1.716 -0.8058 -0.2114 -0.2993
  284MOL0     C38224   0.419   6.778   1.614 -0.3019 -0.4144  0.6091
  284MOL0     C38225   0.339   6.677   1.548 -0.2547 -0.0207 -0.5143
  284MOL0     C38226   0.245   6.731   1.432  0.1048  0.3769  1.1210
  284MOL0     C38227   0.151   6.630   1.371  0.4053 -0.2442 -0.7004
  284MOL0     C38228   0.049   6.575   1.460  0.4808 -0.1535  0.4288
  284MOL0     O38229   0.000   6.455   1.395  0.0041  0.3157  0.1904
  284MOL0     C38230  -0.101   6.384   1.454  0.0015  0.5119  0.4049
  284MOL0     C38231  -0.195   6.435   1.547 -0.7061 -0.5210 -0.1360
  284MOL0     C38232  -0.293   6.356   1.604 -1.0944 -0.2877  0.2291
  284MOL0     C38233  -0.388   6.419   1.700 -0.1108  0.0086  0.3076
  284MOL0     C38234  -0.298   6.219   1.571 -0.2514 -0.2673 -0.4523
  284MOL0     C38235  -0.385   6.127   1.647 -0.4674 -0.4270  0.3826
  284MOL0     O38236  -0.416   6.009   1.577 -0.7584 -0.4718 -0.5329
  284MOL0     C38237  -0.528   5.938   1.590  0.8166 -0.4782 -0.3796
  284MOL0     C38238  -0.543   5.834   1.499 -0.0534 -0.6980  0.8427
  284MOL0     C38239  -0.653   5.750   1.492  0.9172  0.2223  0.0603
  284MOL0     C38240  -0.756   5.759   1.587  0.0280 -0.4456  0.1154
  284MOL0     O38241  -0.866   5.685   1.595  0.8452  0.2022  0.3666
  284MOL0     C38242  -0.867   5.536   1.570 -0.0507  0.4172  0.0498
  284MOL0     C38243  -1.001   5.476   1.598 -0.0809 -1.4420 -0.2440
  284MOL0     C38244  -1.027   5.495   1.746 -1.2393 -0.0817  1.3682
  284MOL0     C38245  -1.142   5.411   1.801 -0.4209  0.7030  0.3788
  284MOL0     C38246  -1.277   5.489   1.816 -0.1357  0.0301 -0.6056
  284MOL0     C38247  -1.400   5.402   1.842 -0.1493 -0.2414 -0.1571
  284MOL0     C38248  -1.386   5.295   1.948  0.9233  0.5388 -0.3292
  284MOL0     C38249  -1.400   5.333   2.095 -0.4540 -0.1899 -0.4542
  284MOL0    Cl38250  -1.557   5.410   2.125  0.0976 -0.6341  0.1889
  284MOL0     C38251  -0.752   5.871   1.674 -0.2999 -0.3682 -0.1683
  284MOL0     C38252  -0.642   5.958   1.669  0.3061 -0.9033 -0.7053
  284MOL0     O38253  -0.424   6.153   1.763 -0.2036  0.3199  0.1217
  284MOL0     C38254  -0.214   6.171   1.470 -0.2620 -0.6390  0.3111
  284MOL0     C38255  -0.114   6.256   1.419  0.1376  0.8677  0.1099
  284MOL0     N38256   0.420   6.915   1.577 -0.0805  0.8168  0.0413
  284MOL0     N38257   0.503   6.979   1.650  0.5566  0.0766  0.2213
  284MOL0     C38258   1.544   6.979   2.330  0.1895  0.2386 -0.4090
  284MOL0     C38259   1.676   6.959   2.371 -0.3694  0.3923  0.7008
  284MOL0     C38260   2.119   6.955   2.375 -0.4392 -0.6918 -0.4544
  284MOL0     C38261   2.204   6.841   2.388  0.7429 -1.0344  0.1216
  284MOL0     C38262   2.335   6.862   2.436 -0.3831  0.6071 -0.3359
  284MOL0     C38263   2.394   6.987   2.465 -0.1848  0.5187  0.6238
  284MOL0     O38264   2.532   6.983   2.502 -0.1219 -0.3624 -0.1771
  284MOL0     C38265   2.610   7.098   2.467 -0.4286 -1.1343  0.1136
  284MOL0     C38266   2.635   7.135   2.314  0.7715  0.2295 -0.8386
  284MOL0     C38267   2.711   7.021   2.245  0.8606  0.1939  0.3005
  284MOL0     C38268   2.854   7.004   2.287 -0.3855  0.0490 -0.0189
  284MOL0     C38269   2.938   7.117   2.246 -0.1264  0.1851 -0.5291
  284MOL0     C38270   2.995   7.212   2.204 -0.4932  0.1895  0.0487
  284MOL0     C38271   2.312   7.096   2.436 -0.8640 -0.2929 -0.6280
  284MOL0     C38272   2.182   7.079   2.394  0.4260 -0.8593  1.3443
  284MOL0     H38273   1.815   7.234   2.200 -0.0275  1.2475  0.6466
  284MOL0     H38274   1.573   7.263   2.130  0.1145  2.9496  1.0850
  284MOL0     H38275   1.289   7.238   2.096  1.9769  0.3858 -3.1623
  284MOL0     H38276   1.402   7.123   2.018 -1.8650  2.1041 -2.9442
  284MOL0     H38277   1.160   7.103   1.960  2.5203  0.8020 -1.3333
  284MOL0     H38278   1.208   6.954   2.032 -0.1553  0.7422 -0.0557
  284MOL0     H38279   1.124   7.040   2.267 -3.0346  1.3128  1.1879
  284MOL0     H38280   1.030   7.155   2.179  0.3211  0.8694  1.3607
  284MOL0     H38281   1.018   6.846   2.141 -0.8819 -0.0561 -2.1654
  284MOL0     H38282   0.906   6.941   2.225 -1.4142  0.9413 -1.8637
  284MOL0     H38283   0.817   7.023   2.045 -2.8607 -3.0708 -1.3500
  284MOL0     H38284   0.967   7.012   1.937  0.0281  1.6639  1.2508
  284MOL0     H38285   0.927   6.746   1.952 -0.5905 -0.4276  0.1706
  284MOL0     H38286   0.785   6.777   2.044  0.7447 -1.7175 -0.3104
  284MOL0     H38287   0.857   6.872   1.773  0.8242 -1.0678  1.3590
  284MOL0     H38288   0.743   6.736   1.801 -0.6449  0.3015 -0.1316
  284MOL0     H38289   0.676   7.024   1.842 -0.1788 -0.6293 -0.2637
  284MOL0     H38290   0.593   6.891   1.940 -0.0778  3.4186  2.2887
  284MOL0     H38291   0.530   6.676   1.768  2.2054  0.7015  0.0226
  284MOL0     H38292   0.402   6.598   1.507 -1.5016 -1.3361  0.0161
  284MOL0     H38293   0.276   6.626   1.622  1.3025 -1.3605 -0.0671
  284MOL0     H38294   0.309   6.781   1.359  1.7371 -0.7612  1.7269
  284MOL0     H38295   0.182   6.808   1.477 -1.7147 -0.1729 -0.3890
  284MOL0     H38296   0.217   6.557   1.323  0.6074 -0.1893 -0.5071
  284MOL0     H38297   0.103   6.690   1.294 -1.3393  1.2728  1.4290
  284MOL0     H38298  -0.031   6.646   1.482 -0.3327 -1.0212  0.3760
  284MOL0     H38299   0.087   6.531   1.553  0.0348 -2.6548 -0.4945
  284MOL0     H38300  -0.174   6.534   1.587  1.0814 -0.3233 -1.4321
  284MOL0     H38301  -0.492   6.387   1.688 -0.3500 -0.5994  3.2108
  284MOL0     H38302  -0.357   6.408   1.804  2.2465 -0.8981 -0.4343
  284MOL0     H38303  -0.388   6.524   1.670 -3.2910  0.2901  0.9004
  284MOL0     H38304  -0.448   5.816   1.450  0.0596  1.5356  0.1636
  284MOL0     H38305  -0.653   5.682   1.407  0.8474  0.4200 -0.0977
  284MOL0     H38306  -0.840   5.510   1.467  0.7991 -2.0596  0.8174
  284MOL0     H38307  -0.781   5.486   1.616  0.9767  1.3658 -0.7882
  284MOL0     H38308  -1.071   5.528   1.533 -0.5335 -1.4294  0.2431
  284MOL0     H38309  -0.991   5.372   1.566  0.6315 -1.6688  0.6718
  284MOL0     H38310  -1.054   5.597   1.777  1.5187  0.4715  2.1720
  284MOL0     H38311  -0.932   5.472   1.795  0.1322  0.0888 -1.0672
  284MOL0     H38312  -1.159   5.313   1.755  0.1800  2.1552 -3.2636
  284MOL0     H38313  -1.107   5.384   1.901  1.7607  0.5748 -0.3730
  284MOL0     H38314  -1.298   5.541   1.723 -0.1652  1.5916  0.2422
  284MOL0     H38315  -1.270   5.558   1.901 -0.3531 -1.8226  1.0102
  284MOL0     H38316  -1.481   5.473   1.863 -1.2709 -0.7911 -2.3012
  284MOL0     H38317  -1.424   5.353   1.748 -0.3876 -0.5435  0.0609
  284MOL0     H38318  -1.303   5.224   1.939 -1.1725 -2.0614 -0.3634
  284MOL0     H38319  -1.470   5.227   1.934  0.8251 -0.0973  2.6616
  284MOL0     H38320  -1.311   5.386   2.131 -0.8543 -0.3447  0.8277
  284MOL0     H38321  -1.400   5.240   2.153  2.0627  0.1957  0.2643
  284MOL0     H38322  -0.837   5.881   1.741 -0.5162 -0.4211 -0.4363
  284MOL0     H38323  -0.645   6.043   1.736 -2.6823 -0.3312 -1.4147
  284MOL0     H38324  -0.227   6.071   1.429 -0.8574 -0.2399 -0.5042
  284MOL0     H38325  -0.046   6.205   1.351 -0.3261 -2.5311  1.9794
  284MOL0     H38326   1.469   6.911   2.370  1.8129 -2.5126 -1.7244
  284MOL0     H38327   1.708   6.888   2.446  0.3547  0.1902  0.2068
  284MOL0     H38328   2.182   6.742   2.352  0.7655 -1.1536  0.4331
  284MOL0     H38329   2.395   6.775   2.462  3.5263  3.2556  0.3095
  284MOL0     H38330   2.568   7.186   2.516  0.8145 -0.8974  0.8111
  284MOL0     H38331   2.710   7.088   2.510 -0.9606  0.1310  1.7349
  284MOL0     H38332   2.686   7.228   2.291  0.6852  0.7007  0.7429
  284MOL0     H38333   2.537   7.148   2.268 -0.6408 -3.8124  0.5315
  284MOL0     H38334   2.719   7.048   2.139  2.4190 -2.3233 -0.2899
  284MOL0     H38335   2.659   6.926   2.257  0.3261  0.4127 -0.1856
  284MOL0     H38336   2.899   6.918   2.236  1.0503 -0.0357  1.3081
  284MOL0     H38337   2.869   6.980   2.393  3.3155 -0.9787 -0.6508
  284MOL0     H38338   3.052   7.296   2.169  2.7329 -0.5869  3.0075
  284MOL0     H38339   2.347   7.197   2.456  0.0342 -0.1643 -2.6667
  284MOL0     H38340   2.126   7.171   2.384 -0.0155 -1.1226  1.4072
  285MOL0     O38341   0.942   5.362   8.075 -0.0250  0.3692 -0.3619
  285MOL0     C38342   0.873   5.463   8.093 -0.2496  0.5976 -0.5978
  285MOL0     O38343   0.900   5.594   8.049  0.1672  0.1592  0.1213
  285MOL0     C38344   1.014   5.623   7.980 -0.1396 -0.3451 -0.6057
  285MOL0     C38345   1.141   5.567   8.030  0.0327 -0.7247  0.2349
  285MOL0     C38346   1.265   5.592   7.957 -0.1276 -0.3923 -0.3241
  285MOL0     C38347   1.258   5.681   7.838 -0.3729  0.7045 -0.5476
  285MOL0     O38348   1.383   5.690   7.771 -0.3512 -0.1034  0.0377
  285MOL0     C38349   1.387   5.699   7.626  0.8797  0.3901 -0.0106
  285MOL0     C38350   1.526   5.696   7.571 -0.1061 -0.0679 -0.4214
  285MOL0     C38351   1.561   5.842   7.560 -0.1310  0.4245 -0.1597
  285MOL0     C38352   1.711   5.861   7.500 -0.4390 -0.0271 -0.1306
  285MOL0     C38353   1.819   5.773   7.564  0.6312 -0.5065 -0.1274
  285MOL0     C38354   1.954   5.807   7.494  0.1619  0.0197  0.2176
  285MOL0     C38355   2.067   5.696   7.491 -0.2206 -0.3275  0.5109
  285MOL0     C38356   2.097   5.656   7.634  0.9469  0.2824 -0.3545
  285MOL0     N38357   2.166   5.758   7.712  0.8975 -0.7915 -0.4437
  285MOL0     C38358   2.281   5.818   7.666  0.3180 -0.2940  0.9625
  285MOL0     C38359   2.316   5.927   7.734 -0.0703  0.6172  0.2315
  285MOL0     C38360   2.447   5.993   7.722  0.2631 -0.0407 -0.6538
  285MOL0     C38361   2.524   5.969   7.855  0.1972  0.5028 -0.4200
  285MOL0     C38362   2.489   6.076   7.957  0.0522 -0.5321 -0.1966
  285MOL0     C38363   2.560   6.039   8.082 -0.3757  0.4280  0.6656
  285MOL0     O38364   2.473   6.098   8.182  0.1309  0.7598 -0.4106
  285MOL0     C38365   2.527   6.197   8.264  0.7981  0.8972  1.3680
  285MOL0     C38366   2.460   6.316   8.277 -0.9069 -0.2747 -0.5395
  285MOL0     C38367   2.508   6.416   8.360 -1.4669 -0.0922  0.2380
  285MOL0     C38368   2.422   6.531   8.375  0.7695  0.0990 -0.5541
  285MOL0     C38369   2.623   6.392   8.450  0.1620  0.9589 -0.7848
  285MOL0     C38370   2.666   6.496   8.545 -0.0047 -0.4023 -0.1498
  285MOL0     O38371   2.724   6.447   8.660 -0.1116 -0.0363  0.0276
  285MOL0     C38372   2.746   6.528   8.765  0.9932  1.0677  0.5250
  285MOL0     C38373   2.642   6.569   8.855 -0.0248  0.2609 -0.3891
  285MOL0     C38374   2.669   6.648   8.965  0.3606  0.7036  0.0769
  285MOL0     C38375   2.805   6.680   8.984  0.4063 -0.8092 -0.8082
  285MOL0     O38376   2.855   6.762   9.084 -0.1198  0.3706  0.7121
  285MOL0     C38377   2.786   6.765   9.208 -0.0864  1.1025  0.4106
  285MOL0     C38378   2.787   6.628   9.285  0.8127  0.1487  0.0774
  285MOL0     C38379   2.891   6.630   9.399 -0.4640 -0.0950  0.1419
  285MOL0     C38380   3.032   6.644   9.347  0.4905  0.2224  0.0263
  285MOL0     C38381   3.128   6.612   9.458 -0.1501 -0.0314 -0.1816
  285MOL0     C38382   3.140   6.462   9.506 -0.3926 -0.3425 -0.3914
  285MOL0     C38383   3.132   6.360   9.391  1.0624  0.0443 -0.3512
  285MOL0     C38384   3.260   6.351   9.312  0.0704 -0.6501 -0.1454
  285MOL0    Cl38385   3.393   6.320   9.412  0.4584  0.1171  0.0958
  285MOL0     C38386   2.902   6.643   8.890 -0.1052 -0.3338 -0.2859
  285MOL0     C38387   2.880   6.563   8.783  0.3596  0.4234  0.0004
  285MOL0     O38388   2.653   6.614   8.517 -0.0728 -0.5999  0.6819
  285MOL0     C38389   2.692   6.270   8.432 -0.2341  0.2315 -0.6599
  285MOL0     C38390   2.649   6.176   8.326  0.5659 -0.5659 -0.7036
  285MOL0     N38391   2.217   5.933   7.832  0.6056 -0.7139 -0.4550
  285MOL0     N38392   2.126   5.840   7.813 -0.3063 -0.0908 -0.2012
  285MOL0     C38393   1.135   5.725   7.790  0.2454 -0.6384  0.6836
  285MOL0     C38394   1.015   5.701   7.862 -0.1843  0.2929  0.1380
  285MOL0     C38395   0.752   5.440   8.173 -0.2212 -0.2720  0.3552
  285MOL0     C38396   0.639   5.519   8.161  0.8138 -0.5818 -0.7500
  285MOL0     C38397   0.527   5.497   8.242  0.8257 -0.0035 -0.9248
  285MOL0     C38398   0.512   5.388   8.325 -0.2137 -0.5599 -0.2853
  285MOL0     O38399   0.392   5.364   8.381  0.1184 -0.0390  0.0997
  285MOL0     C38400   0.386   5.259   8.481  0.2746  0.2812 -0.1304
  285MOL0     C38401   0.248   5.273   8.554 -0.6136 -0.3111  0.1899
  285MOL0     C38402   0.137   5.199   8.482 -0.5834 -0.1460  0.4678
  285MOL0     C38403   0.003   5.182   8.562  0.1593  0.1799 -0.1305
  285MOL0     C38404  -0.045   5.039   8.562 -0.2084 -0.5887  0.6671
  285MOL0     C38405  -0.076   4.929   8.552 -0.6697  1.4344  0.1883
  285MOL0     C38406   0.618   5.297   8.334  0.8011 -0.4228 -1.0475
  285MOL0     C38407   0.737   5.323   8.266 -0.0925 -0.2049 -0.9787
  285MOL0     H38408   1.152   5.523   8.128 -0.3082 -1.0024  0.1503
  285MOL0     H38409   1.360   5.563   8.001 -0.1147 -1.6839 -1.1584
  285MOL0     H38410   1.330   5.621   7.575 -2.9332  3.5625 -1.0781
  285MOL0     H38411   1.343   5.793   7.591  0.0013 -1.1179 -3.4179
  285MOL0     H38412   1.597   5.652   7.642 -0.4715 -0.0071 -0.0131
  285MOL0     H38413   1.524   5.657   7.469 -1.4659 -1.1392 -0.0059
  285MOL0     H38414   1.499   5.909   7.499 -0.3793  3.0268  2.7500
  285MOL0     H38415   1.574   5.873   7.664 -0.9506 -0.0117  0.0821
  285MOL0     H38416   1.703   5.837   7.394 -1.4591  2.2094 -0.5888
  285MOL0     H38417   1.736   5.967   7.501 -0.0409 -0.0897 -1.3609
  285MOL0     H38418   1.826   5.781   7.673  2.1909  0.9192 -0.2774
  285MOL0     H38419   1.788   5.669   7.549 -0.1148 -0.8735  3.1999
  285MOL0     H38420   1.929   5.837   7.392 -2.0968 -0.1884  0.6684
  285MOL0     H38421   2.004   5.894   7.537 -0.2383  0.2712  0.1749
  285MOL0     H38422   2.029   5.609   7.436 -0.1158 -1.3285  1.9790
  285MOL0     H38423   2.157   5.733   7.440  0.7996 -1.0648  1.7373
  285MOL0     H38424   2.165   5.571   7.632 -0.9913 -1.3666  0.2075
  285MOL0     H38425   2.003   5.622   7.680 -0.6366  0.4010 -3.2819
  285MOL0     H38426   2.334   5.769   7.585 -0.7136 -2.1105  1.3211
  285MOL0     H38427   2.497   5.953   7.634 -0.0652  1.9206 -1.7967
  285MOL0     H38428   2.434   6.100   7.701 -0.8260 -0.7802 -4.7651
  285MOL0     H38429   2.631   5.974   7.832  0.1972  1.4767 -0.2394
  285MOL0     H38430   2.505   5.869   7.897 -1.6122  1.2128  0.5616
  285MOL0     H38431   2.382   6.059   7.965  0.2897 -5.6667 -3.4832
  285MOL0     H38432   2.524   6.177   7.932 -0.9629  0.1340  0.9688
  285MOL0     H38433   2.661   6.082   8.084 -0.5280  1.2954 -3.0400
  285MOL0     H38434   2.557   5.931   8.102  0.4304  0.2775  0.0452
  285MOL0     H38435   2.369   6.323   8.219 -0.8423 -5.6599 -1.8046
  285MOL0     H38436   2.348   6.529   8.295  0.7859 -2.5993 -0.5906
  285MOL0     H38437   2.369   6.530   8.470  0.2222  0.8433 -0.8394
  285MOL0     H38438   2.463   6.631   8.355 -1.4841  0.8775 -1.6153
  285MOL0     H38439   2.538   6.549   8.833 -0.2913  0.7765  0.3710
  285MOL0     H38440   2.589   6.666   9.036  0.2871 -0.6397  0.3582
  285MOL0     H38441   2.835   6.837   9.274 -1.4564  1.0759  1.5088
  285MOL0     H38442   2.682   6.795   9.189 -1.1313 -2.3394  0.0396
  285MOL0     H38443   2.688   6.614   9.329  0.4722  2.2101  0.0480
  285MOL0     H38444   2.816   6.541   9.225 -1.3368 -0.1332 -0.6152
  285MOL0     H38445   2.887   6.535   9.453 -0.3306  0.7321  1.6629
  285MOL0     H38446   2.865   6.703   9.476  1.5967  1.1763 -0.2794
  285MOL0     H38447   3.047   6.570   9.268  0.7176  1.5824 -1.2461
  285MOL0     H38448   3.063   6.740   9.304  4.8103 -0.2152  1.6647
  285MOL0     H38449   3.112   6.677   9.545 -0.3151 -1.4977  0.9036
  285MOL0     H38450   3.226   6.645   9.421 -0.0302  2.3846  1.9812
  285MOL0     H38451   3.233   6.455   9.564 -1.3370 -0.8991  1.1257
  285MOL0     H38452   3.057   6.441   9.574 -2.0040 -0.9632 -2.4648
  285MOL0     H38453   3.043   6.378   9.329  0.6359  0.5759  0.3992
  285MOL0     H38454   3.112   6.257   9.425 -0.1421  0.6201  0.8059
  285MOL0     H38455   3.274   6.449   9.267 -0.4228 -0.7909 -0.6172
  285MOL0     H38456   3.256   6.284   9.225  1.2540 -1.5629  0.4546
  285MOL0     H38457   3.001   6.676   8.918  1.2813 -3.5710 -0.8798
  285MOL0     H38458   2.955   6.522   8.717 -1.1206 -0.2697 -1.3259
  285MOL0     H38459   2.782   6.251   8.490 -1.1909 -1.9740  0.2030
  285MOL0     H38460   2.699   6.080   8.314  1.3934 -0.4248  1.2067
  285MOL0     H38461   1.146   5.777   7.695  1.2619 -2.6515 -0.3814
  285MOL0     H38462   0.918   5.727   7.819 -0.8137 -1.9058  0.1382
  285MOL0     H38463   0.629   5.608   8.099  0.8636 -1.5321 -2.1633
  285MOL0     H38464   0.429   5.541   8.225 -0.0855 -2.0385 -1.2693
  285MOL0     H38465   0.397   5.169   8.420  1.8621  0.4558 -0.1398
  285MOL0     H38466   0.471   5.269   8.549  1.2787 -1.5535 -1.0573
  285MOL0     H38467   0.214   5.377   8.563 -2.0676 -0.9523  4.6564
  285MOL0     H38468   0.257   5.240   8.658 -4.0224  2.0143  1.4085
  285MOL0     H38469   0.166   5.098   8.454 -0.3566  0.6494 -2.4219
  285MOL0     H38470   0.116   5.260   8.394 -2.5463 -1.3759  0.0253
  285MOL0     H38471  -0.071   5.252   8.525  0.9093  2.7759  2.8087
  285MOL0     H38472   0.022   5.226   8.661  1.9857 -1.5528  0.3520
  285MOL0     H38473  -0.116   4.830   8.562 -0.9802  1.6918  1.9117
  285MOL0     H38474   0.614   5.215   8.403 -0.9725 -0.1618 -0.8035
  285MOL0     H38475   0.814   5.247   8.279 -0.0273 -0.4031 -2.3506
  286MOL0     O38476   2.441   6.935   0.941 -0.1801 -0.0786 -0.3132
  286MOL0     C38477   2.516   6.979   1.032 -0.3818 -0.8063 -0.5199
  286MOL0     O38478   2.510   7.106   1.087  0.0766 -0.0742 -0.3323
  286MOL0     C38479   2.390   7.175   1.090 -0.0328  0.7565  0.0021
  286MOL0     C38480   2.277   7.120   1.147  0.3672 -0.3909  0.4282
  286MOL0     C38481   2.156   7.187   1.130  0.0767  0.5252 -0.3732
  286MOL0     C38482   2.151   7.311   1.063  0.0375  0.0947 -0.7527
  286MOL0     O38483   2.019   7.357   1.049  0.4513  0.1525  0.0114
  286MOL0     C38484   2.008   7.482   0.997  0.2230  0.6075 -0.0376
  286MOL0     C38485   1.876   7.511   0.938 -0.3979 -0.3763  0.1922
  286MOL0     C38486   1.824   7.397   0.849  0.0333 -0.0402  0.2062
  286MOL0     C38487   1.700   7.443   0.769  1.0369  0.5958 -0.0424
  286MOL0     C38488   1.583   7.427   0.863 -1.0669  0.6117 -0.1257
  286MOL0     C38489   1.461   7.499   0.800 -0.2549  0.2281  0.5526
  286MOL0     C38490   1.334   7.442   0.859  0.2793  0.2416 -0.3026
  286MOL0     C38491   1.218   7.509   0.796 -0.4076  0.6095  0.5084
  286MOL0     N38492   1.091   7.439   0.807 -0.2733  0.5503 -0.0987
  286MOL0     C38493   0.995   7.459   0.900  0.0991  0.1343  0.0035
  286MOL0     C38494   0.906   7.358   0.875  0.2897  0.3556 -0.3659
  286MOL0     C38495   0.774   7.341   0.944 -0.3735 -0.8109 -0.1919
  286MOL0     C38496   0.784   7.236   1.053  0.0500  0.4300  0.3521
  286MOL0     C38497   0.657   7.220   1.136  0.5358  0.0343 -0.2371
  286MOL0     C38498   0.638   7.081   1.198 -0.0995 -0.4157  0.2357
  286MOL0     O38499   0.524   7.071   1.286  0.5353 -0.1409 -0.1186
  286MOL0     C38500   0.410   7.041   1.227 -0.6436  0.5748 -0.1542
  286MOL0     C38501   0.399   6.934   1.133 -0.2106  0.0567 -1.0820
  286MOL0     C38502   0.284   6.909   1.059 -0.4469 -0.9637  0.3618
  286MOL0     C38503   0.310   6.802   0.953  0.1340 -0.4404 -0.7572
  286MOL0     C38504   0.165   6.988   1.086 -0.1791 -0.4064  1.0147
  286MOL0     C38505   0.039   6.980   1.011  0.8701  0.1803  0.0956
  286MOL0     O38506  -0.060   7.065   1.049  0.3592 -0.6547 -0.0327
  286MOL0     C38507  -0.178   7.049   0.982 -0.0401 -0.9571  0.2972
  286MOL0     C38508  -0.194   7.087   0.845  0.9125  0.3189  0.6828
  286MOL0     C38509  -0.321   7.074   0.783 -0.5640 -0.2848 -0.7105
  286MOL0     C38510  -0.429   7.014   0.855  0.2434  0.8835  0.2064
  286MOL0     O38511  -0.557   6.992   0.816 -0.2890  0.7804 -0.6450
  286MOL0     C38512  -0.611   7.053   0.701  0.5724  0.2322 -0.5616
  286MOL0     C38513  -0.741   6.995   0.651 -0.2952 -0.7323  0.4140
  286MOL0     C38514  -0.851   6.981   0.750  1.4619 -0.1574  0.5859
  286MOL0     C38515  -0.983   6.912   0.702 -0.4821  0.6708 -0.5276
  286MOL0     C38516  -1.086   6.888   0.824  0.1828  0.5237 -0.2773
  286MOL0     C38517  -1.196   6.796   0.777  0.2163 -0.5144  0.3512
  286MOL0     C38518  -1.262   6.712   0.888  0.5674  0.1874  0.1726
  286MOL0     C38519  -1.319   6.581   0.827  0.3532 -0.2738  0.2234
  286MOL0    Cl38520  -1.465   6.646   0.738 -0.4831  0.0032 -0.0861
  286MOL0     C38521  -0.409   6.964   0.979 -0.1929  0.1141 -0.5744
  286MOL0     C38522  -0.287   6.982   1.045 -0.4051  0.5468  0.6596
  286MOL0     O38523   0.027   6.897   0.917  0.2227  0.4563 -0.6936
  286MOL0     C38524   0.183   7.093   1.175 -0.3406 -0.4293 -0.3255
  286MOL0     C38525   0.300   7.119   1.243 -0.4409 -0.6753 -0.2855
  286MOL0     N38526   0.947   7.282   0.773 -1.1834 -0.1348  0.9169
  286MOL0     N38527   1.057   7.334   0.733 -0.2420 -0.2050 -0.2173
  286MOL0     C38528   2.264   7.369   1.007 -0.2639 -0.1928  0.5418
  286MOL0     C38529   2.384   7.293   1.020  0.6520 -0.2830  1.0571
  286MOL0     C38530   2.629   6.906   1.079 -0.3746 -0.2221 -0.2051
  286MOL0     C38531   2.705   6.828   0.994  0.4305  0.8613  0.3115
  286MOL0     C38532   2.827   6.765   1.039 -0.5554  0.6045 -0.6469
  286MOL0     C38533   2.868   6.783   1.176  0.2452 -0.2788  0.0015
  286MOL0     O38534   2.986   6.746   1.234  0.7272 -0.2161 -0.4410
  286MOL0     C38535   3.059   6.645   1.157  0.8264  0.2292  0.3257
  286MOL0     C38536   3.201   6.615   1.226  0.2719 -1.2312 -0.1005
  286MOL0     C38537   3.285   6.735   1.224 -0.7174 -0.4476 -0.0685
  286MOL0     C38538   3.426   6.695   1.279  0.9240  0.1789  0.0457
  286MOL0     C38539   3.492   6.816   1.316  0.9204 -1.3988 -0.0006
  286MOL0     C38540   3.558   6.911   1.348  0.5199  1.0962 -0.0506
  286MOL0     C38541   2.788   6.868   1.251 -0.8235 -0.7540 -0.0573
  286MOL0     C38542   2.675   6.930   1.208  0.8776  0.1921 -1.0764
  286MOL0     H38543   2.281   7.023   1.197 -2.7431 -0.7559  0.1534
  286MOL0     H38544   2.064   7.145   1.171 -1.0536  3.0604 -0.0886
  286MOL0     H38545   2.029   7.559   1.071  1.2216 -1.9406  2.5254
  286MOL0     H38546   2.075   7.482   0.910  1.0855 -3.3435  0.4154
  286MOL0     H38547   1.816   7.519   1.030 -1.4232  0.2360 -0.5109
  286MOL0     H38548   1.877   7.602   0.878  4.2036 -0.8319 -0.7801
  286MOL0     H38549   1.899   7.361   0.778 -0.7352 -1.0849 -0.0962
  286MOL0     H38550   1.807   7.306   0.907  0.6091  0.3648  1.0415
  286MOL0     H38551   1.704   7.550   0.745  1.1746  0.8334  0.9950
  286MOL0     H38552   1.674   7.385   0.680 -2.3678  1.0828  0.4948
  286MOL0     H38553   1.574   7.319   0.879 -1.2928  1.0348  3.4705
  286MOL0     H38554   1.601   7.472   0.961  2.2227  3.2998 -1.7708
  286MOL0     H38555   1.460   7.609   0.800 -0.5227  0.2651 -1.5798
  286MOL0     H38556   1.457   7.465   0.696  1.9028 -0.5109  0.6662
  286MOL0     H38557   1.334   7.334   0.842 -1.6850  0.1964 -0.2113
  286MOL0     H38558   1.338   7.458   0.967  2.1139  2.5387 -0.6111
  286MOL0     H38559   1.248   7.548   0.698 -1.2018  1.2757  0.5178
  286MOL0     H38560   1.198   7.596   0.859  3.1489  1.6932  0.3897
  286MOL0     H38561   0.984   7.541   0.970 -2.3251  0.4173 -0.6222
  286MOL0     H38562   0.753   7.432   1.002  2.0778 -1.6196  2.1287
  286MOL0     H38563   0.705   7.320   0.861  2.0264 -2.1200 -2.0018
  286MOL0     H38564   0.861   7.263   1.126  1.0741  0.6279 -0.7673
  286MOL0     H38565   0.816   7.139   1.014 -2.9890 -0.3770 -0.4678
  286MOL0     H38566   0.572   7.239   1.070 -0.4563 -2.7305  0.1271
  286MOL0     H38567   0.657   7.281   1.228  0.8353 -2.4165  1.4856
  286MOL0     H38568   0.724   7.061   1.263 -0.3523 -0.4449  0.5619
  286MOL0     H38569   0.636   7.006   1.118 -0.4318 -0.8326  0.6315
  286MOL0     H38570   0.491   6.883   1.109 -0.4895 -0.8261 -0.3483
  286MOL0     H38571   0.411   6.763   0.961  2.1962  4.0243 -1.7970
  286MOL0     H38572   0.229   6.728   0.961 -1.3608  1.1733 -0.2667
  286MOL0     H38573   0.313   6.853   0.857  0.4713 -0.2145 -0.6279
  286MOL0     H38574  -0.114   7.140   0.795 -1.1259  1.8729 -1.1501
  286MOL0     H38575  -0.333   7.115   0.684  0.6734  1.1053 -0.3172
  286MOL0     H38576  -0.619   7.162   0.713  0.8893  0.3719 -1.4926
  286MOL0     H38577  -0.533   7.035   0.626 -1.0608 -0.1182 -2.2649
  286MOL0     H38578  -0.780   7.057   0.570 -1.3636 -2.5070 -0.4985
  286MOL0     H38579  -0.724   6.894   0.613 -2.6499 -0.3323 -2.0556
  286MOL0     H38580  -0.864   7.086   0.776  1.1786 -0.1053  0.2362
  286MOL0     H38581  -0.824   6.927   0.841 -1.0378 -1.6526  0.5416
  286MOL0     H38582  -1.034   6.974   0.628  0.2504  2.2713  0.2575
  286MOL0     H38583  -0.967   6.813   0.659 -1.4257 -0.4421  1.5134
  286MOL0     H38584  -1.130   6.983   0.856 -1.4834 -0.1363 -0.5646
  286MOL0     H38585  -1.032   6.854   0.913 -0.6131  1.0659  0.4294
  286MOL0     H38586  -1.279   6.846   0.727  1.2595 -0.8703 -1.8412
  286MOL0     H38587  -1.150   6.740   0.695  0.6668  2.0206 -1.2472
  286MOL0     H38588  -1.329   6.775   0.946 -1.4705  0.1926 -2.0568
  286MOL0     H38589  -1.183   6.676   0.956 -1.5173  1.6099  3.5819
  286MOL0     H38590  -1.353   6.514   0.907 -0.2034 -0.4209 -0.1330
  286MOL0     H38591  -1.259   6.525   0.755 -1.6111 -0.7253 -1.1322
  286MOL0     H38592  -0.483   6.903   1.030 -2.1959  0.2266 -3.1494
  286MOL0     H38593  -0.267   6.939   1.143 -0.1969 -0.4978  0.1707
  286MOL0     H38594   0.115   7.177   1.184  1.0315  0.6669  0.1555
  286MOL0     H38595   0.298   7.214   1.295  0.5409 -0.8416  0.0779
  286MOL0     H38596   2.266   7.467   0.960  1.6012 -0.8848 -0.9654
  286MOL0     H38597   2.473   7.340   0.981  0.2645  1.4236  2.1112
  286MOL0     H38598   2.659   6.787   0.905 -1.7857 -4.9466  3.5679
  286MOL0     H38599   2.874   6.692   0.974  1.3653  0.1819  1.0993
  286MOL0     H38600   3.002   6.552   1.151 -1.5741  1.6933 -0.8891
  286MOL0     H38601   3.076   6.681   1.055 -0.2467 -0.4391 -0.0963
  286MOL0     H38602   3.259   6.542   1.169 -0.0187 -2.3174  0.9563
  286MOL0     H38603   3.196   6.595   1.333  0.4133  1.4641  0.4782
  286MOL0     H38604   3.235   6.804   1.293 -0.3217 -1.6027  1.4557
  286MOL0     H38605   3.286   6.788   1.129  3.8719  2.2083  1.1241
  286MOL0     H38606   3.481   6.642   1.200 -1.6506  0.4317 -2.0688
  286MOL0     H38607   3.424   6.637   1.371  1.8144 -0.8384 -0.5519
  286MOL0     H38608   3.629   6.989   1.367 -1.6303  3.5456 -1.3887
  286MOL0     H38609   2.801   6.883   1.357 -0.6316 -1.0453 -0.0404
  286MOL0     H38610   2.637   7.006   1.276  3.0846  2.0304 -1.7346
  287MOL0     O38611   8.404   3.274   5.691  0.0371  0.1329 -0.8889
  287MOL0     C38612   8.396   3.393   5.666  0.2842  0.4242  0.0476
  287MOL0     O38613   8.285   3.470   5.642 -0.9689  0.5336  0.0045
  287MOL0     C38614   8.159   3.423   5.643 -0.5275 -0.8595  0.0121
  287MOL0     C38615   8.120   3.318   5.729 -0.5057  0.3816  0.4488
  287MOL0     C38616   7.979   3.285   5.731 -0.5875  0.6558 -0.2917
  287MOL0     C38617   7.886   3.360   5.663 -0.0140 -0.4378  0.5044
  287MOL0     O38618   7.753   3.322   5.687 -0.4318 -0.1699 -0.1098
  287MOL0     C38619   7.656   3.426   5.670  0.1223  0.4099  0.3188
  287MOL0     C38620   7.523   3.394   5.741 -0.3274 -0.1272 -0.0869
  287MOL0     C38621   7.542   3.388   5.896 -0.8147  0.9197  1.0195
  287MOL0     C38622   7.414   3.392   5.985  0.2849 -1.0638 -0.7977
  287MOL0     C38623   7.346   3.536   5.989 -0.5718 -0.8056  0.6836
  287MOL0     C38624   7.236   3.561   6.100  0.4902  1.1499  0.2514
  287MOL0     C38625   7.203   3.710   6.117  0.3389  0.0119 -0.1900
  287MOL0     C38626   7.069   3.717   6.197 -0.9184 -1.2692 -0.7892
  287MOL0     N38627   7.076   3.662   6.336 -0.6332  0.6936  0.8470
  287MOL0     C38628   7.153   3.718   6.442  0.9593 -0.8301  1.0174
  287MOL0     C38629   7.082   3.678   6.548 -0.0628 -0.4498  0.2155
  287MOL0     C38630   7.094   3.716   6.688  0.3000  0.3454 -0.2514
  287MOL0     C38631   7.217   3.676   6.769  0.0451  0.6898  0.6411
  287MOL0     C38632   7.224   3.761   6.894  0.7311 -0.0748 -0.3408
  287MOL0     C38633   7.167   3.704   7.019 -0.3434 -0.4619  0.0634
  287MOL0     O38634   7.048   3.633   6.992  0.3909 -0.1838  0.0275
  287MOL0     C38635   6.931   3.697   7.014  0.4970 -0.3773  0.3526
  287MOL0     C38636   6.825   3.618   7.052 -0.2273  0.5438 -0.6617
  287MOL0     C38637   6.701   3.664   7.076  0.5870 -0.0867  0.8545
  287MOL0     C38638   6.608   3.556   7.109 -0.2767 -0.4502 -0.9726
  287MOL0     C38639   6.665   3.804   7.057  0.5319 -0.1625  0.0379
  287MOL0     C38640   6.528   3.866   7.068 -1.0170 -0.4267  0.1782
  287MOL0     O38641   6.421   3.806   6.995 -0.1227  0.5935 -0.1507
  287MOL0     C38642   6.290   3.846   7.014  0.0330  0.1817  0.2151
  287MOL0     C38643   6.204   3.818   6.909 -0.3275 -0.6039  0.6280
  287MOL0     C38644   6.066   3.852   6.908 -0.1709 -0.6838  0.1346
  287MOL0     C38645   6.020   3.928   7.016 -0.1284 -0.6780 -0.3599
  287MOL0     O38646   5.898   3.989   7.021  0.3930  0.5349  0.7546
  287MOL0     C38647   5.789   3.943   6.933 -0.0556 -0.0065 -0.5751
  287MOL0     C38648   5.661   4.009   6.977  1.5430  0.1654 -0.4885
  287MOL0     C38649   5.598   4.099   6.870  0.0163  0.7355  0.4368
  287MOL0     C38650   5.492   4.199   6.921  0.1370  0.0327  0.0634
  287MOL0     C38651   5.405   4.247   6.807  1.1190 -0.1053  0.2067
  287MOL0     C38652   5.299   4.356   6.865 -0.2125 -0.0521  0.2548
  287MOL0     C38653   5.320   4.505   6.827 -0.6632 -0.2406  0.2495
  287MOL0     C38654   5.446   4.568   6.868 -0.3310 -0.5665  0.7177
  287MOL0    Cl38655   5.460   4.574   7.045  0.0018 -0.4083  0.0186
  287MOL0     C38656   6.106   3.965   7.115 -0.1558 -0.1626  0.0078
  287MOL0     C38657   6.235   3.923   7.115  0.3807 -0.1888 -0.2556
  287MOL0     O38658   6.531   3.959   7.150 -0.8416 -0.0078  0.1417
  287MOL0     C38659   6.776   3.883   7.023  0.8016 -1.3451  0.3535
  287MOL0     C38660   6.906   3.832   6.994 -0.2717  0.3380  0.3782
  287MOL0     N38661   6.978   3.587   6.511 -0.8045  0.0566 -0.0799
  287MOL0     N38662   6.983   3.575   6.384 -1.0056 -0.1483 -0.3619
  287MOL0     C38663   7.916   3.461   5.574  0.4907 -0.0009 -0.5299
  287MOL0     C38664   8.057   3.502   5.574 -0.4922 -0.5491 -0.7153
  287MOL0     C38665   8.526   3.468   5.673 -1.0939 -0.2359  1.1134
  287MOL0     C38666   8.644   3.397   5.679  0.2986  0.1661 -0.1356
  287MOL0     C38667   8.765   3.466   5.671  0.3077  0.6412 -1.6551
  287MOL0     C38668   8.773   3.605   5.669 -0.5825 -0.4211  0.7535
  287MOL0     O38669   8.897   3.663   5.649  0.1850 -0.2207  0.1180
  287MOL0     C38670   8.911   3.804   5.681  0.6440  0.3608  0.5414
  287MOL0     C38671   9.057   3.838   5.687 -0.1217 -0.3882 -0.1747
  287MOL0     C38672   9.079   3.983   5.719 -0.6951 -0.4194  0.2376
  287MOL0     C38673   9.066   4.000   5.867  0.4646 -0.5149 -0.9974
  287MOL0     C38674   9.177   3.950   5.957  0.2609  0.2793  0.0504
  287MOL0     C38675   9.275   3.915   6.024 -1.2928 -0.4318  1.2167
  287MOL0     C38676   8.653   3.674   5.650 -0.0674  0.2437  0.5283
  287MOL0     C38677   8.526   3.610   5.666  0.1280 -1.3631  0.3712
  287MOL0     H38678   8.188   3.266   5.795  1.4764  2.6552  0.3166
  287MOL0     H38679   7.936   3.211   5.797 -3.2985  2.2570 -0.0880
  287MOL0     H38680   7.701   3.519   5.707  1.4749  0.2887 -0.9157
  287MOL0     H38681   7.633   3.430   5.563  0.3281  0.6922  0.2834
  287MOL0     H38682   7.443   3.468   5.726 -3.3434 -1.8842  4.8713
  287MOL0     H38683   7.496   3.293   5.710 -1.4686 -0.7542  2.6998
  287MOL0     H38684   7.601   3.298   5.914 -0.3437  0.8160 -0.8187
  287MOL0     H38685   7.602   3.476   5.923  0.2779  0.4262  0.2742
  287MOL0     H38686   7.335   3.316   5.979 -2.1910  1.1486  1.3491
  287MOL0     H38687   7.452   3.375   6.086 -1.5332 -0.5394  0.0099
  287MOL0     H38688   7.427   3.609   5.995 -1.0795 -0.0965 -0.6112
  287MOL0     H38689   7.295   3.557   5.895 -2.9072  0.3940  2.1071
  287MOL0     H38690   7.150   3.502   6.067  2.9334 -0.7169 -3.3733
  287MOL0     H38691   7.272   3.528   6.198  1.6870  2.2707  0.2135
  287MOL0     H38692   7.286   3.752   6.175 -1.8339 -0.8243  3.8939
  287MOL0     H38693   7.201   3.765   6.023 -1.4962  2.5190  1.1997
  287MOL0     H38694   6.991   3.669   6.137  0.4473 -4.0176 -0.4988
  287MOL0     H38695   7.042   3.822   6.213  1.3001 -0.8830  1.0209
  287MOL0     H38696   7.230   3.794   6.441  0.9224 -0.7908  1.1482
  287MOL0     H38697   7.077   3.823   6.700  1.4866  0.2941  2.6527
  287MOL0     H38698   7.006   3.674   6.738  0.7992  1.0805  1.2903
  287MOL0     H38699   7.309   3.678   6.711  1.1436  1.4009  2.3179
  287MOL0     H38700   7.201   3.571   6.796 -0.8717  0.6101 -0.1558
  287MOL0     H38701   7.183   3.861   6.874 -2.0274 -1.5892 -3.3813
  287MOL0     H38702   7.331   3.772   6.914  0.3602  2.7436  0.6130
  287MOL0     H38703   7.166   3.775   7.102 -1.2670  1.5792 -1.6085
  287MOL0     H38704   7.241   3.632   7.056 -0.2733 -0.7063 -0.5226
  287MOL0     H38705   6.839   3.510   7.051  1.7377  0.7523 -0.0106
  287MOL0     H38706   6.503   3.586   7.114 -0.6957 -1.6759 -1.8298
  287MOL0     H38707   6.614   3.490   7.021  0.8397  1.6263 -2.5459
  287MOL0     H38708   6.636   3.493   7.194  0.0748 -0.1099 -0.8340
  287MOL0     H38709   6.254   3.764   6.829  0.5826  1.3178 -0.1511
  287MOL0     H38710   6.001   3.814   6.830 -0.1538 -0.4974  0.0270
  287MOL0     H38711   5.811   3.970   6.829 -0.4493 -1.5766 -1.1002
  287MOL0     H38712   5.778   3.835   6.927  1.1127 -0.0706 -2.3841
  287MOL0     H38713   5.587   3.930   6.996  3.7222 -1.7846  0.4385
  287MOL0     H38714   5.673   4.052   7.077 -0.9944 -0.7770  0.3295
  287MOL0     H38715   5.559   4.038   6.789 -0.4608  2.2716 -0.5244
  287MOL0     H38716   5.680   4.151   6.819  1.2309 -2.4722 -1.1248
  287MOL0     H38717   5.431   4.146   6.995  0.1880 -1.5498 -0.9919
  287MOL0     H38718   5.535   4.292   6.960  0.6024  1.0452 -2.6833
  287MOL0     H38719   5.355   4.160   6.764  1.4744 -0.7616  1.0744
  287MOL0     H38720   5.472   4.280   6.727 -1.3359  2.1072 -1.0739
  287MOL0     H38721   5.202   4.320   6.830 -1.3888  3.4942 -0.4990
  287MOL0     H38722   5.304   4.354   6.974  1.8250 -3.4540  0.2474
  287MOL0     H38723   5.237   4.568   6.858  2.1233  3.3149  1.1033
  287MOL0     H38724   5.318   4.509   6.718 -0.4391  1.4086  0.2908
  287MOL0     H38725   5.459   4.671   6.833  2.0307 -0.3742  1.9056
  287MOL0     H38726   5.527   4.510   6.823  0.8023  0.3129  1.5510
  287MOL0     H38727   6.081   4.028   7.199  0.7331 -0.0656  0.2082
  287MOL0     H38728   6.303   3.948   7.196  2.3929 -1.7566 -1.3477
  287MOL0     H38729   6.757   3.990   7.017 -3.6608 -1.9349  0.1440
  287MOL0     H38730   6.980   3.895   6.945  0.3390 -2.2020 -2.2279
  287MOL0     H38731   7.844   3.518   5.516 -0.9976 -1.8332 -0.5906
  287MOL0     H38732   8.079   3.592   5.518 -1.4698 -0.1435 -0.4623
  287MOL0     H38733   8.658   3.289   5.681 -0.0294  0.0555 -2.0924
  287MOL0     H38734   8.857   3.410   5.684 -1.4239 -2.2860 -1.1719
  287MOL0     H38735   8.884   3.851   5.587  2.6743  3.1049  1.1923
  287MOL0     H38736   8.857   3.844   5.768  1.6860  0.2165  1.2854
  287MOL0     H38737   9.100   3.811   5.591 -2.7657 -0.4339 -1.4274
  287MOL0     H38738   9.111   3.771   5.755 -2.5932 -3.6705 -1.2406
  287MOL0     H38739   9.012   4.045   5.660  2.4218  2.5337 -0.5338
  287MOL0     H38740   9.180   4.020   5.697 -0.8605  1.3848  2.1821
  287MOL0     H38741   8.965   3.965   5.891 -0.1284  0.1608 -2.3818
  287MOL0     H38742   9.048   4.100   5.907  0.1744 -2.2009  3.7845
  287MOL0     H38743   9.353   3.901   6.095 -0.6694 -2.5300  0.2077
  287MOL0     H38744   8.657   3.782   5.644 -1.2024  0.2866  0.4124
  287MOL0     H38745   8.432   3.664   5.672  0.6173  0.0499 -2.5870
  288MOL0     O38746  10.373   1.428   9.235 -0.2647  0.4862  0.3399
  288MOL0     C38747  10.418   1.377   9.131  0.0796  0.6597  0.3674
  288MOL0     O38748  10.435   1.243   9.116  0.3019 -0.0134  0.5188
  288MOL0     C38749  10.387   1.156   9.211  0.1216  0.8163 -0.3721
  288MOL0     C38750  10.248   1.145   9.235 -0.4543  0.6988 -0.0747
  288MOL0     C38751  10.192   1.046   9.327 -0.1306 -0.6964 -0.8793
  288MOL0     C38752  10.285   0.949   9.383  0.0212 -0.5202  0.5048
  288MOL0     O38753  10.239   0.837   9.442  0.1832  0.3232  0.0190
  288MOL0     C38754  10.099   0.810   9.494  0.5894 -0.0049 -0.1260
  288MOL0     C38755  10.093   0.675   9.562  0.7747 -0.4744 -0.9259
  288MOL0     C38756  10.083   0.556   9.468  0.7104 -0.1409  0.5301
  288MOL0     C38757  10.063   0.427   9.541 -0.3401  0.1283  0.2381
  288MOL0     C38758  10.179   0.393   9.636  0.4969  0.1654 -0.3621
  288MOL0     C38759  10.133   0.411   9.785  0.4959  0.0364 -0.6903
  288MOL0     C38760  10.201   0.324   9.880 -0.3255  0.3641  0.2322
  288MOL0     C38761  10.136   0.352  10.017  0.2719 -0.2912  0.2651
  288MOL0     N38762  10.195   0.311  10.149 -0.6666  0.0998  0.6173
  288MOL0     C38763  10.330   0.313  10.168 -1.3561  0.8209  0.2617
  288MOL0     C38764  10.341   0.274  10.297 -0.0714  0.1538  0.3242
  288MOL0     C38765  10.456   0.256  10.388 -0.3244  0.2289  0.4991
  288MOL0     C38766  10.573   0.194  10.311  0.1099 -0.1270  0.3499
  288MOL0     C38767  10.546   0.048  10.271 -0.1195 -0.2245  0.0935
  288MOL0     C38768  10.599   0.013  10.138  0.3634 -0.6414 -0.3413
  288MOL0     O38769  10.536   0.080  10.030 -0.0965  0.4218  0.5093
  288MOL0     C38770  10.564   0.033   9.898  1.0331  0.4848 -0.5834
  288MOL0     C38771  10.623  -0.090   9.862  0.3195  0.5533 -0.3407
  288MOL0     C38772  10.650  -0.120   9.724 -0.5987 -0.1417 -0.4007
  288MOL0     C38773  10.716  -0.254   9.694 -0.3965  0.1587  0.2912
  288MOL0     C38774  10.620  -0.025   9.627  0.4064 -0.5233  0.4655
  288MOL0     C38775  10.644  -0.048   9.483  0.0689  0.2797 -0.7465
  288MOL0     O38776  10.645   0.068   9.399  0.5142 -0.5509  0.1355
  288MOL0     C38777  10.719   0.067   9.279 -0.1858 -0.3427 -0.0052
  288MOL0     C38778  10.819  -0.031   9.251  0.0318 -0.7003  0.2375
  288MOL0     C38779  10.882  -0.029   9.128 -0.4777 -0.0469 -0.7936
  288MOL0     C38780  10.860   0.068   9.032 -0.2397 -0.2568 -0.6434
  288MOL0     O38781  10.935   0.094   8.915  0.2022 -0.3641  0.6511
  288MOL0     C38782  11.058   0.016   8.897  0.3866 -0.1626 -0.4488
  288MOL0     C38783  11.124   0.089   8.765  0.2545  0.0873 -0.2028
  288MOL0     C38784  11.247   0.182   8.801  0.5423 -0.3902 -0.1020
  288MOL0     C38785  11.357   0.180   8.702  0.4268  0.2838 -0.1411
  288MOL0     C38786  11.470   0.274   8.746  0.3432 -0.3475 -0.0454
  288MOL0     C38787  11.571   0.295   8.630 -0.7264  0.8245  0.1573
  288MOL0     C38788  11.529   0.426   8.550 -0.2509  0.5354 -0.6154
  288MOL0     C38789  11.600   0.542   8.603  0.1227 -0.5297 -0.0318
  288MOL0    Cl38790  11.533   0.689   8.529  0.1024  0.3264  0.2507
  288MOL0     C38791  10.751   0.159   9.052 -1.0573 -0.0513 -0.3388
  288MOL0     C38792  10.681   0.150   9.172  0.0429 -0.5706 -0.1007
  288MOL0     O38793  10.655  -0.164   9.439  0.3930  0.4518 -0.2004
  288MOL0     C38794  10.562   0.101   9.662 -0.3989 -0.7938 -0.4256
  288MOL0     C38795  10.540   0.129   9.798 -0.0114  0.3383 -0.4272
  288MOL0     N38796  10.214   0.256  10.343 -0.4542 -0.2456 -0.0938
  288MOL0     N38797  10.126   0.265  10.257 -0.4145  0.8115 -0.7783
  288MOL0     C38798  10.425   0.958   9.346 -0.1091 -0.5845 -0.7569
  288MOL0     C38799  10.475   1.056   9.264  0.1401 -0.3770 -0.1794
  288MOL0     C38800  10.476   1.487   9.044 -0.9434  0.7683 -0.0516
  288MOL0     C38801  10.466   1.628   9.071  0.5635 -0.0541 -0.0520
  288MOL0     C38802  10.546   1.723   9.002  0.0581  0.3403 -0.4563
  288MOL0     C38803  10.619   1.690   8.890 -0.0296  0.5272 -0.0472
  288MOL0     O38804  10.693   1.779   8.828 -0.0543  0.0945  0.2001
  288MOL0     C38805  10.830   1.775   8.863 -0.5219  0.3049  0.0684
  288MOL0     C38806  10.895   1.893   8.800 -0.2962  0.8482 -0.6705
  288MOL0     C38807  11.032   1.920   8.856 -0.9816  0.5402  0.0747
  288MOL0     C38808  11.133   1.816   8.846  0.5537  0.1301 -0.1104
  288MOL0     C38809  11.139   1.706   8.938  0.9144  0.2967 -0.5125
  288MOL0     C38810  11.109   1.605   9.004  1.0257  0.1728  0.4594
  288MOL0     C38811  10.613   1.556   8.849 -0.9183  0.0931 -0.0426
  288MOL0     C38812  10.564   1.455   8.931  0.3841  0.2397 -0.0225
  288MOL0     H38813  10.177   1.208   9.182 -2.2432 -1.6192 -0.5907
  288MOL0     H38814  10.086   1.031   9.342  0.1151 -1.7652 -0.1338
  288MOL0     H38815  10.078   0.882   9.573  0.4598  0.0918 -0.2505
  288MOL0     H38816  10.026   0.811   9.413  2.6283 -0.1573 -2.0785
  288MOL0     H38817  10.187   0.663   9.617  0.3201  0.3453  0.0469
  288MOL0     H38818  10.005   0.671   9.627  0.6047  0.8946 -1.0517
  288MOL0     H38819  10.006   0.580   9.395  2.2691  1.0314 -0.8085
  288MOL0     H38820  10.170   0.549   9.402 -0.9665  0.3028 -1.8428
  288MOL0     H38821   9.967   0.435   9.592  1.2467 -3.0715  4.3339
  288MOL0     H38822  10.054   0.350   9.463  0.8325  0.6086 -0.4025
  288MOL0     H38823  10.211   0.290   9.617  1.1594  0.2382  0.2857
  288MOL0     H38824  10.262   0.461   9.615 -0.0653  0.9856 -0.0097
  288MOL0     H38825  10.159   0.512   9.819  0.5324  0.4224 -1.8319
  288MOL0     H38826  10.026   0.385   9.786  0.3171  0.6818 -1.7443
  288MOL0     H38827  10.169   0.229   9.835 -1.4247  0.6693  0.3277
  288MOL0     H38828  10.309   0.339   9.889 -0.2420 -1.3914  3.0801
  288MOL0     H38829  10.037   0.305  10.014  0.1566 -0.1669  1.4908
  288MOL0     H38830  10.104   0.456  10.029  0.4329 -0.0779 -1.0171
  288MOL0     H38831  10.407   0.340  10.096 -2.0712  0.6563 -0.5801
  288MOL0     H38832  10.479   0.358  10.420 -0.4805  0.2458  0.5574
  288MOL0     H38833  10.436   0.187  10.470  0.3023  0.7453  1.1021
  288MOL0     H38834  10.662   0.189  10.375  0.6044 -1.9611 -0.4208
  288MOL0     H38835  10.598   0.255  10.224  0.6082  1.3756  1.5004
  288MOL0     H38836  10.438   0.030  10.270 -0.0217 -0.8868 -1.2814
  288MOL0     H38837  10.598  -0.015  10.343  2.8360  0.5551 -1.1730
  288MOL0     H38838  10.590  -0.096  10.137 -0.8716 -0.5694  0.9164
  288MOL0     H38839  10.707   0.032  10.135  0.9184 -2.7180  2.2627
  288MOL0     H38840  10.661  -0.151   9.944  0.9762  0.5846 -0.6146
  288MOL0     H38841  10.643  -0.329   9.665  0.9020 -1.3334  0.7349
  288MOL0     H38842  10.789  -0.225   9.618 -0.3177 -1.2124 -0.1657
  288MOL0     H38843  10.765  -0.300   9.780 -0.8005 -1.9321 -0.5491
  288MOL0     H38844  10.850  -0.101   9.328  2.4698 -0.4053 -0.3949
  288MOL0     H38845  10.961  -0.102   9.115  1.9491  2.1943  0.4085
  288MOL0     H38846  11.113   0.002   8.990 -1.5789 -1.7763  0.5548
  288MOL0     H38847  11.026  -0.085   8.866  3.5598 -0.8227 -2.0695
  288MOL0     H38848  11.164   0.008   8.703 -2.5081 -2.4409  1.0619
  288MOL0     H38849  11.041   0.148   8.724 -0.9354 -1.2752  0.1674
  288MOL0     H38850  11.293   0.144   8.893 -0.2417  0.4919  0.6760
  288MOL0     H38851  11.209   0.283   8.820 -0.5508 -0.9504  0.8354
  288MOL0     H38852  11.394   0.078   8.693  1.3832  0.7969 -3.2691
  288MOL0     H38853  11.321   0.205   8.601 -0.8241 -2.1482 -0.3724
  288MOL0     H38854  11.508   0.228   8.838 -2.9203 -1.7306  0.7393
  288MOL0     H38855  11.440   0.377   8.769  1.1845 -0.1240  0.1008
  288MOL0     H38856  11.677   0.304   8.656 -0.8594  0.0061  0.9887
  288MOL0     H38857  11.568   0.218   8.553 -2.0966  0.2959  0.7246
  288MOL0     H38858  11.421   0.445   8.553 -0.1073  1.3505 -0.2607
  288MOL0     H38859  11.549   0.417   8.443  0.3455  0.1160 -0.4718
  288MOL0     H38860  11.702   0.530   8.566 -0.2962 -1.3253 -0.9847
  288MOL0     H38861  11.607   0.548   8.712 -1.8881 -1.2034  0.1831
  288MOL0     H38862  10.730   0.237   8.980  1.6375  1.5532  0.4565
  288MOL0     H38863  10.583   0.197   9.178  0.4037  0.0189  1.5169
  288MOL0     H38864  10.541   0.182   9.592  0.3663 -0.7076 -0.5605
  288MOL0     H38865  10.493   0.223   9.825  1.5257  1.0272 -0.0897
  288MOL0     H38866  10.496   0.887   9.387  0.0731  0.3258  0.5598
  288MOL0     H38867  10.582   1.054   9.248  0.0934  1.6629 -1.1322
  288MOL0     H38868  10.406   1.662   9.155 -1.9775 -0.1385 -1.7410
  288MOL0     H38869  10.544   1.831   9.017 -0.4123 -0.0710  3.5026
  288MOL0     H38870  10.846   1.776   8.972 -1.4249 -3.7200  0.3847
  288MOL0     H38871  10.872   1.680   8.829  2.6361  1.8855 -0.9727
  288MOL0     H38872  10.837   1.983   8.822 -0.9483  0.4309 -0.6751
  288MOL0     H38873  10.909   1.885   8.691  3.8464 -0.4211 -0.2302
  288MOL0     H38874  11.017   1.960   8.957 -0.8580  4.5301 -1.3169
  288MOL0     H38875  11.077   2.012   8.818  0.1611 -0.3453 -0.7889
  288MOL0     H38876  11.231   1.865   8.841 -0.7161  2.7776 -0.8759
  288MOL0     H38877  11.113   1.767   8.750 -2.1681 -0.9072  0.9148
  288MOL0     H38878  11.086   1.522   9.068 -1.9313 -0.3712 -1.1470
  288MOL0     H38879  10.679   1.537   8.765  2.1012  2.0259  1.7074
  288MOL0     H38880  10.579   1.353   8.896  0.2879  0.7264 -1.5358
  289MOL0     O38881   6.353   6.431   7.697  0.0961  0.1896  0.6454
  289MOL0     C38882   6.387   6.522   7.622 -0.5602  0.3067 -0.4878
  289MOL0     O38883   6.361   6.652   7.643 -0.2153 -0.2117 -0.2080
  289MOL0     C38884   6.284   6.711   7.742 -0.8537 -0.2459  0.3358
  289MOL0     C38885   6.189   6.648   7.838 -0.4043  0.2433  0.4069
  289MOL0     C38886   6.107   6.723   7.918 -0.1762  1.1743  0.5183
  289MOL0     C38887   6.109   6.862   7.908 -0.0268  0.2485 -0.2103
  289MOL0     O38888   6.005   6.929   7.973 -0.7221 -0.7794 -0.1434
  289MOL0     C38889   5.930   7.021   7.892 -0.1209  0.6731  0.4821
  289MOL0     C38890   5.850   6.949   7.779  0.3843 -0.3464  0.4238
  289MOL0     C38891   5.750   7.041   7.700  0.0122  0.1188 -0.3533
  289MOL0     C38892   5.614   7.041   7.767  0.6812  0.0120 -1.5098
  289MOL0     C38893   5.524   7.112   7.666  0.5834  0.3620  0.0818
  289MOL0     C38894   5.376   7.094   7.696 -0.3119 -0.0638  0.8257
  289MOL0     C38895   5.316   6.950   7.662 -0.8167  0.6519  0.6342
  289MOL0     C38896   5.173   6.936   7.724 -0.6507 -0.3819  0.1809
  289MOL0     N38897   5.176   6.890   7.864 -0.2127  0.3161  0.4362
  289MOL0     C38898   5.125   6.773   7.911 -0.6505  0.1324  0.6594
  289MOL0     C38899   5.168   6.769   8.039  0.0577  0.2554 -0.5082
  289MOL0     C38900   5.141   6.650   8.135 -0.3266 -0.5783 -0.0947
  289MOL0     C38901   5.212   6.658   8.271  0.7318 -0.1645 -0.5355
  289MOL0     C38902   5.149   6.575   8.383 -0.1692  0.1675  1.2958
  289MOL0     C38903   5.044   6.649   8.473 -0.8304  0.0773  0.1488
  289MOL0     O38904   4.933   6.692   8.381 -0.0624  0.1276 -0.5056
  289MOL0     C38905   4.822   6.737   8.435  0.4655 -0.3366  1.0629
  289MOL0     C38906   4.798   6.724   8.566 -0.6621  0.1513  0.4714
  289MOL0     C38907   4.675   6.779   8.604 -0.4203 -0.8375 -0.1646
  289MOL0     C38908   4.644   6.767   8.758 -1.5575  0.0668  1.0660
  289MOL0     C38909   4.590   6.845   8.520 -0.1731 -0.4902  0.1169
  289MOL0     C38910   4.447   6.889   8.553 -0.4788 -0.3988 -0.3924
  289MOL0     O38911   4.374   6.938   8.444 -0.5211 -0.9707  0.2430
  289MOL0     C38912   4.261   7.013   8.466 -0.1447  0.4856 -0.6053
  289MOL0     C38913   4.138   6.947   8.467  0.3378  0.6119  1.0277
  289MOL0     C38914   4.020   7.017   8.458 -0.0150  1.2654 -0.7906
  289MOL0     C38915   4.018   7.151   8.457  0.4094 -0.3137 -0.0480
  289MOL0     O38916   3.894   7.211   8.448  0.5659  0.8323  0.6282
  289MOL0     C38917   3.892   7.358   8.445  0.3450  0.6518 -0.4767
  289MOL0     C38918   3.754   7.411   8.415 -0.2013  0.1572  1.2081
  289MOL0     C38919   3.647   7.406   8.521 -0.2457 -0.2231  1.0329
  289MOL0     C38920   3.525   7.482   8.477 -0.1284  0.4787  0.2493
  289MOL0     C38921   3.410   7.387   8.434  0.5867 -1.2485  0.7117
  289MOL0     C38922   3.278   7.475   8.425 -0.3540  0.1481  0.4184
  289MOL0     C38923   3.165   7.383   8.400  0.5169 -0.1501  0.3828
  289MOL0     C38924   3.020   7.439   8.402  0.5627 -0.5152  0.4945
  289MOL0    Cl38925   2.963   7.515   8.549 -0.3948  0.2225 -0.7244
  289MOL0     C38926   4.140   7.224   8.455 -0.0567 -0.8197 -0.9405
  289MOL0     C38927   4.258   7.157   8.465 -0.3258  1.6199 -0.5846
  289MOL0     O38928   4.399   6.883   8.671  0.0292 -0.1219  0.1223
  289MOL0     C38929   4.623   6.858   8.386 -0.1120 -1.0683  0.5369
  289MOL0     C38930   4.737   6.798   8.338  0.6089  0.0141  1.0231
  289MOL0     N38931   5.235   6.892   8.058  0.5155 -0.3795 -0.6958
  289MOL0     N38932   5.245   6.957   7.954 -0.2600 -0.0521 -0.4796
  289MOL0     C38933   6.211   6.929   7.828  0.3326  0.6888 -0.1307
  289MOL0     C38934   6.295   6.848   7.747  0.0397 -0.4641 -0.2696
  289MOL0     C38935   6.473   6.493   7.508 -0.6944 -0.6769  0.3696
  289MOL0     C38936   6.494   6.356   7.463 -0.1990  0.0066 -0.1156
  289MOL0     C38937   6.590   6.320   7.371  0.5713 -0.3663 -0.5761
  289MOL0     C38938   6.673   6.430   7.323  0.5564 -0.0510 -0.0732
  289MOL0     O38939   6.771   6.421   7.228  0.3066 -0.3386 -0.6177
  289MOL0     C38940   6.790   6.290   7.173 -1.1181 -0.7583 -1.2710
  289MOL0     C38941   6.909   6.302   7.079 -0.1919  0.4019 -0.4476
  289MOL0     C38942   6.961   6.163   7.047  0.5070  0.3613 -0.3296
  289MOL0     C38943   6.863   6.099   6.943  0.3517 -0.0585  0.5092
  289MOL0     C38944   6.843   5.947   6.942 -0.4208  0.0142 -0.0573
  289MOL0     C38945   6.857   5.830   6.956  0.1442 -0.1816  0.0661
  289MOL0     C38946   6.648   6.558   7.369 -0.0673 -0.6072 -0.7938
  289MOL0     C38947   6.543   6.598   7.452  0.1355 -0.9068  1.0269
  289MOL0     H38948   6.196   6.540   7.833  1.9824  0.3156  0.9519
  289MOL0     H38949   6.034   6.671   7.979  0.0884 -0.1652 -0.2884
  289MOL0     H38950   5.858   7.081   7.949 -0.5361 -0.0323  0.7140
  289MOL0     H38951   5.999   7.090   7.844 -0.0564 -0.3476 -0.9599
  289MOL0     H38952   5.916   6.909   7.701  0.7253  2.4490 -0.8457
  289MOL0     H38953   5.802   6.863   7.827 -0.6249 -0.0930 -0.1213
  289MOL0     H38954   5.789   7.144   7.701 -0.3840  0.2875 -1.4836
  289MOL0     H38955   5.744   7.001   7.599  0.9011  0.1899 -0.4495
  289MOL0     H38956   5.577   6.938   7.774  1.0674 -0.0096  1.1384
  289MOL0     H38957   5.616   7.080   7.869  2.4141 -1.3905 -0.9549
  289MOL0     H38958   5.555   7.217   7.667  0.8279  0.3198  2.2481
  289MOL0     H38959   5.533   7.067   7.567  1.8298 -0.4304  0.5321
  289MOL0     H38960   5.354   7.108   7.802 -1.1922 -4.0230  1.3124
  289MOL0     H38961   5.317   7.164   7.636 -0.3091  0.4607  1.4280
  289MOL0     H38962   5.297   6.948   7.554 -1.0641  0.5427  0.6795
  289MOL0     H38963   5.385   6.873   7.700  0.3959  1.6032  0.4378
  289MOL0     H38964   5.124   6.862   7.659 -0.2052  2.3268 -3.5683
  289MOL0     H38965   5.118   7.029   7.736 -1.4567 -0.8072 -0.1289
  289MOL0     H38966   5.072   6.694   7.859 -1.1443 -0.1855  1.6153
  289MOL0     H38967   5.032   6.642   8.142 -0.5162  1.9520  0.8061
  289MOL0     H38968   5.185   6.563   8.086 -0.8940  0.1464 -2.0335
  289MOL0     H38969   5.216   6.760   8.310  4.5693 -1.0558  1.9571
  289MOL0     H38970   5.319   6.641   8.259  1.2544  3.3192 -1.8561
  289MOL0     H38971   5.223   6.530   8.450 -1.0938 -2.2893  0.7869
  289MOL0     H38972   5.116   6.485   8.330  2.4467 -0.8101  1.1681
  289MOL0     H38973   5.083   6.737   8.524 -2.4053  1.6106 -1.1595
  289MOL0     H38974   5.008   6.580   8.550 -2.7622  0.2571 -0.5298
  289MOL0     H38975   4.870   6.683   8.636  1.2260  0.1167 -1.3968
  289MOL0     H38976   4.610   6.863   8.798 -1.9783  1.0968 -1.5730
  289MOL0     H38977   4.573   6.688   8.783 -1.2778 -0.4920  0.1363
  289MOL0     H38978   4.731   6.744   8.820 -1.6291 -1.5554  0.6072
  289MOL0     H38979   4.125   6.839   8.460 -1.7580  0.9053 -3.8360
  289MOL0     H38980   3.925   6.969   8.440 -0.2601  1.6974 -0.6625
  289MOL0     H38981   3.937   7.390   8.540  0.1325 -0.3457 -0.0201
  289MOL0     H38982   3.963   7.383   8.366 -1.2270  1.2044 -1.7431
  289MOL0     H38983   3.780   7.511   8.379  2.5192 -2.0261 -3.9525
  289MOL0     H38984   3.711   7.373   8.322  2.0362  2.5555 -0.9840
  289MOL0     H38985   3.690   7.459   8.606  0.7851 -0.7693  0.8738
  289MOL0     H38986   3.625   7.302   8.546  0.6688 -0.7636 -0.2829
  289MOL0     H38987   3.493   7.538   8.565  1.3724 -0.3520  1.3695
  289MOL0     H38988   3.547   7.556   8.399 -0.5041 -1.8794 -2.2583
  289MOL0     H38989   3.391   7.311   8.511 -3.0060  0.5434  1.8367
  289MOL0     H38990   3.439   7.357   8.333  3.9957  0.0967  1.1670
  289MOL0     H38991   3.256   7.520   8.522  0.5834  1.2390  0.1462
  289MOL0     H38992   3.296   7.552   8.350  1.2436  0.5539  1.1679
  289MOL0     H38993   3.178   7.296   8.465 -2.2883 -0.6103  0.4385
  289MOL0     H38994   3.175   7.349   8.297 -0.2521  2.8675 -0.8027
  289MOL0     H38995   2.964   7.350   8.373  2.3135 -0.7775 -2.5123
  289MOL0     H38996   3.010   7.513   8.322  2.6912  1.6138  2.0293
  289MOL0     H38997   4.148   7.332   8.457 -0.5057 -0.7940 -0.0683
  289MOL0     H38998   4.347   7.218   8.481  1.7282 -1.8730  2.9427
  289MOL0     H38999   4.572   6.923   8.316  0.1234 -1.8870 -0.4157
  289MOL0     H39000   4.763   6.798   8.232  0.7812 -1.3365  1.0453
  289MOL0     H39001   6.216   7.037   7.831  0.8624  0.6556  0.3567
  289MOL0     H39002   6.348   6.905   7.670  0.1720  0.3167  0.3838
  289MOL0     H39003   6.441   6.267   7.495 -0.2849  0.3019  0.5999
  289MOL0     H39004   6.612   6.218   7.342  0.6384 -0.5031 -0.0581
  289MOL0     H39005   6.809   6.216   7.252 -3.1331  0.2236  0.2210
  289MOL0     H39006   6.705   6.261   7.111 -1.8429 -1.3853 -0.0129
  289MOL0     H39007   6.994   6.354   7.124 -0.0626  0.1969 -0.4545
  289MOL0     H39008   6.888   6.352   6.984 -1.4647 -1.4234 -1.1868
  289MOL0     H39009   6.958   6.090   7.129 -2.8491 -0.4346 -1.0139
  289MOL0     H39010   7.067   6.157   7.021  0.2502 -3.3741 -1.0319
  289MOL0     H39011   6.901   6.128   6.844 -1.2751  1.1694  0.1929
  289MOL0     H39012   6.763   6.142   6.956 -0.1832 -1.5664  1.6708
  289MOL0     H39013   6.864   5.723   6.964 -0.7330 -0.2489  0.0511
  289MOL0     H39014   6.710   6.641   7.336  0.8394  0.2160  2.5804
  289MOL0     H39015   6.530   6.703   7.474  1.8395  0.1276 -2.2799
  290MOL0     O39016   7.134  10.565   0.527  0.2077 -0.1792 -0.1845
  290MOL0     C39017   7.209  10.557   0.429  1.0151 -0.8096  0.0435
  290MOL0     O39018   7.170  10.555   0.294  0.6613  0.2756 -0.7664
  290MOL0     C39019   7.032  10.553   0.280 -0.1480  0.5713 -0.2934
  290MOL0     C39020   6.947  10.453   0.317  0.6084 -0.1312 -0.5035
  290MOL0     C39021   6.811  10.448   0.267 -0.0418  1.5314 -0.1582
  290MOL0     C39022   6.766  10.544   0.183 -0.9198 -0.6428  0.3701
  290MOL0     O39023   6.641  10.551   0.139  0.5940 -0.3342  0.1162
  290MOL0     C39024   6.565  10.432   0.130  0.0028  0.3002 -0.1037
  290MOL0     C39025   6.451  10.488   0.041  0.4691  0.7750  0.7667
  290MOL0     C39026   6.371  10.365   0.006 -0.3121 -0.2788  0.3536
  290MOL0     C39027   6.242  10.411  -0.066  0.4192  0.9199 -0.6417
  290MOL0     C39028   6.115  10.357  -0.008 -0.5008  0.0650 -0.0188
  290MOL0     C39029   6.099  10.214   0.022 -0.4300 -0.8456  0.3249
  290MOL0     C39030   6.114  10.133  -0.105 -0.4194 -1.1615 -0.0368
  290MOL0     C39031   6.046  10.003  -0.093 -0.2717  0.1398  0.5154
  290MOL0     N39032   6.071   9.921   0.027 -0.5219  0.3437 -0.3131
  290MOL0     C39033   6.006   9.925   0.153 -0.3083  0.0450  0.3777
  290MOL0     C39034   6.082   9.857   0.240  0.7004 -0.0472 -0.2428
  290MOL0     C39035   6.074   9.848   0.391 -0.3530  0.4096 -0.0410
  290MOL0     C39036   6.127   9.719   0.448 -0.3750 -0.2447  0.0624
  290MOL0     C39037   6.099   9.720   0.605  1.1877 -0.0247 -0.2890
  290MOL0     C39038   6.143   9.587   0.665 -0.0518  0.2363  0.2405
  290MOL0     O39039   6.281   9.578   0.633 -0.1908 -0.8022 -0.3944
  290MOL0     C39040   6.375   9.624   0.723 -0.4512 -1.0011 -0.2159
  290MOL0     C39041   6.378   9.610   0.865  0.1557  0.5088 -0.1762
  290MOL0     C39042   6.496   9.641   0.938 -0.2055  0.5509 -1.0904
  290MOL0     C39043   6.480   9.619   1.084 -0.6479 -0.9600 -0.5249
  290MOL0     C39044   6.613   9.688   0.873  0.4770 -0.2454  0.2097
  290MOL0     C39045   6.745   9.712   0.935  0.2038  0.0951 -0.6478
  290MOL0     O39046   6.814   9.809   0.870 -0.2115  0.3302  0.5503
  290MOL0     C39047   6.911   9.868   0.946 -0.3947 -0.2854 -0.3032
  290MOL0     C39048   6.899  10.000   0.984  0.1235 -0.9428  0.0300
  290MOL0     C39049   6.993  10.048   1.081 -0.6056 -1.1186 -0.0477
  290MOL0     C39050   7.109   9.982   1.120  0.2152  0.0818 -1.2733
  290MOL0     O39051   7.202  10.049   1.196 -0.0170  0.6055  0.0285
  290MOL0     C39052   7.293   9.980   1.284 -0.0516  0.4403 -0.0228
  290MOL0     C39053   7.209   9.915   1.397 -0.4300 -0.2162 -0.2269
  290MOL0     C39054   7.311   9.879   1.496 -0.0646 -0.8631 -0.9777
  290MOL0     C39055   7.243   9.789   1.602  0.0063 -0.7149  0.4952
  290MOL0     C39056   7.313   9.651   1.618 -0.1778 -0.6309  0.2612
  290MOL0     C39057   7.210   9.554   1.698 -0.5699  0.6148 -0.0246
  290MOL0     C39058   7.285   9.432   1.756  0.1875  0.1207 -1.1504
  290MOL0     C39059   7.185   9.344   1.823 -0.2925 -0.6005 -0.1248
  290MOL0    Cl39060   7.105   9.427   1.949  0.1768  0.8031  0.1915
  290MOL0     C39061   7.123   9.850   1.084  0.1288 -0.4215 -0.0118
  290MOL0     C39062   7.021   9.796   1.008  0.8105  0.5849  0.4030
  290MOL0     O39063   6.777   9.655   1.039  0.0522 -0.1041 -0.4142
  290MOL0     C39064   6.608   9.691   0.734  0.6846 -0.2571 -0.5167
  290MOL0     C39065   6.494   9.657   0.656  0.1934  0.1246 -0.0842
  290MOL0     N39066   6.188   9.809   0.177 -0.1757  0.7977  0.8773
  290MOL0     N39067   6.182   9.847   0.050 -0.1778  0.0323 -0.5878
  290MOL0     C39068   6.861  10.643   0.142 -0.0483 -0.7773  1.1247
  290MOL0     C39069   6.989  10.643   0.192  0.2574  0.2524  0.0609
  290MOL0     C39070   7.356  10.549   0.456 -0.3825  0.3774 -0.2409
  290MOL0     C39071   7.405  10.509   0.581 -0.4221  0.0275  0.3894
  290MOL0     C39072   7.544  10.502   0.603 -1.1521 -0.6839  0.2752
  290MOL0     C39073   7.638  10.534   0.499  0.6678 -0.5236  0.2919
  290MOL0     O39074   7.776  10.537   0.531  0.3612  0.0025  0.0962
  290MOL0     C39075   7.870  10.589   0.437 -0.4955 -0.1876 -0.4052
  290MOL0     C39076   8.023  10.563   0.474  1.3588 -0.0703  0.1893
  290MOL0     C39077   8.049  10.411   0.473  0.4543 -0.4184  0.0593
  290MOL0     C39078   8.192  10.379   0.507 -0.1225 -0.2806 -0.3443
  290MOL0     C39079   8.220  10.242   0.460  0.4018 -0.1968 -0.1931
  290MOL0     C39080   8.245  10.131   0.422  0.0529  0.0231  0.2122
  290MOL0     C39081   7.586  10.581   0.374 -0.9717  0.0522  0.8866
  290MOL0     C39082   7.449  10.579   0.350 -0.1367 -0.4296 -0.2094
  290MOL0     H39083   6.991  10.376   0.379  2.0018 -0.2003 -1.5399
  290MOL0     H39084   6.739  10.372   0.296  0.7164  1.6927  2.3398
  290MOL0     H39085   6.612  10.349   0.077  0.9016  0.9927 -0.4228
  290MOL0     H39086   6.532  10.386   0.223  0.0401 -0.7227 -0.5813
  290MOL0     H39087   6.389  10.566   0.086 -0.7252 -0.5540  1.5528
  290MOL0     H39088   6.482  10.530  -0.055 -1.8982  1.5550  0.2889
  290MOL0     H39089   6.429  10.304  -0.064  0.1114 -0.2695  0.6871
  290MOL0     H39090   6.359  10.300   0.094  1.5835 -1.3618 -0.1228
  290MOL0     H39091   6.238  10.520  -0.065 -1.1654  0.8857  0.7727
  290MOL0     H39092   6.251  10.376  -0.170  0.1764  0.0524 -0.3851
  290MOL0     H39093   6.094  10.409   0.086  0.8068 -1.4856  1.1869
  290MOL0     H39094   6.028  10.386  -0.067 -2.7843 -1.6234  2.2624
  290MOL0     H39095   6.168  10.176   0.098 -4.1676 -2.7928  3.0735
  290MOL0     H39096   5.994  10.213   0.053 -0.7312  0.6311 -0.5403
  290MOL0     H39097   6.076  10.188  -0.192 -2.5317  0.2274  1.6671
  290MOL0     H39098   6.222  10.128  -0.119  0.1195  4.1948  0.0232
  290MOL0     H39099   6.065   9.925  -0.166  1.2037  0.3596  0.6503
  290MOL0     H39100   5.942  10.038  -0.100  0.1555  1.6318  1.1943
  290MOL0     H39101   5.909   9.970   0.171 -0.9163 -1.8986  2.4966
  290MOL0     H39102   6.109   9.942   0.436 -2.1612  0.5567  1.1759
  290MOL0     H39103   5.965   9.845   0.400 -0.5248 -2.1830 -2.0184
  290MOL0     H39104   6.234   9.709   0.425 -0.3225  0.6651 -0.1273
  290MOL0     H39105   6.082   9.626   0.412  3.7094 -1.9922 -1.0868
  290MOL0     H39106   5.991   9.720   0.624  0.6005 -2.2235 -2.9732
  290MOL0     H39107   6.147   9.808   0.647  2.4864  0.1356 -2.0136
  290MOL0     H39108   6.092   9.496   0.631  2.0916 -0.4988 -1.2092
  290MOL0     H39109   6.129   9.579   0.774 -0.5793 -2.5314  0.0558
  290MOL0     H39110   6.288   9.585   0.922  1.2672  2.4664  2.6923
  290MOL0     H39111   6.379   9.635   1.122  0.9413  3.1361  2.6452
  290MOL0     H39112   6.505   9.520   1.125  0.8729 -1.2552 -2.0381
  290MOL0     H39113   6.543   9.690   1.138 -0.5203 -0.0805 -1.7958
  290MOL0     H39114   6.819  10.063   0.947  3.3457  2.8203 -1.1317
  290MOL0     H39115   6.972  10.153   1.101 -0.1894 -1.5719  3.3201
  290MOL0     H39116   7.360   9.908   1.237  0.7473  0.4560  1.0575
  290MOL0     H39117   7.360  10.058   1.321  1.2405  0.1738 -1.6944
  290MOL0     H39118   7.126   9.982   1.421 -1.9584 -1.9698 -0.3891
  290MOL0     H39119   7.160   9.823   1.362 -1.1371 -0.2658  0.8361
  290MOL0     H39120   7.353   9.968   1.543 -0.2028 -0.9557 -0.6816
  290MOL0     H39121   7.398   9.834   1.447 -0.1712 -0.0251 -1.9821
  290MOL0     H39122   7.242   9.834   1.702  0.7791 -0.1407  0.2554
  290MOL0     H39123   7.134   9.777   1.596 -0.2699  0.9981  1.4274
  290MOL0     H39124   7.410   9.668   1.667 -0.3547  2.3631 -0.2598
  290MOL0     H39125   7.321   9.610   1.517  0.9761 -0.3114  0.2053
  290MOL0     H39126   7.166   9.612   1.780  1.3161  1.5989  0.3377
  290MOL0     H39127   7.123   9.539   1.633 -0.4722 -0.5944  0.0997
  290MOL0     H39128   7.366   9.466   1.822  0.1300 -4.0385  1.4230
  290MOL0     H39129   7.329   9.371   1.677  2.3897  0.7549 -0.4873
  290MOL0     H39130   7.232   9.258   1.872  1.2274  0.6992  0.8500
  290MOL0     H39131   7.116   9.311   1.745 -2.4922  1.5173  0.7882
  290MOL0     H39132   7.217   9.797   1.101  0.9356  0.4484 -1.4993
  290MOL0     H39133   7.019   9.692   0.979 -0.8384  0.0477  2.2194
  290MOL0     H39134   6.689   9.724   0.669 -0.4463  2.6811 -0.5832
  290MOL0     H39135   6.499   9.652   0.548  0.7948 -5.7838 -0.1577
  290MOL0     H39136   6.821  10.725   0.082 -0.9100  0.9910  3.9416
  290MOL0     H39137   7.066  10.704   0.144  0.4980 -0.1985 -0.1314
  290MOL0     H39138   7.348  10.482   0.669  1.0603 -2.7193  0.6290
  290MOL0     H39139   7.575  10.479   0.704  2.3485  2.4407  0.1036
  290MOL0     H39140   7.856  10.542   0.340 -1.0556  0.0943 -0.4615
  290MOL0     H39141   7.849  10.696   0.427  1.3827  0.6315  2.8976
  290MOL0     H39142   8.061  10.610   0.566 -2.1743 -0.4148  2.0029
  290MOL0     H39143   8.075  10.613   0.392 -1.8814  1.4725 -1.0688
  290MOL0     H39144   8.037  10.367   0.373 -0.7993  0.0703 -0.0238
  290MOL0     H39145   7.974  10.371   0.542 -1.7805  0.9844 -1.4098
  290MOL0     H39146   8.213  10.383   0.614  0.8189  0.9668 -0.5539
  290MOL0     H39147   8.259  10.459   0.473  0.2829  0.0359  1.1243
  290MOL0     H39148   8.258  10.039   0.367  0.7373  0.0033  0.3947
  290MOL0     H39149   7.658  10.610   0.298  1.2436 -2.2947  1.9353
  290MOL0     H39150   7.403  10.605   0.255 -0.4292  0.9726  0.2903
  291MOL0     O39151   5.376   0.211   8.845 -0.3865  0.3211 -0.3544
  291MOL0     C39152   5.447   0.240   8.942 -0.4516 -0.3896 -0.0861
  291MOL0     O39153   5.570   0.290   8.934 -0.1059  0.0361  0.3869
  291MOL0     C39154   5.634   0.299   8.805  0.1693  0.1952 -0.0696
  291MOL0     C39155   5.652   0.426   8.746  0.3664 -0.1060  0.0198
  291MOL0     C39156   5.694   0.441   8.614 -0.7855  0.4391 -0.1395
  291MOL0     C39157   5.730   0.325   8.538  1.0045 -0.0755 -0.4175
  291MOL0     O39158   5.767   0.347   8.409  0.5853 -0.0745  0.4210
  291MOL0     C39159   5.754   0.235   8.312  0.8951 -0.1355  0.7268
  291MOL0     C39160   5.742   0.289   8.173  0.2085  0.2088  0.9516
  291MOL0     C39161   5.881   0.317   8.106 -0.7362  0.0806  0.1431
  291MOL0     C39162   5.877   0.294   7.953 -0.5823 -0.5742  0.2238
  291MOL0     C39163   5.823   0.414   7.887 -0.5473  0.5867 -0.5557
  291MOL0     C39164   5.776   0.375   7.746 -1.1243 -0.2663  0.6981
  291MOL0     C39165   5.674   0.468   7.691  0.6635  0.6277  0.1307
  291MOL0     C39166   5.552   0.478   7.771  0.2579  0.3839  0.0751
  291MOL0     N39167   5.485   0.347   7.806  0.1931  0.2271  0.7699
  291MOL0     C39168   5.466   0.243   7.723 -1.1152 -0.1812 -0.8843
  291MOL0     C39169   5.402   0.148   7.804 -0.2127 -0.4930  1.0400
  291MOL0     C39170   5.343   0.015   7.753  0.5383  1.1759  0.7570
  291MOL0     C39171   5.220   0.038   7.666  0.0324 -0.6862  0.4157
  291MOL0     C39172   5.175  -0.099   7.617 -0.0355 -0.0897  1.0221
  291MOL0     C39173   5.035  -0.103   7.548 -0.5345 -0.4018 -0.4843
  291MOL0     O39174   4.934  -0.090   7.645  0.3126  0.1788 -0.0336
  291MOL0     C39175   4.812  -0.051   7.616 -0.2777 -0.0832  0.4203
  291MOL0     C39176   4.710  -0.146   7.598 -0.4184 -0.2447  1.4072
  291MOL0     C39177   4.578  -0.111   7.570 -0.7282 -0.1386  0.4697
  291MOL0     C39178   4.471  -0.220   7.549 -0.3197 -1.2967 -0.2258
  291MOL0     C39179   4.549   0.026   7.549  0.0626  0.4007  0.7503
  291MOL0     C39180   4.414   0.068   7.505 -0.8481 -0.5267 -0.5072
  291MOL0     O39181   4.362   0.022   7.384 -0.3546 -0.0691 -0.2670
  291MOL0     C39182   4.226   0.010   7.360 -0.9193 -0.7199  0.5052
  291MOL0     C39183   4.116   0.039   7.442 -0.6705 -0.3504 -0.8165
  291MOL0     C39184   3.991   0.003   7.401 -0.2065  0.3164 -0.1929
  291MOL0     C39185   3.958  -0.065   7.283 -0.2830 -0.1907  0.6936
  291MOL0     O39186   3.829  -0.112   7.268  0.2014 -0.1048 -0.0264
  291MOL0     C39187   3.794  -0.167   7.132 -0.5716  0.3015  0.3141
  291MOL0     C39188   3.640  -0.185   7.115 -1.1341 -0.4891  0.5568
  291MOL0     C39189   3.568  -0.287   7.186 -0.6959  0.3858  0.7304
  291MOL0     C39190   3.418  -0.303   7.163 -0.2916  0.1314 -0.2981
  291MOL0     C39191   3.372  -0.407   7.054 -0.3961  0.3084  0.0084
  291MOL0     C39192   3.418  -0.548   7.083  0.8146  0.1117 -1.0001
  291MOL0     C39193   3.346  -0.655   6.995  0.1826 -0.7603  0.0211
  291MOL0     C39194   3.412  -0.659   6.859 -0.0906 -0.7878 -0.7929
  291MOL0    Cl39195   3.592  -0.684   6.860  0.4628  0.0614  0.1866
  291MOL0     C39196   4.076  -0.086   7.200 -0.1080  1.4533  0.4097
  291MOL0     C39197   4.208  -0.044   7.238 -0.3669 -0.6579  0.7350
  291MOL0     O39198   4.356   0.141   7.584 -0.0100 -0.0455  0.4110
  291MOL0     C39199   4.651   0.122   7.567 -0.5512 -0.2168  0.5271
  291MOL0     C39200   4.774   0.083   7.614 -0.6380 -0.8720 -0.2812
  291MOL0     N39201   5.380   0.198   7.929 -0.2680  0.0085  0.8917
  291MOL0     N39202   5.416   0.319   7.921 -0.3995 -0.1022 -0.0326
  291MOL0     C39203   5.725   0.196   8.603  0.1094 -0.8291 -0.0639
  291MOL0     C39204   5.684   0.183   8.735  0.9333 -0.1679  0.1143
  291MOL0     C39205   5.375   0.229   9.068  0.1545  0.2241  0.4733
  291MOL0     C39206   5.439   0.282   9.187  0.8219 -0.0472 -0.3981
  291MOL0     C39207   5.380   0.284   9.311  0.1481  0.6463 -0.0801
  291MOL0     C39208   5.257   0.224   9.328 -0.4466  0.5867 -0.1356
  291MOL0     O39209   5.199   0.197   9.451  0.2788  0.1224  0.0245
  291MOL0     C39210   5.169   0.321   9.520  0.6731  0.8791 -2.0127
  291MOL0     C39211   5.130   0.302   9.675 -0.6948 -0.1710  0.8633
  291MOL0     C39212   5.241   0.221   9.749 -0.1137 -1.2022  1.2647
  291MOL0     C39213   5.351   0.325   9.769  0.7926  0.0602 -0.7832
  291MOL0     C39214   5.467   0.241   9.796  0.3735 -0.3762  0.1997
  291MOL0     C39215   5.551   0.164   9.832 -0.4323 -0.3513  0.0085
  291MOL0     C39216   5.183   0.169   9.217 -0.4074 -1.2584  0.0669
  291MOL0     C39217   5.244   0.182   9.086  0.2747 -0.4815 -0.2063
  291MOL0     H39218   5.635   0.522   8.793  1.8222  0.6704 -0.9471
  291MOL0     H39219   5.702   0.541   8.573 -0.4820  2.1247  3.6075
  291MOL0     H39220   5.837   0.164   8.318  2.3860  1.3743 -0.9212
  291MOL0     H39221   5.659   0.186   8.335  0.2857  0.9166  0.5374
  291MOL0     H39222   5.674   0.227   8.114  0.2225 -1.6127  2.7323
  291MOL0     H39223   5.686   0.383   8.174 -3.2036 -1.5793  4.1136
  291MOL0     H39224   5.905   0.419   8.137  1.0037 -0.4357  0.6214
  291MOL0     H39225   5.957   0.262   8.161 -1.8614 -0.2938  1.3800
  291MOL0     H39226   5.977   0.268   7.919  0.0773  1.6037  0.3429
  291MOL0     H39227   5.807   0.211   7.940  1.2323 -2.9053  3.8731
  291MOL0     H39228   5.745   0.472   7.939  1.7196  1.6142  1.9162
  291MOL0     H39229   5.903   0.487   7.872  0.7842 -0.6793  0.1348
  291MOL0     H39230   5.859   0.352   7.679 -1.8850 -0.2620 -0.2756
  291MOL0     H39231   5.723   0.281   7.728 -3.8892  1.6168 -2.1503
  291MOL0     H39232   5.718   0.567   7.678  2.0388 -0.2350 -2.1713
  291MOL0     H39233   5.652   0.435   7.589 -0.2230  0.5839  0.3208
  291MOL0     H39234   5.478   0.530   7.709  1.9193 -1.3393 -3.6704
  291MOL0     H39235   5.569   0.537   7.862 -1.8914 -1.1316  1.5763
  291MOL0     H39236   5.505   0.248   7.621 -2.2851  1.2572 -1.3000
  291MOL0     H39237   5.411  -0.037   7.686 -1.6269  1.3962 -1.7353
  291MOL0     H39238   5.311  -0.056   7.830 -2.3897 -0.1458 -1.4906
  291MOL0     H39239   5.240   0.105   7.582 -0.9832  1.4549  1.7897
  291MOL0     H39240   5.140   0.078   7.728 -0.9432 -2.1305  0.1338
  291MOL0     H39241   5.166  -0.173   7.696 -1.5773  1.4254  2.3387
  291MOL0     H39242   5.249  -0.138   7.545 -0.4223  0.2146  0.4522
  291MOL0     H39243   5.018  -0.201   7.501  0.2933 -0.9602  0.3488
  291MOL0     H39244   5.025  -0.030   7.467  0.4618  0.4474  0.1521
  291MOL0     H39245   4.733  -0.251   7.607  1.1906  0.2300  4.1538
  291MOL0     H39246   4.450  -0.281   7.638 -0.7963 -1.5873 -0.5372
  291MOL0     H39247   4.371  -0.180   7.531 -0.2769 -0.8512  0.4766
  291MOL0     H39248   4.507  -0.286   7.470  0.3935 -0.1900 -0.8464
  291MOL0     H39249   4.138   0.095   7.532 -1.0861 -0.1652 -0.8306
  291MOL0     H39250   3.921   0.027   7.480  1.7952  1.4569  1.3292
  291MOL0     H39251   3.824  -0.107   7.047 -0.5844  0.7313  0.6120
  291MOL0     H39252   3.843  -0.265   7.123  0.7599  0.9171  0.6065
  291MOL0     H39253   3.596  -0.092   7.151 -1.8495 -0.7887  0.4628
  291MOL0     H39254   3.622  -0.195   7.007  0.8744  0.2488  0.1085
  291MOL0     H39255   3.590  -0.262   7.291  0.2721 -0.9868  0.8738
  291MOL0     H39256   3.617  -0.383   7.169  1.8429  1.2534  2.5055
  291MOL0     H39257   3.370  -0.323   7.260  1.1685  2.4892  0.9956
  291MOL0     H39258   3.378  -0.208   7.128 -0.2549  0.3417  0.2160
  291MOL0     H39259   3.406  -0.384   6.952 -1.0576  0.2794 -0.2217
  291MOL0     H39260   3.263  -0.405   7.047 -0.3159  1.9935 -1.3351
  291MOL0     H39261   3.527  -0.550   7.074  0.7283 -1.6466 -2.1512
  291MOL0     H39262   3.384  -0.572   7.184 -0.2633  2.0757 -0.8472
  291MOL0     H39263   3.237  -0.648   6.984  0.3860  0.6924 -1.4645
  291MOL0     H39264   3.366  -0.750   7.046  1.3997  1.3206  3.7756
  291MOL0     H39265   3.396  -0.559   6.818  1.0835  0.5003  1.7079
  291MOL0     H39266   3.375  -0.737   6.791 -1.1455 -1.3047  0.3413
  291MOL0     H39267   4.069  -0.143   7.108  1.7719  0.7661  0.6423
  291MOL0     H39268   4.297  -0.074   7.183 -1.5183  1.1331 -2.3474
  291MOL0     H39269   4.642   0.230   7.551  0.0822 -0.4406 -1.7661
  291MOL0     H39270   4.837   0.168   7.634 -3.5743  1.0802  1.4071
  291MOL0     H39271   5.770   0.121   8.539  0.3073  1.0349 -2.2478
  291MOL0     H39272   5.661   0.085   8.776  0.5577  0.6535  1.9550
  291MOL0     H39273   5.541   0.317   9.175  1.2810 -1.9501 -3.1543
  291MOL0     H39274   5.438   0.326   9.393  0.8270  2.0141 -1.2215
  291MOL0     H39275   5.249   0.393   9.506  1.4888  0.6536  0.8129
  291MOL0     H39276   5.086   0.356   9.458 -1.5942 -0.2681  0.1537
  291MOL0     H39277   5.039   0.244   9.693 -1.0370 -0.1437 -0.6708
  291MOL0     H39278   5.125   0.402   9.718  2.0954 -0.9311  3.2549
  291MOL0     H39279   5.276   0.142   9.682 -3.7382  1.6579 -4.8762
  291MOL0     H39280   5.212   0.182   9.846 -0.5708  1.6020  2.3443
  291MOL0     H39281   5.325   0.380   9.860 -0.4170  1.7032 -2.0578
  291MOL0     H39282   5.381   0.399   9.693  1.4065  0.3128 -0.3085
  291MOL0     H39283   5.622   0.096   9.876  2.0348  3.1461  1.9748
  291MOL0     H39284   5.087   0.120   9.232 -1.8086  0.9207 -1.1911
  291MOL0     H39285   5.191   0.142   9.000  1.0433 -0.9638 -0.4653
  292MOL0     O39286   0.726   0.984   2.847 -0.0327  0.1312 -0.0663
  292MOL0     C39287   0.671   1.073   2.775 -0.5342  0.1492 -0.5204
  292MOL0     O39288   0.587   1.057   2.668 -0.3496  0.5658 -0.2784
  292MOL0     C39289   0.529   0.934   2.632  0.1289 -0.0139 -0.1457
  292MOL0     C39290   0.437   0.945   2.526  0.1424 -0.7363 -0.1612
  292MOL0     C39291   0.389   0.826   2.460  0.1014  0.7106 -0.0985
  292MOL0     C39292   0.402   0.702   2.520 -0.8574 -0.5992  0.4602
  292MOL0     O39293   0.332   0.586   2.486 -0.7891 -0.3327  0.8369
  292MOL0     C39294   0.218   0.583   2.394 -0.6176  0.2662  0.6957
  292MOL0     C39295   0.182   0.435   2.375  1.3085  0.0660 -0.5434
  292MOL0     C39296   0.059   0.403   2.301  0.7448  0.2074 -0.2427
  292MOL0     C39297  -0.070   0.481   2.337 -0.0909 -0.1024 -1.6821
  292MOL0     C39298  -0.196   0.440   2.245 -0.0274  0.2901  0.3430
  292MOL0     C39299  -0.291   0.550   2.260 -0.0903 -0.5246 -0.0089
  292MOL0     C39300  -0.423   0.535   2.202  0.1731  0.1548 -0.1559
  292MOL0     C39301  -0.525   0.458   2.279  0.2469  0.1460  0.4234
  292MOL0     N39302  -0.643   0.412   2.205 -0.1681 -0.7532  0.0594
  292MOL0     C39303  -0.747   0.493   2.153  0.5354 -0.0147  1.0758
  292MOL0     C39304  -0.838   0.414   2.095 -0.0684  0.0242  0.1872
  292MOL0     C39305  -0.960   0.467   2.030  0.3606  0.3171  1.2480
  292MOL0     C39306  -0.958   0.416   1.884 -0.8177  0.0715  0.6985
  292MOL0     C39307  -0.999   0.527   1.772  0.2059  0.1418 -0.1487
  292MOL0     C39308  -1.154   0.547   1.756 -0.8749 -0.0239 -0.0079
  292MOL0     O39309  -1.215   0.569   1.883  0.3841  0.4787  1.1175
  292MOL0     C39310  -1.349   0.569   1.864  0.0917 -0.3016 -0.1610
  292MOL0     C39311  -1.415   0.662   1.787  0.5598 -0.3950 -0.4102
  292MOL0     C39312  -1.559   0.680   1.792 -0.3074 -0.0521  0.4357
  292MOL0     C39313  -1.624   0.788   1.706  0.4261 -0.3600 -0.6818
  292MOL0     C39314  -1.640   0.605   1.883  0.3983  0.1408  0.2460
  292MOL0     C39315  -1.782   0.631   1.904 -0.0246 -0.7235  0.0280
  292MOL0     O39316  -1.848   0.521   1.933 -0.9238  0.1438 -0.4339
  292MOL0     C39317  -1.991   0.534   1.952 -0.6571  0.1413  0.1550
  292MOL0     C39318  -2.075   0.522   1.837  1.1578 -0.3313 -0.5742
  292MOL0     C39319  -2.210   0.529   1.845  0.0489 -0.6293  0.0156
  292MOL0     C39320  -2.267   0.551   1.976  0.3020 -0.1480  1.0541
  292MOL0     O39321  -2.402   0.572   1.977  0.2145 -0.8520  0.0375
  292MOL0     C39322  -2.445   0.690   2.050  0.7674  0.6927  0.4263
  292MOL0     C39323  -2.594   0.706   2.037 -0.6260  0.4245  0.2266
  292MOL0     C39324  -2.671   0.609   2.126  0.0056  0.4431 -0.1239
  292MOL0     C39325  -2.807   0.577   2.065 -0.6261 -0.2165  0.0120
  292MOL0     C39326  -2.897   0.507   2.175 -0.9789  0.8867  0.2702
  292MOL0     C39327  -2.962   0.617   2.260 -0.3254  0.6868 -0.9675
  292MOL0     C39328  -3.092   0.564   2.325  0.0042 -1.4853  0.5444
  292MOL0     C39329  -3.171   0.686   2.360 -0.9005  0.1744  0.6044
  292MOL0    Cl39330  -3.334   0.635   2.433 -0.3898 -0.0494 -0.3749
  292MOL0     C39331  -2.191   0.574   2.095  0.7119 -0.3192  0.1372
  292MOL0     C39332  -2.050   0.553   2.076 -0.4452  0.0337  0.4120
  292MOL0     O39333  -1.830   0.740   1.912  0.8755  0.2272 -0.1201
  292MOL0     C39334  -1.569   0.501   1.945  0.0364 -0.4316 -0.6648
  292MOL0     C39335  -1.435   0.493   1.947  0.2426  0.4847  0.1185
  292MOL0     N39336  -0.793   0.280   2.127  0.2465 -0.1144 -0.0585
  292MOL0     N39337  -0.671   0.286   2.176 -0.1991 -0.4156 -0.0344
  292MOL0     C39338   0.502   0.692   2.618 -0.4488  0.3892  0.7494
  292MOL0     C39339   0.566   0.804   2.674 -0.4799 -0.2847 -0.1420
  292MOL0     C39340   0.702   1.217   2.821 -0.6542  0.4219  0.9445
  292MOL0     C39341   0.659   1.319   2.733  0.7894 -0.5986  0.2128
  292MOL0     C39342   0.717   1.449   2.750 -0.4054  0.1834 -0.2452
  292MOL0     C39343   0.812   1.468   2.848 -0.2763 -0.2065  0.1131
  292MOL0     O39344   0.873   1.583   2.883 -0.3104  0.2420  0.8265
  292MOL0     C39345   0.843   1.696   2.803 -1.3436 -0.1256  0.4794
  292MOL0     C39346   0.933   1.816   2.831  0.2006 -0.5503 -0.2040
  292MOL0     C39347   1.080   1.809   2.766  0.3389 -0.2291 -0.0357
  292MOL0     C39348   1.172   1.833   2.888 -0.4440 -0.3254  0.7626
  292MOL0     C39349   1.317   1.835   2.855 -0.6739  0.1413  0.2856
  292MOL0     C39350   1.435   1.836   2.825 -0.4036  0.4331  0.3300
  292MOL0     C39351   0.836   1.374   2.948  0.1512  0.9908  1.1410
  292MOL0     C39352   0.790   1.245   2.932  0.5697 -0.3637 -0.1436
  292MOL0     H39353   0.402   1.039   2.483 -0.9456  0.4385  3.0255
  292MOL0     H39354   0.346   0.848   2.363  0.6426 -2.0383 -1.0545
  292MOL0     H39355   0.138   0.646   2.435 -1.3006  0.1821 -0.4472
  292MOL0     H39356   0.254   0.623   2.299  1.9242 -0.5115  1.2612
  292MOL0     H39357   0.261   0.375   2.328 -0.5188 -3.3316  0.3813
  292MOL0     H39358   0.156   0.392   2.472 -1.6798  0.5718 -1.0156
  292MOL0     H39359   0.070   0.412   2.193  3.4087 -2.7456 -0.3768
  292MOL0     H39360   0.024   0.299   2.311 -1.5392  0.9930  0.5578
  292MOL0     H39361  -0.089   0.471   2.445  1.4349  0.5510 -1.3339
  292MOL0     H39362  -0.052   0.588   2.322 -0.1720  0.0771 -0.5952
  292MOL0     H39363  -0.163   0.425   2.142 -1.3873 -0.2184 -0.0398
  292MOL0     H39364  -0.237   0.345   2.279  1.5645 -0.8592 -0.8103
  292MOL0     H39365  -0.309   0.553   2.368  2.7854 -1.8282  0.5965
  292MOL0     H39366  -0.247   0.643   2.223 -1.7851  1.6507  3.0740
  292MOL0     H39367  -0.463   0.636   2.195  2.9392  1.4706  1.3958
  292MOL0     H39368  -0.414   0.488   2.104  3.6647  0.7210 -0.2142
  292MOL0     H39369  -0.548   0.519   2.367  1.1562  0.7038  0.2856
  292MOL0     H39370  -0.481   0.369   2.324 -0.6263 -0.1146  0.7947
  292MOL0     H39371  -0.758   0.600   2.138  1.1542 -0.3186 -2.6525
  292MOL0     H39372  -1.043   0.428   2.089 -0.7119 -3.3818 -2.2719
  292MOL0     H39373  -0.948   0.576   2.029 -1.8540  0.6168 -0.5475
  292MOL0     H39374  -1.013   0.323   1.873 -1.1633  0.2941  0.5500
  292MOL0     H39375  -0.852   0.399   1.859 -1.5292 -0.4638 -2.3217
  292MOL0     H39376  -0.964   0.492   1.675  2.0563  0.7621  0.2619
  292MOL0     H39377  -0.961   0.624   1.806 -1.5803  0.1166  2.1779
  292MOL0     H39378  -1.203   0.458   1.714  1.1026 -1.5140  0.6920
  292MOL0     H39379  -1.183   0.621   1.680 -0.7935 -1.1101 -1.1412
  292MOL0     H39380  -1.358   0.730   1.725 -1.7637 -0.8849 -3.2753
  292MOL0     H39381  -1.651   0.877   1.764  1.5813  0.0402 -0.7358
  292MOL0     H39382  -1.567   0.825   1.620  1.5787  2.5626  1.2022
  292MOL0     H39383  -1.720   0.755   1.663  1.7191 -2.8510 -1.9039
  292MOL0     H39384  -2.031   0.508   1.739 -0.1657 -1.8544 -0.9920
  292MOL0     H39385  -2.290   0.530   1.772 -2.5035 -0.8599  2.6075
  292MOL0     H39386  -2.429   0.674   2.157 -0.6477 -2.9319  0.2191
  292MOL0     H39387  -2.400   0.782   2.014  3.3498  0.4405  2.6445
  292MOL0     H39388  -2.628   0.809   2.048  1.1282  1.0986 -0.2506
  292MOL0     H39389  -2.614   0.672   1.935  1.2984 -1.9941  0.5477
  292MOL0     H39390  -2.683   0.665   2.219  3.3723 -1.2807  1.5293
  292MOL0     H39391  -2.625   0.512   2.145  1.1225  0.4260 -2.5053
  292MOL0     H39392  -2.847   0.673   2.034  1.0253  1.2350  2.0941
  292MOL0     H39393  -2.803   0.515   1.975 -0.0562  0.8363 -0.6948
  292MOL0     H39394  -2.849   0.427   2.232 -2.1366 -0.0412 -0.0158
  292MOL0     H39395  -2.973   0.461   2.111 -0.7720  0.2363  0.4835
  292MOL0     H39396  -2.885   0.656   2.327  0.1530 -1.4701 -0.1517
  292MOL0     H39397  -2.989   0.705   2.200 -0.2794  3.1857  2.3934
  292MOL0     H39398  -3.068   0.505   2.415 -2.3823  0.2969  2.4919
  292MOL0     H39399  -3.149   0.501   2.257  0.7012 -1.1321 -0.3928
  292MOL0     H39400  -3.198   0.748   2.274 -0.5360  0.5728  0.7682
  292MOL0     H39401  -3.110   0.748   2.427 -0.9891 -0.8042  1.6303
  292MOL0     H39402  -2.239   0.594   2.190 -0.5288  2.5643 -1.0194
  292MOL0     H39403  -1.980   0.581   2.155 -2.0127  1.6977  1.2840
  292MOL0     H39404  -1.619   0.435   2.015 -1.6491  0.2868 -1.1472
  292MOL0     H39405  -1.388   0.445   2.032  0.7560  1.4290  0.3882
  292MOL0     H39406   0.520   0.594   2.662 -1.1477  0.1331  0.4741
  292MOL0     H39407   0.646   0.792   2.746  1.5533  1.5618 -1.9246
  292MOL0     H39408   0.605   1.297   2.641 -0.2661 -0.1496  0.7194
  292MOL0     H39409   0.698   1.526   2.676 -3.7372  0.8813  1.1714
  292MOL0     H39410   0.882   1.681   2.701  1.2828  1.4223  1.1669
  292MOL0     H39411   0.734   1.710   2.801 -1.6580 -2.2650 -0.6975
  292MOL0     H39412   0.949   1.827   2.939 -0.8865 -0.6530 -0.0228
  292MOL0     H39413   0.875   1.892   2.779  0.5370  0.7774  1.2910
  292MOL0     H39414   1.094   1.892   2.696 -1.7622  1.2636  1.2137
  292MOL0     H39415   1.090   1.712   2.716 -1.1101 -0.6492  0.4556
  292MOL0     H39416   1.149   1.756   2.962  0.3455 -0.4407  0.8991
  292MOL0     H39417   1.145   1.931   2.929 -2.2821 -1.5330  2.5986
  292MOL0     H39418   1.541   1.840   2.809 -0.2113  0.0708  1.4278
  292MOL0     H39419   0.896   1.414   3.029  1.6348  3.0221 -0.8333
  292MOL0     H39420   0.824   1.170   3.002  2.2122 -1.5508 -2.1191
  293MOL0     O39421   2.734  10.100   2.235  0.1852  0.0688 -0.3952
  293MOL0     C39422   2.811  10.159   2.316  0.7792  0.1616 -0.4521
  293MOL0     O39423   2.781  10.185   2.447 -0.4804  0.4027 -0.1708
  293MOL0     C39424   2.683  10.119   2.505  0.1441  0.1336 -0.4460
  293MOL0     C39425   2.601  10.185   2.599 -0.4562  0.9232 -0.2255
  293MOL0     C39426   2.477  10.132   2.622 -0.3736 -0.1543 -0.2344
  293MOL0     C39427   2.435  10.011   2.590  0.5116  0.5570 -0.3965
  293MOL0     O39428   2.319   9.953   2.630  0.5743 -0.0143 -0.2794
  293MOL0     C39429   2.233  10.040   2.705 -0.5427  0.4121 -0.5278
  293MOL0     C39430   2.108   9.960   2.764 -1.1377  0.6983  0.8277
  293MOL0     C39431   1.986   9.951   2.670  0.1495 -0.4093  1.0728
  293MOL0     C39432   1.872   9.859   2.709  0.2468  0.7108 -0.5817
  293MOL0     C39433   1.756   9.853   2.612 -0.1217  0.2537 -0.1404
  293MOL0     C39434   1.790   9.778   2.482  0.1196  0.0354 -0.5825
  293MOL0     C39435   1.673   9.786   2.383  0.2112 -0.0488  0.0252
  293MOL0     C39436   1.722   9.746   2.246 -0.5381  0.1081 -0.6915
  293MOL0     N39437   1.623   9.775   2.148  0.2892 -0.1008 -1.0022
  293MOL0     C39438   1.635   9.882   2.057 -0.1120  0.4661  0.5144
  293MOL0     C39439   1.535   9.863   1.969  0.7526 -0.4004  0.1328
  293MOL0     C39440   1.519   9.955   1.852  0.1723 -0.1013  0.3341
  293MOL0     C39441   1.373   9.992   1.822 -0.3354  0.3633  0.9723
  293MOL0     C39442   1.300   9.869   1.759 -0.1779 -0.1865 -0.0076
  293MOL0     C39443   1.145   9.914   1.732 -0.2873  0.8774  0.7470
  293MOL0     O39444   1.067   9.803   1.685 -0.4684 -0.0647 -0.3528
  293MOL0     C39445   0.932   9.828   1.683 -0.9619  0.4414 -0.3256
  293MOL0     C39446   0.857   9.719   1.636  0.4915  0.7874 -0.0064
  293MOL0     C39447   0.716   9.726   1.626  0.4277 -0.2858 -0.6101
  293MOL0     C39448   0.633   9.610   1.567 -0.0078  0.3277 -0.3934
  293MOL0     C39449   0.649   9.834   1.687 -0.0589  0.2577 -0.4879
  293MOL0     C39450   0.507   9.832   1.706 -0.2794 -0.2692 -0.6755
  293MOL0     O39451   0.449   9.844   1.821  0.1057  0.6741 -0.0285
  293MOL0     C39452   0.328   9.783   1.823 -0.1970 -0.4583 -0.2950
  293MOL0     C39453   0.304   9.650   1.827 -0.0497 -0.2717 -0.1221
  293MOL0     C39454   0.174   9.595   1.811 -0.3827  0.1593 -0.7838
  293MOL0     C39455   0.068   9.680   1.800 -0.5961  0.0205  0.3700
  293MOL0     O39456  -0.063   9.625   1.802  0.3245  0.4578  0.0209
  293MOL0     C39457  -0.166   9.673   1.897 -0.0350 -0.4457 -0.9591
  293MOL0     C39458  -0.270   9.558   1.950 -0.1545 -0.5470 -0.1439
  293MOL0     C39459  -0.405   9.625   1.986 -0.4381 -0.0843 -1.0528
  293MOL0     C39460  -0.380   9.741   2.089 -0.5326 -1.3865  0.3488
  293MOL0     C39461  -0.496   9.841   2.099 -0.8607 -0.1052  0.4090
  293MOL0     C39462  -0.468   9.956   2.191 -0.6037  0.1153 -0.7211
  293MOL0     C39463  -0.587  10.057   2.175 -0.4207  0.4530  0.4548
  293MOL0     C39464  -0.595  10.164   2.274  0.0589  0.4869 -0.2615
  293MOL0    Cl39465  -0.748  10.264   2.238 -0.2095 -0.3523 -0.2234
  293MOL0     C39466   0.090   9.815   1.799  0.0268  0.5224  0.0600
  293MOL0     C39467   0.217   9.866   1.814  0.3993  0.6855 -0.0287
  293MOL0     O39468   0.449   9.842   1.602  0.3142  0.6424  0.3212
  293MOL0     C39469   0.718   9.937   1.740  0.4959  0.5882 -0.1323
  293MOL0     C39470   0.863   9.944   1.727  0.5543  0.1768  0.1995
  293MOL0     N39471   1.461   9.758   2.007 -1.3438  0.2501  0.6708
  293MOL0     N39472   1.509   9.711   2.119 -0.5045 -0.5926 -0.5769
  293MOL0     C39473   2.530   9.934   2.517 -0.4760 -0.5882  0.6348
  293MOL0     C39474   2.654   9.987   2.472  0.0179  0.2174  0.3568
  293MOL0     C39475   2.935  10.223   2.265  1.0760 -0.5113  0.1730
  293MOL0     C39476   2.986  10.171   2.141 -0.5274  0.4936 -0.4046
  293MOL0     C39477   3.100  10.231   2.086 -0.7579 -0.4922  0.4129
  293MOL0     C39478   3.159  10.349   2.150 -0.2140  0.2017  0.1649
  293MOL0     O39479   3.267  10.421   2.108  0.5255 -0.4882 -0.5282
  293MOL0     C39480   3.321  10.394   1.970 -1.0335 -1.2065  0.9063
  293MOL0     C39481   3.453  10.471   1.948  0.1668  0.2874 -0.6138
  293MOL0     C39482   3.499  10.500   1.801 -0.2308 -0.5120 -0.1134
  293MOL0     C39483   3.433  10.403   1.701  0.1577  0.2699  0.9385
  293MOL0     C39484   3.488  10.265   1.705  0.6357 -0.2377  0.6657
  293MOL0     C39485   3.524  10.152   1.694 -0.0495  0.5563 -0.0663
  293MOL0     C39486   3.100  10.401   2.263 -0.0872 -0.1902  0.2513
  293MOL0     C39487   2.994  10.337   2.321 -1.0085  0.2372 -0.1122
  293MOL0     H39488   2.628  10.282   2.639  0.8438 -0.2032  1.7871
  293MOL0     H39489   2.406  10.203   2.663 -1.7268 -1.2942 -0.5311
  293MOL0     H39490   2.295  10.075   2.787 -0.0641 -3.5569  1.0496
  293MOL0     H39491   2.210  10.120   2.633 -0.8540  1.1995  0.4323
  293MOL0     H39492   2.136   9.857   2.787 -0.9683  0.9528  1.8237
  293MOL0     H39493   2.078   9.992   2.864 -0.0084 -0.3060  1.5187
  293MOL0     H39494   1.944  10.051   2.654 -0.5745 -1.2109 -3.7651
  293MOL0     H39495   2.022   9.916   2.572 -2.1499 -0.1665  0.0802
  293MOL0     H39496   1.921   9.762   2.726  2.0621  1.6147 -0.4419
  293MOL0     H39497   1.830   9.893   2.804 -2.0685 -0.8658 -0.9500
  293MOL0     H39498   1.669   9.811   2.663 -1.2852  1.4274 -1.0955
  293MOL0     H39499   1.740   9.960   2.599  1.3355  0.6087  0.7966
  293MOL0     H39500   1.880   9.828   2.443 -1.8699  1.2431 -4.0059
  293MOL0     H39501   1.814   9.677   2.514  0.2018  0.1547 -0.2586
  293MOL0     H39502   1.588   9.724   2.415 -1.1967  1.3051 -0.9555
  293MOL0     H39503   1.636   9.888   2.385 -0.5070 -0.1977 -2.6502
  293MOL0     H39504   1.745   9.639   2.242  1.0229  0.4433 -1.3753
  293MOL0     H39505   1.806   9.807   2.210 -0.8871  0.6332 -0.6228
  293MOL0     H39506   1.714   9.956   2.059 -0.8183  1.7990 -5.0345
  293MOL0     H39507   1.578  10.041   1.884 -0.5208  0.9057 -0.9835
  293MOL0     H39508   1.569   9.914   1.763  2.2883  3.1348 -0.1407
  293MOL0     H39509   1.382  10.082   1.760  1.7628 -0.4972 -0.0636
  293MOL0     H39510   1.329  10.021   1.917  0.7687  2.4272  0.8861
  293MOL0     H39511   1.285   9.784   1.826  2.1666 -3.8911 -3.6650
  293MOL0     H39512   1.352   9.831   1.670 -2.3533 -0.9514 -1.0401
  293MOL0     H39513   1.152   9.984   1.648  3.7576 -0.5571 -0.3507
  293MOL0     H39514   1.102   9.964   1.820  0.5608 -0.2761  1.8477
  293MOL0     H39515   0.909   9.633   1.594 -0.4955  0.0993  0.1504
  293MOL0     H39516   0.653   9.614   1.460 -0.0808 -0.3726 -0.4365
  293MOL0     H39517   0.675   9.516   1.604  1.3697  0.3774 -1.7274
  293MOL0     H39518   0.530   9.613   1.603  0.6536  0.0016  1.6416
  293MOL0     H39519   0.379   9.573   1.840  0.6746  0.4595  0.1154
  293MOL0     H39520   0.149   9.489   1.809  1.3084 -0.3562  1.3712
  293MOL0     H39521  -0.110   9.713   1.982  0.1623 -0.0638 -1.2691
  293MOL0     H39522  -0.225   9.752   1.849 -1.6240  0.2082  1.8151
  293MOL0     H39523  -0.283   9.482   1.873  0.8361 -0.5892 -0.2920
  293MOL0     H39524  -0.221   9.510   2.036  2.0880  1.8682  0.0862
  293MOL0     H39525  -0.474   9.554   2.034  1.3777  1.6589  5.0940
  293MOL0     H39526  -0.466   9.659   1.902 -4.0456 -2.7332  0.2200
  293MOL0     H39527  -0.351   9.709   2.190  2.2694  1.2539  0.4991
  293MOL0     H39528  -0.291   9.796   2.058 -0.5394 -1.7510 -0.3286
  293MOL0     H39529  -0.587   9.785   2.122  0.8262 -3.4395 -0.2448
  293MOL0     H39530  -0.507   9.890   2.002  0.7604  1.1417  0.8050
  293MOL0     H39531  -0.449   9.909   2.288  0.3075  2.5208  0.3596
  293MOL0     H39532  -0.371  10.004   2.172  0.1693 -1.8882 -2.1440
  293MOL0     H39533  -0.686  10.012   2.188 -1.3678  2.3517  0.3369
  293MOL0     H39534  -0.573  10.097   2.074  0.3525  0.3113  0.5057
  293MOL0     H39535  -0.514  10.233   2.247  0.6456 -0.9481 -2.4669
  293MOL0     H39536  -0.581  10.136   2.379 -2.0379  4.0817  1.1507
  293MOL0     H39537   0.008   9.884   1.785 -1.1645 -1.0789 -1.3672
  293MOL0     H39538   0.239   9.969   1.786 -1.5507  1.0539 -0.3450
  293MOL0     H39539   0.666  10.014   1.795 -1.5089  0.1883 -1.3443
  293MOL0     H39540   0.905  10.035   1.770  2.3878 -0.7548  0.4962
  293MOL0     H39541   2.512   9.830   2.494 -0.1603 -1.0090  2.2047
  293MOL0     H39542   2.723   9.925   2.416 -0.7090  1.9489 -2.6837
  293MOL0     H39543   2.940  10.082   2.099 -2.9902  2.1948 -1.6080
  293MOL0     H39544   3.148  10.194   1.996 -2.1783 -3.1932  0.6849
  293MOL0     H39545   3.324  10.288   1.945  1.9351 -1.7226  2.9001
  293MOL0     H39546   3.245  10.442   1.907  0.6888  1.3596  0.6151
  293MOL0     H39547   3.528  10.416   2.005  1.0307  2.2603  0.2783
  293MOL0     H39548   3.449  10.575   1.984  4.7781  0.1387  1.0397
  293MOL0     H39549   3.608  10.498   1.792 -0.2792 -0.3746 -0.7665
  293MOL0     H39550   3.467  10.602   1.777 -0.6962 -0.3665  1.0227
  293MOL0     H39551   3.447  10.442   1.600  0.4449  0.0712  0.9041
  293MOL0     H39552   3.324  10.398   1.714  0.0938 -0.0930  0.2982
  293MOL0     H39553   3.566  10.054   1.691 -0.6398  0.2912 -3.2814
  293MOL0     H39554   3.150  10.481   2.317  3.0782 -1.1737 -0.9598
  293MOL0     H39555   2.965  10.381   2.416  2.8893  2.2343  0.3669
  294MOL0     O39556   5.073   2.970   7.118 -0.0875  0.3456 -1.0926
  294MOL0     C39557   5.130   2.863   7.119 -0.0066 -0.0070 -0.0183
  294MOL0     O39558   5.079   2.744   7.159  0.5618  0.1665 -0.3129
  294MOL0     C39559   4.943   2.726   7.163 -0.2597 -0.7174 -0.0825
  294MOL0     C39560   4.882   2.683   7.286  0.9613  0.6583 -0.4848
  294MOL0     C39561   4.743   2.676   7.298 -0.4167  0.5789  0.6568
  294MOL0     C39562   4.658   2.709   7.191 -0.2883  0.1705  1.1753
  294MOL0     O39563   4.525   2.701   7.187  0.8444 -0.0473  0.2306
  294MOL0     C39564   4.447   2.617   7.276 -0.5216 -0.6017  0.3764
  294MOL0     C39565   4.297   2.634   7.253 -0.1036 -0.5664  0.1166
  294MOL0     C39566   4.209   2.567   7.362 -0.5325  0.0525 -0.3685
  294MOL0     C39567   4.056   2.594   7.343 -1.0015 -0.9374 -0.4434
  294MOL0     C39568   3.971   2.466   7.376 -0.1841  0.6951 -1.6917
  294MOL0     C39569   3.825   2.483   7.345  0.4708  0.4225 -0.7836
  294MOL0     C39570   3.751   2.357   7.362 -0.0620  0.5696 -0.2670
  294MOL0     C39571   3.605   2.390   7.330 -0.1484 -0.2601  1.4318
  294MOL0     N39572   3.522   2.439   7.442  1.0896  0.1618  0.4603
  294MOL0     C39573   3.405   2.368   7.477  0.8072  0.1834 -0.0888
  294MOL0     C39574   3.334   2.448   7.559 -0.5723 -0.7574  0.4533
  294MOL0     C39575   3.217   2.419   7.639  0.7700 -0.2424 -0.0925
  294MOL0     C39576   3.155   2.533   7.719  0.0796  0.3366 -0.1630
  294MOL0     C39577   3.045   2.477   7.819 -0.0496 -0.3261 -1.2746
  294MOL0     C39578   2.992   2.579   7.913 -1.0631  0.3166 -0.5502
  294MOL0     O39579   2.861   2.621   7.880  0.2525 -0.3466  0.1882
  294MOL0     C39580   2.780   2.675   7.979 -0.6668 -0.3092 -0.6221
  294MOL0     C39581   2.815   2.758   8.090 -0.2352 -0.1342 -0.6666
  294MOL0     C39582   2.711   2.809   8.172  0.2478  0.4300  0.2163
  294MOL0     C39583   2.747   2.890   8.292 -0.5919 -0.7285  0.1249
  294MOL0     C39584   2.571   2.800   8.137  0.1366  0.2721  0.6266
  294MOL0     C39585   2.460   2.859   8.211 -0.3916 -0.1811 -0.4114
  294MOL0     O39586   2.476   2.882   8.346  0.0504 -0.0591 -0.5667
  294MOL0     C39587   2.384   2.962   8.414  0.2823  0.4807  0.4469
  294MOL0     C39588   2.438   3.072   8.480 -0.2673 -0.5414 -0.3558
  294MOL0     C39589   2.354   3.166   8.544  0.8958 -0.0944 -0.1102
  294MOL0     C39590   2.214   3.151   8.543  0.1984  0.2599 -0.3744
  294MOL0     O39591   2.130   3.237   8.609  0.1201 -0.8636 -0.1368
  294MOL0     C39592   2.008   3.275   8.547 -0.5543  0.4107 -0.1732
  294MOL0     C39593   1.996   3.426   8.536 -0.1795  0.2291  1.2515
  294MOL0     C39594   1.974   3.496   8.664  0.8806  0.9836 -0.2689
  294MOL0     C39595   2.045   3.621   8.672 -0.2833  0.4880 -0.4696
  294MOL0     C39596   2.038   3.714   8.797 -0.2154  0.1282 -0.4774
  294MOL0     C39597   1.894   3.780   8.808  0.2236 -0.1233  0.3848
  294MOL0     C39598   1.867   3.848   8.941  0.0742  0.2769  0.0088
  294MOL0     C39599   1.961   3.967   8.970 -0.6011  0.1827 -0.0491
  294MOL0    Cl39600   1.936   4.041   9.125 -0.4753  0.1595 -0.6445
  294MOL0     C39601   2.166   3.038   8.479  0.1075 -0.0974 -0.2874
  294MOL0     C39602   2.245   2.942   8.421 -0.4109 -0.2787 -0.6785
  294MOL0     O39603   2.352   2.891   8.147  0.1536 -0.0975 -0.0810
  294MOL0     C39604   2.549   2.730   8.016 -0.5365  0.5228 -1.0602
  294MOL0     C39605   2.645   2.666   7.945 -0.9268 -0.9428  1.2406
  294MOL0     N39606   3.418   2.551   7.584 -0.5135  0.4661 -0.1122
  294MOL0     N39607   3.530   2.548   7.520 -0.3159 -0.4712  0.6674
  294MOL0     C39608   4.720   2.748   7.068  0.2171  0.5991  0.5430
  294MOL0     C39609   4.856   2.758   7.058 -0.5093 -0.2043 -0.4751
  294MOL0     C39610   5.270   2.855   7.060 -0.3306  0.0734  0.0511
  294MOL0     C39611   5.322   2.727   7.048 -0.1842  0.1052 -0.6444
  294MOL0     C39612   5.457   2.711   7.016  1.2391 -0.3546 -0.7775
  294MOL0     C39613   5.539   2.816   7.000 -0.4523  0.1221  0.3891
  294MOL0     O39614   5.666   2.805   6.949 -0.0468 -0.1348  0.1429
  294MOL0     C39615   5.731   2.679   6.925  0.3946  0.1622  0.0237
  294MOL0     C39616   5.872   2.715   6.904  0.2254  0.0130 -0.1050
  294MOL0     C39617   5.964   2.591   6.895 -0.7270  1.0981 -0.1441
  294MOL0     C39618   6.120   2.608   6.877  0.5757 -0.4738 -0.3877
  294MOL0     C39619   6.189   2.693   6.969  0.6119 -0.0615  0.5745
  294MOL0     C39620   6.238   2.752   7.058 -0.9057  0.1903 -0.3082
  294MOL0     C39621   5.483   2.951   7.014 -0.0100  0.6131  0.6084
  294MOL0     C39622   5.347   2.968   7.038 -0.2126 -0.2833 -0.6576
  294MOL0     H39623   4.939   2.672   7.377 -1.7531  0.2087  1.2816
  294MOL0     H39624   4.711   2.654   7.399 -2.6196 -3.0404 -0.6414
  294MOL0     H39625   4.469   2.511   7.256 -1.2360 -1.0653  1.9458
  294MOL0     H39626   4.459   2.653   7.378 -0.9251  0.9143 -0.0799
  294MOL0     H39627   4.284   2.742   7.262 -3.0533 -1.0171  3.2556
  294MOL0     H39628   4.272   2.604   7.151  2.2287  0.5735 -0.8772
  294MOL0     H39629   4.225   2.459   7.351  1.0137 -0.0061  1.7266
  294MOL0     H39630   4.244   2.599   7.461 -0.7968  4.1943 -1.4536
  294MOL0     H39631   4.033   2.685   7.399  1.9610 -1.6533  2.1837
  294MOL0     H39632   4.046   2.621   7.238  0.8185 -0.2634 -0.4657
  294MOL0     H39633   4.011   2.380   7.321  1.4566  0.2567  0.0886
  294MOL0     H39634   3.991   2.441   7.481 -1.0656 -0.5452 -1.7988
  294MOL0     H39635   3.780   2.568   7.396 -2.9277 -1.8300  0.3413
  294MOL0     H39636   3.827   2.489   7.236 -0.2775 -2.6838 -1.0839
  294MOL0     H39637   3.768   2.281   7.285 -1.6125  1.0323 -1.1164
  294MOL0     H39638   3.764   2.320   7.464 -0.2594  1.0562 -0.0591
  294MOL0     H39639   3.562   2.300   7.286 -0.1390  0.1583  0.5481
  294MOL0     H39640   3.598   2.472   7.258 -4.3770  1.1017  3.0337
  294MOL0     H39641   3.360   2.274   7.447 -4.3991  2.4347 -0.3076
  294MOL0     H39642   3.138   2.379   7.575 -0.0385  1.2882 -0.1039
  294MOL0     H39643   3.238   2.344   7.715  0.0698  1.1304  1.5144
  294MOL0     H39644   3.096   2.596   7.653 -0.7299 -0.7314 -0.4946
  294MOL0     H39645   3.224   2.594   7.778 -0.5307 -0.5812  1.5838
  294MOL0     H39646   3.093   2.388   7.859  2.0734  0.2716 -2.3191
  294MOL0     H39647   2.959   2.444   7.759 -1.8587  4.1073 -1.5145
  294MOL0     H39648   3.042   2.676   7.911 -0.4676  0.0528  0.7066
  294MOL0     H39649   3.003   2.539   8.014 -2.0614  1.7612  0.1665
  294MOL0     H39650   2.919   2.788   8.099 -0.3290 -0.0119  0.0045
  294MOL0     H39651   2.718   2.837   8.384  2.4381  0.7362  2.0868
  294MOL0     H39652   2.856   2.902   8.297 -0.4673 -1.7161 -0.0307
  294MOL0     H39653   2.710   2.992   8.283  3.0513  0.9987  2.1550
  294MOL0     H39654   2.547   3.070   8.481 -0.2546 -1.9166  1.7346
  294MOL0     H39655   2.398   3.255   8.588  0.9446 -0.4809  0.6416
  294MOL0     H39656   2.001   3.231   8.446  0.7066  0.9434 -0.5096
  294MOL0     H39657   1.926   3.233   8.606  0.4232 -2.6500 -0.8006
  294MOL0     H39658   2.090   3.455   8.487  0.2587 -3.3251 -0.3797
  294MOL0     H39659   1.927   3.453   8.456  0.5938 -0.6657  0.2453
  294MOL0     H39660   2.001   3.435   8.751  2.1258 -1.0874 -2.0320
  294MOL0     H39661   1.867   3.521   8.669  0.7738  0.5188 -0.1861
  294MOL0     H39662   2.149   3.593   8.653  0.1893 -0.1303  2.5220
  294MOL0     H39663   2.007   3.674   8.585  0.2073  0.4440 -0.7164
  294MOL0     H39664   2.117   3.789   8.784 -1.1995  1.0153 -1.6595
  294MOL0     H39665   2.043   3.659   8.891 -1.9735 -0.9232 -0.9559
  294MOL0     H39666   1.865   3.847   8.726  0.4618 -1.6016 -0.9779
  294MOL0     H39667   1.814   3.706   8.814  1.5415 -1.5099  2.5654
  294MOL0     H39668   1.881   3.776   9.021 -1.6623 -0.2013 -0.0833
  294MOL0     H39669   1.763   3.882   8.938  0.4006  1.4138  0.8902
  294MOL0     H39670   1.939   4.041   8.893  2.2317 -0.0632 -1.2017
  294MOL0     H39671   2.065   3.932   8.970 -0.9855 -1.0364  1.1773
  294MOL0     H39672   2.059   3.022   8.491 -0.1214  0.8125 -0.9828
  294MOL0     H39673   2.200   2.853   8.380  0.8353 -2.1755  1.8190
  294MOL0     H39674   2.452   2.720   7.968  0.4674 -0.1530 -3.0337
  294MOL0     H39675   2.626   2.605   7.857 -2.7276 -0.8424  1.5311
  294MOL0     H39676   4.658   2.776   6.984 -1.2364 -3.0793  0.1954
  294MOL0     H39677   4.899   2.792   6.964 -2.3722 -0.5329 -1.5013
  294MOL0     H39678   5.262   2.639   7.067 -1.1017  0.5041 -1.5502
  294MOL0     H39679   5.499   2.611   7.018  4.1961  0.7821  0.7908
  294MOL0     H39680   5.721   2.614   7.012 -0.2492  1.1070  0.6791
  294MOL0     H39681   5.700   2.642   6.827  0.6893  1.0171 -0.4066
  294MOL0     H39682   5.911   2.768   6.992  3.3341 -1.5286 -0.4133
  294MOL0     H39683   5.896   2.779   6.819  1.7735 -3.5204 -2.5982
  294MOL0     H39684   5.923   2.526   6.817 -0.2885  0.9661 -0.2637
  294MOL0     H39685   5.953   2.540   6.991 -2.4020 -0.2101 -0.9862
  294MOL0     H39686   6.129   2.658   6.780  0.4491  1.6336  0.6425
  294MOL0     H39687   6.159   2.506   6.870  0.4354 -0.5242 -0.4569
  294MOL0     H39688   6.290   2.779   7.147  1.1081  0.4364 -1.4963
  294MOL0     H39689   5.539   3.043   7.013 -0.9736  1.2219 -0.9960
  294MOL0     H39690   5.318   3.071   7.056  0.9584  0.2113 -1.5084
  295MOL0     O39691   7.766   9.992   6.071  0.5773  0.9624 -0.3858
  295MOL0     C39692   7.736  10.039   5.958  0.1796  1.2032 -0.0790
  295MOL0     O39693   7.619  10.098   5.921  0.7187 -0.6489  0.4319
  295MOL0     C39694   7.513  10.126   6.006 -0.0336 -0.8678 -0.0180
  295MOL0     C39695   7.506  10.124   6.148 -0.3483 -0.1179  0.7486
  295MOL0     C39696   7.400  10.187   6.218 -0.8067  0.5392 -0.5576
  295MOL0     C39697   7.302  10.251   6.156  0.9888 -0.3422  0.3889
  295MOL0     O39698   7.210  10.336   6.211  0.1792  1.1719  0.4279
  295MOL0     C39699   7.195  10.330   6.354 -0.3822 -0.2826  0.3238
  295MOL0     C39700   7.082  10.437   6.389 -0.6956  0.5012 -0.2855
  295MOL0     C39701   6.947  10.385   6.342  0.2916  0.3291  0.1797
  295MOL0     C39702   6.857  10.485   6.270  0.4994 -0.1220  0.4529
  295MOL0     C39703   6.908  10.521   6.130 -0.4546 -0.0460 -0.1180
  295MOL0     C39704   6.862  10.414   6.028 -0.5073 -0.0557  0.3361
  295MOL0     C39705   6.921  10.456   5.892  0.9232 -0.9307  0.6140
  295MOL0     C39706   6.845  10.368   5.786  0.1475 -0.6572  0.6732
  295MOL0     N39707   6.705  10.422   5.754 -0.3232  1.0913 -0.9228
  295MOL0     C39708   6.617  10.350   5.677  0.6277  0.2695  0.4175
  295MOL0     C39709   6.518  10.438   5.651 -0.3653 -0.0550  0.2831
  295MOL0     C39710   6.391  10.408   5.570 -0.2553 -0.3592 -0.5250
  295MOL0     C39711   6.428  10.364   5.429 -0.0972 -1.3521 -0.3785
  295MOL0     C39712   6.314  10.310   5.352 -0.6131  0.6708 -0.9961
  295MOL0     C39713   6.374  10.285   5.214  0.9090  0.3757 -0.1629
  295MOL0     O39714   6.394  10.408   5.149 -0.3429 -0.5312 -0.4253
  295MOL0     C39715   6.507  10.428   5.084 -0.1103 -0.7000  0.2136
  295MOL0     C39716   6.563  10.337   5.003  0.2455  0.6508 -0.2963
  295MOL0     C39717   6.691  10.346   4.948 -0.3319 -0.7382  0.3687
  295MOL0     C39718   6.752  10.234   4.870 -0.2605  0.3362  0.4910
  295MOL0     C39719   6.758  10.476   4.964 -0.0932  0.0857 -0.7158
  295MOL0     C39720   6.887  10.526   4.916  0.8639  0.0399  0.5361
  295MOL0     O39721   6.919  10.658   4.903 -0.4302 -0.0241  0.6385
  295MOL0     C39722   7.049  10.701   4.876 -0.2743 -0.0991  0.7030
  295MOL0     C39723   7.067  10.838   4.909  0.4345  1.0578 -0.1664
  295MOL0     C39724   7.196  10.892   4.904 -1.0566  0.2663 -0.0181
  295MOL0     C39725   7.296  10.820   4.829 -0.2578 -0.1026  0.8573
  295MOL0     O39726   7.408  10.877   4.791  0.3620 -0.3001  0.4775
  295MOL0     C39727   7.480  10.934   4.900 -1.0011 -0.9929  0.0048
  295MOL0     C39728   7.626  10.957   4.860 -0.5543  0.3654 -0.8713
  295MOL0     C39729   7.702  10.819   4.845 -1.2214 -0.4330 -0.2018
  295MOL0     C39730   7.667  10.735   4.717  0.4113 -0.0969  0.0439
  295MOL0     C39731   7.697  10.584   4.735  0.2980  0.6739  0.0214
  295MOL0     C39732   7.826  10.558   4.811 -0.4232  0.1295  0.3477
  295MOL0     C39733   7.861  10.413   4.793  0.7614  0.6116 -0.4482
  295MOL0     C39734   7.765  10.331   4.878 -0.7039  0.0598  0.6009
  295MOL0    Cl39735   7.766  10.339   5.052  0.0011 -0.5904  0.2335
  295MOL0     C39736   7.275  10.682   4.799  0.5094 -0.3186 -0.5872
  295MOL0     C39737   7.146  10.625   4.821 -0.4912  0.4724  0.0880
  295MOL0     O39738   6.963  10.433   4.908  0.0964  0.1894  0.5002
  295MOL0     C39739   6.698  10.566   5.049 -0.0946  0.1346  0.6286
  295MOL0     C39740   6.578  10.551   5.108  0.6141 -0.1535 -0.6217
  295MOL0     N39741   6.554  10.555   5.693  0.1262 -0.0994 -0.2426
  295MOL0     N39742   6.666  10.553   5.750  0.4589  0.2609  0.4470
  295MOL0     C39743   7.310  10.245   6.009  0.7532  0.2003 -0.6757
  295MOL0     C39744   7.411  10.182   5.940  0.2868 -0.2531 -0.0850
  295MOL0     C39745   7.839  10.024   5.850  1.2884 -0.4634 -1.2793
  295MOL0     C39746   7.952   9.950   5.879 -1.0636  0.5043  0.1996
  295MOL0     C39747   8.046   9.924   5.777 -0.3651 -0.5225  0.5189
  295MOL0     C39748   8.025   9.960   5.638  0.1899 -0.3074 -1.0406
  295MOL0     O39749   8.121   9.949   5.538 -0.1520 -0.5179  0.1958
  295MOL0     C39750   8.233   9.865   5.576 -0.0738 -0.2038 -0.0704
  295MOL0     C39751   8.324   9.852   5.459  0.0393 -0.3750 -0.4982
  295MOL0     C39752   8.458   9.775   5.485 -0.0216  0.2616  0.4863
  295MOL0     C39753   8.444   9.625   5.499 -0.2130 -0.2753 -0.8507
  295MOL0     C39754   8.573   9.558   5.497  0.3140  0.0699 -0.1613
  295MOL0     C39755   8.674   9.487   5.496 -0.0188  0.0279  0.3448
  295MOL0     C39756   7.900  10.029   5.617  0.1706  0.3868  0.9146
  295MOL0     C39757   7.817  10.060   5.712  0.2146 -0.6494 -0.2863
  295MOL0     H39758   7.588  10.089   6.210 -0.4421 -0.0573  0.9094
  295MOL0     H39759   7.412  10.184   6.326 -2.6362 -0.3910 -0.3330
  295MOL0     H39760   7.156  10.231   6.381  3.4013 -2.0883 -0.1737
  295MOL0     H39761   7.286  10.351   6.410 -0.5974  2.2352 -0.1425
  295MOL0     H39762   7.089  10.459   6.496  1.2683 -2.4234  0.3104
  295MOL0     H39763   7.098  10.534   6.341 -1.2250  0.9708  0.4543
  295MOL0     H39764   6.951  10.296   6.279  0.8299 -0.1159  0.8187
  295MOL0     H39765   6.890  10.349   6.428 -0.8095  0.0061 -0.6571
  295MOL0     H39766   6.758  10.440   6.260 -0.5385  2.1335 -0.0080
  295MOL0     H39767   6.845  10.579   6.324  0.5477  0.8555 -1.1781
  295MOL0     H39768   6.881  10.626   6.114 -0.9681  0.1736  1.8642
  295MOL0     H39769   7.017  10.517   6.120 -0.5988 -1.6910 -1.5560
  295MOL0     H39770   6.888  10.314   6.064 -0.5028  0.2221  1.1329
  295MOL0     H39771   6.753  10.406   6.024 -0.4814 -1.0432  1.0922
  295MOL0     H39772   6.910  10.565   5.881  0.5502 -1.1726 -2.3430
  295MOL0     H39773   7.024  10.420   5.899  0.6386 -1.7071  0.9311
  295MOL0     H39774   6.839  10.265   5.822 -1.0211 -1.0626 -0.6036
  295MOL0     H39775   6.891  10.371   5.686 -2.4519  1.0792 -0.5850
  295MOL0     H39776   6.618  10.248   5.639 -0.7188 -0.7887  2.9214
  295MOL0     H39777   6.338  10.330   5.624  0.4806 -0.7214 -0.3096
  295MOL0     H39778   6.315  10.486   5.565  0.2693  0.1639 -0.5212
  295MOL0     H39779   6.505  10.288   5.445  2.3726  0.2167 -3.4223
  295MOL0     H39780   6.467  10.454   5.381 -0.9302 -0.5838  0.3536
  295MOL0     H39781   6.235  10.384   5.364  1.1638  2.3282  1.4980
  295MOL0     H39782   6.292  10.213   5.398  0.3289  0.9802  0.1384
  295MOL0     H39783   6.307  10.230   5.147  0.1450  2.2305 -0.9978
  295MOL0     H39784   6.470  10.232   5.222 -1.3831 -4.7994 -2.2194
  295MOL0     H39785   6.508  10.254   4.960 -0.1842  1.5687 -1.5806
  295MOL0     H39786   6.766  10.260   4.765 -2.7555  0.4084  0.1315
  295MOL0     H39787   6.842  10.190   4.915 -0.2913 -2.0631 -1.5457
  295MOL0     H39788   6.684  10.148   4.870  1.7449 -1.3346  0.4652
  295MOL0     H39789   6.981  10.899   4.935  1.9858  2.5850  1.7612
  295MOL0     H39790   7.216  10.995   4.933 -0.5829 -0.4556  2.4803
  295MOL0     H39791   7.440  11.032   4.927  0.5410 -0.1438 -0.6787
  295MOL0     H39792   7.478  10.878   4.994 -2.4854  1.4993  1.5669
  295MOL0     H39793   7.634  10.995   4.758  1.4730  0.4856 -0.7090
  295MOL0     H39794   7.677  11.025   4.928 -0.7706  1.3487 -1.6824
  295MOL0     H39795   7.696  10.760   4.937  1.0408 -0.1389  0.1941
  295MOL0     H39796   7.810  10.830   4.828 -0.6258 -2.5691  1.6656
  295MOL0     H39797   7.566  10.742   4.675  1.0565 -1.3584 -1.8879
  295MOL0     H39798   7.730  10.792   4.648  1.2040  1.1187  1.6976
  295MOL0     H39799   7.698  10.534   4.638 -0.8195 -1.9920  1.2809
  295MOL0     H39800   7.613  10.544   4.793 -1.6380 -0.2090 -3.1693
  295MOL0     H39801   7.910  10.617   4.771  0.3410 -0.5192  0.9705
  295MOL0     H39802   7.808  10.587   4.915 -0.0655  1.7328 -0.0062
  295MOL0     H39803   7.957  10.397   4.842 -0.3358 -3.3717  0.7777
  295MOL0     H39804   7.863  10.390   4.686  0.1151 -3.1253  0.2001
  295MOL0     H39805   7.792  10.230   4.845  2.9458  0.6803  1.2981
  295MOL0     H39806   7.658  10.349   4.862 -0.8821 -2.1033 -1.0703
  295MOL0     H39807   7.353  10.624   4.750  0.3158  1.4721 -3.2059
  295MOL0     H39808   7.123  10.522   4.796  0.1946 -0.1787  2.0085
  295MOL0     H39809   6.743  10.664   5.064 -1.0898  1.1899 -2.4680
  295MOL0     H39810   6.514  10.620   5.162 -2.7919 -0.7069 -3.5660
  295MOL0     H39811   7.231  10.294   5.954  0.8248  2.2160  0.8951
  295MOL0     H39812   7.434  10.193   5.834 -0.8219  1.5526 -0.1787
  295MOL0     H39813   7.969   9.911   5.979 -2.0080 -1.5500 -0.3752
  295MOL0     H39814   8.132   9.867   5.809  2.4083  3.2067  0.3870
  295MOL0     H39815   8.287   9.910   5.660 -0.9885  1.6704 -0.4396
  295MOL0     H39816   8.205   9.765   5.611  0.0664 -0.2802 -0.1752
  295MOL0     H39817   8.357   9.949   5.421 -0.2237  0.3929  1.1465
  295MOL0     H39818   8.259   9.805   5.384 -1.5101  0.2222  0.4112
  295MOL0     H39819   8.512   9.814   5.572  0.0841  0.8743  0.1468
  295MOL0     H39820   8.533   9.795   5.407  1.3681  1.3560  2.0282
  295MOL0     H39821   8.375   9.579   5.429  2.8967 -0.5741 -3.9950
  295MOL0     H39822   8.409   9.607   5.601  0.9310 -0.9530 -0.5632
  295MOL0     H39823   8.759   9.426   5.514 -2.3627 -2.9326  2.4526
  295MOL0     H39824   7.879  10.071   5.519 -2.0810 -0.5361  0.9263
  295MOL0     H39825   7.734  10.121   5.678 -0.4163 -0.6021  1.2584
  296MOL0     O39826   0.839   5.400  10.558  0.5028  0.2373  0.6954
  296MOL0     C39827   0.915   5.493  10.566  0.1845  0.3986 -0.2313
  296MOL0     O39828   0.887   5.617  10.521  0.3808 -1.0147 -0.7193
  296MOL0     C39829   0.756   5.640  10.468  0.0534 -1.2387  0.8570
  296MOL0     C39830   0.639   5.594  10.539  0.2677  0.2099  0.5460
  296MOL0     C39831   0.519   5.647  10.501 -0.2929 -0.6356 -0.2212
  296MOL0     C39832   0.505   5.737  10.402  0.8208 -0.7546 -0.5481
  296MOL0     O39833   0.376   5.773  10.372 -0.4216 -0.2316 -0.7851
  296MOL0     C39834   0.350   5.898  10.302  0.0859 -0.1776 -0.6343
  296MOL0     C39835   0.219   5.961  10.351  0.9245  0.5808  0.1585
  296MOL0     C39836   0.096   5.884  10.310  1.4979  0.2086  0.8291
  296MOL0     C39837  -0.036   5.941  10.371 -0.8905  0.1528 -0.2772
  296MOL0     C39838  -0.169   5.882  10.315 -0.5462  0.1355 -0.5915
  296MOL0     C39839  -0.295   5.909  10.392 -0.3660 -0.6837  0.5882
  296MOL0     C39840  -0.399   5.790  10.357 -0.2535 -0.3692 -1.5115
  296MOL0     C39841  -0.549   5.829  10.359 -0.4267 -0.8017  1.0749
  296MOL0     N39842  -0.644   5.716  10.356 -1.0851 -0.2357  0.1303
  296MOL0     C39843  -0.740   5.687  10.259 -1.1213  0.1527 -0.2646
  296MOL0     C39844  -0.766   5.554  10.290  1.3323 -0.4712  0.0263
  296MOL0     C39845  -0.862   5.484  10.202  0.5370 -0.8333 -0.1371
  296MOL0     C39846  -0.902   5.350  10.267  0.2934  0.4750 -1.0140
  296MOL0     C39847  -0.800   5.232  10.273  0.4223 -0.2649  0.0844
  296MOL0     C39848  -0.866   5.105  10.339  0.5853  0.0249 -0.6374
  296MOL0     O39849  -0.933   5.035  10.239  0.8302  0.1256  0.6051
  296MOL0     C39850  -1.007   4.927  10.283  0.6753  0.0236 -0.0539
  296MOL0     C39851  -1.083   4.865  10.186  0.2951 -0.3797 -0.2654
  296MOL0     C39852  -1.167   4.754  10.211  0.4182 -0.2617 -0.8888
  296MOL0     C39853  -1.260   4.699  10.098 -0.2105 -0.2914  0.3518
  296MOL0     C39854  -1.151   4.694  10.341 -0.2386 -0.1654 -0.2251
  296MOL0     C39855  -1.213   4.576  10.371  0.3597  0.0984 -0.1792
  296MOL0     O39856  -1.174   4.519  10.485  0.3386 -0.4280  0.2641
  296MOL0     C39857  -1.245   4.417  10.556 -0.2741 -1.1337  0.1359
  296MOL0     C39858  -1.171   4.354  10.660  0.6827 -0.0947 -0.4268
  296MOL0     C39859  -1.238   4.269  10.750  0.0373 -0.0867  0.0651
  296MOL0     C39860  -1.378   4.241  10.743 -0.5158 -0.1862 -0.6475
  296MOL0     O39861  -1.444   4.168  10.832 -0.0279  0.2529  0.0021
  296MOL0     C39862  -1.383   4.042  10.867  0.6157 -0.3609  1.0134
  296MOL0     C39863  -1.369   3.945  10.756 -0.3533 -0.9997 -0.4290
  296MOL0     C39864  -1.333   3.808  10.800  1.1001 -0.0593  0.8198
  296MOL0     C39865  -1.312   3.692  10.693 -0.4584  0.0486  0.6844
  296MOL0     C39866  -1.293   3.566  10.769 -0.3543 -0.4620 -0.2218
  296MOL0     C39867  -1.307   3.450  10.674  0.8159 -0.1687 -0.5897
  296MOL0     C39868  -1.196   3.442  10.573 -1.0870  0.9469  1.1143
  296MOL0     C39869  -1.196   3.309  10.482  0.4357  0.5572  0.2053
  296MOL0    Cl39870  -1.052   3.282  10.375 -0.2838 -0.1837 -0.2455
  296MOL0     C39871  -1.449   4.305  10.638 -0.6150 -0.0942 -0.0046
  296MOL0     C39872  -1.381   4.390  10.547  0.2105  0.8827 -0.2165
  296MOL0     O39873  -1.306   4.533  10.306 -0.0543 -0.2158 -0.1601
  296MOL0     C39874  -1.067   4.747  10.432 -0.1195 -0.4582  0.4719
  296MOL0     C39875  -0.995   4.864  10.405  0.8234 -0.3735 -0.5356
  296MOL0     N39876  -0.710   5.513  10.409  0.0018 -0.2036  0.1895
  296MOL0     N39877  -0.630   5.606  10.440  0.4427  0.1864  0.3719
  296MOL0     C39878   0.619   5.779  10.331  0.4651 -0.1452 -1.1828
  296MOL0     C39879   0.743   5.733  10.368  0.7607 -0.0194 -0.6679
  296MOL0     C39880   1.037   5.487  10.645  0.9676  1.2786 -0.4546
  296MOL0     C39881   1.064   5.385  10.740  0.5314  0.5581 -0.4279
  296MOL0     C39882   1.177   5.396  10.833  1.0624 -1.0687 -0.8043
  296MOL0     C39883   1.264   5.496  10.823 -0.2860 -0.7697  0.3395
  296MOL0     O39884   1.357   5.512  10.921  0.4820  0.5836 -0.2218
  296MOL0     C39885   1.483   5.594  10.887  0.0737  0.5596  0.2528
  296MOL0     C39886   1.597   5.500  10.891  0.7058 -0.6353 -0.6203
  296MOL0     C39887   1.731   5.565  10.889 -0.8836 -0.7393  0.6202
  296MOL0     C39888   1.771   5.659  10.998  0.6873  0.0341  0.1437
  296MOL0     C39889   1.908   5.692  10.993 -0.7534 -0.4726  0.0926
  296MOL0     C39890   2.025   5.726  10.983  0.5467  0.7912  0.4861
  296MOL0     C39891   1.241   5.594  10.723  0.8198 -0.5314  0.7080
  296MOL0     C39892   1.128   5.591  10.644 -0.1600  0.4977 -0.4642
  296MOL0     H39893   0.650   5.540  10.633 -1.0763 -0.4035  0.3756
  296MOL0     H39894   0.431   5.619  10.558 -1.4949 -0.4234 -1.9012
  296MOL0     H39895   0.439   5.958  10.325  0.1944 -1.7489  4.1117
  296MOL0     H39896   0.347   5.889  10.193  0.2587  1.5764 -0.8103
  296MOL0     H39897   0.231   5.975  10.458 -2.9480 -0.9560  0.9671
  296MOL0     H39898   0.209   6.057  10.298  2.5108  2.1669  2.5312
  296MOL0     H39899   0.094   5.893  10.201  1.7587 -0.7755  0.7355
  296MOL0     H39900   0.113   5.781  10.342  1.7862  1.0099  3.4852
  296MOL0     H39901  -0.032   5.929  10.480 -3.0862  1.7767  0.0706
  296MOL0     H39902  -0.039   6.050  10.360 -0.6709  1.1072  5.6274
  296MOL0     H39903  -0.183   5.904  10.209 -0.5248  0.3473 -0.5506
  296MOL0     H39904  -0.154   5.774  10.326  0.4885  0.1274 -1.8170
  296MOL0     H39905  -0.277   5.910  10.500 -3.4053  1.7646  1.2013
  296MOL0     H39906  -0.333   6.006  10.360 -0.9037 -0.7062  1.1538
  296MOL0     H39907  -0.372   5.759  10.256 -0.5419 -3.2257 -0.8117
  296MOL0     H39908  -0.378   5.709  10.427  1.2951 -1.0699 -2.7191
  296MOL0     H39909  -0.572   5.887  10.269  0.8278 -0.4857  0.9247
  296MOL0     H39910  -0.569   5.893  10.445  1.3585 -0.5311  1.3366
  296MOL0     H39911  -0.767   5.745  10.172 -0.0940  0.0809 -0.6428
  296MOL0     H39912  -0.950   5.539  10.167  0.6171  0.3358  1.3665
  296MOL0     H39913  -0.808   5.468  10.109 -0.2854  1.4647 -1.1025
  296MOL0     H39914  -0.992   5.310  10.219 -0.5871 -0.1327  1.0298
  296MOL0     H39915  -0.923   5.367  10.373 -0.4090 -0.6056 -0.9645
  296MOL0     H39916  -0.729   5.267  10.349 -1.1464 -0.3640  1.6701
  296MOL0     H39917  -0.751   5.205  10.179 -1.3283  0.0479 -0.9539
  296MOL0     H39918  -0.927   5.129  10.427  1.0385 -0.7225 -0.1058
  296MOL0     H39919  -0.783   5.042  10.373  0.2011  0.4368  1.1581
  296MOL0     H39920  -1.079   4.892  10.081  0.1209 -1.7137 -0.6337
  296MOL0     H39921  -1.361   4.674  10.132  0.8622 -1.6807  2.8461
  296MOL0     H39922  -1.270   4.778  10.024  0.2425  0.3878  1.0010
  296MOL0     H39923  -1.215   4.610  10.052  1.3833  0.8009 -0.3114
  296MOL0     H39924  -1.065   4.371  10.674  1.0556 -1.4521 -1.3344
  296MOL0     H39925  -1.187   4.228  10.837 -2.0673 -0.6082  1.1122
  296MOL0     H39926  -1.283   4.068  10.903  0.2947  1.9599  0.3846
  296MOL0     H39927  -1.445   4.004  10.949 -1.3471 -0.6575 -0.5289
  296MOL0     H39928  -1.468   3.947  10.707 -1.8623  0.7652  2.4342
  296MOL0     H39929  -1.289   3.983  10.692  0.1372 -1.3664 -0.0364
  296MOL0     H39930  -1.410   3.784  10.874 -0.7721  2.3721 -0.2275
  296MOL0     H39931  -1.234   3.821  10.844  1.4824  2.3176 -0.5435
  296MOL0     H39932  -1.402   3.687  10.632  0.8231 -1.7542 -1.1600
  296MOL0     H39933  -1.222   3.706  10.633  1.0951 -1.1400  2.5868
  296MOL0     H39934  -1.372   3.557  10.845 -0.2253 -2.8051 -0.2745
  296MOL0     H39935  -1.198   3.570  10.822 -0.5737  0.1487  0.1288
  296MOL0     H39936  -1.313   3.359  10.734  0.4661  0.7439  0.8029
  296MOL0     H39937  -1.405   3.453  10.625  0.3783 -2.6140  0.0277
  296MOL0     H39938  -1.106   3.445  10.635 -0.7203  0.3497  0.6139
  296MOL0     H39939  -1.203   3.527  10.505 -0.0251  0.1324 -0.0478
  296MOL0     H39940  -1.290   3.303  10.425  0.1983  1.0979  0.5341
  296MOL0     H39941  -1.199   3.223  10.550  1.0126 -1.9805 -2.7714
  296MOL0     H39942  -1.556   4.286  10.637 -0.1425 -3.5017  1.3794
  296MOL0     H39943  -1.443   4.437  10.472 -0.1601  1.9300  0.7180
  296MOL0     H39944  -1.056   4.702  10.530  1.8099 -0.1459  0.4373
  296MOL0     H39945  -0.936   4.916  10.481 -1.6180  0.2373  1.0659
  296MOL0     H39946   0.607   5.840  10.242 -4.2186  0.9870 -0.0268
  296MOL0     H39947   0.830   5.782  10.327  1.2280  0.3966  0.7904
  296MOL0     H39948   0.991   5.306  10.745  1.4449 -0.2135  1.4996
  296MOL0     H39949   1.206   5.317  10.902 -1.9315 -1.0487  0.6293
  296MOL0     H39950   1.483   5.651  10.794 -3.4684  1.8864  0.9379
  296MOL0     H39951   1.496   5.666  10.968 -3.6548  1.3431  0.3430
  296MOL0     H39952   1.589   5.422  10.815  1.7413 -0.5258 -0.8601
  296MOL0     H39953   1.588   5.447  10.986  1.1286 -0.3785 -0.4335
  296MOL0     H39954   1.746   5.598  10.786 -0.6793 -0.6588  0.6746
  296MOL0     H39955   1.805   5.485  10.892 -0.3448 -0.5062 -2.9104
  296MOL0     H39956   1.745   5.606  11.091 -2.9767 -2.7852 -2.1817
  296MOL0     H39957   1.721   5.755  10.987 -4.1587 -2.1211  0.7885
  296MOL0     H39958   2.116   5.781  10.992 -0.6947  3.3099 -1.1777
  296MOL0     H39959   1.307   5.679  10.706 -0.3102 -0.0089 -1.4850
  296MOL0     H39960   1.126   5.678  10.578  1.4962 -0.0449 -1.2749
  297MOL0     O39961  11.387   1.220   3.937  0.3075  0.0635 -0.1922
  297MOL0     C39962  11.470   1.151   3.876 -0.9971 -0.5576  0.6663
  297MOL0     O39963  11.445   1.030   3.813  0.8122 -0.2670  0.2040
  297MOL0     C39964  11.311   0.984   3.811 -0.7279  0.4377 -0.6190
  297MOL0     C39965  11.228   1.025   3.703  0.4767  0.6034 -0.5141
  297MOL0     C39966  11.096   0.971   3.690 -1.0339  0.6753  0.8518
  297MOL0     C39967  11.041   0.898   3.798 -0.4218  0.1926  0.2787
  297MOL0     O39968  10.925   0.835   3.786 -0.0133  0.0723  0.2149
  297MOL0     C39969  10.810   0.909   3.820  0.7501 -0.3070 -0.3221
  297MOL0     C39970  10.740   0.945   3.686 -0.1104  0.1839 -1.0719
  297MOL0     C39971  10.621   1.049   3.699 -0.5091  0.1457  0.1027
  297MOL0     C39972  10.488   0.988   3.740 -0.0980 -0.6487 -0.8982
  297MOL0     C39973  10.372   1.097   3.741 -0.4949 -0.4022 -0.1238
  297MOL0     C39974  10.242   1.025   3.748  0.5666 -0.5412 -1.1126
  297MOL0     C39975  10.134   1.133   3.772  0.8841 -0.4233  0.1099
  297MOL0     C39976  10.011   1.058   3.833 -0.4952 -0.1108 -0.2716
  297MOL0     N39977   9.899   1.144   3.814  0.5422  0.2904 -0.0054
  297MOL0     C39978   9.877   1.272   3.870  0.1032 -0.4328  0.3112
  297MOL0     C39979   9.765   1.323   3.814  0.1925 -0.7797  0.5463
  297MOL0     C39980   9.692   1.455   3.844 -0.3039  0.8587  0.6985
  297MOL0     C39981   9.541   1.435   3.875  0.0327 -0.3050 -0.1416
  297MOL0     C39982   9.484   1.556   3.940  0.4277 -0.6340  1.0557
  297MOL0     C39983   9.347   1.511   3.992 -0.5540  0.1037 -0.4800
  297MOL0     O39984   9.287   1.605   4.089 -0.0964 -0.4912  0.0184
  297MOL0     C39985   9.189   1.688   4.041  0.0524 -0.1580  0.3691
  297MOL0     C39986   9.207   1.770   3.928 -0.5162  0.0513 -0.3087
  297MOL0     C39987   9.105   1.852   3.886  0.0173 -0.4714  0.5548
  297MOL0     C39988   9.133   1.907   3.748  0.1890 -0.8119  1.1241
  297MOL0     C39989   8.971   1.853   3.942 -0.2922 -1.1109 -0.5321
  297MOL0     C39990   8.852   1.915   3.881 -0.0263 -0.4094 -0.1380
  297MOL0     O39991   8.738   1.877   3.928 -0.4920 -0.2930 -0.3046
  297MOL0     C39992   8.619   1.903   3.870  0.1710 -0.1538  0.0905
  297MOL0     C39993   8.503   1.912   3.953 -0.4252 -0.9562 -0.1731
  297MOL0     C39994   8.370   1.938   3.907  0.0195 -0.4582 -0.0533
  297MOL0     C39995   8.355   1.952   3.769  0.6825  0.3261 -0.3110
  297MOL0     O39996   8.236   1.986   3.707 -0.1947  0.0957 -0.6883
  297MOL0     C39997   8.118   2.010   3.792 -0.5873  0.8728 -0.6190
  297MOL0     C39998   8.017   2.060   3.706  0.4617 -0.5273 -0.0402
  297MOL0     C39999   7.875   2.053   3.760  0.0473  1.0710  0.0022
  297MOL0     C40000   7.752   2.038   3.661  0.5127 -1.0873 -0.6465
  297MOL0     C40001   7.743   2.156   3.578 -0.2187  0.0811  0.2457
  297MOL0     C40002   7.618   2.135   3.478  0.1878  0.1789  0.1319
  297MOL0     C40003   7.485   2.120   3.547  0.1161 -0.2403  0.1422
  297MOL0     C40004   7.365   2.196   3.484 -0.6625 -0.3853  0.1007
  297MOL0    Cl40005   7.315   2.139   3.315  0.3447  0.0357  0.0750
  297MOL0     C40006   8.467   1.927   3.678 -0.1624 -0.1183 -0.4840
  297MOL0     C40007   8.597   1.899   3.732 -0.2979  0.4635  0.2687
  297MOL0     O40008   8.873   2.020   3.817  0.3918 -0.0241  0.2265
  297MOL0     C40009   8.948   1.782   4.065  0.7066  0.7435  0.5924
  297MOL0     C40010   9.060   1.710   4.112  0.1609  0.3148  0.4080
  297MOL0     N40011   9.726   1.231   3.720  0.5336  0.3383  0.4264
  297MOL0     N40012   9.804   1.128   3.718  0.2698  0.2634  0.7707
  297MOL0     C40013  11.111   0.870   3.908 -0.8155  0.3130  0.8616
  297MOL0     C40014  11.250   0.910   3.917  0.1918  0.1725 -0.2087
  297MOL0     C40015  11.595   1.220   3.862 -0.9012 -0.7846 -0.3326
  297MOL0     C40016  11.603   1.367   3.848  0.6378 -0.1919 -0.2554
  297MOL0     C40017  11.728   1.424   3.806  0.7698 -0.2665  0.0340
  297MOL0     C40018  11.842   1.343   3.787  0.4176 -0.8441  0.1125
  297MOL0     O40019  11.957   1.417   3.773 -0.7634 -0.6946 -0.6733
  297MOL0     C40020  12.080   1.354   3.744 -0.3829  0.9682  0.0317
  297MOL0     C40021  12.180   1.470   3.727  0.0709  0.9729  0.0138
  297MOL0     C40022  12.198   1.542   3.863 -1.1539 -0.8343 -0.2345
  297MOL0     C40023  12.293   1.652   3.879 -1.1562 -0.7189 -0.1808
  297MOL0     C40024  12.307   1.746   3.764  0.7836  0.5125 -0.4912
  297MOL0     C40025  12.320   1.819   3.661 -0.2391 -0.1042 -0.0831
  297MOL0     C40026  11.835   1.208   3.790  0.8501  0.0773 -0.4196
  297MOL0     C40027  11.713   1.146   3.837 -0.7312  0.0457 -0.7320
  297MOL0     H40028  11.263   1.078   3.616 -1.3514  1.6051 -0.6800
  297MOL0     H40029  11.038   0.974   3.598  2.3679 -2.0382 -1.6476
  297MOL0     H40030  10.738   0.848   3.875 -0.0761  0.2515 -0.7590
  297MOL0     H40031  10.828   0.993   3.887 -0.6935 -0.0950 -0.1686
  297MOL0     H40032  10.813   0.972   3.609 -0.6277 -0.0260 -1.6461
  297MOL0     H40033  10.699   0.858   3.635 -2.7176  1.2102 -0.9051
  297MOL0     H40034  10.658   1.106   3.785  0.2704 -0.2728  0.0591
  297MOL0     H40035  10.613   1.109   3.608  0.4433  1.6440  0.9556
  297MOL0     H40036  10.467   0.914   3.663  2.9175 -1.9093 -0.6466
  297MOL0     H40037  10.489   0.946   3.841 -0.2842  2.0202  0.3010
  297MOL0     H40038  10.386   1.164   3.826 -0.5060  0.2760 -0.6544
  297MOL0     H40039  10.375   1.165   3.656  0.3000  0.6941  0.7541
  297MOL0     H40040  10.217   0.959   3.665 -0.9699  0.1077 -1.1835
  297MOL0     H40041  10.246   0.960   3.836  3.4875  2.6868  1.4237
  297MOL0     H40042  10.165   1.219   3.831  0.5603  0.7453 -1.3600
  297MOL0     H40043  10.104   1.172   3.674 -0.5831  1.7275  1.3192
  297MOL0     H40044  10.011   1.009   3.931 -3.1939 -1.7447 -0.9639
  297MOL0     H40045  10.000   0.966   3.774 -0.4156 -0.8806  0.8885
  297MOL0     H40046   9.942   1.327   3.937  0.8622 -2.4861  1.3753
  297MOL0     H40047   9.754   1.489   3.926  1.5571 -1.1813  0.2318
  297MOL0     H40048   9.709   1.521   3.758  3.3557  0.8902  1.3133
  297MOL0     H40049   9.553   1.360   3.954 -2.1517 -1.1633 -0.5445
  297MOL0     H40050   9.481   1.401   3.790 -0.0109  0.3143 -0.3578
  297MOL0     H40051   9.479   1.630   3.859 -1.3562 -1.8457  0.0090
  297MOL0     H40052   9.531   1.596   4.031 -2.7596  0.0728  2.5266
  297MOL0     H40053   9.365   1.413   4.037 -0.0593  0.7337  0.7358
  297MOL0     H40054   9.297   1.507   3.895  1.6741  0.2710 -1.6892
  297MOL0     H40055   9.304   1.767   3.880  0.8202 -2.0077  2.2039
  297MOL0     H40056   9.228   1.872   3.706 -0.3326  1.2158 -2.2067
  297MOL0     H40057   9.067   1.869   3.669  0.3382 -2.5054  1.7779
  297MOL0     H40058   9.119   2.015   3.745 -1.2876 -0.9981  0.2271
  297MOL0     H40059   8.506   1.901   4.061 -0.6293 -0.4968 -0.1177
  297MOL0     H40060   8.300   1.958   3.987  0.1112 -2.6827  0.6574
  297MOL0     H40061   8.081   1.919   3.840  2.1019  0.4095  0.7764
  297MOL0     H40062   8.134   2.088   3.866  2.4935 -0.9785  0.8893
  297MOL0     H40063   8.049   2.162   3.680  1.0977 -1.0683 -1.5421
  297MOL0     H40064   8.015   2.010   3.608 -2.7165 -0.3325 -0.1766
  297MOL0     H40065   7.860   2.128   3.838 -0.5348 -1.6639  2.7526
  297MOL0     H40066   7.871   1.961   3.819  1.8505  0.8090 -0.2341
  297MOL0     H40067   7.741   1.941   3.612 -2.0823 -0.8008 -0.7983
  297MOL0     H40068   7.670   2.028   3.734  1.2540 -1.3664  0.1587
  297MOL0     H40069   7.833   2.175   3.518 -1.6755 -3.1368 -3.3079
  297MOL0     H40070   7.720   2.248   3.633  1.3741  0.4160  0.4096
  297MOL0     H40071   7.619   2.214   3.403  3.5637 -0.7810 -1.0282
  297MOL0     H40072   7.631   2.044   3.419  1.5705 -0.0090  0.6925
  297MOL0     H40073   7.502   2.167   3.644 -2.3779  1.2104 -0.0338
  297MOL0     H40074   7.460   2.014   3.558  1.0815 -0.2629  2.8936
  297MOL0     H40075   7.402   2.299   3.475  0.1685 -0.6834  0.0374
  297MOL0     H40076   7.276   2.207   3.547 -0.1067 -0.6540  0.9480
  297MOL0     H40077   8.454   1.931   3.571 -2.9542 -2.0029 -0.3308
  297MOL0     H40078   8.679   1.890   3.662 -1.2201  0.9811 -0.9057
  297MOL0     H40079   8.852   1.798   4.113 -0.1142  4.2832 -1.8798
  297MOL0     H40080   9.052   1.650   4.202 -1.1680  0.4902  0.4247
  297MOL0     H40081  11.073   0.811   3.991  1.8947  0.3888  2.2691
  297MOL0     H40082  11.307   0.883   4.005  1.4034  3.3966  0.1208
  297MOL0     H40083  11.506   1.416   3.842 -0.3035 -2.1046 -1.7457
  297MOL0     H40084  11.741   1.532   3.798 -2.3052  0.1480 -0.5069
  297MOL0     H40085  12.108   1.286   3.826 -0.2710  0.7389 -0.1927
  297MOL0     H40086  12.080   1.292   3.654  1.3695  1.1666 -0.1428
  297MOL0     H40087  12.142   1.536   3.648  2.2275  0.3438 -1.6266
  297MOL0     H40088  12.274   1.435   3.684 -0.5451 -0.1259 -0.4776
  297MOL0     H40089  12.231   1.460   3.927 -1.7923 -2.5223 -2.0059
  297MOL0     H40090  12.099   1.583   3.888 -0.3554 -0.3121  2.4057
  297MOL0     H40091  12.395   1.612   3.890 -1.1239 -1.3784 -2.4946
  297MOL0     H40092  12.265   1.700   3.973  1.1243 -0.0355  0.2124
  297MOL0     H40093  12.332   1.873   3.570 -0.2636 -1.1956 -0.7475
  297MOL0     H40094  11.919   1.150   3.751  1.0639  2.6868 -4.3677
  297MOL0     H40095  11.694   1.039   3.845 -0.7735 -0.0131 -1.5587
  298MOL0     O40096  10.685   7.074   7.704 -0.7949  0.0304 -0.5030
  298MOL0     C40097  10.789   7.026   7.742 -0.4061  0.4954  0.3840
  298MOL0     O40098  10.812   6.937   7.842 -0.2872  0.1592 -0.6366
  298MOL0     C40099  10.708   6.904   7.932  0.0926 -0.4501 -0.1847
  298MOL0     C40100  10.600   6.988   7.970  0.5713  1.0207  0.6799
  298MOL0     C40101  10.498   6.945   8.056  0.1577  0.7594 -0.9537
  298MOL0     C40102  10.514   6.817   8.117  0.7940 -0.2697  0.4223
  298MOL0     O40103  10.453   6.784   8.229 -0.9121 -0.2131  0.0836
  298MOL0     C40104  10.311   6.825   8.241  0.2460 -0.0001 -0.6217
  298MOL0     C40105  10.272   6.834   8.394  0.0756 -0.5070 -0.6629
  298MOL0     C40106  10.336   6.962   8.457 -0.3754 -1.5631 -0.0880
  298MOL0     C40107  10.299   6.998   8.602  0.0795  0.8498 -0.1451
  298MOL0     C40108  10.279   6.874   8.693  0.5245 -0.0281 -0.0344
  298MOL0     C40109  10.206   6.884   8.821  0.1163 -0.6455  0.8107
  298MOL0     C40110  10.079   6.802   8.840  0.5767 -0.9429  0.7640
  298MOL0     C40111   9.961   6.861   8.757  0.4571  0.4003 -0.6325
  298MOL0     N40112   9.834   6.767   8.757  0.2098  0.0709 -0.1680
  298MOL0     C40113   9.831   6.626   8.754  0.1581  0.1374 -0.0599
  298MOL0     C40114   9.706   6.588   8.760 -0.4765  0.4247  0.1096
  298MOL0     C40115   9.650   6.449   8.758 -0.8394 -0.2109  0.6976
  298MOL0     C40116   9.712   6.363   8.879  0.3229 -0.3396  0.2515
  298MOL0     C40117   9.628   6.250   8.920 -0.9770  0.2736  0.4701
  298MOL0     C40118   9.601   6.140   8.804 -0.9779 -0.2748 -0.1146
  298MOL0     O40119   9.517   6.191   8.697 -0.1035  0.1048  0.3623
  298MOL0     C40120   9.394   6.251   8.719 -0.4638  0.6927 -0.2229
  298MOL0     C40121   9.303   6.216   8.827 -0.4079  0.0454 -0.0322
  298MOL0     C40122   9.185   6.282   8.851  0.3732  0.9042  0.4021
  298MOL0     C40123   9.107   6.229   8.971 -0.5180 -0.0514  0.2903
  298MOL0     C40124   9.144   6.385   8.758 -0.1471 -0.0902 -0.2895
  298MOL0     C40125   9.018   6.467   8.786  0.0428 -0.3817  0.1253
  298MOL0     O40126   8.901   6.394   8.806  0.3228  0.0988  0.1420
  298MOL0     C40127   8.780   6.461   8.800 -0.2519 -0.6377 -0.2620
  298MOL0     C40128   8.697   6.468   8.913 -0.8259  1.1424  0.2105
  298MOL0     C40129   8.570   6.538   8.913 -0.0820 -0.5692  0.3392
  298MOL0     C40130   8.525   6.597   8.793 -0.2280  0.3383  0.5207
  298MOL0     O40131   8.393   6.635   8.791  1.0099  0.3680 -0.5265
  298MOL0     C40132   8.341   6.687   8.671  0.0803 -0.4856  0.6100
  298MOL0     C40133   8.189   6.703   8.678 -0.7501  0.0189 -0.1554
  298MOL0     C40134   8.113   6.575   8.689  0.5523 -0.6290  0.0703
  298MOL0     C40135   7.965   6.593   8.731  0.4231  0.1737 -0.1950
  298MOL0     C40136   7.905   6.456   8.728  0.1871  0.0793 -0.5478
  298MOL0     C40137   7.861   6.391   8.590 -0.1801 -0.7785 -0.3677
  298MOL0     C40138   7.781   6.263   8.599  0.0476 -0.0198 -0.2660
  298MOL0     C40139   7.782   6.177   8.469  0.8590 -0.6853  0.1488
  298MOL0    Cl40140   7.652   6.266   8.367 -0.0684 -0.3113  0.0895
  298MOL0     C40141   8.621   6.602   8.679  0.4884 -0.3970 -0.0965
  298MOL0     C40142   8.742   6.535   8.683  0.7836  0.9915  0.7969
  298MOL0     O40143   9.024   6.588   8.768 -0.7068 -0.5783  0.2109
  298MOL0     C40144   9.226   6.419   8.656 -0.0555  0.7396 -0.1871
  298MOL0     C40145   9.349   6.354   8.633  0.4750  1.0622 -0.3109
  298MOL0     N40146   9.632   6.708   8.769 -0.0309 -0.0913 -0.8122
  298MOL0     N40147   9.708   6.816   8.777  0.2853  0.2574  0.3674
  298MOL0     C40148  10.619   6.736   8.062  0.2200  0.0237  0.5328
  298MOL0     C40149  10.713   6.774   7.971  0.0159 -0.3786 -0.3390
  298MOL0     C40150  10.903   7.062   7.649 -0.6061 -0.4918 -0.1844
  298MOL0     C40151  11.032   7.010   7.669 -0.4791 -0.0201 -0.9161
  298MOL0     C40152  11.142   7.047   7.593 -0.1091  0.0499 -0.6765
  298MOL0     C40153  11.130   7.132   7.484 -0.1301 -0.3157 -0.1275
  298MOL0     O40154  11.240   7.149   7.403  0.3592 -0.3297 -0.0502
  298MOL0     C40155  11.234   7.183   7.260 -0.5763 -0.6392 -0.9946
  298MOL0     C40156  11.142   7.094   7.168  0.3706  0.1736 -0.3659
  298MOL0     C40157  11.210   6.962   7.141  0.6196 -0.0203 -0.1440
  298MOL0     C40158  11.223   6.867   7.260 -0.7159  0.1153  0.6938
  298MOL0     C40159  11.350   6.888   7.336  0.8051  0.2102  0.7757
  298MOL0     C40160  11.465   6.902   7.372 -0.2752  0.0394  0.0199
  298MOL0     C40161  11.010   7.195   7.465 -0.7530  0.5460  0.8769
  298MOL0     C40162  10.895   7.162   7.541 -0.4343  0.6418  1.3399
  298MOL0     H40163  10.595   7.091   7.939  1.1280  0.7968 -0.1876
  298MOL0     H40164  10.416   7.010   8.083  0.0520  0.4657 -0.5620
  298MOL0     H40165  10.296   6.925   8.198  0.2280  1.0200  1.6089
  298MOL0     H40166  10.237   6.754   8.203  0.6103 -0.8805  0.2823
  298MOL0     H40167  10.163   6.831   8.399  0.1503 -1.2830  0.9243
  298MOL0     H40168  10.325   6.749   8.438  1.7050  0.7063 -0.1711
  298MOL0     H40169  10.445   6.958   8.456 -0.3846 -1.7335 -0.7632
  298MOL0     H40170  10.301   7.052   8.406 -0.6784 -2.6861 -1.9320
  298MOL0     H40171  10.376   7.064   8.643  0.8812  0.3298 -0.7639
  298MOL0     H40172  10.201   7.044   8.591 -0.8899 -1.5554 -3.5089
  298MOL0     H40173  10.215   6.802   8.641  0.1224  2.1501 -2.8040
  298MOL0     H40174  10.372   6.818   8.707  1.1480  1.4004  2.1089
  298MOL0     H40175  10.273   6.849   8.900  1.1641 -1.0243 -0.2069
  298MOL0     H40176  10.180   6.989   8.837 -1.1603 -0.7546 -0.3650
  298MOL0     H40177  10.107   6.705   8.799  1.7004  0.4831 -2.1392
  298MOL0     H40178  10.059   6.784   8.946  2.8936  0.1499  1.4605
  298MOL0     H40179   9.992   6.872   8.653 -0.4017 -2.8841 -1.3866
  298MOL0     H40180   9.922   6.956   8.794  0.9234  0.5132 -0.4340
  298MOL0     H40181   9.916   6.559   8.745  0.4823  0.6673 -1.0902
  298MOL0     H40182   9.545   6.467   8.780 -0.4254  0.9935  1.8558
  298MOL0     H40183   9.651   6.411   8.656 -1.5814  2.8876 -0.5955
  298MOL0     H40184   9.744   6.429   8.960 -1.5402  0.0848  0.6911
  298MOL0     H40185   9.809   6.335   8.837  0.2325 -2.0846  1.0983
  298MOL0     H40186   9.531   6.286   8.955 -0.1786  0.7767  2.2731
  298MOL0     H40187   9.668   6.188   9.001 -2.5965 -0.3792  0.8067
  298MOL0     H40188   9.570   6.044   8.846  1.1270 -0.6802  0.6493
  298MOL0     H40189   9.701   6.105   8.775  0.3822  1.0373  2.6173
  298MOL0     H40190   9.333   6.135   8.893 -0.5447  0.2392  0.2691
  298MOL0     H40191   9.014   6.194   8.925 -0.3592 -0.2771  0.1412
  298MOL0     H40192   9.158   6.148   9.024  1.3888  2.5228  2.6565
  298MOL0     H40193   9.080   6.310   9.039 -1.1582 -1.4660  1.7838
  298MOL0     H40194   8.741   6.424   9.003  0.3075 -0.2722 -0.9675
  298MOL0     H40195   8.505   6.546   8.999 -0.6971  0.8315 -0.2266
  298MOL0     H40196   8.386   6.781   8.638 -1.1612 -0.0723  0.0291
  298MOL0     H40197   8.364   6.626   8.583  2.0036 -0.3512  0.9906
  298MOL0     H40198   8.155   6.774   8.754 -2.4844 -2.2576  1.3593
  298MOL0     H40199   8.158   6.745   8.582 -1.9196 -1.7603 -0.6025
  298MOL0     H40200   8.156   6.513   8.768 -0.8349 -1.0974  0.4830
  298MOL0     H40201   8.109   6.529   8.590 -1.2061 -1.0211  0.2872
  298MOL0     H40202   7.950   6.635   8.831 -3.5552 -1.6413  0.1671
  298MOL0     H40203   7.916   6.659   8.659  0.3578 -0.6884 -0.9526
  298MOL0     H40204   7.819   6.469   8.794  1.1594  1.9777  0.4132
  298MOL0     H40205   7.973   6.388   8.779  1.0715  1.4152  0.1023
  298MOL0     H40206   7.802   6.474   8.549 -0.0301 -1.4947 -2.1129
  298MOL0     H40207   7.946   6.366   8.526 -2.1611 -2.0102 -2.6985
  298MOL0     H40208   7.678   6.291   8.624 -0.2297 -1.1462 -0.0816
  298MOL0     H40209   7.808   6.200   8.684 -1.2068  2.8559  2.4451
  298MOL0     H40210   7.742   6.078   8.491 -0.6141 -0.7161 -2.2880
  298MOL0     H40211   7.882   6.186   8.424  0.4946  2.3776 -0.2405
  298MOL0     H40212   8.593   6.657   8.590  0.5501  0.3355  0.3233
  298MOL0     H40213   8.804   6.529   8.594 -0.8645  0.4568 -0.3644
  298MOL0     H40214   9.200   6.497   8.584 -0.6039 -0.4872 -1.3580
  298MOL0     H40215   9.404   6.397   8.550 -1.7926  0.9620 -1.9611
  298MOL0     H40216  10.628   6.641   8.114  0.8308 -0.2640 -0.0888
  298MOL0     H40217  10.804   6.722   7.943  2.8008  3.7292  0.2243
  298MOL0     H40218  11.039   6.946   7.757 -3.9230 -1.1539 -1.3000
  298MOL0     H40219  11.242   7.013   7.618  0.3409  1.9421  0.2623
  298MOL0     H40220  11.213   7.290   7.251  1.2952 -0.0597  0.7771
  298MOL0     H40221  11.337   7.171   7.225  0.5630 -0.2721  1.9646
  298MOL0     H40222  11.128   7.160   7.082 -2.7778  1.3123  0.8613
  298MOL0     H40223  11.040   7.082   7.205 -0.3443 -1.7754 -2.7207
  298MOL0     H40224  11.309   6.974   7.095  0.9459  3.2830  1.1650
  298MOL0     H40225  11.145   6.909   7.071 -1.6681 -1.3832  2.8080
  298MOL0     H40226  11.226   6.768   7.213  1.4994  1.0438 -1.3369
  298MOL0     H40227  11.141   6.863   7.333 -0.3481 -0.6339  1.0822
  298MOL0     H40228  11.564   6.913   7.412  0.1125 -1.3482 -0.5123
  298MOL0     H40229  10.989   7.271   7.390 -2.3483  0.2110  0.9536
  298MOL0     H40230  10.795   7.201   7.529 -1.2306 -1.1922  1.7408
  299MOL0     O40231   4.566   1.172   7.793  0.2472  0.4249 -0.4473
  299MOL0     C40232   4.634   1.274   7.790  0.1957  0.5301  1.0227
  299MOL0     O40233   4.592   1.398   7.819  0.3138 -0.6149 -0.3960
  299MOL0     C40234   4.453   1.414   7.831  0.4805  0.5629 -0.1380
  299MOL0     C40235   4.381   1.378   7.942 -0.1219  0.4858 -0.8910
  299MOL0     C40236   4.242   1.395   7.942  0.6904  0.7197 -0.9027
  299MOL0     C40237   4.169   1.444   7.838  0.4967 -0.2476 -0.1107
  299MOL0     O40238   4.033   1.454   7.834  1.1082  0.5808 -0.0861
  299MOL0     C40239   3.961   1.344   7.880  0.0316 -0.3144  0.5840
  299MOL0     C40240   3.813   1.365   7.865  0.1024  0.4388 -1.2449
  299MOL0     C40241   3.750   1.259   7.953  0.1638 -0.0193  0.2250
  299MOL0     C40242   3.596   1.241   7.932  1.6032 -0.4307 -0.1200
  299MOL0     C40243   3.532   1.378   7.939  0.4222  0.0351  0.4839
  299MOL0     C40244   3.382   1.382   7.916 -1.3016 -0.3093  0.0419
  299MOL0     C40245   3.344   1.370   7.773  0.2480 -0.2269  0.1628
  299MOL0     C40246   3.187   1.339   7.762 -0.3274  0.2451  0.3874
  299MOL0     N40247   3.105   1.446   7.814 -0.4014 -0.1006  0.3918
  299MOL0     C40248   3.044   1.440   7.934  0.0107  0.7149  0.6335
  299MOL0     C40249   2.997   1.569   7.956 -0.2642  0.6992 -0.0046
  299MOL0     C40250   2.931   1.621   8.080  0.3055  0.3073 -0.8883
  299MOL0     C40251   2.818   1.722   8.043  0.0985  0.0207 -0.4005
  299MOL0     C40252   2.736   1.777   8.167 -0.7295 -0.9638  0.2154
  299MOL0     C40253   2.612   1.845   8.129 -0.1057  1.4542  0.8699
  299MOL0     O40254   2.524   1.884   8.242 -0.2613 -0.5377 -0.1768
  299MOL0     C40255   2.394   1.911   8.211  0.0261 -0.1789 -0.2873
  299MOL0     C40256   2.350   1.955   8.090  0.3276  0.4900 -0.2403
  299MOL0     C40257   2.218   1.968   8.058 -0.0001 -0.0285 -0.5432
  299MOL0     C40258   2.196   2.025   7.922 -0.3502  1.1802  0.2873
  299MOL0     C40259   2.121   1.953   8.158 -0.9236 -0.9351 -0.3617
  299MOL0     C40260   1.971   1.972   8.130 -0.1011  0.5311  0.3727
  299MOL0     O40261   1.901   1.997   8.246  0.5207 -0.7487 -0.3548
  299MOL0     C40262   1.768   2.025   8.236 -0.6549 -0.3377  0.1887
  299MOL0     C40263   1.686   1.912   8.212 -0.7431 -0.3548 -0.1845
  299MOL0     C40264   1.542   1.927   8.211 -0.3865 -0.0413  0.0991
  299MOL0     C40265   1.484   2.053   8.237  0.3157  0.2211 -1.0828
  299MOL0     O40266   1.352   2.058   8.212 -0.7924 -0.1380  0.3821
  299MOL0     C40267   1.285   2.165   8.284  0.3616 -0.6220  0.0314
  299MOL0     C40268   1.139   2.181   8.229 -0.3551  0.6329  0.8747
  299MOL0     C40269   1.088   2.320   8.239  0.3437 -0.0327 -0.2977
  299MOL0     C40270   0.932   2.310   8.234  0.4827  0.5712  0.7084
  299MOL0     C40271   0.881   2.449   8.229  0.7809 -0.6590  0.0401
  299MOL0     C40272   0.730   2.460   8.202  0.7930 -1.5365 -0.4678
  299MOL0     C40273   0.648   2.428   8.324 -0.2717 -0.8358 -0.1438
  299MOL0     C40274   0.507   2.403   8.264  0.4383 -0.7565 -0.0342
  299MOL0    Cl40275   0.504   2.286   8.131 -0.1770  0.0391  0.1828
  299MOL0     C40276   1.565   2.161   8.278  0.5918  0.2245 -0.7918
  299MOL0     C40277   1.708   2.146   8.273  0.4454 -0.2148 -0.7539
  299MOL0     O40278   1.922   1.953   8.017  0.2994 -0.1992 -0.5892
  299MOL0     C40279   2.161   1.935   8.288 -0.0200  0.1145 -0.1738
  299MOL0     C40280   2.298   1.911   8.317 -0.3022  0.0540 -0.3640
  299MOL0     N40281   2.999   1.638   7.831  0.0574 -0.6860  0.6256
  299MOL0     N40282   3.077   1.568   7.753  0.1293  1.8081  0.6999
  299MOL0     C40283   4.243   1.475   7.725 -0.3982 -0.0261  0.3741
  299MOL0     C40284   4.388   1.469   7.720 -0.2550  1.0919 -0.2629
  299MOL0     C40285   4.776   1.257   7.745 -1.1283  0.5392  0.9232
  299MOL0     C40286   4.836   1.124   7.726  0.7091  0.0190 -0.3488
  299MOL0     C40287   4.969   1.095   7.705 -0.4452  0.4668 -0.0551
  299MOL0     C40288   5.060   1.206   7.704 -0.2178 -0.2100  0.6643
  299MOL0     O40289   5.197   1.190   7.675 -0.5548 -0.3383 -0.8135
  299MOL0     C40290   5.260   1.061   7.660 -0.2228  0.4935 -0.3484
  299MOL0     C40291   5.410   1.063   7.649 -0.0238 -0.3411 -0.1464
  299MOL0     C40292   5.464   0.923   7.622  0.1131  0.0763  0.5152
  299MOL0     C40293   5.493   0.908   7.475 -0.5140 -0.0354 -0.4943
  299MOL0     C40294   5.625   0.831   7.449  0.5692  0.6487  0.9260
  299MOL0     C40295   5.727   0.761   7.444  0.5877 -0.3475  0.1105
  299MOL0     C40296   5.004   1.339   7.717 -0.6079  1.0348 -0.4481
  299MOL0     C40297   4.869   1.364   7.734  0.6913 -0.0504  0.3791
  299MOL0     H40298   4.437   1.332   8.022  1.0946  0.1558 -1.8899
  299MOL0     H40299   4.195   1.347   8.027  0.7701  2.5389  0.2237
  299MOL0     H40300   3.977   1.255   7.818 -1.0767  0.1666 -0.4381
  299MOL0     H40301   3.981   1.320   7.985  2.4448 -0.0989  0.2174
  299MOL0     H40302   3.799   1.460   7.916  1.1918 -0.3175  0.5694
  299MOL0     H40303   3.790   1.369   7.758  2.3739 -1.6387 -1.9188
  299MOL0     H40304   3.796   1.163   7.927 -0.6043 -0.1582 -0.6981
  299MOL0     H40305   3.767   1.292   8.056  0.7270  1.2083 -0.2476
  299MOL0     H40306   3.571   1.190   7.838  0.7477 -0.7371  0.2642
  299MOL0     H40307   3.550   1.175   8.006 -3.0933  0.8468 -1.5318
  299MOL0     H40308   3.567   1.419   8.034 -0.6236  0.2634  0.7894
  299MOL0     H40309   3.573   1.445   7.863  0.7366  1.5462  1.9178
  299MOL0     H40310   3.338   1.295   7.965 -2.2189 -2.1817 -3.7575
  299MOL0     H40311   3.348   1.479   7.952  4.7315  2.1307  0.4076
  299MOL0     H40312   3.368   1.458   7.712 -0.0941 -0.5409 -0.4274
  299MOL0     H40313   3.398   1.288   7.725  3.0972  1.3514  0.4691
  299MOL0     H40314   3.165   1.243   7.809  0.3030 -0.0502  0.0941
  299MOL0     H40315   3.167   1.334   7.654  2.8775 -0.3408 -0.3055
  299MOL0     H40316   3.046   1.349   7.994 -2.3095 -0.6153 -1.1786
  299MOL0     H40317   2.881   1.539   8.132 -1.7776  1.3606 -1.1608
  299MOL0     H40318   2.990   1.687   8.146 -0.8961  1.6833 -1.1555
  299MOL0     H40319   2.741   1.679   7.978  0.6460 -1.9683  0.1887
  299MOL0     H40320   2.850   1.805   7.980 -1.1375  1.0037  0.2132
  299MOL0     H40321   2.788   1.861   8.213  1.4761 -0.3926 -2.9893
  299MOL0     H40322   2.705   1.691   8.227  1.4377 -2.5842 -0.8442
  299MOL0     H40323   2.563   1.782   8.053  4.1036 -1.9673  0.5937
  299MOL0     H40324   2.650   1.938   8.086  2.5568 -0.7447 -2.0380
  299MOL0     H40325   2.414   1.954   8.003 -0.2281 -2.4577 -0.7074
  299MOL0     H40326   2.136   1.959   7.858 -0.3289  0.3597  1.0977
  299MOL0     H40327   2.137   2.117   7.928  1.8030  2.9515 -2.5134
  299MOL0     H40328   2.288   2.054   7.870 -0.7010  0.2431 -0.9113
  299MOL0     H40329   1.727   1.813   8.195 -1.1311 -0.4653 -0.4997
  299MOL0     H40330   1.481   1.838   8.197 -2.8887  1.9044 -2.6953
  299MOL0     H40331   1.294   2.155   8.392  0.8915  1.5295  0.2203
  299MOL0     H40332   1.329   2.260   8.254 -2.0229  0.3187 -0.7602
  299MOL0     H40333   1.132   2.132   8.132  2.2562  0.7518  0.5624
  299MOL0     H40334   1.079   2.116   8.294 -1.3175  1.7088  1.0957
  299MOL0     H40335   1.128   2.393   8.167  2.0797 -3.1509 -2.7789
  299MOL0     H40336   1.097   2.356   8.342 -4.3722  1.7059 -0.2233
  299MOL0     H40337   0.912   2.259   8.139  3.2832  2.1764 -0.8831
  299MOL0     H40338   0.888   2.244   8.309  0.8499  1.0175  1.3263
  299MOL0     H40339   0.935   2.499   8.148  0.1059 -1.0197 -0.6411
  299MOL0     H40340   0.898   2.503   8.323  1.0971 -1.0947  0.2353
  299MOL0     H40341   0.693   2.558   8.171  0.1924 -0.7150  2.5113
  299MOL0     H40342   0.712   2.394   8.116  1.5009 -0.2000 -1.6854
  299MOL0     H40343   0.656   2.505   8.402  3.5889 -2.0206  0.8954
  299MOL0     H40344   0.677   2.332   8.369 -2.2062 -2.0157 -1.2687
  299MOL0     H40345   0.468   2.501   8.236  3.4957  0.3035 -0.9668
  299MOL0     H40346   0.435   2.371   8.340  0.2314 -0.7264 -0.2193
  299MOL0     H40347   1.538   2.262   8.306 -1.8409 -0.1418 -1.5753
  299MOL0     H40348   1.769   2.232   8.299  1.2492  0.1901 -3.6662
  299MOL0     H40349   2.102   1.927   8.379  3.8751  0.8064  2.7070
  299MOL0     H40350   2.330   1.898   8.420  1.7354 -1.0831 -1.0690
  299MOL0     H40351   4.176   1.508   7.646 -1.7848  0.5470  1.7441
  299MOL0     H40352   4.455   1.501   7.641  1.2356 -2.5267 -0.6692
  299MOL0     H40353   4.768   1.039   7.727 -3.5341  3.0594  1.6562
  299MOL0     H40354   4.995   0.993   7.678  0.0130  0.3246  0.8785
  299MOL0     H40355   5.236   0.998   7.747  1.6430 -1.5476 -1.2143
  299MOL0     H40356   5.223   1.010   7.571 -0.2202  3.6737 -2.3076
  299MOL0     H40357   5.443   1.082   7.751 -0.3943 -1.2234  0.1518
  299MOL0     H40358   5.440   1.143   7.581 -0.7195  0.5712  0.6078
  299MOL0     H40359   5.380   0.855   7.639  0.6828 -1.1401 -1.2655
  299MOL0     H40360   5.551   0.893   7.681  0.0248  2.1277  1.7943
  299MOL0     H40361   5.505   1.007   7.431 -0.4089 -0.2793 -1.0184
  299MOL0     H40362   5.408   0.852   7.436  0.0058 -3.6022  2.8845
  299MOL0     H40363   5.826   0.722   7.431  1.0174  0.3694  1.1433
  299MOL0     H40364   5.076   1.419   7.727 -1.3421  1.7773 -1.0365
  299MOL0     H40365   4.835   1.467   7.732  0.0508 -0.2071 -3.1657
  300MOL0     O40366   5.557   3.892   0.317 -0.0917  0.2612 -0.3087
  300MOL0     C40367   5.635   3.953   0.386  0.2991 -0.2144 -0.1172
  300MOL0     O40368   5.604   4.067   0.454  0.2037  0.4211 -0.1131
  300MOL0     C40369   5.483   4.124   0.474 -0.7614  0.1827 -0.2860
  300MOL0     C40370   5.484   4.213   0.574 -0.8195  0.0403 -0.0046
  300MOL0     C40371   5.369   4.286   0.598 -0.0655 -1.2327 -0.4646
  300MOL0     C40372   5.253   4.274   0.529 -0.2971 -0.0043 -0.8229
  300MOL0     O40373   5.141   4.339   0.571  0.0919  0.2480  0.5223
  300MOL0     C40374   5.041   4.268   0.643 -1.1301 -0.9641 -0.4459
  300MOL0     C40375   4.926   4.233   0.543  0.4461  0.1538 -0.5863
  300MOL0     C40376   4.870   4.361   0.472 -0.8405  0.1376  0.3248
  300MOL0     C40377   4.775   4.440   0.569  0.7751 -0.1741 -0.2343
  300MOL0     C40378   4.698   4.562   0.487  0.1947  0.7693 -0.6735
  300MOL0     C40379   4.789   4.676   0.454 -0.5515  0.2405 -0.1149
  300MOL0     C40380   4.732   4.808   0.415  1.0638  0.1482 -0.6445
  300MOL0     C40381   4.644   4.866   0.528  0.3483  1.4566 -0.8678
  300MOL0     N40382   4.499   4.866   0.503 -0.2828 -0.2952 -0.2751
  300MOL0     C40383   4.442   4.945   0.417  0.1402  0.0532  0.7017
  300MOL0     C40384   4.307   4.922   0.429 -0.3076 -0.3080 -0.7775
  300MOL0     C40385   4.201   4.994   0.354 -0.3730 -0.0855 -0.4342
  300MOL0     C40386   4.179   4.954   0.210  0.3403 -0.3207 -0.3829
  300MOL0     C40387   4.061   5.043   0.152  0.0189  0.4212 -0.6937
  300MOL0     C40388   4.039   5.034   0.001  0.6942  0.2981 -0.0355
  300MOL0     O40389   3.919   4.963  -0.046  0.2145  0.6674  0.3792
  300MOL0     C40390   3.895   4.967  -0.181 -0.0064  0.3233 -0.9318
  300MOL0     C40391   3.780   4.898  -0.228 -0.1121  0.1579  0.0784
  300MOL0     C40392   3.757   4.876  -0.367  0.4538  0.0248  0.5879
  300MOL0     C40393   3.639   4.793  -0.415 -0.3942  0.0585  0.0597
  300MOL0     C40394   3.851   4.926  -0.464  0.1818  0.4098  0.2751
  300MOL0     C40395   3.844   4.892  -0.614  0.0178 -0.1810  0.3211
  300MOL0     O40396   3.823   4.767  -0.651  0.3010 -0.4297  0.1872
  300MOL0     C40397   3.836   4.740  -0.787 -0.1538 -0.0206 -0.0202
  300MOL0     C40398   3.951   4.762  -0.860 -1.0043 -0.1081 -0.3758
  300MOL0     C40399   3.963   4.727  -0.993 -0.3695  0.1699  0.5909
  300MOL0     C40400   3.851   4.671  -1.062 -0.2963 -0.2147  0.8146
  300MOL0     O40401   3.842   4.636  -1.199 -0.3699 -0.7469 -0.4453
  300MOL0     C40402   3.966   4.621  -1.276 -0.2598 -0.1544 -0.0084
  300MOL0     C40403   4.033   4.486  -1.269  0.4425 -0.8316  0.5224
  300MOL0     C40404   4.116   4.473  -1.137  0.0325 -0.6791 -0.1261
  300MOL0     C40405   4.218   4.351  -1.152  0.2697  0.3016 -0.3084
  300MOL0     C40406   4.339   4.401  -1.232 -0.2985  0.3239  0.5080
  300MOL0     C40407   4.435   4.281  -1.255  0.0856 -0.7716  0.2162
  300MOL0     C40408   4.556   4.340  -1.321 -0.2906 -0.5673 -0.5467
  300MOL0     C40409   4.667   4.385  -1.230  0.6813 -0.7311 -1.0615
  300MOL0    Cl40410   4.728   4.255  -1.122 -0.0936  0.0086 -0.1599
  300MOL0     C40411   3.738   4.640  -0.985  0.3849 -0.3050  0.2094
  300MOL0     C40412   3.728   4.680  -0.853  0.1218  0.1255 -0.1221
  300MOL0     O40413   3.867   4.989  -0.694 -0.2251  0.2550  0.2030
  300MOL0     C40414   3.958   5.008  -0.417 -0.3220  0.0753 -0.1908
  300MOL0     C40415   3.979   5.029  -0.279 -0.6714 -0.0627 -0.7911
  300MOL0     N40416   4.290   4.818   0.524 -0.1132 -0.7466 -0.1064
  300MOL0     N40417   4.409   4.784   0.566 -1.1118  0.4280 -0.0147
  300MOL0     C40418   5.249   4.184   0.431 -0.0272  0.1138 -0.4815
  300MOL0     C40419   5.366   4.103   0.404 -0.1661 -0.7004  0.7459
  300MOL0     C40420   5.779   3.907   0.379 -0.6510  0.5446  0.5439
  300MOL0     C40421   5.812   3.807   0.283 -1.1155 -0.8146 -0.3866
  300MOL0     C40422   5.940   3.751   0.282  0.5266 -0.5892  0.7757
  300MOL0     C40423   6.035   3.801   0.370 -0.2802 -0.3989  0.4563
  300MOL0     O40424   6.164   3.760   0.371  0.3139  0.1552  0.6150
  300MOL0     C40425   6.215   3.658   0.283  0.3116 -0.0824  0.4120
  300MOL0     C40426   6.358   3.602   0.323  0.0961  0.3943 -0.5012
  300MOL0     C40427   6.459   3.715   0.331  0.1050 -0.0661  0.3888
  300MOL0     C40428   6.602   3.665   0.360 -0.2791  0.1000 -0.2925
  300MOL0     C40429   6.644   3.556   0.276  1.4282  0.9587  0.2994
  300MOL0     C40430   6.694   3.470   0.213 -0.0099 -0.0772  0.4226
  300MOL0     C40431   6.007   3.898   0.456 -0.2115 -0.3305  0.0551
  300MOL0     C40432   5.880   3.955   0.456  0.3731  0.4494 -0.2876
  300MOL0     H40433   5.575   4.228   0.631 -1.6437 -3.5098  2.5761
  300MOL0     H40434   5.384   4.359   0.677  1.8824 -1.7048 -0.3361
  300MOL0     H40435   5.088   4.178   0.685  1.5016  0.9062  0.9583
  300MOL0     H40436   5.006   4.332   0.725 -2.0535 -1.6520 -0.2947
  300MOL0     H40437   4.946   4.161   0.463 -1.4759 -1.2773  0.1399
  300MOL0     H40438   4.845   4.193   0.605 -0.6647  3.1618  0.1140
  300MOL0     H40439   4.951   4.423   0.432  0.6813 -0.6159  2.0953
  300MOL0     H40440   4.811   4.336   0.383  2.1443 -0.7518 -1.5488
  300MOL0     H40441   4.693   4.374   0.600 -0.4588  0.7010 -1.4564
  300MOL0     H40442   4.838   4.484   0.646  0.4787 -0.9685  0.4777
  300MOL0     H40443   4.645   4.519   0.402 -3.2837  2.6003  0.3715
  300MOL0     H40444   4.624   4.590   0.562  1.6583 -3.4674  2.7949
  300MOL0     H40445   4.862   4.695   0.533  0.7146 -2.2980 -0.5929
  300MOL0     H40446   4.841   4.633   0.368 -0.8587 -0.1592 -0.1045
  300MOL0     H40447   4.821   4.869   0.403  2.7523 -1.3128  2.9326
  300MOL0     H40448   4.677   4.808   0.321  0.0375 -1.0022 -0.0913
  300MOL0     H40449   4.686   4.965   0.550 -1.3238  1.8647  0.7709
  300MOL0     H40450   4.661   4.802   0.615  1.2034  2.0179 -0.6132
  300MOL0     H40451   4.490   5.010   0.345 -0.0943  0.2758  0.7446
  300MOL0     H40452   4.111   4.972   0.412 -2.4370 -0.3317 -3.5190
  300MOL0     H40453   4.209   5.103   0.358 -1.0538  0.0279 -1.7590
  300MOL0     H40454   4.148   4.850   0.199 -4.2182  0.9214 -1.0092
  300MOL0     H40455   4.270   4.974   0.152  0.3764  1.9728  0.3875
  300MOL0     H40456   4.074   5.147   0.185 -0.3497  0.1640  0.3033
  300MOL0     H40457   3.971   5.005   0.202  0.8785 -3.9416 -2.0518
  300MOL0     H40458   4.126   4.980  -0.039  1.4502 -0.0670  1.9735
  300MOL0     H40459   4.050   5.136  -0.036  3.2573  0.0302 -0.2312
  300MOL0     H40460   3.715   4.845  -0.159  0.8778 -2.8576 -1.1558
  300MOL0     H40461   3.613   4.818  -0.519 -0.1028 -1.9495 -0.5397
  300MOL0     H40462   3.661   4.687  -0.403 -1.1834 -0.2146 -0.8191
  300MOL0     H40463   3.548   4.816  -0.360 -0.5940 -0.9001  0.1435
  300MOL0     H40464   4.030   4.795  -0.793 -2.6487 -0.3143  1.7747
  300MOL0     H40465   4.061   4.718  -1.038 -0.1581 -1.5491  1.3105
  300MOL0     H40466   3.930   4.622  -1.379  2.4743  0.1423 -1.0316
  300MOL0     H40467   4.031   4.707  -1.256  0.5512 -0.7080 -0.2663
  300MOL0     H40468   3.960   4.405  -1.266 -0.5966  0.0691  0.5269
  300MOL0     H40469   4.092   4.474  -1.360 -1.7538 -1.9764 -0.8368
  300MOL0     H40470   4.060   4.466  -1.044  1.9770  1.2336  1.3068
  300MOL0     H40471   4.166   4.568  -1.112 -1.1658  0.0829 -0.5530
  300MOL0     H40472   4.260   4.324  -1.055 -2.4975  2.3164  1.6013
  300MOL0     H40473   4.168   4.257  -1.180  0.6661 -0.1459  0.4453
  300MOL0     H40474   4.383   4.473  -1.163 -1.3518  2.4369 -0.9301
  300MOL0     H40475   4.315   4.459  -1.321  0.4302  1.5662  1.0925
  300MOL0     H40476   4.455   4.220  -1.167  2.1507  0.5867  0.7450
  300MOL0     H40477   4.385   4.211  -1.324 -2.1876  0.6204  0.3321
  300MOL0     H40478   4.540   4.419  -1.395 -3.7331 -0.5850  0.0081
  300MOL0     H40479   4.598   4.252  -1.371 -1.5927 -1.3406 -0.3328
  300MOL0     H40480   4.630   4.479  -1.187 -0.3128 -1.4983 -0.1899
  300MOL0     H40481   4.751   4.421  -1.290 -0.4948  2.2427 -1.1218
  300MOL0     H40482   3.646   4.608  -1.031  0.1387  0.9321 -0.1966
  300MOL0     H40483   3.639   4.659  -0.795  0.7614 -0.5699  0.6306
  300MOL0     H40484   4.033   5.035  -0.491  0.6916 -1.0341  0.3858
  300MOL0     H40485   4.066   5.077  -0.234 -2.9789  1.2895  2.6848
  300MOL0     H40486   5.158   4.156   0.379 -2.3671  1.6215  2.4608
  300MOL0     H40487   5.341   4.026   0.331 -0.3331  2.2418 -2.5467
  300MOL0     H40488   5.733   3.749   0.236 -1.3206 -2.0602  1.4267
  300MOL0     H40489   5.964   3.672   0.211 -1.8119  0.6374 -1.5177
  300MOL0     H40490   6.154   3.568   0.298  1.8111 -0.8344  2.4782
  300MOL0     H40491   6.216   3.703   0.184  3.3559  0.1127  0.4336
  300MOL0     H40492   6.374   3.531   0.241  0.8057  1.8112 -1.6411
  300MOL0     H40493   6.354   3.557   0.423  1.0385 -1.2754 -1.1798
  300MOL0     H40494   6.414   3.786   0.401 -2.1751 -0.0798 -0.9427
  300MOL0     H40495   6.456   3.771   0.237  0.7504  1.5034  1.2768
  300MOL0     H40496   6.614   3.619   0.458  2.0242 -0.7529 -0.9079
  300MOL0     H40497   6.672   3.748   0.348  2.7226 -2.3369 -0.6622
  300MOL0     H40498   6.733   3.390   0.152  1.7879  0.6803  0.5174
  300MOL0     H40499   6.084   3.929   0.526 -0.8452 -2.8330  1.9754
  300MOL0     H40500   5.843   4.023   0.532 -1.9140 -2.7521  1.7859
  301MOL0     O40501   1.735   7.949   8.075 -0.4469 -0.3887  0.3935
  301MOL0     C40502   1.824   7.885   8.133  0.4065 -0.4791 -0.9010
  301MOL0     O40503   1.957   7.905   8.117 -0.2730 -0.4625 -0.1627
  301MOL0     C40504   1.999   7.980   8.003  0.4132 -0.8347  0.1249
  301MOL0     C40505   2.119   8.047   8.025  0.7103 -0.6687 -0.2390
  301MOL0     C40506   2.178   8.113   7.918 -0.0311 -0.1121 -0.6555
  301MOL0     C40507   2.123   8.105   7.788 -0.6743  0.5616 -0.7845
  301MOL0     O40508   2.198   8.172   7.699 -0.8240 -0.2996  0.2115
  301MOL0     C40509   2.190   8.152   7.552  0.2029  0.7370 -0.0123
  301MOL0     C40510   2.289   8.248   7.477 -0.9004 -0.2857 -0.2691
  301MOL0     C40511   2.428   8.194   7.457 -0.9521  0.1466 -0.4695
  301MOL0     C40512   2.526   8.305   7.493 -0.2824 -0.5674  0.1898
  301MOL0     C40513   2.662   8.264   7.546  0.1956 -1.1895 -0.9470
  301MOL0     C40514   2.711   8.124   7.485 -0.3717 -1.3327  0.4050
  301MOL0     C40515   2.857   8.091   7.518 -0.0892  1.1308  0.0333
  301MOL0     C40516   2.881   8.054   7.672 -0.1942  0.1654  1.0544
  301MOL0     N40517   2.809   7.935   7.718 -0.0511  0.2547  0.6182
  301MOL0     C40518   2.840   7.801   7.686 -0.4265 -0.3469 -0.0263
  301MOL0     C40519   2.841   7.731   7.804 -0.2742  0.4945 -0.5534
  301MOL0     C40520   2.875   7.593   7.839  0.5591  0.3124 -0.2514
  301MOL0     C40521   3.022   7.575   7.853 -0.3877 -0.5721  0.4900
  301MOL0     C40522   3.081   7.637   7.980 -0.2520  0.6259 -0.2926
  301MOL0     C40523   3.233   7.595   8.002  0.6126  0.4679  0.2958
  301MOL0     O40524   3.244   7.456   8.019  0.0634  0.1429  0.2228
  301MOL0     C40525   3.375   7.413   8.018  0.3227  0.0943 -0.8789
  301MOL0     C40526   3.398   7.296   7.946  0.4379 -0.2369  0.2169
  301MOL0     C40527   3.525   7.249   7.924  0.5197  0.1474  0.6404
  301MOL0     C40528   3.540   7.123   7.847 -1.2394 -0.2092  0.1960
  301MOL0     C40529   3.634   7.324   7.973 -0.0579 -0.2568 -0.8216
  301MOL0     C40530   3.781   7.284   7.964  0.7095  0.2115  0.5773
  301MOL0     O40531   3.872   7.374   8.004 -0.0276  0.7554  0.4124
  301MOL0     C40532   4.000   7.337   7.978  0.7200  0.6721 -0.8071
  301MOL0     C40533   4.067   7.376   7.859 -0.6071  0.8052 -0.3116
  301MOL0     C40534   4.190   7.319   7.840 -1.1579  0.2948  0.2453
  301MOL0     C40535   4.256   7.243   7.940 -0.2199  0.6700  0.7048
  301MOL0     O40536   4.385   7.207   7.913  0.7275 -0.5026  0.0888
  301MOL0     C40537   4.471   7.196   8.024 -0.3112 -0.6289  0.5724
  301MOL0     C40538   4.620   7.179   7.978  0.5239 -0.3252 -0.8481
  301MOL0     C40539   4.629   7.048   7.905  0.2388  0.2792  0.0423
  301MOL0     C40540   4.774   7.017   7.873 -0.1092 -0.0533  0.5983
  301MOL0     C40541   4.796   6.878   7.811 -0.3359 -0.9399 -0.0442
  301MOL0     C40542   4.754   6.848   7.670  0.4500 -0.5048 -0.2735
  301MOL0     C40543   4.806   6.958   7.573  0.0363 -0.4945  0.6552
  301MOL0     C40544   4.779   6.913   7.424 -0.0810  0.2781 -0.6065
  301MOL0    Cl40545   4.753   7.048   7.312 -0.6374  0.2478  0.0601
  301MOL0     C40546   4.192   7.222   8.061 -0.0390  0.5257  0.0404
  301MOL0     C40547   4.062   7.261   8.077  0.6926 -0.2871  0.7264
  301MOL0     O40548   3.806   7.175   7.915  0.3378  0.8299 -0.5281
  301MOL0     C40549   3.606   7.439   8.054 -0.2539 -0.8809  0.3880
  301MOL0     C40550   3.477   7.483   8.072 -0.8081  0.7564 -0.0370
  301MOL0     N40551   2.820   7.829   7.911 -0.5485  0.3251  0.2205
  301MOL0     N40552   2.782   7.935   7.853  0.2869  0.5231  0.2156
  301MOL0     C40553   1.998   8.040   7.765 -0.9835 -0.0210  0.7652
  301MOL0     C40554   1.944   7.966   7.870  0.0261  0.4327  0.0191
  301MOL0     C40555   1.779   7.804   8.247  0.3907  0.2787  0.6117
  301MOL0     C40556   1.647   7.808   8.295 -0.1553 -0.3711  0.1960
  301MOL0     C40557   1.603   7.723   8.392  0.3840 -0.8256  0.8746
  301MOL0     C40558   1.689   7.628   8.454 -0.0678  0.2924  0.5779
  301MOL0     O40559   1.670   7.540   8.556 -0.7113 -0.3979  0.3708
  301MOL0     C40560   1.563   7.439   8.565  0.2881 -0.2624  0.8033
  301MOL0     C40561   1.598   7.308   8.498  0.0129 -1.0458 -0.1901
  301MOL0     C40562   1.471   7.231   8.477  0.1055  0.1760  0.4154
  301MOL0     C40563   1.503   7.088   8.417  0.1929  0.9358 -0.8415
  301MOL0     C40564   1.534   7.010   8.540  0.5265  0.0113 -0.2636
  301MOL0     C40565   1.574   6.960   8.636 -0.4497 -1.7097  0.3051
  301MOL0     C40566   1.825   7.632   8.418  0.0482 -0.2121 -0.2691
  301MOL0     C40567   1.863   7.711   8.311 -0.2480 -1.2444 -0.5469
  301MOL0     H40568   2.158   8.043   8.126  1.3416  0.4319 -0.4289
  301MOL0     H40569   2.279   8.150   7.934 -0.0353  0.2442 -1.4198
  301MOL0     H40570   2.211   8.046   7.530 -3.2107 -0.1471  0.4923
  301MOL0     H40571   2.086   8.169   7.522 -0.2994  3.6835  2.8984
  301MOL0     H40572   2.253   8.278   7.379 -1.3481 -0.7781 -0.2599
  301MOL0     H40573   2.299   8.342   7.532 -0.7692 -0.7203  0.4638
  301MOL0     H40574   2.453   8.116   7.529  1.5844 -0.4897 -1.9542
  301MOL0     H40575   2.448   8.149   7.359  0.4701 -2.3244  0.8519
  301MOL0     H40576   2.535   8.367   7.403  2.6232  1.8081  1.9299
  301MOL0     H40577   2.500   8.379   7.570 -1.1013 -1.0292  0.3696
  301MOL0     H40578   2.738   8.339   7.523  2.1687 -3.0420 -0.7293
  301MOL0     H40579   2.653   8.246   7.654 -0.4793  1.7186 -0.4208
  301MOL0     H40580   2.653   8.038   7.521  1.3595 -2.9645 -0.5401
  301MOL0     H40581   2.698   8.131   7.377 -1.1881  0.5173  0.5934
  301MOL0     H40582   2.887   7.997   7.472 -0.8588  0.4665  0.8313
  301MOL0     H40583   2.922   8.173   7.487  1.5847 -0.0313  0.3517
  301MOL0     H40584   2.830   8.131   7.731  0.8459  2.5762 -1.0229
  301MOL0     H40585   2.988   8.034   7.679 -0.5137 -1.8356  0.8175
  301MOL0     H40586   2.870   7.766   7.588 -1.1454 -3.2671  0.7280
  301MOL0     H40587   2.820   7.548   7.922  0.5878 -2.6933 -1.7453
  301MOL0     H40588   2.839   7.539   7.751  0.4891  0.7840 -0.5139
  301MOL0     H40589   3.068   7.613   7.760 -1.8152 -1.1402 -0.4801
  301MOL0     H40590   3.050   7.469   7.848 -0.6264 -0.5941 -2.8937
  301MOL0     H40591   3.029   7.602   8.070 -2.2473 -3.5522 -2.7549
  301MOL0     H40592   3.069   7.745   7.971 -1.0754  0.4473 -7.9886
  301MOL0     H40593   3.272   7.642   8.093 -0.8809 -0.9229  1.7224
  301MOL0     H40594   3.279   7.633   7.910  1.4248 -0.2092  0.4071
  301MOL0     H40595   3.311   7.244   7.908 -3.1385  3.0307  3.0341
  301MOL0     H40596   3.597   7.148   7.758 -1.1533  0.1351  0.3476
  301MOL0     H40597   3.587   7.053   7.917  1.2720  0.3104 -0.8597
  301MOL0     H40598   3.450   7.074   7.808 -1.7847 -0.0339  1.1709
  301MOL0     H40599   4.003   7.426   7.787 -4.5244 -2.6474  0.4045
  301MOL0     H40600   4.238   7.339   7.745  1.4909 -2.5568  0.8253
  301MOL0     H40601   4.455   7.282   8.089 -0.4837  0.5629 -1.0169
  301MOL0     H40602   4.445   7.109   8.085  1.0279 -2.9392 -1.9031
  301MOL0     H40603   4.650   7.265   7.917  1.0090  0.6105  0.6350
  301MOL0     H40604   4.676   7.191   8.072 -0.2337 -1.5251 -0.2200
  301MOL0     H40605   4.569   7.059   7.814 -0.6105 -2.5225  0.1733
  301MOL0     H40606   4.587   6.968   7.967  1.6327  0.5464  1.4072
  301MOL0     H40607   4.811   7.092   7.803 -2.7853  1.0770  0.2715
  301MOL0     H40608   4.841   7.011   7.959  1.2551 -0.8579 -0.4662
  301MOL0     H40609   4.751   6.801   7.874 -1.4890 -0.9174 -0.7945
  301MOL0     H40610   4.904   6.869   7.801 -0.0508  1.0121  0.8208
  301MOL0     H40611   4.781   6.747   7.638 -2.0289 -0.7780 -1.7553
  301MOL0     H40612   4.645   6.844   7.676  0.5301 -1.8163  0.8697
  301MOL0     H40613   4.914   6.976   7.581  0.2387 -1.9935  1.7014
  301MOL0     H40614   4.763   7.056   7.598  2.8753  0.3650  2.7865
  301MOL0     H40615   4.691   6.849   7.432  0.7492 -0.6606  2.0701
  301MOL0     H40616   4.854   6.839   7.393  0.3182  0.7199 -0.7196
  301MOL0     H40617   4.237   7.167   8.143 -2.8572 -2.9503 -0.5104
  301MOL0     H40618   4.017   7.230   8.171 -2.3377  2.6487  0.4584
  301MOL0     H40619   3.682   7.496   8.106 -0.9132 -2.1304  2.9220
  301MOL0     H40620   3.454   7.563   8.141  1.8550  1.6743 -0.1274
  301MOL0     H40621   1.960   8.025   7.664 -0.2554  0.9686  0.3251
  301MOL0     H40622   1.849   7.919   7.846  0.2079 -0.4762  1.0311
  301MOL0     H40623   1.570   7.871   8.252 -2.9355 -1.5688  3.0099
  301MOL0     H40624   1.500   7.723   8.427  0.3581  0.0028  0.8143
  301MOL0     H40625   1.537   7.416   8.668  0.3199 -1.7234  0.5063
  301MOL0     H40626   1.473   7.475   8.515  1.0770 -2.1406 -2.2318
  301MOL0     H40627   1.680   7.258   8.551  2.5122  1.7352 -1.1281
  301MOL0     H40628   1.640   7.326   8.399 -1.7241 -1.2349 -0.9920
  301MOL0     H40629   1.406   7.291   8.412  0.0752 -0.4677 -0.1524
  301MOL0     H40630   1.420   7.225   8.574  0.3051  1.0504  0.5829
  301MOL0     H40631   1.591   7.093   8.353 -0.5674 -0.1487 -2.0102
  301MOL0     H40632   1.427   7.043   8.352 -0.0249  2.6336 -1.8577
  301MOL0     H40633   1.624   6.926   8.724 -2.9874 -1.5520  1.8938
  301MOL0     H40634   1.902   7.580   8.474 -0.0769 -1.9577 -1.6235
  301MOL0     H40635   1.961   7.711   8.265  0.1624  2.6076 -0.0091
  302MOL0     O40636   2.990   4.350  11.269 -0.2196  0.2592  1.0815
  302MOL0     C40637   3.056   4.277  11.190 -0.2326  0.2712 -0.2568
  302MOL0     O40638   3.005   4.183  11.106  0.4026 -0.0889  0.5504
  302MOL0     C40639   2.868   4.138  11.108  0.1320 -0.7405 -0.0906
  302MOL0     C40640   2.849   4.012  11.061  0.1183 -0.2990 -0.8700
  302MOL0     C40641   2.724   3.945  11.057  0.1275  0.1346  0.3589
  302MOL0     C40642   2.610   4.016  11.089 -0.0249 -0.9417 -0.3885
  302MOL0     O40643   2.485   3.966  11.063  0.2527 -0.8190  0.2160
  302MOL0     C40644   2.465   3.822  11.067 -0.2994 -0.0411 -0.2340
  302MOL0     C40645   2.326   3.800  11.130  0.7389  0.5298  1.0862
  302MOL0     C40646   2.295   3.902  11.246 -0.3796  0.0972 -0.3550
  302MOL0     C40647   2.164   3.854  11.309  0.5347 -0.3391  0.2962
  302MOL0     C40648   2.142   3.957  11.420  0.7862  0.3926 -1.2029
  302MOL0     C40649   2.196   3.918  11.558  0.3357  0.1411 -0.1998
  302MOL0     C40650   2.142   4.019  11.666 -0.1728  0.6001 -0.1938
  302MOL0     C40651   2.178   3.965  11.801  0.1114  0.2682  0.2275
  302MOL0     N40652   2.122   4.062  11.896  0.2235  0.0556  0.2290
  302MOL0     C40653   1.994   4.054  11.949 -0.0391  0.2798  0.1449
  302MOL0     C40654   1.995   4.124  12.055 -0.0907 -0.0400 -0.8713
  302MOL0     C40655   1.878   4.159  12.145  0.2155  0.6018  0.0100
  302MOL0     C40656   1.792   4.270  12.085 -0.5999 -0.4576  0.0456
  302MOL0     C40657   1.743   4.238  11.943  0.4442 -0.3576  1.0192
  302MOL0     C40658   1.608   4.308  11.921  0.3753 -0.2417 -0.0540
  302MOL0     O40659   1.616   4.456  11.924 -0.0433 -0.5025 -0.8756
  302MOL0     C40660   1.507   4.539  11.888  0.2988 -0.1877  0.3882
  302MOL0     C40661   1.521   4.678  11.881 -0.1020  0.5751  0.3801
  302MOL0     C40662   1.417   4.759  11.826 -0.0102  0.9329 -1.2893
  302MOL0     C40663   1.440   4.909  11.822 -0.2681  0.0090  0.3813
  302MOL0     C40664   1.288   4.695  11.795 -0.0533  0.3130 -0.6839
  302MOL0     C40665   1.173   4.779  11.750  0.1831 -0.4777 -0.2378
  302MOL0     O40666   1.119   4.876  11.825 -0.3469 -0.4953  0.4454
  302MOL0     C40667   1.044   4.971  11.758 -0.6852  0.0801  0.1233
  302MOL0     C40668   1.082   5.035  11.640 -0.5076  0.2948  0.3961
  302MOL0     C40669   1.013   5.139  11.581  0.0534  0.0680  0.0246
  302MOL0     C40670   0.888   5.177  11.639  0.4280  0.6477 -0.4991
  302MOL0     O40671   0.816   5.285  11.582  0.9613 -0.1480 -0.4808
  302MOL0     C40672   0.720   5.250  11.483  0.0350  0.2942  0.4992
  302MOL0     C40673   0.598   5.343  11.496 -0.8319 -0.7154 -0.2975
  302MOL0     C40674   0.485   5.323  11.404 -1.3654  0.2076  0.1436
  302MOL0     C40675   0.395   5.445  11.417  0.2910 -0.5096  0.4926
  302MOL0     C40676   0.265   5.426  11.343  0.0075 -0.2389  0.2999
  302MOL0     C40677   0.198   5.554  11.304  0.2844  0.2031  0.1048
  302MOL0     C40678   0.050   5.552  11.252  0.6193  0.0588 -0.0566
  302MOL0     C40679  -0.058   5.515  11.348 -0.3331 -0.2642 -0.0414
  302MOL0    Cl40680  -0.079   5.342  11.356  0.7145 -0.5404  0.1432
  302MOL0     C40681   0.847   5.109  11.756  0.3014  0.4593 -0.7023
  302MOL0     C40682   0.921   5.007  11.815 -0.8210  0.8003  0.4636
  302MOL0     O40683   1.124   4.728  11.648  1.0405  0.1354 -0.2486
  302MOL0     C40684   1.271   4.556  11.815 -0.3757  0.4272  0.1433
  302MOL0     C40685   1.385   4.480  11.849  0.4190 -0.1354 -0.8085
  302MOL0     N40686   2.123   4.175  12.075 -0.7315  0.8653 -0.4131
  302MOL0     N40687   2.207   4.117  11.992  0.5369  0.5757 -0.3133
  302MOL0     C40688   2.622   4.150  11.135  0.6234 -0.3528 -0.9149
  302MOL0     C40689   2.752   4.215  11.145  0.2722  0.7770 -0.0034
  302MOL0     C40690   3.199   4.290  11.183 -0.6444 -0.4145 -0.4169
  302MOL0     C40691   3.266   4.406  11.216  0.0049 -0.2763  0.5712
  302MOL0     C40692   3.398   4.428  11.198  0.4027 -0.3628 -0.4551
  302MOL0     C40693   3.477   4.336  11.130  0.1164  0.5590 -0.1755
  302MOL0     O40694   3.595   4.377  11.082  0.3623 -0.1400  0.1448
  302MOL0     C40695   3.662   4.279  11.001  0.1159  0.5222  0.1678
  302MOL0     C40696   3.777   4.351  10.935 -0.0896 -0.1322  0.1728
  302MOL0     C40697   3.886   4.396  11.031  0.2164  0.0115 -0.1472
  302MOL0     C40698   3.984   4.492  10.965  0.7591 -0.4931  0.1513
  302MOL0     C40699   4.033   4.447  10.830 -0.5621 -0.0427  0.3039
  302MOL0     C40700   4.065   4.421  10.713  0.7830 -0.3131 -0.0485
  302MOL0     C40701   3.414   4.211  11.101  0.3231  0.5092 -1.0051
  302MOL0     C40702   3.277   4.188  11.134 -0.5126  0.2472 -0.2357
  302MOL0     H40703   2.929   3.943  11.038 -0.0723 -0.7165 -0.2924
  302MOL0     H40704   2.728   3.842  11.022 -1.8475 -0.1383  0.8181
  302MOL0     H40705   2.468   3.780  10.966  1.4797 -1.4039  0.3301
  302MOL0     H40706   2.533   3.767  11.133 -0.2013  1.0743  0.6249
  302MOL0     H40707   2.255   3.832  11.053  0.2877 -1.0774  0.7964
  302MOL0     H40708   2.311   3.694  11.154  0.9044  0.5339  1.2085
  302MOL0     H40709   2.373   3.902  11.323 -0.4292 -0.4582 -0.3039
  302MOL0     H40710   2.280   3.999  11.197 -1.3477 -1.5070 -3.4984
  302MOL0     H40711   2.082   3.868  11.238  1.1880  0.1997 -0.3776
  302MOL0     H40712   2.166   3.755  11.354  0.5964  0.2183  1.5708
  302MOL0     H40713   2.167   4.061  11.394 -2.1067  1.8957  1.3193
  302MOL0     H40714   2.035   3.957  11.441  0.8925  3.0322 -0.3094
  302MOL0     H40715   2.173   3.815  11.587 -0.5510 -0.0595 -1.5206
  302MOL0     H40716   2.304   3.922  11.547  0.9137 -2.4467  3.1098
  302MOL0     H40717   2.196   4.113  11.649 -0.5831  1.0694  1.0375
  302MOL0     H40718   2.033   4.014  11.658 -0.1453 -3.6122 -0.2113
  302MOL0     H40719   2.285   3.956  11.822 -0.1123 -1.1549  0.8682
  302MOL0     H40720   2.136   3.867  11.826  0.9739  0.2364  1.6492
  302MOL0     H40721   1.903   4.013  11.907 -1.8282  0.7018  3.2671
  302MOL0     H40722   1.822   4.066  12.159  2.9184 -0.9494  1.4052
  302MOL0     H40723   1.916   4.188  12.244  2.1323  0.1785 -0.5544
  302MOL0     H40724   1.848   4.364  12.086 -1.5626  0.1328  0.6035
  302MOL0     H40725   1.705   4.277  12.151 -2.1642  0.4103 -1.9967
  302MOL0     H40726   1.744   4.129  11.940 -1.9351 -0.4220 -1.0513
  302MOL0     H40727   1.809   4.272  11.863  1.4156 -2.4316  0.8770
  302MOL0     H40728   1.550   4.270  12.006 -0.5683  1.5042  0.1282
  302MOL0     H40729   1.566   4.283  11.824 -0.1533  2.6268 -0.6502
  302MOL0     H40730   1.617   4.726  11.900  0.7960 -0.4340 -1.3664
  302MOL0     H40731   1.465   4.926  11.717  0.4250 -2.2356  0.1229
  302MOL0     H40732   1.352   4.969  11.848 -0.7587  0.7263 -2.6454
  302MOL0     H40733   1.528   4.932  11.882  1.8431 -0.4961 -2.3283
  302MOL0     H40734   1.172   4.997  11.592 -1.3753 -2.3945  0.7481
  302MOL0     H40735   1.060   5.185  11.495  0.0338 -2.1570 -1.2746
  302MOL0     H40736   0.770   5.251  11.386 -1.6741 -5.4891 -0.8560
  302MOL0     H40737   0.686   5.150  11.513  0.6104  0.6325  2.4278
  302MOL0     H40738   0.568   5.353  11.601  2.1064 -0.1835  0.5832
  302MOL0     H40739   0.647   5.434  11.461  0.8362 -2.7603 -3.7252
  302MOL0     H40740   0.433   5.229  11.423  0.2540 -0.8017 -0.1707
  302MOL0     H40741   0.533   5.311  11.306 -1.3241  0.3297  0.1498
  302MOL0     H40742   0.387   5.490  11.516 -0.1197  1.3721 -0.3408
  302MOL0     H40743   0.435   5.523  11.351 -4.9858  2.0134 -0.2216
  302MOL0     H40744   0.198   5.372  11.411 -1.2246 -1.7937 -2.0182
  302MOL0     H40745   0.273   5.365  11.252 -2.5104  0.2240 -0.3277
  302MOL0     H40746   0.207   5.628  11.384 -1.6223 -1.0031  1.5276
  302MOL0     H40747   0.262   5.593  11.224  3.2672 -3.3013  0.5533
  302MOL0     H40748   0.051   5.472  11.177  0.0785 -2.0195  2.0509
  302MOL0     H40749   0.030   5.650  11.208  1.1784 -0.2185 -0.9532
  302MOL0     H40750  -0.155   5.541  11.305 -0.7981 -1.1817  0.4108
  302MOL0     H40751  -0.051   5.561  11.448 -0.9055 -0.6896  0.2013
  302MOL0     H40752   0.751   5.123  11.804 -0.5475 -0.6924 -1.9840
  302MOL0     H40753   0.896   4.967  11.913 -1.1066 -1.9447 -0.6386
  302MOL0     H40754   1.174   4.513  11.792  0.2970 -1.1607  0.1434
  302MOL0     H40755   1.380   4.372  11.842 -1.1587 -0.2090  0.8265
  302MOL0     H40756   2.530   4.205  11.148  2.2068  2.3068 -0.0075
  302MOL0     H40757   2.760   4.316  11.185 -1.2650  2.1360 -2.8244
  302MOL0     H40758   3.213   4.495  11.250  2.1885  2.7431 -3.1484
  302MOL0     H40759   3.439   4.527  11.217  2.2464 -1.3021  0.7803
  302MOL0     H40760   3.690   4.202  11.074 -2.5036  0.9496  1.7535
  302MOL0     H40761   3.609   4.232  10.919  0.9863 -4.1200  1.9601
  302MOL0     H40762   3.734   4.435  10.880 -1.3566 -2.0969 -2.0303
  302MOL0     H40763   3.818   4.284  10.859  1.2341  0.3215  0.4743
  302MOL0     H40764   3.941   4.305  11.057  0.5557  1.1727  4.0958
  302MOL0     H40765   3.844   4.435  11.124 -1.0493 -3.5986  0.9603
  302MOL0     H40766   4.073   4.502  11.027 -0.0104 -3.4819  1.9242
  302MOL0     H40767   3.939   4.591  10.953 -0.4305 -0.1493  5.2231
  302MOL0     H40768   4.093   4.391  10.614  3.7541  0.9110  0.3213
  302MOL0     H40769   3.468   4.123  11.066 -1.8141 -0.7026 -1.4315
  302MOL0     H40770   3.231   4.094  11.105 -2.5443  0.7072  1.1867
  303MOL0     O40771   1.956  10.370   0.437 -0.6443  0.6860  0.1037
  303MOL0     C40772   1.863  10.293   0.431  0.0537  0.2499 -0.4208
  303MOL0     O40773   1.870  10.169   0.371  0.2750  0.5758  0.0866
  303MOL0     C40774   1.996  10.136   0.329  0.4874  0.0964 -0.8162
  303MOL0     C40775   2.076  10.048   0.398  0.1607  0.2689  0.1654
  303MOL0     C40776   2.192   9.997   0.331 -0.6368 -0.9295  0.8871
  303MOL0     C40777   2.212  10.036   0.193 -0.4334  0.4751 -0.5199
  303MOL0     O40778   2.309   9.976   0.110  0.1825  0.4411 -0.4896
  303MOL0     C40779   2.315   9.834   0.102 -0.0369 -0.1878  0.0876
  303MOL0     C40780   2.392   9.806  -0.031 -0.5561  0.1039  0.0655
  303MOL0     C40781   2.538   9.868  -0.037 -0.0324  0.3310 -0.0090
  303MOL0     C40782   2.570   9.868  -0.191 -0.4805  1.0348  0.3335
  303MOL0     C40783   2.689   9.961  -0.227 -0.8510 -0.0236 -0.1168
  303MOL0     C40784   2.822   9.904  -0.158 -0.0617 -0.0432 -0.6177
  303MOL0     C40785   2.948   9.950  -0.224  0.2902 -0.0870 -1.1746
  303MOL0     C40786   2.941   9.933  -0.376 -0.0170  0.0515  0.1262
  303MOL0     N40787   2.880   9.806  -0.430  0.3500 -0.2037  0.0891
  303MOL0     C40788   2.917   9.686  -0.388  0.9590 -0.2882  1.3104
  303MOL0     C40789   2.851   9.602  -0.475  0.3374  0.5249  0.3230
  303MOL0     C40790   2.858   9.449  -0.488  0.2013 -0.5108  1.6514
  303MOL0     C40791   2.772   9.376  -0.384 -0.0611 -0.2902  0.1109
  303MOL0     C40792   2.823   9.407  -0.244  0.1321 -0.0708  0.2606
  303MOL0     C40793   2.967   9.355  -0.223  0.7986 -0.3139 -1.0176
  303MOL0     O40794   2.979   9.227  -0.283  0.6860  0.7842  0.0436
  303MOL0     C40795   3.098   9.168  -0.273  0.9598 -1.2385 -0.7529
  303MOL0     C40796   3.115   9.076  -0.173 -0.7479 -0.2414 -0.0348
  303MOL0     C40797   3.237   9.005  -0.156  0.2750 -0.8019 -0.1302
  303MOL0     C40798   3.231   8.902  -0.045 -0.2974 -0.2093  0.3182
  303MOL0     C40799   3.349   9.044  -0.235 -0.7914 -0.1956  0.1062
  303MOL0     C40800   3.486   8.983  -0.211  0.3562 -0.2113 -0.1407
  303MOL0     O40801   3.587   9.075  -0.219 -0.2085 -0.5067  0.1438
  303MOL0     C40802   3.714   9.031  -0.203  0.1896  0.8541 -0.2337
  303MOL0     C40803   3.817   9.031  -0.301 -0.1886  0.4819  0.0195
  303MOL0     C40804   3.949   8.997  -0.271 -0.7129  1.2327 -0.2345
  303MOL0     C40805   3.985   8.946  -0.152  0.4059  0.4662  0.4858
  303MOL0     O40806   4.115   8.905  -0.143 -0.4117  0.2916 -0.3287
  303MOL0     C40807   4.149   8.781  -0.216 -0.2938 -0.0042 -0.6033
  303MOL0     C40808   4.292   8.777  -0.251 -0.3179 -0.1905 -0.1394
  303MOL0     C40809   4.347   8.639  -0.272 -0.3592  0.8557 -0.2865
  303MOL0     C40810   4.418   8.592  -0.143  0.3888  0.0410 -0.1408
  303MOL0     C40811   4.347   8.466  -0.088 -0.0666  0.2453 -0.1988
  303MOL0     C40812   4.402   8.437   0.055  0.6854 -0.0646  0.3211
  303MOL0     C40813   4.343   8.303   0.112 -0.4354 -0.3502  0.5486
  303MOL0     C40814   4.411   8.288   0.251  0.6082 -0.2324  0.3595
  303MOL0    Cl40815   4.336   8.150   0.344  0.1934 -0.0855 -0.2057
  303MOL0     C40816   3.890   8.938  -0.052 -0.1575 -1.0410 -0.8910
  303MOL0     C40817   3.763   8.989  -0.077 -0.2456  0.1612  0.1421
  303MOL0     O40818   3.496   8.862  -0.181 -0.5888 -0.8792  0.0170
  303MOL0     C40819   3.330   9.141  -0.333 -0.6053  0.3448  0.8076
  303MOL0     C40820   3.210   9.208  -0.344  1.1782 -0.3713  0.4966
  303MOL0     N40821   2.787   9.677  -0.573 -0.6320 -0.1218 -0.3065
  303MOL0     N40822   2.802   9.803  -0.538  0.6761 -0.0875  0.0430
  303MOL0     C40823   2.138  10.139   0.145  0.1576  0.7459 -0.4941
  303MOL0     C40824   2.030  10.194   0.214 -0.9074 -0.4437 -0.3143
  303MOL0     C40825   1.731  10.342   0.467  0.7373 -0.2005 -0.1181
  303MOL0     C40826   1.616  10.268   0.433 -0.2830  0.6818 -0.0320
  303MOL0     C40827   1.487  10.306   0.475  0.8415  0.2891 -0.5813
  303MOL0     C40828   1.470  10.421   0.560  0.2169 -1.3770  0.0792
  303MOL0     O40829   1.353  10.452   0.630 -0.3163 -0.1585 -0.1620
  303MOL0     C40830   1.248  10.494   0.538 -0.8164  0.8105 -0.7094
  303MOL0     C40831   1.164  10.609   0.597 -0.9872  0.6666 -0.6326
  303MOL0     C40832   1.248  10.738   0.626 -0.3384  0.0131 -0.2541
  303MOL0     C40833   1.308  10.790   0.495 -0.2991 -0.0893  0.3267
  303MOL0     C40834   1.204  10.808   0.394  1.3355  0.4623 -0.4525
  303MOL0     C40835   1.121  10.806   0.306  0.3720  0.0395 -0.4151
  303MOL0     C40836   1.583  10.505   0.585  0.0424 -1.6285 -0.0154
  303MOL0     C40837   1.706  10.463   0.543 -1.2390 -0.3268  0.2116
  303MOL0     H40838   2.054  10.015   0.499 -1.3552  1.3727  0.2421
  303MOL0     H40839   2.254   9.922   0.379  0.7296 -1.4533 -1.5385
  303MOL0     H40840   2.369   9.788   0.185  0.7261 -0.1718 -0.3901
  303MOL0     H40841   2.216   9.788   0.091  0.1011 -0.3878 -0.3378
  303MOL0     H40842   2.395   9.697  -0.024 -0.0205  0.1003  7.0515
  303MOL0     H40843   2.317   9.835  -0.105 -3.2338 -1.0251  2.1349
  303MOL0     H40844   2.539   9.968   0.007 -0.5535 -0.5858  2.2124
  303MOL0     H40845   2.609   9.805   0.017 -1.4507 -0.4014  1.0677
  303MOL0     H40846   2.597   9.769  -0.229  2.5722  1.4264  1.2338
  303MOL0     H40847   2.488   9.917  -0.244 -0.2207  2.5256  1.2746
  303MOL0     H40848   2.693   9.971  -0.336 -0.0771  2.4847  0.0797
  303MOL0     H40849   2.675  10.063  -0.189  1.4810  1.0792 -1.9841
  303MOL0     H40850   2.822   9.925  -0.051  2.0655 -0.2723 -0.5275
  303MOL0     H40851   2.814   9.795  -0.160 -3.1258 -0.1110  3.2309
  303MOL0     H40852   2.960  10.058  -0.211  0.7152 -0.2125 -0.4525
  303MOL0     H40853   3.031   9.901  -0.172 -0.5803 -3.3059 -2.6078
  303MOL0     H40854   3.043   9.939  -0.415 -1.0219 -0.4493 -2.8309
  303MOL0     H40855   2.893  10.016  -0.427 -1.7404 -1.6386 -1.1233
  303MOL0     H40856   2.993   9.652  -0.318  2.6659  0.2749 -0.2159
  303MOL0     H40857   2.835   9.421  -0.591  2.8928 -2.0606  1.3816
  303MOL0     H40858   2.962   9.415  -0.485  0.3990  0.0694  1.5786
  303MOL0     H40859   2.775   9.269  -0.407  1.5148 -0.2262 -0.0897
  303MOL0     H40860   2.665   9.397  -0.398  0.2173 -0.2327 -2.2172
  303MOL0     H40861   2.762   9.351  -0.173  0.5910 -2.0177 -0.8038
  303MOL0     H40862   2.812   9.513  -0.222 -1.7150  0.2371 -1.7512
  303MOL0     H40863   2.985   9.348  -0.115  0.5337  2.6107 -0.6968
  303MOL0     H40864   3.033   9.431  -0.266 -0.9594  1.5779 -0.5384
  303MOL0     H40865   3.030   9.046  -0.113 -2.7003  0.7154 -2.2132
  303MOL0     H40866   3.208   8.802  -0.083 -2.4163  0.2583  0.2731
  303MOL0     H40867   3.334   8.893  -0.008  0.0526 -0.9610 -0.7903
  303MOL0     H40868   3.160   8.922   0.035  0.3764 -2.0829  1.4522
  303MOL0     H40869   3.796   9.069  -0.401 -1.8662  1.5747  0.7428
  303MOL0     H40870   4.023   9.012  -0.349 -1.5346  2.8914 -0.7451
  303MOL0     H40871   4.126   8.700  -0.147 -4.0298  2.1485  0.9677
  303MOL0     H40872   4.086   8.758  -0.303 -0.3335 -0.4576 -0.4524
  303MOL0     H40873   4.290   8.834  -0.345 -0.6589 -1.2588 -0.8045
  303MOL0     H40874   4.348   8.836  -0.178 -0.9259 -1.3275  1.3019
  303MOL0     H40875   4.420   8.650  -0.353  4.2076  0.8211  3.4342
  303MOL0     H40876   4.265   8.573  -0.300  0.1837  0.5717 -1.2494
  303MOL0     H40877   4.523   8.570  -0.166  0.8943 -0.3095  2.2618
  303MOL0     H40878   4.411   8.670  -0.067 -1.3792 -1.2144  1.0648
  303MOL0     H40879   4.378   8.389  -0.160  0.5581 -0.5066  0.8337
  303MOL0     H40880   4.239   8.466  -0.077  0.1649 -1.2933  3.3314
  303MOL0     H40881   4.511   8.425   0.055  0.8289  0.5740  2.9885
  303MOL0     H40882   4.376   8.516   0.125 -0.1546 -2.4260  2.8744
  303MOL0     H40883   4.360   8.218   0.045  2.0463  0.7407 -0.3153
  303MOL0     H40884   4.234   8.307   0.116 -0.4809 -1.4355  0.5312
  303MOL0     H40885   4.394   8.383   0.304  0.0144  1.0340 -1.9575
  303MOL0     H40886   4.519   8.272   0.245  0.6334 -0.1182  0.5138
  303MOL0     H40887   3.912   8.912   0.051 -2.8433 -0.5354 -0.1139
  303MOL0     H40888   3.686   8.988  -0.001 -0.4596  0.4652 -0.0696
  303MOL0     H40889   3.402   9.173  -0.407 -1.9910  0.5798 -0.4953
  303MOL0     H40890   3.206   9.291  -0.414 -1.3167 -1.0828 -0.2751
  303MOL0     H40891   2.157  10.171   0.043  1.1663  0.5050 -0.3865
  303MOL0     H40892   1.956  10.266   0.180 -2.3057 -2.3872 -1.5998
  303MOL0     H40893   1.631  10.177   0.376  4.1716  0.7310  0.6473
  303MOL0     H40894   1.411  10.237   0.439  2.3903 -0.5493 -2.4502
  303MOL0     H40895   1.292  10.511   0.439  1.2567 -1.2065 -0.2025
  303MOL0     H40896   1.170  10.419   0.521 -2.2726  1.9091  0.6965
  303MOL0     H40897   1.129  10.577   0.695 -1.5500 -0.4824 -1.1794
  303MOL0     H40898   1.080  10.616   0.527 -0.1979 -4.4615 -2.5149
  303MOL0     H40899   1.329  10.699   0.689 -1.1592 -0.8736  0.2917
  303MOL0     H40900   1.189  10.813   0.680 -0.0049  2.8790 -3.5436
  303MOL0     H40901   1.377  10.717   0.453 -3.0680 -1.6615 -1.8932
  303MOL0     H40902   1.364  10.880   0.522  3.0135 -2.1997  1.0295
  303MOL0     H40903   1.040  10.824   0.237  0.8591  3.6028 -0.2648
  303MOL0     H40904   1.580  10.587   0.656  1.6673 -0.9678 -0.6714
  303MOL0     H40905   1.789  10.528   0.570  0.4690 -1.4225 -2.0436
  304MOL0     O40906  11.262   4.992   0.812  0.3206  0.1470  0.0304
  304MOL0     C40907  11.185   5.072   0.763  0.7632  0.5885  0.9047
  304MOL0     O40908  11.082   5.034   0.675  0.2006 -0.3828 -0.3658
  304MOL0     C40909  11.066   4.906   0.634  0.1093 -0.0879 -0.1789
  304MOL0     C40910  10.957   4.818   0.683  0.0364 -0.3311 -0.0859
  304MOL0     C40911  10.939   4.693   0.628 -0.2365  0.5488  0.3379
  304MOL0     C40912  11.013   4.652   0.516 -0.6033  0.2306 -0.3321
  304MOL0     O40913  10.989   4.530   0.459 -0.1774  0.2929  0.4031
  304MOL0     C40914  10.865   4.470   0.466 -0.6754  0.7514 -0.7859
  304MOL0     C40915  10.872   4.353   0.365  0.0806  0.1987  0.5540
  304MOL0     C40916  10.744   4.268   0.374  0.4763  0.0901  0.2354
  304MOL0     C40917  10.774   4.116   0.366  0.0583 -0.4860 -0.1584
  304MOL0     C40918  10.850   4.068   0.251 -0.6145  0.1840 -0.3265
  304MOL0     C40919  10.789   4.114   0.126 -0.2672 -0.4189  0.3254
  304MOL0     C40920  10.829   4.030   0.004 -0.3260 -0.1852 -0.1827
  304MOL0     C40921  10.750   4.054  -0.122  0.9323  0.1796 -0.9949
  304MOL0     N40922  10.601   4.046  -0.099  0.5996  0.8972  0.2152
  304MOL0     C40923  10.515   4.146  -0.074  0.5482 -0.5162 -0.1006
  304MOL0     C40924  10.394   4.109  -0.113  0.0799 -0.3607  0.1397
  304MOL0     C40925  10.270   4.200  -0.107  1.2224 -0.2239  0.3336
  304MOL0     C40926  10.236   4.269  -0.245  0.5524  0.1828  0.0748
  304MOL0     C40927  10.115   4.366  -0.234  0.5237  0.1457  0.7537
  304MOL0     C40928  10.049   4.388  -0.368 -0.2094 -0.0208  0.5123
  304MOL0     O40929   9.943   4.491  -0.356 -0.5836  0.8338 -0.9347
  304MOL0     C40930   9.986   4.615  -0.401  1.0874 -0.2442 -0.2121
  304MOL0     C40931  10.018   4.638  -0.536 -0.3594  0.2205  0.2926
  304MOL0     C40932  10.076   4.760  -0.585  0.5051 -0.1457  0.3215
  304MOL0     C40933  10.090   4.772  -0.733 -0.1865  0.3576  0.7321
  304MOL0     C40934  10.090   4.868  -0.493  0.1164 -0.4472 -0.4132
  304MOL0     C40935  10.128   5.016  -0.515  0.2575  0.2181  0.1346
  304MOL0     O40936  10.164   5.051  -0.644 -0.1771 -0.4869 -0.0938
  304MOL0     C40937  10.203   5.179  -0.664 -0.0969  0.2572  0.1134
  304MOL0     C40938  10.118   5.290  -0.655  0.1726  0.5709  0.5749
  304MOL0     C40939  10.157   5.414  -0.691  0.2777 -0.0073  0.6080
  304MOL0     C40940  10.289   5.436  -0.737  0.6308 -0.1348  0.5689
  304MOL0     O40941  10.319   5.566  -0.770  1.1975  0.8196 -0.0023
  304MOL0     C40942  10.437   5.594  -0.846 -0.8042  0.3377  0.0250
  304MOL0     C40943  10.472   5.740  -0.845  1.0812 -0.4255 -0.4256
  304MOL0     C40944  10.368   5.827  -0.914  0.2875 -0.3297  0.2863
  304MOL0     C40945  10.389   5.978  -0.902 -0.3359 -0.0257 -0.2636
  304MOL0     C40946  10.266   6.059  -0.953 -0.1367 -0.3240  0.4983
  304MOL0     C40947  10.302   6.206  -0.983  0.3066 -0.5428 -0.1982
  304MOL0     C40948  10.182   6.293  -1.015  1.0622 -0.1482 -0.0520
  304MOL0     C40949  10.222   6.433  -1.049 -0.3379 -0.3255 -0.3971
  304MOL0    Cl40950  10.075   6.512  -1.092  0.2059 -0.0421  0.0682
  304MOL0     C40951  10.370   5.320  -0.756  0.6283 -0.1482 -0.5694
  304MOL0     C40952  10.322   5.190  -0.728 -0.0429 -0.1278 -0.5088
  304MOL0     O40953  10.118   5.095  -0.418 -0.0072  0.2673  0.4359
  304MOL0     C40954  10.064   4.845  -0.357 -1.0185  0.0197  0.4188
  304MOL0     C40955  10.015   4.721  -0.317 -0.4215  0.3941  0.0549
  304MOL0     N40956  10.410   3.973  -0.142  1.0450 -0.3735  0.2215
  304MOL0     N40957  10.528   3.938  -0.144  0.6609  0.5512  1.0006
  304MOL0     C40958  11.122   4.728   0.481 -0.0243  1.1051  0.0853
  304MOL0     C40959  11.154   4.849   0.537  0.0833 -0.1072 -0.3355
  304MOL0     C40960  11.208   5.213   0.782 -0.0030 -0.2057 -1.5517
  304MOL0     C40961  11.124   5.315   0.733  0.2413  0.8630 -0.6949
  304MOL0     C40962  11.156   5.448   0.763 -0.0755 -0.0259  0.0818
  304MOL0     C40963  11.272   5.481   0.838 -0.4406 -0.7089  0.0268
  304MOL0     O40964  11.288   5.619   0.853 -0.6975 -0.4427  0.3072
  304MOL0     C40965  11.403   5.663   0.940 -0.8398 -0.0107  0.5885
  304MOL0     C40966  11.509   5.720   0.850  0.6448 -0.4868 -0.6469
  304MOL0     C40967  11.607   5.803   0.929 -0.1151 -0.5744  0.4780
  304MOL0     C40968  11.684   5.739   1.036  0.5576  0.7528  0.2823
  304MOL0     C40969  11.729   5.599   1.003 -0.5144  0.3226  0.1649
  304MOL0     C40970  11.787   5.495   0.972  0.2927 -0.3907  0.1683
  304MOL0     C40971  11.364   5.374   0.892  0.6289  0.3547  1.0394
  304MOL0     C40972  11.321   5.247   0.857 -0.1994  0.0159  0.3573
  304MOL0     H40973  10.881   4.846   0.755 -0.9877  3.5505 -2.3482
  304MOL0     H40974  10.864   4.630   0.674  1.3603  0.1545  2.6067
  304MOL0     H40975  10.849   4.436   0.568 -1.8826  4.7190  0.5270
  304MOL0     H40976  10.779   4.530   0.434  0.6574  1.8945 -2.4594
  304MOL0     H40977  10.886   4.389   0.263  0.5799 -2.6897 -0.4918
  304MOL0     H40978  10.957   4.290   0.390  1.2218  1.0069 -1.1377
  304MOL0     H40979  10.686   4.267   0.466 -1.6443 -3.4693 -0.9041
  304MOL0     H40980  10.674   4.295   0.294  2.4023 -0.5519 -1.7629
  304MOL0     H40981  10.831   4.089   0.455 -0.5972  2.9583  1.4753
  304MOL0     H40982  10.681   4.062   0.381 -0.6687  1.6954  5.2150
  304MOL0     H40983  10.953   4.103   0.253  0.1310 -1.8387  2.0608
  304MOL0     H40984  10.853   3.959   0.257 -1.9075  0.1824  3.4055
  304MOL0     H40985  10.681   4.098   0.139 -0.1052  0.2399  3.0521
  304MOL0     H40986  10.811   4.220   0.108  0.4010 -0.4902  0.7062
  304MOL0     H40987  10.930   4.064  -0.020 -0.6215  3.3081  2.6581
  304MOL0     H40988  10.833   3.923   0.025 -0.0868  0.2399  2.1452
  304MOL0     H40989  10.789   3.976  -0.189 -0.4336 -2.3548  0.9553
  304MOL0     H40990  10.774   4.153  -0.160  1.0280  0.4508 -0.2424
  304MOL0     H40991  10.546   4.249  -0.059  1.9447 -0.9622  0.2279
  304MOL0     H40992  10.184   4.150  -0.060  0.5553 -0.2918 -0.9079
  304MOL0     H40993  10.296   4.283  -0.040  0.5138  1.3795 -1.2873
  304MOL0     H40994  10.205   4.183  -0.305 -0.2940  2.0581 -2.3378
  304MOL0     H40995  10.326   4.316  -0.285 -0.0263  1.5790  0.3670
  304MOL0     H40996  10.144   4.459  -0.186  0.6332 -0.5401  2.0574
  304MOL0     H40997  10.035   4.319  -0.175 -0.2468 -1.7969 -1.6673
  304MOL0     H40998  10.009   4.287  -0.385  0.3471  0.0630 -1.4967
  304MOL0     H40999  10.126   4.412  -0.442 -1.5926  2.6821 -0.1538
  304MOL0     H41000  10.007   4.549  -0.598 -0.1745 -0.1853  0.8361
  304MOL0     H41001  10.013   4.842  -0.770 -2.7245 -1.2740  2.6042
  304MOL0     H41002  10.189   4.812  -0.757  0.2972  1.2142  3.7672
  304MOL0     H41003  10.082   4.678  -0.788 -5.4503  0.7426  0.2754
  304MOL0     H41004  10.017   5.273  -0.620 -0.2774  1.5177 -0.2029
  304MOL0     H41005  10.084   5.494  -0.681  1.8720  1.4470  1.2551
  304MOL0     H41006  10.532   5.551  -0.812  0.2739  0.3736 -2.7003
  304MOL0     H41007  10.415   5.564  -0.949 -1.6645 -0.2885  0.3731
  304MOL0     H41008  10.495   5.776  -0.745 -2.4482  1.8322 -0.2724
  304MOL0     H41009  10.562   5.735  -0.907  3.4900  0.0371  2.7916
  304MOL0     H41010  10.277   5.800  -0.859 -1.2227  1.9788 -0.9426
  304MOL0     H41011  10.363   5.815  -1.022 -3.6049  0.7309  0.1978
  304MOL0     H41012  10.410   6.010  -0.800 -1.8852  0.8103 -0.1729
  304MOL0     H41013  10.474   5.994  -0.969  0.9213 -2.3758  0.6440
  304MOL0     H41014  10.187   6.056  -0.877  0.0392 -2.6237  0.6470
  304MOL0     H41015  10.222   6.006  -1.038 -2.4646  3.5821 -0.9966
  304MOL0     H41016  10.362   6.252  -0.903  2.2202 -1.9971 -0.7236
  304MOL0     H41017  10.362   6.190  -1.073 -1.3636 -1.2831 -1.2199
  304MOL0     H41018  10.112   6.288  -0.931  1.1638 -1.9346 -0.0332
  304MOL0     H41019  10.138   6.257  -1.109  2.5406 -0.4420 -0.6554
  304MOL0     H41020  10.299   6.434  -1.127 -0.5211  3.0080 -0.6919
  304MOL0     H41021  10.262   6.486  -0.962 -0.2955  1.6312 -1.5524
  304MOL0     H41022  10.471   5.326  -0.794  0.9367 -2.8555 -0.3846
  304MOL0     H41023  10.391   5.110  -0.748  0.7859 -0.1945  2.2279
  304MOL0     H41024  10.084   4.925  -0.287 -2.2240  0.4711  0.2806
  304MOL0     H41025   9.992   4.724  -0.211 -0.3701 -0.6649  0.1068
  304MOL0     H41026  11.189   4.691   0.405  0.6855  1.9393  0.2906
  304MOL0     H41027  11.245   4.902   0.512  1.7430 -1.9171  1.5397
  304MOL0     H41028  11.032   5.286   0.683  0.4606  0.6522 -0.9778
  304MOL0     H41029  11.075   5.514   0.732 -4.4625 -5.2416 -1.3104
  304MOL0     H41030  11.369   5.749   0.998 -0.7684 -0.5980  1.5198
  304MOL0     H41031  11.433   5.582   1.007 -0.9582 -0.0996  0.5340
  304MOL0     H41032  11.451   5.764   0.768 -0.4351  0.5907  0.6429
  304MOL0     H41033  11.565   5.636   0.809  3.9664  0.6147  1.2636
  304MOL0     H41034  11.559   5.895   0.963 -2.4230 -0.7496 -1.9478
  304MOL0     H41035  11.673   5.846   0.854 -1.1866  0.1359 -0.0789
  304MOL0     H41036  11.621   5.745   1.124  1.4300  1.7983  0.8543
  304MOL0     H41037  11.771   5.801   1.061 -0.0583  0.6860  2.7600
  304MOL0     H41038  11.832   5.408   0.930 -2.5560 -2.1112  0.4404
  304MOL0     H41039  11.448   5.394   0.957  1.6444  4.7475 -1.2348
  304MOL0     H41040  11.387   5.165   0.883 -0.5601 -0.2492  0.4560
  305MOL0     O41041   7.624   2.553   3.368 -0.4889  1.0254 -0.2038
  305MOL0     C41042   7.715   2.636   3.374  0.0812  0.3231  0.7345
  305MOL0     O41043   7.715   2.750   3.303  0.2318 -0.5833  0.4625
  305MOL0     C41044   7.625   2.794   3.204 -0.8935 -0.1786 -0.5128
  305MOL0     C41045   7.632   2.927   3.168  0.3217  0.3648 -0.0353
  305MOL0     C41046   7.546   2.985   3.070 -0.1549 -0.0161 -0.1722
  305MOL0     C41047   7.450   2.900   3.009 -0.3721 -0.0527 -0.2910
  305MOL0     O41048   7.373   2.955   2.912 -0.1891 -0.0064 -0.1153
  305MOL0     C41049   7.447   2.975   2.791  0.3744  0.1555 -0.6474
  305MOL0     C41050   7.333   3.016   2.690 -0.3689  0.4249 -0.5579
  305MOL0     C41051   7.260   3.140   2.741  0.6465 -0.2626  0.6430
  305MOL0     C41052   7.192   3.216   2.628  0.0206 -0.6820  0.1446
  305MOL0     C41053   7.101   3.125   2.543  0.4312 -0.5907  0.1859
  305MOL0     C41054   6.986   3.039   2.622 -0.7027 -0.7962 -0.3547
  305MOL0     C41055   6.876   2.994   2.522 -0.2378  0.8207  0.2337
  305MOL0     C41056   6.785   3.113   2.494  0.5630  0.2674 -0.3648
  305MOL0     N41057   6.650   3.069   2.451 -0.9797  0.8072  0.0381
  305MOL0     C41058   6.571   2.964   2.511  0.1400 -0.8632  0.2605
  305MOL0     C41059   6.455   2.977   2.440 -0.1343  0.9063  0.7243
  305MOL0     C41060   6.336   2.890   2.469 -0.0015  0.1171  0.5571
  305MOL0     C41061   6.205   2.966   2.420  0.1602  0.7791  0.5154
  305MOL0     C41062   6.080   2.884   2.416  1.0111  1.2872 -0.4940
  305MOL0     C41063   6.045   2.822   2.554 -0.0857 -0.9182  0.1532
  305MOL0     O41064   6.043   2.924   2.660 -0.0425  0.9193  0.4636
  305MOL0     C41065   5.935   3.009   2.669  0.8323 -0.1410 -0.0933
  305MOL0     C41066   5.949   3.142   2.639 -0.5792 -0.5175 -0.2698
  305MOL0     C41067   5.842   3.228   2.650 -0.2474  0.2492 -0.3779
  305MOL0     C41068   5.867   3.376   2.638  0.7084  1.2347  0.9479
  305MOL0     C41069   5.713   3.179   2.678  0.2295 -0.2943 -0.1830
  305MOL0     C41070   5.587   3.260   2.657 -0.2222 -0.2675  0.6845
  305MOL0     O41071   5.488   3.236   2.746  0.6559  0.2084 -0.2126
  305MOL0     C41072   5.343   3.247   2.721  1.1086 -0.5937 -0.9968
  305MOL0     C41073   5.260   3.169   2.790 -0.4710  0.6425  0.0314
  305MOL0     C41074   5.118   3.176   2.804 -0.6720  0.2643 -0.2140
  305MOL0     C41075   5.058   3.274   2.728 -0.5568 -0.6379  0.4693
  305MOL0     O41076   4.923   3.301   2.723  0.1235  0.1679  0.2313
  305MOL0     C41077   4.842   3.257   2.825  0.4877  0.8732 -0.9114
  305MOL0     C41078   4.790   3.361   2.921  0.1622  0.4948  0.4523
  305MOL0     C41079   4.710   3.463   2.841 -0.8423  0.6594 -0.9339
  305MOL0     C41080   4.671   3.588   2.927 -0.2400  1.2787  0.0962
  305MOL0     C41081   4.586   3.697   2.862  0.2692  0.3334  0.8554
  305MOL0     C41082   4.439   3.678   2.889  0.4349  0.8811  0.2232
  305MOL0     C41083   4.353   3.802   2.846  0.2189 -0.2537 -0.0982
  305MOL0     C41084   4.379   3.867   2.715  0.8372 -0.1716  0.0918
  305MOL0    Cl41085   4.258   3.987   2.671  0.1751 -0.3252 -0.0342
  305MOL0     C41086   5.142   3.360   2.649 -0.5114  0.6769 -0.6329
  305MOL0     C41087   5.278   3.336   2.643  0.3096 -0.4329  1.4798
  305MOL0     O41088   5.584   3.347   2.568 -0.3923  0.6695 -0.7398
  305MOL0     C41089   5.697   3.041   2.705  0.6454 -0.4735  0.7320
  305MOL0     C41090   5.804   2.963   2.698  0.4029  1.3311 -0.9432
  305MOL0     N41091   6.467   3.081   2.348 -0.1511 -0.3051  0.3445
  305MOL0     N41092   6.586   3.124   2.353  0.5610  0.4221  0.1595
  305MOL0     C41093   7.442   2.774   3.046 -0.0142 -0.8000  0.9234
  305MOL0     C41094   7.521   2.716   3.146  0.4223 -0.3227  0.4389
  305MOL0     C41095   7.832   2.616   3.446 -0.7878  0.1291 -0.1819
  305MOL0     C41096   7.919   2.722   3.489  0.3281 -0.2858 -0.1288
  305MOL0     C41097   8.021   2.694   3.587 -0.6134  0.7313 -0.0822
  305MOL0     C41098   8.050   2.558   3.623 -0.5101  0.1198  0.1843
  305MOL0     O41099   8.141   2.550   3.715 -0.5074  0.3999  0.3203
  305MOL0     C41100   8.182   2.419   3.770 -0.3566  0.3769  0.2550
  305MOL0     C41101   8.255   2.437   3.908 -1.1009 -0.7619  0.0713
  305MOL0     C41102   8.156   2.499   4.012  0.1067  0.1188  0.8494
  305MOL0     C41103   8.193   2.642   4.034  1.0855  0.8231 -0.3109
  305MOL0     C41104   8.326   2.650   4.099  0.1774 -0.3630  0.2120
  305MOL0     C41105   8.429   2.652   4.168 -0.6079  0.3102  0.2536
  305MOL0     C41106   7.980   2.454   3.565  0.4892 -0.9279 -0.3316
  305MOL0     C41107   7.863   2.487   3.481  0.5937  0.1310 -0.0964
  305MOL0     H41108   7.703   2.994   3.215  1.6467 -1.9577  1.4904
  305MOL0     H41109   7.560   3.090   3.045  1.3920 -0.6663 -2.3852
  305MOL0     H41110   7.522   3.054   2.789  0.0563  0.5775 -4.5733
  305MOL0     H41111   7.501   2.886   2.760  1.0348  0.7319 -1.1898
  305MOL0     H41112   7.379   3.028   2.591  0.3216 -0.6732 -0.3884
  305MOL0     H41113   7.267   2.929   2.685  1.3821 -1.0646  0.7709
  305MOL0     H41114   7.184   3.107   2.812  0.1299 -0.1153  0.1607
  305MOL0     H41115   7.330   3.207   2.791  4.3850 -0.8130 -3.2037
  305MOL0     H41116   7.131   3.296   2.671 -0.4499  0.1500 -1.9371
  305MOL0     H41117   7.266   3.260   2.559 -2.0666 -0.1505 -1.8921
  305MOL0     H41118   7.051   3.191   2.471  1.8140  1.2800  0.8549
  305MOL0     H41119   7.166   3.051   2.494 -0.8677 -1.5053 -0.2317
  305MOL0     H41120   7.038   2.956   2.670 -0.2052  0.9828  2.3834
  305MOL0     H41121   6.935   3.090   2.704 -3.5346 -0.2994 -2.2877
  305MOL0     H41122   6.920   2.982   2.422 -0.2507  0.0017  0.3195
  305MOL0     H41123   6.833   2.898   2.552 -0.6373  1.5597  2.1777
  305MOL0     H41124   6.809   3.190   2.419  0.9282  0.6975  0.1893
  305MOL0     H41125   6.763   3.165   2.587 -0.4011  0.2301 -0.5604
  305MOL0     H41126   6.591   2.889   2.587  4.2044  0.2277  0.5228
  305MOL0     H41127   6.346   2.797   2.412 -1.5482  1.9440 -2.9833
  305MOL0     H41128   6.334   2.866   2.576 -1.5819  0.4362  0.6239
  305MOL0     H41129   6.216   3.007   2.319  0.2015  1.2911  0.7233
  305MOL0     H41130   6.189   3.054   2.483 -3.8083  1.7273 -1.5140
  305MOL0     H41131   6.082   2.807   2.339  0.2254 -0.8186  1.4733
  305MOL0     H41132   5.995   2.952   2.409 -2.0410 -2.1644 -0.3701
  305MOL0     H41133   6.120   2.746   2.576  1.2138  0.0400 -0.7765
  305MOL0     H41134   5.951   2.772   2.527  1.7768 -1.6054 -7.0354
  305MOL0     H41135   6.045   3.192   2.632 -1.8589  3.3281  4.4856
  305MOL0     H41136   5.807   3.427   2.713 -0.4786  2.5044 -0.7969
  305MOL0     H41137   5.974   3.394   2.649  1.2907 -1.1898 -0.0315
  305MOL0     H41138   5.830   3.398   2.537 -1.0277 -1.3845  0.9004
  305MOL0     H41139   5.309   3.093   2.849 -1.2200  1.1820  1.4064
  305MOL0     H41140   5.079   3.098   2.868  0.4006  0.5114  0.7890
  305MOL0     H41141   4.750   3.219   2.778  0.4520 -3.2443  1.9601
  305MOL0     H41142   4.887   3.177   2.885  0.8638 -0.2274 -2.5648
  305MOL0     H41143   4.741   3.316   3.008 -0.3744  1.9473  0.9351
  305MOL0     H41144   4.884   3.406   2.955  0.2860  0.8600 -0.3599
  305MOL0     H41145   4.618   3.425   2.796 -2.0276  1.9872  0.2917
  305MOL0     H41146   4.771   3.499   2.757  1.9801 -0.9823  0.2664
  305MOL0     H41147   4.637   3.558   3.027  1.2758  4.0810  1.5895
  305MOL0     H41148   4.756   3.641   2.970 -0.6140 -0.0468  2.6981
  305MOL0     H41149   4.594   3.691   2.753 -1.0732 -1.9190  0.8058
  305MOL0     H41150   4.617   3.797   2.892 -0.4600  0.6485  0.5714
  305MOL0     H41151   4.398   3.594   2.832 -2.3622  3.5337 -2.0203
  305MOL0     H41152   4.423   3.655   2.995  1.6563 -3.0999 -0.2910
  305MOL0     H41153   4.369   3.880   2.921  1.6856  1.1811 -1.8071
  305MOL0     H41154   4.249   3.771   2.836  0.3093 -0.4287 -0.5183
  305MOL0     H41155   4.375   3.793   2.635 -4.1301  1.7221 -1.8723
  305MOL0     H41156   4.479   3.909   2.708 -0.2947  2.4890 -2.1221
  305MOL0     H41157   5.098   3.433   2.581  1.2899  0.1706 -2.4398
  305MOL0     H41158   5.334   3.383   2.563  0.7818 -2.9227  0.2526
  305MOL0     H41159   5.600   2.995   2.716  0.6261 -1.5509 -2.5779
  305MOL0     H41160   5.788   2.856   2.696 -2.9676  1.7157 -3.8933
  305MOL0     H41161   7.372   2.713   2.990 -0.2610 -0.0976  0.4555
  305MOL0     H41162   7.508   2.614   3.178 -0.1912 -1.2257 -2.3737
  305MOL0     H41163   7.896   2.823   3.456 -3.5719 -1.9979 -3.6118
  305MOL0     H41164   8.072   2.779   3.631 -1.1014  0.5360  0.8870
  305MOL0     H41165   8.091   2.362   3.791 -0.5753  0.7142  0.2291
  305MOL0     H41166   8.258   2.363   3.715  1.0689  1.3974  1.0917
  305MOL0     H41167   8.346   2.496   3.894  0.9699 -3.9389 -1.0783
  305MOL0     H41168   8.285   2.343   3.956  2.4301  2.0479  4.1761
  305MOL0     H41169   8.163   2.437   4.102 -1.6653  0.1672  1.0605
  305MOL0     H41170   8.053   2.482   3.982  0.6315 -0.6228 -0.6267
  305MOL0     H41171   8.128   2.680   4.114 -0.1292  1.3760 -1.5096
  305MOL0     H41172   8.172   2.702   3.945 -3.6327 -0.1590 -0.1142
  305MOL0     H41173   8.525   2.665   4.216 -0.1972 -1.5143  0.0038
  305MOL0     H41174   8.011   2.350   3.577  1.9784 -1.0821 -4.2007
  305MOL0     H41175   7.805   2.400   3.453 -0.7377  1.3932 -1.4419
  306MOL0     O41176   0.925   2.579   2.588  0.8248 -0.1205  0.6572
  306MOL0     C41177   0.837   2.660   2.619 -0.2325 -0.2617  0.1569
  306MOL0     O41178   0.849   2.798   2.628 -0.2473  0.1894 -0.5920
  306MOL0     C41179   0.969   2.840   2.575 -0.7467 -0.3284 -0.0968
  306MOL0     C41180   1.070   2.869   2.661 -0.5603  0.6391  0.5354
  306MOL0     C41181   1.202   2.908   2.621  1.2797  0.1768  0.2154
  306MOL0     C41182   1.222   2.914   2.475  0.5394 -0.5586  0.4090
  306MOL0     O41183   1.343   2.947   2.419 -0.1811  0.5514 -0.4542
  306MOL0     C41184   1.459   2.902   2.483 -0.1398 -0.6521 -0.6485
  306MOL0     C41185   1.491   2.753   2.447  0.2569 -0.6108  0.1291
  306MOL0     C41186   1.455   2.652   2.554 -0.1752  0.6298  0.2259
  306MOL0     C41187   1.551   2.686   2.673  0.2303 -0.2848  0.2555
  306MOL0     C41188   1.515   2.590   2.795 -0.3415  0.1505  1.1316
  306MOL0     C41189   1.557   2.441   2.750  0.3692 -0.1355 -1.2620
  306MOL0     C41190   1.436   2.342   2.756 -0.0754  0.1242 -0.1906
  306MOL0     C41191   1.465   2.204   2.695  1.3293  0.7416 -0.2521
  306MOL0     N41192   1.576   2.152   2.774  0.6387  0.0104 -0.1416
  306MOL0     C41193   1.701   2.135   2.729 -0.3548 -0.1905 -0.7105
  306MOL0     C41194   1.775   2.101   2.836  1.1875 -0.2694 -1.0666
  306MOL0     C41195   1.920   2.075   2.848  0.6832  0.1566  0.7028
  306MOL0     C41196   1.998   2.064   2.710 -0.7039  1.0094 -0.1951
  306MOL0     C41197   2.018   2.213   2.647 -0.0399 -0.2684 -0.0118
  306MOL0     C41198   2.110   2.224   2.518  0.0461  0.7294  0.1556
  306MOL0     O41199   2.043   2.164   2.404  0.5973  0.6019 -0.1224
  306MOL0     C41200   1.928   2.231   2.363  0.0526  0.5893  0.3258
  306MOL0     C41201   1.924   2.362   2.329  0.0395  0.1875 -0.7129
  306MOL0     C41202   1.807   2.426   2.277  0.3719 -0.6200 -1.4177
  306MOL0     C41203   1.813   2.565   2.220  0.5408 -0.7259  0.9390
  306MOL0     C41204   1.685   2.346   2.275 -0.1477 -0.0181 -0.6410
  306MOL0     C41205   1.552   2.400   2.236  0.2283  0.6757 -0.1450
  306MOL0     O41206   1.448   2.306   2.243 -0.6699  0.0916  0.2367
  306MOL0     C41207   1.330   2.361   2.213  0.6463 -0.6393 -0.7819
  306MOL0     C41208   1.301   2.390   2.080  0.7712 -0.0591  0.8095
  306MOL0     C41209   1.189   2.460   2.048 -0.3453  0.1007 -0.7441
  306MOL0     C41210   1.100   2.506   2.151  0.2421  0.4498 -0.7440
  306MOL0     O41211   0.987   2.571   2.120  0.1457 -0.6584  0.0140
  306MOL0     C41212   0.877   2.575   2.210  0.4685 -0.5128 -0.5909
  306MOL0     C41213   0.792   2.441   2.202 -0.2496  0.8209 -0.1844
  306MOL0     C41214   0.653   2.466   2.271  0.0407 -0.2944 -0.3102
  306MOL0     C41215   0.549   2.365   2.240  0.2376  0.6611 -0.5988
  306MOL0     C41216   0.404   2.418   2.255  0.3864  0.1333  0.3128
  306MOL0     C41217   0.298   2.310   2.264  0.0927 -0.6577  0.0481
  306MOL0     C41218   0.158   2.385   2.281  0.7734  0.5272  0.3260
  306MOL0     C41219   0.028   2.296   2.279 -0.3993  0.2496  0.2655
  306MOL0    Cl41220   0.026   2.177   2.414 -0.0892 -0.1839  0.1185
  306MOL0     C41221   1.131   2.489   2.288 -0.0055  0.6108 -0.0373
  306MOL0     C41222   1.240   2.402   2.316  0.2103 -0.2772  0.8258
  306MOL0     O41223   1.533   2.521   2.215  0.0492 -0.7516  0.2906
  306MOL0     C41224   1.690   2.211   2.304  0.1980  0.3362  0.3135
  306MOL0     C41225   1.811   2.153   2.341  0.1989 -0.1261 -0.0849
  306MOL0     N41226   1.689   2.088   2.938  0.4972  0.0122  0.7064
  306MOL0     N41227   1.575   2.122   2.906  0.8910 -0.7377  0.5324
  306MOL0     C41228   1.113   2.893   2.385  0.0091  0.0535  0.2890
  306MOL0     C41229   0.992   2.868   2.441  0.4214 -0.2259 -0.4099
  306MOL0     C41230   0.711   2.586   2.652  1.3659  0.0657 -0.4783
  306MOL0     C41231   0.593   2.656   2.672  0.8468 -0.0434  0.0844
  306MOL0     C41232   0.468   2.594   2.672  0.4186  0.8422 -0.3250
  306MOL0     C41233   0.460   2.448   2.661  1.2575  0.0345 -1.1910
  306MOL0     O41234   0.340   2.388   2.692 -0.0660 -0.4232  0.2089
  306MOL0     C41235   0.305   2.257   2.651 -0.1285 -0.0188 -0.8839
  306MOL0     C41236   0.231   2.173   2.758  0.5337  0.2621  0.0144
  306MOL0     C41237   0.080   2.200   2.755 -0.0066 -0.7487 -0.7215
  306MOL0     C41238   0.042   2.339   2.796  0.8393  0.4578 -0.2927
  306MOL0     C41239  -0.105   2.357   2.827 -0.1211  0.0319 -0.8144
  306MOL0     C41240  -0.222   2.372   2.847 -0.4420  0.3902  0.0438
  306MOL0     C41241   0.580   2.377   2.662 -0.5477 -0.4518  0.9529
  306MOL0     C41242   0.701   2.449   2.662 -0.1096 -0.7823  0.3691
  306MOL0     H41243   1.045   2.841   2.763  2.2260 -3.5213  0.2962
  306MOL0     H41244   1.280   2.929   2.693  0.5139  0.5540  0.9491
  306MOL0     H41245   1.555   2.945   2.455  1.4083 -3.7715 -0.5259
  306MOL0     H41246   1.460   2.910   2.592 -0.0970 -2.3276 -0.4993
  306MOL0     H41247   1.441   2.732   2.352 -0.5427  0.3101  0.3338
  306MOL0     H41248   1.598   2.744   2.427  0.2855 -2.5334  1.0019
  306MOL0     H41249   1.348   2.673   2.566 -0.9342 -1.1024 -2.5869
  306MOL0     H41250   1.459   2.548   2.519  0.2616  0.4822  0.6970
  306MOL0     H41251   1.655   2.667   2.644  1.0978  0.4838  2.5906
  306MOL0     H41252   1.548   2.787   2.715 -1.3472 -0.2203  0.0195
  306MOL0     H41253   1.574   2.611   2.885 -0.4789 -0.2460  1.3124
  306MOL0     H41254   1.409   2.583   2.819 -0.4883 -1.5535  0.1283
  306MOL0     H41255   1.613   2.439   2.656 -1.2743  1.7041 -2.3431
  306MOL0     H41256   1.635   2.419   2.824 -0.1856  1.0142 -0.3094
  306MOL0     H41257   1.414   2.323   2.861 -3.2170 -0.1719 -0.8102
  306MOL0     H41258   1.350   2.391   2.710  1.1057  1.1031 -1.4668
  306MOL0     H41259   1.498   2.222   2.592 -0.1756 -2.0901 -1.3439
  306MOL0     H41260   1.385   2.130   2.695  0.1425  1.9387  1.8926
  306MOL0     H41261   1.730   2.150   2.626 -0.0545  0.9522 -0.4715
  306MOL0     H41262   1.959   2.170   2.886 -2.5710  1.9305  0.0215
  306MOL0     H41263   1.927   1.985   2.910 -0.3524 -0.5199 -0.1187
  306MOL0     H41264   1.958   1.996   2.633  0.1595  0.2111  0.0378
  306MOL0     H41265   2.100   2.024   2.714 -0.7933  0.7423 -0.4707
  306MOL0     H41266   2.060   2.275   2.727 -0.7220 -3.1899  2.7950
  306MOL0     H41267   1.919   2.250   2.622 -0.7106 -1.6070  0.5773
  306MOL0     H41268   2.200   2.162   2.528  1.9332  3.1444 -0.9831
  306MOL0     H41269   2.151   2.324   2.499  2.0791  0.6740  3.3788
  306MOL0     H41270   2.008   2.428   2.349 -0.8604  1.6774 -1.6497
  306MOL0     H41271   1.791   2.550   2.114 -0.4748  1.3517  0.8032
  306MOL0     H41272   1.740   2.632   2.266 -0.9355 -2.4164  1.1859
  306MOL0     H41273   1.913   2.607   2.230  0.3995 -0.7528  2.8369
  306MOL0     H41274   1.376   2.370   2.004 -0.4940  0.6155 -0.6541
  306MOL0     H41275   1.171   2.492   1.946 -0.4959 -0.2719 -0.8321
  306MOL0     H41276   0.908   2.600   2.311 -1.5681 -4.6616  1.2797
  306MOL0     H41277   0.813   2.662   2.189 -2.0598 -1.9700  0.6305
  306MOL0     H41278   0.781   2.419   2.095  0.6762 -1.8224  0.1839
  306MOL0     H41279   0.838   2.358   2.257  0.1142  0.8532 -0.4344
  306MOL0     H41280   0.600   2.547   2.219 -0.1734 -1.3319 -1.7635
  306MOL0     H41281   0.653   2.484   2.379  0.1518  0.8453 -0.4803
  306MOL0     H41282   0.551   2.325   2.138 -0.2808  0.9723 -0.7366
  306MOL0     H41283   0.579   2.285   2.309 -0.6981  1.0405  0.2686
  306MOL0     H41284   0.379   2.483   2.170  2.9905  1.5778  0.5653
  306MOL0     H41285   0.392   2.470   2.350  1.5944  1.7582 -0.3742
  306MOL0     H41286   0.303   2.241   2.179  1.8550 -1.6249  0.8763
  306MOL0     H41287   0.320   2.246   2.350  0.2900 -0.9022 -0.1824
  306MOL0     H41288   0.156   2.465   2.207  2.0860 -0.3364 -0.6860
  306MOL0     H41289   0.159   2.429   2.381 -0.7823 -1.9953  1.5612
  306MOL0     H41290   0.018   2.264   2.174  0.7750  1.7000 -0.3246
  306MOL0     H41291  -0.054   2.368   2.288  0.0908  0.8182  0.2637
  306MOL0     H41292   1.084   2.522   2.380 -0.9905 -1.6304  0.3131
  306MOL0     H41293   1.262   2.371   2.418  2.8905  3.1157  1.4205
  306MOL0     H41294   1.601   2.149   2.303  0.1882  0.3386 -1.6826
  306MOL0     H41295   1.805   2.047   2.363  0.7558 -0.7398 -2.5451
  306MOL0     H41296   1.115   2.914   2.278 -2.7160 -2.4308 -0.3680
  306MOL0     H41297   0.914   2.856   2.365  0.4746  1.8759 -0.8529
  306MOL0     H41298   0.596   2.765   2.663  0.0770 -0.0870 -0.8870
  306MOL0     H41299   0.378   2.653   2.686  0.1251  0.1757  0.7201
  306MOL0     H41300   0.256   2.271   2.554 -0.4605  1.6376 -0.5012
  306MOL0     H41301   0.397   2.201   2.630  0.4449  0.5067  0.1802
  306MOL0     H41302   0.265   2.192   2.861 -0.0990 -1.5005  0.5868
  306MOL0     H41303   0.245   2.069   2.729 -0.2625 -0.0796  0.7942
  306MOL0     H41304   0.033   2.127   2.822 -2.0849  0.2537 -0.9928
  306MOL0     H41305   0.031   2.180   2.659 -2.3744  1.4996 -0.0807
  306MOL0     H41306   0.062   2.411   2.717 -0.4102 -2.5241 -3.5888
  306MOL0     H41307   0.100   2.364   2.886 -2.4780 -1.5426  2.6857
  306MOL0     H41308  -0.325   2.400   2.859 -0.1706  0.4244  3.2012
  306MOL0     H41309   0.590   2.269   2.654 -3.5223 -0.6834 -1.4084
  306MOL0     H41310   0.787   2.383   2.667  0.4484 -0.0247  5.4693
  307MOL0     O41311   3.907   4.563   6.148 -0.2852 -0.4947  0.2189
  307MOL0     C41312   3.922   4.626   6.255  0.3876 -0.3401  0.0093
  307MOL0     O41313   3.824   4.679   6.329  0.4300  0.6932 -0.1780
  307MOL0     C41314   3.699   4.686   6.275 -0.1437 -0.0842 -0.2360
  307MOL0     C41315   3.667   4.812   6.217 -0.2299  1.0201 -0.4440
  307MOL0     C41316   3.540   4.839   6.171 -0.3944 -0.5547 -0.6569
  307MOL0     C41317   3.437   4.745   6.188  0.7077 -0.5803 -0.8907
  307MOL0     O41318   3.312   4.782   6.147 -0.3127  0.5008 -0.1616
  307MOL0     C41319   3.309   4.758   6.001 -0.8401 -0.1223 -1.0341
  307MOL0     C41320   3.203   4.844   5.941  0.5628 -0.1288 -0.4256
  307MOL0     C41321   3.162   4.800   5.799 -0.0961 -0.3690 -0.2098
  307MOL0     C41322   3.041   4.707   5.796 -0.9657 -0.0807 -0.2041
  307MOL0     C41323   3.003   4.670   5.648  0.7827  0.1325 -1.4746
  307MOL0     C41324   2.934   4.783   5.583 -0.1387  0.9403  0.8941
  307MOL0     C41325   2.786   4.774   5.567 -0.6288  0.4808  0.1357
  307MOL0     C41326   2.718   4.880   5.463 -0.0162  0.4524 -0.4363
  307MOL0     N41327   2.578   4.840   5.438  0.1719 -0.3985 -0.8306
  307MOL0     C41328   2.556   4.731   5.363 -0.1304 -0.1191  0.1119
  307MOL0     C41329   2.435   4.683   5.396 -0.0673  1.3064 -0.3616
  307MOL0     C41330   2.361   4.572   5.328 -0.4239  0.9209 -0.2082
  307MOL0     C41331   2.293   4.618   5.193  0.2450  0.0824  0.7812
  307MOL0     C41332   2.393   4.643   5.092  0.6948 -0.5844 -0.0255
  307MOL0     C41333   2.358   4.587   4.951  0.5543  0.7394 -0.3173
  307MOL0     O41334   2.480   4.561   4.887 -0.1937 -0.0721  0.7478
  307MOL0     C41335   2.482   4.558   4.745 -0.4794  0.2500  0.1692
  307MOL0     C41336   2.611   4.585   4.699 -0.4979  0.3326 -0.8039
  307MOL0     C41337   2.635   4.562   4.563 -0.4023  0.0429 -0.9124
  307MOL0     C41338   2.776   4.588   4.525 -0.3561 -1.1999 -0.1669
  307MOL0     C41339   2.532   4.509   4.479  0.7835  0.0258  0.2486
  307MOL0     C41340   2.556   4.487   4.334  0.2292 -0.2454  0.3951
  307MOL0     O41341   2.480   4.387   4.281  0.0471  0.1636 -1.0043
  307MOL0     C41342   2.454   4.355   4.153 -0.4485 -0.0671  0.6649
  307MOL0     C41343   2.508   4.417   4.038  0.3788  0.1052  0.6297
  307MOL0     C41344   2.489   4.366   3.910 -0.2065  1.2091  0.0489
  307MOL0     C41345   2.427   4.239   3.894 -0.4608 -0.2538 -0.8064
  307MOL0     O41346   2.426   4.181   3.763 -0.2739 -0.4469 -0.7586
  307MOL0     C41347   2.458   4.267   3.654  0.1173  0.1379  1.0611
  307MOL0     C41348   2.463   4.171   3.528 -0.2925 -0.2714  0.2789
  307MOL0     C41349   2.530   4.220   3.401 -0.6888 -0.4167 -0.4625
  307MOL0     C41350   2.455   4.314   3.311 -0.8203 -0.7176  0.0665
  307MOL0     C41351   2.545   4.414   3.233 -0.8492 -0.1079 -0.0297
  307MOL0     C41352   2.454   4.504   3.153 -0.0133  0.1231 -0.6253
  307MOL0     C41353   2.528   4.623   3.085 -0.6687  0.5818  0.2233
  307MOL0     C41354   2.451   4.744   3.044  0.4837  0.8904 -0.2697
  307MOL0    Cl41355   2.543   4.872   2.973 -0.0079 -0.2315  0.5290
  307MOL0     C41356   2.367   4.179   4.010  0.1232 -0.0831 -0.2538
  307MOL0     C41357   2.387   4.234   4.135  0.2653 -0.9055  0.2775
  307MOL0     O41358   2.633   4.558   4.271  0.4700 -0.4442  0.8115
  307MOL0     C41359   2.407   4.474   4.534 -0.0484 -0.0231 -0.3390
  307MOL0     C41360   2.377   4.500   4.671 -0.5765  0.0548 -0.4994
  307MOL0     N41361   2.378   4.790   5.472  0.0952  0.2204 -0.7279
  307MOL0     N41362   2.463   4.874   5.492  0.8775  0.0359 -0.7202
  307MOL0     C41363   3.457   4.630   6.258  0.0755 -0.4316  0.6211
  307MOL0     C41364   3.590   4.596   6.298  0.1837 -0.0754  1.1448
  307MOL0     C41365   4.069   4.645   6.299 -0.0095 -0.7256 -0.6634
  307MOL0     C41366   4.107   4.711   6.416 -0.4090  0.5395  0.4043
  307MOL0     C41367   4.242   4.717   6.450  0.7747 -0.0821 -0.0830
  307MOL0     C41368   4.345   4.657   6.379  0.0358  0.6579 -0.5765
  307MOL0     O41369   4.471   4.680   6.429 -0.2774  0.2143  0.0884
  307MOL0     C41370   4.584   4.640   6.355  0.2094  0.2426 -0.4124
  307MOL0     C41371   4.710   4.709   6.396 -0.0230  0.0089 -0.2301
  307MOL0     C41372   4.838   4.676   6.314  0.8223  0.9077 -0.0303
  307MOL0     C41373   4.961   4.745   6.354 -0.7829 -0.4759  0.3375
  307MOL0     C41374   5.066   4.719   6.256 -0.6833  0.9093 -0.0245
  307MOL0     C41375   5.144   4.679   6.170  1.1342 -0.4183 -0.4742
  307MOL0     C41376   4.302   4.580   6.272  0.0282 -0.0499 -0.0243
  307MOL0     C41377   4.171   4.582   6.222 -0.0099  0.1085  0.3854
  307MOL0     H41378   3.734   4.896   6.198 -1.2170  2.0521  0.4279
  307MOL0     H41379   3.515   4.932   6.121 -3.5089 -2.2119 -2.5046
  307MOL0     H41380   3.406   4.768   5.952 -0.9631 -1.4894 -1.6056
  307MOL0     H41381   3.286   4.651   5.991  0.4409 -0.5060 -0.0970
  307MOL0     H41382   3.110   4.835   5.998  1.0304 -1.6625  0.1281
  307MOL0     H41383   3.242   4.946   5.950  0.0341 -0.1035  2.5656
  307MOL0     H41384   3.141   4.889   5.740  0.2073 -0.6453 -0.7415
  307MOL0     H41385   3.245   4.748   5.749 -0.5851  1.2123 -2.8546
  307MOL0     H41386   3.061   4.613   5.847 -0.2051 -0.0190 -0.3836
  307MOL0     H41387   2.961   4.753   5.855 -2.0292  0.5357 -2.0255
  307MOL0     H41388   3.089   4.634   5.589  1.3222 -0.5380 -0.3011
  307MOL0     H41389   2.942   4.580   5.660 -2.9808  2.7531  1.1513
  307MOL0     H41390   2.970   4.875   5.630  1.8159 -0.8485  3.1680
  307MOL0     H41391   2.988   4.791   5.488 -0.4240 -3.6253  0.1058
  307MOL0     H41392   2.777   4.672   5.528 -1.2010  0.4303  0.3997
  307MOL0     H41393   2.739   4.797   5.663 -1.2283 -0.4594  0.0851
  307MOL0     H41394   2.786   4.884   5.378  3.6531  0.1749  2.2329
  307MOL0     H41395   2.715   4.977   5.513  1.9146 -0.8565  2.5386
  307MOL0     H41396   2.627   4.700   5.287  0.3360  0.7299  0.1829
  307MOL0     H41397   2.423   4.484   5.305 -1.2513  0.5577 -1.1137
  307MOL0     H41398   2.285   4.543   5.400  1.1838 -0.3256  1.0832
  307MOL0     H41399   2.239   4.712   5.210  2.0473  1.1865  0.7251
  307MOL0     H41400   2.227   4.534   5.171 -1.0912  1.1398  0.6211
  307MOL0     H41401   2.489   4.607   5.129  0.1112 -1.1834  0.9361
  307MOL0     H41402   2.409   4.751   5.082 -2.1477  0.3016  3.3066
  307MOL0     H41403   2.285   4.651   4.899 -2.3052 -1.6669  0.4939
  307MOL0     H41404   2.306   4.496   4.980 -0.0253  1.5122  1.1632
  307MOL0     H41405   2.677   4.627   4.773 -4.5518  2.6978  1.8612
  307MOL0     H41406   2.843   4.592   4.611 -2.1507  1.7836  1.2552
  307MOL0     H41407   2.811   4.504   4.465  3.9035  0.0673  0.2052
  307MOL0     H41408   2.797   4.678   4.467 -0.7838 -0.5069  0.7338
  307MOL0     H41409   2.573   4.503   4.046 -0.7250  0.9992  0.1961
  307MOL0     H41410   2.523   4.429   3.828  0.1334 -0.8274 -1.4543
  307MOL0     H41411   2.376   4.338   3.638 -0.5759 -0.2683  2.6076
  307MOL0     H41412   2.550   4.326   3.654 -0.7676  1.6638  3.2777
  307MOL0     H41413   2.525   4.082   3.543 -0.1399 -0.3784 -0.8892
  307MOL0     H41414   2.362   4.146   3.495  0.2561  1.2111 -2.8842
  307MOL0     H41415   2.553   4.130   3.343 -0.4986 -1.6344  1.4133
  307MOL0     H41416   2.624   4.264   3.437 -1.1660  0.1749  0.0858
  307MOL0     H41417   2.403   4.255   3.235 -1.5985  1.9021 -1.5729
  307MOL0     H41418   2.378   4.373   3.362  0.8043  2.2261 -0.6541
  307MOL0     H41419   2.615   4.355   3.172 -0.6768  2.1221 -2.1089
  307MOL0     H41420   2.604   4.470   3.306 -2.0124  1.7177 -0.4447
  307MOL0     H41421   2.394   4.441   3.086 -1.2768 -0.1140  0.6752
  307MOL0     H41422   2.378   4.544   3.220 -1.0356 -0.3655 -1.4557
  307MOL0     H41423   2.582   4.580   3.000 -2.0463  0.0226 -0.3909
  307MOL0     H41424   2.613   4.647   3.149 -0.8911  1.7266  0.1142
  307MOL0     H41425   2.399   4.791   3.128 -1.8972  2.8633 -2.6668
  307MOL0     H41426   2.370   4.724   2.973  0.4948 -1.9014  0.4050
  307MOL0     H41427   2.315   4.086   3.993  3.2308 -1.7839 -1.0747
  307MOL0     H41428   2.339   4.185   4.219  2.6622 -2.5511  0.7990
  307MOL0     H41429   2.337   4.438   4.460  0.9523 -0.5897 -1.0430
  307MOL0     H41430   2.278   4.480   4.710 -1.5262  1.4674 -2.0630
  307MOL0     H41431   3.375   4.560   6.268  0.7806 -1.3840  0.0672
  307MOL0     H41432   3.601   4.499   6.347  0.8904 -0.7740 -0.3309
  307MOL0     H41433   4.026   4.739   6.483 -0.7801 -0.8214  0.5490
  307MOL0     H41434   4.254   4.785   6.534  0.0515  0.3601 -0.3274
  307MOL0     H41435   4.611   4.536   6.373 -0.0036  0.1955 -0.3621
  307MOL0     H41436   4.567   4.656   6.248 -0.8536 -2.3108 -0.7088
  307MOL0     H41437   4.735   4.693   6.502  0.7629  0.5717 -0.3253
  307MOL0     H41438   4.701   4.817   6.391  3.0061  0.3358 -0.3752
  307MOL0     H41439   4.816   4.703   6.210 -0.6535  1.2831  0.3606
  307MOL0     H41440   4.855   4.568   6.319  1.6858  1.0715  0.7080
  307MOL0     H41441   4.998   4.716   6.453  1.8498  1.3644 -0.0180
  307MOL0     H41442   4.937   4.851   6.370  1.4884  0.0837  0.2943
  307MOL0     H41443   5.206   4.657   6.086 -0.0958  2.3283 -2.2458
  307MOL0     H41444   4.368   4.515   6.214  0.4578 -2.5185  2.9698
  307MOL0     H41445   4.162   4.528   6.128  3.2459 -2.8841  1.5517
  308MOL0     O41446   4.749   1.581   7.390 -0.5498 -0.2475  1.5733
  308MOL0     C41447   4.815   1.681   7.403 -0.6890 -0.3741 -0.9614
  308MOL0     O41448   4.767   1.800   7.417 -0.4335  0.1058  0.9177
  308MOL0     C41449   4.628   1.816   7.424  0.6233  0.0484  0.1075
  308MOL0     C41450   4.524   1.755   7.352 -0.0150  0.2895  0.7987
  308MOL0     C41451   4.390   1.799   7.361 -0.3658 -0.3696  0.1700
  308MOL0     C41452   4.357   1.891   7.454 -0.4659  0.0939 -0.6678
  308MOL0     O41453   4.231   1.935   7.482  0.3520 -0.1899 -0.1178
  308MOL0     C41454   4.140   1.824   7.485  0.1398  0.0512 -0.7242
  308MOL0     C41455   4.011   1.850   7.565 -0.3997  0.5097  0.1864
  308MOL0     C41456   4.026   1.841   7.710 -0.5140 -0.0880  0.0024
  308MOL0     C41457   4.075   1.971   7.776 -0.2313  1.4410  0.5750
  308MOL0     C41458   4.081   1.964   7.929 -0.0401  0.2023 -0.3495
  308MOL0     C41459   4.180   1.869   7.997  0.1327  0.4145  0.1213
  308MOL0     C41460   4.330   1.889   7.963  0.7859  0.0299  0.9723
  308MOL0     C41461   4.424   1.771   8.001 -0.2432 -1.0660  0.8106
  308MOL0     N41462   4.567   1.816   7.988 -0.1264  0.5700 -0.2799
  308MOL0     C41463   4.621   1.836   7.864  0.2362  0.0700 -0.6681
  308MOL0     C41464   4.755   1.839   7.878 -0.2050 -0.8721 -0.7507
  308MOL0     C41465   4.855   1.849   7.764  0.7463 -0.0547  0.2081
  308MOL0     C41466   5.005   1.853   7.811  0.2038  0.3262 -0.5615
  308MOL0     C41467   5.039   1.714   7.854 -0.1919  0.4456 -0.8943
  308MOL0     C41468   5.187   1.685   7.857 -0.0318 -0.3440  0.1070
  308MOL0     O41469   5.217   1.547   7.880  0.2117 -0.2319 -0.2421
  308MOL0     C41470   5.345   1.509   7.893 -0.5280 -0.6153  0.8702
  308MOL0     C41471   5.453   1.591   7.886 -0.0354 -0.0143  0.0983
  308MOL0     C41472   5.588   1.542   7.876  0.2419 -0.5695  0.4812
  308MOL0     C41473   5.689   1.645   7.835  0.3844  0.4331 -1.3552
  308MOL0     C41474   5.613   1.399   7.909 -0.0537 -0.5914  0.1443
  308MOL0     C41475   5.748   1.344   7.908 -0.3132  0.5003  0.1613
  308MOL0     O41476   5.750   1.210   7.880  0.4219  0.6815  0.5769
  308MOL0     C41477   5.858   1.157   7.813  0.3501  1.0654 -0.4571
  308MOL0     C41478   5.894   1.185   7.677 -0.4620  0.4421  1.2533
  308MOL0     C41479   6.012   1.124   7.629 -0.3980  0.3370 -0.4669
  308MOL0     C41480   6.106   1.056   7.708 -0.1225  0.6267 -0.6488
  308MOL0     O41481   6.224   1.002   7.667  0.1500 -0.1390  0.1640
  308MOL0     C41482   6.218   0.919   7.549 -0.3573 -0.1156 -0.3494
  308MOL0     C41483   6.139   0.795   7.594  0.2943  0.8572 -0.3079
  308MOL0     C41484   6.155   0.675   7.502 -0.9417  0.1841 -0.0628
  308MOL0     C41485   6.100   0.536   7.541  0.0823 -0.8276 -0.3343
  308MOL0     C41486   6.097   0.442   7.419  0.3323 -0.5758  0.1009
  308MOL0     C41487   6.026   0.305   7.455 -0.1811 -0.6933  0.9597
  308MOL0     C41488   6.077   0.193   7.365 -0.1918 -0.3617  0.0094
  308MOL0     C41489   6.101   0.060   7.451 -0.2747 -0.2981 -0.3756
  308MOL0    Cl41490   6.182  -0.059   7.346 -0.3318 -0.0703  0.1032
  308MOL0     C41491   6.067   1.030   7.842 -0.5769  0.2353  0.6652
  308MOL0     C41492   5.949   1.089   7.892 -0.6531 -0.8038  0.2850
  308MOL0     O41493   5.849   1.413   7.926 -0.2738 -0.4572 -0.7940
  308MOL0     C41494   5.495   1.316   7.924 -0.7173  0.3708  0.4467
  308MOL0     C41495   5.376   1.373   7.916  0.2365 -0.2571 -0.0931
  308MOL0     N41496   4.776   1.844   8.012  0.1288  0.3627  1.4218
  308MOL0     N41497   4.663   1.825   8.077 -0.7894  0.1312 -0.2388
  308MOL0     C41498   4.458   1.954   7.526 -0.0633  0.0266 -0.0888
  308MOL0     C41499   4.593   1.929   7.509  0.0920  0.6936  0.8229
  308MOL0     C41500   4.953   1.669   7.428 -0.1095  0.3795  0.2134
  308MOL0     C41501   5.016   1.541   7.447  0.6578  0.8053 -0.0676
  308MOL0     C41502   5.157   1.532   7.465 -0.2477  0.0033 -0.2622
  308MOL0     C41503   5.239   1.649   7.471  0.0014 -0.6506  0.3405
  308MOL0     O41504   5.367   1.662   7.507 -0.1852 -0.2252  0.1000
  308MOL0     C41505   5.450   1.548   7.516 -0.1850  0.3450 -0.6932
  308MOL0     C41506   5.535   1.526   7.388 -0.8883 -0.2594  0.1293
  308MOL0     C41507   5.629   1.406   7.420  1.1875 -0.6053  0.3492
  308MOL0     C41508   5.710   1.362   7.295 -0.6124 -0.4618 -0.0484
  308MOL0     C41509   5.736   1.216   7.304 -1.1936 -0.2277 -0.5303
  308MOL0     C41510   5.752   1.101   7.305 -0.1472 -0.0595  0.6434
  308MOL0     C41511   5.172   1.775   7.450 -0.7817  0.2197  0.6507
  308MOL0     C41512   5.033   1.784   7.429 -0.4148 -0.7691  0.2636
  308MOL0     H41513   4.548   1.672   7.287  3.4937  0.5926  1.5063
  308MOL0     H41514   4.322   1.764   7.283 -1.6821  1.1195  0.6107
  308MOL0     H41515   4.112   1.799   7.382 -1.8914 -2.6763  0.3704
  308MOL0     H41516   4.196   1.741   7.527 -0.4272 -0.5131 -1.0604
  308MOL0     H41517   3.946   1.925   7.518  1.2902  1.2455 -1.0846
  308MOL0     H41518   3.953   1.757   7.564  2.6257 -1.5828 -2.3179
  308MOL0     H41519   3.934   1.818   7.766 -0.6532 -1.0707 -0.6049
  308MOL0     H41520   4.093   1.757   7.731  0.8492  1.1613  0.8098
  308MOL0     H41521   4.168   2.000   7.727 -1.5164  0.7895 -2.5436
  308MOL0     H41522   4.003   2.046   7.741  1.1015  1.5672 -2.2131
  308MOL0     H41523   4.114   2.059   7.971  0.1594 -0.2262  0.5014
  308MOL0     H41524   3.979   1.948   7.965  0.5551  1.6633  2.2374
  308MOL0     H41525   4.172   1.896   8.103  2.8621  2.1060 -0.0215
  308MOL0     H41526   4.139   1.769   7.980  2.0367 -0.3077 -0.4834
  308MOL0     H41527   4.340   1.898   7.854 -0.6232 -2.3535  0.5684
  308MOL0     H41528   4.360   1.984   8.008  0.5421  3.5140 -5.0701
  308MOL0     H41529   4.405   1.688   7.933  0.3546 -0.1299 -0.5284
  308MOL0     H41530   4.409   1.737   8.104 -3.0312 -0.8306  0.5573
  308MOL0     H41531   4.565   1.822   7.772  0.1549  0.8548 -0.7380
  308MOL0     H41532   4.834   1.775   7.687  0.4142  0.7915 -0.5296
  308MOL0     H41533   4.849   1.945   7.712  2.1723  2.4236  4.1693
  308MOL0     H41534   5.022   1.921   7.894 -0.9230  0.0642 -0.0908
  308MOL0     H41535   5.074   1.887   7.733  1.0644  1.9672  0.8503
  308MOL0     H41536   5.009   1.640   7.779 -0.8769 -1.6659  1.3032
  308MOL0     H41537   5.000   1.690   7.954  1.2979  1.8211  0.0707
  308MOL0     H41538   5.228   1.734   7.946 -2.1195 -0.6866  1.3185
  308MOL0     H41539   5.226   1.729   7.765 -0.0361  0.1024  0.3139
  308MOL0     H41540   5.445   1.699   7.874 -0.3499 -0.0520 -0.0312
  308MOL0     H41541   5.760   1.607   7.760  3.4126  1.3375  0.8316
  308MOL0     H41542   5.642   1.727   7.780 -3.8177 -0.6077  0.3056
  308MOL0     H41543   5.733   1.691   7.924 -3.3383  3.0528 -0.6431
  308MOL0     H41544   5.839   1.251   7.611  1.2400  1.0053  0.3443
  308MOL0     H41545   6.028   1.118   7.522  1.3812  2.5048 -0.3910
  308MOL0     H41546   6.190   0.964   7.454  1.4857 -1.4354 -1.5942
  308MOL0     H41547   6.319   0.881   7.528 -0.3245 -0.4545  0.3789
  308MOL0     H41548   6.186   0.769   7.689  0.8066  1.3910 -0.4140
  308MOL0     H41549   6.034   0.820   7.612  0.0324 -0.1324 -0.3969
  308MOL0     H41550   6.262   0.651   7.492 -0.8687  0.2615  0.5271
  308MOL0     H41551   6.119   0.708   7.404  2.2624  2.2787 -0.7006
  308MOL0     H41552   6.169   0.493   7.614 -0.1096 -4.6205 -2.1181
  308MOL0     H41553   6.003   0.556   7.588 -0.0822  0.6822 -1.2479
  308MOL0     H41554   6.201   0.424   7.389  0.0033  0.5511 -1.8662
  308MOL0     H41555   6.056   0.500   7.336  2.0905  2.4808  1.1849
  308MOL0     H41556   6.035   0.277   7.560  1.8835  0.1772  1.0716
  308MOL0     H41557   5.918   0.316   7.439  0.1565  2.5796  0.1725
  308MOL0     H41558   6.170   0.229   7.318 -0.5699  0.4043 -0.1618
  308MOL0     H41559   5.997   0.163   7.297 -2.6513  0.7772  2.2512
  308MOL0     H41560   6.013   0.018   7.500  1.4397  0.4458  3.7189
  308MOL0     H41561   6.180   0.081   7.523  2.1175  0.0482 -2.9219
  308MOL0     H41562   6.139   0.970   7.897  1.5797  0.3129 -1.8723
  308MOL0     H41563   5.917   1.069   7.994 -2.3950 -0.3442 -0.1342
  308MOL0     H41564   5.501   1.210   7.945 -0.2421  0.6869  2.0819
  308MOL0     H41565   5.292   1.312   7.947  0.9501 -0.7283  0.9767
  308MOL0     H41566   4.445   2.025   7.606  1.7185 -0.6395  0.8495
  308MOL0     H41567   4.665   1.978   7.573  0.1543  0.1654  1.1629
  308MOL0     H41568   4.964   1.446   7.454  2.5293 -0.4259 -1.4801
  308MOL0     H41569   5.201   1.432   7.466  1.2956  0.6023  2.2736
  308MOL0     H41570   5.524   1.563   7.595  1.4338  0.7197 -2.2306
  308MOL0     H41571   5.393   1.460   7.546  1.9769 -0.5547  1.0398
  308MOL0     H41572   5.591   1.614   7.355 -2.4106  1.6114  2.1991
  308MOL0     H41573   5.467   1.511   7.303  1.0850 -0.0340 -1.5729
  308MOL0     H41574   5.565   1.325   7.457  1.8559  0.1810  3.5078
  308MOL0     H41575   5.692   1.441   7.502  0.7880  1.1736 -0.0683
  308MOL0     H41576   5.792   1.433   7.286 -0.9339 -0.1388 -0.4674
  308MOL0     H41577   5.660   1.377   7.198 -0.2101  1.5457  0.0167
  308MOL0     H41578   5.769   0.997   7.289  0.4072 -0.1261  1.6206
  308MOL0     H41579   5.237   1.862   7.445 -3.0449  1.9025 -2.0882
  308MOL0     H41580   5.000   1.887   7.418 -2.8782 -1.6035 -0.8280
  309MOL0     O41581  10.148   1.553   2.109 -0.2664  0.3390  0.2697
  309MOL0     C41582  10.114   1.455   2.174 -0.2718 -0.3954 -0.7227
  309MOL0     O41583   9.988   1.409   2.188  0.5335 -0.0518  0.0177
  309MOL0     C41584   9.877   1.489   2.163  0.4118 -0.2929 -0.6639
  309MOL0     C41585   9.768   1.422   2.200 -0.2931  0.4971  0.0999
  309MOL0     C41586   9.645   1.477   2.211  0.1406  1.2389 -0.2880
  309MOL0     C41587   9.627   1.607   2.173  0.3451  0.3142  0.1097
  309MOL0     O41588   9.512   1.677   2.166 -0.0572 -0.4568  0.1610
  309MOL0     C41589   9.424   1.623   2.067  0.1403 -0.5502 -0.1175
  309MOL0     C41590   9.353   1.742   2.002  0.6227 -0.4264  0.2569
  309MOL0     C41591   9.253   1.709   1.893 -0.3475  0.0363 -0.0976
  309MOL0     C41592   9.319   1.653   1.766 -0.7997  0.3942 -0.4439
  309MOL0     C41593   9.224   1.657   1.638 -0.1949 -0.5667  0.6429
  309MOL0     C41594   9.235   1.793   1.559 -0.2986  0.5993  0.4582
  309MOL0     C41595   9.146   1.799   1.437  0.1122 -0.0274 -0.3431
  309MOL0     C41596   8.995   1.835   1.457 -0.2440 -0.0247  0.0878
  309MOL0     N41597   8.913   1.761   1.553  0.0474  0.4076 -0.1709
  309MOL0     C41598   8.785   1.723   1.516  0.1188 -0.7024 -0.0974
  309MOL0     C41599   8.702   1.743   1.630  0.0544  0.9608  0.3744
  309MOL0     C41600   8.558   1.705   1.642 -0.5780  0.3258 -0.5282
  309MOL0     C41601   8.531   1.596   1.751 -0.1807 -0.0157  0.0790
  309MOL0     C41602   8.389   1.559   1.740  0.0509  0.2835 -0.2565
  309MOL0     C41603   8.362   1.433   1.815 -0.4037 -0.8606  0.1816
  309MOL0     O41604   8.217   1.405   1.821  0.1766 -0.6272  0.5445
  309MOL0     C41605   8.195   1.276   1.860  0.5360  0.8994  0.0491
  309MOL0     C41606   8.287   1.192   1.927  0.1887 -0.2810  0.3059
  309MOL0     C41607   8.257   1.053   1.959 -0.9293  0.0781 -0.1012
  309MOL0     C41608   8.357   0.979   2.046 -0.6806 -0.2714 -0.1302
  309MOL0     C41609   8.129   0.998   1.925 -0.2364 -0.0326 -0.1900
  309MOL0     C41610   8.093   0.850   1.936  0.5948 -0.6169 -0.2156
  309MOL0     O41611   7.981   0.808   1.890  0.5284  0.4120  0.0761
  309MOL0     C41612   7.946   0.678   1.914 -0.5566 -0.4368  0.1416
  309MOL0     C41613   7.920   0.587   1.816  0.7686  0.1528  0.1709
  309MOL0     C41614   7.864   0.461   1.844 -0.2744  0.1310  0.5070
  309MOL0     C41615   7.840   0.427   1.973  1.2710  0.2142 -0.9644
  309MOL0     O41616   7.798   0.298   1.997  0.4569 -0.1186  1.0773
  309MOL0     C41617   7.675   0.280   2.076  1.0043 -0.2557  0.0135
  309MOL0     C41618   7.702   0.237   2.228 -0.2230 -0.7720  0.0456
  309MOL0     C41619   7.806   0.129   2.241 -0.3078 -0.0498  0.2436
  309MOL0     C41620   7.944   0.187   2.278 -0.3460  0.4815  0.2097
  309MOL0     C41621   7.960   0.221   2.428 -0.0145  0.1555  0.6385
  309MOL0     C41622   8.093   0.284   2.469 -0.5884 -0.1793 -1.0170
  309MOL0     C41623   8.111   0.321   2.612 -0.5762  0.5172 -0.7646
  309MOL0     C41624   8.123   0.191   2.701  0.3984  1.1658 -0.1220
  309MOL0    Cl41625   8.056   0.230   2.864  0.1960 -0.2201  0.0968
  309MOL0     C41626   7.864   0.515   2.077  0.7376 -0.3165 -0.1820
  309MOL0     C41627   7.922   0.639   2.047  0.3798 -0.0876  0.3729
  309MOL0     O41628   8.176   0.779   1.987  0.9071  0.4996 -0.3507
  309MOL0     C41629   8.048   1.080   1.847  0.1790 -0.3388  0.1243
  309MOL0     C41630   8.073   1.212   1.823 -0.1327  0.0316  0.0317
  309MOL0     N41631   8.780   1.798   1.737  0.3087  0.4763  0.1295
  309MOL0     N41632   8.906   1.797   1.689 -0.6570  1.0646  0.1083
  309MOL0     C41633   9.740   1.675   2.130  0.5810 -0.8939  0.9259
  309MOL0     C41634   9.866   1.623   2.119  0.8706  0.5337  1.2482
  309MOL0     C41635  10.223   1.374   2.243  0.7408 -0.2124  1.2236
  309MOL0     C41636  10.190   1.257   2.303  0.1704  0.3090 -0.0622
  309MOL0     C41637  10.286   1.168   2.359  0.1352 -0.4803 -0.5567
  309MOL0     C41638  10.419   1.206   2.364 -0.5830  0.6173  0.2248
  309MOL0     O41639  10.511   1.117   2.422 -0.1119  0.3484 -0.6249
  309MOL0     C41640  10.644   1.095   2.371  0.0510 -0.6184 -0.0689
  309MOL0     C41641  10.631   1.016   2.245 -0.2123  0.2030 -0.1040
  309MOL0     C41642  10.537   0.891   2.267  0.2451 -0.1139 -0.6339
  309MOL0     C41643  10.542   0.811   2.399  0.5754 -0.3113 -0.2015
  309MOL0     C41644  10.444   0.699   2.380  0.0252  0.1481  0.6629
  309MOL0     C41645  10.377   0.592   2.374  0.2710 -0.5434  0.7294
  309MOL0     C41646  10.449   1.328   2.312 -0.0838 -0.1522  0.2994
  309MOL0     C41647  10.360   1.403   2.235  0.1591 -0.5341  0.6167
  309MOL0     H41648   9.782   1.319   2.233 -0.0696 -0.1691 -1.9682
  309MOL0     H41649   9.556   1.422   2.241 -0.5732  2.9482  0.8471
  309MOL0     H41650   9.476   1.566   1.990  0.9083 -1.2822  0.9163
  309MOL0     H41651   9.353   1.552   2.111  1.8816 -0.1915  3.5961
  309MOL0     H41652   9.286   1.787   2.076  0.5877 -0.2772  0.1334
  309MOL0     H41653   9.423   1.814   1.960 -2.3660  2.4583 -0.1223
  309MOL0     H41654   9.176   1.648   1.942  0.2145 -0.3718  0.2768
  309MOL0     H41655   9.205   1.803   1.863 -0.3525 -0.3651 -1.4178
  309MOL0     H41656   9.412   1.703   1.740 -0.2312 -1.1858 -1.5883
  309MOL0     H41657   9.358   1.553   1.783  1.3523  1.3359  0.5699
  309MOL0     H41658   9.261   1.576   1.575  0.2845  0.6044 -0.6358
  309MOL0     H41659   9.121   1.634   1.665  0.1820 -1.1494  1.6314
  309MOL0     H41660   9.210   1.874   1.629 -0.6160  0.7708  0.1522
  309MOL0     H41661   9.339   1.810   1.532  0.3845  2.2021  3.6208
  309MOL0     H41662   9.187   1.881   1.377  0.0264  0.7398  0.6219
  309MOL0     H41663   9.140   1.701   1.389  0.6708 -0.4382  0.4158
  309MOL0     H41664   8.941   1.847   1.362  0.7872  1.3196 -0.3621
  309MOL0     H41665   8.995   1.939   1.490  1.6590 -0.3362  1.1816
  309MOL0     H41666   8.743   1.689   1.422  0.1958  1.5620 -1.0187
  309MOL0     H41667   8.503   1.797   1.661 -0.1315  0.4068  0.4438
  309MOL0     H41668   8.530   1.669   1.542  0.8198 -3.1401  0.1694
  309MOL0     H41669   8.565   1.629   1.849 -1.7769  0.6815  0.4305
  309MOL0     H41670   8.595   1.509   1.735 -0.8678 -0.4394 -0.3697
  309MOL0     H41671   8.359   1.543   1.636  0.0194  0.1548 -0.2280
  309MOL0     H41672   8.330   1.641   1.783  0.6148  1.2302 -1.2485
  309MOL0     H41673   8.397   1.441   1.918 -0.4001 -2.7554  0.3587
  309MOL0     H41674   8.415   1.351   1.766  2.2792  1.0164 -0.3142
  309MOL0     H41675   8.381   1.237   1.957 -0.1886  0.6733  0.0890
  309MOL0     H41676   8.295   0.923   2.117 -1.2468  0.8521  0.2914
  309MOL0     H41677   8.416   0.902   1.995 -2.7942 -0.0718 -3.1388
  309MOL0     H41678   8.418   1.047   2.106 -0.7220 -0.9132  0.6625
  309MOL0     H41679   7.935   0.623   1.715 -1.3453  0.3801 -0.1143
  309MOL0     H41680   7.829   0.400   1.762  0.3023 -0.1055  0.4342
  309MOL0     H41681   7.618   0.373   2.073  1.6422  0.1606 -3.3486
  309MOL0     H41682   7.619   0.197   2.033 -1.5948  1.1829  0.4305
  309MOL0     H41683   7.731   0.316   2.298  0.0952 -1.7826  1.0916
  309MOL0     H41684   7.620   0.199   2.290 -0.6745 -0.0310 -0.0762
  309MOL0     H41685   7.812   0.066   2.152  1.0038  1.0080 -0.4440
  309MOL0     H41686   7.780   0.062   2.323  1.6962 -0.8901  0.2382
  309MOL0     H41687   8.019   0.110   2.261 -0.9867 -1.3721  4.4047
  309MOL0     H41688   7.971   0.274   2.217  0.2755 -0.2584 -0.5767
  309MOL0     H41689   7.944   0.123   2.474 -2.4341 -0.1561 -0.7567
  309MOL0     H41690   7.879   0.288   2.459 -0.8700 -1.5763  2.3606
  309MOL0     H41691   8.171   0.219   2.429 -0.2406  0.5631 -1.5698
  309MOL0     H41692   8.089   0.377   2.412 -0.1151  0.3878 -0.1496
  309MOL0     H41693   8.029   0.387   2.644  0.2332  1.5986 -0.8605
  309MOL0     H41694   8.200   0.378   2.638  1.0727 -1.7120 -1.2604
  309MOL0     H41695   8.227   0.156   2.701 -0.2260 -0.8049 -0.1256
  309MOL0     H41696   8.066   0.110   2.655  2.8574 -0.6589 -0.2273
  309MOL0     H41697   7.842   0.481   2.178 -1.4397 -3.3182 -1.4911
  309MOL0     H41698   7.937   0.709   2.129  2.6190 -0.5245  0.3938
  309MOL0     H41699   7.956   1.042   1.803 -1.1210  1.4636  1.1397
  309MOL0     H41700   7.999   1.255   1.757  0.1020  0.0218 -0.2388
  309MOL0     H41701   9.724   1.779   2.102 -1.1165 -1.2835  0.3518
  309MOL0     H41702   9.951   1.679   2.082  0.3575  0.2343 -0.4510
  309MOL0     H41703  10.089   1.217   2.307  0.1662  0.4158  2.0783
  309MOL0     H41704  10.249   1.078   2.407 -0.2251 -0.1820 -0.2611
  309MOL0     H41705  10.695   1.191   2.365  2.9870 -2.0463  0.2391
  309MOL0     H41706  10.702   1.034   2.440  1.8716  0.3748 -0.6693
  309MOL0     H41707  10.725   0.984   2.199 -0.2687  2.9331 -2.4213
  309MOL0     H41708  10.596   1.079   2.163  2.6588  2.1541  0.0036
  309MOL0     H41709  10.557   0.828   2.179 -0.0518 -0.7953 -0.2208
  309MOL0     H41710  10.434   0.926   2.262  0.3355  0.5362  1.3025
  309MOL0     H41711  10.508   0.879   2.477  0.7536  0.9549 -1.1937
  309MOL0     H41712  10.643   0.785   2.429  0.6577 -0.2770 -0.4454
  309MOL0     H41713  10.326   0.499   2.367 -0.6118  0.0476 -1.4901
  309MOL0     H41714  10.549   1.368   2.323 -0.1729 -0.4114  2.2968
  309MOL0     H41715  10.391   1.493   2.183 -1.5136 -1.4593 -2.1725
  310MOL0     O41716   7.622  11.269   3.888 -0.5935  0.1795  0.0118
  310MOL0     C41717   7.692  11.320   3.803 -0.6405  0.1412  0.1380
  310MOL0     O41718   7.678  11.318   3.666 -0.0067  0.9824  0.1442
  310MOL0     C41719   7.604  11.224   3.597  0.8041 -0.0229 -0.7397
  310MOL0     C41720   7.584  11.229   3.455  0.9077  0.2160 -0.5517
  310MOL0     C41721   7.510  11.126   3.391 -0.0087  0.6467  0.8929
  310MOL0     C41722   7.449  11.025   3.454  0.1148 -0.0767  0.2926
  310MOL0     O41723   7.370  10.942   3.383  0.3312  0.1348  0.2563
  310MOL0     C41724   7.365  10.804   3.421 -0.2139  0.3987 -0.3501
  310MOL0     C41725   7.460  10.719   3.348  0.1904 -0.8719 -0.4440
  310MOL0     C41726   7.456  10.579   3.387 -0.5219 -0.3315  0.6669
  310MOL0     C41727   7.359  10.493   3.310 -0.4189 -0.7209  0.1400
  310MOL0     C41728   7.386  10.346   3.348 -0.1511 -0.4314  0.9437
  310MOL0     C41729   7.480  10.275   3.249 -0.8511 -0.3250  0.3242
  310MOL0     C41730   7.512  10.135   3.299 -0.2707  0.1396 -0.4026
  310MOL0     C41731   7.407  10.033   3.261  0.7608  0.3729  0.2042
  310MOL0     N41732   7.441   9.900   3.317 -0.6885 -0.9493  0.9620
  310MOL0     C41733   7.559   9.862   3.363  0.2673  0.0647  0.7073
  310MOL0     C41734   7.537   9.737   3.412 -0.8948  0.0465 -0.0373
  310MOL0     C41735   7.636   9.638   3.461 -1.3352  0.5677  0.3513
  310MOL0     C41736   7.674   9.657   3.619  0.0019 -0.2138 -0.2230
  310MOL0     C41737   7.723   9.805   3.649 -0.4736 -0.9467  0.0666
  310MOL0     C41738   7.874   9.807   3.611 -0.3927 -0.0070  0.0398
  310MOL0     O41739   7.954   9.807   3.719 -0.2577 -0.5963 -0.6959
  310MOL0     C41740   8.080   9.762   3.722  0.1354  0.8814  0.1372
  310MOL0     C41741   8.161   9.759   3.841  0.6188 -0.8202  0.3494
  310MOL0     C41742   8.293   9.719   3.846 -0.0495 -0.0151 -0.5286
  310MOL0     C41743   8.362   9.705   3.981  0.1404 -0.1214  0.3141
  310MOL0     C41744   8.357   9.666   3.733  0.1222  0.3230 -1.4406
  310MOL0     C41745   8.489   9.596   3.717 -0.4074 -0.2649 -0.2909
  310MOL0     O41746   8.542   9.587   3.583  0.6200 -0.5769 -0.2106
  310MOL0     C41747   8.667   9.545   3.551  0.1038 -0.3764  0.6135
  310MOL0     C41748   8.778   9.523   3.637  0.5551  0.4538  0.3048
  310MOL0     C41749   8.893   9.478   3.591 -0.1241  0.8658 -0.0475
  310MOL0     C41750   8.926   9.459   3.455  0.2530 -0.3356 -1.1462
  310MOL0     O41751   9.040   9.414   3.406 -0.2433  0.8731  0.0348
  310MOL0     C41752   9.093   9.487   3.293  0.1371 -0.1479  0.0870
  310MOL0     C41753   9.246   9.456   3.289  0.5452 -0.5279  0.5712
  310MOL0     C41754   9.310   9.586   3.231 -0.1279 -0.0235 -0.4260
  310MOL0     C41755   9.458   9.583   3.216  0.0850  0.0339 -0.2050
  310MOL0     C41756   9.522   9.698   3.135 -0.0148  0.5386 -0.3876
  310MOL0     C41757   9.675   9.693   3.134  0.9217  0.4248 -0.4312
  310MOL0     C41758   9.719   9.830   3.077  0.4852 -0.7043  0.8172
  310MOL0     C41759   9.834   9.899   3.139  0.4081  1.4164  0.4871
  310MOL0    Cl41760   9.789   9.969   3.293 -0.1316 -0.2695  0.0671
  310MOL0     C41761   8.826   9.481   3.367 -0.7750  0.2998  0.8318
  310MOL0     C41762   8.701   9.523   3.410 -0.4458 -0.1153 -0.2156
  310MOL0     O41763   8.540   9.541   3.810  0.1042  0.2778 -0.3934
  310MOL0     C41764   8.288   9.683   3.612 -0.4521  0.0718  0.2785
  310MOL0     C41765   8.155   9.723   3.607  0.2761  0.0703 -0.5069
  310MOL0     N41766   7.403   9.705   3.401  0.2802  0.3311 -0.2569
  310MOL0     N41767   7.350   9.808   3.348  0.2964  0.1886 -0.1912
  310MOL0     C41768   7.468  11.020   3.593 -0.0254 -0.8720  0.5817
  310MOL0     C41769   7.547  11.112   3.660 -0.1142  0.0532  0.3444
  310MOL0     C41770   7.821  11.374   3.853 -0.8638 -0.3891  0.3587
  310MOL0     C41771   7.927  11.382   3.765 -0.6811 -0.6403  0.1413
  310MOL0     C41772   8.047  11.431   3.803  0.1544 -0.4975 -0.5351
  310MOL0     C41773   8.063  11.496   3.925 -1.1962  0.7179 -0.0682
  310MOL0     O41774   8.183  11.562   3.956  0.3128  0.9227  0.1184
  310MOL0     C41775   8.276  11.489   4.035  0.4769  0.4477  0.4724
  310MOL0     C41776   8.401  11.458   3.959  1.2653 -0.0406  0.3913
  310MOL0     C41777   8.482  11.576   3.932  0.6367 -0.7292 -0.0765
  310MOL0     C41778   8.620  11.530   3.874 -1.0395 -0.1902 -0.3737
  310MOL0     C41779   8.608  11.451   3.748  0.9434 -0.0708 -0.0105
  310MOL0     C41780   8.578  11.420   3.633 -1.0617 -0.3098 -0.1598
  310MOL0     C41781   7.961  11.486   4.013  0.9748  0.0941 -0.0101
  310MOL0     C41782   7.837  11.432   3.979 -0.6407  1.1180  0.3889
  310MOL0     H41783   7.634  11.298   3.388  1.5152 -0.3182 -0.6545
  310MOL0     H41784   7.492  11.126   3.284  0.5200  1.6158  0.7963
  310MOL0     H41785   7.361  10.790   3.529 -0.0142  0.3571 -0.3468
  310MOL0     H41786   7.264  10.778   3.390 -0.3978  0.6047  0.0701
  310MOL0     H41787   7.436  10.730   3.242  1.7078 -0.7944 -0.8096
  310MOL0     H41788   7.561  10.751   3.375  0.6485 -1.4387 -1.4336
  310MOL0     H41789   7.556  10.541   3.365 -0.6539  0.0630 -0.7048
  310MOL0     H41790   7.446  10.571   3.496  0.7201  0.2689  0.8485
  310MOL0     H41791   7.269  10.526   3.362 -0.2764 -0.2732  0.1048
  310MOL0     H41792   7.367  10.509   3.202  0.5405  2.0561  0.5530
  310MOL0     H41793   7.432  10.345   3.447 -0.9816 -0.5811  1.3336
  310MOL0     H41794   7.286  10.302   3.350 -1.2383  1.8338  0.0988
  310MOL0     H41795   7.434  10.266   3.150  1.5178 -1.0018 -0.7694
  310MOL0     H41796   7.579  10.321   3.250  0.1355 -2.2761 -0.9589
  310MOL0     H41797   7.607  10.111   3.252 -0.0835  0.4566 -0.1908
  310MOL0     H41798   7.522  10.133   3.408 -1.3732 -0.3147 -0.2927
  310MOL0     H41799   7.390  10.035   3.153 -1.8602  0.2417  0.5562
  310MOL0     H41800   7.311  10.067   3.302 -0.7096 -1.7096 -1.3070
  310MOL0     H41801   7.654   9.914   3.348 -0.2786  0.8077 -0.3106
  310MOL0     H41802   7.589   9.539   3.452  0.6517 -0.3036 -1.0844
  310MOL0     H41803   7.731   9.633   3.408 -0.3135 -2.1757  2.2124
  310MOL0     H41804   7.750   9.584   3.652  0.2533  0.2672  0.2779
  310MOL0     H41805   7.587   9.639   3.683  1.5004  0.6130  2.1916
  310MOL0     H41806   7.704   9.831   3.753 -0.1803  1.0884 -0.3488
  310MOL0     H41807   7.673   9.885   3.593  0.3451  1.4759  2.5934
  310MOL0     H41808   7.899   9.893   3.548 -1.8838 -1.7387 -3.1200
  310MOL0     H41809   7.883   9.728   3.537  1.5494 -0.1811  0.4201
  310MOL0     H41810   8.119   9.793   3.935 -2.4191  0.3876 -1.3037
  310MOL0     H41811   8.405   9.606   4.002  4.5852  1.3995 -0.6542
  310MOL0     H41812   8.448   9.772   3.983 -1.2830  1.9074 -1.6777
  310MOL0     H41813   8.289   9.752   4.049 -0.0288  0.2633 -0.1315
  310MOL0     H41814   8.774   9.543   3.744 -1.1975 -1.3277  0.6339
  310MOL0     H41815   8.965   9.445   3.665 -2.4285 -3.6172  0.5292
  310MOL0     H41816   9.052   9.440   3.203  2.4987 -2.5959  0.1364
  310MOL0     H41817   9.065   9.592   3.291 -0.0674 -0.2056 -0.0908
  310MOL0     H41818   9.290   9.432   3.387  0.0386 -1.7215  0.5155
  310MOL0     H41819   9.278   9.372   3.227  1.3962 -0.4967  0.9545
  310MOL0     H41820   9.297   9.669   3.301 -1.4746 -0.3609 -0.2473
  310MOL0     H41821   9.259   9.608   3.137 -1.2857 -0.3543  0.1003
  310MOL0     H41822   9.497   9.561   3.316 -1.2511  2.0849  0.8401
  310MOL0     H41823   9.485   9.493   3.160  1.8103  1.4730 -1.8327
  310MOL0     H41824   9.486   9.785   3.191  1.0939 -0.4160  1.9454
  310MOL0     H41825   9.479   9.703   3.034  0.5663  0.3989 -0.6514
  310MOL0     H41826   9.710   9.690   3.238 -4.1549 -0.9778  1.5684
  310MOL0     H41827   9.725   9.612   3.080 -0.1439  1.1270 -2.5571
  310MOL0     H41828   9.629   9.892   3.071  0.3391 -1.0292 -3.8313
  310MOL0     H41829   9.744   9.791   2.978  1.1921 -3.4809  1.9840
  310MOL0     H41830   9.865   9.979   3.072 -2.8929  3.1482  0.8225
  310MOL0     H41831   9.918   9.831   3.159 -1.7130 -0.7838  2.5343
  310MOL0     H41832   8.831   9.472   3.259 -2.2473 -0.4427  0.8011
  310MOL0     H41833   8.614   9.554   3.352 -0.8891 -0.7299  0.1109
  310MOL0     H41834   8.338   9.655   3.520  0.3876 -3.6778  1.7027
  310MOL0     H41835   8.103   9.724   3.512 -0.7472  0.4959  0.0397
  310MOL0     H41836   7.420  10.947   3.656 -0.2883 -2.3414 -1.2255
  310MOL0     H41837   7.546  11.104   3.769 -1.4198  1.9580  0.5294
  310MOL0     H41838   7.928  11.346   3.663  1.7265 -2.2814  0.6650
  310MOL0     H41839   8.134  11.423   3.738  0.2404 -1.7353 -0.2998
  310MOL0     H41840   8.302  11.532   4.132  1.0148 -0.2434  0.6496
  310MOL0     H41841   8.228  11.393   4.056  2.1859 -0.0887  2.1187
  310MOL0     H41842   8.363  11.415   3.866 -1.7312  1.7653  0.6601
  310MOL0     H41843   8.454  11.393   4.030 -1.0221  0.2166  2.4825
  310MOL0     H41844   8.477  11.631   4.027  2.9357 -2.7332  1.3034
  310MOL0     H41845   8.445  11.648   3.858 -0.7916  1.5715  2.6878
  310MOL0     H41846   8.675  11.476   3.952  1.4614 -0.2777 -2.0948
  310MOL0     H41847   8.684  11.617   3.856  1.9859 -2.3754 -0.8738
  310MOL0     H41848   8.538  11.396   3.537 -1.1583 -1.0916  0.0667
  310MOL0     H41849   7.968  11.534   4.109 -1.3072  2.0559 -0.7284
  310MOL0     H41850   7.752  11.433   4.047 -0.1958  2.6043  0.9712
  311MOL0     O41851   0.838   0.314  10.394 -0.1623  0.7536 -0.1776
  311MOL0     C41852   0.727   0.312  10.348  0.1430  0.5173 -0.4573
  311MOL0     O41853   0.671   0.403  10.266 -0.7613  0.4004 -0.3977
  311MOL0     C41854   0.742   0.516  10.226  0.7777 -0.2993  0.3620
  311MOL0     C41855   0.749   0.533  10.092  0.5064 -0.6772 -0.0539
  311MOL0     C41856   0.807   0.646  10.031  0.8921 -0.4944 -0.4038
  311MOL0     C41857   0.898   0.735  10.093  0.3315  0.3382 -0.2346
  311MOL0     O41858   0.984   0.824  10.039  0.0826  0.5495  0.1839
  311MOL0     C41859   0.949   0.868   9.902 -0.2826 -0.9091 -1.0156
  311MOL0     C41860   1.030   0.992   9.875 -1.0269  0.9137  0.3935
  311MOL0     C41861   1.043   1.023   9.727 -0.2299  0.2708  0.5517
  311MOL0     C41862   1.085   1.164   9.714  1.3289 -0.0782 -0.1157
  311MOL0     C41863   1.116   1.209   9.569 -1.2136  0.1830  0.2813
  311MOL0     C41864   0.985   1.194   9.479 -0.5327  0.7830  0.1087
  311MOL0     C41865   1.026   1.224   9.335  0.1611  1.4611  0.5915
  311MOL0     C41866   0.904   1.246   9.235  0.3496 -0.0497 -0.3202
  311MOL0     N41867   0.800   1.340   9.294 -1.5429  0.3061  0.4519
  311MOL0     C41868   0.805   1.472   9.331  0.0929  0.3768  0.4434
  311MOL0     C41869   0.675   1.505   9.347  0.4880 -0.3149 -0.3492
  311MOL0     C41870   0.628   1.650   9.401 -0.2472  0.2985  0.2501
  311MOL0     C41871   0.481   1.664   9.442 -0.2349  0.3748  0.9769
  311MOL0     C41872   0.467   1.595   9.572  0.0925 -0.2326 -0.2386
  311MOL0     C41873   0.321   1.597   9.621  0.7520  0.2653  0.3273
  311MOL0     O41874   0.319   1.603   9.762  0.4901 -0.2807 -0.2663
  311MOL0     C41875   0.195   1.615   9.823  0.7215 -0.1556  0.6183
  311MOL0     C41876   0.200   1.626   9.955  0.1338  0.0640  0.3501
  311MOL0     C41877   0.082   1.634  10.042  0.3694 -0.4904  0.6252
  311MOL0     C41878   0.082   1.658  10.188 -0.7509  0.7057  0.0205
  311MOL0     C41879  -0.050   1.614   9.978 -0.9010  0.0217  0.1370
  311MOL0     C41880  -0.184   1.621  10.041  0.4590 -0.1674 -0.8768
  311MOL0     O41881  -0.301   1.642   9.972 -0.1375 -0.1455  1.0672
  311MOL0     C41882  -0.427   1.621  10.024  0.7258  0.2977  0.3335
  311MOL0     C41883  -0.467   1.616  10.160  0.5170 -0.2280 -0.6965
  311MOL0     C41884  -0.595   1.575  10.196 -0.5574 -0.0716 -0.4436
  311MOL0     C41885  -0.691   1.548  10.094 -0.6591 -0.2112 -1.3804
  311MOL0     O41886  -0.819   1.546  10.134 -0.2552 -0.4331  0.9735
  311MOL0     C41887  -0.865   1.682  10.114 -0.3923 -0.1519  0.9971
  311MOL0     C41888  -1.014   1.652  10.101 -0.3069 -1.0600  0.3074
  311MOL0     C41889  -1.104   1.779  10.124 -0.1967 -0.0067  0.5021
  311MOL0     C41890  -1.229   1.749  10.053  0.0921 -0.4736 -0.5010
  311MOL0     C41891  -1.307   1.626  10.084 -0.7257  0.4058  0.0639
  311MOL0     C41892  -1.458   1.653  10.045  0.5254  0.3061  0.0018
  311MOL0     C41893  -1.534   1.521  10.048 -0.7873  0.4275 -0.3926
  311MOL0     C41894  -1.685   1.524  10.043  0.0726 -0.1808 -0.8036
  311MOL0    Cl41895  -1.751   1.601  10.191 -0.0911 -0.1263  0.3636
  311MOL0     C41896  -0.654   1.547   9.956 -1.2342  0.0346  0.0528
  311MOL0     C41897  -0.519   1.582   9.924  0.0115 -0.8612 -0.5766
  311MOL0     O41898  -0.187   1.574  10.154  0.7804 -0.5554  0.3518
  311MOL0     C41899  -0.046   1.593   9.841  0.1970  0.3512  0.0851
  311MOL0     C41900   0.066   1.595   9.764 -0.0819  0.2030  0.0843
  311MOL0     N41901   0.584   1.397   9.327 -0.3135 -0.0227  0.1019
  311MOL0     N41902   0.669   1.306   9.293  0.1237 -0.3614  1.4511
  311MOL0     C41903   0.891   0.715  10.239 -0.1462 -0.1068  0.7407
  311MOL0     C41904   0.811   0.609  10.305  0.4953 -0.7260  0.7863
  311MOL0     C41905   0.636   0.202  10.394  0.6976  0.5975  1.2381
  311MOL0     C41906   0.537   0.141  10.312 -0.6139 -0.5600 -1.0427
  311MOL0     C41907   0.459   0.038  10.350  0.0905  0.7545 -0.3608
  311MOL0     C41908   0.472  -0.018  10.480  0.5730 -0.0909 -0.0808
  311MOL0     O41909   0.376  -0.105  10.517  0.1910  0.8715  0.6154
  311MOL0     C41910   0.377  -0.178  10.634  0.4393 -0.3316 -0.2750
  311MOL0     C41911   0.269  -0.128  10.716  1.0672  0.3978 -0.1427
  311MOL0     C41912   0.127  -0.137  10.639 -0.5030 -0.0379 -0.1347
  311MOL0     C41913   0.015  -0.068  10.712  0.6391  0.1429 -0.0016
  311MOL0     C41914  -0.104  -0.059  10.627  0.2917 -0.2505  0.1216
  311MOL0     C41915  -0.202  -0.056  10.556  0.0958  0.4673 -0.1451
  311MOL0     C41916   0.569   0.035  10.561 -0.5989 -0.0336  1.0495
  311MOL0     C41917   0.648   0.150  10.522 -1.0030  0.7790  0.1058
  311MOL0     H41918   0.710   0.458  10.024  0.3237  0.2583 -0.9973
  311MOL0     H41919   0.781   0.645   9.925  2.1733 -1.0305 -0.7343
  311MOL0     H41920   0.962   0.779   9.839 -4.4986 -2.0134 -0.6320
  311MOL0     H41921   0.842   0.888   9.891 -0.3179 -1.1052 -1.0421
  311MOL0     H41922   0.967   1.070   9.919 -2.4590  0.6182 -1.0500
  311MOL0     H41923   1.132   0.985   9.915 -0.6505 -0.1936 -0.6892
  311MOL0     H41924   1.113   0.948   9.689  0.9213  2.2340 -1.3520
  311MOL0     H41925   0.947   1.009   9.675 -0.6179  3.1244  0.3770
  311MOL0     H41926   1.004   1.226   9.753 -1.0596 -0.8396 -3.3824
  311MOL0     H41927   1.170   1.184   9.779  2.0029 -0.0880 -0.9743
  311MOL0     H41928   1.141   1.315   9.566  0.0191 -0.1012 -0.1571
  311MOL0     H41929   1.209   1.169   9.527  0.8270 -0.4075  4.7543
  311MOL0     H41930   0.947   1.092   9.475  2.3510 -0.4824  1.8721
  311MOL0     H41931   0.910   1.259   9.525  1.4105  0.1318  4.7063
  311MOL0     H41932   1.087   1.315   9.339 -3.0105  3.8974 -1.7484
  311MOL0     H41933   1.088   1.138   9.307 -2.3778 -1.3142  2.7585
  311MOL0     H41934   0.855   1.150   9.213  0.5676 -0.1448 -0.3877
  311MOL0     H41935   0.948   1.297   9.149  1.0426  4.2162  2.2991
  311MOL0     H41936   0.894   1.534   9.338  0.0310  0.7278 -1.4353
  311MOL0     H41937   0.686   1.689   9.485 -2.8011  3.4157  0.7463
  311MOL0     H41938   0.632   1.713   9.311 -3.3831 -1.4961 -1.3086
  311MOL0     H41939   0.431   1.614   9.359  2.4971 -0.3625 -0.3487
  311MOL0     H41940   0.448   1.768   9.443  0.6444  0.7242 -1.3420
  311MOL0     H41941   0.527   1.658   9.639 -0.9793  1.4884 -0.8421
  311MOL0     H41942   0.509   1.494   9.565 -0.9492 -0.8152  1.4599
  311MOL0     H41943   0.264   1.518   9.572  0.4936  0.7508 -0.1609
  311MOL0     H41944   0.267   1.688   9.594 -2.4610 -0.1778  4.2417
  311MOL0     H41945   0.297   1.630  10.003  1.2382 -1.2303 -1.6179
  311MOL0     H41946   0.177   1.697  10.224 -1.3529  1.0229  1.3027
  311MOL0     H41947   0.008   1.735  10.211 -1.5829 -0.8026  2.9324
  311MOL0     H41948   0.069   1.563  10.241 -0.0793  1.1648  1.0380
  311MOL0     H41949  -0.397   1.644  10.237  1.2669 -0.8666 -1.1342
  311MOL0     H41950  -0.623   1.570  10.301  1.7711  1.7424  0.3488
  311MOL0     H41951  -0.848   1.737  10.207 -0.0914 -0.6143  1.2202
  311MOL0     H41952  -0.825   1.724  10.021  3.4399 -1.3935  1.8864
  311MOL0     H41953  -1.036   1.598  10.009  1.4644  0.2602 -0.9466
  311MOL0     H41954  -1.036   1.586  10.186 -2.1136  0.7501  1.3461
  311MOL0     H41955  -1.051   1.859  10.072 -2.0588  1.2552  0.4484
  311MOL0     H41956  -1.125   1.804  10.229 -1.5530  1.6601 -0.1285
  311MOL0     H41957  -1.295   1.835  10.067 -0.0055 -0.6008 -0.1476
  311MOL0     H41958  -1.201   1.735   9.949  1.1384 -1.4562 -0.1100
  311MOL0     H41959  -1.313   1.600  10.190 -3.2580 -3.0697 -0.7477
  311MOL0     H41960  -1.259   1.538  10.041  0.7397  0.0593  2.2610
  311MOL0     H41961  -1.508   1.732  10.102 -0.3178 -1.6210  2.0652
  311MOL0     H41962  -1.461   1.682   9.939 -2.1959 -0.0582 -0.0797
  311MOL0     H41963  -1.507   1.456  10.132 -4.4511 -2.2200 -1.0572
  311MOL0     H41964  -1.492   1.464   9.964 -4.4373 -2.9124 -0.2495
  311MOL0     H41965  -1.727   1.423  10.045  3.4523 -1.7221  0.8852
  311MOL0     H41966  -1.716   1.573   9.950 -0.8679  1.4089  0.3105
  311MOL0     H41967  -0.735   1.516   9.891 -2.5190  1.2963  0.9736
  311MOL0     H41968  -0.494   1.590   9.819 -1.9249 -1.6006 -1.1498
  311MOL0     H41969  -0.138   1.578   9.785  2.3635  0.1688 -3.7658
  311MOL0     H41970   0.052   1.582   9.657 -3.4469  1.6340  0.2398
  311MOL0     H41971   0.938   0.786  10.305 -1.8283 -0.3897  2.3313
  311MOL0     H41972   0.805   0.603  10.413  1.3681 -0.4226  0.8535
  311MOL0     H41973   0.503   0.190  10.221 -1.6922 -0.1269 -0.4126
  311MOL0     H41974   0.373   0.009  10.291 -0.8067 -0.8288  1.6160
  311MOL0     H41975   0.376  -0.287  10.621  2.8570 -0.5916  1.0353
  311MOL0     H41976   0.469  -0.168  10.692 -1.3150  3.1045  2.2530
  311MOL0     H41977   0.279  -0.021  10.739  0.0427  0.8198 -1.5339
  311MOL0     H41978   0.272  -0.199  10.799  3.2864 -1.7899 -1.9610
  311MOL0     H41979   0.103  -0.242  10.619 -1.5261  0.2633 -0.5142
  311MOL0     H41980   0.143  -0.072  10.553  3.3449  0.6330  0.8694
  311MOL0     H41981   0.045   0.033  10.741  0.9167  0.2571 -0.6613
  311MOL0     H41982   0.006  -0.131  10.802  3.1424  1.0198  0.9395
  311MOL0     H41983  -0.294  -0.057  10.501  0.2389 -0.4609 -0.3756
  311MOL0     H41984   0.598   0.005  10.662  0.1204  1.3093  1.2601
  311MOL0     H41985   0.716   0.197  10.592  1.4261 -2.2257  0.0320
  312MOL0     O41986   4.617   8.689   6.658  0.7290  0.3662  0.5170
  312MOL0     C41987   4.682   8.670   6.765  0.2299  0.5334  0.8801
  312MOL0     O41988   4.782   8.758   6.806 -0.1161  0.2227  0.5992
  312MOL0     C41989   4.825   8.869   6.733  0.0422  0.4270 -0.5711
  312MOL0     C41990   4.744   8.949   6.657 -0.3657 -0.3002  0.5963
  312MOL0     C41991   4.795   9.049   6.575  0.9971 -0.5386 -0.5057
  312MOL0     C41992   4.937   9.070   6.570  0.7986  0.4596 -0.3631
  312MOL0     O41993   5.002   9.147   6.471 -0.1770 -0.6758 -0.1557
  312MOL0     C41994   4.919   9.238   6.397  0.3299 -0.5090 -1.1721
  312MOL0     C41995   5.015   9.317   6.321 -0.3102 -0.3382 -0.0781
  312MOL0     C41996   4.952   9.386   6.195 -0.8186  0.1577  0.3375
  312MOL0     C41997   4.851   9.494   6.228  0.4694 -0.2950  0.0028
  312MOL0     C41998   4.776   9.532   6.101  0.5684 -0.3941 -0.1774
  312MOL0     C41999   4.654   9.623   6.133  0.4517 -0.5219  0.1975
  312MOL0     C42000   4.557   9.582   6.242  0.0061 -0.2528  0.3374
  312MOL0     C42001   4.500   9.444   6.207 -0.5807  0.2760  1.0616
  312MOL0     N42002   4.371   9.412   6.261  0.3103  0.7618  0.3070
  312MOL0     C42003   4.259   9.472   6.208 -0.3853  0.1966 -0.3828
  312MOL0     C42004   4.154   9.436   6.281 -0.0110  0.5715 -1.1143
  312MOL0     C42005   4.001   9.471   6.258  0.1087 -1.4965 -0.5373
  312MOL0     C42006   3.985   9.576   6.143 -0.6878 -1.1948  0.4345
  312MOL0     C42007   3.839   9.614   6.114  0.4784  0.6324  0.3548
  312MOL0     C42008   3.768   9.704   6.211 -0.0043  0.1987 -0.1216
  312MOL0     O42009   3.800   9.852   6.187  0.2282  0.4582 -0.3018
  312MOL0     C42010   3.762   9.947   6.275  0.2135 -0.7910  0.2195
  312MOL0     C42011   3.802  10.079   6.257  0.0497  0.4843  1.3402
  312MOL0     C42012   3.753  10.182   6.333 -0.1436 -0.1456 -0.6289
  312MOL0     C42013   3.797  10.317   6.294 -0.2216  0.7390 -0.2527
  312MOL0     C42014   3.675  10.154   6.453 -0.3973  0.3223 -0.0751
  312MOL0     C42015   3.616  10.258   6.537  1.0436  1.0735 -0.4045
  312MOL0     O42016   3.641  10.247   6.667 -0.2006 -0.0084  0.0555
  312MOL0     C42017   3.778  10.272   6.692 -0.6088  0.2374  0.0476
  312MOL0     C42018   3.850  10.167   6.761  0.8685  0.2991  0.0011
  312MOL0     C42019   3.990  10.190   6.785 -0.3744 -0.0074  0.4123
  312MOL0     C42020   4.051  10.309   6.750  0.1604 -0.7134  0.5780
  312MOL0     O42021   4.184  10.330   6.782  0.3270 -1.1064  0.5322
  312MOL0     C42022   4.210  10.352   6.920 -0.7950  0.2002  0.5554
  312MOL0     C42023   4.341  10.442   6.933  0.2757  0.7341  1.1163
  312MOL0     C42024   4.365  10.478   7.082  0.1314  0.8069 -0.6148
  312MOL0     C42025   4.472  10.586   7.104  0.7775 -0.7640  0.4612
  312MOL0     C42026   4.429  10.734   7.134 -0.2173  0.0170 -0.3194
  312MOL0     C42027   4.411  10.813   6.999 -0.5524  0.0641 -0.9519
  312MOL0     C42028   4.381  10.964   7.022  0.0818 -1.2932 -0.9072
  312MOL0     C42029   4.508  11.044   7.051 -0.3969 -0.4015  0.2350
  312MOL0    Cl42030   4.467  11.219   7.049 -0.3558 -0.2406 -0.3077
  312MOL0     C42031   3.982  10.409   6.685  0.5710  0.2184 -0.0572
  312MOL0     C42032   3.846  10.393   6.654 -0.4878  0.1482  0.9665
  312MOL0     O42033   3.562  10.351   6.488  0.4673 -0.3462  0.8788
  312MOL0     C42034   3.645  10.019   6.474 -0.0237 -0.0388  0.0980
  312MOL0     C42035   3.684   9.917   6.390 -0.3544 -0.3783 -0.0680
  312MOL0     N42036   4.206   9.361   6.385 -0.1760 -0.3967  0.5330
  312MOL0     N42037   4.337   9.351   6.371  1.2505 -1.0848 -1.2778
  312MOL0     C42038   5.015   8.988   6.644 -0.1970 -0.2343 -0.3403
  312MOL0     C42039   4.963   8.897   6.733 -0.0969  0.5940  1.2259
  312MOL0     C42040   4.671   8.538   6.831 -0.2744  0.5073  1.2718
  312MOL0     C42041   4.735   8.516   6.952 -0.5940  0.6027 -0.5170
  312MOL0     C42042   4.719   8.400   7.033 -0.8824 -0.9215  0.6607
  312MOL0     C42043   4.630   8.293   6.990  0.5467  0.0017  1.0006
  312MOL0     O42044   4.570   8.195   7.067 -0.3847 -0.2866 -0.3783
  312MOL0     C42045   4.615   8.201   7.203 -0.1101  0.8377  0.6207
  312MOL0     C42046   4.564   8.084   7.288  0.0831 -0.2043 -0.6630
  312MOL0     C42047   4.644   8.084   7.418 -0.5499  0.9386 -0.5400
  312MOL0     C42048   4.594   7.966   7.507 -0.5784  0.4858 -0.3003
  312MOL0     C42049   4.712   7.901   7.577  1.1706  0.6374  0.1271
  312MOL0     C42050   4.813   7.845   7.631  0.3176  0.0442 -0.2949
  312MOL0     C42051   4.576   8.309   6.860  0.1169 -0.1686 -0.9992
  312MOL0     C42052   4.591   8.438   6.782 -0.2413 -0.3314 -0.2363
  312MOL0     H42053   4.637   8.932   6.655 -0.2882 -0.8174  0.7732
  312MOL0     H42054   4.735   9.111   6.509 -1.8918 -1.2022  1.3099
  312MOL0     H42055   4.850   9.186   6.330 -0.5051  1.8432 -2.2469
  312MOL0     H42056   4.864   9.304   6.464  1.4481  0.4558 -1.1666
  312MOL0     H42057   5.067   9.389   6.385 -2.5962 -0.3406  1.8815
  312MOL0     H42058   5.095   9.249   6.291 -1.4098 -1.4994 -0.4616
  312MOL0     H42059   5.022   9.443   6.133  0.5386 -1.8063 -0.0425
  312MOL0     H42060   4.901   9.308   6.137  1.4135 -2.4317  1.6438
  312MOL0     H42061   4.786   9.463   6.310 -0.9864  3.2099  0.3370
  312MOL0     H42062   4.893   9.583   6.276 -1.9450  1.4959 -0.9927
  312MOL0     H42063   4.842   9.580   6.028  2.3320  0.1891  1.7012
  312MOL0     H42064   4.739   9.444   6.048  0.9976  0.1304 -1.4040
  312MOL0     H42065   4.701   9.714   6.173 -0.8789  0.4638 -0.4099
  312MOL0     H42066   4.603   9.644   6.038  2.0222 -4.5563 -1.7809
  312MOL0     H42067   4.606   9.575   6.339 -0.5380  1.2996  0.7563
  312MOL0     H42068   4.477   9.655   6.256  0.1089 -0.1804  0.5440
  312MOL0     H42069   4.570   9.362   6.216 -0.4845  0.4003  1.4865
  312MOL0     H42070   4.491   9.440   6.098  1.0434 -3.9668  0.9238
  312MOL0     H42071   4.266   9.542   6.125  0.7556 -0.6813 -1.0591
  312MOL0     H42072   3.931   9.395   6.223 -1.8868  0.5061 -1.0939
  312MOL0     H42073   3.968   9.512   6.354 -0.3064  1.5832 -1.9040
  312MOL0     H42074   4.032   9.546   6.048  2.2988 -0.4347  1.5517
  312MOL0     H42075   4.048   9.661   6.170  0.6178 -2.0773  0.2503
  312MOL0     H42076   3.779   9.522   6.117  1.0234  0.2877  2.4596
  312MOL0     H42077   3.841   9.642   6.009  2.1409  0.5697  0.3366
  312MOL0     H42078   3.800   9.664   6.307 -5.3118 -2.7578  0.7666
  312MOL0     H42079   3.660   9.690   6.213  0.1553 -1.0837  1.4911
  312MOL0     H42080   3.880  10.104   6.186 -0.2676  1.2044  1.2285
  312MOL0     H42081   3.813  10.326   6.186  2.0477 -1.7048 -0.2160
  312MOL0     H42082   3.717  10.387   6.319 -0.1856  0.5112  0.4986
  312MOL0     H42083   3.886  10.334   6.354  0.9563 -1.3484 -1.2816
  312MOL0     H42084   3.797  10.080   6.797  3.8959 -1.9736 -0.6451
  312MOL0     H42085   4.053  10.126   6.847  1.2087  1.6316  0.5526
  312MOL0     H42086   4.134  10.417   6.963 -2.1321 -0.3483 -0.8837
  312MOL0     H42087   4.219  10.263   6.982  0.6158  0.3586  0.6032
  312MOL0     H42088   4.428  10.387   6.896 -3.1365 -2.7753 -2.6542
  312MOL0     H42089   4.324  10.525   6.865  1.9645 -0.9989 -1.6255
  312MOL0     H42090   4.392  10.388   7.137  3.1191  0.4929 -2.3934
  312MOL0     H42091   4.264  10.505   7.116  0.1578 -0.0860  0.2286
  312MOL0     H42092   4.526  10.565   7.196  1.7696  2.1172  0.6370
  312MOL0     H42093   4.544  10.584   7.022 -2.3335  1.3966 -2.6462
  312MOL0     H42094   4.501  10.788   7.196 -0.0577 -0.7756  0.2007
  312MOL0     H42095   4.333  10.727   7.186  0.4896 -1.3528  0.8894
  312MOL0     H42096   4.506  10.805   6.945 -0.4257 -2.5152 -0.4604
  312MOL0     H42097   4.339  10.772   6.928  0.1123 -1.0653 -0.9956
  312MOL0     H42098   4.314  10.980   7.106  2.4309 -1.3476  1.1052
  312MOL0     H42099   4.333  11.004   6.932 -0.3855 -2.6221 -1.2793
  312MOL0     H42100   4.577  11.035   6.967 -2.7065  2.6851 -2.2245
  312MOL0     H42101   4.552  11.016   7.147  0.0052 -0.6213 -0.0128
  312MOL0     H42102   4.035  10.502   6.668  2.7726 -0.7860  0.8804
  312MOL0     H42103   3.796  10.461   6.586  1.9682 -1.2240 -2.5221
  312MOL0     H42104   3.571   9.991   6.548 -0.7810  2.9793  0.5964
  312MOL0     H42105   3.663   9.814   6.416  1.2659 -0.8013 -0.3027
  312MOL0     H42106   5.121   9.010   6.634  0.0485 -0.1404  1.9738
  312MOL0     H42107   5.038   8.837   6.783 -0.8198 -0.6927  0.8151
  312MOL0     H42108   4.778   8.605   6.998  0.7233 -1.0081  1.5046
  312MOL0     H42109   4.781   8.411   7.121 -0.1157  1.8052 -0.1560
  312MOL0     H42110   4.724   8.202   7.207 -0.0888 -0.9902  3.4973
  312MOL0     H42111   4.588   8.297   7.249 -1.4831  3.8365 -5.3857
  312MOL0     H42112   4.576   7.983   7.247 -0.2073 -0.0924 -1.0298
  312MOL0     H42113   4.458   8.103   7.306  0.2409  3.2696 -2.6279
  312MOL0     H42114   4.653   8.182   7.465  2.9720  1.7606 -2.5547
  312MOL0     H42115   4.748   8.060   7.395 -0.1463 -0.2909  2.2554
  312MOL0     H42116   4.536   7.890   7.454  0.8917 -0.3844 -0.7254
  312MOL0     H42117   4.535   8.002   7.592 -1.3316 -3.1495  0.9019
  312MOL0     H42118   4.901   7.792   7.660 -0.0337 -0.9442 -0.9657
  312MOL0     H42119   4.512   8.223   6.845  2.4925 -3.6496  5.0194
  312MOL0     H42120   4.533   8.460   6.693  2.2093 -0.1374 -1.8778
  313MOL0     O42121   3.643   4.347   8.945 -0.1942  0.5573  0.4209
  313MOL0     C42122   3.650   4.399   9.056 -0.3971 -0.1819  0.7724
  313MOL0     O42123   3.551   4.476   9.119 -0.5547  0.4914  0.7043
  313MOL0     C42124   3.441   4.505   9.046 -0.5965 -0.1487 -0.1392
  313MOL0     C42125   3.439   4.599   8.937  1.0545  0.6832 -0.0564
  313MOL0     C42126   3.320   4.635   8.869  0.5112  0.6765  0.8299
  313MOL0     C42127   3.195   4.572   8.908  0.0429 -0.1313 -0.4273
  313MOL0     O42128   3.078   4.601   8.839 -0.5838 -1.2337  0.3735
  313MOL0     C42129   3.053   4.743   8.855 -0.5500  0.6372  1.1280
  313MOL0     C42130   2.908   4.775   8.881  0.1579  0.4019  0.3517
  313MOL0     C42131   2.892   4.923   8.929  0.0270  0.5331  0.1412
  313MOL0     C42132   2.791   4.996   8.848 -0.3380 -0.2064  0.1248
  313MOL0     C42133   2.757   5.125   8.921  0.8281  0.2239  0.0986
  313MOL0     C42134   2.652   5.102   9.030  1.0404 -0.1670 -0.1175
  313MOL0     C42135   2.520   5.040   8.974 -0.3408  0.6221  0.7022
  313MOL0     C42136   2.413   5.030   9.083  0.5782  0.4247 -0.2472
  313MOL0     N42137   2.289   4.984   9.018 -0.1474  0.5283 -0.1379
  313MOL0     C42138   2.207   5.059   8.932  0.0156  0.1337  0.1618
  313MOL0     C42139   2.141   4.959   8.870 -0.0825 -0.1630 -0.0010
  313MOL0     C42140   2.064   4.987   8.736  0.6485  0.4984 -0.5637
  313MOL0     C42141   1.941   5.069   8.771 -0.2205 -0.1401 -0.0295
  313MOL0     C42142   1.855   5.119   8.645  0.6022  0.0122  0.3230
  313MOL0     C42143   1.915   5.222   8.550  0.6345 -0.3399  0.0362
  313MOL0     O42144   2.032   5.165   8.485  0.0731 -0.1481 -0.7237
  313MOL0     C42145   2.016   5.056   8.402  0.3555 -0.7122 -0.3025
  313MOL0     C42146   1.898   5.023   8.340 -0.2993 -0.2980  1.2419
  313MOL0     C42147   1.887   4.911   8.250 -0.5940 -0.7231 -0.6687
  313MOL0     C42148   1.748   4.878   8.208 -0.6127  0.1756  0.2703
  313MOL0     C42149   2.000   4.854   8.194 -0.5331 -0.5102  0.0662
  313MOL0     C42150   2.016   4.761   8.080 -1.4614 -0.2916 -0.7373
  313MOL0     O42151   2.149   4.721   8.046 -0.4149  0.6504 -0.8073
  313MOL0     C42152   2.176   4.636   7.944 -0.6749  0.3306 -0.8186
  313MOL0     C42153   2.255   4.526   7.974  0.6757  0.3062 -0.0481
  313MOL0     C42154   2.279   4.421   7.876  1.1385 -0.3782  0.7610
  313MOL0     C42155   2.221   4.439   7.751  0.3150 -1.0095  0.0803
  313MOL0     O42156   2.209   4.336   7.658  0.1477  0.4279 -0.3604
  313MOL0     C42157   2.214   4.200   7.703  0.1903  0.9724 -0.9343
  313MOL0     C42158   2.211   4.108   7.579  0.3530 -0.0490 -0.4269
  313MOL0     C42159   2.072   4.100   7.503  0.0429 -0.3471  0.3537
  313MOL0     C42160   2.085   3.992   7.393  0.5567  0.2258  0.2235
  313MOL0     C42161   1.946   3.964   7.325  0.2413  0.4955  0.6966
  313MOL0     C42162   1.980   3.875   7.202  0.9310  0.0070  0.5355
  313MOL0     C42163   1.866   3.786   7.154 -0.1574  0.4176  0.6603
  313MOL0     C42164   1.846   3.808   7.001  0.6404  0.2946  0.0372
  313MOL0    Cl42165   1.990   3.749   6.911 -0.3041  0.1459 -0.5559
  313MOL0     C42166   2.136   4.551   7.725 -0.0282 -0.0848 -0.9391
  313MOL0     C42167   2.109   4.645   7.822 -0.4798 -0.4061 -0.2388
  313MOL0     O42168   1.924   4.734   8.021  0.5918  0.3925 -0.4734
  313MOL0     C42169   2.127   4.883   8.262 -0.1300  0.5098 -0.1913
  313MOL0     C42170   2.132   4.981   8.364  0.4594  0.4469 -0.3254
  313MOL0     N42171   2.173   4.831   8.926  0.5466 -0.4144 -0.0319
  313MOL0     N42172   2.270   4.849   9.006  0.2228 -0.8418 -0.3987
  313MOL0     C42173   3.210   4.474   9.013 -0.1816 -1.2138  0.1134
  313MOL0     C42174   3.325   4.450   9.090 -0.2295  0.6162  0.8433
  313MOL0     C42175   3.780   4.401   9.124 -0.3446  0.7864  0.5010
  313MOL0     C42176   3.899   4.355   9.064  0.4654  0.5026 -0.8603
  313MOL0     C42177   4.017   4.359   9.130 -0.4810  1.0993  0.6887
  313MOL0     C42178   4.038   4.422   9.247  0.0801  0.4616 -0.1196
  313MOL0     O42179   4.160   4.425   9.301  0.2033  0.3456  0.3825
  313MOL0     C42180   4.192   4.552   9.347 -0.3325  0.0612 -0.0604
  313MOL0     C42181   4.339   4.568   9.354 -0.6676 -0.6609 -0.0350
  313MOL0     C42182   4.400   4.582   9.208  0.2125 -0.0515  0.1553
  313MOL0     C42183   4.556   4.589   9.209 -0.1793 -0.0675  0.6776
  313MOL0     C42184   4.603   4.638   9.077 -0.3408  0.2001 -0.1152
  313MOL0     C42185   4.639   4.651   8.965 -0.4255 -0.4294  0.0692
  313MOL0     C42186   3.914   4.463   9.317 -0.3791  0.2151  0.1650
  313MOL0     C42187   3.785   4.446   9.251  0.2137 -1.2224 -0.6115
  313MOL0     H42188   3.539   4.633   8.907  1.0442 -0.4762 -1.5283
  313MOL0     H42189   3.323   4.697   8.781 -2.7554  0.6957  0.5982
  313MOL0     H42190   3.115   4.784   8.935  0.0516 -2.5385  2.4420
  313MOL0     H42191   3.083   4.788   8.760  2.0382 -1.7110  0.6872
  313MOL0     H42192   2.842   4.752   8.797 -3.0250 -1.0189  2.9947
  313MOL0     H42193   2.860   4.719   8.963 -1.8212  0.1725 -0.8981
  313MOL0     H42194   2.863   4.919   9.035 -2.1973  1.3359 -0.3937
  313MOL0     H42195   2.988   4.974   8.921  1.4470 -2.2869 -3.2476
  313MOL0     H42196   2.837   5.020   8.752  0.3488 -0.2202  0.4445
  313MOL0     H42197   2.715   4.921   8.826 -2.4196  1.4104  1.4479
  313MOL0     H42198   2.837   5.183   8.968  1.0220  0.8518 -0.9846
  313MOL0     H42199   2.715   5.195   8.849 -1.6113 -0.7833  0.4536
  313MOL0     H42200   2.699   5.046   9.112  0.9312  1.5349  1.1683
  313MOL0     H42201   2.636   5.200   9.077 -0.4361 -1.2031  1.6685
  313MOL0     H42202   2.475   5.097   8.892 -1.0466 -2.3621 -1.1588
  313MOL0     H42203   2.551   4.940   8.939  0.2347  1.4175 -1.2099
  313MOL0     H42204   2.408   5.133   9.120 -2.2594  0.4513 -0.5546
  313MOL0     H42205   2.444   4.970   9.169  0.4310 -2.0849 -1.8410
  313MOL0     H42206   2.221   5.161   8.896 -2.0201 -0.3167 -2.2429
  313MOL0     H42207   2.137   5.038   8.672 -0.6338  1.6815 -1.1615
  313MOL0     H42208   2.028   4.893   8.693  0.4976  0.8262 -1.1719
  313MOL0     H42209   1.957   5.158   8.832 -0.2520  0.9646 -1.5697
  313MOL0     H42210   1.872   5.009   8.831 -2.8297  1.0109 -1.6719
  313MOL0     H42211   1.769   5.173   8.684 -0.3700 -0.4512 -1.1237
  313MOL0     H42212   1.819   5.026   8.602 -0.4613  0.8988 -0.7491
  313MOL0     H42213   1.939   5.312   8.608  2.8127 -0.6122 -0.3660
  313MOL0     H42214   1.842   5.249   8.473  0.7101  1.6116  0.5988
  313MOL0     H42215   1.814   5.085   8.369  1.4570  2.0464  1.6293
  313MOL0     H42216   1.697   4.848   8.301  0.1024 -0.2625  0.5292
  313MOL0     H42217   1.689   4.963   8.174 -0.7221  0.0138  0.0562
  313MOL0     H42218   1.734   4.800   8.133 -1.0475  3.0736 -2.8841
  313MOL0     H42219   2.305   4.510   8.069  2.1233 -3.7591 -1.2546
  313MOL0     H42220   2.339   4.332   7.894  2.9008  0.4704 -0.5652
  313MOL0     H42221   2.310   4.178   7.750  0.2478 -0.9758 -1.8593
  313MOL0     H42222   2.136   4.171   7.773  1.4316  0.4531  0.2813
  313MOL0     H42223   2.291   4.134   7.510  3.9797 -0.4439  3.2071
  313MOL0     H42224   2.228   4.007   7.618 -2.4609  0.1375  1.6203
  313MOL0     H42225   2.062   4.194   7.448 -2.0491 -0.7497 -0.0414
  313MOL0     H42226   1.983   4.085   7.565  0.5748 -1.3272  0.9196
  313MOL0     H42227   2.164   4.005   7.318  0.4620  2.5281  0.4392
  313MOL0     H42228   2.126   3.900   7.436 -2.0951 -2.1212 -1.9049
  313MOL0     H42229   1.898   4.054   7.286 -1.3972  0.2579  2.0218
  313MOL0     H42230   1.876   3.918   7.395  1.3620 -0.4891  1.2081
  313MOL0     H42231   2.008   3.945   7.124 -1.6422 -1.2768 -1.7138
  313MOL0     H42232   2.063   3.809   7.230 -0.4374 -1.5336  1.1416
  313MOL0     H42233   1.767   3.807   7.197 -1.1727  1.4687 -1.9706
  313MOL0     H42234   1.873   3.677   7.163 -1.1186  0.0712 -1.9217
  313MOL0     H42235   1.830   3.915   6.987  0.0317  0.2156  0.0827
  313MOL0     H42236   1.753   3.761   6.968  0.9535 -2.5541  2.7471
  313MOL0     H42237   2.075   4.559   7.635  2.5156  0.8966 -2.6928
  313MOL0     H42238   2.045   4.732   7.813 -1.1453 -0.7134  1.2424
  313MOL0     H42239   2.225   4.840   8.241  0.0320  0.4947  0.5607
  313MOL0     H42240   2.223   5.014   8.413  0.0615 -0.4355  1.0650
  313MOL0     H42241   3.121   4.416   9.032 -1.2577  0.5273  0.6721
  313MOL0     H42242   3.319   4.370   9.163 -2.7499 -0.5463 -0.5304
  313MOL0     H42243   3.901   4.301   8.969  2.0850 -3.4295  1.1701
  313MOL0     H42244   4.106   4.312   9.089 -0.6529 -0.9033  2.4426
  313MOL0     H42245   4.148   4.629   9.283 -1.9786 -1.1913 -0.4949
  313MOL0     H42246   4.149   4.569   9.447 -0.2181  0.8876 -0.1425
  313MOL0     H42247   4.393   4.484   9.398  1.0672  0.6146  0.3869
  313MOL0     H42248   4.368   4.664   9.398  2.9848 -0.6574 -2.1096
  313MOL0     H42249   4.350   4.666   9.158 -3.0153 -1.3661  0.8972
  313MOL0     H42250   4.369   4.485   9.167  2.0037 -1.2882  1.5733
  313MOL0     H42251   4.602   4.492   9.227  1.9028  0.6997 -0.2269
  313MOL0     H42252   4.592   4.660   9.285  1.6735 -2.1902  1.8826
  313MOL0     H42253   4.666   4.664   8.863 -0.3972 -0.5778  0.0586
  313MOL0     H42254   3.919   4.497   9.420 -1.6122  0.9651  0.0051
  313MOL0     H42255   3.696   4.469   9.308  0.8859 -0.9363  0.3532
  314MOL0     O42256   4.497   9.043   8.490  0.3697  0.5018  0.4631
  314MOL0     C42257   4.428   9.097   8.573  0.2221 -0.2632  0.4193
  314MOL0     O42258   4.401   9.046   8.692  0.7584  0.4267  0.2603
  314MOL0     C42259   4.432   8.918   8.734  0.4250 -0.8340 -0.6563
  314MOL0     C42260   4.359   8.876   8.848  0.3624  0.8422  0.6255
  314MOL0     C42261   4.394   8.756   8.917 -0.2755  0.3293  0.4698
  314MOL0     C42262   4.504   8.685   8.879 -0.1229  0.3773  0.2247
  314MOL0     O42263   4.539   8.564   8.933  0.3522  0.5461 -0.2963
  314MOL0     C42264   4.621   8.573   9.051 -0.2964 -0.7460  0.2402
  314MOL0     C42265   4.691   8.444   9.082 -0.2345  0.1197 -0.1653
  314MOL0     C42266   4.605   8.314   9.089 -0.6080 -0.2903  0.0683
  314MOL0     C42267   4.703   8.208   9.149  0.1267 -0.9675 -0.9912
  314MOL0     C42268   4.644   8.064   9.113  0.0534  0.5835 -0.3948
  314MOL0     C42269   4.617   8.036   8.971 -0.2203  0.5952  0.2351
  314MOL0     C42270   4.587   7.889   8.953  0.0806 -0.0065 -0.3080
  314MOL0     C42271   4.434   7.863   8.946  0.1131  0.0785 -0.3744
  314MOL0     N42272   4.382   7.886   8.808 -0.0686  0.6724 -0.6924
  314MOL0     C42273   4.325   8.002   8.771 -0.1580 -0.3391  0.4469
  314MOL0     C42274   4.262   7.975   8.659  0.2811 -1.5133 -0.9906
  314MOL0     C42275   4.177   8.059   8.578 -0.0679  0.1843  0.0253
  314MOL0     C42276   4.027   8.059   8.621 -0.0896  0.0843 -0.2206
  314MOL0     C42277   3.945   8.175   8.555 -0.3585  0.5023  0.4912
  314MOL0     C42278   3.792   8.145   8.570 -0.8403 -0.1770 -0.9976
  314MOL0     O42279   3.723   8.276   8.561 -1.0833 -0.5908 -0.4519
  314MOL0     C42280   3.592   8.280   8.565  0.5929  0.8335 -0.6605
  314MOL0     C42281   3.525   8.399   8.550  0.5088  0.2913 -0.4084
  314MOL0     C42282   3.397   8.419   8.564 -0.2848 -0.2903 -1.3069
  314MOL0     C42283   3.346   8.558   8.539  0.4570 -0.7703 -0.7215
  314MOL0     C42284   3.310   8.306   8.583 -0.3710 -0.8913  0.2774
  314MOL0     C42285   3.164   8.298   8.572 -0.1157  0.4628  0.3359
  314MOL0     O42286   3.090   8.419   8.564 -0.0952 -0.0309  0.0827
  314MOL0     C42287   2.952   8.405   8.558 -0.4165 -0.3132 -0.0498
  314MOL0     C42288   2.885   8.372   8.682  0.3025  0.6725 -0.3344
  314MOL0     C42289   2.745   8.364   8.689 -0.7983  0.9365 -0.0057
  314MOL0     C42290   2.667   8.392   8.578  0.1673  0.0985  1.2810
  314MOL0     O42291   2.529   8.395   8.568  0.3622  0.8956 -0.0890
  314MOL0     C42292   2.445   8.375   8.686  0.2261  0.2606  0.4450
  314MOL0     C42293   2.316   8.460   8.672 -0.3801  0.5297 -0.6709
  314MOL0     C42294   2.241   8.427   8.544 -0.4938 -0.0839 -0.4445
  314MOL0     C42295   2.162   8.548   8.512 -0.8431 -0.7923  0.6889
  314MOL0     C42296   2.065   8.531   8.387  0.0632  0.1010  0.5720
  314MOL0     C42297   1.946   8.436   8.434  0.4310 -0.0316  0.2781
  314MOL0     C42298   1.841   8.429   8.315  1.0161  0.8137 -0.2923
  314MOL0     C42299   1.778   8.560   8.268  0.0779 -0.0313 -0.0142
  314MOL0    Cl42300   1.638   8.602   8.387  0.2737 -0.1464 -0.1144
  314MOL0     C42301   2.734   8.406   8.455 -0.1393 -0.3175  0.4921
  314MOL0     C42302   2.868   8.405   8.449  0.0293 -0.0664 -0.4882
  314MOL0     O42303   3.113   8.186   8.577 -0.8959 -0.4374 -0.9878
  314MOL0     C42304   3.375   8.184   8.612  0.6232 -0.1393  1.0272
  314MOL0     C42305   3.513   8.171   8.601 -0.2897  0.2991 -0.0501
  314MOL0     N42306   4.295   7.844   8.624  0.0976 -1.0208 -0.4688
  314MOL0     N42307   4.369   7.785   8.720  0.5177  0.7714  0.0462
  314MOL0     C42308   4.586   8.737   8.779 -0.1275 -0.5522 -0.0226
  314MOL0     C42309   4.551   8.849   8.709  0.0636  0.4847  0.7967
  314MOL0     C42310   4.356   9.221   8.528 -0.4088  0.2077  0.8165
  314MOL0     C42311   4.263   9.277   8.612  0.4796 -0.3756 -0.5048
  314MOL0     C42312   4.202   9.399   8.578  0.0975  0.8432  0.7350
  314MOL0     C42313   4.224   9.464   8.459  0.0052 -0.9435  0.3026
  314MOL0     O42314   4.155   9.578   8.432  0.2036 -0.4263 -0.3284
  314MOL0     C42315   4.166   9.635   8.299 -0.5050  0.2062 -1.5039
  314MOL0     C42316   4.056   9.556   8.218  0.6279  0.5607  0.5718
  314MOL0     C42317   3.920   9.568   8.282  0.3796 -0.0048 -0.2538
  314MOL0     C42318   3.800   9.610   8.197  0.2515  0.1563  0.3228
  314MOL0     C42319   3.666   9.623   8.264  0.2802 -0.6137 -0.3339
  314MOL0     C42320   3.555   9.629   8.310 -0.6114 -0.1009 -1.2003
  314MOL0     C42321   4.320   9.402   8.372 -0.1579 -0.7390 -0.0775
  314MOL0     C42322   4.384   9.283   8.411  0.1101 -0.0843 -0.5885
  314MOL0     H42323   4.263   8.921   8.874  1.0619  1.2734  2.5808
  314MOL0     H42324   4.329   8.719   8.996  1.8618  0.0429  2.1853
  314MOL0     H42325   4.694   8.652   9.032  0.2016 -1.6795 -2.0191
  314MOL0     H42326   4.561   8.607   9.136  0.5697 -0.5456  0.7838
  314MOL0     H42327   4.763   8.433   9.000 -0.5405 -1.0681 -0.2885
  314MOL0     H42328   4.749   8.453   9.174  3.8629  1.0216 -2.5870
  314MOL0     H42329   4.518   8.334   9.152 -1.4108 -0.8145 -0.8521
  314MOL0     H42330   4.561   8.285   8.994 -3.0213 -0.0223  1.0335
  314MOL0     H42331   4.805   8.233   9.118  0.1723 -0.9309 -0.8119
  314MOL0     H42332   4.706   8.219   9.258 -1.4297 -0.0184 -1.0131
  314MOL0     H42333   4.710   7.986   9.154 -1.6475  0.2666  1.9405
  314MOL0     H42334   4.554   8.037   9.169 -0.7013  3.5035 -0.0464
  314MOL0     H42335   4.535   8.086   8.919 -0.1389 -1.7710 -2.4168
  314MOL0     H42336   4.707   8.065   8.916  0.2975  2.1853  1.8308
  314MOL0     H42337   4.636   7.863   8.859 -3.1305 -0.4528 -2.0129
  314MOL0     H42338   4.623   7.820   9.029  0.3661  2.2945  1.7705
  314MOL0     H42339   4.387   7.929   9.019  0.4532  1.2460 -1.1832
  314MOL0     H42340   4.413   7.761   8.981  0.3601  0.3300  0.5319
  314MOL0     H42341   4.317   8.103   8.811 -0.5720  0.3245 -1.2536
  314MOL0     H42342   4.213   8.162   8.581 -2.6099  1.1931 -0.9364
  314MOL0     H42343   4.173   8.035   8.471 -0.2284  2.1990 -0.4636
  314MOL0     H42344   4.019   8.081   8.728  2.4021  0.0737  0.0208
  314MOL0     H42345   3.979   7.968   8.583 -1.2506  1.3264 -1.9083
  314MOL0     H42346   3.966   8.170   8.448 -1.3237  0.5265  0.2954
  314MOL0     H42347   3.984   8.270   8.595  0.0706 -0.0327  1.3910
  314MOL0     H42348   3.780   8.101   8.669  0.8767  0.9328 -0.2540
  314MOL0     H42349   3.760   8.070   8.497  0.3628 -0.0670 -1.6740
  314MOL0     H42350   3.594   8.480   8.528 -0.9429  1.3196 -1.3734
  314MOL0     H42351   3.300   8.601   8.629  0.5675  0.9643 -1.4471
  314MOL0     H42352   3.429   8.628   8.528 -0.1602  0.0340 -0.3581
  314MOL0     H42353   3.269   8.567   8.462 -0.3024  2.1186  0.2518
  314MOL0     H42354   2.936   8.345   8.775 -1.8273  1.2958  1.0765
  314MOL0     H42355   2.702   8.347   8.787 -2.3243  3.1035 -0.2251
  314MOL0     H42356   2.427   8.268   8.686 -0.5240  0.3503 -1.3053
  314MOL0     H42357   2.494   8.416   8.774 -3.6573 -0.0256  2.9931
  314MOL0     H42358   2.251   8.447   8.759  0.1482 -2.4471 -0.6303
  314MOL0     H42359   2.347   8.565   8.669 -0.0081  0.6239  2.6680
  314MOL0     H42360   2.177   8.340   8.561  3.3380 -2.9520  0.7877
  314MOL0     H42361   2.304   8.400   8.458 -0.7122  0.8396 -0.9019
  314MOL0     H42362   2.102   8.581   8.598 -1.7330  0.0285 -0.2106
  314MOL0     H42363   2.230   8.631   8.491  2.6830 -3.3410  1.1082
  314MOL0     H42364   2.117   8.488   8.301 -0.6750  1.0948 -0.3832
  314MOL0     H42365   2.017   8.623   8.355 -0.3734 -0.9862 -2.1085
  314MOL0     H42366   1.981   8.336   8.460  2.9138  0.0007 -2.3896
  314MOL0     H42367   1.916   8.477   8.530  2.4004  1.1607  0.4506
  314MOL0     H42368   1.761   8.362   8.349 -1.0684  2.6055 -1.4238
  314MOL0     H42369   1.889   8.386   8.227  1.3598 -0.6156  0.5501
  314MOL0     H42370   1.734   8.553   8.168 -0.0261  4.7232 -0.5515
  314MOL0     H42371   1.850   8.640   8.249 -0.8837  0.2411 -3.0608
  314MOL0     H42372   2.681   8.420   8.361 -0.9405 -2.3323  0.5854
  314MOL0     H42373   2.916   8.409   8.352  3.7323  0.6966  1.1522
  314MOL0     H42374   3.316   8.094   8.631 -0.6937  0.9396  2.2489
  314MOL0     H42375   3.570   8.081   8.623 -1.4383 -0.0929  1.5224
  314MOL0     H42376   4.679   8.690   8.751  1.8278  2.4767  0.9104
  314MOL0     H42377   4.626   8.877   8.636 -1.1378  0.8984 -0.3326
  314MOL0     H42378   4.224   9.231   8.702 -0.6326 -0.0921 -0.8266
  314MOL0     H42379   4.137   9.459   8.641  1.1906  3.5818 -0.5700
  314MOL0     H42380   4.138   9.741   8.296 -2.5126 -0.2504 -0.5800
  314MOL0     H42381   4.258   9.632   8.240 -0.5511 -2.1880 -1.5521
  314MOL0     H42382   4.071   9.448   8.204 -2.8361  0.2655 -2.5000
  314MOL0     H42383   4.070   9.603   8.120  0.2648  0.1200  0.3037
  314MOL0     H42384   3.916   9.638   8.366  3.1513  1.0783 -0.9242
  314MOL0     H42385   3.890   9.466   8.309 -5.4964  1.6485  1.0460
  314MOL0     H42386   3.793   9.546   8.109 -2.7348  0.9800 -0.1544
  314MOL0     H42387   3.830   9.710   8.167  5.2607  0.3119  4.4060
  314MOL0     H42388   3.461   9.615   8.359  0.2874  0.6972  0.8341
  314MOL0     H42389   4.339   9.451   8.277 -0.7901 -1.3962 -0.5605
  314MOL0     H42390   4.453   9.239   8.340 -1.1281 -0.8487 -1.3487
  315MOL0     O42391   0.335   9.240   5.257  0.5659 -0.3841  0.4807
  315MOL0     C42392   0.432   9.228   5.329  0.2218  1.1866  0.5194
  315MOL0     O42393   0.435   9.189   5.466 -0.1846  0.4268 -0.0784
  315MOL0     C42394   0.318   9.205   5.535 -0.1427  0.3488 -0.2016
  315MOL0     C42395   0.205   9.284   5.511 -0.8035 -0.6962  0.4960
  315MOL0     C42396   0.085   9.260   5.577 -0.3957 -0.3954 -0.6394
  315MOL0     C42397   0.067   9.167   5.677  0.6973  0.6478 -0.5888
  315MOL0     O42398  -0.049   9.120   5.734 -0.3946 -0.3583  0.4873
  315MOL0     C42399  -0.158   9.211   5.730 -0.3293 -0.4571  0.5023
  315MOL0     C42400  -0.239   9.178   5.606  0.2254 -0.8316  0.6425
  315MOL0     C42401  -0.390   9.193   5.604 -0.4673  0.3718 -0.7758
  315MOL0     C42402  -0.465   9.098   5.710 -0.2683 -1.1921  0.2490
  315MOL0     C42403  -0.613   9.098   5.670 -0.4623  0.2789 -0.1812
  315MOL0     C42404  -0.699   9.009   5.761 -0.6931 -0.0211  0.4405
  315MOL0     C42405  -0.659   8.860   5.781 -0.0726  0.0632  0.7324
  315MOL0     C42406  -0.762   8.800   5.881  0.0762  0.3121 -0.4488
  315MOL0     N42407  -0.909   8.796   5.844  0.3055  0.1031 -0.6343
  315MOL0     C42408  -0.964   8.712   5.748  0.5906  1.0332 -0.3274
  315MOL0     C42409  -1.094   8.699   5.782 -0.0220  0.5327  0.6097
  315MOL0     C42410  -1.202   8.624   5.709  0.0669 -0.3907  0.1678
  315MOL0     C42411  -1.177   8.472   5.708  0.0956  0.4210  0.5418
  315MOL0     C42412  -1.296   8.400   5.634 -0.2010  1.0684  0.1317
  315MOL0     C42413  -1.262   8.250   5.638  0.0377  0.4345  0.1828
  315MOL0     O42414  -1.334   8.177   5.533  0.2656  0.0355 -0.1423
  315MOL0     C42415  -1.314   8.192   5.401  0.3495  0.2518  0.0239
  315MOL0     C42416  -1.228   8.274   5.331 -0.2595  0.1276 -0.1789
  315MOL0     C42417  -1.211   8.267   5.195 -0.6293 -0.2424  0.3533
  315MOL0     C42418  -1.113   8.362   5.136 -0.7248  0.2984 -0.3941
  315MOL0     C42419  -1.270   8.169   5.117  0.1633 -0.5446  0.3871
  315MOL0     C42420  -1.225   8.132   4.978  0.0441 -0.4553 -0.4405
  315MOL0     O42421  -1.298   8.038   4.915 -0.1053  0.1171  0.6486
  315MOL0     C42422  -1.264   8.008   4.785 -0.1414 -0.2101 -0.7269
  315MOL0     C42423  -1.223   7.876   4.760 -0.1082 -0.4136 -0.9707
  315MOL0     C42424  -1.198   7.839   4.629 -0.0821  0.2106  0.6745
  315MOL0     C42425  -1.227   7.923   4.522 -0.8902  0.0418 -0.3233
  315MOL0     O42426  -1.199   7.892   4.387 -0.7091 -0.0379  0.4130
  315MOL0     C42427  -1.284   7.907   4.273  1.3312  0.1571  0.2703
  315MOL0     C42428  -1.268   7.809   4.155  0.3233 -0.6358 -0.8220
  315MOL0     C42429  -1.239   7.877   4.018 -0.2931  0.1819  0.7200
  315MOL0     C42430  -1.225   7.774   3.904  0.6355  0.7374 -0.2670
  315MOL0     C42431  -1.227   7.837   3.773  0.4605  0.3428  0.4649
  315MOL0     C42432  -1.156   7.750   3.664  0.0924 -0.1183 -1.0565
  315MOL0     C42433  -1.237   7.623   3.643  1.1668 -0.1988 -0.4038
  315MOL0     C42434  -1.179   7.527   3.545  0.1336 -0.1223  0.8687
  315MOL0    Cl42435  -1.041   7.454   3.616  0.1802 -0.5290  0.1347
  315MOL0     C42436  -1.269   8.053   4.560 -0.1516 -0.7705  0.5386
  315MOL0     C42437  -1.299   8.099   4.688 -0.3972  0.3996  0.1515
  315MOL0     O42438  -1.112   8.160   4.946 -0.5321 -0.3017  0.6493
  315MOL0     C42439  -1.377   8.105   5.179 -0.0438 -0.5549 -0.5133
  315MOL0     C42440  -1.395   8.109   5.322 -0.5155 -0.4947  0.1823
  315MOL0     N42441  -1.121   8.778   5.892  0.6793 -0.9876 -0.0983
  315MOL0     N42442  -1.011   8.832   5.931  0.2617  0.5294  0.0186
  315MOL0     C42443   0.185   9.092   5.704 -0.0318  1.4449  0.4682
  315MOL0     C42444   0.308   9.113   5.638  0.3300 -0.4628 -0.1217
  315MOL0     C42445   0.558   9.185   5.257  0.3104  0.6707  0.2541
  315MOL0     C42446   0.561   9.192   5.113  0.9794 -0.5938  0.1067
  315MOL0     C42447   0.670   9.148   5.039  0.3128 -0.0294 -0.1154
  315MOL0     C42448   0.768   9.077   5.106  0.7632 -0.2241 -0.4265
  315MOL0     O42449   0.871   9.030   5.033  0.0873  0.5676 -0.3838
  315MOL0     C42450   0.943   8.926   5.102  0.6281 -0.2233  0.1765
  315MOL0     C42451   1.016   8.840   4.998  0.5530  0.0063  0.1963
  315MOL0     C42452   1.078   8.923   4.880 -0.6066  0.1638 -0.6022
  315MOL0     C42453   1.199   8.842   4.822  0.2849  0.0102  0.0344
  315MOL0     C42454   1.253   8.924   4.711  0.7404 -0.0148  0.2858
  315MOL0     C42455   1.295   9.006   4.625  0.0351  0.8084 -0.8238
  315MOL0     C42456   0.764   9.089   5.246 -0.6708  0.0298 -0.2290
  315MOL0     C42457   0.673   9.143   5.324  0.0181  0.2069 -0.1231
  315MOL0     H42458   0.209   9.355   5.429 -1.7960 -2.1836 -0.9130
  315MOL0     H42459   0.002   9.328   5.562  1.2194  1.6442 -0.6808
  315MOL0     H42460  -0.212   9.196   5.824 -0.0459  4.6803  1.7836
  315MOL0     H42461  -0.129   9.314   5.750  0.3992 -1.1176  3.1988
  315MOL0     H42462  -0.209   9.249   5.528 -1.7526  0.7865  1.2335
  315MOL0     H42463  -0.229   9.072   5.580 -1.9762 -0.6477 -1.4366
  315MOL0     H42464  -0.414   9.299   5.618 -2.4047 -0.0519 -0.7070
  315MOL0     H42465  -0.423   9.168   5.503 -0.0906  0.4958 -0.9325
  315MOL0     H42466  -0.411   9.003   5.706 -0.5373 -1.3155 -0.7827
  315MOL0     H42467  -0.459   9.138   5.812 -1.5812  1.9817 -0.7773
  315MOL0     H42468  -0.659   9.198   5.675 -0.0768  0.4915 -0.7846
  315MOL0     H42469  -0.616   9.074   5.563  0.4787 -0.1371 -0.1212
  315MOL0     H42470  -0.701   9.065   5.855  3.2437  3.6159 -1.3127
  315MOL0     H42471  -0.798   9.017   5.715 -1.0707 -1.9069  0.8485
  315MOL0     H42472  -0.670   8.801   5.690 -2.7858  1.2796  0.1650
  315MOL0     H42473  -0.555   8.859   5.818  0.3399 -0.6315 -0.4220
  315MOL0     H42474  -0.764   8.861   5.972 -1.0716  1.4221 -1.1813
  315MOL0     H42475  -0.725   8.701   5.908 -1.2696  0.2473  1.2422
  315MOL0     H42476  -0.905   8.653   5.678 -0.7833 -0.9835  0.1602
  315MOL0     H42477  -1.297   8.636   5.763  1.5669  1.2079  2.6717
  315MOL0     H42478  -1.213   8.663   5.608 -2.2205  1.8988  1.1920
  315MOL0     H42479  -1.157   8.433   5.808 -0.9290 -2.8280 -0.4184
  315MOL0     H42480  -1.090   8.462   5.642 -1.3573 -1.1586 -1.2496
  315MOL0     H42481  -1.311   8.441   5.534 -1.0757  2.2458  0.7157
  315MOL0     H42482  -1.396   8.407   5.678  0.0575  3.5519  0.5031
  315MOL0     H42483  -1.297   8.198   5.728  1.1707 -1.4062 -0.3633
  315MOL0     H42484  -1.156   8.227   5.622  0.0255  0.7309 -0.3248
  315MOL0     H42485  -1.167   8.333   5.399  1.4192  1.7472 -2.9263
  315MOL0     H42486  -1.151   8.406   5.043 -0.8705  1.4623  0.2053
  315MOL0     H42487  -1.103   8.443   5.209  1.8017 -0.9474  0.7797
  315MOL0     H42488  -1.008   8.332   5.131 -0.8902 -0.8956  1.8788
  315MOL0     H42489  -1.196   7.813   4.845  2.6557  3.2094  1.1446
  315MOL0     H42490  -1.159   7.741   4.601  3.2966  2.2709 -2.7500
  315MOL0     H42491  -1.386   7.897   4.311  2.2130  0.0793  2.7898
  315MOL0     H42492  -1.268   8.009   4.237  1.3421 -0.4665 -1.5923
  315MOL0     H42493  -1.188   7.738   4.181 -1.1055 -1.9397  0.1786
  315MOL0     H42494  -1.361   7.754   4.145  0.0957 -0.1908 -1.1861
  315MOL0     H42495  -1.145   7.930   4.037 -0.4194  0.3718  0.8154
  315MOL0     H42496  -1.308   7.959   3.999  2.8614  2.4508 -2.4047
  315MOL0     H42497  -1.123   7.740   3.923  0.4981  0.7110  0.4596
  315MOL0     H42498  -1.294   7.690   3.913  0.2168  0.7306 -2.9763
  315MOL0     H42499  -1.168   7.929   3.772  0.9311  0.0472  0.0661
  315MOL0     H42500  -1.325   7.866   3.733  0.4597 -0.0225  0.1968
  315MOL0     H42501  -1.155   7.810   3.573  0.5543 -0.3420 -1.2010
  315MOL0     H42502  -1.061   7.720   3.709  0.4351  0.3827 -1.4346
  315MOL0     H42503  -1.334   7.650   3.600  2.0129  2.9088 -0.6051
  315MOL0     H42504  -1.249   7.570   3.738  2.3767 -0.8465 -0.5957
  315MOL0     H42505  -1.158   7.585   3.454  0.7060  0.9279  1.6417
  315MOL0     H42506  -1.256   7.451   3.528 -0.5265  0.7646 -0.2834
  315MOL0     H42507  -1.282   8.131   4.486  0.7832 -1.0131  0.1103
  315MOL0     H42508  -1.334   8.198   4.712 -0.4201  0.4332 -0.0191
  315MOL0     H42509  -1.441   8.036   5.126 -0.2201 -0.4303 -0.4637
  315MOL0     H42510  -1.467   8.039   5.364 -0.2449  0.4107  2.2685
  315MOL0     H42511   0.162   9.019   5.781 -1.6735  0.8816 -0.4959
  315MOL0     H42512   0.398   9.059   5.665 -0.1451 -0.6607  1.1273
  315MOL0     H42513   0.483   9.241   5.054  1.7632  0.5908  0.0159
  315MOL0     H42514   0.688   9.170   4.935 -0.6825  1.1729 -0.0577
  315MOL0     H42515   1.026   8.966   5.161  2.9065 -1.6455 -1.8758
  315MOL0     H42516   0.882   8.865   5.170  2.3830  0.2419  2.2855
  315MOL0     H42517   0.960   8.757   4.954  3.9262 -2.8754  0.8179
  315MOL0     H42518   1.098   8.791   5.052 -0.7840 -0.7013  1.6436
  315MOL0     H42519   1.108   9.020   4.922  1.1266 -1.3161  1.7836
  315MOL0     H42520   1.001   8.939   4.803 -3.7766  0.5324  2.3664
  315MOL0     H42521   1.171   8.746   4.777  3.6610  0.5573 -3.7916
  315MOL0     H42522   1.274   8.822   4.898 -0.3658  0.0465  0.7048
  315MOL0     H42523   1.336   9.074   4.553  0.9107 -0.1092 -1.2123
  315MOL0     H42524   0.858   9.064   5.294 -1.1437 -1.3319  0.0320
  315MOL0     H42525   0.680   9.130   5.431  0.2308  0.2292 -0.1345
  316MOL0     O42526   3.557   8.513   2.465 -0.0442 -0.2313  0.1795
  316MOL0     C42527   3.621   8.537   2.364 -0.5268  0.3596 -0.8314
  316MOL0     O42528   3.574   8.526   2.235 -0.6476  0.3231 -0.2070
  316MOL0     C42529   3.452   8.477   2.212  1.1157 -0.6250 -0.2055
  316MOL0     C42530   3.445   8.361   2.137 -0.6204 -0.0642 -0.2317
  316MOL0     C42531   3.321   8.322   2.096  0.7181  0.9811 -0.9695
  316MOL0     C42532   3.204   8.388   2.131  0.1085 -0.1922 -0.2422
  316MOL0     O42533   3.092   8.335   2.080 -0.4944 -0.2683  0.5860
  316MOL0     C42534   2.967   8.404   2.078  0.4468  0.8746 -0.5715
  316MOL0     C42535   2.882   8.335   1.972  0.1728 -0.0633  0.0501
  316MOL0     C42536   2.740   8.391   1.969  0.2398  0.4743  0.6154
  316MOL0     C42537   2.646   8.299   1.884 -0.1763 -0.1510 -0.2466
  316MOL0     C42538   2.495   8.316   1.916 -0.0173 -0.4095 -0.5013
  316MOL0     C42539   2.410   8.239   1.816 -0.0949 -0.5249  0.0635
  316MOL0     C42540   2.281   8.288   1.783 -0.1255  0.5338 -0.0399
  316MOL0     C42541   2.178   8.260   1.891  0.1718 -0.0716 -0.0270
  316MOL0     N42542   2.041   8.286   1.856  0.5424  1.0580  0.1520
  316MOL0     C42543   1.938   8.203   1.825  0.2768 -0.1837 -0.0395
  316MOL0     C42544   1.831   8.292   1.793  0.1636  0.2826  0.0295
  316MOL0     C42545   1.704   8.256   1.732 -0.0470  0.3803 -0.4269
  316MOL0     C42546   1.594   8.365   1.750 -0.0276  0.4029 -0.8856
  316MOL0     C42547   1.457   8.335   1.713  0.4613  0.3363 -0.2191
  316MOL0     C42548   1.372   8.249   1.822  0.3616  0.4475  0.1839
  316MOL0     O42549   1.232   8.256   1.786  0.8748  0.9785 -0.3885
  316MOL0     C42550   1.146   8.335   1.848 -0.0799 -1.0392 -0.1365
  316MOL0     C42551   1.013   8.317   1.816  0.1622 -0.0967 -0.1250
  316MOL0     C42552   0.910   8.384   1.881 -0.1783  1.1470  0.0131
  316MOL0     C42553   0.764   8.344   1.856 -0.1343 -0.5424  0.6809
  316MOL0     C42554   0.933   8.487   1.970  0.5238 -0.2746 -0.5892
  316MOL0     C42555   0.837   8.592   2.016  1.1596 -0.1248  0.1316
  316MOL0     O42556   0.888   8.704   2.084 -0.1638 -0.3501 -0.0525
  316MOL0     C42557   0.810   8.797   2.139  1.2543 -0.9873 -0.8885
  316MOL0     C42558   0.719   8.771   2.241 -0.9124  0.2378  0.4782
  316MOL0     C42559   0.648   8.875   2.303  2.0792  0.0741  0.1456
  316MOL0     C42560   0.655   9.006   2.265 -0.6558  0.1782  0.6880
  316MOL0     O42561   0.588   9.112   2.313 -0.3462 -0.2674  0.3161
  316MOL0     C42562   0.485   9.091   2.406 -0.2590 -0.1359 -0.1432
  316MOL0     C42563   0.451   9.226   2.465 -0.6949 -0.7763 -0.2027
  316MOL0     C42564   0.307   9.224   2.515 -0.8704  0.8278  0.3818
  316MOL0     C42565   0.257   9.348   2.589 -0.4749  0.0269  0.3300
  316MOL0     C42566   0.217   9.307   2.738  0.0893 -0.0162  0.3375
  316MOL0     C42567   0.350   9.276   2.817 -0.1190 -0.8498  0.4052
  316MOL0     C42568   0.312   9.224   2.954 -0.4975  0.1634  0.1910
  316MOL0     C42569   0.424   9.189   3.054 -0.1348 -0.6767  0.3572
  316MOL0    Cl42570   0.468   9.324   3.150 -0.0155  0.2169  0.3267
  316MOL0     C42571   0.738   9.029   2.156  0.2444 -0.7073 -0.0993
  316MOL0     C42572   0.814   8.929   2.094 -0.2539 -0.3038  0.4535
  316MOL0     O42573   0.718   8.578   1.988 -0.2058  0.2065 -0.1881
  316MOL0     C42574   1.071   8.508   2.004  0.3550  0.4087  0.5561
  316MOL0     C42575   1.174   8.438   1.944 -0.6023  0.0453  1.2227
  316MOL0     N42576   1.871   8.417   1.842  0.4240  0.0684 -0.5929
  316MOL0     N42577   1.986   8.410   1.879  0.0486 -0.2607 -0.1596
  316MOL0     C42578   3.214   8.500   2.217 -0.3662  0.1333  0.4890
  316MOL0     C42579   3.338   8.541   2.262 -0.2369 -0.3582  0.9680
  316MOL0     C42580   3.761   8.590   2.372  0.3464  0.5707  0.2193
  316MOL0     C42581   3.786   8.680   2.476  0.5486  0.4236  0.3696
  316MOL0     C42582   3.903   8.763   2.478 -0.2840  0.0628 -0.1940
  316MOL0     C42583   4.003   8.745   2.381 -0.4428 -0.4673  0.7705
  316MOL0     O42584   4.115   8.827   2.356 -0.3465  0.6620  0.2728
  316MOL0     C42585   4.131   8.944   2.439  0.1120 -0.9716  0.1019
  316MOL0     C42586   4.254   9.024   2.389  0.3751  0.8588 -0.3024
  316MOL0     C42587   4.386   8.948   2.385  0.8815 -0.0065 -0.5525
  316MOL0     C42588   4.509   9.041   2.373  0.7991 -0.6028  1.1057
  316MOL0     C42589   4.527   9.105   2.248  0.4026  0.2141 -0.2112
  316MOL0     C42590   4.542   9.164   2.145  1.2088  0.4774 -0.1033
  316MOL0     C42591   3.985   8.648   2.287 -0.1663  0.1592  0.4372
  316MOL0     C42592   3.866   8.570   2.280  0.0481  0.1327  0.0520
  316MOL0     H42593   3.533   8.321   2.088 -0.2125 -0.6493  0.9345
  316MOL0     H42594   3.302   8.236   2.032 -3.1624  0.9405 -0.0170
  316MOL0     H42595   2.911   8.391   2.172 -4.2113  2.5741 -2.8097
  316MOL0     H42596   2.974   8.510   2.054  0.8798  0.8374 -0.6170
  316MOL0     H42597   2.929   8.346   1.873  0.7041 -0.4226  0.2570
  316MOL0     H42598   2.890   8.227   1.988  1.4162 -0.5152 -2.9080
  316MOL0     H42599   2.692   8.387   2.067 -1.5807  0.4454 -0.2384
  316MOL0     H42600   2.747   8.487   1.917 -0.9882 -0.5559 -1.6167
  316MOL0     H42601   2.657   8.326   1.778 -0.8196  2.4990  0.3005
  316MOL0     H42602   2.671   8.193   1.897 -1.2017 -0.6738 -2.1757
  316MOL0     H42603   2.470   8.297   2.021 -4.4494  1.7642 -0.8995
  316MOL0     H42604   2.467   8.421   1.903 -0.7357 -0.5807 -0.3991
  316MOL0     H42605   2.452   8.236   1.715 -0.2173  0.7738 -0.0335
  316MOL0     H42606   2.399   8.135   1.850  0.3952 -0.1687  1.3803
  316MOL0     H42607   2.295   8.394   1.757 -1.3196  0.8202  0.4434
  316MOL0     H42608   2.251   8.249   1.686  3.4886  0.7831 -1.4269
  316MOL0     H42609   2.203   8.339   1.963 -0.0050  0.1633 -0.2204
  316MOL0     H42610   2.182   8.163   1.940  1.0761 -0.3277 -0.5979
  316MOL0     H42611   1.947   8.096   1.809 -1.4124 -0.0232 -2.7762
  316MOL0     H42612   1.719   8.240   1.625  2.3319  1.4595 -0.3054
  316MOL0     H42613   1.670   8.168   1.787  0.6436  0.0309 -0.5492
  316MOL0     H42614   1.639   8.451   1.700  0.8875  0.8444  0.6462
  316MOL0     H42615   1.584   8.385   1.857 -2.8870 -1.4530 -0.6909
  316MOL0     H42616   1.454   8.291   1.612  1.0566 -1.4666  0.4955
  316MOL0     H42617   1.408   8.432   1.713  0.2529  0.2648  1.7959
  316MOL0     H42618   1.386   8.288   1.923  0.3345  0.4381  0.1913
  316MOL0     H42619   1.422   8.152   1.823  0.8817  0.7068  0.0920
  316MOL0     H42620   0.983   8.230   1.759  0.1244 -0.3264  0.2454
  316MOL0     H42621   0.766   8.248   1.804  1.8056  0.2662 -0.8839
  316MOL0     H42622   0.703   8.351   1.947  0.4008  1.3706  0.9406
  316MOL0     H42623   0.726   8.424   1.791 -1.5085 -1.4102  0.3646
  316MOL0     H42624   0.706   8.667   2.268  0.8204  0.2798  1.6519
  316MOL0     H42625   0.561   8.852   2.363 -0.1130  3.3999 -1.4479
  316MOL0     H42626   0.397   9.055   2.352  1.1554 -1.1988 -1.8578
  316MOL0     H42627   0.505   9.016   2.483  0.0571  2.7335  2.8211
  316MOL0     H42628   0.528   9.250   2.540  1.0350 -2.9558 -1.1488
  316MOL0     H42629   0.462   9.303   2.389 -1.3657 -0.3822  0.0927
  316MOL0     H42630   0.296   9.132   2.573  2.7784 -2.3324 -3.3442
  316MOL0     H42631   0.243   9.219   2.426 -0.4138  1.2046  0.0243
  316MOL0     H42632   0.329   9.431   2.588  1.9117 -1.8912  1.7174
  316MOL0     H42633   0.162   9.384   2.548 -1.2651 -2.4177 -0.1658
  316MOL0     H42634   0.163   9.212   2.733 -1.4315  0.7917  0.8323
  316MOL0     H42635   0.164   9.389   2.787  0.5049  0.0673  0.6595
  316MOL0     H42636   0.418   9.200   2.776  1.9934  0.3697  1.4547
  316MOL0     H42637   0.410   9.367   2.830 -3.1189  1.0053  2.3073
  316MOL0     H42638   0.251   9.133   2.942 -0.5390 -0.7025  5.0727
  316MOL0     H42639   0.241   9.291   3.003 -0.9815 -0.4099  0.2966
  316MOL0     H42640   0.510   9.173   2.989 -0.0194  1.2064 -0.0258
  316MOL0     H42641   0.395   9.103   3.114  0.0518  0.3223  1.9566
  316MOL0     H42642   0.754   9.127   2.111 -2.1003 -0.1171  0.1942
  316MOL0     H42643   0.888   8.947   2.017  1.5378 -2.0108  1.6846
  316MOL0     H42644   1.101   8.582   2.078 -2.9947  0.2199  2.3180
  316MOL0     H42645   1.277   8.457   1.971 -0.4942  2.5999 -0.6437
  316MOL0     H42646   3.124   8.555   2.242 -1.1907 -0.7068 -0.5123
  316MOL0     H42647   3.357   8.638   2.308 -0.2763 -0.3185  0.9012
  316MOL0     H42648   3.703   8.709   2.539  0.5779  1.4133 -0.0232
  316MOL0     H42649   3.914   8.851   2.540  1.8116  1.2188 -2.1068
  316MOL0     H42650   4.043   9.006   2.423  2.0131  1.4445 -1.7391
  316MOL0     H42651   4.135   8.923   2.546 -1.3036 -1.1740  0.1420
  316MOL0     H42652   4.260   9.106   2.461  3.1952  0.1889  0.3730
  316MOL0     H42653   4.231   9.076   2.295  0.2549  2.1783  0.4355
  316MOL0     H42654   4.388   8.876   2.303 -0.2111  0.1399 -0.7168
  316MOL0     H42655   4.402   8.892   2.477  1.0209  0.5636 -0.2285
  316MOL0     H42656   4.597   8.982   2.398  1.1215 -0.2758  0.7590
  316MOL0     H42657   4.519   9.121   2.447 -0.7919 -0.6436  1.3969
  316MOL0     H42658   4.567   9.221   2.057 -2.4500  1.2560 -0.7783
  316MOL0     H42659   4.051   8.642   2.201 -1.4161  0.6939 -0.6002
  316MOL0     H42660   3.853   8.499   2.199 -3.2686 -0.9441  1.3650
  317MOL0     O42661   1.556   9.443   5.367 -0.0732  0.1594  0.4145
  317MOL0     C42662   1.608   9.548   5.339  0.0909 -0.7529  0.7573
  317MOL0     O42663   1.534   9.672   5.328 -0.2784 -0.1428 -0.5872
  317MOL0     C42664   1.417   9.656   5.404 -0.5948 -0.6418  0.2445
  317MOL0     C42665   1.290   9.646   5.348 -0.1169  0.9982  0.7689
  317MOL0     C42666   1.170   9.651   5.426  0.0445  0.3414 -0.5653
  317MOL0     C42667   1.181   9.655   5.576  0.8632 -0.2387  0.4947
  317MOL0     O42668   1.073   9.683   5.665  0.4807  0.9105  0.3353
  317MOL0     C42669   0.950   9.713   5.613 -0.0353  0.0691 -0.9493
  317MOL0     C42670   0.880   9.789   5.731  0.1837  0.7497  0.4383
  317MOL0     C42671   0.722   9.785   5.710 -0.5142  0.2900  0.7582
  317MOL0     C42672   0.645   9.904   5.783 -0.2394 -0.2930  0.4716
  317MOL0     C42673   0.495   9.896   5.746 -0.3315 -0.6179  0.2050
  317MOL0     C42674   0.411  10.012   5.788  0.7086 -0.5462  0.3867
  317MOL0     C42675   0.259   9.980   5.765  0.5709  0.0605 -0.6620
  317MOL0     C42676   0.155  10.025   5.874 -0.7528  0.7188 -0.3127
  317MOL0     N42677   0.022  10.000   5.818  0.2704 -0.9840 -0.1965
  317MOL0     C42678  -0.026  10.068   5.708 -0.5090 -0.0767  0.2314
  317MOL0     C42679  -0.155  10.013   5.695  0.7828 -0.7805 -0.9719
  317MOL0     C42680  -0.250  10.073   5.594  0.4376 -0.4199  0.0976
  317MOL0     C42681  -0.404  10.057   5.629 -0.3710 -0.1856  0.0559
  317MOL0     C42682  -0.502  10.106   5.509  0.4188 -0.8324 -0.2980
  317MOL0     C42683  -0.647  10.115   5.562 -1.0020 -1.0753 -0.2220
  317MOL0     O42684  -0.697   9.989   5.580 -0.0911 -0.6594 -0.0552
  317MOL0     C42685  -0.807   9.975   5.665  0.0403  0.0600  0.4596
  317MOL0     C42686  -0.811   9.848   5.725  0.2923 -0.1544  0.0287
  317MOL0     C42687  -0.897   9.819   5.832 -0.0918  0.1154 -0.3900
  317MOL0     C42688  -0.892   9.672   5.872  0.9433  0.3913  0.2570
  317MOL0     C42689  -0.997   9.914   5.866 -0.1742 -0.2785 -0.5591
  317MOL0     C42690  -1.118   9.882   5.956  0.5660 -0.3870  1.3062
  317MOL0     O42691  -1.186   9.980   6.011  0.3167 -0.7470 -0.2625
  317MOL0     C42692  -1.274   9.961   6.125 -0.6251 -0.3472  0.2114
  317MOL0     C42693  -1.255   9.878   6.238 -0.2782  0.7111 -0.3355
  317MOL0     C42694  -1.349   9.887   6.347 -0.8677 -0.1998 -0.0748
  317MOL0     C42695  -1.466   9.967   6.337  0.2389  0.4865 -0.2386
  317MOL0     O42696  -1.573   9.970   6.416 -0.2220 -0.0970  0.3976
  317MOL0     C42697  -1.617   9.840   6.461  0.7081 -0.4512 -0.0150
  317MOL0     C42698  -1.762   9.855   6.483  0.2313 -0.2604  0.0195
  317MOL0     C42699  -1.794   9.977   6.584 -0.2895  0.0108 -0.0723
  317MOL0     C42700  -1.939   9.973   6.637  0.1666 -0.0541  0.1273
  317MOL0     C42701  -2.043  10.001   6.527  0.5744  0.4820  0.1379
  317MOL0     C42702  -2.189   9.964   6.560 -0.6394 -0.9229 -0.6441
  317MOL0     C42703  -2.243  10.043   6.679  0.3776  0.1612  0.4313
  317MOL0     C42704  -2.387  10.047   6.682 -0.2752 -0.9548  1.1549
  317MOL0    Cl42705  -2.457  10.154   6.545  0.0251 -0.2933  0.0174
  317MOL0     C42706  -1.473  10.055   6.239  0.1422  0.1397 -0.6850
  317MOL0     C42707  -1.373  10.057   6.139 -0.0115  0.6431 -0.0313
  317MOL0     O42708  -1.140   9.764   5.977  0.4087  0.3444  0.0846
  317MOL0     C42709  -0.993  10.043   5.808 -0.3001  1.2638  0.5477
  317MOL0     C42710  -0.897  10.071   5.707 -0.0731 -0.0476 -0.2544
  317MOL0     N42711  -0.179   9.939   5.810  0.1424 -0.1936  0.0613
  317MOL0     N42712  -0.075   9.928   5.888 -0.2364  0.2666 -0.4475
  317MOL0     C42713   1.308   9.655   5.624 -0.1465 -0.1221 -0.1588
  317MOL0     C42714   1.428   9.662   5.541  0.8710  0.0619  0.2023
  317MOL0     C42715   1.748   9.544   5.288 -0.0670 -0.0740  0.6287
  317MOL0     C42716   1.818   9.421   5.283 -0.9343  0.5188 -0.4433
  317MOL0     C42717   1.943   9.406   5.239  0.8868  0.0192 -0.8737
  317MOL0     C42718   2.010   9.522   5.200 -1.1626  0.0244 -0.4605
  317MOL0     O42719   2.135   9.530   5.139  0.2821  0.4403  0.3102
  317MOL0     C42720   2.200   9.400   5.117 -0.2781  0.4314  0.0596
  317MOL0     C42721   2.324   9.417   5.040 -0.3104 -0.3318  0.6080
  317MOL0     C42722   2.359   9.303   4.962 -0.3028 -1.2400 -0.3708
  317MOL0     C42723   2.507   9.303   4.925  0.3031 -0.6922  0.9270
  317MOL0     C42724   2.549   9.189   4.842  0.2040 -0.7453 -0.2815
  317MOL0     C42725   2.561   9.086   4.784 -0.2452 -0.0863 -0.2489
  317MOL0     C42726   1.938   9.643   5.198 -0.4532  0.1077  1.3634
  317MOL0     C42727   1.812   9.664   5.240  0.0712 -0.1574 -0.2864
  317MOL0     H42728   1.281   9.651   5.240  2.8915  0.5352  0.4126
  317MOL0     H42729   1.080   9.642   5.367 -0.2463 -0.7105  0.0217
  317MOL0     H42730   0.946   9.772   5.521 -0.3864 -0.5277 -1.3235
  317MOL0     H42731   0.896   9.620   5.594 -0.0380 -0.2082  0.3443
  317MOL0     H42732   0.907   9.738   5.824 -2.1813  0.2002  0.8770
  317MOL0     H42733   0.901   9.897   5.731  0.6314  0.6677 -0.0109
  317MOL0     H42734   0.712   9.805   5.603 -1.6746 -2.0939  0.3569
  317MOL0     H42735   0.673   9.690   5.731  1.5146 -2.0941 -3.8242
  317MOL0     H42736   0.671   9.897   5.889 -0.7576 -3.3824  0.5053
  317MOL0     H42737   0.677  10.003   5.749  1.8999 -1.0697  0.0814
  317MOL0     H42738   0.492   9.889   5.637 -1.1404 -2.5950  0.3068
  317MOL0     H42739   0.463   9.804   5.796  3.6567 -3.6566 -2.1443
  317MOL0     H42740   0.416  10.041   5.894  2.4810  0.5827  0.0408
  317MOL0     H42741   0.445  10.092   5.721  1.8698  1.2321  2.9096
  317MOL0     H42742   0.241  10.019   5.665 -0.1965 -0.8620 -0.8996
  317MOL0     H42743   0.244   9.872   5.755 -1.5994 -0.2854  4.0368
  317MOL0     H42744   0.163  10.129   5.905 -0.9529  0.4784  0.5744
  317MOL0     H42745   0.168   9.958   5.960  0.8824 -0.8049 -1.6660
  317MOL0     H42746   0.020  10.155   5.663 -4.4185  2.6403  0.9281
  317MOL0     H42747  -0.236  10.182   5.598 -1.1590 -0.2251  2.8777
  317MOL0     H42748  -0.234  10.027   5.496 -2.3867  2.5235 -1.9592
  317MOL0     H42749  -0.423  10.111   5.722  0.1124 -0.0827  0.0960
  317MOL0     H42750  -0.432   9.953   5.646 -0.6759  0.0754  1.2141
  317MOL0     H42751  -0.511  10.034   5.427 -2.1304 -0.5065 -0.3890
  317MOL0     H42752  -0.460  10.197   5.468  0.9246 -0.2198  1.4864
  317MOL0     H42753  -0.717  10.158   5.490  0.2241 -1.6104 -1.7934
  317MOL0     H42754  -0.643  10.173   5.655 -0.2325 -1.8971  0.2700
  317MOL0     H42755  -0.741   9.772   5.694 -2.2609 -2.1288 -1.3219
  317MOL0     H42756  -0.907   9.659   5.979  0.6114  1.8455  0.4051
  317MOL0     H42757  -0.983   9.633   5.824  1.0572  2.5542 -1.9272
  317MOL0     H42758  -0.810   9.610   5.835  0.0320 -1.0702  0.5926
  317MOL0     H42759  -1.168   9.814   6.247 -0.3000  0.4770 -1.5853
  317MOL0     H42760  -1.333   9.826   6.435 -0.5728  0.6185  0.4480
  317MOL0     H42761  -1.601   9.756   6.393 -1.8762  0.2148 -1.5689
  317MOL0     H42762  -1.562   9.813   6.552  1.3466  1.0977  0.1005
  317MOL0     H42763  -1.819   9.869   6.390  0.2519 -3.2231 -0.5389
  317MOL0     H42764  -1.790   9.756   6.520 -0.3447 -0.9914 -2.1912
  317MOL0     H42765  -1.779  10.071   6.529 -0.6046  2.0751  3.1200
  317MOL0     H42766  -1.730   9.968   6.671 -0.5542  0.5582  0.1872
  317MOL0     H42767  -1.951   9.873   6.680  2.0962  0.0902  1.1306
  317MOL0     H42768  -1.950  10.043   6.721  0.1353 -2.9509  2.7464
  317MOL0     H42769  -2.013   9.938   6.442  0.4846  0.4540  0.1261
  317MOL0     H42770  -2.023  10.099   6.483  4.0621 -0.5808 -0.9590
  317MOL0     H42771  -2.241   9.994   6.468 -0.2323  1.4881 -0.1675
  317MOL0     H42772  -2.207   9.857   6.575 -1.8582 -0.7700 -0.8648
  317MOL0     H42773  -2.191  10.139   6.674  0.0547  0.3282 -4.1729
  317MOL0     H42774  -2.213   9.975   6.760 -3.1535 -1.3817  0.6570
  317MOL0     H42775  -2.415  10.094   6.776  0.2066  1.1313  0.3179
  317MOL0     H42776  -2.427   9.945   6.673 -0.7111 -0.7294  0.3737
  317MOL0     H42777  -1.559  10.120   6.230 -0.6745 -0.6387  1.0726
  317MOL0     H42778  -1.375  10.144   6.074  2.0091  2.4497  2.1410
  317MOL0     H42779  -1.060  10.124   5.838  0.6379  1.8183  1.2190
  317MOL0     H42780  -0.903  10.169   5.659  0.3050  1.0947  1.9110
  317MOL0     H42781   1.320   9.673   5.730  1.9170  0.6133 -0.4717
  317MOL0     H42782   1.529   9.669   5.581  1.3377 -1.5289 -0.6647
  317MOL0     H42783   1.768   9.337   5.331 -0.8723  0.2314 -0.8782
  317MOL0     H42784   1.996   9.311   5.237  3.0912  1.1672 -0.7457
  317MOL0     H42785   2.216   9.350   5.213  1.4364  0.8819  0.0552
  317MOL0     H42786   2.128   9.338   5.063 -1.3761 -0.9042  2.8856
  317MOL0     H42787   2.396   9.438   5.120  1.0895  1.7830 -1.0813
  317MOL0     H42788   2.313   9.506   4.977 -2.5244  0.0411  1.3917
  317MOL0     H42789   2.295   9.311   4.874 -3.0818 -0.8845  1.5443
  317MOL0     H42790   2.332   9.207   5.007  1.7212 -2.0040 -0.6803
  317MOL0     H42791   2.573   9.308   5.012  0.4112 -0.9933  0.8630
  317MOL0     H42792   2.524   9.395   4.868 -2.1500 -3.3373 -4.8611
  317MOL0     H42793   2.574   8.999   4.723  2.3061 -0.0339  0.1315
  317MOL0     H42794   1.986   9.728   5.149 -1.3304  0.9232  1.8876
  317MOL0     H42795   1.760   9.759   5.232  0.3704  0.0885  0.6397
  318MOL0     O42796   0.771   5.236   7.771 -0.1834 -0.0204 -0.5063
  318MOL0     C42797   0.823   5.165   7.685  0.0438 -0.2580  1.4663
  318MOL0     O42798   0.767   5.056   7.629 -0.0912 -0.0247  0.4807
  318MOL0     C42799   0.634   5.030   7.636  0.4562 -0.6035  0.7249
  318MOL0     C42800   0.546   5.133   7.602  0.5441 -0.4442 -0.0282
  318MOL0     C42801   0.401   5.112   7.589  0.0247 -0.4951  0.0377
  318MOL0     C42802   0.350   4.981   7.607 -0.5203 -0.3485 -0.4088
  318MOL0     O42803   0.218   4.952   7.586  0.0425 -0.2528  0.8095
  318MOL0     C42804   0.176   4.990   7.456  0.2512 -0.3216 -0.8620
  318MOL0     C42805   0.057   5.078   7.486  1.0332 -0.1084 -0.2377
  318MOL0     C42806  -0.081   5.002   7.486  0.3564 -0.8548  0.2967
  318MOL0     C42807  -0.198   5.104   7.514  0.4961  0.3587 -0.2690
  318MOL0     C42808  -0.342   5.050   7.512  0.2796  1.1667  0.8909
  318MOL0     C42809  -0.389   5.024   7.363  0.5439  0.8030 -0.8395
  318MOL0     C42810  -0.537   4.993   7.350 -0.1115 -0.1151 -0.0684
  318MOL0     C42811  -0.543   4.959   7.199  0.4358  0.0175  0.1016
  318MOL0     N42812  -0.683   4.921   7.159 -0.0861  0.6129  0.9490
  318MOL0     C42813  -0.781   4.858   7.242 -0.3033  0.0807 -0.6753
  318MOL0     C42814  -0.882   4.835   7.158  0.4003 -0.9270  0.0937
  318MOL0     C42815  -1.015   4.767   7.200  0.3039  0.5848  0.5762
  318MOL0     C42816  -1.139   4.862   7.213  0.0582 -0.6790 -0.0510
  318MOL0     C42817  -1.197   4.933   7.090 -0.0086  0.5613  0.2794
  318MOL0     C42818  -1.340   4.985   7.100  0.0324  0.5916  0.1182
  318MOL0     O42819  -1.363   5.070   7.214 -0.0447  0.3304  0.0470
  318MOL0     C42820  -1.421   5.011   7.324 -0.0260 -0.3536  0.1164
  318MOL0     C42821  -1.353   5.004   7.443  0.5953  0.4493 -0.3148
  318MOL0     C42822  -1.414   4.957   7.561 -0.4606  0.6871 -0.1111
  318MOL0     C42823  -1.320   4.963   7.682 -0.2849 -0.2495  1.4099
  318MOL0     C42824  -1.545   4.908   7.556  1.0780  0.0355 -0.0800
  318MOL0     C42825  -1.626   4.868   7.665  0.8107 -0.1421  0.8058
  318MOL0     O42826  -1.744   4.812   7.632  0.1871  0.0135 -0.0619
  318MOL0     C42827  -1.826   4.776   7.735 -0.5993  0.2591  0.5415
  318MOL0     C42828  -1.822   4.641   7.761  0.6961 -0.4335  0.1999
  318MOL0     C42829  -1.900   4.592   7.867 -0.3408  0.3289 -0.5025
  318MOL0     C42830  -1.983   4.675   7.946  0.2506  0.4023  0.1467
  318MOL0     O42831  -2.061   4.608   8.041  0.3020  0.0826 -0.0868
  318MOL0     C42832  -2.205   4.643   8.064 -0.7032  0.6372  0.2174
  318MOL0     C42833  -2.220   4.687   8.214  0.1375  0.8135 -0.1558
  318MOL0     C42834  -2.186   4.567   8.306  0.3046 -0.2824 -1.2374
  318MOL0     C42835  -2.246   4.578   8.449 -0.8682  0.2020  0.2086
  318MOL0     C42836  -2.189   4.485   8.557 -0.4762 -0.0138  0.1936
  318MOL0     C42837  -2.058   4.534   8.616 -0.7065  0.3360 -0.1069
  318MOL0     C42838  -2.022   4.447   8.739 -0.4333  0.5251 -0.0788
  318MOL0     C42839  -2.058   4.529   8.874 -0.0012 -0.1985  0.8092
  318MOL0    Cl42840  -2.053   4.411   9.015  0.3656 -0.3332  0.3532
  318MOL0     C42841  -1.975   4.808   7.929 -0.1434 -0.3141  0.3756
  318MOL0     C42842  -1.896   4.863   7.825  0.0922 -0.9174 -0.4097
  318MOL0     O42843  -1.588   4.883   7.776  0.4392  0.0988  0.6511
  318MOL0     C42844  -1.614   4.903   7.429 -0.2230  0.2413 -0.8183
  318MOL0     C42845  -1.552   4.972   7.323  0.1565 -0.1471  0.4000
  318MOL0     N42846  -0.855   4.872   7.029 -1.1873 -0.1711  0.2114
  318MOL0     N42847  -0.739   4.924   7.031 -0.5103  1.0338  0.3678
  318MOL0     C42848   0.441   4.880   7.642 -0.1682 -0.2465  0.2371
  318MOL0     C42849   0.584   4.897   7.652 -0.1590 -0.7324  0.0390
  318MOL0     C42850   0.964   5.191   7.661 -0.4095 -0.8757 -0.2006
  318MOL0     C42851   1.031   5.287   7.742 -1.0529 -0.0977 -0.3473
  318MOL0     C42852   1.171   5.316   7.713 -0.2022 -0.1541  0.3656
  318MOL0     C42853   1.241   5.261   7.603  0.4622 -0.6036  0.3475
  318MOL0     O42854   1.372   5.272   7.585  0.1120  0.3214 -0.4058
  318MOL0     C42855   1.455   5.305   7.699  0.0476 -0.7765  0.1395
  318MOL0     C42856   1.602   5.295   7.665  0.6580  0.2893  0.9119
  318MOL0     C42857   1.689   5.351   7.784 -0.3317  0.8039  0.0887
  318MOL0     C42858   1.831   5.295   7.763 -0.1066 -0.0701 -0.1704
  318MOL0     C42859   1.837   5.152   7.783  1.0383 -0.5352 -0.5806
  318MOL0     C42860   1.812   5.038   7.816  0.2616  0.4582 -0.0581
  318MOL0     C42861   1.168   5.168   7.522 -0.8673 -0.2692  0.3762
  318MOL0     C42862   1.036   5.137   7.556 -0.0615 -0.6052  0.0112
  318MOL0     H42863   0.578   5.233   7.574  0.6337 -0.2659  0.7101
  318MOL0     H42864   0.328   5.188   7.562 -1.4208 -1.6928  0.4893
  318MOL0     H42865   0.263   5.035   7.408  1.9037 -1.3764  0.9584
  318MOL0     H42866   0.134   4.914   7.389 -1.3634  1.1187 -1.5514
  318MOL0     H42867   0.067   5.127   7.583 -1.6246 -1.6154  0.9002
  318MOL0     H42868   0.060   5.155   7.408 -2.0155 -1.4091 -1.8107
  318MOL0     H42869  -0.088   4.953   7.389 -0.0038 -1.5079  0.6483
  318MOL0     H42870  -0.085   4.938   7.575 -0.2097  2.0411  2.5383
  318MOL0     H42871  -0.189   5.151   7.613  0.2602  3.0118 -1.4204
  318MOL0     H42872  -0.179   5.189   7.447  0.8766  0.9624  0.5870
  318MOL0     H42873  -0.336   4.965   7.580  1.3582  0.8898  0.4689
  318MOL0     H42874  -0.411   5.129   7.543 -0.0077  1.3776 -0.2609
  318MOL0     H42875  -0.367   5.114   7.305  1.3000 -0.5386 -2.7345
  318MOL0     H42876  -0.332   4.941   7.319  0.7578 -0.0048  0.8698
  318MOL0     H42877  -0.564   4.917   7.424 -3.5231  0.9388 -0.0290
  318MOL0     H42878  -0.601   5.082   7.358  0.7975  0.4252  1.8608
  318MOL0     H42879  -0.474   4.876   7.176  0.7036  0.3817 -0.4323
  318MOL0     H42880  -0.519   5.040   7.130  0.1841  0.3342  0.3826
  318MOL0     H42881  -0.791   4.830   7.347  0.2004 -2.0867 -1.1716
  318MOL0     H42882  -1.024   4.694   7.118  2.7448  0.9587 -0.1056
  318MOL0     H42883  -1.002   4.710   7.292  0.6655 -1.1213 -0.4654
  318MOL0     H42884  -1.109   4.942   7.281 -1.2871 -0.2759  0.0808
  318MOL0     H42885  -1.223   4.803   7.250 -0.5600 -0.1522 -0.5975
  318MOL0     H42886  -1.170   4.882   6.997 -0.3089  2.1024 -0.6848
  318MOL0     H42887  -1.130   5.019   7.081  1.2800 -0.2488  1.7875
  318MOL0     H42888  -1.408   4.900   7.106  1.7628 -0.8693 -0.3223
  318MOL0     H42889  -1.353   5.032   7.002 -0.2270 -0.8024 -0.5309
  318MOL0     H42890  -1.247   5.025   7.436  0.2280  1.7883 -3.2083
  318MOL0     H42891  -1.363   5.019   7.765 -0.3432 -0.1351  1.3041
  318MOL0     H42892  -1.288   4.863   7.710  1.6343 -0.3637 -0.8674
  318MOL0     H42893  -1.228   5.017   7.656  1.3276 -2.8575  1.3151
  318MOL0     H42894  -1.771   4.563   7.705 -0.6119  0.0059 -1.7134
  318MOL0     H42895  -1.884   4.485   7.882  0.4610  0.2700 -1.6541
  318MOL0     H42896  -2.229   4.729   8.000 -1.5843  1.6056  1.7840
  318MOL0     H42897  -2.275   4.562   8.041 -0.9958  0.9658 -0.0842
  318MOL0     H42898  -2.170   4.779   8.246  2.6651 -1.1125  1.7766
  318MOL0     H42899  -2.328   4.703   8.227 -0.6292 -2.5496 -1.4766
  318MOL0     H42900  -2.080   4.544   8.317  0.7561  2.1756  0.2007
  318MOL0     H42901  -2.242   4.484   8.261  1.5342 -0.4146 -2.5788
  318MOL0     H42902  -2.228   4.682   8.481 -0.3000  0.7109 -1.6401
  318MOL0     H42903  -2.355   4.567   8.452 -1.1935  2.4302 -1.2058
  318MOL0     H42904  -2.185   4.380   8.530 -0.3480 -0.1064  0.5682
  318MOL0     H42905  -2.253   4.506   8.643 -0.4199  2.2299 -0.2340
  318MOL0     H42906  -1.979   4.524   8.541 -1.3703  1.3178 -0.9753
  318MOL0     H42907  -2.045   4.641   8.637  3.2822  0.3492 -1.7171
  318MOL0     H42908  -1.919   4.410   8.742  0.0381  1.8477  1.6103
  318MOL0     H42909  -2.093   4.364   8.738 -0.5595  0.6228 -1.6124
  318MOL0     H42910  -2.154   4.575   8.848  0.2568 -1.7255 -3.6929
  318MOL0     H42911  -1.984   4.610   8.884  2.1310 -1.6094 -2.0112
  318MOL0     H42912  -2.025   4.862   8.008  1.8126 -0.1200  1.5471
  318MOL0     H42913  -1.876   4.967   7.803  1.0821 -0.5238  2.0965
  318MOL0     H42914  -1.717   4.867   7.429 -0.7677  1.4340  2.5774
  318MOL0     H42915  -1.607   4.993   7.232 -2.0932 -1.9180  1.2655
  318MOL0     H42916   0.394   4.784   7.660  2.6708 -2.4458 -2.9891
  318MOL0     H42917   0.644   4.817   7.694  3.6360  2.4652  1.3195
  318MOL0     H42918   0.994   5.333   7.833  0.2258  0.9696 -0.3220
  318MOL0     H42919   1.221   5.376   7.788  1.6293 -0.0573 -0.8638
  318MOL0     H42920   1.444   5.404   7.746 -1.1748 -0.5648 -0.5439
  318MOL0     H42921   1.440   5.242   7.787 -0.4456  0.5327  1.0250
  318MOL0     H42922   1.624   5.346   7.570 -0.2201  2.5140  1.8315
  318MOL0     H42923   1.626   5.189   7.655  2.7857  0.7886  0.1231
  318MOL0     H42924   1.647   5.321   7.881 -2.1050  1.6889 -0.3554
  318MOL0     H42925   1.694   5.459   7.770 -2.6772  0.7986 -1.4057
  318MOL0     H42926   1.907   5.339   7.828  1.3874  1.3923 -2.7473
  318MOL0     H42927   1.866   5.323   7.663 -0.8226 -0.7349 -0.6133
  318MOL0     H42928   1.814   4.936   7.851  1.6640 -0.4323 -2.4962
  318MOL0     H42929   1.204   5.116   7.435 -0.0235 -1.7863  1.5926
  318MOL0     H42930   0.987   5.076   7.481 -0.2168  2.6087 -2.7179
  319MOL0     O42931   7.800   6.402   3.043  0.3675  0.4568 -0.0105
  319MOL0     C42932   7.761   6.516   3.026  0.7115 -0.3028 -0.8422
  319MOL0     O42933   7.639   6.571   3.077 -0.1949  0.2611 -0.1760
  319MOL0     C42934   7.537   6.476   3.097  0.5979  0.0038 -0.0753
  319MOL0     C42935   7.466   6.419   2.988 -0.5581  0.5783 -0.2253
  319MOL0     C42936   7.354   6.330   3.005 -0.5928 -0.9100  0.6739
  319MOL0     C42937   7.300   6.306   3.131  0.5371 -0.4922 -0.0476
  319MOL0     O42938   7.189   6.234   3.178  0.5426 -0.6785  0.3698
  319MOL0     C42939   7.087   6.209   3.078 -0.6947 -1.0049 -0.2841
  319MOL0     C42940   6.975   6.139   3.146  0.2117 -0.8980  0.8159
  319MOL0     C42941   6.837   6.176   3.074  0.3292 -1.3028 -0.2215
  319MOL0     C42942   6.710   6.113   3.126 -1.0181  1.1617  0.0709
  319MOL0     C42943   6.593   6.129   3.015  0.0789  0.0531 -0.3226
  319MOL0     C42944   6.444   6.095   3.049  0.2542  0.1204  0.6583
  319MOL0     C42945   6.426   5.946   3.072 -0.4914 -0.0904  0.7526
  319MOL0     C42946   6.443   5.860   2.949  0.1595  0.1440 -0.6160
  319MOL0     N42947   6.472   5.725   2.991  0.1074  0.1145 -0.0128
  319MOL0     C42948   6.585   5.654   2.974  0.1565  0.6564 -0.1861
  319MOL0     C42949   6.558   5.534   3.032  0.8822  0.6485 -0.0578
  319MOL0     C42950   6.655   5.429   3.079  0.7839 -0.5181 -0.0426
  319MOL0     C42951   6.705   5.461   3.224  1.2634 -0.4178 -0.9724
  319MOL0     C42952   6.594   5.461   3.321  1.0467  0.1483 -0.0210
  319MOL0     C42953   6.534   5.600   3.345 -0.0717 -0.0392 -0.1835
  319MOL0     O42954   6.553   5.650   3.480 -0.2203  0.3146 -0.3856
  319MOL0     C42955   6.487   5.763   3.518 -0.2584 -0.3390  0.1718
  319MOL0     C42956   6.442   5.761   3.645  0.3998  0.9358 -0.5177
  319MOL0     C42957   6.361   5.857   3.704  0.2376 -0.5761 -0.0475
  319MOL0     C42958   6.297   5.819   3.840  0.3858  0.4596  0.2921
  319MOL0     C42959   6.317   5.967   3.630  0.1253 -0.2063 -0.2006
  319MOL0     C42960   6.241   6.083   3.687 -0.3831  0.0591  0.8775
  319MOL0     O42961   6.223   6.083   3.820  0.5781 -0.0806  0.2029
  319MOL0     C42962   6.177   6.200   3.883  1.1208 -0.2732 -0.5171
  319MOL0     C42963   6.222   6.330   3.859 -0.7698 -0.7810  0.6462
  319MOL0     C42964   6.177   6.447   3.928  0.5717  0.2786 -0.8428
  319MOL0     C42965   6.066   6.433   4.010 -0.0953 -0.0524 -0.3795
  319MOL0     O42966   6.003   6.550   4.052 -0.5430  0.0043 -0.4352
  319MOL0     C42967   5.865   6.545   4.079 -0.1086 -0.0227 -0.2828
  319MOL0     C42968   5.824   6.694   4.101  0.8513  0.1231  0.9317
  319MOL0     C42969   5.675   6.692   4.138 -0.8003 -0.1978 -0.1062
  319MOL0     C42970   5.620   6.829   4.169  0.5230  0.2441  0.2083
  319MOL0     C42971   5.475   6.832   4.121  0.1513  0.3909 -0.3781
  319MOL0     C42972   5.400   6.935   4.205 -0.8511 -0.5332  0.0783
  319MOL0     C42973   5.257   6.946   4.149  0.6385  0.6667 -0.9973
  319MOL0     C42974   5.190   7.064   4.205  0.4221 -0.4073 -0.5988
  319MOL0    Cl42975   5.185   7.090   4.381  0.4553 -0.1758 -0.3302
  319MOL0     C42976   6.019   6.306   4.034  0.8044  0.0517 -0.7016
  319MOL0     C42977   6.076   6.188   3.978  0.8086  0.1312 -1.0692
  319MOL0     O42978   6.187   6.156   3.603  0.4348  0.2783  0.4488
  319MOL0     C42979   6.345   5.961   3.493  0.3911 -0.5855  0.1288
  319MOL0     C42980   6.427   5.863   3.437 -0.0614  0.0121  0.8260
  319MOL0     N42981   6.430   5.545   3.077 -0.3789  0.4931  0.4789
  319MOL0     N42982   6.381   5.647   3.048  0.3639 -0.0910 -0.8435
  319MOL0     C42983   7.367   6.366   3.242 -0.5302  0.3925 -1.0010
  319MOL0     C42984   7.485   6.454   3.222 -0.5536 -0.2370  1.0601
  319MOL0     C42985   7.847   6.612   2.958  0.3466  0.1617  0.0211
  319MOL0     C42986   7.809   6.742   2.926  0.4003  0.3803  0.1383
  319MOL0     C42987   7.894   6.818   2.846  0.6939 -0.7567 -0.3579
  319MOL0     C42988   8.020   6.780   2.809 -0.2033 -0.5860 -0.2657
  319MOL0     O42989   8.085   6.880   2.734 -0.1538 -0.7404 -0.0868
  319MOL0     C42990   8.218   6.860   2.683 -0.3637  0.6953  0.4975
  319MOL0     C42991   8.209   6.749   2.575  0.0705  0.5907  0.8285
  319MOL0     C42992   8.337   6.765   2.483 -0.2211  0.2658 -0.2053
  319MOL0     C42993   8.320   6.710   2.346 -0.3107 -0.2177 -0.1412
  319MOL0     C42994   8.450   6.738   2.268  0.3950 -0.3136  0.8343
  319MOL0     C42995   8.545   6.770   2.206 -0.2120 -0.1977 -0.2172
  319MOL0     C42996   8.066   6.651   2.849  0.3373 -0.0752 -0.9579
  319MOL0     C42997   7.971   6.565   2.922 -0.6778 -0.2485  0.1107
  319MOL0     H42998   7.501   6.451   2.890 -0.2913 -0.0440 -0.3345
  319MOL0     H42999   7.314   6.292   2.912  3.6645 -3.4903 -0.4033
  319MOL0     H43000   7.054   6.304   3.034 -0.4812  0.5331  2.6323
  319MOL0     H43001   7.123   6.135   3.006 -1.2729 -0.3596 -1.2518
  319MOL0     H43002   6.989   6.031   3.157  0.4316 -0.8156  1.4157
  319MOL0     H43003   6.966   6.191   3.243 -1.0343 -0.1121  0.3085
  319MOL0     H43004   6.837   6.285   3.077  2.2787 -1.2676  0.1254
  319MOL0     H43005   6.842   6.149   2.969 -2.0339 -4.6847  0.3584
  319MOL0     H43006   6.734   6.009   3.153  1.6283  1.2597 -1.5482
  319MOL0     H43007   6.665   6.161   3.213 -2.0483  1.4873 -0.6252
  319MOL0     H43008   6.585   6.233   2.984  0.9558  1.1580  2.7638
  319MOL0     H43009   6.627   6.079   2.924  3.2323  1.4889 -0.0911
  319MOL0     H43010   6.416   6.151   3.138 -1.8002  0.1654  0.0471
  319MOL0     H43011   6.386   6.132   2.964  2.0995  0.4891 -0.4995
  319MOL0     H43012   6.494   5.911   3.151 -0.8318  1.6102  1.8498
  319MOL0     H43013   6.329   5.923   3.118 -0.5870 -1.7410 -0.1787
  319MOL0     H43014   6.514   5.899   2.874  3.9079 -3.2572  0.7666
  319MOL0     H43015   6.354   5.869   2.886 -0.2276  0.2419 -0.0570
  319MOL0     H43016   6.683   5.680   2.937  0.3732  0.9835  0.6033
  319MOL0     H43017   6.597   5.339   3.057 -2.5706  1.8504 -1.7825
  319MOL0     H43018   6.742   5.438   3.013 -2.1699 -0.6360 -4.3196
  319MOL0     H43019   6.765   5.551   3.236  0.0030  0.3931 -0.5569
  319MOL0     H43020   6.769   5.375   3.247  1.1589 -0.5614 -1.2129
  319MOL0     H43021   6.635   5.420   3.414  1.4663 -0.2500 -0.3751
  319MOL0     H43022   6.508   5.401   3.291  2.0662 -0.9385 -0.8684
  319MOL0     H43023   6.425   5.592   3.343  0.0148 -1.1578 -1.0860
  319MOL0     H43024   6.575   5.676   3.278  1.9844 -0.1768  0.8256
  319MOL0     H43025   6.459   5.671   3.703  0.5174  2.0095  1.1811
  319MOL0     H43026   6.351   5.871   3.920 -0.4875  0.2565  1.0335
  319MOL0     H43027   6.192   5.848   3.851 -1.0217 -3.7275 -0.2032
  319MOL0     H43028   6.284   5.711   3.849 -0.8954  0.3886 -1.6921
  319MOL0     H43029   6.300   6.346   3.787 -0.9770  1.6999  0.8849
  319MOL0     H43030   6.207   6.547   3.898  0.1521 -0.0039 -2.2730
  319MOL0     H43031   5.811   6.494   3.998 -0.6038  0.2314 -0.1169
  319MOL0     H43032   5.834   6.481   4.163 -0.7868  2.1296  1.1869
  319MOL0     H43033   5.887   6.728   4.184  2.5752 -3.0605  1.0866
  319MOL0     H43034   5.822   6.750   4.007 -0.7848 -1.2314  0.1060
  319MOL0     H43035   5.667   6.644   4.236 -0.2816 -0.9927 -0.4463
  319MOL0     H43036   5.615   6.639   4.065  2.1835 -1.5687 -1.7343
  319MOL0     H43037   5.639   6.839   4.276 -2.2661 -1.0637  0.9132
  319MOL0     H43038   5.677   6.907   4.117  2.7719 -1.2517  0.3168
  319MOL0     H43039   5.434   6.734   4.148  0.0216  0.7680  0.8217
  319MOL0     H43040   5.464   6.846   4.013 -2.3225  0.8695 -0.1234
  319MOL0     H43041   5.400   6.907   4.311 -0.7559 -0.9892 -0.0390
  319MOL0     H43042   5.438   7.037   4.192 -0.6857 -0.2820  2.1685
  319MOL0     H43043   5.196   6.864   4.190  2.9530 -1.0106 -0.7460
  319MOL0     H43044   5.237   6.951   4.042 -1.6964  1.2058 -0.5997
  319MOL0     H43045   5.086   7.062   4.172  0.9366 -0.7310 -2.3123
  319MOL0     H43046   5.236   7.153   4.160  1.0631 -1.1881 -1.5205
  319MOL0     H43047   5.935   6.286   4.100  1.4008 -1.6864 -0.4382
  319MOL0     H43048   6.046   6.086   4.003  2.1080 -0.5600 -2.2072
  319MOL0     H43049   6.318   6.040   3.423  0.0215 -1.5139 -0.7982
  319MOL0     H43050   6.440   5.864   3.330 -2.8875  1.6228  0.4196
  319MOL0     H43051   7.335   6.339   3.342  0.7350  0.7001 -0.4962
  319MOL0     H43052   7.537   6.497   3.306  3.0545 -0.3556 -0.9367
  319MOL0     H43053   7.706   6.765   2.952  1.0801  2.9743  0.8348
  319MOL0     H43054   7.852   6.906   2.798  2.3975 -0.6469 -1.7604
  319MOL0     H43055   8.254   6.951   2.633 -2.1583  0.5063 -1.2362
  319MOL0     H43056   8.297   6.833   2.754  0.1494 -0.8860 -0.6385
  319MOL0     H43057   8.117   6.772   2.520 -1.1245 -2.0478  1.5688
  319MOL0     H43058   8.213   6.648   2.616  2.7223  0.6005  0.8206
  319MOL0     H43059   8.419   6.705   2.525  0.4340  0.8050 -0.6969
  319MOL0     H43060   8.363   6.871   2.476 -0.2957  0.2174 -1.3071
  319MOL0     H43061   8.230   6.757   2.306 -0.9694 -0.3215  1.2025
  319MOL0     H43062   8.302   6.602   2.346  0.5001 -0.3828  1.6352
  319MOL0     H43063   8.613   6.796   2.128 -0.3897 -0.6991 -0.5477
  319MOL0     H43064   8.160   6.608   2.818  1.4623  1.4518  0.2027
  319MOL0     H43065   8.001   6.464   2.948 -2.0501 -0.6292  0.3501
  320MOL0     O43066   1.854  11.294   8.023  0.0618 -0.4546  0.8660
  320MOL0     C43067   1.875  11.214   7.934 -0.0052 -0.1108  0.3251
  320MOL0     O43068   1.793  11.117   7.899 -0.1821 -0.5612  0.2272
  320MOL0     C43069   1.656  11.122   7.908  0.3541  0.4096 -0.2276
  320MOL0     C43070   1.592  10.996   7.915  0.1653 -0.0748 -0.1872
  320MOL0     C43071   1.455  10.991   7.904 -0.2936  0.3612 -0.1594
  320MOL0     C43072   1.377  11.114   7.887  0.0976 -0.9728 -0.6194
  320MOL0     O43073   1.245  11.110   7.846  0.2123 -0.4215  0.3139
  320MOL0     C43074   1.198  11.013   7.743  0.1111  0.4429 -0.6596
  320MOL0     C43075   1.060  11.050   7.683 -0.1092 -0.5266 -0.6980
  320MOL0     C43076   1.005  10.948   7.579 -0.2471  0.1423 -0.7346
  320MOL0     C43077   0.882  11.001   7.511 -0.0244  0.2019 -0.2030
  320MOL0     C43078   0.818  10.886   7.437  0.5524 -0.4191  0.2300
  320MOL0     C43079   0.697  10.937   7.353  0.2172  0.6617 -0.1434
  320MOL0     C43080   0.610  10.816   7.329  0.1709  0.2280  0.0066
  320MOL0     C43081   0.484  10.855   7.260  0.4857  0.0826  0.2572
  320MOL0     N43082   0.396  10.947   7.329  0.4891 -0.2132  0.4723
  320MOL0     C43083   0.343  10.910   7.446  1.1528 -0.5984  0.4054
  320MOL0     C43084   0.279  11.024   7.486  0.6939 -0.4695  0.3125
  320MOL0     C43085   0.233  11.062   7.620  0.0259  0.2559  0.1502
  320MOL0     C43086   0.103  10.974   7.656 -0.0951 -0.3443  0.6677
  320MOL0     C43087   0.050  11.012   7.785  0.0785 -0.3670  0.3301
  320MOL0     C43088  -0.059  10.916   7.836 -0.3485  0.9861  0.2642
  320MOL0     O43089  -0.111  10.967   7.960  0.0340 -0.2978 -0.3186
  320MOL0     C43090  -0.233  11.017   7.978 -0.2944 -0.3615  0.7651
  320MOL0     C43091  -0.286  11.115   7.892 -0.0731  0.1167  0.0965
  320MOL0     C43092  -0.418  11.157   7.916  0.6290 -0.2881  0.0884
  320MOL0     C43093  -0.485  11.246   7.812  0.5297  0.4340  0.3223
  320MOL0     C43094  -0.490  11.111   8.035  0.2141 -0.4547 -0.2313
  320MOL0     C43095  -0.630  11.159   8.069  0.0022  0.6905  0.5219
  320MOL0     O43096  -0.664  11.292   8.059  0.1530 -0.4756 -0.9307
  320MOL0     C43097  -0.798  11.317   8.049  0.1195 -0.1496 -0.2858
  320MOL0     C43098  -0.865  11.345   8.171 -0.0233 -0.9507 -0.0965
  320MOL0     C43099  -0.996  11.396   8.160  0.0873 -0.1371 -0.4990
  320MOL0     C43100  -1.069  11.400   8.037 -0.0677  0.2584 -0.1581
  320MOL0     O43101  -1.196  11.445   8.022  0.3219  0.9301  0.1256
  320MOL0     C43102  -1.270  11.478   8.141 -0.2089 -0.3863  0.2015
  320MOL0     C43103  -1.423  11.481   8.112 -0.2767 -0.8884  0.2260
  320MOL0     C43104  -1.513  11.478   8.240 -0.8488  0.2780  0.4168
  320MOL0     C43105  -1.645  11.550   8.214 -1.1718  0.9203  1.0715
  320MOL0     C43106  -1.729  11.550   8.340 -0.7518 -1.1264  0.6919
  320MOL0     C43107  -1.865  11.626   8.326 -0.3468  0.9276  0.7165
  320MOL0     C43108  -1.953  11.599   8.444 -0.7549  0.4961  0.4489
  320MOL0     C43109  -2.079  11.682   8.439 -0.2211  0.2381 -0.2659
  320MOL0    Cl43110  -2.212  11.615   8.330  0.4919  0.0250  0.5932
  320MOL0     C43111  -0.993  11.374   7.923 -0.4973 -0.9711  0.2603
  320MOL0     C43112  -0.861  11.331   7.926  0.0291  0.3914  0.7040
  320MOL0     O43113  -0.709  11.067   8.098 -0.3600  0.2748 -0.3021
  320MOL0     C43114  -0.420  11.029   8.123  0.6592 -0.4557 -0.6651
  320MOL0     C43115  -0.295  10.985   8.098 -0.3446 -0.2711 -0.7062
  320MOL0     N43116   0.287  11.115   7.388  0.0729 -0.3713  0.5573
  320MOL0     N43117   0.356  11.070   7.290  0.0752 -0.1161  0.4391
  320MOL0     C43118   1.448  11.240   7.894 -0.2873  0.0575 -0.0225
  320MOL0     C43119   1.582  11.243   7.915  0.4984  0.3385 -0.5683
  320MOL0     C43120   2.002  11.219   7.854  0.5593 -0.3024  0.2829
  320MOL0     C43121   2.020  11.162   7.731 -1.1690 -0.0553  0.6730
  320MOL0     C43122   2.153  11.170   7.665  0.9061 -0.4166 -0.5256
  320MOL0     C43123   2.257  11.233   7.726  0.2623 -0.4482 -0.0113
  320MOL0     O43124   2.389  11.235   7.688  0.0314  1.0113  0.1766
  320MOL0     C43125   2.423  11.196   7.550 -0.0022 -0.5285  0.8652
  320MOL0     C43126   2.376  11.304   7.451  0.2331  0.2630  0.2338
  320MOL0     C43127   2.281  11.247   7.343 -0.2195  0.4367 -0.4053
  320MOL0     C43128   2.354  11.204   7.220 -0.8982  0.4366  0.8357
  320MOL0     C43129   2.263  11.139   7.123 -0.7549 -0.2314  0.8709
  320MOL0     C43130   2.181  11.098   7.042 -0.2668  0.8346  0.6573
  320MOL0     C43131   2.239  11.283   7.856  0.0196 -0.2447 -0.0483
  320MOL0     C43132   2.115  11.282   7.914  0.5762  0.3877  0.3217
  320MOL0     H43133   1.655  10.908   7.912  1.0129  0.4721  0.9134
  320MOL0     H43134   1.404  10.895   7.903  3.1872 -1.7255  1.6558
  320MOL0     H43135   1.266  11.010   7.657 -2.5449 -3.0272 -2.9260
  320MOL0     H43136   1.182  10.916   7.791 -1.7768  1.1561  0.2082
  320MOL0     H43137   0.987  11.056   7.764 -2.1337 -1.3391 -2.3612
  320MOL0     H43138   1.077  11.148   7.637  3.2481  0.5624  2.3959
  320MOL0     H43139   1.080  10.932   7.501  0.4885  1.8308 -0.4121
  320MOL0     H43140   0.976  10.853   7.625 -2.0131  0.2634 -1.5246
  320MOL0     H43141   0.812  11.050   7.579  1.2198  1.6081  0.1199
  320MOL0     H43142   0.913  11.082   7.444 -0.6260  0.6151  0.0082
  320MOL0     H43143   0.896  10.836   7.379  1.0750  4.1885 -3.6432
  320MOL0     H43144   0.777  10.829   7.521 -1.1833  4.2439  2.9260
  320MOL0     H43145   0.648  11.007   7.421  2.1770  2.4668 -0.4969
  320MOL0     H43146   0.717  10.999   7.265 -1.3240  0.2304 -0.8265
  320MOL0     H43147   0.660  10.754   7.255 -1.8388  0.9499 -2.0696
  320MOL0     H43148   0.596  10.752   7.416  0.2449 -0.1071 -0.2269
  320MOL0     H43149   0.446  10.756   7.235  0.2873  0.3799 -0.6473
  320MOL0     H43150   0.512  10.907   7.168 -0.3367  2.4084  1.2374
  320MOL0     H43151   0.362  10.819   7.502  2.2738 -1.7545 -1.7676
  320MOL0     H43152   0.316  11.050   7.690  0.1673  1.3686  0.1889
  320MOL0     H43153   0.196  11.165   7.622  0.0036  0.2485  0.0983
  320MOL0     H43154   0.131  10.868   7.654  1.4596  0.0281 -1.3783
  320MOL0     H43155   0.025  10.989   7.581  2.5220 -0.2290 -2.2111
  320MOL0     H43156   0.006  11.112   7.786 -1.0496 -0.8305  2.2474
  320MOL0     H43157   0.130  11.017   7.860 -0.9289  2.2499  1.3676
  320MOL0     H43158  -0.026  10.814   7.857 -0.5554  1.0409  0.8730
  320MOL0     H43159  -0.141  10.902   7.766 -1.1644 -0.1228  1.4026
  320MOL0     H43160  -0.229  11.149   7.806  2.1327  0.2613  1.5484
  320MOL0     H43161  -0.594  11.240   7.814  0.5419 -0.3827 -0.6996
  320MOL0     H43162  -0.443  11.347   7.813  0.1406  0.6104 -0.5238
  320MOL0     H43163  -0.460  11.192   7.720 -2.0849 -2.0826  0.9458
  320MOL0     H43164  -0.815  11.331   8.266 -0.4335 -0.2192  0.2364
  320MOL0     H43165  -1.036  11.419   8.258  1.7360 -0.0147  0.1741
  320MOL0     H43166  -1.263  11.402   8.219 -1.2090  0.1327  0.8187
  320MOL0     H43167  -1.239  11.576   8.178 -1.2813 -0.0084  0.1454
  320MOL0     H43168  -1.439  11.573   8.054  0.7110 -2.0655 -2.0453
  320MOL0     H43169  -1.434  11.386   8.058 -1.8997 -0.0817 -0.9681
  320MOL0     H43170  -1.454  11.517   8.323  3.1404  0.1794 -2.0920
  320MOL0     H43171  -1.544  11.376   8.264  1.9174 -1.0234 -1.0582
  320MOL0     H43172  -1.629  11.655   8.186 -1.1467  0.8263  0.7337
  320MOL0     H43173  -1.691  11.502   8.128 -1.7173 -2.1810  2.9628
  320MOL0     H43174  -1.674  11.589   8.426  2.8786 -2.3231 -0.8604
  320MOL0     H43175  -1.742  11.448   8.378  1.9064 -1.5024  0.7791
  320MOL0     H43176  -1.848  11.734   8.319  1.4787  0.6508  0.2940
  320MOL0     H43177  -1.924  11.606   8.236  0.8037  3.4091 -0.6645
  320MOL0     H43178  -1.896  11.631   8.532 -0.8572  1.8490  0.0413
  320MOL0     H43179  -1.986  11.495   8.457 -2.8822  0.9037 -1.1345
  320MOL0     H43180  -2.061  11.789   8.422 -0.6533  1.0505  3.5848
  320MOL0     H43181  -2.114  11.694   8.542  0.2301  0.2271 -0.1072
  320MOL0     H43182  -1.032  11.400   7.825 -1.3390 -1.3916  0.4740
  320MOL0     H43183  -0.807  11.302   7.837 -2.9274 -3.5171 -0.1076
  320MOL0     H43184  -0.465  11.013   8.220  2.5922  3.1835  1.0180
  320MOL0     H43185  -0.260  10.913   8.171  1.6804  0.5314 -0.8218
  320MOL0     H43186   1.395  11.334   7.905 -1.3252 -0.3653 -1.1669
  320MOL0     H43187   1.629  11.339   7.934  0.0066  1.2270 -3.2944
  320MOL0     H43188   1.936  11.108   7.688 -0.9830 -0.1870  0.4706
  320MOL0     H43189   2.185  11.114   7.578 -0.3469  0.1763 -1.4033
  320MOL0     H43190   2.531  11.185   7.539 -0.0050  1.2579 -2.0715
  320MOL0     H43191   2.386  11.095   7.529  0.1071 -1.2589  3.7971
  320MOL0     H43192   2.450  11.368   7.402 -0.2928 -0.9880 -2.3505
  320MOL0     H43193   2.323  11.379   7.511 -2.2647 -0.0557 -1.3869
  320MOL0     H43194   2.217  11.331   7.315  0.9302  1.9361  1.1664
  320MOL0     H43195   2.219  11.162   7.371 -0.5795  0.2806 -1.6320
  320MOL0     H43196   2.434  11.133   7.241 -0.6966 -0.2080 -1.8700
  320MOL0     H43197   2.403  11.290   7.175 -1.2722  0.1905 -0.0485
  320MOL0     H43198   2.110  11.072   6.966  1.3914 -1.6610 -0.1288
  320MOL0     H43199   2.325  11.321   7.911 -0.9995  0.2883  1.2286
  320MOL0     H43200   2.105  11.345   8.002  0.7358 -0.0978  0.6914
  321MOL0     O43201   3.735   7.831   8.762 -0.2648  0.4500 -0.6869
  321MOL0     C43202   3.722   7.710   8.794  0.8816 -0.2798  0.2581
  321MOL0     O43203   3.602   7.648   8.835 -0.0425 -0.1178 -0.1350
  321MOL0     C43204   3.472   7.692   8.824  0.1917 -0.6316 -0.5353
  321MOL0     C43205   3.375   7.599   8.870  0.1790 -0.2485 -0.4471
  321MOL0     C43206   3.239   7.643   8.871  0.4604 -0.1756  0.1951
  321MOL0     C43207   3.207   7.772   8.856 -0.1867 -0.0226  0.5089
  321MOL0     O43208   3.077   7.808   8.894  0.1867  0.2306 -0.3821
  321MOL0     C43209   3.018   7.931   8.851 -0.8842 -0.1019  1.4168
  321MOL0     C43210   2.876   7.925   8.884 -0.8899 -0.2602  0.4337
  321MOL0     C43211   2.785   7.813   8.821 -0.6029  0.3661  0.4383
  321MOL0     C43212   2.639   7.847   8.834  0.2951 -0.6198  0.3411
  321MOL0     C43213   2.551   7.721   8.827  1.3369  0.2290 -0.4244
  321MOL0     C43214   2.574   7.612   8.719 -0.0737 -0.7658 -0.0019
  321MOL0     C43215   2.460   7.519   8.685  0.6738 -0.4735  0.4010
  321MOL0     C43216   2.381   7.455   8.796 -0.0490  0.0445 -0.1035
  321MOL0     N43217   2.293   7.553   8.869  1.2313 -0.2242  0.5300
  321MOL0     C43218   2.192   7.627   8.812 -0.3907 -1.5155 -0.3066
  321MOL0     C43219   2.097   7.647   8.906  0.3167  0.1382  0.9881
  321MOL0     C43220   1.957   7.701   8.879 -0.8200  0.7024 -0.2135
  321MOL0     C43221   1.850   7.594   8.854 -1.5723 -0.4515  0.0136
  321MOL0     C43222   1.709   7.667   8.862 -0.7667  0.1989 -0.8719
  321MOL0     C43223   1.689   7.776   8.755 -0.2992 -0.1643 -0.0302
  321MOL0     O43224   1.705   7.905   8.811 -0.1543  0.8173  0.0232
  321MOL0     C43225   1.590   7.986   8.826 -0.6437  0.1365 -0.6907
  321MOL0     C43226   1.498   8.016   8.727 -0.7388 -0.4884 -0.4369
  321MOL0     C43227   1.381   8.093   8.746  0.1576  0.6765  1.1642
  321MOL0     C43228   1.289   8.110   8.627  0.9267 -0.3729 -0.4663
  321MOL0     C43229   1.353   8.150   8.871  0.9470  0.3012 -0.5953
  321MOL0     C43230   1.229   8.217   8.913  0.8091  0.2800  0.5142
  321MOL0     O43231   1.222   8.238   9.049  0.4514 -0.1397  0.3209
  321MOL0     C43232   1.116   8.315   9.095  0.2065  0.0195  0.1062
  321MOL0     C43233   1.074   8.429   9.039 -0.7488 -0.8614 -0.4207
  321MOL0     C43234   0.955   8.497   9.079  1.1567 -0.3764 -1.3409
  321MOL0     C43235   0.873   8.452   9.191 -0.4593  0.5095 -0.3893
  321MOL0     O43236   0.752   8.491   9.241 -0.3425  0.6364  0.8262
  321MOL0     C43237   0.690   8.608   9.189 -0.4413  0.0423  0.7559
  321MOL0     C43238   0.583   8.672   9.279  0.1990  0.0824  0.9896
  321MOL0     C43239   0.467   8.577   9.283 -0.3491 -0.8905 -0.0700
  321MOL0     C43240   0.489   8.446   9.355  0.1240 -0.7590 -0.5171
  321MOL0     C43241   0.355   8.386   9.416 -0.0205  0.2769 -0.6220
  321MOL0     C43242   0.242   8.338   9.328 -1.4367  0.5694 -0.8943
  321MOL0     C43243   0.291   8.235   9.228 -0.7344  0.0518  0.3290
  321MOL0     C43244   0.182   8.136   9.200 -0.4522 -0.0471  0.2643
  321MOL0    Cl43245   0.238   8.030   9.049  0.3213  0.0958 -0.3174
  321MOL0     C43246   0.918   8.327   9.242  0.1652  0.0696 -0.6002
  321MOL0     C43247   1.034   8.261   9.195  0.2255  0.5946 -0.6622
  321MOL0     O43248   1.135   8.246   8.834  0.1527 -0.2016  0.1863
  321MOL0     C43249   1.453   8.129   8.981  0.2028  0.0191 -0.0270
  321MOL0     C43250   1.560   8.042   8.952  0.1711  0.3756  0.0720
  321MOL0     N43251   2.146   7.586   9.017  0.3344  0.7046  0.2690
  321MOL0     N43252   2.264   7.534   8.998  0.5301 -0.9480  0.5028
  321MOL0     C43253   3.300   7.866   8.822  0.0103 -0.6649 -1.1523
  321MOL0     C43254   3.433   7.824   8.809 -1.2679 -0.5255 -0.0058
  321MOL0     C43255   3.839   7.618   8.784 -0.1625 -0.6114 -0.2849
  321MOL0     C43256   3.961   7.659   8.714  0.5467 -0.2008 -0.0142
  321MOL0     C43257   4.069   7.568   8.710  0.5484 -0.3207  0.1322
  321MOL0     C43258   4.074   7.451   8.783  0.3523  0.2291 -0.5854
  321MOL0     O43259   4.178   7.370   8.803 -0.7571 -0.0703  0.6836
  321MOL0     C43260   4.302   7.432   8.756  0.3810  0.5807  0.1259
  321MOL0     C43261   4.414   7.334   8.796 -0.1908 -0.1776  0.4893
  321MOL0     C43262   4.413   7.318   8.947  0.3188  0.6775 -0.1156
  321MOL0     C43263   4.514   7.219   9.001  0.6219 -0.8342 -0.2676
  321MOL0     C43264   4.522   7.227   9.145  0.9922 -0.4045 -0.2714
  321MOL0     C43265   4.548   7.232   9.263  0.1640 -0.0745 -0.6695
  321MOL0     C43266   3.956   7.410   8.851 -0.1043  0.6786 -0.6237
  321MOL0     C43267   3.841   7.489   8.844 -0.0394  0.6146 -0.1149
  321MOL0     H43268   3.399   7.496   8.889  1.2381  0.3710  1.8685
  321MOL0     H43269   3.163   7.567   8.891  0.9604 -1.1168 -1.2686
  321MOL0     H43270   3.066   8.020   8.894 -1.9333  1.2507 -0.0864
  321MOL0     H43271   3.033   7.934   8.743 -0.6433  2.1723  1.4524
  321MOL0     H43272   2.885   7.916   8.993 -1.4175 -0.2410  0.4802
  321MOL0     H43273   2.829   8.018   8.850 -0.1569 -0.5054 -1.3826
  321MOL0     H43274   2.812   7.811   8.715 -2.4360 -1.6508 -0.0602
  321MOL0     H43275   2.805   7.717   8.870 -2.6706  0.0109  0.6593
  321MOL0     H43276   2.602   7.895   8.926 -0.3990  1.0899 -0.7843
  321MOL0     H43277   2.611   7.915   8.753  0.2162 -1.6385 -0.5020
  321MOL0     H43278   2.552   7.671   8.924  0.8879 -2.9964 -1.9417
  321MOL0     H43279   2.451   7.765   8.821  0.2523 -2.1032 -0.5701
  321MOL0     H43280   2.588   7.654   8.619  0.4746 -1.8769 -0.4081
  321MOL0     H43281   2.670   7.563   8.738  0.5267  0.3068 -0.1520
  321MOL0     H43282   2.385   7.572   8.625  1.5473  0.0006 -0.3041
  321MOL0     H43283   2.489   7.434   8.622 -1.9504 -0.2089 -1.3252
  321MOL0     H43284   2.459   7.418   8.864  1.2064  1.7500 -0.5602
  321MOL0     H43285   2.317   7.374   8.760 -0.9821  0.2777  0.9539
  321MOL0     H43286   2.162   7.640   8.709 -4.2021 -1.2736  0.6508
  321MOL0     H43287   1.933   7.762   8.967 -1.1601  1.9841 -1.1601
  321MOL0     H43288   1.967   7.775   8.799 -0.0781  1.6794  0.7486
  321MOL0     H43289   1.861   7.510   8.924  2.6447  0.8927  1.2865
  321MOL0     H43290   1.850   7.551   8.754  1.2791  0.2054 -0.3634
  321MOL0     H43291   1.695   7.704   8.964  3.0067 -1.5910  0.5077
  321MOL0     H43292   1.644   7.582   8.840  0.1392 -1.0043  0.8554
  321MOL0     H43293   1.592   7.764   8.708  0.0669 -1.7841 -0.4309
  321MOL0     H43294   1.758   7.752   8.674 -1.7820 -1.9140 -0.8462
  321MOL0     H43295   1.524   7.971   8.632 -2.4631 -0.8718 -0.7607
  321MOL0     H43296   1.286   8.216   8.601 -3.8379  0.2060  1.5141
  321MOL0     H43297   1.338   8.052   8.549  3.3842  0.2399  0.5026
  321MOL0     H43298   1.192   8.075   8.664  1.5753 -0.1557  1.5994
  321MOL0     H43299   1.136   8.478   8.964  0.7891  0.4171  1.5647
  321MOL0     H43300   0.908   8.580   9.028 -1.8967 -1.8464 -1.0960
  321MOL0     H43301   0.760   8.689   9.164 -2.1572  2.4357  3.0706
  321MOL0     H43302   0.630   8.581   9.102 -1.0967 -3.2095  2.0784
  321MOL0     H43303   0.617   8.693   9.381 -1.1898  0.8710  1.3171
  321MOL0     H43304   0.543   8.765   9.238 -0.2392  0.6056  2.5293
  321MOL0     H43305   0.408   8.555   9.194  1.2319 -1.9826 -0.9078
  321MOL0     H43306   0.400   8.631   9.350  1.4344 -0.5426  1.5199
  321MOL0     H43307   0.523   8.379   9.275  3.0077  0.9088 -0.8414
  321MOL0     H43308   0.563   8.459   9.434 -0.9247  0.2494  0.3325
  321MOL0     H43309   0.308   8.453   9.489 -0.3687 -3.6013  3.1015
  321MOL0     H43310   0.391   8.294   9.464  2.7905  0.8017 -1.5433
  321MOL0     H43311   0.169   8.299   9.400  1.5523 -1.5666  1.2558
  321MOL0     H43312   0.198   8.424   9.279  0.3538  0.4958 -2.7884
  321MOL0     H43313   0.380   8.186   9.269  0.7804  1.9105 -0.5848
  321MOL0     H43314   0.314   8.289   9.136  2.7402  2.6370  2.4886
  321MOL0     H43315   0.096   8.202   9.186 -1.0862 -0.4419  2.0628
  321MOL0     H43316   0.165   8.080   9.292 -1.4767  1.3154  0.9426
  321MOL0     H43317   0.877   8.293   9.337  1.2710  0.1424 -0.0849
  321MOL0     H43318   1.076   8.176   9.248 -1.5327  0.6171  0.8713
  321MOL0     H43319   1.459   8.184   9.074  0.6602  0.1827 -0.1492
  321MOL0     H43320   1.629   8.018   9.033 -2.1484 -2.2116  1.4413
  321MOL0     H43321   3.276   7.971   8.820 -4.2012 -1.4348 -1.2551
  321MOL0     H43322   3.506   7.902   8.791 -0.7300 -0.8972  0.5213
  321MOL0     H43323   3.969   7.761   8.678 -2.0400 -0.3285 -1.1721
  321MOL0     H43324   4.156   7.606   8.658 -0.7873  0.7280 -1.4227
  321MOL0     H43325   4.303   7.440   8.647 -3.8984 -0.8908 -0.2360
  321MOL0     H43326   4.328   7.532   8.790 -1.3822  1.2281 -0.3281
  321MOL0     H43327   4.510   7.374   8.763  0.0669  0.1955  1.6224
  321MOL0     H43328   4.389   7.239   8.749 -1.8747  1.5039 -2.2700
  321MOL0     H43329   4.309   7.300   8.975  0.2230  1.5707  0.1381
  321MOL0     H43330   4.432   7.419   8.984  0.5829  1.2934 -1.8381
  321MOL0     H43331   4.612   7.229   8.953  2.5724 -0.9765  3.3165
  321MOL0     H43332   4.500   7.111   8.990  4.4189 -1.4343 -0.6028
  321MOL0     H43333   4.569   7.246   9.367  2.5755  2.1680 -1.3309
  321MOL0     H43334   3.947   7.315   8.904 -0.6235  0.8476 -0.3981
  321MOL0     H43335   3.750   7.446   8.884 -1.5290  1.2642 -2.5677
  322MOL0     O43336   7.391  11.225   2.393 -0.0001  0.6031  0.1233
  322MOL0     C43337   7.456  11.234   2.497 -0.4846  0.1792 -0.5479
  322MOL0     O43338   7.518  11.130   2.561 -0.1327  0.2511 -0.6440
  322MOL0     C43339   7.549  11.018   2.493  0.0879 -0.3021 -0.1528
  322MOL0     C43340   7.562  10.994   2.356 -0.8537 -0.4193 -0.1177
  322MOL0     C43341   7.562  10.864   2.295  0.1345  0.5696 -0.2870
  322MOL0     C43342   7.592  10.750   2.373  0.4004 -0.5160  0.0888
  322MOL0     O43343   7.614  10.626   2.321  0.9553  0.4066 -0.3920
  322MOL0     C43344   7.713  10.631   2.214  0.7128 -0.2758  0.0373
  322MOL0     C43345   7.728  10.490   2.163 -0.7542  0.2663 -0.1805
  322MOL0     C43346   7.613  10.420   2.100  0.8890 -0.1161  0.2371
  322MOL0     C43347   7.566  10.450   1.964  0.0555  0.1372  0.2128
  322MOL0     C43348   7.671  10.415   1.857  0.6223  0.8706 -0.4005
  322MOL0     C43349   7.621  10.435   1.715  0.3944 -0.6200 -0.6634
  322MOL0     C43350   7.607  10.586   1.677 -0.6732  0.0289 -0.0248
  322MOL0     C43351   7.611  10.598   1.525 -0.6608 -0.4278 -0.7943
  322MOL0     N43352   7.750  10.596   1.471 -0.3957 -0.9090 -0.8173
  322MOL0     C43353   7.816  10.497   1.416  0.0809  0.4607 -0.2447
  322MOL0     C43354   7.937  10.546   1.377  0.1788  0.0984 -0.1310
  322MOL0     C43355   8.039  10.468   1.298 -0.4319  0.4481 -0.3443
  322MOL0     C43356   8.158  10.440   1.392  0.1544 -1.3077 -0.3849
  322MOL0     C43357   8.228  10.310   1.365 -0.2546 -0.6710  0.1010
  322MOL0     C43358   8.364  10.296   1.423 -0.1362  0.3795  0.3127
  322MOL0     O43359   8.400  10.167   1.365  0.7377  0.0449  0.7621
  322MOL0     C43360   8.521  10.121   1.393 -0.0162  0.0635  0.3079
  322MOL0     C43361   8.550  10.004   1.328  0.8078  0.2811  1.0584
  322MOL0     C43362   8.670   9.931   1.353 -0.1491  0.0397 -0.1150
  322MOL0     C43363   8.683   9.797   1.287 -0.2453 -0.7190 -0.4104
  322MOL0     C43364   8.758   9.975   1.459  0.2837 -0.2222 -1.0422
  322MOL0     C43365   8.875   9.900   1.498  0.5489  0.1856  0.0967
  322MOL0     O43366   8.910   9.906   1.636  0.2944  0.0422  0.8947
  322MOL0     C43367   8.997   9.805   1.677 -0.6993 -0.0555  0.1819
  322MOL0     C43368   9.136   9.827   1.690  0.3642 -0.7841 -0.3434
  322MOL0     C43369   9.217   9.715   1.723 -0.7280 -0.3241 -0.2768
  322MOL0     C43370   9.166   9.600   1.771 -0.3873 -0.9203  0.3115
  322MOL0     O43371   9.256   9.500   1.802  0.1650  0.1439 -0.5807
  322MOL0     C43372   9.210   9.414   1.910  0.6278 -0.9454  0.4583
  322MOL0     C43373   9.335   9.369   1.993  0.3320 -0.2970  0.2036
  322MOL0     C43374   9.423   9.272   1.921 -0.0712 -0.4106  0.1320
  322MOL0     C43375   9.539   9.214   2.006  0.9564  1.3300 -0.8907
  322MOL0     C43376   9.564   9.059   1.992  0.3557 -0.5824  0.3416
  322MOL0     C43377   9.693   9.009   2.065 -0.1006  0.4026  0.5569
  322MOL0     C43378   9.672   8.850   2.079 -1.5779 -1.0251  0.1748
  322MOL0     C43379   9.805   8.783   2.101  0.3484  0.4725  0.2044
  322MOL0    Cl43380   9.867   8.805   2.273  0.1643  0.0366 -0.0257
  322MOL0     C43381   9.024   9.583   1.765 -0.1095  0.7842 -0.6278
  322MOL0     C43382   8.941   9.687   1.722  0.2115  0.2783 -0.1282
  322MOL0     O43383   8.934   9.837   1.412  0.6590 -1.1175 -0.3061
  322MOL0     C43384   8.719  10.092   1.526 -0.0184  0.9789 -0.0299
  322MOL0     C43385   8.601  10.169   1.496 -0.0184  0.3836  0.1372
  322MOL0     N43386   7.938  10.679   1.405 -0.3683 -0.2543 -0.1462
  322MOL0     N43387   7.821  10.707   1.462 -0.3484 -0.2613 -0.1138
  322MOL0     C43388   7.604  10.771   2.508  0.2931  0.4001 -0.0908
  322MOL0     C43389   7.582  10.901   2.570  0.8656  1.1912  0.4335
  322MOL0     C43390   7.488  11.378   2.548  1.2307 -0.5272 -0.6865
  322MOL0     C43391   7.579  11.401   2.652  0.3063 -0.3022  0.0569
  322MOL0     C43392   7.606  11.524   2.711 -0.2119  0.3250  0.0756
  322MOL0     C43393   7.554  11.634   2.645  0.7279 -0.1869  0.0290
  322MOL0     O43394   7.589  11.762   2.676  0.4296 -0.3734 -0.3239
  322MOL0     C43395   7.729  11.791   2.708  0.4192  0.4031 -0.3789
  322MOL0     C43396   7.756  11.935   2.678  0.1587 -0.5543  0.3508
  322MOL0     C43397   7.740  11.967   2.533  0.1726  0.4772  0.6918
  322MOL0     C43398   7.732  12.121   2.509  0.4458 -0.0903 -0.3388
  322MOL0     C43399   7.709  12.155   2.366 -0.3393  0.0723 -0.4758
  322MOL0     C43400   7.701  12.185   2.251 -0.4045 -1.0757  0.4972
  322MOL0     C43401   7.457  11.618   2.537 -0.9274  0.6551 -0.3124
  322MOL0     C43402   7.420  11.491   2.492 -0.0052  0.0276 -0.0076
  322MOL0     H43403   7.563  11.076   2.284 -0.1690  2.4193  2.9217
  322MOL0     H43404   7.556  10.859   2.187 -4.1217  0.5991 -0.1896
  322MOL0     H43405   7.679  10.699   2.136 -0.2082 -1.0735 -0.2702
  322MOL0     H43406   7.803  10.675   2.259  0.3162 -1.9466  2.7318
  322MOL0     H43407   7.813  10.489   2.093  0.4601 -2.2285  1.2001
  322MOL0     H43408   7.759  10.429   2.247  1.7260  2.0931  0.3299
  322MOL0     H43409   7.643  10.315   2.106 -2.0683 -1.0241  1.0281
  322MOL0     H43410   7.524  10.433   2.163  1.0205  0.8169  0.2468
  322MOL0     H43411   7.467  10.403   1.958 -0.5624  1.4474 -0.2616
  322MOL0     H43412   7.541  10.556   1.954 -0.2885  0.0520  0.1603
  322MOL0     H43413   7.764  10.472   1.866  0.3813  1.3421 -0.8255
  322MOL0     H43414   7.698  10.310   1.874 -0.4678  0.9001  1.8723
  322MOL0     H43415   7.701  10.386   1.659  1.5533  0.4421 -0.0132
  322MOL0     H43416   7.529  10.378   1.705 -0.6383  0.9336 -0.2770
  322MOL0     H43417   7.511  10.623   1.712 -2.5860 -1.4579 -3.1752
  322MOL0     H43418   7.692  10.647   1.708  0.2194 -0.8217 -0.7069
  322MOL0     H43419   7.566  10.690   1.486 -0.2856 -0.1871 -0.6685
  322MOL0     H43420   7.554  10.519   1.475  0.8644 -1.4664 -0.9840
  322MOL0     H43421   7.783  10.395   1.399  1.0095 -0.4598  2.7700
  322MOL0     H43422   7.988  10.376   1.267  0.1953  0.6232 -2.0420
  322MOL0     H43423   8.066  10.517   1.204  1.3033 -1.9676 -1.2204
  322MOL0     H43424   8.106  10.430   1.487 -2.1871  1.7037 -1.2199
  322MOL0     H43425   8.218  10.530   1.405 -2.7840  0.5782  1.0729
  322MOL0     H43426   8.235  10.300   1.257 -1.8260 -1.6340  0.0659
  322MOL0     H43427   8.165  10.227   1.398 -2.8206  1.1477  0.0624
  322MOL0     H43428   8.366  10.306   1.532  0.8387 -0.2541  0.3623
  322MOL0     H43429   8.430  10.377   1.391  1.4374 -0.5531  1.0921
  322MOL0     H43430   8.477   9.962   1.260  0.9041  0.5293  0.8026
  322MOL0     H43431   8.682   9.710   1.353  2.4037 -2.9862 -3.0228
  322MOL0     H43432   8.603   9.789   1.212 -1.0307  1.9428  0.0498
  322MOL0     H43433   8.773   9.775   1.229 -0.4726 -0.6851 -0.7862
  322MOL0     H43434   9.184   9.922   1.668 -1.7715  0.7101  1.1212
  322MOL0     H43435   9.322   9.744   1.733 -0.3726 -0.6604 -2.5263
  322MOL0     H43436   9.152   9.468   1.985  1.9079  1.0729  0.0627
  322MOL0     H43437   9.160   9.322   1.880  1.4502 -1.3896  0.3989
  322MOL0     H43438   9.386   9.459   2.030  1.6640  2.1659 -6.2628
  322MOL0     H43439   9.296   9.312   2.078 -1.9206  2.2246  1.0096
  322MOL0     H43440   9.457   9.314   1.826 -0.5850  2.1658  0.9918
  322MOL0     H43441   9.352   9.197   1.885 -1.1550  1.0390 -0.9014
  322MOL0     H43442   9.631   9.265   1.976  2.9881 -0.2952  2.0553
  322MOL0     H43443   9.521   9.234   2.112  1.7679  0.1552 -0.5136
  322MOL0     H43444   9.586   9.037   1.887 -0.3442 -4.0421  0.8054
  322MOL0     H43445   9.464   9.023   2.018  0.2398  0.1467  0.9300
  322MOL0     H43446   9.779   9.033   2.003 -1.7347  2.2401 -1.1342
  322MOL0     H43447   9.701   9.051   2.165  1.8154  0.8564  0.2472
  322MOL0     H43448   9.621   8.808   1.992 -2.1542  0.3620 -0.1762
  322MOL0     H43449   9.613   8.829   2.168  0.0526 -2.4256  0.9855
  322MOL0     H43450   9.875   8.818   2.024 -0.6623 -0.1510 -1.0231
  322MOL0     H43451   9.782   8.676   2.095  3.9157 -0.6210  2.7334
  322MOL0     H43452   8.990   9.486   1.798  0.1673  1.2622  1.1652
  322MOL0     H43453   8.837   9.662   1.707 -0.1113  1.8521 -0.6532
  322MOL0     H43454   8.786  10.123   1.606 -1.6855 -0.2678  1.9504
  322MOL0     H43455   8.580  10.252   1.563  2.6247 -0.1756  1.8216
  322MOL0     H43456   7.633  10.687   2.571 -0.0641  0.1685 -0.2321
  322MOL0     H43457   7.555  10.907   2.675 -0.3096  0.6700  0.1841
  322MOL0     H43458   7.640  11.317   2.685 -0.4546 -0.1036  2.0981
  322MOL0     H43459   7.669  11.511   2.799 -2.2091 -0.0709  1.5435
  322MOL0     H43460   7.740  11.766   2.814 -3.5331 -1.9739 -0.3451
  322MOL0     H43461   7.802  11.729   2.655  2.1378 -1.0888  3.3832
  322MOL0     H43462   7.855  11.966   2.711 -0.6985  2.7807  0.1331
  322MOL0     H43463   7.689  11.994   2.741  0.7765 -1.4454  1.8981
  322MOL0     H43464   7.652  11.912   2.497 -1.6313  2.9260  1.0782
  322MOL0     H43465   7.826  11.927   2.478 -0.9388 -0.7417 -0.2527
  322MOL0     H43466   7.829  12.157   2.542  0.4699 -0.0306 -0.4740
  322MOL0     H43467   7.654  12.153   2.579  0.2720 -2.2451  0.5645
  322MOL0     H43468   7.685  12.209   2.148 -1.6736  0.4925  1.0124
  322MOL0     H43469   7.410  11.700   2.484 -0.1323 -0.3069 -2.6879
  322MOL0     H43470   7.354  11.478   2.406  0.7217 -0.9551 -0.4407
  323MOL0     O43471   9.635   3.441   4.000 -0.1473 -0.5284 -0.3185
  323MOL0     C43472   9.628   3.340   4.067 -0.6970  0.7834  1.0386
  323MOL0     O43473   9.512   3.280   4.110  0.0531 -0.2205 -0.1512
  323MOL0     C43474   9.384   3.328   4.069 -0.0505  0.4582 -0.4137
  323MOL0     C43475   9.276   3.244   4.098  0.2397 -0.7693 -1.2403
  323MOL0     C43476   9.143   3.287   4.078 -0.3180  1.3332 -0.2966
  323MOL0     C43477   9.106   3.406   4.026  0.0668 -0.4723  0.7833
  323MOL0     O43478   8.975   3.447   3.997 -0.4117  0.9098 -0.1551
  323MOL0     C43479   8.880   3.415   4.104 -0.1149  0.0820  0.5881
  323MOL0     C43480   8.745   3.464   4.057 -0.0379  0.1904 -1.0894
  323MOL0     C43481   8.667   3.509   4.179  0.0319 -0.1189  0.1383
  323MOL0     C43482   8.604   3.389   4.243  0.2972  0.0524  0.1241
  323MOL0     C43483   8.521   3.443   4.361 -0.0387  0.5325 -0.1083
  323MOL0     C43484   8.467   3.333   4.449 -0.2124  1.0862  0.2602
  323MOL0     C43485   8.382   3.391   4.560  0.9806  0.2789 -0.1713
  323MOL0     C43486   8.316   3.281   4.637 -0.4529 -0.4373 -0.8830
  323MOL0     N43487   8.241   3.331   4.757  0.1423  0.0007  0.4135
  323MOL0     C43488   8.113   3.386   4.750  0.3373  0.2168 -0.1127
  323MOL0     C43489   8.085   3.410   4.882 -0.0165 -0.5224  0.0036
  323MOL0     C43490   7.943   3.453   4.940 -0.7970  0.2958 -0.5096
  323MOL0     C43491   7.956   3.594   5.005  0.2462 -0.6575  0.2339
  323MOL0     C43492   8.051   3.602   5.127 -0.7675  0.2696  0.1816
  323MOL0     C43493   8.038   3.742   5.202  0.4416  0.2056  0.1181
  323MOL0     O43494   8.135   3.750   5.311 -0.3786  0.3601 -0.1373
  323MOL0     C43495   8.257   3.783   5.274 -0.6408  0.4878 -0.0986
  323MOL0     C43496   8.288   3.909   5.225 -0.4273 -0.2564 -0.3535
  323MOL0     C43497   8.420   3.961   5.213 -0.2851  0.7075 -0.1861
  323MOL0     C43498   8.441   4.095   5.150  0.6883 -0.0362  0.4208
  323MOL0     C43499   8.535   3.882   5.264  0.5547  0.8139 -1.0796
  323MOL0     C43500   8.679   3.929   5.270  0.1699 -0.1159 -0.0781
  323MOL0     O43501   8.777   3.831   5.279  0.3821 -0.0038 -0.9009
  323MOL0     C43502   8.908   3.852   5.280 -0.2996 -0.2680  0.3157
  323MOL0     C43503   8.972   3.968   5.219  1.3104  0.0187  0.2796
  323MOL0     C43504   9.109   3.989   5.236 -0.2341  0.5065 -0.2138
  323MOL0     C43505   9.184   3.892   5.310 -0.2864 -1.1125 -0.4018
  323MOL0     O43506   9.324   3.900   5.316 -0.0626 -0.2848  0.2643
  323MOL0     C43507   9.412   3.791   5.286  0.7911 -0.0595  0.4934
  323MOL0     C43508   9.541   3.823   5.350 -0.6409 -0.2358  0.0556
  323MOL0     C43509   9.641   3.704   5.332 -0.3944  0.1666 -0.4168
  323MOL0     C43510   9.784   3.745   5.390  0.4806 -0.4254  0.8947
  323MOL0     C43511   9.853   3.831   5.288  0.3545  0.2809 -0.6993
  323MOL0     C43512   9.978   3.906   5.354  1.0100 -0.2016 -0.5291
  323MOL0     C43513  10.076   3.801   5.404  0.7393  0.0252 -0.6531
  323MOL0     C43514  10.219   3.827   5.357  0.4078 -1.0214 -0.7516
  323MOL0    Cl43515  10.343   3.810   5.491  0.0147  0.0903  0.2540
  323MOL0     C43516   9.125   3.769   5.353  0.6746  0.0071 -0.0102
  323MOL0     C43517   8.991   3.748   5.337 -0.0213 -0.4746  0.4408
  323MOL0     O43518   8.693   4.054   5.285 -0.0197  0.0531  0.1570
  323MOL0     C43519   8.499   3.751   5.316  0.0713  0.0466 -0.0393
  323MOL0     C43520   8.363   3.708   5.330  0.3952 -0.7383  0.5703
  323MOL0     N43521   8.183   3.363   4.966  1.0645  0.1071 -0.6856
  323MOL0     N43522   8.285   3.339   4.890 -0.2815 -0.4159  0.1539
  323MOL0     C43523   9.212   3.486   3.981  0.4259 -0.6017  0.0772
  323MOL0     C43524   9.346   3.447   4.008 -0.4539  0.7852 -0.3773
  323MOL0     C43525   9.757   3.268   4.110  0.0311 -0.8769 -0.0273
  323MOL0     C43526   9.876   3.333   4.099  1.1828 -0.4238 -0.3144
  323MOL0     C43527  10.001   3.278   4.135  0.1342 -0.4613 -0.2136
  323MOL0     C43528  10.010   3.152   4.193 -0.4775 -0.4643  0.6535
  323MOL0     O43529  10.125   3.096   4.236 -0.7553  0.0573 -0.1570
  323MOL0     C43530  10.254   3.149   4.190  0.5967 -0.0196 -0.1188
  323MOL0     C43531  10.352   3.043   4.250  0.5194 -0.2177 -0.2351
  323MOL0     C43532  10.307   2.989   4.387 -0.4365  0.1419  0.2018
  323MOL0     C43533  10.419   2.916   4.463  0.1744  0.0299  0.0237
  323MOL0     C43534  10.504   3.014   4.538  0.0593  0.1118 -0.6438
  323MOL0     C43535  10.587   3.075   4.599  0.4659 -0.1064  0.4664
  323MOL0     C43536   9.891   3.080   4.199 -0.4026  0.7298  0.3351
  323MOL0     C43537   9.767   3.137   4.172 -0.5598 -0.5061 -0.4893
  323MOL0     H43538   9.296   3.145   4.139 -1.6537 -2.2608 -3.6472
  323MOL0     H43539   9.062   3.222   4.109  1.7047 -1.3582 -0.2206
  323MOL0     H43540   8.883   3.307   4.117  0.9159 -0.2832 -2.0830
  323MOL0     H43541   8.911   3.466   4.196 -1.0528  0.2601  0.8169
  323MOL0     H43542   8.755   3.558   4.001  1.8124  0.5246 -0.2835
  323MOL0     H43543   8.696   3.377   4.013  1.6643 -0.8300 -1.0509
  323MOL0     H43544   8.731   3.556   4.255 -0.6450  2.5734 -0.8334
  323MOL0     H43545   8.594   3.585   4.149 -0.8918 -0.6802  0.9194
  323MOL0     H43546   8.535   3.332   4.180 -1.9000  1.6639  0.9076
  323MOL0     H43547   8.685   3.326   4.279 -0.5471 -0.7906  0.6058
  323MOL0     H43548   8.575   3.517   4.420 -2.0285 -0.5037  3.2621
  323MOL0     H43549   8.430   3.494   4.329 -2.4061 -1.0799  3.3856
  323MOL0     H43550   8.404   3.271   4.385  0.7057  0.4612 -0.0655
  323MOL0     H43551   8.546   3.279   4.502  0.5092  0.4221 -1.4033
  323MOL0     H43552   8.444   3.459   4.618  0.5152  0.7544 -0.2279
  323MOL0     H43553   8.299   3.451   4.520 -0.7306 -1.0073  1.2669
  323MOL0     H43554   8.398   3.222   4.680 -2.5433 -1.5983  1.7685
  323MOL0     H43555   8.248   3.222   4.574 -2.3828 -2.3150  2.6466
  323MOL0     H43556   8.052   3.399   4.661 -1.3430 -2.7000  0.4810
  323MOL0     H43557   7.870   3.446   4.859  0.1471  1.0780 -1.4620
  323MOL0     H43558   7.915   3.384   5.019  1.3934  1.5713  1.5148
  323MOL0     H43559   7.859   3.627   5.044  1.4130  0.9525  1.8736
  323MOL0     H43560   8.006   3.651   4.927  5.6715 -2.8032  1.7000
  323MOL0     H43561   8.156   3.597   5.096 -0.3452 -0.9933  1.7361
  323MOL0     H43562   8.045   3.526   5.205  1.7990 -2.0109 -1.6439
  323MOL0     H43563   7.940   3.753   5.248  0.8452  0.5197  0.9254
  323MOL0     H43564   8.036   3.821   5.126  3.3400  0.5226  0.2484
  323MOL0     H43565   8.210   3.982   5.206 -0.0203  0.1163 -0.6133
  323MOL0     H43566   8.508   4.091   5.064 -0.5871  1.4930 -0.6973
  323MOL0     H43567   8.343   4.140   5.129 -0.0504 -1.3293  0.9403
  323MOL0     H43568   8.478   4.165   5.225 -1.2367  1.1877  0.3091
  323MOL0     H43569   8.910   4.047   5.178 -0.4868 -0.4203  1.9908
  323MOL0     H43570   9.162   4.074   5.194  0.4038  1.7112  2.7853
  323MOL0     H43571   9.379   3.695   5.326  2.5203 -0.0232  2.0977
  323MOL0     H43572   9.412   3.767   5.179 -1.2552 -1.8083  0.8049
  323MOL0     H43573   9.579   3.907   5.292  1.3009 -1.6379 -0.8295
  323MOL0     H43574   9.526   3.861   5.452  2.8233 -0.1729  0.6547
  323MOL0     H43575   9.661   3.672   5.229  1.0895 -1.3418  0.2936
  323MOL0     H43576   9.605   3.625   5.400  0.9971 -0.5989 -0.5381
  323MOL0     H43577   9.769   3.800   5.483 -0.6722 -1.4475  1.3389
  323MOL0     H43578   9.843   3.660   5.425 -0.1583  0.0267  3.2381
  323MOL0     H43579   9.789   3.904   5.237 -1.4575  0.7818  2.0412
  323MOL0     H43580   9.888   3.764   5.209  1.9358  0.2919 -0.0348
  323MOL0     H43581  10.018   3.972   5.276 -2.0868 -0.1512 -2.2085
  323MOL0     H43582   9.947   3.978   5.431  4.0202 -0.4411  1.0913
  323MOL0     H43583  10.053   3.699   5.371 -0.1219 -0.5364  1.5351
  323MOL0     H43584  10.062   3.803   5.512 -2.0023  0.6046 -0.9555
  323MOL0     H43585  10.230   3.928   5.317  2.3129 -0.6924  0.4495
  323MOL0     H43586  10.244   3.761   5.274 -0.2936 -2.5384  0.1868
  323MOL0     H43587   9.185   3.694   5.404  0.9400 -0.2436 -0.6745
  323MOL0     H43588   8.946   3.661   5.384  1.9097  0.4022  4.3071
  323MOL0     H43589   8.576   3.680   5.344  0.6069  0.2451 -0.9599
  323MOL0     H43590   8.338   3.621   5.389 -3.3957 -1.5901 -1.9567
  323MOL0     H43591   9.189   3.573   3.921  0.7522 -0.6423 -0.1108
  323MOL0     H43592   9.418   3.520   3.973  0.2291 -0.9448 -2.8768
  323MOL0     H43593   9.876   3.432   4.053 -0.0660 -0.7538 -1.0811
  323MOL0     H43594  10.081   3.349   4.116 -1.5335  1.5088 -0.2361
  323MOL0     H43595  10.256   3.152   4.081 -0.9505  0.6437 -0.1608
  323MOL0     H43596  10.273   3.250   4.229 -1.8526  1.0336 -1.3843
  323MOL0     H43597  10.451   3.087   4.266  0.4862  0.3604 -1.5276
  323MOL0     H43598  10.355   2.962   4.177 -4.4294 -0.4327 -0.5669
  323MOL0     H43599  10.246   2.900   4.369  2.2582 -1.5955 -1.1397
  323MOL0     H43600  10.261   3.065   4.451  0.6567 -1.3016  2.9002
  323MOL0     H43601  10.477   2.857   4.392  2.2415 -0.8377  2.2762
  323MOL0     H43602  10.381   2.843   4.535  0.6963 -0.9107 -0.6374
  323MOL0     H43603  10.651   3.148   4.646  1.9403 -1.1227  0.1182
  323MOL0     H43604   9.895   2.985   4.252 -3.8248  1.0921  1.4927
  323MOL0     H43605   9.671   3.089   4.186 -1.2856  0.1169 -2.9915
  324MOL0     O43606   3.408   4.368   9.441  0.3085 -0.2702  0.1605
  324MOL0     C43607   3.448   4.461   9.516 -0.7282 -0.6425 -0.4045
  324MOL0     O43608   3.385   4.572   9.548  0.4479 -0.6190  0.4585
  324MOL0     C43609   3.267   4.589   9.497  0.6342 -0.8068 -0.1685
  324MOL0     C43610   3.234   4.614   9.363 -0.1966  0.8588  0.2394
  324MOL0     C43611   3.101   4.612   9.330 -0.0658  0.2352 -0.3729
  324MOL0     C43612   2.997   4.597   9.421  0.5060 -1.4869 -0.0515
  324MOL0     O43613   2.867   4.604   9.382 -0.1123  0.2491  0.4061
  324MOL0     C43614   2.776   4.501   9.404  0.2004  0.0543 -0.5696
  324MOL0     C43615   2.741   4.444   9.273 -0.5223 -0.1870 -0.0135
  324MOL0     C43616   2.645   4.539   9.192  0.9446 -0.4237  0.0256
  324MOL0     C43617   2.592   4.481   9.059 -0.0884  0.3044 -0.1383
  324MOL0     C43618   2.706   4.441   8.960 -0.2525 -0.9942 -0.1093
  324MOL0     C43619   2.658   4.383   8.825 -0.2982 -0.1864 -0.8500
  324MOL0     C43620   2.775   4.375   8.730  0.5527  0.0003  0.4807
  324MOL0     C43621   2.734   4.307   8.601  0.4823 -0.1073  0.1675
  324MOL0     N43622   2.673   4.385   8.484  0.6092 -0.5323  0.1274
  324MOL0     C43623   2.738   4.495   8.432 -0.3684  0.1661  0.0553
  324MOL0     C43624   2.652   4.530   8.334  0.6866  0.0593 -0.2501
  324MOL0     C43625   2.673   4.657   8.257  0.0757 -0.5028 -0.1870
  324MOL0     C43626   2.550   4.691   8.166 -0.1723  0.0867 -0.4482
  324MOL0     C43627   2.555   4.823   8.104 -0.6228  0.0899 -0.2638
  324MOL0     C43628   2.510   4.927   8.201 -0.1485  0.2477  0.3476
  324MOL0     O43629   2.417   5.020   8.143 -0.5104 -0.2106 -0.3901
  324MOL0     C43630   2.460   5.109   8.044  0.2510 -0.7246  0.1457
  324MOL0     C43631   2.359   5.184   7.990  0.1538  0.6693 -0.5228
  324MOL0     C43632   2.373   5.277   7.888  0.1288 -0.9565 -0.1301
  324MOL0     C43633   2.248   5.345   7.843 -0.1399  0.5551 -1.2553
  324MOL0     C43634   2.501   5.307   7.844 -0.4253  0.3340  0.5370
  324MOL0     C43635   2.543   5.393   7.733 -0.3948 -0.7536 -0.2962
  324MOL0     O43636   2.437   5.440   7.666  0.5907 -0.0465  0.4251
  324MOL0     C43637   2.466   5.508   7.546  0.9569 -0.4509  0.0882
  324MOL0     C43638   2.563   5.619   7.526  0.5321 -0.0557  0.3851
  324MOL0     C43639   2.572   5.691   7.401 -0.8817 -0.4005 -0.2934
  324MOL0     C43640   2.502   5.648   7.286 -0.2571  0.4312  0.7301
  324MOL0     O43641   2.512   5.707   7.163 -0.2725  0.1168  0.5287
  324MOL0     C43642   2.569   5.625   7.066 -0.2328  0.7494  0.7163
  324MOL0     C43643   2.587   5.715   6.953  1.5727 -0.4853 -0.3900
  324MOL0     C43644   2.439   5.756   6.897 -0.2500 -0.1529 -0.7265
  324MOL0     C43645   2.417   5.907   6.889  0.5920 -0.7146  0.2671
  324MOL0     C43646   2.288   5.953   6.827  0.6223  0.2842  0.5658
  324MOL0     C43647   2.168   5.858   6.833  1.2441  0.3944 -0.2594
  324MOL0     C43648   2.117   5.860   6.974  0.1662 -0.4759 -0.2447
  324MOL0     C43649   1.991   5.787   6.982 -0.7914 -0.1453  0.2053
  324MOL0    Cl43650   1.952   5.760   7.150 -0.2550  0.4885 -0.2047
  324MOL0     C43651   2.396   5.552   7.313 -0.6451 -1.4663  0.2708
  324MOL0     C43652   2.382   5.485   7.433  0.3269  0.8275 -0.5013
  324MOL0     O43653   2.659   5.418   7.711  0.2542  0.7243  0.1843
  324MOL0     C43654   2.606   5.225   7.895  0.3496 -0.3403  0.6966
  324MOL0     C43655   2.582   5.131   7.991  0.0866  0.1828 -0.5723
  324MOL0     N43656   2.549   4.437   8.318 -0.0550 -1.0662  0.0667
  324MOL0     N43657   2.562   4.355   8.417  0.3807  0.0632  0.5932
  324MOL0     C43658   3.022   4.580   9.559  0.3084 -0.0556  0.0007
  324MOL0     C43659   3.158   4.578   9.592 -0.6239  0.2003 -0.6759
  324MOL0     C43660   3.583   4.441   9.584 -0.1166  0.0968 -0.3717
  324MOL0     C43661   3.640   4.547   9.667 -0.1952  0.2223  0.6097
  324MOL0     C43662   3.736   4.514   9.760  0.0203  0.7002  0.8601
  324MOL0     C43663   3.797   4.389   9.757 -0.0445 -0.2225 -0.1119
  324MOL0     O43664   3.901   4.374   9.852  1.0410 -0.7005  0.9610
  324MOL0     C43665   4.009   4.285   9.829 -0.1123  0.3612  0.3916
  324MOL0     C43666   4.126   4.336   9.731  0.0266  0.6865 -0.0507
  324MOL0     C43667   4.194   4.463   9.771 -0.3390  0.7789 -1.1187
  324MOL0     C43668   4.333   4.500   9.716  0.0286  0.4241  0.4934
  324MOL0     C43669   4.424   4.397   9.754 -0.9591 -1.2287  0.9510
  324MOL0     C43670   4.494   4.291   9.756  0.1921 -0.3557 -0.5232
  324MOL0     C43671   3.759   4.292   9.670 -0.8467 -0.0233  0.4136
  324MOL0     C43672   3.654   4.318   9.588  0.8613  0.0052  0.8425
  324MOL0     H43673   3.306   4.604   9.281 -0.5012 -0.4741  0.1096
  324MOL0     H43674   3.068   4.621   9.227  1.3664 -0.4503 -0.9159
  324MOL0     H43675   2.828   4.422   9.460 -1.9321 -1.7882 -1.0378
  324MOL0     H43676   2.689   4.533   9.462  1.3893 -0.1190  1.4356
  324MOL0     H43677   2.838   4.420   9.228  0.8753  1.4432  1.8981
  324MOL0     H43678   2.686   4.349   9.273 -4.0084  1.6647 -1.2114
  324MOL0     H43679   2.564   4.566   9.261  0.5252  2.8128 -1.5238
  324MOL0     H43680   2.709   4.626   9.174  2.7821 -1.5677  0.7674
  324MOL0     H43681   2.519   4.402   9.077 -1.7894  1.3735 -1.9837
  324MOL0     H43682   2.531   4.557   9.010 -1.0240 -1.1242 -1.2641
  324MOL0     H43683   2.760   4.531   8.930 -0.6207 -1.5162 -2.6057
  324MOL0     H43684   2.781   4.383   9.014 -0.6922 -1.0018  0.4885
  324MOL0     H43685   2.615   4.284   8.845  0.3914 -0.6335 -1.4881
  324MOL0     H43686   2.582   4.448   8.780 -1.6365 -1.9872 -1.3210
  324MOL0     H43687   2.794   4.483   8.726 -1.8995  0.4953  0.3907
  324MOL0     H43688   2.864   4.331   8.776  1.8853  1.9305 -0.1321
  324MOL0     H43689   2.656   4.231   8.613  0.9208 -0.6293 -0.2586
  324MOL0     H43690   2.822   4.256   8.561  1.2540  1.4922 -0.2532
  324MOL0     H43691   2.823   4.554   8.464 -0.1412 -0.1110 -0.0406
  324MOL0     H43692   2.697   4.734   8.331  0.2311 -0.1271 -0.6261
  324MOL0     H43693   2.765   4.665   8.199 -1.2401  0.9930 -2.2150
  324MOL0     H43694   2.459   4.688   8.227 -0.6414 -2.3244 -1.1688
  324MOL0     H43695   2.546   4.611   8.092  1.2656 -2.7883  2.2933
  324MOL0     H43696   2.490   4.823   8.016  1.1495 -4.2616 -1.8458
  324MOL0     H43697   2.656   4.844   8.068 -0.3345 -0.0038  0.4898
  324MOL0     H43698   2.597   4.979   8.242 -1.8858  1.0652  3.3315
  324MOL0     H43699   2.455   4.881   8.284  0.3670  0.3837  0.7703
  324MOL0     H43700   2.258   5.164   8.023 -0.1721  1.1475 -1.2027
  324MOL0     H43701   2.153   5.316   7.888 -0.1300 -2.0032 -2.6822
  324MOL0     H43702   2.254   5.452   7.863 -3.5110  0.7339 -0.6484
  324MOL0     H43703   2.236   5.323   7.737  0.3778 -0.8075 -1.0525
  324MOL0     H43704   2.630   5.650   7.606  1.8863  0.4714 -0.8945
  324MOL0     H43705   2.638   5.774   7.377 -2.2990  1.0129  0.4497
  324MOL0     H43706   2.671   5.596   7.090  0.5469  3.8954  1.7967
  324MOL0     H43707   2.508   5.541   7.032 -1.8067  2.4341 -0.9086
  324MOL0     H43708   2.633   5.810   6.984 -2.0965  0.9030  1.3841
  324MOL0     H43709   2.635   5.661   6.870 -1.8538 -0.5617 -2.4826
  324MOL0     H43710   2.365   5.702   6.957  1.4316  3.3505  5.5074
  324MOL0     H43711   2.434   5.718   6.795 -2.4443 -3.5339  0.4567
  324MOL0     H43712   2.423   5.952   6.988  2.9761  2.1162 -1.0228
  324MOL0     H43713   2.505   5.946   6.837 -0.2254 -0.5493 -1.0368
  324MOL0     H43714   2.304   5.968   6.720 -1.2106  1.9161  0.4873
  324MOL0     H43715   2.252   6.051   6.857 -2.9755 -0.0992 -1.8680
  324MOL0     H43716   2.088   5.877   6.761 -2.1279 -0.5787  2.8897
  324MOL0     H43717   2.192   5.755   6.806 -1.5139 -0.0644 -1.3632
  324MOL0     H43718   2.096   5.960   7.011  0.9674 -0.8371  1.2888
  324MOL0     H43719   2.185   5.817   7.049 -0.5008 -0.0840  0.6127
  324MOL0     H43720   1.983   5.690   6.933 -4.5032  0.8130 -1.4553
  324MOL0     H43721   1.907   5.845   6.942  0.6030  2.7128  1.1200
  324MOL0     H43722   2.322   5.516   7.243 -3.9046 -1.3612  3.3868
  324MOL0     H43723   2.306   5.410   7.451  1.7082 -0.2750  1.1549
  324MOL0     H43724   2.708   5.241   7.861 -0.1029 -1.2134 -1.1643
  324MOL0     H43725   2.667   5.077   8.033 -1.6166 -0.3253  2.5281
  324MOL0     H43726   2.942   4.569   9.631  0.4440 -1.7069 -0.0706
  324MOL0     H43727   3.178   4.554   9.696 -0.6093 -0.5674 -0.8477
  324MOL0     H43728   3.591   4.643   9.667 -1.9190 -0.6069  0.9628
  324MOL0     H43729   3.775   4.590   9.827  0.9541  0.7103  0.3247
  324MOL0     H43730   4.058   4.249   9.921  0.8851 -2.2735 -1.0561
  324MOL0     H43731   3.979   4.190   9.784  1.3762  0.6447 -1.3276
  324MOL0     H43732   4.080   4.349   9.633 -0.8000 -0.6665  0.1282
  324MOL0     H43733   4.201   4.257   9.720 -0.2513  0.5230 -0.8116
  324MOL0     H43734   4.199   4.474   9.880  1.0680  1.2833 -1.2096
  324MOL0     H43735   4.132   4.545   9.734  1.3044  1.7476 -1.8682
  324MOL0     H43736   4.351   4.601   9.753  0.6342  0.2247  0.7621
  324MOL0     H43737   4.325   4.496   9.607 -0.3477 -1.3388  0.5541
  324MOL0     H43738   4.548   4.200   9.770  0.6943  0.2399  1.7729
  324MOL0     H43739   3.808   4.195   9.675  1.4255  1.1443  3.2538
  324MOL0     H43740   3.605   4.236   9.536 -1.0003  0.5963  1.5652
  325MOL0     O43741   5.428  10.424   7.151  0.5810 -0.3660 -0.5954
  325MOL0     C43742   5.532  10.427   7.222 -0.0197 -0.0234  0.3469
  325MOL0     O43743   5.593  10.530   7.275  1.0546 -0.5507  0.1652
  325MOL0     C43744   5.538  10.655   7.261  0.6438 -0.0848  0.3710
  325MOL0     C43745   5.632  10.755   7.255  0.8427 -0.2535 -0.4749
  325MOL0     C43746   5.579  10.883   7.251  0.1579 -0.4838  0.1544
  325MOL0     C43747   5.440  10.908   7.263  0.4309  0.1646 -0.2589
  325MOL0     O43748   5.393  11.043   7.263 -0.0379 -0.0477 -0.6029
  325MOL0     C43749   5.455  11.130   7.175  0.4329 -0.9506  0.5581
  325MOL0     C43750   5.378  11.265   7.176 -1.6237  0.6073 -0.2534
  325MOL0     C43751   5.445  11.381   7.253  0.3360  0.1883  0.4720
  325MOL0     C43752   5.347  11.503   7.228 -0.8390  0.2874 -0.3830
  325MOL0     C43753   5.424  11.629   7.278  0.5136 -0.8132 -0.0522
  325MOL0     C43754   5.348  11.763   7.242  0.1311  0.6207  0.4348
  325MOL0     C43755   5.386  11.884   7.323  0.3891 -0.2552  0.4111
  325MOL0     C43756   5.271  11.966   7.392 -0.0028  0.6503  0.7299
  325MOL0     N43757   5.212  12.056   7.294 -1.1210 -0.3022  0.2052
  325MOL0     C43758   5.178  12.180   7.337 -0.6143 -0.3878 -0.2274
  325MOL0     C43759   5.111  12.241   7.245  0.1026 -0.4532  0.8117
  325MOL0     C43760   5.060  12.384   7.238  0.0638  0.3676 -0.6310
  325MOL0     C43761   4.939  12.424   7.329  1.4984 -0.5495 -0.0675
  325MOL0     C43762   4.910  12.570   7.318 -0.2734 -0.2469  0.2103
  325MOL0     C43763   4.804  12.613   7.213 -0.4609  0.8036 -0.0272
  325MOL0     O43764   4.675  12.548   7.217 -0.5272 -0.8934  0.8910
  325MOL0     C43765   4.563  12.620   7.262  0.7371 -0.9322 -0.6766
  325MOL0     C43766   4.440  12.579   7.203 -0.1428  0.2012  0.0779
  325MOL0     C43767   4.320  12.651   7.220 -1.0267 -0.3668 -0.0193
  325MOL0     C43768   4.201  12.614   7.147 -0.1274  0.5108 -0.6159
  325MOL0     C43769   4.320  12.769   7.294  0.0942 -0.3609 -0.6197
  325MOL0     C43770   4.197  12.857   7.308 -0.3819  0.1881  0.0680
  325MOL0     O43771   4.071  12.800   7.329 -0.0761 -0.1260  0.4020
  325MOL0     C43772   3.965  12.885   7.325 -0.4557  0.2862  0.0463
  325MOL0     C43773   3.887  12.910   7.436  0.3116 -1.2903  0.3218
  325MOL0     C43774   3.764  12.972   7.431 -0.7338 -1.1759  0.5653
  325MOL0     C43775   3.716  13.018   7.303 -0.4149  0.0741 -0.0046
  325MOL0     O43776   3.593  13.075   7.299 -0.7520 -0.1987  0.1235
  325MOL0     C43777   3.487  12.985   7.340 -0.2592 -0.1670 -0.2232
  325MOL0     C43778   3.392  12.980   7.218 -0.2901 -0.6475  0.4541
  325MOL0     C43779   3.281  12.884   7.229  0.3175 -0.0426  0.1300
  325MOL0     C43780   3.172  12.948   7.321  0.1437 -0.0883 -0.4319
  325MOL0     C43781   3.045  12.856   7.324  0.5594 -0.7119 -0.5706
  325MOL0     C43782   2.932  12.894   7.429 -0.3403 -0.8459 -0.0464
  325MOL0     C43783   2.897  13.041   7.413 -0.2800 -0.6710 -0.4362
  325MOL0     C43784   2.779  13.080   7.512 -0.8261  0.2734  0.6859
  325MOL0    Cl43785   2.642  12.977   7.493 -0.3952  0.0928 -0.1005
  325MOL0     C43786   3.795  12.988   7.192  0.5651 -0.6595  0.4560
  325MOL0     C43787   3.912  12.914   7.196  0.3407 -0.2469 -0.1739
  325MOL0     O43788   4.220  12.976   7.302  0.1131 -0.5225 -0.2267
  325MOL0     C43789   4.442  12.807   7.363  0.4501  0.6018  0.1191
  325MOL0     C43790   4.563  12.738   7.340 -0.2603 -0.3381 -0.0236
  325MOL0     N43791   5.112  12.151   7.137  0.1524  0.0696 -0.0625
  325MOL0     N43792   5.159  12.038   7.176  0.1170 -0.1377  0.0117
  325MOL0     C43793   5.351  10.807   7.280  0.3400 -0.8086 -0.1911
  325MOL0     C43794   5.399  10.685   7.284 -0.4271 -0.4385 -0.2219
  325MOL0     C43795   5.599  10.293   7.260  0.3236  0.0090  1.1220
  325MOL0     C43796   5.720  10.296   7.340  0.8092  0.2039  0.2245
  325MOL0     C43797   5.788  10.173   7.374 -0.0153 -0.6014  0.2282
  325MOL0     C43798   5.740  10.045   7.334 -0.1665  0.0921 -0.1805
  325MOL0     O43799   5.803   9.922   7.354  0.3270 -0.2926  0.2409
  325MOL0     C43800   5.919   9.916   7.444  0.7288 -0.0940  0.2888
  325MOL0     C43801   5.957   9.784   7.495  0.2404 -0.4484  0.2813
  325MOL0     C43802   5.861   9.724   7.594 -0.2890  0.5042 -0.7193
  325MOL0     C43803   5.923   9.615   7.682  0.5033 -0.4461 -0.2591
  325MOL0     C43804   6.029   9.675   7.782  0.6968 -0.5533  1.3981
  325MOL0     C43805   6.119   9.708   7.851  0.8663  0.2444  0.5128
  325MOL0     C43806   5.632  10.052   7.251  0.8144  0.1847  0.0185
  325MOL0     C43807   5.556  10.164   7.227  0.4813 -0.1785  0.3346
  325MOL0     H43808   5.739  10.744   7.249  1.0743 -1.3526  3.0551
  325MOL0     H43809   5.646  10.967   7.234 -2.3379  1.3055 -1.5550
  325MOL0     H43810   5.554  11.160   7.212  0.4093  3.9083 -2.4227
  325MOL0     H43811   5.467  11.100   7.071 -0.5208 -0.0207  0.1654
  325MOL0     H43812   5.369  11.304   7.074  2.9456 -4.1230 -2.9516
  325MOL0     H43813   5.283  11.257   7.230 -0.4391 -1.5240  1.7230
  325MOL0     H43814   5.461  11.350   7.356  0.2671 -0.6879  0.2254
  325MOL0     H43815   5.544  11.409   7.214  0.8121 -1.2032  0.6094
  325MOL0     H43816   5.329  11.508   7.120  1.0404 -4.3737 -1.1628
  325MOL0     H43817   5.255  11.487   7.284 -0.9406 -4.1294 -1.4177
  325MOL0     H43818   5.451  11.632   7.384  3.3625 -1.9046 -0.6420
  325MOL0     H43819   5.517  11.628   7.220  0.8886  1.9778  0.3736
  325MOL0     H43820   5.353  11.786   7.136 -0.8614  2.6275  0.7750
  325MOL0     H43821   5.242  11.741   7.259 -0.4532  0.7339 -2.5612
  325MOL0     H43822   5.452  11.854   7.405  1.6897  3.0077  0.7061
  325MOL0     H43823   5.460  11.944   7.270  1.1218 -1.8350 -0.4335
  325MOL0     H43824   5.318  12.017   7.476  2.2613 -1.1392  0.6333
  325MOL0     H43825   5.202  11.892   7.432 -1.5550  1.9849  0.6610
  325MOL0     H43826   5.192  12.223   7.436  0.8394 -1.9338  0.2800
  325MOL0     H43827   5.144  12.449   7.262 -0.9590  1.2061  0.8549
  325MOL0     H43828   5.038  12.402   7.133  0.4130  2.0481 -0.4293
  325MOL0     H43829   4.955  12.389   7.431  2.2840 -2.0354 -0.6775
  325MOL0     H43830   4.853  12.370   7.287  2.1242 -1.0472 -0.7338
  325MOL0     H43831   5.003  12.625   7.301  0.0113 -0.8166 -0.0919
  325MOL0     H43832   4.873  12.590   7.419  0.0218 -2.7379  0.8595
  325MOL0     H43833   4.847  12.581   7.118 -0.7205 -1.1438  0.4585
  325MOL0     H43834   4.789  12.721   7.215  0.9416  1.0374 -1.2930
  325MOL0     H43835   4.425  12.487   7.149 -1.3827 -2.2994  4.1971
  325MOL0     H43836   4.179  12.692   7.073 -0.2703  0.4447 -0.6425
  325MOL0     H43837   4.234  12.524   7.094  0.8365  0.1898  0.4877
  325MOL0     H43838   4.118  12.588   7.213 -0.6272  1.8002 -0.7277
  325MOL0     H43839   3.921  12.867   7.530 -2.8515 -2.2403  1.1577
  325MOL0     H43840   3.706  12.985   7.522 -1.1470  2.7779 -0.0962
  325MOL0     H43841   3.522  12.890   7.381  0.3707  0.4899  0.8004
  325MOL0     H43842   3.440  13.034   7.426  1.8021  2.1634 -0.3209
  325MOL0     H43843   3.353  13.079   7.193 -0.1742 -1.5185 -4.0285
  325MOL0     H43844   3.441  12.943   7.127 -0.7150  1.7645 -0.8492
  325MOL0     H43845   3.314  12.785   7.261  0.8451 -0.3820 -1.3718
  325MOL0     H43846   3.242  12.867   7.128  0.1112 -3.6144  0.6674
  325MOL0     H43847   3.201  12.956   7.426 -0.5432 -1.0005 -0.1594
  325MOL0     H43848   3.148  13.048   7.284 -0.1748  0.2509  0.6408
  325MOL0     H43849   3.086  12.756   7.345 -3.4463 -1.9217  2.7529
  325MOL0     H43850   2.996  12.850   7.227 -0.7356 -1.9304  0.1338
  325MOL0     H43851   2.848  12.826   7.417 -0.3249 -1.6887  3.6603
  325MOL0     H43852   2.962  12.886   7.534 -1.0634  1.3234  0.3855
  325MOL0     H43853   2.879  13.052   7.306  0.8027  2.6313 -0.3887
  325MOL0     H43854   2.983  13.104   7.438 -0.7171 -1.1677  2.9040
  325MOL0     H43855   2.740  13.182   7.499 -2.6002 -0.6991 -3.1661
  325MOL0     H43856   2.826  13.067   7.610  5.2262 -1.1563 -1.9562
  325MOL0     H43857   3.755  13.014   7.095  0.8995 -1.5093  0.0809
  325MOL0     H43858   3.962  12.885   7.104 -1.1864  2.3869 -1.9930
  325MOL0     H43859   4.441  12.902   7.415 -0.8671  1.2823 -1.0800
  325MOL0     H43860   4.661  12.771   7.372  0.3464 -2.0747  0.0096
  325MOL0     H43861   5.248  10.838   7.286  1.1004  2.3033 -1.4214
  325MOL0     H43862   5.334  10.597   7.287 -0.4113 -0.5465 -1.8331
  325MOL0     H43863   5.756  10.392   7.374 -2.0928  1.4346  0.1235
  325MOL0     H43864   5.883  10.175   7.427 -1.1535 -1.6379  2.4508
  325MOL0     H43865   6.002   9.977   7.407 -0.5197  0.5163 -1.6742
  325MOL0     H43866   5.897   9.971   7.537  0.2246  3.7818 -1.9035
  325MOL0     H43867   6.057   9.783   7.540 -0.1538 -3.3379  1.3308
  325MOL0     H43868   5.965   9.715   7.410 -0.2523  1.0590 -1.0365
  325MOL0     H43869   5.772   9.675   7.554  0.4835 -2.2916  0.7203
  325MOL0     H43870   5.838   9.806   7.662  0.2887  1.0585 -1.1740
  325MOL0     H43871   5.966   9.537   7.618  3.8135  0.6528  0.3872
  325MOL0     H43872   5.847   9.569   7.744  1.8715 -0.8117  1.2136
  325MOL0     H43873   6.205   9.734   7.908  1.1889  0.3903 -0.0295
  325MOL0     H43874   5.589   9.959   7.214  1.1078  1.3009 -3.4426
  325MOL0     H43875   5.489  10.149   7.143  2.4290 -2.7496 -0.8806
  326MOL0     O43876   0.904   8.980  11.023 -0.8457  0.4677 -0.1485
  326MOL0     C43877   0.918   8.863  11.064  0.1720 -0.4715 -0.6261
  326MOL0     O43878   1.035   8.805  11.087 -0.5001 -0.8376 -0.9663
  326MOL0     C43879   1.151   8.880  11.103 -0.7129  0.1956  0.5364
  326MOL0     C43880   1.148   9.001  11.162 -0.3750  0.0338  0.2660
  326MOL0     C43881   1.269   9.068  11.182  0.3181  0.5204 -0.3249
  326MOL0     C43882   1.389   9.012  11.129  0.4500  0.8384 -0.8615
  326MOL0     O43883   1.509   9.070  11.135 -0.4869  0.4799  0.8660
  326MOL0     C43884   1.597   9.055  11.244  0.2719 -0.1739  0.0394
  326MOL0     C43885   1.720   8.961  11.214  0.2667  0.4488  0.0894
  326MOL0     C43886   1.818   9.008  11.103  0.2702 -1.3195 -0.9017
  326MOL0     C43887   1.919   9.113  11.142  0.3221 -0.3790  1.2135
  326MOL0     C43888   2.022   9.057  11.245  0.3738  0.8400  0.7537
  326MOL0     C43889   2.100   8.953  11.169 -0.6357 -0.5625 -0.2439
  326MOL0     C43890   2.215   8.878  11.251  0.1409  0.0456 -0.6044
  326MOL0     C43891   2.347   8.960  11.246 -0.2088 -0.2767 -0.2387
  326MOL0     N43892   2.454   8.868  11.296  0.4222 -0.5740  0.6175
  326MOL0     C43893   2.542   8.805  11.213 -1.2129 -0.5116 -0.1077
  326MOL0     C43894   2.634   8.758  11.310 -0.2310 -0.5480  0.1952
  326MOL0     C43895   2.754   8.672  11.267 -0.4424 -0.3361 -0.3797
  326MOL0     C43896   2.884   8.749  11.255 -1.2764 -0.5109  0.7048
  326MOL0     C43897   2.995   8.667  11.179 -0.2407 -0.1757 -0.5151
  326MOL0     C43898   3.041   8.546  11.255 -0.3175  0.2161  0.5241
  326MOL0     O43899   2.942   8.441  11.253 -0.5773  0.6844 -0.4351
  326MOL0     C43900   2.980   8.329  11.329 -0.4107 -0.5503  1.3707
  326MOL0     C43901   3.000   8.205  11.263  0.1044  0.1668 -0.6525
  326MOL0     C43902   3.032   8.096  11.338 -0.3212 -0.6683  0.2436
  326MOL0     C43903   3.040   7.971  11.258  0.6348 -0.9352  0.4523
  326MOL0     C43904   3.041   8.095  11.477  0.0439 -0.3720 -0.3614
  326MOL0     C43905   3.065   7.976  11.556  0.4356  0.6150 -0.3276
  326MOL0     O43906   2.999   7.963  11.682 -0.4901 -0.2731  0.9786
  326MOL0     C43907   3.055   7.873  11.767 -0.3250 -0.4434 -0.2065
  326MOL0     C43908   3.141   7.920  11.866 -0.3938  0.2031 -0.4762
  326MOL0     C43909   3.202   7.842  11.963  0.3818  0.4549 -0.1971
  326MOL0     C43910   3.184   7.700  11.961 -0.1465  0.2346  0.7178
  326MOL0     O43911   3.258   7.609  12.037 -0.5328 -0.3116 -0.0016
  326MOL0     C43912   3.345   7.659  12.145  0.7925  0.2197 -0.6158
  326MOL0     C43913   3.260   7.699  12.268  0.5008 -0.3595 -0.1273
  326MOL0     C43914   3.342   7.698  12.391 -0.5142  0.5735 -0.5697
  326MOL0     C43915   3.366   7.558  12.445 -0.6492 -0.2869  0.2500
  326MOL0     C43916   3.493   7.550  12.528 -0.0896  0.2663  0.1353
  326MOL0     C43917   3.520   7.411  12.594  0.2905 -0.1327  0.9211
  326MOL0     C43918   3.661   7.392  12.662 -0.5906  0.1319  0.7071
  326MOL0     C43919   3.687   7.497  12.764 -0.3890  0.2915  0.3574
  326MOL0    Cl43920   3.850   7.451  12.849 -0.0836 -0.1167  0.0459
  326MOL0     C43921   3.084   7.656  11.870  0.2949  0.8682  0.6705
  326MOL0     C43922   3.027   7.733  11.770  0.3118  0.5510 -0.8228
  326MOL0     O43923   3.142   7.895  11.517 -0.7099  0.4979 -0.2720
  326MOL0     C43924   3.013   8.216  11.544 -0.3899  0.1145  0.1041
  326MOL0     C43925   2.990   8.338  11.469 -0.1264  0.3349 -0.1704
  326MOL0     N43926   2.592   8.794  11.442 -0.8835 -0.3432  0.1501
  326MOL0     N43927   2.483   8.851  11.426 -0.0698 -0.8074  0.0249
  326MOL0     C43928   1.387   8.887  11.068 -0.4258  0.0079 -0.8130
  326MOL0     C43929   1.263   8.821  11.054  0.0668  0.4251 -0.5213
  326MOL0     C43930   0.796   8.778  11.070  1.4183 -0.6399 -0.8189
  326MOL0     C43931   0.666   8.826  11.077  0.0832  0.5291  0.1718
  326MOL0     C43932   0.560   8.732  11.083 -0.1097 -0.0420  0.2221
  326MOL0     C43933   0.573   8.592  11.063  0.1679  0.0148 -0.7759
  326MOL0     O43934   0.456   8.518  11.055 -0.0533 -0.0262 -0.4060
  326MOL0     C43935   0.469   8.378  11.070 -0.1314 -0.3540  1.0041
  326MOL0     C43936   0.337   8.325  11.008 -0.2535 -0.1828 -0.2168
  326MOL0     C43937   0.300   8.385  10.869  0.5182 -0.4978 -0.0639
  326MOL0     C43938   0.164   8.340  10.817 -1.0606 -0.6376  1.1043
  326MOL0     C43939   0.182   8.201  10.774 -0.3911 -0.3593  0.1476
  326MOL0     C43940   0.188   8.088  10.739  0.3162 -0.3253 -0.5953
  326MOL0     C43941   0.705   8.555  11.056  0.9798 -0.5961 -0.3227
  326MOL0     C43942   0.816   8.645  11.057  0.1059  0.7159 -1.4227
  326MOL0     H43943   1.052   9.037  11.199 -0.1784  0.6238  0.1940
  326MOL0     H43944   1.259   9.152  11.250 -3.2157 -3.0755  4.2316
  326MOL0     H43945   1.639   9.147  11.283  1.6729 -0.6912 -0.1928
  326MOL0     H43946   1.538   9.007  11.323 -0.3823  0.9683  0.2679
  326MOL0     H43947   1.773   8.929  11.304 -0.4752 -0.8765  0.0866
  326MOL0     H43948   1.671   8.869  11.181 -0.9137  0.3521  1.9659
  326MOL0     H43949   1.862   8.928  11.043 -1.0101 -0.9551 -2.4100
  326MOL0     H43950   1.756   9.040  11.019 -0.3615 -0.9446 -0.3080
  326MOL0     H43951   1.963   9.151  11.049  1.2258  0.0650  1.8057
  326MOL0     H43952   1.862   9.190  11.196 -1.7737 -0.4668 -0.7212
  326MOL0     H43953   2.086   9.133  11.289  0.6976  1.3997 -0.6122
  326MOL0     H43954   1.961   9.013  11.324 -1.5355  1.2716 -0.3889
  326MOL0     H43955   2.030   8.870  11.158 -0.7790 -0.4603 -0.1048
  326MOL0     H43956   2.132   8.983  11.069 -0.7547 -3.8585 -1.3829
  326MOL0     H43957   2.195   8.860  11.357  0.7931 -0.9183 -0.6337
  326MOL0     H43958   2.236   8.784  11.199 -2.2742  0.1926 -1.9911
  326MOL0     H43959   2.327   9.051  11.303 -1.4626  0.8382 -2.3326
  326MOL0     H43960   2.368   8.979  11.140  0.9020  0.2584  0.0612
  326MOL0     H43961   2.535   8.787  11.106 -1.7597 -0.1835 -0.1314
  326MOL0     H43962   2.764   8.593  11.342  0.1833 -1.3851 -1.5272
  326MOL0     H43963   2.721   8.628  11.172 -0.3067 -1.8368  0.2405
  326MOL0     H43964   2.912   8.793  11.351  0.2253  3.7426 -1.4259
  326MOL0     H43965   2.861   8.840  11.198 -1.4575  0.6960  2.6351
  326MOL0     H43966   3.087   8.727  11.182  2.4533 -3.9133 -0.9646
  326MOL0     H43967   2.964   8.635  11.079  2.8959 -3.3471 -0.6787
  326MOL0     H43968   3.063   8.578  11.358  0.3152  3.5831 -0.5367
  326MOL0     H43969   3.138   8.518  11.212 -0.3941  2.9088 -1.6453
  326MOL0     H43970   2.989   8.202  11.155  0.2644  1.6983 -0.7228
  326MOL0     H43971   2.955   7.976  11.189 -1.4233  2.4484  2.9245
  326MOL0     H43972   3.129   7.969  11.195  0.2111 -0.4404 -0.1748
  326MOL0     H43973   3.035   7.878  11.316  2.0941 -0.3902  1.5077
  326MOL0     H43974   3.163   8.026  11.870  1.4279 -0.1721  0.6018
  326MOL0     H43975   3.253   7.891  12.045 -0.3484 -0.6790  0.9791
  326MOL0     H43976   3.418   7.584  12.177  0.0270 -0.9656 -1.5372
  326MOL0     H43977   3.402   7.744  12.106  0.9463  0.0102 -0.8532
  326MOL0     H43978   3.210   7.795  12.251 -3.9736 -1.5396  4.0163
  326MOL0     H43979   3.178   7.630  12.291  2.2671 -2.3328  0.6315
  326MOL0     H43980   3.296   7.747  12.478 -2.0875 -2.5168  0.5119
  326MOL0     H43981   3.438   7.745  12.372 -0.8542  0.7909 -1.8574
  326MOL0     H43982   3.287   7.533  12.517 -0.3620 -0.5346  0.4799
  326MOL0     H43983   3.358   7.479  12.369  0.4727 -1.3775  1.2189
  326MOL0     H43984   3.480   7.618  12.613 -0.8839 -0.3786  0.5415
  326MOL0     H43985   3.567   7.587  12.456 -1.0792  1.6207 -0.2092
  326MOL0     H43986   3.444   7.396  12.672  0.1863  2.5750  1.4158
  326MOL0     H43987   3.510   7.331  12.520  1.2616 -0.6911  1.3688
  326MOL0     H43988   3.742   7.392  12.588  0.3756  1.8372  1.6927
  326MOL0     H43989   3.681   7.294  12.705  2.9792  1.7537  3.2125
  326MOL0     H43990   3.602   7.493  12.833 -0.6543  0.3309  0.0358
  326MOL0     H43991   3.704   7.596  12.720 -1.3154  0.1121 -0.4394
  326MOL0     H43992   3.062   7.550  11.864  3.4405  0.2281 -2.7601
  326MOL0     H43993   2.973   7.704  11.681  0.5528 -1.1059 -0.4534
  326MOL0     H43994   3.006   8.224  11.652  0.5587  3.3388  0.0526
  326MOL0     H43995   2.971   8.426  11.529  0.2355 -0.5867  1.3613
  326MOL0     H43996   1.481   8.852  11.028  0.2108 -1.7754  1.9655
  326MOL0     H43997   1.261   8.726  11.001 -1.6696  0.1674 -0.0755
  326MOL0     H43998   0.637   8.929  11.094 -1.3204 -0.0822  1.8516
  326MOL0     H43999   0.458   8.767  11.096 -0.9095 -1.8726 -0.7256
  326MOL0     H44000   0.545   8.336  11.003 -0.9532 -1.1894  0.5762
  326MOL0     H44001   0.486   8.345  11.173  2.4118 -0.6656  0.5640
  326MOL0     H44002   0.259   8.347  11.082  1.2708 -0.8323  1.6545
  326MOL0     H44003   0.355   8.217  11.008 -0.5764 -0.2856 -2.5415
  326MOL0     H44004   0.376   8.341  10.804 -2.3495  0.7986 -4.8502
  326MOL0     H44005   0.308   8.493  10.852 -0.0887 -0.8071 -2.8894
  326MOL0     H44006   0.130   8.398  10.731 -2.1321 -1.8414  0.6929
  326MOL0     H44007   0.090   8.353  10.897 -3.0902 -1.3996 -0.5513
  326MOL0     H44008   0.194   7.990  10.694 -0.4997 -1.0218  0.7652
  326MOL0     H44009   0.721   8.449  11.040 -1.7649 -1.0246 -0.8518
  326MOL0     H44010   0.916   8.605  11.047 -0.4219 -1.8089  1.6468
  327MOL0     O44011   6.775   6.435   1.301  0.0061  0.0759 -0.3126
  327MOL0     C44012   6.756   6.412   1.416  0.2115 -0.9150 -1.6693
  327MOL0     O44013   6.640   6.440   1.485  0.7475 -0.7921  0.5885
  327MOL0     C44014   6.525   6.480   1.413  0.1396 -0.6764  0.4259
  327MOL0     C44015   6.519   6.618   1.392  0.3052 -0.3336  0.4502
  327MOL0     C44016   6.410   6.663   1.308 -0.1099  0.6395  0.0438
  327MOL0     C44017   6.315   6.574   1.263 -0.7710  0.1275  0.7127
  327MOL0     O44018   6.218   6.628   1.189  0.5893 -0.4338  0.6334
  327MOL0     C44019   6.110   6.553   1.123 -0.4262 -0.5076  0.1563
  327MOL0     C44020   5.985   6.627   1.091 -0.2304  0.5959  0.0116
  327MOL0     C44021   6.015   6.742   0.993 -0.7777 -0.3342  0.1845
  327MOL0     C44022   5.881   6.826   0.967 -0.8677 -0.9675  0.2050
  327MOL0     C44023   5.886   6.890   0.824  0.0150  0.1768 -0.3904
  327MOL0     C44024   5.768   6.996   0.805  0.2598  0.5785 -0.9199
  327MOL0     C44025   5.778   7.087   0.693  0.0643 -1.4372  0.4955
  327MOL0     C44026   5.668   7.190   0.698  0.5564  0.5260 -0.0454
  327MOL0     N44027   5.632   7.259   0.574 -1.0729 -0.6029  0.1696
  327MOL0     C44028   5.632   7.390   0.555 -0.3925 -0.1120 -0.2233
  327MOL0     C44029   5.589   7.406   0.427  0.3998  1.4005 -0.1314
  327MOL0     C44030   5.581   7.542   0.361 -0.3492 -0.2298 -0.8620
  327MOL0     C44031   5.499   7.536   0.231  0.0547  0.7495 -0.0279
  327MOL0     C44032   5.428   7.676   0.204 -0.4774  1.1480 -0.2137
  327MOL0     C44033   5.527   7.785   0.154  0.0622  0.5098  0.2743
  327MOL0     O44034   5.572   7.865   0.263 -0.5623 -0.3199 -0.0541
  327MOL0     C44035   5.477   7.948   0.309 -0.0858 -0.9402  0.5302
  327MOL0     C44036   5.450   8.066   0.231  0.0132  0.2912  0.6005
  327MOL0     C44037   5.343   8.151   0.276  0.4543  0.4826  1.8343
  327MOL0     C44038   5.308   8.262   0.174 -0.4472  1.6337  0.1554
  327MOL0     C44039   5.271   8.128   0.398 -0.7981  0.3810 -0.2090
  327MOL0     C44040   5.153   8.205   0.457 -0.5162  0.1801  0.9142
  327MOL0     O44041   5.075   8.143   0.542 -0.4261 -0.7814 -0.2417
  327MOL0     C44042   4.958   8.200   0.585  0.2621  0.3378 -0.0749
  327MOL0     C44043   4.834   8.146   0.544 -0.0197 -0.1284 -0.2164
  327MOL0     C44044   4.710   8.223   0.566  0.1334 -0.0397 -0.7869
  327MOL0     C44045   4.719   8.355   0.612 -0.3040 -0.2258 -0.7522
  327MOL0     O44046   4.624   8.450   0.609  0.9780 -0.1658  0.4613
  327MOL0     C44047   4.509   8.425   0.689 -0.2558  0.4792 -0.3038
  327MOL0     C44048   4.389   8.495   0.625  0.7448  0.1146  0.2399
  327MOL0     C44049   4.390   8.648   0.663  0.4134  0.4534 -0.2266
  327MOL0     C44050   4.303   8.725   0.560 -0.1480  0.9590 -0.4017
  327MOL0     C44051   4.301   8.888   0.579  0.8324 -0.4196  0.5123
  327MOL0     C44052   4.211   8.935   0.471 -0.1085 -0.7653 -0.2381
  327MOL0     C44053   4.200   9.089   0.464  0.1072  0.4860 -0.4800
  327MOL0     C44054   4.091   9.145   0.379  0.0398  0.5776  0.2614
  327MOL0    Cl44055   4.100   9.074   0.213 -0.7014  0.0334  0.0550
  327MOL0     C44056   4.839   8.401   0.657 -0.9711  0.4507 -0.5516
  327MOL0     C44057   4.955   8.317   0.653 -0.0871  1.4340  0.3910
  327MOL0     O44058   5.144   8.320   0.418 -0.3366 -0.5118 -0.4062
  327MOL0     C44059   5.312   8.017   0.467  0.1495  1.0910 -0.4555
  327MOL0     C44060   5.415   7.924   0.427  0.4224  0.0590 -0.2984
  327MOL0     N44061   5.561   7.271   0.382 -0.6910 -0.4558  0.8257
  327MOL0     N44062   5.579   7.183   0.472 -0.5675  0.3901  0.0225
  327MOL0     C44063   6.319   6.439   1.290 -0.0759 -0.5052 -0.6630
  327MOL0     C44064   6.432   6.389   1.355  0.4159 -0.0150  0.0061
  327MOL0     C44065   6.870   6.373   1.502 -0.2858 -0.1363 -0.2141
  327MOL0     C44066   7.009   6.397   1.459  0.1758 -0.8216 -0.2189
  327MOL0     C44067   7.116   6.358   1.532 -0.4518 -0.8497 -0.6500
  327MOL0     C44068   7.098   6.296   1.654  0.5427  0.6779 -0.7419
  327MOL0     O44069   7.207   6.254   1.720 -0.2278  0.1945 -0.1448
  327MOL0     C44070   7.209   6.206   1.858 -0.2857 -0.5604 -0.6130
  327MOL0     C44071   7.187   6.318   1.969  0.5001 -0.0691  0.2322
  327MOL0     C44072   7.200   6.254   2.104 -0.2573 -0.3997  0.2378
  327MOL0     C44073   7.345   6.213   2.143 -0.6178 -0.5990 -0.8033
  327MOL0     C44074   7.438   6.329   2.180  0.4614  0.4820  0.4477
  327MOL0     C44075   7.508   6.432   2.196  0.6443  0.3993  0.0319
  327MOL0     C44076   6.968   6.278   1.698 -0.1867  0.5554 -0.2686
  327MOL0     C44077   6.850   6.305   1.616 -0.0222 -0.2667 -0.3143
  327MOL0     H44078   6.588   6.687   1.440 -1.0389 -1.2351  3.9594
  327MOL0     H44079   6.412   6.767   1.279 -1.4020  1.2324  1.8687
  327MOL0     H44080   6.163   6.514   1.036  0.6577  0.2153  0.4739
  327MOL0     H44081   6.079   6.470   1.188 -3.4628  0.5632  0.2416
  327MOL0     H44082   5.907   6.557   1.060  2.1032 -1.7486 -0.8890
  327MOL0     H44083   5.956   6.670   1.187  3.6088  3.1142  0.2819
  327MOL0     H44084   6.099   6.797   1.036  0.2428  0.3750 -2.5176
  327MOL0     H44085   6.049   6.710   0.893  1.1630 -1.3373  1.1036
  327MOL0     H44086   5.802   6.750   0.970 -0.2736 -1.5736  1.3040
  327MOL0     H44087   5.857   6.897   1.047  0.3490 -1.2755  0.8694
  327MOL0     H44088   5.983   6.937   0.808  0.9405 -1.0881  1.2215
  327MOL0     H44089   5.879   6.801   0.761 -2.7965  1.3175 -1.8838
  327MOL0     H44090   5.675   6.939   0.808  1.3624 -1.7692  5.4870
  327MOL0     H44091   5.765   7.064   0.891 -2.4130  1.0024 -1.2775
  327MOL0     H44092   5.873   7.139   0.683  1.2359 -3.1359  2.0696
  327MOL0     H44093   5.775   7.032   0.598 -2.7620  0.2927 -0.5452
  327MOL0     H44094   5.695   7.263   0.775 -0.3066 -2.0373  2.8943
  327MOL0     H44095   5.574   7.146   0.730 -1.6713  2.2631 -3.5129
  327MOL0     H44096   5.672   7.464   0.624  0.1608 -0.3777 -0.2545
  327MOL0     H44097   5.555   7.625   0.428 -0.6413  0.1716 -1.4593
  327MOL0     H44098   5.686   7.561   0.334 -0.2133 -1.6264 -1.3558
  327MOL0     H44099   5.411   7.472   0.228 -1.2187  2.3977  0.2651
  327MOL0     H44100   5.559   7.493   0.151 -1.1075  1.1661 -1.1625
  327MOL0     H44101   5.382   7.710   0.297  0.6689  3.1013 -0.3013
  327MOL0     H44102   5.342   7.673   0.137 -2.0732  3.1986  1.6140
  327MOL0     H44103   5.469   7.839   0.078 -3.1096 -1.0203  1.4774
  327MOL0     H44104   5.609   7.731   0.105  0.3605  0.5463  0.7309
  327MOL0     H44105   5.509   8.076   0.141  0.1263 -0.1519  0.6188
  327MOL0     H44106   5.374   8.347   0.193 -1.0609  2.7469 -2.1856
  327MOL0     H44107   5.338   8.215   0.080 -2.9376 -2.4299  1.1381
  327MOL0     H44108   5.203   8.295   0.172 -0.5138  1.6816  2.3869
  327MOL0     H44109   4.816   8.058   0.483  0.0007  1.1017 -2.0793
  327MOL0     H44110   4.619   8.182   0.525  1.3279 -1.6305 -1.9948
  327MOL0     H44111   4.485   8.318   0.697 -1.5326  0.8001  0.4139
  327MOL0     H44112   4.520   8.464   0.791 -4.0366  1.4485 -0.1280
  327MOL0     H44113   4.403   8.476   0.519  0.5924  0.3541  0.1763
  327MOL0     H44114   4.290   8.460   0.656  1.0016  0.8441  2.0352
  327MOL0     H44115   4.493   8.685   0.662  0.4359  0.4736  1.0153
  327MOL0     H44116   4.350   8.667   0.763 -1.3233 -3.8205  0.1180
  327MOL0     H44117   4.341   8.701   0.460 -0.8299  2.9698 -1.1742
  327MOL0     H44118   4.201   8.687   0.574  0.5773 -0.6344  0.9757
  327MOL0     H44119   4.399   8.936   0.568 -1.5549  4.9785 -0.2481
  327MOL0     H44120   4.258   8.921   0.674  0.1729 -0.6665  0.2991
  327MOL0     H44121   4.254   8.910   0.373  2.6408  3.0821 -0.2545
  327MOL0     H44122   4.110   8.894   0.480 -1.4566  2.0763 -1.3353
  327MOL0     H44123   4.293   9.126   0.421  0.3767  2.5603  1.6949
  327MOL0     H44124   4.199   9.123   0.568 -0.5531  0.3253 -0.4270
  327MOL0     H44125   4.102   9.253   0.383 -0.1039  0.5682  1.1013
  327MOL0     H44126   3.991   9.119   0.413  0.6654  0.8629  2.4458
  327MOL0     H44127   4.853   8.499   0.701 -1.3626  0.3180 -0.1303
  327MOL0     H44128   5.049   8.358   0.690 -0.0983  0.1780  1.9433
  327MOL0     H44129   5.268   8.002   0.565  0.3296  2.0333 -0.2213
  327MOL0     H44130   5.438   7.842   0.494 -2.1881 -0.8832 -0.4585
  327MOL0     H44131   6.246   6.370   1.248 -0.7583  2.0240 -3.9816
  327MOL0     H44132   6.439   6.280   1.358  0.8837  0.0257  1.6543
  327MOL0     H44133   7.011   6.453   1.366 -1.5354  4.1968  2.3931
  327MOL0     H44134   7.216   6.376   1.495 -1.8116  1.4899 -3.6175
  327MOL0     H44135   7.140   6.122   1.865 -1.6111  0.5883  0.7671
  327MOL0     H44136   7.303   6.154   1.877 -1.3079 -1.6478  1.9128
  327MOL0     H44137   7.086   6.358   1.950 -0.1260 -2.4796 -2.2011
  327MOL0     H44138   7.257   6.402   1.965  1.5154 -0.9058  0.3722
  327MOL0     H44139   7.139   6.164   2.111 -2.2262  0.8144 -0.4801
  327MOL0     H44140   7.159   6.319   2.183  0.3129  0.7890 -0.4230
  327MOL0     H44141   7.399   6.143   2.079 -1.4558 -3.3435  1.2792
  327MOL0     H44142   7.342   6.147   2.230 -3.3425  1.6409  0.9634
  327MOL0     H44143   7.570   6.520   2.197 -1.5746  2.1384 -2.4535
  327MOL0     H44144   6.954   6.236   1.797 -0.8378 -0.8439 -0.9324
  327MOL0     H44145   6.749   6.276   1.644 -0.1848 -0.0490 -0.6699
  328MOL0     O44146   2.931   1.460   4.233  0.0613 -0.2168 -0.2576
  328MOL0     C44147   2.872   1.563   4.230  0.2041  0.1639 -0.2852
  328MOL0     O44148   2.854   1.654   4.333 -0.2796  0.4119  0.3323
  328MOL0     C44149   2.918   1.636   4.452  0.4413  0.6381  0.3915
  328MOL0     C44150   2.944   1.762   4.516  1.1916  0.2640  1.2324
  328MOL0     C44151   3.010   1.748   4.641  0.8313  0.5394 -0.0495
  328MOL0     C44152   3.037   1.633   4.705 -0.9978 -0.1061 -0.7997
  328MOL0     O44153   3.099   1.659   4.821 -1.2369 -0.4492 -0.3437
  328MOL0     C44154   3.221   1.585   4.843 -0.6907 -0.1491 -0.2679
  328MOL0     C44155   3.347   1.668   4.811  0.4940 -2.1140 -0.5710
  328MOL0     C44156   3.372   1.797   4.898  0.0396  0.9174  0.1003
  328MOL0     C44157   3.434   1.761   5.041  0.5795  0.0833  0.9683
  328MOL0     C44158   3.463   1.887   5.122 -0.2968  0.3819 -0.2990
  328MOL0     C44159   3.532   1.848   5.256  0.1203  0.0319  0.4856
  328MOL0     C44160   3.542   1.971   5.354  0.1057 -0.1656  0.2254
  328MOL0     C44161   3.552   1.913   5.500  0.6288  0.2212  0.0621
  328MOL0     N44162   3.579   2.019   5.594 -0.2843 -0.7479  0.3982
  328MOL0     C44163   3.694   2.091   5.607  0.1284  0.4010 -0.4067
  328MOL0     C44164   3.661   2.190   5.702 -0.7639 -0.1593  0.2928
  328MOL0     C44165   3.771   2.283   5.762  0.9829 -0.2937  0.2747
  328MOL0     C44166   3.837   2.367   5.656  0.2282  0.3538 -0.1414
  328MOL0     C44167   3.863   2.513   5.694  0.1915  0.1207  0.7051
  328MOL0     C44168   3.918   2.601   5.576 -0.1426  0.9591 -0.0839
  328MOL0     O44169   4.032   2.540   5.517 -0.0117 -0.0692 -0.0555
  328MOL0     C44170   4.135   2.624   5.526 -0.2909 -0.3273  0.3564
  328MOL0     C44171   4.220   2.619   5.638  0.2179 -0.0298  0.2469
  328MOL0     C44172   4.325   2.710   5.650 -1.4454  0.3335  0.0282
  328MOL0     C44173   4.413   2.700   5.771 -0.0391  0.1960  0.7331
  328MOL0     C44174   4.355   2.796   5.550  0.2629  0.2265  0.3331
  328MOL0     C44175   4.469   2.884   5.538 -0.3819  1.3447 -0.1381
  328MOL0     O44176   4.525   2.891   5.405  0.3973  0.5850  0.2193
  328MOL0     C44177   4.631   2.979   5.388 -0.0800 -0.1582  0.1136
  328MOL0     C44178   4.619   3.120   5.397 -0.3913 -0.4760 -0.2394
  328MOL0     C44179   4.743   3.195   5.376 -0.2187  0.1122  0.2217
  328MOL0     C44180   4.858   3.135   5.328 -0.3832 -0.5409  0.0375
  328MOL0     O44181   4.968   3.216   5.298  0.2883  0.6195  0.3609
  328MOL0     C44182   5.099   3.161   5.304 -0.3967 -0.2397 -0.1591
  328MOL0     C44183   5.195   3.278   5.292  0.7141  0.0823 -0.7323
  328MOL0     C44184   5.179   3.370   5.406  0.0813  0.3198  0.1520
  328MOL0     C44185   5.301   3.456   5.440  0.5017 -0.2416  0.3385
  328MOL0     C44186   5.351   3.546   5.332  0.0609 -0.8330 -0.1877
  328MOL0     C44187   5.456   3.637   5.383  0.5118 -0.3038 -0.7636
  328MOL0     C44188   5.580   3.570   5.448  0.0603 -0.0698 -0.6442
  328MOL0     C44189   5.690   3.668   5.486 -0.0284 -0.9114  0.7161
  328MOL0    Cl44190   5.637   3.741   5.641  0.2333 -0.0320  0.0837
  328MOL0     C44191   4.861   3.001   5.307  0.7074 -0.7803  0.0486
  328MOL0     C44192   4.751   2.923   5.344  0.3620  0.2148  0.5126
  328MOL0     O44193   4.518   2.933   5.641 -0.4459  0.7912  0.6724
  328MOL0     C44194   4.266   2.801   5.441 -0.1598 -0.2870  0.3375
  328MOL0     C44195   4.151   2.725   5.428 -0.3680 -0.8468 -0.3856
  328MOL0     N44196   3.528   2.170   5.737  0.6974 -0.4694  0.8008
  328MOL0     N44197   3.481   2.066   5.676  0.0869 -0.1535  0.0793
  328MOL0     C44198   2.996   1.516   4.652  0.3597 -0.2689 -0.2056
  328MOL0     C44199   2.927   1.512   4.530  0.0097 -0.3009  0.5819
  328MOL0     C44200   2.791   1.606   4.117  0.1774  0.2567  0.0666
  328MOL0     C44201   2.744   1.742   4.108 -0.4503 -0.5338 -1.1474
  328MOL0     C44202   2.658   1.775   4.008  0.0665  0.6771  0.4997
  328MOL0     C44203   2.618   1.685   3.906 -0.3245  0.7306 -0.2958
  328MOL0     O44204   2.539   1.709   3.810 -0.7403 -0.1523  0.9578
  328MOL0     C44205   2.449   1.819   3.803 -0.0775 -0.2407 -0.1716
  328MOL0     C44206   2.321   1.783   3.885  0.1533 -0.1102  0.7017
  328MOL0     C44207   2.224   1.904   3.893  0.2396 -1.1703 -0.9715
  328MOL0     C44208   2.083   1.886   3.963 -0.0389  0.0425 -0.1347
  328MOL0     C44209   2.022   1.760   3.928 -0.3579 -0.1776 -0.2462
  328MOL0     C44210   1.976   1.652   3.908  0.1806 -0.1092  0.1189
  328MOL0     C44211   2.678   1.557   3.910  0.3842 -0.6038  0.2410
  328MOL0     C44212   2.762   1.514   4.018 -0.6232 -0.1224  0.0721
  328MOL0     H44213   2.930   1.855   4.462  4.2479  1.1732  1.8323
  328MOL0     H44214   3.033   1.844   4.686 -1.5260  0.1694  2.2041
  328MOL0     H44215   3.216   1.547   4.946  2.3552 -3.0496 -1.0057
  328MOL0     H44216   3.215   1.499   4.776 -1.6448  1.5456 -2.4816
  328MOL0     H44217   3.428   1.595   4.823 -1.6292 -4.9127 -2.2203
  328MOL0     H44218   3.333   1.693   4.706 -1.7205 -1.0759 -0.0907
  328MOL0     H44219   3.440   1.868   4.849  1.8430  1.0959  2.6193
  328MOL0     H44220   3.282   1.859   4.906  0.1909  1.1838 -0.2313
  328MOL0     H44221   3.353   1.705   5.088  0.3636 -0.8178 -0.4328
  328MOL0     H44222   3.529   1.708   5.033  0.3169 -0.1471 -1.2767
  328MOL0     H44223   3.525   1.952   5.061  1.1892  0.1035  0.8396
  328MOL0     H44224   3.368   1.941   5.130 -1.4014 -1.0918 -2.4638
  328MOL0     H44225   3.464   1.776   5.303  0.0791 -0.5771 -0.4745
  328MOL0     H44226   3.630   1.803   5.241  0.0080  0.1563 -0.6726
  328MOL0     H44227   3.631   2.031   5.332 -0.0925 -0.9521 -3.3675
  328MOL0     H44228   3.448   2.025   5.352 -1.1719 -2.2785 -1.4194
  328MOL0     H44229   3.622   1.829   5.499  2.6212  1.7946  0.5735
  328MOL0     H44230   3.458   1.866   5.531  1.2612 -2.0605 -1.2511
  328MOL0     H44231   3.788   2.070   5.556  0.1190 -1.3101  0.2290
  328MOL0     H44232   3.712   2.346   5.829  1.7698  0.4177  0.3095
  328MOL0     H44233   3.842   2.218   5.815 -0.0469 -2.5115 -0.9317
  328MOL0     H44234   3.775   2.366   5.566  1.6224 -2.2700 -1.1643
  328MOL0     H44235   3.932   2.324   5.624  0.7998  0.5408  1.2001
  328MOL0     H44236   3.936   2.506   5.775  0.4497 -2.9312  0.3329
  328MOL0     H44237   3.771   2.553   5.736  0.6440  1.6453  0.3254
  328MOL0     H44238   3.939   2.704   5.608 -2.2738  1.3953  0.0277
  328MOL0     H44239   3.837   2.614   5.504 -3.2245 -1.1572  2.7113
  328MOL0     H44240   4.211   2.546   5.718 -2.3237  0.8059  0.8503
  328MOL0     H44241   4.510   2.666   5.736 -0.1574  0.2406  0.3567
  328MOL0     H44242   4.410   2.803   5.809 -2.5872  0.1763  0.7958
  328MOL0     H44243   4.375   2.633   5.849  0.2026  1.0757  1.6272
  328MOL0     H44244   4.522   3.159   5.428 -1.2253 -0.2213 -2.9138
  328MOL0     H44245   4.743   3.302   5.397  2.3795  0.2626 -0.2581
  328MOL0     H44246   5.108   3.101   5.394  0.4162  0.3985  0.2023
  328MOL0     H44247   5.115   3.094   5.219  5.2400  1.9124 -1.3005
  328MOL0     H44248   5.294   3.241   5.264 -0.0603 -1.4186 -1.6100
  328MOL0     H44249   5.162   3.338   5.207 -2.1710  0.7857  0.7655
  328MOL0     H44250   5.142   3.310   5.490  0.1137  1.2024  0.8161
  328MOL0     H44251   5.108   3.449   5.379 -0.5457  0.8045  2.9064
  328MOL0     H44252   5.275   3.515   5.528 -2.3746  0.1203 -0.6240
  328MOL0     H44253   5.382   3.386   5.458  1.5933  1.0146  0.4618
  328MOL0     H44254   5.270   3.608   5.292 -0.0521  0.1142  1.4017
  328MOL0     H44255   5.403   3.489   5.255 -0.1594  0.6630 -1.5067
  328MOL0     H44256   5.490   3.698   5.299 -3.7282  1.0855 -1.7056
  328MOL0     H44257   5.412   3.712   5.449 -0.2556 -0.2997 -1.2706
  328MOL0     H44258   5.610   3.483   5.390 -1.7644 -0.3600 -1.2243
  328MOL0     H44259   5.536   3.523   5.537 -1.4822  1.5307 -0.5044
  328MOL0     H44260   5.714   3.748   5.416 -1.5378 -0.4701  0.6572
  328MOL0     H44261   5.780   3.613   5.514  0.2960  0.1790  1.9134
  328MOL0     H44262   4.953   2.960   5.267  0.5880  0.2446 -1.3527
  328MOL0     H44263   4.762   2.817   5.325 -0.7186 -0.5847  3.7293
  328MOL0     H44264   4.274   2.880   5.367  1.4197 -1.6499 -1.0247
  328MOL0     H44265   4.088   2.724   5.340  1.0788 -0.5081 -1.4731
  328MOL0     H44266   3.009   1.416   4.690  3.9432 -0.3207 -1.2493
  328MOL0     H44267   2.885   1.420   4.489 -2.1550  0.7080  0.3668
  328MOL0     H44268   2.769   1.813   4.186  0.9889  0.2065 -2.2387
  328MOL0     H44269   2.630   1.879   3.992 -0.9199  0.0602 -2.5554
  328MOL0     H44270   2.491   1.912   3.842 -1.7087  0.1943  0.6167
  328MOL0     H44271   2.420   1.839   3.700 -2.3909 -2.1845  0.0151
  328MOL0     H44272   2.349   1.753   3.987  0.4579 -1.0419  0.3488
  328MOL0     H44273   2.270   1.696   3.842  1.2322 -0.9447  1.0711
  328MOL0     H44274   2.214   1.924   3.786  0.0075 -1.6259 -1.0357
  328MOL0     H44275   2.286   1.986   3.932 -0.1117 -1.2333 -0.2561
  328MOL0     H44276   2.026   1.976   3.939  3.7378  2.4455 -0.9660
  328MOL0     H44277   2.110   1.895   4.068  0.7989  0.4874 -0.3815
  328MOL0     H44278   1.911   1.571   3.883 -0.6887  1.1428 -1.9607
  328MOL0     H44279   2.652   1.483   3.835  1.8918  0.6638 -1.6142
  328MOL0     H44280   2.816   1.420   4.012 -0.4691 -0.0692  0.5579
  329MOL0     O44281   0.021   2.701   5.920  0.6857  0.0027 -0.1320
  329MOL0     C44282  -0.053   2.733   6.012 -0.5272 -1.3411 -0.8383
  329MOL0     O44283  -0.074   2.861   6.058 -0.6997  0.5181  0.1626
  329MOL0     C44284  -0.020   2.964   5.983 -0.0041  0.6398 -0.6722
  329MOL0     C44285  -0.050   2.991   5.853 -0.2324  0.5743 -0.3272
  329MOL0     C44286   0.006   3.098   5.787  0.6247  0.1286 -0.1805
  329MOL0     C44287   0.095   3.176   5.851 -0.2276  1.5230  0.2532
  329MOL0     O44288   0.149   3.283   5.792  1.0448  0.3745  0.0728
  329MOL0     C44289   0.270   3.340   5.831 -0.8851  0.2510  0.2906
  329MOL0     C44290   0.285   3.471   5.765 -0.6107 -0.3490 -0.1020
  329MOL0     C44291   0.418   3.549   5.792  0.3661  1.0667 -0.0481
  329MOL0     C44292   0.526   3.455   5.724 -0.0453  0.1307 -0.0202
  329MOL0     C44293   0.674   3.510   5.733 -0.0957  0.3883  0.3223
  329MOL0     C44294   0.698   3.521   5.885  0.3094 -0.2300  0.7722
  329MOL0     C44295   0.835   3.585   5.914  0.0007  0.3505 -0.0613
  329MOL0     C44296   0.880   3.583   6.057 -0.1625 -0.9526  0.4785
  329MOL0     N44297   0.826   3.686   6.145  0.4397  0.9043  0.3764
  329MOL0     C44298   0.903   3.753   6.240 -0.3179 -0.5205 -0.5338
  329MOL0     C44299   0.818   3.825   6.309  0.2727  0.1830 -0.3091
  329MOL0     C44300   0.851   3.900   6.437 -0.1371  0.3649  0.0371
  329MOL0     C44301   0.860   4.053   6.418  0.3358 -0.2451 -0.2866
  329MOL0     C44302   0.947   4.089   6.299 -0.3340 -0.0203 -0.3119
  329MOL0     C44303   1.091   4.061   6.311 -0.4309 -0.8150 -1.0795
  329MOL0     O44304   1.127   4.125   6.436  0.1001  0.2743 -1.0772
  329MOL0     C44305   1.259   4.155   6.444 -0.1309 -0.0816 -0.1977
  329MOL0     C44306   1.350   4.099   6.543 -0.1440  0.8188  0.8513
  329MOL0     C44307   1.488   4.130   6.557 -1.1867  0.1432 -0.4608
  329MOL0     C44308   1.565   4.069   6.674 -0.1429  0.0792  0.2483
  329MOL0     C44309   1.539   4.223   6.466 -0.2968  0.2508  0.1762
  329MOL0     C44310   1.686   4.252   6.455  0.4879  0.4140  0.3932
  329MOL0     O44311   1.715   4.334   6.349 -0.6652  0.6710 -0.7796
  329MOL0     C44312   1.849   4.360   6.321 -0.9504 -0.0971 -0.0509
  329MOL0     C44313   1.917   4.308   6.217  0.6786  0.2008 -0.2598
  329MOL0     C44314   2.048   4.346   6.185  0.2166 -0.1101 -0.4387
  329MOL0     C44315   2.112   4.441   6.262 -1.4809 -0.5344 -0.2680
  329MOL0     O44316   2.237   4.495   6.225  0.2285 -0.3951 -0.0502
  329MOL0     C44317   2.312   4.594   6.305  0.5924  0.6676 -0.3301
  329MOL0     C44318   2.362   4.524   6.435  0.7362  0.1266 -0.2747
  329MOL0     C44319   2.455   4.397   6.413  0.0107  0.6740  0.5427
  329MOL0     C44320   2.598   4.449   6.381 -0.5111 -0.5377  0.1773
  329MOL0     C44321   2.704   4.342   6.366  0.2209 -0.7788  0.6522
  329MOL0     C44322   2.789   4.307   6.486 -0.8144  0.9001 -0.9627
  329MOL0     C44323   2.915   4.228   6.454 -0.0568  0.7900 -0.7235
  329MOL0     C44324   2.990   4.207   6.586  0.1691  0.6089  0.0740
  329MOL0    Cl44325   3.138   4.114   6.551 -0.0460 -0.5065  0.1710
  329MOL0     C44326   2.035   4.499   6.367  0.5577 -0.8272  0.1312
  329MOL0     C44327   1.913   4.468   6.391  0.0875  0.5413 -0.3757
  329MOL0     O44328   1.767   4.219   6.540  0.2320  0.8732 -0.0923
  329MOL0     C44329   1.450   4.285   6.378 -0.4078  0.2337  0.6235
  329MOL0     C44330   1.321   4.246   6.358  0.9585 -0.4672  0.3407
  329MOL0     N44331   0.693   3.797   6.258 -0.1723 -0.2105 -0.2126
  329MOL0     N44332   0.695   3.720   6.161  0.0957  0.2317 -0.0130
  329MOL0     C44333   0.137   3.148   5.980  0.4359 -0.5332 -0.5762
  329MOL0     C44334   0.075   3.039   6.051 -0.1288 -0.7829  0.6273
  329MOL0     C44335  -0.118   2.629   6.086  1.3862  0.8600 -0.3598
  329MOL0     C44336  -0.068   2.501   6.078  0.9277  0.3346  0.3968
  329MOL0     C44337  -0.128   2.388   6.131  0.0581 -0.2014 -0.3775
  329MOL0     C44338  -0.250   2.400   6.195 -0.0698 -0.5880  1.0147
  329MOL0     O44339  -0.325   2.299   6.247 -0.8098  0.1225  0.5790
  329MOL0     C44340  -0.260   2.174   6.286 -0.2268  0.5961  1.2291
  329MOL0     C44341  -0.353   2.077   6.369 -0.4936 -0.7176  0.9268
  329MOL0     C44342  -0.482   2.029   6.293  0.1246 -0.4208 -0.3186
  329MOL0     C44343  -0.467   1.968   6.153 -0.1275  1.1954 -0.3627
  329MOL0     C44344  -0.359   1.869   6.137 -0.6775  0.0146 -1.3116
  329MOL0     C44345  -0.261   1.801   6.128  0.7767  0.5754  0.2006
  329MOL0     C44346  -0.310   2.530   6.194 -0.3305 -0.2989  0.2737
  329MOL0     C44347  -0.250   2.643   6.135  0.3602 -0.0722 -1.0973
  329MOL0     H44348  -0.135   2.942   5.808  0.0335 -1.2033  1.0047
  329MOL0     H44349  -0.030   3.121   5.687  0.4737  1.5005  0.1716
  329MOL0     H44350   0.277   3.370   5.936 -0.8048  1.6623 -0.1077
  329MOL0     H44351   0.348   3.268   5.804 -0.5058 -0.1504  2.3248
  329MOL0     H44352   0.281   3.452   5.657  1.4509  0.9051 -0.4557
  329MOL0     H44353   0.203   3.537   5.794 -0.0902  0.2499  0.0256
  329MOL0     H44354   0.430   3.649   5.749  0.3195  1.1671  0.1698
  329MOL0     H44355   0.428   3.550   5.901  0.6525 -0.1033 -0.0541
  329MOL0     H44356   0.531   3.356   5.770  0.1282  0.3152  0.3616
  329MOL0     H44357   0.497   3.441   5.619  1.9943 -1.6387 -0.4217
  329MOL0     H44358   0.751   3.442   5.693  1.0720  1.3002  0.9408
  329MOL0     H44359   0.680   3.605   5.678 -1.4488 -0.3510 -1.1756
  329MOL0     H44360   0.628   3.589   5.935  0.4482  0.8787 -0.4996
  329MOL0     H44361   0.693   3.422   5.932 -1.6758  1.3768  4.3217
  329MOL0     H44362   0.911   3.524   5.865 -0.8766 -1.5035  0.7589
  329MOL0     H44363   0.834   3.691   5.885  0.3110  0.3918  0.0760
  329MOL0     H44364   0.987   3.604   6.063 -0.1568 -0.9632  0.4119
  329MOL0     H44365   0.859   3.491   6.113  1.3053 -0.0489  2.6849
  329MOL0     H44366   1.010   3.746   6.251 -0.2538 -2.9214 -2.0343
  329MOL0     H44367   0.780   3.877   6.516 -0.5111  0.2490 -0.3290
  329MOL0     H44368   0.951   3.880   6.478 -0.3428 -1.1143 -0.1252
  329MOL0     H44369   0.887   4.085   6.519  0.2798 -2.4449  0.4697
  329MOL0     H44370   0.755   4.081   6.401  0.1613 -1.5511 -1.5690
  329MOL0     H44371   0.938   4.196   6.278  2.0748  0.0748 -1.1403
  329MOL0     H44372   0.896   4.050   6.211 -0.6977 -0.3598  0.0460
  329MOL0     H44373   1.148   4.106   6.229  0.2151 -1.9433 -1.2688
  329MOL0     H44374   1.098   3.952   6.316  0.4088 -0.7163  0.1008
  329MOL0     H44375   1.309   4.027   6.614  3.7850 -2.0510  0.5623
  329MOL0     H44376   1.496   4.012   6.737 -0.1103  2.5475  2.6765
  329MOL0     H44377   1.646   4.002   6.643 -0.8314 -0.9118  0.5247
  329MOL0     H44378   1.609   4.149   6.733  0.0142  0.7526 -0.7612
  329MOL0     H44379   1.875   4.229   6.155  0.2229  1.2791 -1.3802
  329MOL0     H44380   2.107   4.293   6.110 -0.8304 -1.9366 -0.0309
  329MOL0     H44381   2.407   4.607   6.252  0.8002 -1.4314 -0.5798
  329MOL0     H44382   2.263   4.686   6.337 -1.5667 -0.7517  0.6733
  329MOL0     H44383   2.416   4.601   6.491 -0.3667  0.9971 -0.3800
  329MOL0     H44384   2.276   4.492   6.494  1.5066  0.3446  0.9954
  329MOL0     H44385   2.409   4.332   6.338 -0.5546  4.4343 -2.6627
  329MOL0     H44386   2.459   4.339   6.506  1.2490  1.5585  1.0625
  329MOL0     H44387   2.597   4.517   6.296  4.2226  0.1327  0.3448
  329MOL0     H44388   2.636   4.502   6.469 -0.3445  0.3382 -0.4094
  329MOL0     H44389   2.766   4.374   6.281 -1.5822 -0.0407 -0.4494
  329MOL0     H44390   2.669   4.253   6.313  1.3135 -1.8726  1.7197
  329MOL0     H44391   2.817   4.395   6.545  0.9605  1.1471 -2.1016
  329MOL0     H44392   2.727   4.231   6.536  0.6409 -0.3834 -1.0309
  329MOL0     H44393   2.971   4.305   6.400 -0.7462  4.7471  3.5407
  329MOL0     H44394   2.922   4.136   6.397  4.5770  0.7019 -0.3614
  329MOL0     H44395   2.929   4.148   6.655  2.1390 -1.2600  0.3471
  329MOL0     H44396   3.016   4.303   6.632  2.1360  1.0882 -1.9059
  329MOL0     H44397   2.065   4.587   6.423  3.2974 -1.3972 -0.2908
  329MOL0     H44398   1.861   4.530   6.462 -2.0344 -0.5099 -0.9095
  329MOL0     H44399   1.484   4.366   6.314  1.0712 -1.3745 -0.7245
  329MOL0     H44400   1.262   4.290   6.279  0.8447  0.4585  0.9320
  329MOL0     H44401   0.208   3.207   6.037 -0.7621 -0.3623  0.8290
  329MOL0     H44402   0.109   3.017   6.151 -1.5359 -0.5527  1.1825
  329MOL0     H44403   0.026   2.481   6.029  1.1973 -1.1026  1.4221
  329MOL0     H44404  -0.081   2.290   6.122 -1.1863 -0.6793 -2.3553
  329MOL0     H44405  -0.227   2.122   6.195 -0.9278 -0.4270  1.5423
  329MOL0     H44406  -0.163   2.192   6.332  2.1499 -4.6498 -0.9241
  329MOL0     H44407  -0.385   2.117   6.465  1.5278  0.6975  1.0852
  329MOL0     H44408  -0.296   1.987   6.395 -0.8000 -1.3225 -0.3958
  329MOL0     H44409  -0.545   2.117   6.305  2.0992  0.8867  1.1335
  329MOL0     H44410  -0.530   1.951   6.354  0.2444  0.7397  1.3330
  329MOL0     H44411  -0.464   2.039   6.070  1.1171 -0.4197 -1.7612
  329MOL0     H44412  -0.551   1.905   6.125 -1.7139  3.5817 -1.2912
  329MOL0     H44413  -0.161   1.762   6.132  1.0491  1.2743  0.4116
  329MOL0     H44414  -0.411   2.547   6.230 -1.0026  1.0128 -2.0372
  329MOL0     H44415  -0.302   2.739   6.129  0.5956  0.0896 -0.6026
  330MOL0     O44416   4.516   0.168  11.045 -0.2861  0.6958  0.1715
  330MOL0     C44417   4.531   0.248  11.132 -0.5557  0.0811  0.7950
  330MOL0     O44418   4.441   0.270  11.231  1.1301  1.2132 -0.0366
  330MOL0     C44419   4.309   0.213  11.226 -0.1415 -0.1114  0.1976
  330MOL0     C44420   4.247   0.150  11.117 -0.8328  0.6091 -0.3069
  330MOL0     C44421   4.116   0.090  11.120  0.3585 -0.1406 -0.4057
  330MOL0     C44422   4.046   0.090  11.242 -0.5068 -0.2594  0.0281
  330MOL0     O44423   3.931   0.014  11.235  0.4882 -0.8745  0.0870
  330MOL0     C44424   3.817   0.063  11.315  0.0969  0.3447  0.4068
  330MOL0     C44425   3.684   0.078  11.253 -0.9684 -0.8947 -0.3433
  330MOL0     C44426   3.670   0.158  11.118  0.5290  0.1204 -0.0706
  330MOL0     C44427   3.764   0.099  10.997 -0.8592 -0.0217  0.2057
  330MOL0     C44428   3.710   0.142  10.862  0.6115 -0.6161 -0.5478
  330MOL0     C44429   3.771   0.063  10.742  0.4263 -0.5934  0.6908
  330MOL0     C44430   3.913   0.092  10.709 -0.5261 -0.3291 -0.1134
  330MOL0     C44431   3.920   0.222  10.631 -0.4483  0.1099 -0.3026
  330MOL0     N44432   4.051   0.290  10.637 -0.4210  0.5132  0.2145
  330MOL0     C44433   4.119   0.330  10.747 -0.0914  0.9289 -0.2390
  330MOL0     C44434   4.235   0.386  10.703  0.1193  0.5705 -0.6557
  330MOL0     C44435   4.354   0.441  10.779  1.1074 -0.1298 -0.2984
  330MOL0     C44436   4.320   0.501  10.921  0.0382 -0.3361  0.0975
  330MOL0     C44437   4.222   0.619  10.905  0.3910  0.0832  1.1161
  330MOL0     C44438   4.291   0.751  10.926  0.3105 -0.2375 -0.4625
  330MOL0     O44439   4.203   0.847  10.995  0.2052  0.7160 -0.1903
  330MOL0     C44440   4.215   0.964  10.933  1.3770  0.0917  0.0881
  330MOL0     C44441   4.164   0.989  10.801  0.1002  0.2339 -0.1140
  330MOL0     C44442   4.181   1.109  10.736 -0.0798  0.1193 -0.2784
  330MOL0     C44443   4.114   1.115  10.600 -0.2350  0.1810  0.0559
  330MOL0     C44444   4.266   1.207  10.792 -0.0716  0.3067  0.5207
  330MOL0     C44445   4.309   1.338  10.729  0.5262 -0.0801  1.2492
  330MOL0     O44446   4.395   1.413  10.802 -0.3818  0.3205  0.0150
  330MOL0     C44447   4.453   1.533  10.758  0.2237  0.0975 -0.2902
  330MOL0     C44448   4.383   1.650  10.732  0.7514  0.0384 -0.7884
  330MOL0     C44449   4.455   1.769  10.692  0.1863  0.3716  0.3255
  330MOL0     C44450   4.594   1.771  10.707 -0.2147 -0.0858  0.2601
  330MOL0     O44451   4.672   1.884  10.691 -0.1131  0.1675 -0.2225
  330MOL0     C44452   4.624   2.004  10.626 -0.2904  0.1384  0.5319
  330MOL0     C44453   4.735   2.107  10.612 -0.5977  0.6540 -0.7994
  330MOL0     C44454   4.766   2.163  10.749  0.0681  0.2916 -0.1634
  330MOL0     C44455   4.663   2.272  10.789  0.1444 -0.0575 -0.1744
  330MOL0     C44456   4.606   2.249  10.929 -0.0532  0.3563 -0.2868
  330MOL0     C44457   4.694   2.303  11.044 -0.3106 -0.0536 -0.0317
  330MOL0     C44458   4.613   2.292  11.178 -0.7128 -0.5707 -0.1043
  330MOL0     C44459   4.703   2.327  11.301 -1.0055  0.5616  0.1928
  330MOL0    Cl44460   4.818   2.204  11.326  0.1691 -0.3127  0.0941
  330MOL0     C44461   4.655   1.652  10.739 -0.1266 -0.1003  0.4307
  330MOL0     C44462   4.590   1.535  10.760  0.4053 -0.3410 -0.3912
  330MOL0     O44463   4.268   1.363  10.611  0.0703 -0.3634 -0.2840
  330MOL0     C44464   4.332   1.173  10.917  0.2405  1.1780 -0.0765
  330MOL0     C44465   4.301   1.055  10.986 -0.1336 -0.3219  0.0204
  330MOL0     N44466   4.241   0.367  10.561 -0.2388  0.0004 -0.6512
  330MOL0     N44467   4.130   0.316  10.525 -0.0713  0.0604  0.0957
  330MOL0     C44468   4.110   0.151  11.360 -0.6964 -0.3711 -0.9764
  330MOL0     C44469   4.229   0.215  11.341  0.5504 -1.0276 -0.0273
  330MOL0     C44470   4.654   0.328  11.127  0.5012  0.1264 -0.9003
  330MOL0     C44471   4.659   0.444  11.217  0.4984 -0.4013  0.7764
  330MOL0     C44472   4.768   0.524  11.203 -0.4285 -0.2365 -0.0786
  330MOL0     C44473   4.867   0.500  11.115 -0.0000  0.1298  0.4752
  330MOL0     O44474   4.971   0.586  11.106 -0.2092  0.2674 -0.2153
  330MOL0     C44475   4.990   0.638  10.969  0.2131 -0.5478  0.2794
  330MOL0     C44476   4.876   0.729  10.922  0.2160  0.0729 -0.1593
  330MOL0     C44477   4.851   0.861  10.999 -0.4054  0.4957 -0.3752
  330MOL0     C44478   4.733   0.936  10.931 -0.9103 -0.2118 -0.5278
  330MOL0     C44479   4.719   1.079  10.971 -0.1383 -0.8026  0.1622
  330MOL0     C44480   4.715   1.204  10.973  0.9203  0.2146  0.3933
  330MOL0     C44481   4.859   0.393  11.019 -0.2750  0.7873  0.0993
  330MOL0     C44482   4.754   0.302  11.033 -0.0586 -0.8026  1.0391
  330MOL0     H44483   4.299   0.154  11.022 -1.1569  0.2711 -0.4988
  330MOL0     H44484   4.074   0.050  11.029  0.5205  1.7193 -1.3531
  330MOL0     H44485   3.803  -0.006  11.398  1.2514  0.9159  1.1054
  330MOL0     H44486   3.840   0.156  11.368  3.2588 -0.5806  0.8538
  330MOL0     H44487   3.642  -0.021  11.234 -2.3947  0.1786 -3.4290
  330MOL0     H44488   3.618   0.123  11.329  0.0456  0.5474 -0.2677
  330MOL0     H44489   3.565   0.177  11.095  0.6885  1.0608 -0.0570
  330MOL0     H44490   3.707   0.259  11.140 -3.4261  1.5367  0.9431
  330MOL0     H44491   3.865   0.137  11.013  0.0516 -1.9661 -0.7161
  330MOL0     H44492   3.763  -0.010  10.991  0.8140 -0.1700  1.9334
  330MOL0     H44493   3.604   0.116  10.854  0.7469 -0.9640 -1.2460
  330MOL0     H44494   3.723   0.250  10.848 -0.9836 -0.1507  1.1430
  330MOL0     H44495   3.753  -0.044  10.754  1.0938 -1.4047 -3.8515
  330MOL0     H44496   3.717   0.084  10.649 -0.1327  1.4802  1.4222
  330MOL0     H44497   3.965   0.091  10.806  2.3298 -1.4125 -1.5312
  330MOL0     H44498   3.959   0.019  10.642 -0.6518 -0.4006 -0.1219
  330MOL0     H44499   3.850   0.302  10.655 -1.0981 -0.5090 -0.1285
  330MOL0     H44500   3.888   0.191  10.532 -0.6339 -0.1673 -0.1548
  330MOL0     H44501   4.092   0.323  10.852 -0.7218  1.8315 -0.3262
  330MOL0     H44502   4.430   0.364  10.791 -0.6729 -2.2793 -1.9532
  330MOL0     H44503   4.403   0.517  10.717  3.5449 -0.8834  0.6008
  330MOL0     H44504   4.412   0.528  10.973 -0.0656  2.1547 -0.8867
  330MOL0     H44505   4.285   0.419  10.985 -1.4869 -1.0753 -1.6136
  330MOL0     H44506   4.150   0.613  10.987 -0.1982 -1.4199  0.5397
  330MOL0     H44507   4.171   0.623  10.808 -0.9052  2.0453  1.8187
  330MOL0     H44508   4.321   0.781  10.825 -2.1620  0.4781 -1.0552
  330MOL0     H44509   4.373   0.736  10.996 -2.9323 -1.2000  3.5570
  330MOL0     H44510   4.108   0.910  10.750  0.1262 -0.6995  1.2509
  330MOL0     H44511   4.067   1.023  10.564  0.2413  0.3070 -0.9187
  330MOL0     H44512   4.041   1.196  10.607  0.6930  1.0031  0.7041
  330MOL0     H44513   4.182   1.142  10.518  0.8152 -2.0102  0.1423
  330MOL0     H44514   4.275   1.649  10.730  0.4888  3.8128  1.7455
  330MOL0     H44515   4.387   1.852  10.674 -0.8319  0.0779  2.5716
  330MOL0     H44516   4.593   1.978  10.525  0.3250 -1.3632  0.6955
  330MOL0     H44517   4.539   2.036  10.687  0.3453 -0.1245  1.5830
  330MOL0     H44518   4.825   2.057  10.575 -0.6523  0.6300 -0.8998
  330MOL0     H44519   4.698   2.183  10.544 -2.0827  1.1213  0.4616
  330MOL0     H44520   4.865   2.208  10.743  2.4488 -4.4714 -1.4617
  330MOL0     H44521   4.762   2.075  10.814  0.3620  1.0671  0.9181
  330MOL0     H44522   4.707   2.372  10.788 -1.4435  0.7382  1.7460
  330MOL0     H44523   4.578   2.272  10.719  2.0180 -0.6898 -2.5883
  330MOL0     H44524   4.580   2.144  10.944 -2.5824  0.8658 -0.6805
  330MOL0     H44525   4.519   2.315  10.930  0.8099  1.6321  2.8216
  330MOL0     H44526   4.780   2.236  11.051  0.4464  0.8777 -0.3924
  330MOL0     H44527   4.719   2.406  11.019 -0.3990 -0.3583 -1.4286
  330MOL0     H44528   4.558   2.198  11.189  0.3294 -1.4678 -2.0440
  330MOL0     H44529   4.539   2.372  11.188 -1.8636 -1.6465  0.2568
  330MOL0     H44530   4.626   2.336  11.379  0.9518 -3.2189  2.8715
  330MOL0     H44531   4.743   2.428  11.288 -4.0053  1.7089 -1.1515
  330MOL0     H44532   4.762   1.670  10.743 -0.5692  2.9796  0.3464
  330MOL0     H44533   4.636   1.438  10.771 -2.3203 -1.8116 -0.9955
  330MOL0     H44534   4.392   1.239  10.979  3.2794 -3.7982  3.0191
  330MOL0     H44535   4.338   1.029  11.085 -1.2069 -2.3666 -0.0740
  330MOL0     H44536   4.076   0.141  11.462 -1.4811 -1.1772 -1.3015
  330MOL0     H44537   4.289   0.253  11.422  0.3074 -1.8585  0.5568
  330MOL0     H44538   4.573   0.463  11.280  0.2227 -1.4037  0.7174
  330MOL0     H44539   4.780   0.612  11.266 -0.5000  0.1486 -0.5970
  330MOL0     H44540   5.081   0.699  10.976 -0.2544  0.2686 -0.5235
  330MOL0     H44541   5.017   0.556  10.900  0.4445 -1.5288  1.4923
  330MOL0     H44542   4.785   0.670  10.910 -1.3662  2.2664  0.3762
  330MOL0     H44543   4.912   0.762  10.824 -1.3245  1.2201 -0.3748
  330MOL0     H44544   4.942   0.922  10.993 -0.8292  1.4213  1.6902
  330MOL0     H44545   4.829   0.845  11.105  3.0425  3.1277  0.9114
  330MOL0     H44546   4.643   0.880  10.958 -0.0110 -1.1436  0.6340
  330MOL0     H44547   4.753   0.938  10.823  3.6426 -0.0962  0.1059
  330MOL0     H44548   4.710   1.311  10.972  1.2385  0.2419  1.1888
  330MOL0     H44549   4.939   0.376  10.947 -1.1125 -2.5407 -0.1999
  330MOL0     H44550   4.744   0.229  10.954 -2.5102  1.6947 -1.2108
  331MOL0     O44551   0.805   3.158   1.029  0.1195  0.4847 -0.1473
  331MOL0     C44552   0.870   3.201   0.932 -0.3026  0.4834 -0.7752
  331MOL0     O44553   0.918   3.325   0.919 -0.7637 -0.8774 -0.0721
  331MOL0     C44554   0.913   3.401   1.041 -0.9966 -0.4494 -0.4465
  331MOL0     C44555   1.005   3.385   1.143  0.5303 -0.2993 -0.2721
  331MOL0     C44556   1.002   3.462   1.258  0.6776 -0.4096  0.0185
  331MOL0     C44557   0.900   3.558   1.284 -0.2453 -0.0341  0.6271
  331MOL0     O44558   0.886   3.614   1.405  0.6415 -0.7274  0.3137
  331MOL0     C44559   0.790   3.717   1.429  0.5929  0.4374  1.0795
  331MOL0     C44560   0.803   3.760   1.576  0.1601 -0.6276 -0.7800
  331MOL0     C44561   0.942   3.833   1.587  0.5755 -0.1730  0.4013
  331MOL0     C44562   1.051   3.745   1.644 -0.1586 -0.6325 -0.4312
  331MOL0     C44563   1.195   3.789   1.598  0.2786  0.3065  0.4055
  331MOL0     C44564   1.232   3.730   1.462  0.0530 -0.2607 -0.0323
  331MOL0     C44565   1.248   3.832   1.347  0.3477  0.2958  0.1682
  331MOL0     C44566   1.355   3.931   1.377 -0.7896 -0.7407 -0.1045
  331MOL0     N44567   1.376   4.025   1.264  0.6387 -0.7217 -0.3435
  331MOL0     C44568   1.290   4.118   1.215  0.4738  0.2874 -0.3220
  331MOL0     C44569   1.360   4.196   1.131 -0.1654  0.0970 -0.4117
  331MOL0     C44570   1.302   4.293   1.032  1.0852 -0.1348 -0.6073
  331MOL0     C44571   1.361   4.271   0.887 -1.0746 -0.4993 -0.9043
  331MOL0     C44572   1.298   4.358   0.777 -0.2215  0.1109  0.2315
  331MOL0     C44573   1.154   4.347   0.767  0.3578  0.4044  0.1897
  331MOL0     O44574   1.098   4.388   0.643 -0.4898  0.1486 -0.6173
  331MOL0     C44575   0.965   4.360   0.632  1.0025 -0.0621 -0.2379
  331MOL0     C44576   0.918   4.288   0.523  0.0778  0.2399 -0.7324
  331MOL0     C44577   0.779   4.264   0.510  0.4190  0.2888  0.3016
  331MOL0     C44578   0.741   4.188   0.383 -0.2683  0.4781 -0.2389
  331MOL0     C44579   0.684   4.323   0.588 -0.6203 -0.3541 -0.3156
  331MOL0     C44580   0.538   4.320   0.570  0.5876  0.3349 -0.8309
  331MOL0     O44581   0.463   4.377   0.673 -0.2342  0.3964 -0.0197
  331MOL0     C44582   0.329   4.391   0.673 -0.3096 -0.4230 -0.8628
  331MOL0     C44583   0.266   4.434   0.789 -0.4551 -0.2498 -0.5895
  331MOL0     C44584   0.125   4.448   0.809  0.6972 -0.4149  0.5286
  331MOL0     C44585   0.047   4.425   0.693  0.1975  0.0006  0.8010
  331MOL0     O44586  -0.091   4.433   0.682 -0.3800 -0.0260  0.3104
  331MOL0     C44587  -0.161   4.368   0.786  0.1965  0.0737 -0.1178
  331MOL0     C44588  -0.284   4.308   0.738  1.4753  0.0422  0.4503
  331MOL0     C44589  -0.359   4.225   0.842 -0.7679  0.1832  0.3591
  331MOL0     C44590  -0.458   4.129   0.769  0.2782  0.1573 -0.7837
  331MOL0     C44591  -0.527   4.024   0.873 -0.6997  0.0618  0.0616
  331MOL0     C44592  -0.586   4.091   0.994 -0.0301 -0.2442  1.4312
  331MOL0     C44593  -0.661   3.984   1.073 -0.3222  0.9246  0.9470
  331MOL0     C44594  -0.729   4.050   1.191 -0.0303 -0.3274 -0.0260
  331MOL0    Cl44595  -0.881   3.959   1.239  0.1065  0.3084  0.7410
  331MOL0     C44596   0.112   4.414   0.563 -0.0467  0.4856  0.7336
  331MOL0     C44597   0.246   4.399   0.557 -0.7032 -0.7472  0.3043
  331MOL0     O44598   0.493   4.284   0.463 -0.2218 -0.3968 -0.2442
  331MOL0     C44599   0.742   4.398   0.700  0.7803  1.0380 -0.3896
  331MOL0     C44600   0.878   4.414   0.723  0.0395  0.4809 -0.6506
  331MOL0     N44601   1.488   4.143   1.128  0.1128 -0.3353  0.1316
  331MOL0     N44602   1.496   4.039   1.208 -0.3591 -0.1115 -0.0636
  331MOL0     C44603   0.821   3.586   1.171 -0.8386  0.1906 -0.2561
  331MOL0     C44604   0.827   3.504   1.054  1.3845 -0.1198 -0.0139
  331MOL0     C44605   0.902   3.110   0.817  0.2332  0.0937 -0.0959
  331MOL0     C44606   0.850   2.980   0.811 -0.3998  0.1971 -1.1994
  331MOL0     C44607   0.881   2.899   0.704 -0.3989  0.4665 -0.6697
  331MOL0     C44608   0.948   2.957   0.589  0.5075 -0.3076 -0.0460
  331MOL0     O44609   0.962   2.893   0.469  0.4762  1.0130  0.6594
  331MOL0     C44610   1.098   2.844   0.425  0.1125 -1.0912 -0.5563
  331MOL0     C44611   1.126   2.725   0.518  0.4939 -0.4053 -0.3887
  331MOL0     C44612   1.027   2.612   0.475  0.0453 -0.1579 -0.6512
  331MOL0     C44613   1.065   2.549   0.346  0.0937  0.2085  0.1327
  331MOL0     C44614   1.195   2.479   0.344 -0.5467  0.0660  0.2009
  331MOL0     C44615   1.306   2.427   0.337  0.1080  0.3015 -0.5038
  331MOL0     C44616   1.003   3.085   0.596 -0.0632  0.3588 -0.5369
  331MOL0     C44617   0.985   3.161   0.711 -0.3530 -0.0310 -0.3964
  331MOL0     H44618   1.069   3.298   1.137  0.9685 -0.2825  2.6506
  331MOL0     H44619   1.073   3.434   1.335  0.5279  0.5073  0.5143
  331MOL0     H44620   0.807   3.806   1.368 -0.2179  0.8786  1.4732
  331MOL0     H44621   0.691   3.673   1.413 -0.4957  2.7764  0.9479
  331MOL0     H44622   0.731   3.840   1.598  2.2043  0.8049  1.0661
  331MOL0     H44623   0.806   3.671   1.640  2.8328 -0.8550 -1.1310
  331MOL0     H44624   0.977   3.865   1.488 -0.8417 -1.7761 -0.6860
  331MOL0     H44625   0.936   3.922   1.650 -0.8347 -1.1186  1.7028
  331MOL0     H44626   1.046   3.753   1.753 -1.0932  0.0970 -0.5220
  331MOL0     H44627   1.040   3.640   1.616 -0.8258 -0.5912 -0.3316
  331MOL0     H44628   1.208   3.898   1.598  5.1803  0.0198  3.8653
  331MOL0     H44629   1.258   3.758   1.682  1.4845  3.9054  0.9932
  331MOL0     H44630   1.319   3.665   1.479  2.5635  2.1941 -2.4781
  331MOL0     H44631   1.148   3.664   1.436 -0.6950 -0.5032  2.6838
  331MOL0     H44632   1.280   3.781   1.256 -1.7631 -1.3344  0.2831
  331MOL0     H44633   1.157   3.893   1.336  0.6344  0.7251  0.1371
  331MOL0     H44634   1.442   3.874   1.411  0.6302  1.2236 -0.3410
  331MOL0     H44635   1.330   4.003   1.455  2.7055  1.0448 -0.4533
  331MOL0     H44636   1.188   4.127   1.250  1.1468 -0.0533  1.8755
  331MOL0     H44637   1.195   4.274   1.032  1.1040 -1.1650  3.4251
  331MOL0     H44638   1.315   4.395   1.070 -0.1241  0.4071 -1.5644
  331MOL0     H44639   1.344   4.166   0.862  2.2409 -0.4776 -3.9458
  331MOL0     H44640   1.470   4.280   0.894 -0.9636 -0.7444 -2.1914
  331MOL0     H44641   1.343   4.317   0.685  2.3208  1.5363  0.7358
  331MOL0     H44642   1.317   4.466   0.776 -2.7562  0.6317 -1.6238
  331MOL0     H44643   1.106   4.400   0.850 -0.0894 -1.7236  1.3467
  331MOL0     H44644   1.123   4.243   0.778 -0.0109 -0.0158 -3.4555
  331MOL0     H44645   0.990   4.236   0.460  3.4098  0.5533  2.4919
  331MOL0     H44646   0.824   4.129   0.342  0.3515  1.8953 -1.0952
  331MOL0     H44647   0.658   4.118   0.393  0.6377 -0.8550 -1.5567
  331MOL0     H44648   0.725   4.264   0.306  0.0300 -0.3364 -1.1358
  331MOL0     H44649   0.327   4.460   0.875 -0.3129 -1.2834 -0.3627
  331MOL0     H44650   0.089   4.478   0.907 -2.8424 -0.4989 -0.6260
  331MOL0     H44651  -0.094   4.296   0.833  1.8211  2.0276  0.7321
  331MOL0     H44652  -0.195   4.436   0.865  2.1109 -1.6009  2.3166
  331MOL0     H44653  -0.357   4.381   0.705  1.1635  0.2615  1.5610
  331MOL0     H44654  -0.259   4.249   0.649  0.6717  2.3510 -1.3839
  331MOL0     H44655  -0.421   4.300   0.893 -2.6786  0.5048 -2.2213
  331MOL0     H44656  -0.288   4.180   0.911  2.2175 -1.0085 -3.1425
  331MOL0     H44657  -0.533   4.180   0.707  2.9287  1.4832 -3.1119
  331MOL0     H44658  -0.399   4.064   0.704 -3.4555 -2.0336 -2.2944
  331MOL0     H44659  -0.458   3.943   0.898  0.0242 -0.1045 -2.2315
  331MOL0     H44660  -0.608   3.974   0.819 -1.9403 -0.2346  2.1084
  331MOL0     H44661  -0.497   4.124   1.048  1.7421 -2.5404  0.0824
  331MOL0     H44662  -0.650   4.170   0.955  0.6702  0.7682  2.2830
  331MOL0     H44663  -0.596   3.908   1.117  0.2978  1.2713  0.6414
  331MOL0     H44664  -0.734   3.931   1.012  3.4845 -3.5779 -0.2574
  331MOL0     H44665  -0.754   4.156   1.191  2.6129  0.3840 -1.5401
  331MOL0     H44666  -0.661   4.036   1.275 -2.3219 -0.0097  1.9842
  331MOL0     H44667   0.045   4.400   0.479  2.8607  2.1359 -2.0869
  331MOL0     H44668   0.296   4.384   0.462  1.7327  0.2076  1.3577
  331MOL0     H44669   0.679   4.442   0.777 -0.5912 -1.5614  0.0867
  331MOL0     H44670   0.903   4.476   0.809 -0.6171  0.9895 -0.8189
  331MOL0     H44671   0.750   3.667   1.161  0.7566  1.9396  1.6711
  331MOL0     H44672   0.765   3.537   0.971 -2.3188  0.4134  2.6768
  331MOL0     H44673   0.785   2.947   0.891 -1.5755  1.0434 -1.7673
  331MOL0     H44674   0.835   2.801   0.712  0.2183  0.3012  1.4775
  331MOL0     H44675   1.088   2.795   0.328  0.5530 -4.7573  1.0761
  331MOL0     H44676   1.172   2.925   0.427 -0.6133 -0.3332  3.2005
  331MOL0     H44677   1.118   2.746   0.626  1.0229 -1.2137 -0.1839
  331MOL0     H44678   1.224   2.680   0.503  1.2089 -0.3346  3.0749
  331MOL0     H44679   0.923   2.645   0.472  0.1228  0.7984  2.6945
  331MOL0     H44680   1.028   2.545   0.562 -1.0415  0.4332 -0.1538
  331MOL0     H44681   1.070   2.614   0.258  0.4547 -2.0746 -1.6197
  331MOL0     H44682   0.993   2.469   0.328  0.3773 -0.3490  1.3276
  331MOL0     H44683   1.406   2.393   0.318  1.1223  1.9232  1.5083
  331MOL0     H44684   1.057   3.123   0.510  0.7252  4.2020  1.4349
  331MOL0     H44685   1.018   3.263   0.700  1.0747 -0.1378  2.2036
  332MOL0     O44686   6.140   9.754  11.058 -0.2260  0.5711  0.6377
  332MOL0     C44687   6.228   9.815  10.995 -0.7721 -0.3719 -0.2147
  332MOL0     O44688   6.361   9.780  10.999  0.0194 -0.2039  0.0473
  332MOL0     C44689   6.403   9.678  11.080 -0.0527 -0.2313  0.1626
  332MOL0     C44690   6.362   9.655  11.212  0.1639  0.1934 -0.4321
  332MOL0     C44691   6.424   9.555  11.288 -0.1970  0.0000  0.5087
  332MOL0     C44692   6.507   9.456  11.228  0.3792  0.3634  0.7312
  332MOL0     O44693   6.573   9.343  11.290  0.0663 -0.3614 -0.1686
  332MOL0     C44694   6.593   9.333  11.431 -0.5638 -0.6705 -0.3541
  332MOL0     C44695   6.705   9.233  11.459  0.2728  0.3581  0.1684
  332MOL0     C44696   6.734   9.191  11.603 -0.4684 -0.2193  0.3944
  332MOL0     C44697   6.861   9.104  11.627  0.6872 -0.0078  0.2147
  332MOL0     C44698   6.888   9.088  11.770  0.1089  0.4629 -0.5897
  332MOL0     C44699   7.022   9.024  11.792  0.0110 -0.6784  0.0994
  332MOL0     C44700   7.051   9.027  11.943 -0.1975 -0.6490  0.3289
  332MOL0     C44701   7.187   8.985  11.985  0.5503  0.0100 -0.3077
  332MOL0     N44702   7.192   8.939  12.133 -0.4255  0.6086  1.2971
  332MOL0     C44703   7.143   9.000  12.240 -0.3419 -0.1516  0.6326
  332MOL0     C44704   7.165   8.925  12.347 -0.4898  0.3660  0.2069
  332MOL0     C44705   7.123   8.981  12.483  0.0271  0.6104 -0.5024
  332MOL0     C44706   7.090   8.871  12.588 -0.7636 -0.5383  0.0842
  332MOL0     C44707   6.996   8.756  12.539 -1.8261 -0.2726 -0.2799
  332MOL0     C44708   7.011   8.633  12.634  0.0437 -0.7407 -0.3149
  332MOL0     O44709   6.949   8.512  12.581  0.2710  0.2429  0.4187
  332MOL0     C44710   6.824   8.469  12.630  0.6470  0.4685 -0.6725
  332MOL0     C44711   6.724   8.560  12.673 -1.1391  0.7092 -0.3284
  332MOL0     C44712   6.594   8.519  12.712 -0.1345  0.1761  0.1803
  332MOL0     C44713   6.492   8.622  12.732 -0.0190  0.0327 -0.4744
  332MOL0     C44714   6.559   8.377  12.709 -0.0542 -0.2470  0.3380
  332MOL0     C44715   6.423   8.317  12.753  0.2469 -0.3641 -0.0411
  332MOL0     O44716   6.417   8.178  12.758 -0.3569  0.2369  0.1870
  332MOL0     C44717   6.313   8.131  12.835  0.2968 -0.0876  0.1606
  332MOL0     C44718   6.319   8.125  12.974 -0.4601  0.5404  0.1401
  332MOL0     C44719   6.203   8.092  13.052  0.5092 -0.7181  0.3561
  332MOL0     C44720   6.075   8.080  12.987 -1.1854 -0.6810  0.1957
  332MOL0     O44721   5.949   8.048  13.035 -0.0856  0.8286  0.3193
  332MOL0     C44722   5.939   8.022  13.172 -0.4570 -0.4715  0.0147
  332MOL0     C44723   5.797   8.010  13.221  0.2745  0.1355 -0.8096
  332MOL0     C44724   5.722   7.886  13.165 -0.9914  0.0980 -0.3744
  332MOL0     C44725   5.592   7.859  13.247 -0.5347  0.5569  0.2770
  332MOL0     C44726   5.628   7.769  13.370 -0.4896  0.3687 -1.2013
  332MOL0     C44727   5.511   7.719  13.462  0.2562  1.1239 -0.5788
  332MOL0     C44728   5.541   7.646  13.598 -0.3824 -0.3362 -0.3657
  332MOL0     C44729   5.419   7.663  13.686 -0.2128  0.6613  0.2212
  332MOL0    Cl44730   5.442   7.603  13.853  0.4458 -0.1709 -0.0278
  332MOL0     C44731   6.073   8.100  12.847 -0.6241  0.6688 -0.7045
  332MOL0     C44732   6.190   8.110  12.778  0.2745 -0.6644 -0.8623
  332MOL0     O44733   6.329   8.406  12.771  0.2343  0.1541  1.3242
  332MOL0     C44734   6.660   8.299  12.651 -0.3666  0.4511  0.5778
  332MOL0     C44735   6.787   8.335  12.607 -0.3433  0.6242  0.4351
  332MOL0     N44736   7.237   8.812  12.303  1.0361 -1.0236 -0.0682
  332MOL0     N44737   7.241   8.814  12.175  0.7402  0.1131  0.6802
  332MOL0     C44738   6.531   9.470  11.094 -0.0375  0.4611  0.4160
  332MOL0     C44739   6.495   9.589  11.027 -0.4053  0.2213  0.3077
  332MOL0     C44740   6.198   9.945  10.939 -0.1054 -0.4779  0.2586
  332MOL0     C44741   6.059   9.971  10.906 -0.1895  0.6786  0.8367
  332MOL0     C44742   6.017  10.090  10.856 -0.3988  0.5393  0.2759
  332MOL0     C44743   6.116  10.184  10.810 -0.2157 -0.1144  0.9914
  332MOL0     O44744   6.088  10.289  10.730 -0.2419  0.1880  0.1764
  332MOL0     C44745   5.962  10.311  10.671  0.1140  0.9936 -0.2569
  332MOL0     C44746   5.852  10.380  10.760  0.6909  0.5849  0.9265
  332MOL0     C44747   5.859  10.531  10.768 -0.1432 -1.0385  0.1906
  332MOL0     C44748   5.825  10.599  10.902  0.4262  0.0354 -0.3734
  332MOL0     C44749   5.681  10.576  10.938  0.0962  0.1140 -0.8237
  332MOL0     C44750   5.566  10.565  10.972 -0.1931 -0.0918 -0.3485
  332MOL0     C44751   6.247  10.155  10.836 -0.1910  0.3963 -0.3748
  332MOL0     C44752   6.293  10.038  10.900 -0.8615  0.4764  0.2413
  332MOL0     H44753   6.280   9.712  11.255  0.8221  1.1984 -0.4846
  332MOL0     H44754   6.390   9.547  11.391 -1.9529  0.5962  0.0014
  332MOL0     H44755   6.631   9.430  11.464  0.9514  0.4469 -4.7960
  332MOL0     H44756   6.500   9.303  11.481 -1.5171 -0.4613 -1.9444
  332MOL0     H44757   6.688   9.147  11.394  3.3277  0.2472 -0.6704
  332MOL0     H44758   6.794   9.279  11.415  1.7396  0.0649  2.6561
  332MOL0     H44759   6.738   9.275  11.672 -0.2636 -1.4253  1.9213
  332MOL0     H44760   6.652   9.126  11.636 -0.9409 -0.4184 -1.1075
  332MOL0     H44761   6.844   9.009  11.575  2.3337 -2.0108  3.0996
  332MOL0     H44762   6.953   9.153  11.593  0.0931 -0.4439 -2.2052
  332MOL0     H44763   6.890   9.184  11.824  1.5676 -1.6803  3.6122
  332MOL0     H44764   6.802   9.044  11.823  0.6214  2.5075  2.1696
  332MOL0     H44765   7.009   8.920  11.760 -1.6394 -0.1972 -0.9579
  332MOL0     H44766   7.109   9.076  11.750 -1.7455  1.1732 -1.4858
  332MOL0     H44767   7.035   9.129  11.980 -0.0878 -0.2242 -0.7400
  332MOL0     H44768   6.978   8.966  11.997 -2.0999  1.3005  0.1210
  332MOL0     H44769   7.254   9.072  11.977  2.3375 -0.9590  2.5634
  332MOL0     H44770   7.224   8.904  11.922 -1.5884 -0.5009 -0.9773
  332MOL0     H44771   7.096   9.098  12.247 -1.5201 -0.6161 -0.3824
  332MOL0     H44772   7.200   9.045  12.525  3.3202 -2.9277 -0.5852
  332MOL0     H44773   7.040   9.050  12.469 -0.8311 -0.1195  0.6986
  332MOL0     H44774   7.043   8.927  12.670 -2.6530 -0.5096 -0.9732
  332MOL0     H44775   7.182   8.821  12.619 -0.4626  0.4738  0.8795
  332MOL0     H44776   7.018   8.725  12.436  4.2241  1.4465  0.1640
  332MOL0     H44777   6.893   8.792  12.552 -1.1620  2.6934 -2.1291
  332MOL0     H44778   6.964   8.658  12.729 -1.1399  0.5826 -1.2106
  332MOL0     H44779   7.118   8.617  12.649  0.0466 -2.6686 -1.9800
  332MOL0     H44780   6.748   8.666  12.669 -2.1179  0.8953 -2.2366
  332MOL0     H44781   6.413   8.604  12.659  1.5559  3.7093 -3.4388
  332MOL0     H44782   6.460   8.623  12.836 -0.5501  2.1850 -0.6110
  332MOL0     H44783   6.519   8.724  12.704  1.7443 -1.0557 -3.1514
  332MOL0     H44784   6.417   8.120  13.020  0.0988 -0.4081 -1.0604
  332MOL0     H44785   6.219   8.052  13.152  2.1301 -0.1465  0.3564
  332MOL0     H44786   5.990   7.928  13.191 -0.6366 -0.5014  0.3636
  332MOL0     H44787   5.986   8.106  13.224  0.9609 -0.2865 -1.4830
  332MOL0     H44788   5.802   8.010  13.330  1.1727 -0.5487 -0.8316
  332MOL0     H44789   5.743   8.100  13.190  1.2521  0.4113 -1.7826
  332MOL0     H44790   5.790   7.800  13.168  1.9125  2.2736  0.9438
  332MOL0     H44791   5.677   7.901  13.067 -2.2276  2.7852  0.5013
  332MOL0     H44792   5.548   7.949  13.291 -0.2906  0.7729  0.0780
  332MOL0     H44793   5.530   7.800  13.179 -0.1510 -0.7033  0.9808
  332MOL0     H44794   5.699   7.819  13.436 -0.1673 -3.8514  2.1413
  332MOL0     H44795   5.684   7.678  13.346  1.0231  0.5662  1.1862
  332MOL0     H44796   5.449   7.805  13.490 -1.0160 -0.6217  2.4012
  332MOL0     H44797   5.442   7.661  13.400  1.4497 -0.2460 -0.6740
  332MOL0     H44798   5.626   7.695  13.646 -1.3108  0.4055  0.5528
  332MOL0     H44799   5.559   7.538  13.587 -1.8738 -0.8257  1.4609
  332MOL0     H44800   5.346   7.598  13.637  1.6733 -1.6545  0.3319
  332MOL0     H44801   5.386   7.767  13.687 -1.8462  0.1762  0.0831
  332MOL0     H44802   5.990   8.086  12.778 -0.1547  1.1004 -1.3677
  332MOL0     H44803   6.184   8.125  12.670 -1.9230 -0.9106 -0.8150
  332MOL0     H44804   6.642   8.196  12.621  3.5013  0.0252 -0.8637
  332MOL0     H44805   6.849   8.253  12.571 -2.0899 -1.1702  1.3115
  332MOL0     H44806   6.599   9.405  11.040 -1.4804 -0.2477 -0.6327
  332MOL0     H44807   6.532   9.619  10.930 -3.2217 -2.0905 -1.6327
  332MOL0     H44808   5.986   9.897  10.938  0.0634 -0.1016 -0.3148
  332MOL0     H44809   5.912  10.112  10.841 -0.4567 -1.2146 -2.7445
  332MOL0     H44810   5.965  10.366  10.577  1.3464  1.4244  0.0102
  332MOL0     H44811   5.937  10.209  10.640  2.8821 -1.4509  4.3432
  332MOL0     H44812   5.862  10.339  10.861  0.1684 -0.0708  0.7157
  332MOL0     H44813   5.756  10.353  10.715  1.2069 -0.7567  0.5534
  332MOL0     H44814   5.807  10.576  10.683 -0.4837  1.9472  1.8367
  332MOL0     H44815   5.961  10.561  10.742 -0.2792  0.9011  1.6692
  332MOL0     H44816   5.827  10.708  10.889  0.6461  0.7540  4.1309
  332MOL0     H44817   5.896  10.578  10.983  0.9605 -1.1461 -1.1308
  332MOL0     H44818   5.460  10.560  10.986 -0.3844  0.8940 -1.2895
  332MOL0     H44819   6.314  10.237  10.810 -1.2472  1.0456 -1.1002
  332MOL0     H44820   6.396  10.011  10.922 -0.5279  0.9562 -0.6673
  333MOL0     O44821   5.596   8.881   8.600 -0.2190 -0.7308  0.1372
  333MOL0     C44822   5.609   8.801   8.509  0.3171 -0.6376  0.1392
  333MOL0     O44823   5.715   8.705   8.499 -0.8070  0.4902 -0.1708
  333MOL0     C44824   5.824   8.741   8.581 -0.0690  0.5164 -0.1000
  333MOL0     C44825   5.859   8.659   8.694  0.3034  0.4296  0.0169
  333MOL0     C44826   5.959   8.696   8.779 -0.0428 -0.4537 -0.2416
  333MOL0     C44827   6.027   8.813   8.768  0.1980 -0.2967  0.1479
  333MOL0     O44828   6.128   8.836   8.859  0.0227 -0.8541  0.2964
  333MOL0     C44829   6.267   8.820   8.824  1.4089  0.1835 -0.5592
  333MOL0     C44830   6.309   8.677   8.852 -0.0742 -1.2732 -0.5279
  333MOL0     C44831   6.327   8.660   9.022  0.0651 -0.4874 -0.0145
  333MOL0     C44832   6.382   8.530   9.069 -1.0489 -0.2635 -0.1939
  333MOL0     C44833   6.431   8.515   9.217  0.6578 -0.2505 -0.0846
  333MOL0     C44834   6.338   8.578   9.325 -0.3405 -0.6807  0.1644
  333MOL0     C44835   6.399   8.606   9.464  0.7697 -0.0435 -0.5512
  333MOL0     C44836   6.452   8.479   9.541 -1.2223  0.4449  0.0676
  333MOL0     N44837   6.362   8.375   9.610 -0.4800 -0.2583 -0.1001
  333MOL0     C44838   6.248   8.311   9.549  0.0171 -1.0088 -0.5856
  333MOL0     C44839   6.206   8.213   9.638 -0.3111  0.2503 -0.5023
  333MOL0     C44840   6.115   8.093   9.607  0.1856 -0.3771 -0.8400
  333MOL0     C44841   5.967   8.111   9.580  0.6076 -0.1688 -0.3698
  333MOL0     C44842   5.895   7.982   9.592  0.2438  0.6776 -0.2084
  333MOL0     C44843   5.845   7.948   9.733 -0.0142 -0.5344  0.8784
  333MOL0     O44844   5.795   7.815   9.740  0.2065  0.1160 -0.8741
  333MOL0     C44845   5.662   7.820   9.713 -0.0606  1.0177  0.5955
  333MOL0     C44846   5.572   7.845   9.811  0.8237 -0.2147  0.5144
  333MOL0     C44847   5.439   7.868   9.794  0.4268  0.0143  0.0057
  333MOL0     C44848   5.349   7.916   9.919  0.1541  0.2723  0.6732
  333MOL0     C44849   5.387   7.843   9.666 -0.4805 -0.5335  0.0819
  333MOL0     C44850   5.248   7.856   9.623  0.0488 -0.4792  0.1106
  333MOL0     O44851   5.225   7.831   9.497 -0.6088  0.6241  0.0244
  333MOL0     C44852   5.099   7.807   9.465  0.1539  0.6712  0.2326
  333MOL0     C44853   5.015   7.914   9.429  0.3777 -0.1837  0.7994
  333MOL0     C44854   4.890   7.888   9.373  0.1110  0.3803 -1.1737
  333MOL0     C44855   4.840   7.759   9.357 -0.3158  1.0806  1.1183
  333MOL0     O44856   4.714   7.749   9.315 -0.0546  0.4660  0.6144
  333MOL0     C44857   4.646   7.623   9.364  1.2748  1.3772 -0.2121
  333MOL0     C44858   4.509   7.649   9.414  0.4065  0.4743  0.5118
  333MOL0     C44859   4.407   7.643   9.300  0.7229 -0.3944  0.7691
  333MOL0     C44860   4.273   7.639   9.367  0.5717  0.1859 -0.0967
  333MOL0     C44861   4.163   7.608   9.260 -0.6580 -0.5792  0.4824
  333MOL0     C44862   4.097   7.740   9.217  0.3094  0.8685  0.7714
  333MOL0     C44863   3.981   7.733   9.118  0.1464 -1.2427  0.3691
  333MOL0     C44864   3.882   7.852   9.120 -0.3375  0.7933 -0.4759
  333MOL0    Cl44865   3.818   7.857   9.276 -0.3559 -0.2297 -0.7343
  333MOL0     C44866   4.930   7.654   9.384  0.2165 -0.3056  0.3849
  333MOL0     C44867   5.057   7.673   9.443  0.5623  0.7454  0.0106
  333MOL0     O44868   5.168   7.889   9.703  0.2480  0.6954  1.1980
  333MOL0     C44869   5.477   7.810   9.561 -1.3707  0.4441  0.0272
  333MOL0     C44870   5.614   7.792   9.585 -0.9813 -0.5129  0.1941
  333MOL0     N44871   6.280   8.240   9.754 -0.5048  0.3978  0.3820
  333MOL0     N44872   6.369   8.334   9.741 -0.5260  0.4333  0.6242
  333MOL0     C44873   6.000   8.884   8.651 -1.1395  0.4873  0.4922
  333MOL0     C44874   5.890   8.859   8.568  0.4954  0.4552  0.3459
  333MOL0     C44875   5.520   8.806   8.393  0.2731 -1.4336 -0.0687
  333MOL0     C44876   5.564   8.760   8.269  0.2980  0.1393 -0.9088
  333MOL0     C44877   5.462   8.741   8.182 -0.1662 -0.7461  0.0860
  333MOL0     C44878   5.323   8.772   8.206 -0.1697  0.0804 -0.1183
  333MOL0     O44879   5.222   8.756   8.117  0.3061 -0.1167  0.1806
  333MOL0     C44880   5.249   8.742   7.983  0.4524 -0.1346  0.6224
  333MOL0     C44881   5.128   8.795   7.911 -0.2946 -0.3225  0.7674
  333MOL0     C44882   5.106   8.731   7.777  0.2897  0.2161 -1.0780
  333MOL0     C44883   4.970   8.784   7.722  0.4886  0.0909 -0.3563
  333MOL0     C44884   4.920   8.687   7.618  0.9708  0.1498  0.2554
  333MOL0     C44885   4.898   8.595   7.542  0.7962 -0.2250 -0.1898
  333MOL0     C44886   5.291   8.843   8.327  0.6427 -0.0580  0.1081
  333MOL0     C44887   5.392   8.854   8.421  0.2202  0.1155  0.2128
  333MOL0     H44888   5.808   8.565   8.715 -2.5103  1.7102 -0.6742
  333MOL0     H44889   5.985   8.641   8.868 -2.7488 -1.3708  0.0670
  333MOL0     H44890   6.268   8.827   8.715  3.3670  1.0482 -0.5201
  333MOL0     H44891   6.332   8.897   8.865 -0.8067  2.5889 -1.3027
  333MOL0     H44892   6.240   8.603   8.811 -0.6452 -2.0053  1.5845
  333MOL0     H44893   6.411   8.667   8.816  1.5438  0.5987  3.0026
  333MOL0     H44894   6.403   8.735   9.045  0.6521 -0.4436 -1.9201
  333MOL0     H44895   6.239   8.701   9.073  0.9066  1.1398  0.1840
  333MOL0     H44896   6.310   8.450   9.050  0.0667 -1.9802  2.1872
  333MOL0     H44897   6.471   8.500   9.013 -0.2288 -1.7500  1.7526
  333MOL0     H44898   6.432   8.406   9.224 -0.9967 -0.2844 -0.0749
  333MOL0     H44899   6.530   8.558   9.232 -0.2650  1.4617  1.6152
  333MOL0     H44900   6.312   8.679   9.294  1.4428 -0.1475  0.2617
  333MOL0     H44901   6.244   8.524   9.339  0.3238 -1.5091  1.7423
  333MOL0     H44902   6.484   8.674   9.454 -0.0944  1.7748  2.8632
  333MOL0     H44903   6.325   8.660   9.525  1.6416  0.3481  0.1724
  333MOL0     H44904   6.524   8.520   9.612 -0.3059  2.3270 -1.8015
  333MOL0     H44905   6.510   8.419   9.470  1.2942  0.1301  2.2185
  333MOL0     H44906   6.216   8.333   9.447  1.5205  1.3474 -0.6136
  333MOL0     H44907   6.161   8.034   9.526 -0.3945 -1.1626 -0.6073
  333MOL0     H44908   6.120   8.040   9.702  3.5327 -2.2363 -1.8734
  333MOL0     H44909   5.944   8.157   9.484  0.4906 -0.8859 -0.6929
  333MOL0     H44910   5.944   8.184   9.658  2.0303 -0.2783  0.1884
  333MOL0     H44911   5.969   7.906   9.566  1.3690  2.5277 -2.8768
  333MOL0     H44912   5.805   7.970   9.532 -0.2693  0.6597  0.5515
  333MOL0     H44913   5.770   8.020   9.769  1.1403 -0.2017  2.7781
  333MOL0     H44914   5.931   7.952   9.800  3.0776 -0.7147 -2.7475
  333MOL0     H44915   5.604   7.866   9.912 -1.4004  2.9083  0.7215
  333MOL0     H44916   5.295   8.009   9.895  0.8302  0.8579  1.4148
  333MOL0     H44917   5.269   7.847   9.945 -1.4839  1.8402  0.0829
  333MOL0     H44918   5.419   7.919  10.002 -1.6502 -6.2165  2.9877
  333MOL0     H44919   5.053   8.014   9.449 -0.7914  0.4475 -0.0289
  333MOL0     H44920   4.823   7.970   9.349  0.1982  0.9384  0.3841
  333MOL0     H44921   4.648   7.545   9.288 -0.1694  1.3501 -0.2349
  333MOL0     H44922   4.695   7.581   9.452 -3.3244 -1.3202  1.3963
  333MOL0     H44923   4.474   7.573   9.484 -2.9743  1.7613  0.4471
  333MOL0     H44924   4.493   7.746   9.461  1.2653  0.9260 -0.0948
  333MOL0     H44925   4.428   7.550   9.247  0.8562  0.0491  0.0280
  333MOL0     H44926   4.420   7.733   9.240 -1.2489 -1.5886 -1.6382
  333MOL0     H44927   4.267   7.570   9.452  0.0174  2.5988  1.9736
  333MOL0     H44928   4.260   7.735   9.418 -0.9281 -0.0855  0.0864
  333MOL0     H44929   4.090   7.536   9.301 -0.6925 -1.5708 -1.2483
  333MOL0     H44930   4.210   7.563   9.172 -1.6739 -1.4531  0.3582
  333MOL0     H44931   4.070   7.792   9.309  2.6139  1.8480  0.9768
  333MOL0     H44932   4.174   7.806   9.175  0.8190 -0.0225  0.2668
  333MOL0     H44933   3.923   7.644   9.143  0.0788 -1.3273 -0.0728
  333MOL0     H44934   4.023   7.707   9.020 -0.2248 -1.3623  0.2383
  333MOL0     H44935   3.796   7.819   9.061  0.3538 -2.4286  0.1132
  333MOL0     H44936   3.919   7.950   9.091  0.3446  0.3472 -1.1478
  333MOL0     H44937   4.884   7.557   9.368  0.0979 -0.8649  3.3881
  333MOL0     H44938   5.126   7.593   9.467 -0.8824 -0.9632 -1.2469
  333MOL0     H44939   5.440   7.794   9.460 -1.5428  1.4449 -0.0850
  333MOL0     H44940   5.676   7.771   9.499 -0.6684 -0.6418  0.4481
  333MOL0     H44941   6.040   8.984   8.635 -0.9349  0.6298  1.7554
  333MOL0     H44942   5.875   8.929   8.487  1.2004  1.7999  1.3216
  333MOL0     H44943   5.671   8.752   8.253  1.1760  4.1943  1.4826
  333MOL0     H44944   5.490   8.685   8.094 -0.8667 -4.3717  2.0009
  333MOL0     H44945   5.342   8.789   7.950  0.1803 -1.4202 -2.3214
  333MOL0     H44946   5.255   8.639   7.948 -0.2322 -0.7399  2.1680
  333MOL0     H44947   5.138   8.903   7.900 -0.9499 -0.5166 -3.4433
  333MOL0     H44948   5.043   8.777   7.978 -0.7168  1.7678  0.8589
  333MOL0     H44949   5.098   8.627   7.810  0.2896  1.3334  2.9006
  333MOL0     H44950   5.188   8.739   7.705  0.0261 -2.8313 -1.8876
  333MOL0     H44951   4.986   8.876   7.664  1.0933 -0.3387 -0.8916
  333MOL0     H44952   4.888   8.785   7.794 -2.2617 -2.7205 -3.1036
  333MOL0     H44953   4.855   8.505   7.501  0.5042  0.1854 -0.8040
  333MOL0     H44954   5.193   8.886   8.338  0.9536  0.5385  0.6199
  333MOL0     H44955   5.355   8.888   8.517 -2.6393  0.3756 -0.8775
  334MOL0     O44956  10.973   2.937   5.447  0.0691 -0.5890  0.2240
  334MOL0     C44957  11.091   2.921   5.474 -0.5213 -0.2393 -1.1457
  334MOL0     O44958  11.137   2.837   5.575  0.2531 -0.2516  0.0949
  334MOL0     C44959  11.059   2.766   5.667 -0.2687 -0.0575 -0.8779
  334MOL0     C44960  10.925   2.792   5.695 -0.2811 -0.0735  0.3312
  334MOL0     C44961  10.852   2.715   5.780 -0.0432  0.3421 -0.5156
  334MOL0     C44962  10.901   2.598   5.850 -0.1584 -0.0549  1.0718
  334MOL0     O44963  10.817   2.533   5.937  0.5639 -0.2322  0.3146
  334MOL0     C44964  10.865   2.409   5.994  0.0183  0.7025 -0.0773
  334MOL0     C44965  10.764   2.381   6.107 -0.7007  0.0008  0.1018
  334MOL0     C44966  10.712   2.237   6.114 -1.1175 -0.8163  0.2836
  334MOL0     C44967  10.595   2.243   6.215 -0.3648  0.0331  0.1729
  334MOL0     C44968  10.484   2.125   6.220  0.7793  0.0891  0.2799
  334MOL0     C44969  10.469   2.077   6.362 -0.2657 -1.0903  1.2085
  334MOL0     C44970  10.593   2.010   6.422 -0.0985 -0.1084 -0.6083
  334MOL0     C44971  10.567   1.959   6.566 -0.4648 -0.0748  0.3880
  334MOL0     N44972  10.680   1.875   6.599  0.9137  0.0836  0.2868
  334MOL0     C44973  10.800   1.924   6.620 -1.0605 -0.1062 -0.2448
  334MOL0     C44974  10.874   1.819   6.660 -0.2260 -0.7197 -0.8588
  334MOL0     C44975  11.018   1.826   6.693 -0.5759  0.9123 -0.0222
  334MOL0     C44976  11.048   1.861   6.846 -0.6752 -0.2907  0.0941
  334MOL0     C44977  11.006   2.007   6.875  0.4135  0.3976 -0.8526
  334MOL0     C44978  11.043   2.044   7.016 -0.6944  0.6366  0.6147
  334MOL0     O44979  11.177   2.007   7.063  0.3973  0.5573  0.8218
  334MOL0     C44980  11.273   2.096   7.034 -0.3491  0.1903 -0.4323
  334MOL0     C44981  11.394   2.050   6.979 -0.4017 -1.0288 -0.1679
  334MOL0     C44982  11.493   2.136   6.939 -1.1350  0.0443 -0.3459
  334MOL0     C44983  11.621   2.065   6.874  0.8790 -0.4755  0.1563
  334MOL0     C44984  11.480   2.278   6.955 -0.0139  0.5397  0.2490
  334MOL0     C44985  11.578   2.381   6.920 -0.9213  0.2624  0.2151
  334MOL0     O44986  11.706   2.343   6.882  0.3732  0.9670  0.1111
  334MOL0     C44987  11.814   2.417   6.842  0.3970  0.4205 -0.7207
  334MOL0     C44988  11.830   2.555   6.838 -0.0153 -0.3695  0.5103
  334MOL0     C44989  11.950   2.605   6.801  0.5582  0.1379 -0.4249
  334MOL0     C44990  12.065   2.529   6.777  0.4759  0.0267  0.2555
  334MOL0     O44991  12.173   2.590   6.721 -0.1599 -0.6530 -0.2535
  334MOL0     C44992  12.215   2.713   6.791  0.3854 -0.2962 -0.0302
  334MOL0     C44993  12.358   2.752   6.748  0.4414  1.0910 -0.4568
  334MOL0     C44994  12.459   2.644   6.807 -0.2301 -0.3116  0.2203
  334MOL0     C44995  12.596   2.649   6.749 -0.8062  0.3725 -0.2152
  334MOL0     C44996  12.701   2.560   6.805  0.2918  0.0983 -0.8354
  334MOL0     C44997  12.836   2.569   6.736  0.0473 -0.8390 -0.4757
  334MOL0     C44998  12.953   2.543   6.834  1.5531 -0.0573  0.6129
  334MOL0     C44999  13.087   2.559   6.758  1.2098 -1.1880 -0.2777
  334MOL0    Cl45000  13.097   2.454   6.622 -0.1806  0.3515  0.7274
  334MOL0     C45001  12.050   2.394   6.788 -0.3991  1.0470  0.2124
  334MOL0     C45002  11.925   2.336   6.827 -0.2310  0.1720  1.0185
  334MOL0     O45003  11.540   2.499   6.910 -0.2245  0.0942 -0.6377
  334MOL0     C45004  11.358   2.323   7.005  0.3635 -0.4672 -0.2911
  334MOL0     C45005  11.259   2.231   7.048 -0.1345 -0.6847  1.1813
  334MOL0     N45006  10.794   1.707   6.659  0.0695  0.5295 -1.2302
  334MOL0     N45007  10.678   1.747   6.633  0.0010 -0.6521 -0.5774
  334MOL0     C45008  11.046   2.581   5.843 -0.1636 -0.3050  0.2642
  334MOL0     C45009  11.117   2.665   5.750  0.0799  1.1799 -0.0563
  334MOL0     C45010  11.191   3.018   5.420 -0.5492 -0.1506  0.8286
  334MOL0     C45011  11.335   3.005   5.442 -0.8143  0.6023  0.3405
  334MOL0     C45012  11.428   3.102   5.389  0.4362 -0.4844 -0.8120
  334MOL0     C45013  11.379   3.212   5.328 -0.0647 -0.2361  1.3764
  334MOL0     O45014  11.472   3.300   5.272  0.1324  0.3760  0.1867
  334MOL0     C45015  11.438   3.437   5.257  0.2070  0.3082 -0.1691
  334MOL0     C45016  11.561   3.523   5.283  0.4400  0.4313 -0.0279
  334MOL0     C45017  11.561   3.667   5.238 -0.1971  0.3403  0.5006
  334MOL0     C45018  11.671   3.751   5.300 -0.0371 -0.6028 -0.2042
  334MOL0     C45019  11.655   3.899   5.277  0.4433  0.0821  1.3559
  334MOL0     C45020  11.660   4.016   5.284 -0.1753  0.3861  0.2271
  334MOL0     C45021  11.238   3.229   5.313 -0.5009 -0.5123 -0.4610
  334MOL0     C45022  11.143   3.134   5.346 -0.0761  1.3580 -0.4013
  334MOL0     H45023  10.876   2.880   5.654 -0.1547  0.5542  1.4923
  334MOL0     H45024  10.749   2.731   5.810  0.3132 -0.4862  1.2717
  334MOL0     H45025  10.851   2.323   5.928 -0.1116  1.3422 -0.8890
  334MOL0     H45026  10.972   2.406   6.020 -0.1437 -1.5559  0.5809
  334MOL0     H45027  10.822   2.409   6.195 -1.1841 -0.5087  0.5887
  334MOL0     H45028  10.679   2.448   6.096  0.7786  1.6486 -2.5916
  334MOL0     H45029  10.658   2.205   6.024 -0.7421  1.2858 -0.7529
  334MOL0     H45030  10.786   2.158   6.123 -2.0949 -1.7539  0.2867
  334MOL0     H45031  10.649   2.268   6.307 -0.3261  1.0090 -0.1039
  334MOL0     H45032  10.544   2.339   6.207  0.8867  0.6179 -1.1730
  334MOL0     H45033  10.390   2.158   6.175  0.8173 -1.7873 -1.3003
  334MOL0     H45034  10.517   2.042   6.157  0.9103  0.3765 -0.0386
  334MOL0     H45035  10.431   2.156   6.428 -0.4623 -1.5740  1.6841
  334MOL0     H45036  10.394   1.998   6.351 -1.0451 -0.1197 -0.8947
  334MOL0     H45037  10.620   1.917   6.370  3.2354  0.8746 -0.8977
  334MOL0     H45038  10.680   2.077   6.416 -1.4272  1.7659  0.2203
  334MOL0     H45039  10.468   1.916   6.582 -0.9992 -0.5066 -3.2388
  334MOL0     H45040  10.572   2.042   6.637  0.7840  0.1999  0.0111
  334MOL0     H45041  10.833   2.027   6.606  1.7749 -0.7109  1.2200
  334MOL0     H45042  11.061   1.730   6.665 -2.3592  0.0038  0.2255
  334MOL0     H45043  11.061   1.904   6.629  0.3124  0.8230  0.4528
  334MOL0     H45044  11.156   1.848   6.858 -0.6076 -0.8953 -1.0261
  334MOL0     H45045  10.988   1.792   6.906 -0.3079 -0.0245  0.7815
  334MOL0     H45046  10.900   2.019   6.855  0.3189  0.2981 -0.4230
  334MOL0     H45047  11.066   2.064   6.803  0.7255  0.2822 -0.6884
  334MOL0     H45048  10.967   1.998   7.080  1.3391 -1.0592  1.9554
  334MOL0     H45049  11.025   2.151   7.032 -1.3639  0.5581  0.4019
  334MOL0     H45050  11.407   1.942   6.974 -0.3858 -0.9908 -3.8606
  334MOL0     H45051  11.717   2.073   6.927  0.0642 -0.9086  1.7713
  334MOL0     H45052  11.605   1.957   6.877 -0.2477 -0.3802 -1.2104
  334MOL0     H45053  11.640   2.099   6.772  4.8776  0.2665  0.9830
  334MOL0     H45054  11.751   2.622   6.869 -1.2177 -1.4274 -0.2141
  334MOL0     H45055  11.952   2.714   6.802 -2.4853  0.2767 -0.5275
  334MOL0     H45056  12.147   2.799   6.787 -0.5016 -0.9361  0.7605
  334MOL0     H45057  12.217   2.691   6.898 -0.8490 -0.1800  0.0373
  334MOL0     H45058  12.380   2.765   6.641  3.8521 -1.4033 -0.2235
  334MOL0     H45059  12.373   2.853   6.789 -0.5322  0.3060  2.0010
  334MOL0     H45060  12.416   2.547   6.781 -4.7112  1.7174 -0.9557
  334MOL0     H45061  12.455   2.671   6.913  0.4426  2.2388 -0.3270
  334MOL0     H45062  12.592   2.642   6.640  2.4026  2.1453 -0.5796
  334MOL0     H45063  12.634   2.751   6.764  2.3294 -0.7823  0.4059
  334MOL0     H45064  12.680   2.454   6.819  1.1553 -0.2412 -1.9533
  334MOL0     H45065  12.711   2.595   6.908  1.2597 -1.4227 -0.3881
  334MOL0     H45066  12.838   2.495   6.655 -0.8716  0.1904 -1.4577
  334MOL0     H45067  12.851   2.668   6.694  1.1961  0.8555  3.4129
  334MOL0     H45068  12.949   2.442   6.876 -0.0426 -0.2484  0.0860
  334MOL0     H45069  12.955   2.616   6.915  0.2213  1.6929 -0.8447
  334MOL0     H45070  13.171   2.536   6.824 -0.2152 -0.9645  1.7170
  334MOL0     H45071  13.089   2.662   6.720 -2.3193  0.1613  2.5145
  334MOL0     H45072  12.136   2.329   6.773 -0.9453  0.7188 -1.8421
  334MOL0     H45073  11.922   2.227   6.836 -2.4315  0.0441 -0.4554
  334MOL0     H45074  11.343   2.426   7.035  0.4890 -0.1596 -1.2239
  334MOL0     H45075  11.171   2.268   7.100 -2.5757 -3.3061 -0.7464
  334MOL0     H45076  11.092   2.500   5.899 -3.0326 -0.9058  2.0096
  334MOL0     H45077  11.223   2.647   5.737 -0.1655  1.2151 -2.5172
  334MOL0     H45078  11.379   2.914   5.482  0.4200 -0.0510 -2.2664
  334MOL0     H45079  11.535   3.089   5.405  0.3582  0.5948  0.9551
  334MOL0     H45080  11.402   3.458   5.156  0.5607 -3.3682 -1.2001
  334MOL0     H45081  11.351   3.452   5.322 -1.5042 -1.8307 -1.7808
  334MOL0     H45082  11.659   3.481   5.254  0.0854  0.4194 -1.2755
  334MOL0     H45083  11.561   3.528   5.392  2.0033  0.4792 -0.0071
  334MOL0     H45084  11.471   3.721   5.270  1.1791  6.6124 -4.2264
  334MOL0     H45085  11.574   3.675   5.130  2.0283  3.5222  0.8671
  334MOL0     H45086  11.766   3.719   5.256  1.8159  2.9098  0.9134
  334MOL0     H45087  11.683   3.728   5.406  1.7706  1.7396  0.1635
  334MOL0     H45088  11.632   4.120   5.287  0.8849  0.6668  1.1356
  334MOL0     H45089  11.188   3.310   5.262  1.0175  1.6048  1.2525
  334MOL0     H45090  11.038   3.148   5.322 -0.2688  1.3088  0.3881
  335MOL0     O45091   9.934  10.076   1.580 -0.1727 -0.4511 -0.1545
  335MOL0     C45092   9.978  10.051   1.467  0.9694 -0.3296 -0.7937
  335MOL0     O45093   9.968  10.133   1.359 -0.0817  0.0068  0.6520
  335MOL0     C45094   9.913  10.255   1.375  0.4042 -1.2334 -0.1283
  335MOL0     C45095   9.937  10.345   1.273 -0.4109 -0.0867 -0.5423
  335MOL0     C45096   9.904  10.485   1.273  0.2635  0.0642  0.3652
  335MOL0     C45097   9.820  10.534   1.373 -0.0924  1.1429  0.8295
  335MOL0     O45098   9.753  10.658   1.378 -0.4053 -0.3127 -0.4282
  335MOL0     C45099   9.641  10.683   1.289 -0.4769 -0.3581  0.7577
  335MOL0     C45100   9.686  10.733   1.155  0.2194  0.5908 -0.7510
  335MOL0     C45101   9.587  10.746   1.042 -0.4648 -0.1430  0.5965
  335MOL0     C45102   9.597  10.617   0.955 -0.4125 -0.0718 -0.2989
  335MOL0     C45103   9.573  10.495   1.033 -0.3705 -0.1026  0.8935
  335MOL0     C45104   9.564  10.364   0.945 -0.6778  0.0859  0.8022
  335MOL0     C45105   9.530  10.244   1.024  0.0046  0.1462  0.8816
  335MOL0     C45106   9.656  10.197   1.102  0.0890  0.4804 -0.4141
  335MOL0     N45107   9.642  10.065   1.165  0.5527  0.5557 -0.0185
  335MOL0     C45108   9.647  10.032   1.296  0.5106  0.0380 -0.4992
  335MOL0     C45109   9.654   9.895   1.296 -0.5039  0.0309 -0.2066
  335MOL0     C45110   9.650   9.795   1.416 -0.2467  0.3942 -0.2086
  335MOL0     C45111   9.664   9.645   1.395 -0.5299 -0.0828  0.5916
  335MOL0     C45112   9.692   9.579   1.526  0.5525 -0.5091 -0.1393
  335MOL0     C45113   9.593   9.595   1.640  0.1918  0.0572 -0.1930
  335MOL0     O45114   9.651   9.581   1.775  0.5141 -0.0900 -0.4113
  335MOL0     C45115   9.663   9.683   1.860  0.0236 -0.3901 -0.2238
  335MOL0     C45116   9.680   9.823   1.820  0.3863  0.5328 -0.4118
  335MOL0     C45117   9.700   9.921   1.917  0.1519 -0.3041  0.3303
  335MOL0     C45118   9.692  10.056   1.860  0.0358 -0.1605  0.0135
  335MOL0     C45119   9.729   9.891   2.056 -0.7184  1.3291  0.9092
  335MOL0     C45120   9.781   9.989   2.156  0.2271  0.0233  0.0889
  335MOL0     O45121   9.871  10.081   2.110  0.3714  0.6412 -0.4281
  335MOL0     C45122   9.916  10.174   2.200 -0.1005 -0.3620 -0.6874
  335MOL0     C45123  10.032  10.167   2.272 -0.1777  0.3384 -0.0021
  335MOL0     C45124  10.088  10.272   2.354 -0.3095 -0.1320  0.6609
  335MOL0     C45125  10.005  10.381   2.373 -0.1965 -0.3554 -0.4442
  335MOL0     O45126  10.046  10.484   2.458  0.7067 -0.2093  0.6143
  335MOL0     C45127   9.953  10.530   2.546  0.6477  0.3120  0.5412
  335MOL0     C45128  10.009  10.651   2.627  0.5187  1.4492  0.0928
  335MOL0     C45129  10.112  10.605   2.736 -0.2662 -0.1747 -0.4771
  335MOL0     C45130  10.072  10.499   2.836 -0.3908 -0.5531 -0.4295
  335MOL0     C45131   9.937  10.530   2.911 -0.4497 -0.3342 -0.8401
  335MOL0     C45132   9.898  10.409   2.994  0.0922 -0.7129  0.3978
  335MOL0     C45133   9.775  10.432   3.083  0.3048  0.0750 -0.4481
  335MOL0     C45134   9.727  10.307   3.160 -0.0474 -0.6086 -0.2664
  335MOL0    Cl45135   9.663  10.184   3.042 -0.2730  0.0760  0.2913
  335MOL0     C45136   9.887  10.398   2.299  0.1720 -0.0123 -0.5152
  335MOL0     C45137   9.838  10.294   2.214  0.0484  0.2396 -0.7901
  335MOL0     O45138   9.749   9.967   2.279 -0.2593 -0.0560 -0.2708
  335MOL0     C45139   9.719   9.756   2.089  0.1307  0.6542 -0.4166
  335MOL0     C45140   9.685   9.650   1.996  0.4369  0.4090 -0.1478
  335MOL0     N45141   9.660   9.856   1.163  0.3416  0.8110 -0.2152
  335MOL0     N45142   9.652   9.959   1.085 -0.2916  0.2223 -0.1555
  335MOL0     C45143   9.768  10.439   1.468  0.1005  0.7865  0.1167
  335MOL0     C45144   9.813  10.307   1.462 -0.0371  0.8836 -0.1707
  335MOL0     C45145  10.012   9.915   1.442 -0.6358 -0.5004 -0.0478
  335MOL0     C45146  10.063   9.879   1.314 -0.3611  0.3410 -0.0143
  335MOL0     C45147  10.109   9.749   1.291  0.1470 -0.4808  0.0821
  335MOL0     C45148  10.113   9.650   1.391 -0.0355  0.2468  0.1016
  335MOL0     O45149  10.161   9.522   1.367 -0.0765 -1.5697  0.9649
  335MOL0     C45150  10.157   9.423   1.474 -0.5511 -0.4652  0.5754
  335MOL0     C45151  10.219   9.306   1.400  0.2737 -0.0580 -0.0557
  335MOL0     C45152  10.212   9.172   1.491  0.0489  0.0124  0.0029
  335MOL0     C45153  10.259   9.045   1.405 -0.1481  0.2269  1.0814
  335MOL0     C45154  10.253   8.925   1.489  0.1904 -0.4259 -0.4721
  335MOL0     C45155  10.268   8.837   1.569 -0.6112 -0.0666  0.4465
  335MOL0     C45156  10.059   9.680   1.519  0.0472  0.7488  0.0149
  335MOL0     C45157  10.012   9.818   1.543 -0.1853  0.3095 -0.7763
  335MOL0     H45158   9.987  10.300   1.188  0.3954  0.4454 -0.3521
  335MOL0     H45159   9.937  10.538   1.184 -0.2379 -0.7872 -0.3466
  335MOL0     H45160   9.590  10.588   1.271  1.1649 -0.8403 -2.0258
  335MOL0     H45161   9.576  10.759   1.334  0.3453  0.2661  0.9084
  335MOL0     H45162   9.727  10.834   1.168 -2.0698  1.6079 -0.9572
  335MOL0     H45163   9.772  10.676   1.119  1.3073  1.0408  1.0070
  335MOL0     H45164   9.485  10.747   1.081  0.1977 -0.3549  2.3926
  335MOL0     H45165   9.618  10.831   0.981  1.7769 -0.1639  1.6198
  335MOL0     H45166   9.522  10.634   0.877  0.2954  0.6902 -0.8348
  335MOL0     H45167   9.697  10.616   0.909 -0.3127 -1.1812 -0.0659
  335MOL0     H45168   9.647  10.475   1.110 -2.4602  0.1348  3.0794
  335MOL0     H45169   9.479  10.506   1.087 -0.2735  0.9346  0.8753
  335MOL0     H45170   9.490  10.387   0.868 -1.8996 -1.1675  1.5705
  335MOL0     H45171   9.659  10.355   0.891 -1.7914 -2.3304 -0.8793
  335MOL0     H45172   9.444  10.253   1.091 -1.3578 -1.4659 -0.5593
  335MOL0     H45173   9.504  10.161   0.958  3.1626 -2.2054  2.3146
  335MOL0     H45174   9.673  10.277   1.174  3.4127 -0.8724  0.5030
  335MOL0     H45175   9.751  10.179   1.049 -0.2095 -0.4395 -0.6678
  335MOL0     H45176   9.657  10.111   1.370  0.0432  0.6589 -1.0875
  335MOL0     H45177   9.734   9.818   1.482  0.6732 -0.7252 -0.9585
  335MOL0     H45178   9.551   9.808   1.462 -0.1539  4.7415 -0.7509
  335MOL0     H45179   9.747   9.627   1.326 -0.2595 -0.0390  0.9049
  335MOL0     H45180   9.574   9.607   1.346  0.8856 -0.2088 -2.1092
  335MOL0     H45181   9.793   9.613   1.550  1.0502 -1.7528 -0.3931
  335MOL0     H45182   9.709   9.473   1.507  1.2132 -0.1687 -1.5548
  335MOL0     H45183   9.512   9.524   1.626  1.5846 -1.2403 -2.2201
  335MOL0     H45184   9.550   9.694   1.623  0.8046  0.3959  0.1781
  335MOL0     H45185   9.682   9.838   1.713 -1.1761  0.0877 -0.5360
  335MOL0     H45186   9.785  10.112   1.860  0.4226 -0.7313  1.9961
  335MOL0     H45187   9.653  10.053   1.757  2.1166 -0.9461 -0.7889
  335MOL0     H45188   9.624  10.116   1.922 -1.4612 -0.4763 -1.2372
  335MOL0     H45189  10.098  10.082   2.257  0.9201  0.4971  3.0803
  335MOL0     H45190  10.194  10.266   2.377  0.6647  4.8750 -1.3124
  335MOL0     H45191   9.865  10.576   2.499 -0.6175 -0.6054  1.9070
  335MOL0     H45192   9.919  10.445   2.606  2.5779 -0.4767  0.5685
  335MOL0     H45193  10.059  10.723   2.562  2.4905  0.8789  0.8901
  335MOL0     H45194   9.921  10.694   2.676 -0.9488 -1.8211  0.5822
  335MOL0     H45195  10.133  10.699   2.788  0.6431  1.5892 -3.7678
  335MOL0     H45196  10.205  10.573   2.688 -1.6021 -1.8713 -2.0708
  335MOL0     H45197  10.066  10.401   2.787  0.0666 -1.3432  1.0303
  335MOL0     H45198  10.155  10.481   2.905  0.0087 -1.4307 -1.1128
  335MOL0     H45199   9.856  10.559   2.843 -2.1487  0.9884  1.6142
  335MOL0     H45200   9.958  10.603   2.990 -1.6355 -0.1571 -0.6760
  335MOL0     H45201   9.898  10.321   2.929  3.1840 -1.9554  1.8874
  335MOL0     H45202   9.979  10.395   3.067  0.9773  1.0583 -0.1838
  335MOL0     H45203   9.690  10.476   3.030 -0.7186  3.3335  3.4152
  335MOL0     H45204   9.800  10.518   3.146 -2.1036  1.1248 -0.7851
  335MOL0     H45205   9.656  10.333   3.239  2.4005  0.4065  1.7567
  335MOL0     H45206   9.817  10.268   3.208  2.4021  0.4446 -3.6477
  335MOL0     H45207   9.823  10.484   2.318 -0.3386 -0.0345 -1.9902
  335MOL0     H45208   9.742  10.294   2.164 -0.1046 -0.9188 -0.5440
  335MOL0     H45209   9.730   9.742   2.196 -0.4676  0.7711 -0.3348
  335MOL0     H45210   9.689   9.549   2.034  3.3898  0.6969  0.5307
  335MOL0     H45211   9.704  10.469   1.550 -2.3673  0.1276 -1.4463
  335MOL0     H45212   9.771  10.240   1.537  1.4416  0.4268  0.2724
  335MOL0     H45213  10.065   9.944   1.227 -1.8069  0.3252 -0.0837
  335MOL0     H45214  10.139   9.719   1.192  1.5584  0.8053  0.0937
  335MOL0     H45215  10.214   9.452   1.563  0.3842 -0.0028 -0.1522
  335MOL0     H45216  10.057   9.387   1.501 -0.1089 -2.0475  0.1879
  335MOL0     H45217  10.322   9.334   1.378  0.1394 -0.2126 -0.9344
  335MOL0     H45218  10.159   9.300   1.308  1.2550  2.7279 -0.9911
  335MOL0     H45219  10.115   9.142   1.532  0.7288 -0.6484  1.1861
  335MOL0     H45220  10.280   9.180   1.576  1.3639 -0.4499 -0.9771
  335MOL0     H45221  10.359   9.059   1.364 -0.4575 -2.5933 -0.9245
  335MOL0     H45222  10.195   9.021   1.320  2.4677  1.5805 -1.4071
  335MOL0     H45223  10.270   8.751   1.632 -1.8448 -0.2226  0.2915
  335MOL0     H45224  10.054   9.607   1.600 -0.3074  1.4080  0.6008
  335MOL0     H45225   9.990   9.848   1.645 -1.4381 -1.3062 -0.5124
  336MOL0     O45226   4.028   2.462   3.793  0.3313 -0.2112  0.1219
  336MOL0     C45227   4.115   2.455   3.701 -0.6256 -0.5290 -0.8018
  336MOL0     O45228   4.108   2.513   3.580 -0.0282 -0.8173  0.4213
  336MOL0     C45229   3.985   2.532   3.513 -0.2771 -0.7142  0.0840
  336MOL0     C45230   3.870   2.458   3.536 -0.6901  1.0046  0.2588
  336MOL0     C45231   3.757   2.462   3.462  0.5307  0.6378 -0.1296
  336MOL0     C45232   3.749   2.547   3.355 -0.1870 -0.0749 -0.3518
  336MOL0     O45233   3.642   2.559   3.279 -0.0007  0.9621  0.0737
  336MOL0     C45234   3.581   2.691   3.291  0.6504  0.2889  0.3098
  336MOL0     C45235   3.435   2.677   3.236  0.2566 -0.1650 -0.1385
  336MOL0     C45236   3.356   2.554   3.283  0.7831 -0.4378 -0.3986
  336MOL0     C45237   3.361   2.532   3.435 -0.3415 -0.5426  0.1533
  336MOL0     C45238   3.237   2.449   3.472 -0.6203 -0.6504  0.1282
  336MOL0     C45239   3.269   2.380   3.604 -0.1538  0.0962  0.1899
  336MOL0     C45240   3.272   2.473   3.730  0.2270  0.6140  0.4520
  336MOL0     C45241   3.315   2.395   3.860  0.4129  0.4485  0.0395
  336MOL0     N45242   3.196   2.313   3.903  0.0087 -0.1572  0.2203
  336MOL0     C45243   3.160   2.189   3.865 -0.0738  0.4159 -0.6341
  336MOL0     C45244   3.059   2.159   3.948 -0.0234  0.1676 -0.6110
  336MOL0     C45245   2.995   2.020   3.971 -0.2702 -0.0873  0.5859
  336MOL0     C45246   3.039   1.954   4.095  0.2780 -0.5087  0.3398
  336MOL0     C45247   3.183   1.904   4.081  0.5496 -0.2449  0.8572
  336MOL0     C45248   3.216   1.794   4.188  0.2876 -0.9748  1.2712
  336MOL0     O45249   3.354   1.755   4.194 -0.1836 -0.1047 -0.3491
  336MOL0     C45250   3.389   1.665   4.294  0.0052 -0.3582 -0.8717
  336MOL0     C45251   3.523   1.624   4.302 -0.5757  0.3621  0.5616
  336MOL0     C45252   3.568   1.528   4.396 -0.5050 -0.7169 -0.1940
  336MOL0     C45253   3.721   1.504   4.418 -0.0352  0.2555  0.8513
  336MOL0     C45254   3.484   1.470   4.493  0.8285 -0.3982  0.6682
  336MOL0     C45255   3.523   1.364   4.587 -0.4028  0.4402  0.1336
  336MOL0     O45256   3.613   1.261   4.550  0.3839  0.0190  0.2216
  336MOL0     C45257   3.618   1.151   4.622  0.0250 -0.2209 -0.0899
  336MOL0     C45258   3.507   1.084   4.681  0.4744 -0.9704  0.6758
  336MOL0     C45259   3.513   0.971   4.759 -0.9775 -0.0368 -0.1079
  336MOL0     C45260   3.638   0.907   4.782  0.7077  0.1396 -0.2592
  336MOL0     O45261   3.630   0.787   4.856  0.6499  0.5373  0.3198
  336MOL0     C45262   3.753   0.730   4.908 -0.8540 -0.0176  0.3265
  336MOL0     C45263   3.780   0.594   4.834 -0.6774 -0.7262  0.9806
  336MOL0     C45264   3.804   0.614   4.687 -0.3274 -0.3589 -0.0330
  336MOL0     C45265   3.943   0.675   4.654  0.8186  0.5843 -0.2908
  336MOL0     C45266   3.966   0.705   4.501 -0.1472  0.5453 -0.2458
  336MOL0     C45267   3.907   0.834   4.451 -0.3749 -1.1618 -0.1260
  336MOL0     C45268   3.954   0.856   4.308  0.1732 -0.2109 -1.1411
  336MOL0     C45269   3.889   0.974   4.238 -0.6293  0.3529  0.2575
  336MOL0    Cl45270   3.945   1.125   4.311  0.4504  0.7379  0.0178
  336MOL0     C45271   3.758   0.980   4.732  0.5644  0.1824 -1.2289
  336MOL0     C45272   3.743   1.098   4.658  1.0555  0.6003  0.6377
  336MOL0     O45273   3.481   1.383   4.699  0.0811  1.0121 -0.0908
  336MOL0     C45274   3.346   1.516   4.498 -0.2265 -0.3177  0.6824
  336MOL0     C45275   3.306   1.607   4.399 -0.2289 -1.1548  0.5421
  336MOL0     N45276   3.025   2.267   4.021 -0.3597  0.5633  0.4373
  336MOL0     N45277   3.108   2.354   3.991  0.0461 -0.1307 -0.1767
  336MOL0     C45278   3.858   2.627   3.324  0.5876 -0.6110 -0.6173
  336MOL0     C45279   3.978   2.622   3.405 -0.1352 -0.3392  0.1361
  336MOL0     C45280   4.245   2.394   3.729  0.6793 -0.3606  0.2325
  336MOL0     C45281   4.354   2.430   3.654  1.3284  0.2990  0.8012
  336MOL0     C45282   4.486   2.394   3.696  0.5649 -0.8242  0.9790
  336MOL0     C45283   4.506   2.304   3.797  0.0976  0.1088  0.5457
  336MOL0     O45284   4.632   2.253   3.827  0.2365  0.2592  0.4637
  336MOL0     C45285   4.731   2.357   3.831 -0.7423 -0.0825  0.5269
  336MOL0     C45286   4.860   2.303   3.903  0.1893  0.1154  0.2836
  336MOL0     C45287   4.978   2.406   3.923  0.8594 -0.2701  0.4734
  336MOL0     C45288   5.097   2.351   3.993 -0.5453  0.9872  0.8620
  336MOL0     C45289   5.209   2.447   3.981  0.2822  1.2018  0.2980
  336MOL0     C45290   5.295   2.530   3.967 -0.0736  0.3177 -0.1816
  336MOL0     C45291   4.390   2.268   3.870  0.4490  0.2351  0.1067
  336MOL0     C45292   4.266   2.318   3.846 -0.1745  0.3218  0.1963
  336MOL0     H45293   3.870   2.381   3.613 -4.2385  1.6789  1.1357
  336MOL0     H45294   3.678   2.398   3.499  0.8804  1.6406  2.5768
  336MOL0     H45295   3.581   2.733   3.392 -0.3356  0.3928  0.2786
  336MOL0     H45296   3.631   2.754   3.216  1.4140 -1.9637 -1.1581
  336MOL0     H45297   3.377   2.762   3.276 -3.5104 -1.4737 -2.3402
  336MOL0     H45298   3.433   2.676   3.127 -0.1833  1.4136 -0.1758
  336MOL0     H45299   3.251   2.565   3.256  0.9611  0.6283 -0.7209
  336MOL0     H45300   3.381   2.461   3.231  1.3971 -0.3799 -0.2156
  336MOL0     H45301   3.454   2.478   3.457 -0.1815 -0.4716 -0.3276
  336MOL0     H45302   3.365   2.629   3.485 -0.1493  1.0704 -2.7533
  336MOL0     H45303   3.153   2.519   3.474  0.3189  0.6260 -1.5308
  336MOL0     H45304   3.205   2.372   3.401  0.2062  0.2154 -1.2495
  336MOL0     H45305   3.199   2.296   3.612 -2.2979  1.8382  0.9507
  336MOL0     H45306   3.369   2.336   3.605  1.0955  2.7367 -0.6339
  336MOL0     H45307   3.348   2.551   3.728 -0.8516  1.6692 -0.2266
  336MOL0     H45308   3.176   2.524   3.738  0.4221  1.0889 -0.2108
  336MOL0     H45309   3.337   2.456   3.948 -1.9282  2.5556 -0.7202
  336MOL0     H45310   3.401   2.329   3.841  0.1100  0.4979 -1.6351
  336MOL0     H45311   3.226   2.132   3.801  1.5312  0.2356  1.1083
  336MOL0     H45312   2.887   2.020   3.958 -0.0168 -0.2368 -1.9940
  336MOL0     H45313   3.031   1.958   3.888 -0.2472  1.0436 -0.2705
  336MOL0     H45314   2.969   1.871   4.108  1.4555 -1.5939 -0.0522
  336MOL0     H45315   3.047   2.017   4.184  2.4985 -2.7311  1.8414
  336MOL0     H45316   3.254   1.987   4.089 -0.5668  1.0082 -1.2432
  336MOL0     H45317   3.196   1.863   3.980 -4.1289 -3.0104  1.0709
  336MOL0     H45318   3.151   1.710   4.162  0.1753 -0.1684 -1.3099
  336MOL0     H45319   3.193   1.832   4.288  2.8653  0.4093  1.4258
  336MOL0     H45320   3.599   1.655   4.231  0.8023 -2.8172  0.4995
  336MOL0     H45321   3.775   1.593   4.385  3.1892 -0.9589  2.4260
  336MOL0     H45322   3.749   1.470   4.518  2.9986 -0.6515 -0.1859
  336MOL0     H45323   3.765   1.426   4.355 -0.1053 -0.2552  1.4294
  336MOL0     H45324   3.406   1.121   4.664 -0.3090 -3.0560  0.5192
  336MOL0     H45325   3.425   0.931   4.810 -1.5822  3.1781  1.6117
  336MOL0     H45326   3.839   0.796   4.897 -1.4579  0.9696  1.3569
  336MOL0     H45327   3.750   0.705   5.015  3.3425 -0.2722  0.5665
  336MOL0     H45328   3.870   0.547   4.877  1.6761  0.5933 -2.0975
  336MOL0     H45329   3.700   0.520   4.836  1.1623 -3.1660 -2.8244
  336MOL0     H45330   3.723   0.672   4.642 -0.9130 -1.9952 -1.1670
  336MOL0     H45331   3.807   0.519   4.633 -0.6974  0.9589 -2.4979
  336MOL0     H45332   3.965   0.762   4.717  0.6926  0.3438  0.0906
  336MOL0     H45333   4.012   0.594   4.679 -0.0067  0.0021  0.1270
  336MOL0     H45334   3.926   0.620   4.445  2.0400 -0.4290 -0.4369
  336MOL0     H45335   4.071   0.716   4.474  0.0196  2.0431  0.9126
  336MOL0     H45336   3.798   0.828   4.461 -0.3907 -0.6543  0.0745
  336MOL0     H45337   3.953   0.910   4.514 -0.1365  0.6292 -2.3406
  336MOL0     H45338   3.925   0.766   4.254  2.3217 -0.4736 -1.9670
  336MOL0     H45339   4.063   0.871   4.303  0.3117 -0.7865 -0.2198
  336MOL0     H45340   3.782   0.964   4.253 -0.6759 -1.9776 -1.1646
  336MOL0     H45341   3.912   0.960   4.132 -0.1638 -0.3313  0.4427
  336MOL0     H45342   3.858   0.948   4.760  1.2568  0.2996 -3.3742
  336MOL0     H45343   3.832   1.143   4.616  0.3402  0.2443 -1.3660
  336MOL0     H45344   3.262   1.472   4.551 -0.1063 -0.8428  0.4442
  336MOL0     H45345   3.209   1.655   4.410 -0.8937 -2.2097 -0.5341
  336MOL0     H45346   3.862   2.689   3.235 -0.1200  0.2189 -0.0857
  336MOL0     H45347   4.069   2.679   3.387 -0.7289  1.1766  1.6060
  336MOL0     H45348   4.346   2.504   3.575  2.5436 -2.2541 -1.8834
  336MOL0     H45349   4.570   2.427   3.637 -1.1027  1.8022 -0.1031
  336MOL0     H45350   4.764   2.371   3.728  0.2167  0.3692  0.8822
  336MOL0     H45351   4.687   2.449   3.872 -0.3730 -0.7770  2.6033
  336MOL0     H45352   4.894   2.218   3.844 -1.3735 -0.0519 -0.4205
  336MOL0     H45353   4.838   2.276   4.007  0.4376 -0.1011  0.2803
  336MOL0     H45354   4.941   2.488   3.986 -1.1465 -1.0548  0.3960
  336MOL0     H45355   5.013   2.447   3.827 -0.2550  0.8983  0.5402
  336MOL0     H45356   5.122   2.264   3.930  0.3208  2.1815 -0.5035
  336MOL0     H45357   5.087   2.311   4.094  0.7785 -1.1516  0.2263
  336MOL0     H45358   5.355   2.618   3.959  0.2376  0.0927 -0.3280
  336MOL0     H45359   4.398   2.200   3.954  1.2729 -2.2709 -1.8659
  336MOL0     H45360   4.186   2.296   3.916  0.5479  1.7538  1.5416
  337MOL0     O45361   1.807   9.379  10.944 -0.3742 -0.1426  0.0499
  337MOL0     C45362   1.774   9.343  10.832  0.4547  0.0976 -0.9607
  337MOL0     O45363   1.646   9.335  10.775 -0.0486  0.6599 -0.1680
  337MOL0     C45364   1.529   9.345  10.855  0.3143 -0.2413 -0.7892
  337MOL0     C45365   1.516   9.347  10.995  0.1788  0.3968 -0.1971
  337MOL0     C45366   1.393   9.372  11.049  0.2689  0.3518  0.2067
  337MOL0     C45367   1.278   9.398  10.976 -0.4896 -0.0232  0.5376
  337MOL0     O45368   1.165   9.442  11.032  0.0415 -0.4276  0.2779
  337MOL0     C45369   1.094   9.356  11.124  0.4393  0.3455  0.0561
  337MOL0     C45370   0.951   9.403  11.139 -0.3695  0.0274 -0.1358
  337MOL0     C45371   0.864   9.308  11.233  0.2674 -0.3355 -0.1129
  337MOL0     C45372   0.738   9.379  11.251 -0.3738 -0.4492  0.1814
  337MOL0     C45373   0.640   9.292  11.329  0.0932 -0.5934  0.8300
  337MOL0     C45374   0.496   9.346  11.339  1.0163 -1.0233 -0.0751
  337MOL0     C45375   0.467   9.429  11.465  0.3807  0.0205 -0.3971
  337MOL0     C45376   0.316   9.456  11.474 -1.1300 -0.5798 -0.3352
  337MOL0     N45377   0.228   9.335  11.486 -0.0211  0.4251 -0.2081
  337MOL0     C45378   0.245   9.229  11.571 -0.9072 -0.3396  0.1294
  337MOL0     C45379   0.148   9.146  11.537  0.4393 -0.0969  0.0398
  337MOL0     C45380   0.139   9.009  11.594  0.3524  0.3717  0.3464
  337MOL0     C45381   0.267   8.916  11.579 -0.5187  0.8165  0.6737
  337MOL0     C45382   0.327   8.893  11.432  0.3271 -0.7836 -0.2310
  337MOL0     C45383   0.469   8.835  11.447 -0.1956  0.5515 -0.0479
  337MOL0     O45384   0.552   8.934  11.506  0.0901 -0.1678 -0.5164
  337MOL0     C45385   0.681   8.894  11.530  0.6025  0.6050  0.4493
  337MOL0     C45386   0.716   8.855  11.652  0.1736  0.5469  0.1839
  337MOL0     C45387   0.850   8.822  11.700 -0.1334  0.2737 -0.7694
  337MOL0     C45388   0.864   8.774  11.843  1.0630 -0.4658  0.2501
  337MOL0     C45389   0.959   8.856  11.613  0.4960  0.5081  0.9261
  337MOL0     C45390   1.100   8.855  11.645  0.0237 -0.0318 -1.1293
  337MOL0     O45391   1.179   8.904  11.548 -0.8410  0.8935 -0.1817
  337MOL0     C45392   1.310   8.868  11.551  0.1189 -0.4565 -0.2880
  337MOL0     C45393   1.348   8.775  11.461 -0.5084 -0.7686 -0.0403
  337MOL0     C45394   1.486   8.732  11.463  0.0941  0.3496  0.1202
  337MOL0     C45395   1.582   8.797  11.549  1.0903 -0.3368 -0.0785
  337MOL0     O45396   1.717   8.765  11.550  0.3544  0.2460  0.1859
  337MOL0     C45397   1.757   8.622  11.593  0.5237  0.8698 -0.2033
  337MOL0     C45398   1.873   8.559  11.506  0.4119 -0.6026 -0.9237
  337MOL0     C45399   1.869   8.613  11.362  0.3481  0.1924  0.6246
  337MOL0     C45400   1.995   8.607  11.284  0.2282  0.1937  0.3359
  337MOL0     C45401   2.040   8.450  11.253  0.7731  0.5387 -0.6457
  337MOL0     C45402   2.176   8.464  11.185  0.0837  0.0279 -0.2479
  337MOL0     C45403   2.299   8.446  11.276  0.2820 -0.0960  0.5634
  337MOL0     C45404   2.441   8.447  11.196  0.0890 -0.0823 -0.1407
  337MOL0    Cl45405   2.461   8.323  11.082  0.2481 -0.0119 -0.1205
  337MOL0     C45406   1.540   8.894  11.635 -0.3725  0.4341 -0.1860
  337MOL0     C45407   1.403   8.923  11.643  1.0446  0.5204  0.7875
  337MOL0     O45408   1.143   8.815  11.756 -0.4388 -0.1856 -0.1873
  337MOL0     C45409   0.922   8.909  11.489 -0.0655  0.9711  0.2331
  337MOL0     C45410   0.789   8.925  11.446  0.4033  0.0536  0.3111
  337MOL0     N45411   0.071   9.196  11.434  0.0610  0.2391 -0.2321
  337MOL0     N45412   0.115   9.308  11.404 -0.2152 -0.6406 -0.1945
  337MOL0     C45413   1.296   9.390  10.837 -0.2811 -0.0579 -0.6909
  337MOL0     C45414   1.411   9.356  10.777 -0.2189 -0.4453 -0.1714
  337MOL0     C45415   1.897   9.344  10.744  0.8456 -0.0732 -0.0887
  337MOL0     C45416   2.023   9.392  10.769  0.1335  0.3809  0.0507
  337MOL0     C45417   2.128   9.389  10.678  0.0102  0.4515  0.3782
  337MOL0     C45418   2.115   9.318  10.558 -0.0297 -0.4208  0.6179
  337MOL0     O45419   2.232   9.290  10.490  0.8062 -0.5870 -0.0182
  337MOL0     C45420   2.217   9.242  10.359 -0.0456  0.8653  0.1031
  337MOL0     C45421   2.348   9.266  10.290  0.9120 -0.9403 -0.2360
  337MOL0     C45422   2.350   9.244  10.134  0.5821  0.3886  0.2532
  337MOL0     C45423   2.269   9.351  10.046 -0.8312  0.9077 -0.2238
  337MOL0     C45424   2.273   9.302   9.908 -0.4268 -0.6150 -0.2638
  337MOL0     C45425   2.269   9.265   9.793 -1.4471 -0.1109 -0.2188
  337MOL0     C45426   1.991   9.272  10.519 -0.4671  0.4796 -0.9123
  337MOL0     C45427   1.888   9.280  10.616 -0.4584 -0.0500 -0.3495
  337MOL0     H45428   1.600   9.335  11.063 -0.8609 -2.7679  0.6979
  337MOL0     H45429   1.385   9.369  11.158  0.4819 -1.5990  0.2028
  337MOL0     H45430   1.090   9.260  11.071  3.0272 -0.1112  0.5541
  337MOL0     H45431   1.141   9.348  11.222  1.3104 -2.8838 -0.5150
  337MOL0     H45432   0.954   9.505  11.180 -2.6777  0.9828 -2.1421
  337MOL0     H45433   0.909   9.398  11.039  0.2365 -2.1387 -0.3136
  337MOL0     H45434   0.837   9.212  11.188 -1.3146 -0.3958  0.9134
  337MOL0     H45435   0.919   9.286  11.325 -0.2734  1.8834  0.8047
  337MOL0     H45436   0.754   9.482  11.283 -0.7657  0.9636 -3.6309
  337MOL0     H45437   0.701   9.389  11.148  2.3072 -0.5301 -0.8551
  337MOL0     H45438   0.630   9.198  11.274  4.1917 -1.6427  1.5523
  337MOL0     H45439   0.674   9.279  11.433  1.0895 -0.1455  0.5623
  337MOL0     H45440   0.471   9.407  11.251  1.7488 -0.3340  0.1789
  337MOL0     H45441   0.435   9.256  11.344  0.7351 -1.0502 -2.6531
  337MOL0     H45442   0.504   9.377  11.553 -1.8418 -0.5916  0.2246
  337MOL0     H45443   0.527   9.520  11.454 -0.0069  0.4093  0.6267
  337MOL0     H45444   0.285   9.508  11.382  0.6353 -1.0903 -1.2662
  337MOL0     H45445   0.294   9.534  11.548 -0.2942 -1.0978  0.4761
  337MOL0     H45446   0.329   9.226  11.639 -0.6218  2.2798 -0.0344
  337MOL0     H45447   0.123   9.010  11.702  1.9149 -2.6276  0.6984
  337MOL0     H45448   0.049   8.973  11.543  0.5223  0.8978 -0.3306
  337MOL0     H45449   0.255   8.820  11.630  2.2078  0.0465  0.0834
  337MOL0     H45450   0.349   8.959  11.637 -0.3247  1.9169 -0.3725
  337MOL0     H45451   0.333   8.988  11.379  1.1461 -0.9800 -0.5028
  337MOL0     H45452   0.262   8.825  11.374  2.9534 -2.3132 -1.5618
  337MOL0     H45453   0.504   8.800  11.350  2.5121  0.6116  0.8416
  337MOL0     H45454   0.451   8.747  11.510 -2.1216 -0.3862 -1.7884
  337MOL0     H45455   0.644   8.880  11.730  0.9230  2.7658  0.2378
  337MOL0     H45456   0.929   8.686  11.852 -1.6957 -2.7545 -0.4708
  337MOL0     H45457   0.879   8.853  11.917  0.7421 -0.6530  0.5189
  337MOL0     H45458   0.766   8.728  11.861 -0.0415  1.0248 -1.6798
  337MOL0     H45459   1.277   8.743  11.385 -0.3291 -0.9591 -0.1292
  337MOL0     H45460   1.521   8.650  11.402  0.9450  0.5631  0.3132
  337MOL0     H45461   1.797   8.636  11.694  0.8995  1.6666 -0.4614
  337MOL0     H45462   1.681   8.544  11.585  0.1325  0.7052  3.3225
  337MOL0     H45463   1.974   8.581  11.541  0.7242 -2.0593 -0.8486
  337MOL0     H45464   1.868   8.450  11.501 -1.0983 -0.7535  1.9805
  337MOL0     H45465   1.828   8.714  11.355 -0.3512 -0.1988 -2.8329
  337MOL0     H45466   1.799   8.554  11.302  0.1151  1.0133  0.0745
  337MOL0     H45467   1.990   8.659  11.188  0.6805  1.3233  0.9023
  337MOL0     H45468   2.062   8.656  11.355 -0.2406  0.8278  0.3494
  337MOL0     H45469   1.977   8.398  11.181 -0.3549  0.7921  0.1262
  337MOL0     H45470   2.052   8.388  11.343 -0.9639 -1.8556 -1.9491
  337MOL0     H45471   2.186   8.390  11.106  1.8012  1.0206 -1.0025
  337MOL0     H45472   2.179   8.564  11.142 -1.5260  0.8453  1.3710
  337MOL0     H45473   2.293   8.362  11.345  0.8111 -0.7385 -0.1577
  337MOL0     H45474   2.310   8.531  11.344 -0.7433 -0.9877  1.9057
  337MOL0     H45475   2.522   8.440  11.270  0.2567  0.1680 -0.2995
  337MOL0     H45476   2.453   8.546  11.152  1.8280 -0.7996 -1.3790
  337MOL0     H45477   1.608   8.932  11.710 -1.7385 -2.6043  2.8543
  337MOL0     H45478   1.358   8.974  11.728 -0.2331 -1.3820  1.3229
  337MOL0     H45479   0.991   8.937  11.411 -3.4738 -0.3095 -3.6235
  337MOL0     H45480   0.762   8.974  11.353 -1.8267  2.1774  1.9618
  337MOL0     H45481   1.208   9.414  10.779  1.0842 -2.2017 -3.9549
  337MOL0     H45482   1.425   9.357  10.669  3.7697  3.0737  0.1045
  337MOL0     H45483   2.035   9.457  10.855 -2.8973 -0.7665  1.4562
  337MOL0     H45484   2.225   9.429  10.709  1.1170 -2.8188  1.5047
  337MOL0     H45485   2.194   9.135  10.359  2.3775  0.2718  1.3416
  337MOL0     H45486   2.145   9.302  10.301  1.4737 -0.7723 -3.8662
  337MOL0     H45487   2.417   9.188  10.323  1.9422 -0.8569 -2.0080
  337MOL0     H45488   2.399   9.361  10.312 -2.2284  1.4953 -2.4421
  337MOL0     H45489   2.320   9.142  10.105  2.0180 -0.9022  2.9604
  337MOL0     H45490   2.458   9.260  10.124  0.9833 -0.9653  2.0120
  337MOL0     H45491   2.317   9.449  10.050 -0.9830  0.9506  3.0652
  337MOL0     H45492   2.165   9.355  10.078 -0.5628 -1.5952  1.1536
  337MOL0     H45493   2.280   9.226   9.694  3.5229 -0.1546  0.1187
  337MOL0     H45494   1.989   9.223  10.422  0.3597 -0.5605 -0.4271
  337MOL0     H45495   1.792   9.243  10.580  0.6626  0.2692 -4.1131
  338MOL0     O45496   5.867   3.473   0.490  0.4834  0.2021 -0.2925
  338MOL0     C45497   5.881   3.398   0.587  0.8420 -0.3485 -0.6331
  338MOL0     O45498   5.996   3.343   0.635 -0.2095  0.5897  0.2736
  338MOL0     C45499   6.114   3.333   0.552  0.1663 -0.6674  0.8244
  338MOL0     C45500   6.118   3.325   0.411  0.4537  0.3509  0.4862
  338MOL0     C45501   6.234   3.315   0.341 -0.1320 -0.8817  0.7851
  338MOL0     C45502   6.356   3.294   0.416 -0.0626 -0.3611  0.8268
  338MOL0     O45503   6.472   3.254   0.347 -0.7090  0.5745 -0.1776
  338MOL0     C45504   6.478   3.111   0.343  0.0525 -1.0564 -0.1515
  338MOL0     C45505   6.625   3.073   0.323 -0.7750  0.1043  0.7312
  338MOL0     C45506   6.723   3.052   0.442  0.4211 -0.5792 -0.1195
  338MOL0     C45507   6.864   3.092   0.407  0.1545  0.2458 -1.4454
  338MOL0     C45508   6.964   3.030   0.512 -0.1792 -0.7964  0.6510
  338MOL0     C45509   7.101   3.107   0.485  0.3942  0.0642  0.1856
  338MOL0     C45510   7.210   3.091   0.591 -0.2634 -0.4697 -0.2549
  338MOL0     C45511   7.180   3.122   0.738  0.3652  0.2985  0.0536
  338MOL0     N45512   7.134   3.258   0.743  0.2812  0.1212  0.0863
  338MOL0     C45513   7.205   3.370   0.772 -0.8963  1.2176 -0.1786
  338MOL0     C45514   7.119   3.469   0.782 -0.0372  0.9619  0.2780
  338MOL0     C45515   7.165   3.606   0.807  0.4054 -0.1760  0.4750
  338MOL0     C45516   7.180   3.693   0.682  0.8489  0.8722 -0.1821
  338MOL0     C45517   7.051   3.691   0.608 -0.1001  0.7484  0.1036
  338MOL0     C45518   7.058   3.600   0.478 -0.0363 -1.2090 -0.3811
  338MOL0     O45519   7.099   3.673   0.359  0.4731 -0.2297  0.0038
  338MOL0     C45520   7.129   3.597   0.248  0.0102  0.3480  0.0538
  338MOL0     C45521   7.101   3.456   0.238 -0.3399 -0.5982  0.0580
  338MOL0     C45522   7.127   3.388   0.120 -0.7603 -0.4198  0.1468
  338MOL0     C45523   7.074   3.247   0.122 -1.0679 -0.7715 -0.0438
  338MOL0     C45524   7.203   3.448   0.011  0.1588 -0.5447 -0.4474
  338MOL0     C45525   7.248   3.385  -0.122 -0.0769  1.6461  0.6046
  338MOL0     O45526   7.295   3.471  -0.221  0.1332  0.0150  0.1082
  338MOL0     C45527   7.309   3.440  -0.350  0.6345 -0.6346  0.3814
  338MOL0     C45528   7.219   3.487  -0.455 -0.8932  0.8844 -0.2283
  338MOL0     C45529   7.252   3.466  -0.588 -0.3355  0.3523 -0.1730
  338MOL0     C45530   7.369   3.402  -0.626 -0.3001  0.0655  0.7261
  338MOL0     O45531   7.418   3.386  -0.757  0.5917  0.6929 -0.2202
  338MOL0     C45532   7.338   3.456  -0.865 -0.2563  0.2418  0.1463
  338MOL0     C45533   7.421   3.487  -0.981  0.1137 -0.4460 -0.1788
  338MOL0     C45534   7.496   3.369  -1.044 -0.0000  0.1523  0.7303
  338MOL0     C45535   7.577   3.396  -1.169 -0.1598 -0.1864 -0.0086
  338MOL0     C45536   7.644   3.275  -1.222  0.3616 -0.3374  0.1453
  338MOL0     C45537   7.723   3.287  -1.350 -0.5112  0.9725 -0.1860
  338MOL0     C45538   7.776   3.141  -1.380 -0.2156  0.0490 -0.1101
  338MOL0     C45539   7.913   3.166  -1.453 -0.2478  0.0666 -1.0584
  338MOL0    Cl45540   7.888   3.253  -1.606 -0.0993 -0.2450  0.0793
  338MOL0     C45541   7.454   3.349  -0.526  0.6912  0.7171 -1.3339
  338MOL0     C45542   7.422   3.371  -0.388 -0.0137  0.4372 -0.0917
  338MOL0     O45543   7.248   3.263  -0.136 -0.1614  0.8446  0.0156
  338MOL0     C45544   7.239   3.580   0.035 -0.8027 -0.2065  0.6376
  338MOL0     C45545   7.199   3.657   0.147 -0.2651  1.1097 -2.0168
  338MOL0     N45546   6.988   3.415   0.754  0.0709  0.5347 -0.2226
  338MOL0     N45547   7.001   3.292   0.738  0.6163  0.4311 -0.3853
  338MOL0     C45548   6.356   3.303   0.550 -0.3225  0.3049 -0.3450
  338MOL0     C45549   6.243   3.327   0.623  0.4788  0.9490  0.2016
  338MOL0     C45550   5.754   3.375   0.664 -0.6024 -0.1602 -0.3615
  338MOL0     C45551   5.629   3.371   0.602  0.1414  0.6209  0.1960
  338MOL0     C45552   5.507   3.344   0.665  0.0194  0.1055 -0.3481
  338MOL0     C45553   5.507   3.327   0.806 -0.1102 -0.1624  0.5274
  338MOL0     O45554   5.394   3.327   0.885 -0.5741  0.1594  0.1746
  338MOL0     C45555   5.278   3.281   0.819  0.4954  0.8778 -0.1383
  338MOL0     C45556   5.171   3.394   0.819  0.1041  0.2542 -0.2531
  338MOL0     C45557   5.123   3.441   0.961  0.1042  0.1112  0.2686
  338MOL0     C45558   5.067   3.338   1.055  0.1545 -0.9130 -0.4235
  338MOL0     C45559   5.037   3.403   1.183 -0.3572 -0.0977 -0.2813
  338MOL0     C45560   5.008   3.474   1.272 -0.3508 -0.3238 -0.2784
  338MOL0     C45561   5.632   3.331   0.866  0.0934  0.1996 -0.7880
  338MOL0     C45562   5.754   3.364   0.805  0.7242  0.3141  0.7384
  338MOL0     H45563   6.024   3.316   0.358  1.5667 -3.6999 -1.1969
  338MOL0     H45564   6.237   3.310   0.233  0.6650  5.9646  0.1031
  338MOL0     H45565   6.435   3.079   0.438  2.7414 -0.1505  1.5016
  338MOL0     H45566   6.420   3.069   0.260  2.4110 -1.0361 -1.9288
  338MOL0     H45567   6.633   2.981   0.265  1.6198  0.5262  0.2773
  338MOL0     H45568   6.671   3.143   0.253  2.0901 -1.7179  0.6306
  338MOL0     H45569   6.685   3.125   0.515 -1.0019  1.0722 -2.4000
  338MOL0     H45570   6.717   2.950   0.482 -1.8957 -0.4595 -0.0157
  338MOL0     H45571   6.892   3.054   0.308  0.0436 -1.7730 -0.7379
  338MOL0     H45572   6.863   3.202   0.404 -1.0765  0.3474  1.0081
  338MOL0     H45573   6.927   3.046   0.613 -2.0023 -1.6389  0.1581
  338MOL0     H45574   6.985   2.924   0.500  2.7950 -0.2116  0.0588
  338MOL0     H45575   7.151   3.066   0.397  0.2657 -1.8206  0.9421
  338MOL0     H45576   7.072   3.211   0.471  0.5062  0.0957  0.1836
  338MOL0     H45577   7.251   2.990   0.576 -0.0661 -0.7462  1.9194
  338MOL0     H45578   7.295   3.157   0.570 -1.1256  0.4929 -0.7732
  338MOL0     H45579   7.271   3.109   0.797 -0.1895 -2.1779  0.4518
  338MOL0     H45580   7.108   3.053   0.782  3.1482 -1.3040  2.4129
  338MOL0     H45581   7.312   3.381   0.782 -0.7962  0.8493 -0.8638
  338MOL0     H45582   7.080   3.644   0.864  0.7139 -1.5973  1.9483
  338MOL0     H45583   7.256   3.619   0.867 -0.7820  1.9233  1.9522
  338MOL0     H45584   7.255   3.652   0.614 -2.1070 -1.7389 -2.1602
  338MOL0     H45585   7.202   3.797   0.709 -0.9489  0.9509  1.2019
  338MOL0     H45586   7.021   3.790   0.571  0.5554  0.2971 -1.7294
  338MOL0     H45587   6.977   3.648   0.677  1.5074 -1.3187  0.6292
  338MOL0     H45588   6.956   3.562   0.465 -0.4772 -0.2148  0.1470
  338MOL0     H45589   7.127   3.518   0.501 -2.1103 -2.3142  2.5483
  338MOL0     H45590   7.055   3.398   0.317 -1.2263 -0.7566 -0.5593
  338MOL0     H45591   7.032   3.227   0.023 -1.0414  0.7368 -0.3811
  338MOL0     H45592   7.157   3.185   0.156  0.9760 -0.5357 -4.1462
  338MOL0     H45593   6.991   3.242   0.194  0.4326 -1.5274  1.7338
  338MOL0     H45594   7.124   3.527  -0.420 -0.9164  1.9455 -1.4168
  338MOL0     H45595   7.177   3.512  -0.651 -1.3358  1.1852  1.5599
  338MOL0     H45596   7.264   3.390  -0.911  0.0182 -0.4157  0.6250
  338MOL0     H45597   7.291   3.546  -0.825 -0.5721  0.7414 -1.2817
  338MOL0     H45598   7.353   3.525  -1.058 -0.8397 -1.1060  0.3106
  338MOL0     H45599   7.491   3.569  -0.965 -2.2216  1.7410 -0.5975
  338MOL0     H45600   7.433   3.293  -1.091 -2.1400  2.7267 -0.7941
  338MOL0     H45601   7.566   3.324  -0.973  2.4947  2.3634 -0.1605
  338MOL0     H45602   7.523   3.441  -1.253 -1.4106 -0.7642  0.4614
  338MOL0     H45603   7.664   3.461  -1.151 -1.5271  2.0123 -0.9519
  338MOL0     H45604   7.565   3.200  -1.230  2.2847 -2.8985  3.0940
  338MOL0     H45605   7.706   3.246  -1.137  0.5603 -1.7985 -0.4685
  338MOL0     H45606   7.665   3.306  -1.440  0.2619 -0.9183 -1.1262
  338MOL0     H45607   7.792   3.370  -1.334 -0.0254  0.0653  3.6167
  338MOL0     H45608   7.711   3.078  -1.442 -0.7142 -1.7877  2.1624
  338MOL0     H45609   7.800   3.092  -1.285 -0.2583 -0.4436 -0.3497
  338MOL0     H45610   7.960   3.069  -1.475 -1.4705 -1.0936  1.0415
  338MOL0     H45611   7.980   3.219  -1.384 -1.7169  1.9820 -1.0221
  338MOL0     H45612   7.547   3.303  -0.557  0.1716 -3.1125  1.9505
  338MOL0     H45613   7.488   3.330  -0.312 -1.0294  0.3513  0.7760
  338MOL0     H45614   7.306   3.631  -0.034 -0.1084 -0.4807  1.0990
  338MOL0     H45615   7.213   3.764   0.150  0.4784  1.0005 -0.8846
  338MOL0     H45616   6.456   3.294   0.591 -0.3758  0.6710 -0.1232
  338MOL0     H45617   6.256   3.309   0.729  0.3291 -0.8667 -0.0565
  338MOL0     H45618   5.618   3.383   0.495 -3.5604 -1.2442  0.1977
  338MOL0     H45619   5.424   3.339   0.595  2.3175 -0.0958 -3.2407
  338MOL0     H45620   5.286   3.250   0.715 -0.6892 -0.8671  0.2418
  338MOL0     H45621   5.239   3.192   0.869  0.7243  0.5333 -0.5727
  338MOL0     H45622   5.083   3.363   0.762  1.2734 -0.9426 -1.4659
  338MOL0     H45623   5.216   3.485   0.779 -0.6261  0.8536  0.2328
  338MOL0     H45624   5.043   3.515   0.948  1.2254  0.8507 -3.8445
  338MOL0     H45625   5.213   3.471   1.015  0.2021  0.7982 -0.2712
  338MOL0     H45626   5.133   3.252   1.068  1.6108 -0.2672 -2.9844
  338MOL0     H45627   4.977   3.300   1.007 -0.2886 -0.2819 -0.1154
  338MOL0     H45628   4.976   3.526   1.360  0.0053 -1.9494  0.8710
  338MOL0     H45629   5.641   3.304   0.971 -0.8577 -2.8581 -1.3729
  338MOL0     H45630   5.851   3.365   0.854  1.5963  0.7530 -0.8992
  339MOL0     O45631   2.156   7.710   9.456 -0.6089 -0.1139  0.1625
  339MOL0     C45632   2.208   7.757   9.350 -0.1732  0.5230 -0.1843
  339MOL0     O45633   2.146   7.830   9.261  0.9069  0.5060 -0.2688
  339MOL0     C45634   2.007   7.823   9.269 -0.1292  0.3301 -0.1618
  339MOL0     C45635   1.935   7.707   9.268 -0.1618 -0.4814  0.2041
  339MOL0     C45636   1.798   7.702   9.279  0.0213  0.0741  0.9938
  339MOL0     C45637   1.728   7.818   9.311 -0.7471 -0.7327 -0.6216
  339MOL0     O45638   1.598   7.803   9.324 -0.0776  1.0120 -0.0812
  339MOL0     C45639   1.514   7.914   9.342  0.3413  0.3100  0.1506
  339MOL0     C45640   1.368   7.875   9.338  0.5381 -0.3868 -0.2188
  339MOL0     C45641   1.316   7.847   9.196  0.0655  0.2912 -0.2582
  339MOL0     C45642   1.170   7.802   9.194  0.3881 -0.4082 -0.4693
  339MOL0     C45643   1.118   7.742   9.067  0.3395 -0.5777  0.2486
  339MOL0     C45644   1.024   7.835   8.995  0.2690  0.2036  0.9767
  339MOL0     C45645   0.972   7.764   8.868 -0.3572  0.0719 -0.0539
  339MOL0     C45646   0.894   7.856   8.769  0.5366  0.7932  0.5278
  339MOL0     N45647   0.773   7.922   8.827 -0.2988  0.5100 -0.1443
  339MOL0     C45648   0.764   8.049   8.859  0.3316 -0.1949 -0.3174
  339MOL0     C45649   0.642   8.067   8.921 -0.4774 -0.6301 -0.7732
  339MOL0     C45650   0.577   8.191   8.974 -0.8122 -0.8714 -0.0884
  339MOL0     C45651   0.651   8.320   8.926 -0.1659 -0.3350 -0.7070
  339MOL0     C45652   0.605   8.386   8.799 -0.8790 -0.3677  0.5455
  339MOL0     C45653   0.628   8.301   8.673  0.9339  0.9006 -0.6686
  339MOL0     O45654   0.547   8.185   8.675  0.1364  0.2924  0.0780
  339MOL0     C45655   0.563   8.086   8.583 -0.0201  0.8397 -0.2521
  339MOL0     C45656   0.634   8.095   8.465 -0.3848  0.0091  0.6910
  339MOL0     C45657   0.668   7.982   8.390 -0.3137 -0.2041  0.7766
  339MOL0     C45658   0.759   7.997   8.274 -0.2944 -0.5985 -0.4415
  339MOL0     C45659   0.602   7.859   8.419  0.2547  0.4997 -0.2830
  339MOL0     C45660   0.622   7.733   8.339 -1.2498 -0.0878 -0.9941
  339MOL0     O45661   0.524   7.642   8.353  0.6069  0.4166  0.2228
  339MOL0     C45662   0.544   7.520   8.281  0.2052 -0.3496 -0.5708
  339MOL0     C45663   0.643   7.431   8.316 -0.0189  0.9504  0.5651
  339MOL0     C45664   0.664   7.311   8.251  0.4391  0.2004 -0.0940
  339MOL0     C45665   0.590   7.276   8.138  0.4578  0.1847 -0.5085
  339MOL0     O45666   0.602   7.159   8.071 -0.3860  0.2287  0.8005
  339MOL0     C45667   0.736   7.106   8.067 -0.0880  0.7309  0.3625
  339MOL0     C45668   0.758   6.972   8.005  0.2413  0.9678  0.4497
  339MOL0     C45669   0.666   6.867   8.070  0.1355 -0.2564  0.3740
  339MOL0     C45670   0.676   6.732   7.994 -0.0870  0.1671  0.0287
  339MOL0     C45671   0.553   6.635   8.006 -0.0067 -0.0021 -0.7763
  339MOL0     C45672   0.496   6.628   8.148  0.1486  0.6133  0.3723
  339MOL0     C45673   0.596   6.604   8.268  0.6635  0.2309  1.8133
  339MOL0     C45674   0.527   6.636   8.403 -0.2396 -0.6029  0.7257
  339MOL0    Cl45675   0.401   6.517   8.448 -0.1624 -0.1571  0.1719
  339MOL0     C45676   0.483   7.363   8.109 -0.6303 -0.4431  0.8753
  339MOL0     C45677   0.454   7.478   8.187 -0.0446 -0.1851  0.0637
  339MOL0     O45678   0.725   7.717   8.275 -0.1526  0.8557 -0.1553
  339MOL0     C45679   0.526   7.856   8.539  0.5540 -0.1701  0.2795
  339MOL0     C45680   0.499   7.973   8.613 -0.2834 -0.2417  0.2072
  339MOL0     N45681   0.595   7.942   8.931 -0.4358  0.7258 -0.5843
  339MOL0     N45682   0.673   7.853   8.877  0.3609  0.1811  0.5609
  339MOL0     C45683   1.802   7.938   9.316  0.5117 -0.5464 -0.0091
  339MOL0     C45684   1.939   7.940   9.289  0.6481 -0.1078 -0.0803
  339MOL0     C45685   2.350   7.749   9.341 -0.2292  0.6249  0.2889
  339MOL0     C45686   2.409   7.789   9.228  0.7681  0.8551  0.5166
  339MOL0     C45687   2.550   7.765   9.215 -0.6019 -0.3464 -0.2247
  339MOL0     C45688   2.633   7.695   9.313 -0.2289  0.5921  0.1285
  339MOL0     O45689   2.772   7.674   9.308 -1.0360  0.1112  0.1497
  339MOL0     C45690   2.831   7.688   9.174 -0.3103 -0.6444  0.1850
  339MOL0     C45691   2.955   7.601   9.160 -0.0176  0.8468 -0.0863
  339MOL0     C45692   3.088   7.649   9.230 -0.6553  0.1229  0.4804
  339MOL0     C45693   3.199   7.545   9.229  0.7592  0.2496 -0.8936
  339MOL0     C45694   3.172   7.423   9.307  0.6428  0.4207  0.8997
  339MOL0     C45695   3.163   7.321   9.365 -0.0885  0.8259  0.0559
  339MOL0     C45696   2.573   7.670   9.430 -0.1531  0.5988 -0.1989
  339MOL0     C45697   2.427   7.689   9.445 -0.0321 -0.0208 -0.1521
  339MOL0     H45698   1.985   7.614   9.242 -0.3089 -1.4702  3.1408
  339MOL0     H45699   1.752   7.606   9.258  1.5299 -0.8754  1.8394
  339MOL0     H45700   1.530   7.941   9.447 -2.8794  0.4629  0.7003
  339MOL0     H45701   1.531   7.995   9.270 -1.1385 -1.0899 -1.8710
  339MOL0     H45702   1.359   7.785   9.399  0.0065 -1.2059 -1.4761
  339MOL0     H45703   1.293   7.946   9.374 -0.1182 -0.0803 -2.0655
  339MOL0     H45704   1.327   7.939   9.138 -2.7743 -0.4142 -2.1362
  339MOL0     H45705   1.375   7.770   9.144 -2.9254 -0.8131 -2.3201
  339MOL0     H45706   1.163   7.721   9.267  2.8787 -0.4802 -0.2218
  339MOL0     H45707   1.111   7.881   9.240 -0.1254 -1.5717  0.9676
  339MOL0     H45708   1.197   7.719   8.996 -0.7430 -0.3136 -1.0842
  339MOL0     H45709   1.077   7.642   9.083 -0.5477 -0.4752 -1.1860
  339MOL0     H45710   0.943   7.857   9.065  0.1147  1.3790  0.4467
  339MOL0     H45711   1.071   7.928   8.962 -2.6678  1.2291 -0.6102
  339MOL0     H45712   1.064   7.731   8.821  0.3850  4.2501 -2.0182
  339MOL0     H45713   0.908   7.684   8.906  0.1307 -0.2213  0.1474
  339MOL0     H45714   0.859   7.788   8.691 -1.1892  0.4678  1.5371
  339MOL0     H45715   0.959   7.934   8.728  1.2700  0.9832  1.9791
  339MOL0     H45716   0.829   8.134   8.838 -0.3141  0.4218  0.1433
  339MOL0     H45717   0.473   8.188   8.942 -1.4286  0.1285  1.6582
  339MOL0     H45718   0.565   8.184   9.083 -0.6700 -3.1047 -0.1712
  339MOL0     H45719   0.760   8.305   8.923 -0.4245 -2.5884 -0.5393
  339MOL0     H45720   0.643   8.390   9.010 -1.8532 -0.2617 -0.8969
  339MOL0     H45721   0.645   8.488   8.794 -0.9125 -0.3286  1.0049
  339MOL0     H45722   0.499   8.408   8.816 -0.8931  0.8985 -0.9724
  339MOL0     H45723   0.735   8.291   8.658  1.0403  0.9361  0.0270
  339MOL0     H45724   0.590   8.364   8.592 -1.8867  1.8451  1.2225
  339MOL0     H45725   0.683   8.187   8.433 -0.6138 -0.1047  0.0002
  339MOL0     H45726   0.779   8.105   8.272  0.2087 -0.6565  0.7303
  339MOL0     H45727   0.856   7.948   8.287  1.2565  1.5524 -2.9153
  339MOL0     H45728   0.709   7.970   8.180 -2.1990  0.4545  0.2217
  339MOL0     H45729   0.712   7.464   8.393  1.6373  0.6985 -0.7523
  339MOL0     H45730   0.748   7.254   8.290 -1.1069 -3.5111 -1.6641
  339MOL0     H45731   0.804   7.165   8.005 -0.8377 -0.0152 -1.2297
  339MOL0     H45732   0.767   7.097   8.172 -0.4054  1.6630  0.5435
  339MOL0     H45733   0.743   6.975   7.896  2.3048 -1.1535  0.0264
  339MOL0     H45734   0.862   6.942   8.019  0.5604  1.9330  0.2417
  339MOL0     H45735   0.560   6.894   8.058  0.0243 -1.1395 -0.8608
  339MOL0     H45736   0.683   6.872   8.178 -0.4740  1.2151  0.4283
  339MOL0     H45737   0.679   6.755   7.887  1.0186  1.3010  0.2835
  339MOL0     H45738   0.771   6.683   8.019  0.3312 -0.0004 -1.7850
  339MOL0     H45739   0.572   6.532   7.974 -3.2801 -0.2514 -2.3380
  339MOL0     H45740   0.477   6.673   7.938  0.5586  1.3748 -0.6654
  339MOL0     H45741   0.443   6.721   8.169  2.7789  1.7766  2.4400
  339MOL0     H45742   0.426   6.544   8.145  0.3392  0.4791 -1.4497
  339MOL0     H45743   0.684   6.669   8.259  1.7481 -1.4367 -0.3988
  339MOL0     H45744   0.629   6.500   8.277 -0.7613 -0.0939  4.0248
  339MOL0     H45745   0.498   6.741   8.417  0.5710 -0.4953  1.7409
  339MOL0     H45746   0.605   6.623   8.478 -0.7055 -1.0228  1.1455
  339MOL0     H45747   0.414   7.348   8.027  1.2474 -0.6712 -0.7281
  339MOL0     H45748   0.371   7.544   8.164 -0.4182 -1.0749 -1.2383
  339MOL0     H45749   0.496   7.763   8.587  1.7923 -0.0434  1.3550
  339MOL0     H45750   0.435   7.972   8.701  1.0194 -1.7613  1.1872
  339MOL0     H45751   1.746   8.030   9.326  3.8275  1.8008 -1.2861
  339MOL0     H45752   1.996   8.032   9.283  0.3571  0.0777  0.0198
  339MOL0     H45753   2.356   7.819   9.139 -1.9379  1.7544  2.3099
  339MOL0     H45754   2.605   7.797   9.127  0.2830 -1.0427  0.0516
  339MOL0     H45755   2.759   7.658   9.098  0.8602 -0.9286 -0.8509
  339MOL0     H45756   2.864   7.792   9.168 -1.6428 -0.1189  1.3546
  339MOL0     H45757   2.970   7.576   9.054 -1.7127 -3.6734  0.5410
  339MOL0     H45758   2.932   7.502   9.200 -0.0126 -0.1473 -2.3825
  339MOL0     H45759   3.067   7.687   9.330  1.7912  2.5927  0.1877
  339MOL0     H45760   3.133   7.727   9.167  0.4250 -2.0015 -1.5520
  339MOL0     H45761   3.285   7.602   9.264 -2.0149  4.4446 -0.0516
  339MOL0     H45762   3.214   7.513   9.125  1.5240 -1.2880 -0.3401
  339MOL0     H45763   3.157   7.226   9.414 -0.7349  1.4194  1.1786
  339MOL0     H45764   2.631   7.646   9.519 -1.7846 -2.6211  0.1507
  339MOL0     H45765   2.386   7.667   9.543  0.7572  2.7372  0.8970
  340MOL0     O45766   3.988  10.197   1.642  0.7599 -0.8150  0.3226
  340MOL0     C45767   3.941  10.294   1.702 -0.2630 -0.3331  1.1778
  340MOL0     O45768   3.895  10.412   1.635 -0.0583  0.4418 -0.3953
  340MOL0     C45769   3.874  10.409   1.505  0.0957 -0.1340 -0.2354
  340MOL0     C45770   3.932  10.515   1.430 -0.1335 -0.2138  0.2666
  340MOL0     C45771   3.922  10.525   1.288  0.5015 -0.3128 -0.1149
  340MOL0     C45772   3.841  10.432   1.222 -1.0459 -1.1087 -0.3398
  340MOL0     O45773   3.809  10.444   1.092  0.1480  0.1502  0.2188
  340MOL0     C45774   3.837  10.568   1.039 -0.1685 -0.4962  0.4950
  340MOL0     C45775   3.800  10.584   0.894 -0.2194 -0.3364  0.3216
  340MOL0     C45776   3.797  10.731   0.864  0.5020  0.0371  0.0803
  340MOL0     C45777   3.795  10.771   0.716  0.2209 -0.6403 -0.0191
  340MOL0     C45778   3.821  10.914   0.686  0.2181 -0.3798  0.2575
  340MOL0     C45779   3.711  11.004   0.745  0.8047  1.5124 -0.1676
  340MOL0     C45780   3.720  11.152   0.689 -0.4139 -0.0080 -0.9010
  340MOL0     C45781   3.840  11.234   0.725  0.3925 -0.2787  0.1503
  340MOL0     N45782   3.856  11.225   0.873 -1.0178 -0.0843 -0.3266
  340MOL0     C45783   3.807  11.301   0.973  0.1984  0.9258 -0.5608
  340MOL0     C45784   3.862  11.263   1.088  0.7611  0.7634 -0.3879
  340MOL0     C45785   3.836  11.315   1.226  0.4290 -0.2347  0.0614
  340MOL0     C45786   3.706  11.268   1.283 -0.3387 -0.1521  0.0043
  340MOL0     C45787   3.647  11.369   1.378 -0.7420 -0.1427 -0.4581
  340MOL0     C45788   3.518  11.317   1.442  0.4501  0.5466  0.4628
  340MOL0     O45789   3.418  11.289   1.342  0.0234  0.5228 -0.6476
  340MOL0     C45790   3.288  11.258   1.356  0.2812  0.3254  0.2230
  340MOL0     C45791   3.218  11.231   1.235 -0.5497  0.3854 -0.2097
  340MOL0     C45792   3.081  11.203   1.239 -0.1075  0.1952  0.0474
  340MOL0     C45793   3.008  11.203   1.101  0.2461  0.3138 -0.7414
  340MOL0     C45794   3.007  11.200   1.359  0.8300  0.3016  0.4336
  340MOL0     C45795   2.859  11.171   1.369  0.8474 -0.2934  0.3937
  340MOL0     O45796   2.779  11.260   1.433 -0.4065  0.0462 -0.4274
  340MOL0     C45797   2.647  11.246   1.469 -0.7497 -0.0548  0.6924
  340MOL0     C45798   2.566  11.354   1.495  0.1891 -0.1945 -0.0460
  340MOL0     C45799   2.432  11.347   1.553 -0.2279 -0.2531  0.2489
  340MOL0     C45800   2.387  11.218   1.568 -0.2053 -0.4275  0.2021
  340MOL0     O45801   2.263  11.207   1.620  0.6559  0.1042  0.4548
  340MOL0     C45802   2.175  11.123   1.537  0.6300 -0.8976  0.3553
  340MOL0     C45803   2.082  11.034   1.607  0.3274 -0.1379 -0.5651
  340MOL0     C45804   1.990  10.956   1.519  0.4313  0.3065  0.2565
  340MOL0     C45805   1.903  10.850   1.590 -0.5691 -0.4892  0.4286
  340MOL0     C45806   1.965  10.717   1.633 -0.4440 -0.0883 -0.5634
  340MOL0     C45807   1.978  10.610   1.528 -0.4087  0.4730 -0.7234
  340MOL0     C45808   1.847  10.545   1.487  0.3022 -1.1114  0.2044
  340MOL0     C45809   1.869  10.450   1.374  0.6369 -0.1397  0.2750
  340MOL0    Cl45810   1.937  10.521   1.224  0.0420 -0.1527 -0.0185
  340MOL0     C45811   2.460  11.108   1.547 -0.3649 -0.5418  0.4021
  340MOL0     C45812   2.591  11.127   1.498  0.1262  0.4648 -0.5593
  340MOL0     O45813   2.826  11.065   1.326 -0.0591  0.4190  0.5724
  340MOL0     C45814   3.083  11.216   1.475  0.6503 -0.4017 -0.7696
  340MOL0     C45815   3.221  11.242   1.477 -0.0445  0.9533  0.9226
  340MOL0     N45816   3.947  11.162   1.051  0.9215 -0.9083  0.0946
  340MOL0     N45817   3.956  11.144   0.933  0.2960 -0.1295  0.5044
  340MOL0     C45818   3.783  10.323   1.295  0.6783  0.8301  1.2367
  340MOL0     C45819   3.792  10.309   1.435 -1.0634  1.0063 -0.2701
  340MOL0     C45820   3.930  10.283   1.849 -0.9047  0.4342  1.5145
  340MOL0     C45821   4.003  10.187   1.913  0.2576  0.7795 -0.6102
  340MOL0     C45822   4.004  10.190   2.054  0.4006 -0.0057 -0.9108
  340MOL0     C45823   3.926  10.276   2.129 -0.5364 -0.2982 -0.9774
  340MOL0     O45824   3.907  10.276   2.271  0.0404 -0.5273  1.0997
  340MOL0     C45825   3.990  10.183   2.345  0.1757 -0.4965 -0.8702
  340MOL0     C45826   4.132  10.226   2.369 -1.2781  0.5666  0.2659
  340MOL0     C45827   4.143  10.348   2.457  0.2487  0.0074  0.5296
  340MOL0     C45828   4.134  10.481   2.385 -0.4596 -0.3695  0.1633
  340MOL0     C45829   4.249  10.514   2.297  0.4815  0.4154 -0.4809
  340MOL0     C45830   4.344  10.538   2.223  0.5341  0.0189 -0.5119
  340MOL0     C45831   3.853  10.374   2.060 -0.0687 -0.0400 -0.2308
  340MOL0     C45832   3.856  10.375   1.920  0.0043 -0.8211  0.3568
  340MOL0     H45833   3.996  10.594   1.468 -1.9270  1.6932 -0.5159
  340MOL0     H45834   3.981  10.602   1.239  2.6901  0.3056  3.1109
  340MOL0     H45835   3.777  10.631   1.106 -4.6351 -2.0434 -1.7233
  340MOL0     H45836   3.946  10.583   1.043 -0.2009 -0.4749  1.8116
  340MOL0     H45837   3.867  10.532   0.825 -1.0659 -0.5142 -0.3915
  340MOL0     H45838   3.702  10.540   0.875 -1.1052  1.7981 -0.3093
  340MOL0     H45839   3.708  10.772   0.913  1.0480 -1.3065  2.3311
  340MOL0     H45840   3.889  10.770   0.909  0.9343 -1.1455  0.2546
  340MOL0     H45841   3.874  10.713   0.668  0.5230 -0.1025 -0.1752
  340MOL0     H45842   3.694  10.754   0.680  0.1026  1.0843 -0.6056
  340MOL0     H45843   3.917  10.950   0.722  1.0950  2.4008 -4.1054
  340MOL0     H45844   3.826  10.924   0.577 -2.6151 -1.3015 -0.0517
  340MOL0     H45845   3.619  10.952   0.717  2.0719  0.3644 -2.4750
  340MOL0     H45846   3.720  11.010   0.854 -4.5817  0.2510  0.6301
  340MOL0     H45847   3.716  11.148   0.580  0.9046 -0.4947 -0.9485
  340MOL0     H45848   3.631  11.201   0.729  0.0180  0.4657 -0.5009
  340MOL0     H45849   3.828  11.334   0.684  0.5479 -0.9724 -1.6867
  340MOL0     H45850   3.931  11.185   0.688 -1.4067 -4.8789  1.1737
  340MOL0     H45851   3.735  11.381   0.955  0.2143  0.8170 -1.1423
  340MOL0     H45852   3.911  11.278   1.297  0.6706 -0.9812 -0.5687
  340MOL0     H45853   3.842  11.424   1.234 -2.6741  0.1202 -1.1204
  340MOL0     H45854   3.710  11.173   1.338  2.7547 -1.3299 -1.9930
  340MOL0     H45855   3.632  11.253   1.204  2.9428 -0.5226 -3.2954
  340MOL0     H45856   3.630  11.469   1.336 -1.9368  1.0949  2.7119
  340MOL0     H45857   3.722  11.387   1.456 -0.8922  2.6009 -0.8207
  340MOL0     H45858   3.479  11.397   1.504 -0.5395  1.4018 -1.2149
  340MOL0     H45859   3.540  11.226   1.499  2.7665 -0.1040 -1.2683
  340MOL0     H45860   3.268  11.217   1.139  1.4094 -0.5869  0.9029
  340MOL0     H45861   3.084  11.254   1.040  2.2756 -1.6810 -0.0089
  340MOL0     H45862   2.987  11.108   1.051 -1.1906  0.8640 -1.2477
  340MOL0     H45863   2.914  11.259   1.105  0.3479  0.4005  1.3795
  340MOL0     H45864   2.594  11.458   1.477 -2.4480  1.0576  2.2048
  340MOL0     H45865   2.368  11.431   1.576  0.0803 -0.0910  0.5186
  340MOL0     H45866   2.112  11.190   1.478  1.6965 -2.0992 -2.3188
  340MOL0     H45867   2.229  11.057   1.467 -0.8773 -0.6954 -1.0657
  340MOL0     H45868   2.145  10.969   1.668  0.9840  3.5145  3.0156
  340MOL0     H45869   2.020  11.086   1.679 -1.8611 -0.4883 -2.1013
  340MOL0     H45870   2.043  10.903   1.439  0.4235  1.0796 -0.2793
  340MOL0     H45871   1.931  11.026   1.459 -1.1468  0.4449  1.8812
  340MOL0     H45872   1.865  10.895   1.682  2.8359  2.3306  0.6569
  340MOL0     H45873   1.813  10.841   1.529  0.1585  0.3376 -0.7961
  340MOL0     H45874   1.889  10.680   1.702 -0.5200  2.0376  0.5542
  340MOL0     H45875   2.060  10.721   1.687 -0.9070 -1.4268  0.3967
  340MOL0     H45876   2.034  10.660   1.448  0.7400  3.7748  1.8708
  340MOL0     H45877   2.041  10.529   1.566 -0.1256 -0.3595 -2.8125
  340MOL0     H45878   1.786  10.615   1.429 -0.5321 -1.3241  0.7977
  340MOL0     H45879   1.790  10.513   1.575 -0.1646 -0.1390  0.2617
  340MOL0     H45880   1.776  10.399   1.349  0.0744  1.4907 -1.1177
  340MOL0     H45881   1.943  10.377   1.409  1.8002  0.3385 -1.0941
  340MOL0     H45882   2.434  11.004   1.567  1.3596 -0.5465  3.2108
  340MOL0     H45883   2.646  11.035   1.477 -2.7221 -1.0117 -2.2046
  340MOL0     H45884   3.031  11.205   1.569  0.9693  2.9962 -0.0791
  340MOL0     H45885   3.285  11.273   1.559  0.2539  3.0959 -0.0508
  340MOL0     H45886   3.737  10.253   1.226 -0.9701  3.8679 -1.0408
  340MOL0     H45887   3.759  10.218   1.484 -0.2907  1.0362  0.3235
  340MOL0     H45888   4.078  10.126   1.863  1.5696  1.3477  0.5854
  340MOL0     H45889   4.056  10.109   2.103 -2.6361 -0.2398  2.3245
  340MOL0     H45890   3.939  10.172   2.441 -0.1438  2.0288 -0.6785
  340MOL0     H45891   3.982  10.082   2.304 -0.9131 -0.9457  0.4038
  340MOL0     H45892   4.193  10.242   2.280 -0.2307 -1.5715  0.5513
  340MOL0     H45893   4.190  10.149   2.420  2.5092  1.0451 -2.8467
  340MOL0     H45894   4.239  10.343   2.508  1.2469 -0.9409 -1.3456
  340MOL0     H45895   4.062  10.359   2.530 -1.8097 -3.1576 -1.0384
  340MOL0     H45896   4.135  10.562   2.457 -1.5040  1.2963 -1.6123
  340MOL0     H45897   4.036  10.496   2.338 -0.2909 -0.0404 -0.0814
  340MOL0     H45898   4.423  10.562   2.154 -0.2838  0.5754 -1.2747
  340MOL0     H45899   3.791  10.441   2.119 -2.1386 -2.7920  0.9668
  340MOL0     H45900   3.801  10.456   1.874  3.1012  0.3471 -1.6422
  341MOL0     O45901   9.445   8.302   3.632 -0.0466  0.0496 -0.2409
  341MOL0     C45902   9.324   8.332   3.612  0.0151  0.4366 -0.0644
  341MOL0     O45903   9.231   8.345   3.717  0.1217  0.6623 -0.5206
  341MOL0     C45904   9.281   8.335   3.842 -0.0332  0.3703  0.8359
  341MOL0     C45905   9.350   8.441   3.893 -0.4250  0.0745  0.0547
  341MOL0     C45906   9.384   8.434   4.029 -0.4297 -0.5922  0.7516
  341MOL0     C45907   9.338   8.331   4.115 -0.0305  0.9705  0.3840
  341MOL0     O45908   9.374   8.348   4.242 -1.4338  0.3434  0.3470
  341MOL0     C45909   9.382   8.238   4.333  0.6915 -0.6740 -0.0295
  341MOL0     C45910   9.383   8.297   4.478  0.8309 -1.1918 -1.2313
  341MOL0     C45911   9.279   8.407   4.500 -0.4885  0.0573  0.5692
  341MOL0     C45912   9.274   8.434   4.649 -0.3714 -0.3741  1.0403
  341MOL0     C45913   9.199   8.324   4.718 -0.0589 -0.2050 -0.4257
  341MOL0     C45914   9.148   8.375   4.858  0.7113 -0.0927 -0.2135
  341MOL0     C45915   9.023   8.286   4.898  0.1546  0.5797  0.1041
  341MOL0     C45916   9.052   8.134   4.893  0.3156 -0.0545  0.8276
  341MOL0     N45917   9.147   8.082   4.988 -0.1640  0.5327  1.0925
  341MOL0     C45918   9.152   8.118   5.117 -0.9271  0.0359  0.0915
  341MOL0     C45919   9.264   8.063   5.164  0.8840  0.3306  0.1832
  341MOL0     C45920   9.309   8.072   5.296  0.3981 -0.5918  0.5213
  341MOL0     C45921   9.417   8.170   5.305 -0.4530 -0.0665  0.9477
  341MOL0     C45922   9.369   8.321   5.285 -0.5845 -0.0867  0.0717
  341MOL0     C45923   9.306   8.371   5.417 -0.4332  0.0995  0.3506
  341MOL0     O45924   9.247   8.502   5.397 -0.6481 -0.2648  0.6212
  341MOL0     C45925   9.121   8.499   5.335 -0.8471 -0.2672  0.2677
  341MOL0     C45926   9.017   8.446   5.401  0.9835  0.1377  0.7736
  341MOL0     C45927   8.884   8.454   5.361  0.3838 -1.5155 -0.0286
  341MOL0     C45928   8.779   8.418   5.464 -0.0003  0.0395  0.2560
  341MOL0     C45929   8.860   8.516   5.233  0.3359  0.2092  0.1774
  341MOL0     C45930   8.726   8.510   5.174 -0.9810 -0.5950 -0.2974
  341MOL0     O45931   8.726   8.552   5.040  0.3332  0.1804  0.5358
  341MOL0     C45932   8.609   8.527   4.978  0.9674  0.4045  0.3493
  341MOL0     C45933   8.585   8.407   4.914  0.5997  1.1271  0.1579
  341MOL0     C45934   8.458   8.382   4.847  0.1272  0.6348 -0.1495
  341MOL0     C45935   8.354   8.479   4.845  0.1911  0.3789  0.0258
  341MOL0     O45936   8.237   8.468   4.787 -0.0154 -0.2042  0.1938
  341MOL0     C45937   8.203   8.344   4.732  0.1479  0.3803  0.0476
  341MOL0     C45938   8.052   8.330   4.710 -0.1503 -0.2388  0.6864
  341MOL0     C45939   7.993   8.427   4.599 -0.0808 -0.8127  0.2502
  341MOL0     C45940   7.856   8.384   4.551 -1.2757  0.5810 -0.2939
  341MOL0     C45941   7.811   8.488   4.450 -0.1699  0.5800  0.7233
  341MOL0     C45942   7.679   8.445   4.381  0.2246 -0.1888  0.2208
  341MOL0     C45943   7.634   8.550   4.282  0.1635 -0.1256  0.0864
  341MOL0     C45944   7.494   8.516   4.232  0.1745 -0.3030  0.0721
  341MOL0    Cl45945   7.503   8.352   4.153  0.1073 -0.0004  0.1425
  341MOL0     C45946   8.387   8.599   4.915 -0.1083  0.0565  0.8204
  341MOL0     C45947   8.508   8.619   4.977  0.1558  0.0844 -0.9822
  341MOL0     O45948   8.623   8.473   5.235 -0.2229 -0.2543  0.5309
  341MOL0     C45949   8.974   8.555   5.165 -0.1610 -0.2880  0.1810
  341MOL0     C45950   9.104   8.547   5.210  0.1835 -0.0421 -0.1570
  341MOL0     N45951   9.309   7.965   5.070 -0.3073 -1.2093  0.5602
  341MOL0     N45952   9.231   7.982   4.962 -0.7838 -0.2290 -0.3361
  341MOL0     C45953   9.245   8.238   4.062 -0.9515 -0.8352 -0.1567
  341MOL0     C45954   9.238   8.233   3.921  0.9991 -0.0331 -0.7114
  341MOL0     C45955   9.272   8.313   3.477  0.5819 -0.2717  0.1398
  341MOL0     C45956   9.148   8.363   3.439  0.0056 -0.0129  0.8996
  341MOL0     C45957   9.120   8.368   3.306 -0.6284 -0.5378  0.2571
  341MOL0     C45958   9.188   8.293   3.205 -0.1494  0.6334 -0.3018
  341MOL0     O45959   9.144   8.296   3.077  0.2500  0.2879  0.9765
  341MOL0     C45960   9.208   8.227   2.969  0.3290  0.5910 -0.6638
  341MOL0     C45961   9.316   8.304   2.908 -0.0835  0.8108  0.2428
  341MOL0     C45962   9.271   8.451   2.881  0.1084 -0.1977 -0.2433
  341MOL0     C45963   9.372   8.547   2.815 -0.3686  0.8741 -0.0504
  341MOL0     C45964   9.308   8.667   2.762 -0.0978  0.8073  0.4272
  341MOL0     C45965   9.253   8.763   2.711 -0.5395  0.0562 -0.0566
  341MOL0     C45966   9.297   8.219   3.254 -0.7375 -0.1350  0.3833
  341MOL0     C45967   9.341   8.233   3.387  0.9354  0.3980 -0.8306
  341MOL0     H45968   9.353   8.536   3.841 -2.2634  1.5944  2.5008
  341MOL0     H45969   9.443   8.518   4.064 -0.8788  1.4173 -2.8471
  341MOL0     H45970   9.294   8.173   4.331 -0.5599  0.7747  2.4573
  341MOL0     H45971   9.478   8.188   4.318  1.3175  0.5723 -0.3263
  341MOL0     H45972   9.373   8.217   4.553  0.6334  1.0144  1.2203
  341MOL0     H45973   9.481   8.346   4.478 -0.8536  2.5065  0.7913
  341MOL0     H45974   9.321   8.498   4.458  0.0132  1.1279  3.1720
  341MOL0     H45975   9.187   8.372   4.453 -0.4175 -1.3925  1.4395
  341MOL0     H45976   9.366   8.453   4.704 -1.3794  1.7858  2.1131
  341MOL0     H45977   9.220   8.529   4.654  1.1749  0.5898  0.0874
  341MOL0     H45978   9.112   8.295   4.657  0.8874  0.1836 -2.0113
  341MOL0     H45979   9.261   8.235   4.732  1.9254  1.5312  2.9949
  341MOL0     H45980   9.232   8.360   4.927  0.1139 -1.5430  0.2328
  341MOL0     H45981   9.120   8.480   4.845  2.3700  0.5823  1.2799
  341MOL0     H45982   8.982   8.313   4.996 -0.2607 -0.8922  0.3608
  341MOL0     H45983   8.948   8.313   4.822  2.2843  2.9934 -1.3218
  341MOL0     H45984   9.085   8.113   4.791  0.2121 -0.9334  0.9669
  341MOL0     H45985   8.952   8.090   4.904 -0.1492 -0.0592 -2.3440
  341MOL0     H45986   9.099   8.194   5.173  1.1287  1.0469  0.7767
  341MOL0     H45987   9.229   8.112   5.359 -0.1509 -2.4777  1.1176
  341MOL0     H45988   9.332   7.974   5.341  0.6795 -0.2025  1.2396
  341MOL0     H45989   9.499   8.144   5.237 -0.9646 -2.5023  1.1729
  341MOL0     H45990   9.464   8.148   5.401  1.3445 -0.7023 -0.0045
  341MOL0     H45991   9.296   8.327   5.204  0.5120  1.4806 -0.8626
  341MOL0     H45992   9.451   8.387   5.256 -1.4037  1.1221  0.4314
  341MOL0     H45993   9.391   8.379   5.486  2.5993 -1.8615 -2.8825
  341MOL0     H45994   9.233   8.294   5.441 -1.4869  1.0877  0.4342
  341MOL0     H45995   9.051   8.417   5.500  3.1857  1.2091  0.3855
  341MOL0     H45996   8.724   8.508   5.490  0.0565 -0.7811  3.7000
  341MOL0     H45997   8.709   8.344   5.424 -2.4467  2.0622  0.5704
  341MOL0     H45998   8.826   8.378   5.555 -1.6202 -1.3666  0.5246
  341MOL0     H45999   8.669   8.339   4.921 -1.4879 -1.6495 -0.2017
  341MOL0     H46000   8.449   8.282   4.807  0.9300  0.1701  0.7932
  341MOL0     H46001   8.250   8.330   4.634 -0.7461 -0.6230 -0.2565
  341MOL0     H46002   8.231   8.264   4.802 -2.2733 -0.0818  0.5777
  341MOL0     H46003   8.027   8.226   4.687  0.7356 -0.1776 -0.6880
  341MOL0     H46004   7.990   8.344   4.799 -0.3491  0.8945  0.3919
  341MOL0     H46005   8.070   8.431   4.521  0.5291 -1.8335  0.7761
  341MOL0     H46006   7.979   8.527   4.641  0.9878 -0.3230 -0.5007
  341MOL0     H46007   7.867   8.293   4.490 -2.8294 -0.5257  0.9767
  341MOL0     H46008   7.789   8.364   4.635 -0.3639  5.5435  1.9683
  341MOL0     H46009   7.886   8.490   4.371 -0.5837 -0.0693  0.3022
  341MOL0     H46010   7.802   8.589   4.492  2.1113  1.1666 -0.0686
  341MOL0     H46011   7.682   8.344   4.339 -0.7663  0.3188 -1.1189
  341MOL0     H46012   7.602   8.434   4.458  0.7224  2.9645  1.3198
  341MOL0     H46013   7.693   8.543   4.191  0.2138  1.2996 -0.0156
  341MOL0     H46014   7.644   8.644   4.337  1.2389 -1.6807  2.7471
  341MOL0     H46015   7.450   8.587   4.161 -1.8503  0.0423  1.5639
  341MOL0     H46016   7.432   8.505   4.322  0.7508  1.7161  0.7508
  341MOL0     H46017   8.306   8.670   4.925 -1.4813 -1.0711 -1.4822
  341MOL0     H46018   8.522   8.716   5.024 -2.6071 -1.5834  4.1940
  341MOL0     H46019   8.957   8.608   5.072 -4.0111 -2.3809 -0.5195
  341MOL0     H46020   9.189   8.593   5.159 -0.8564  0.9366 -1.0792
  341MOL0     H46021   9.184   8.169   4.120  1.3464 -1.7120  1.3468
  341MOL0     H46022   9.180   8.157   3.871  2.6785 -0.8871 -1.4737
  341MOL0     H46023   9.089   8.415   3.514 -0.5113 -2.2785  2.1229
  341MOL0     H46024   9.034   8.423   3.269 -0.2915 -0.8474 -1.0201
  341MOL0     H46025   9.243   8.127   2.997 -2.5464  0.2151  2.1635
  341MOL0     H46026   9.130   8.192   2.900  1.2745  0.3634 -1.6401
  341MOL0     H46027   9.338   8.253   2.814 -1.9748  0.2518  0.0637
  341MOL0     H46028   9.408   8.312   2.966  1.4512  0.8446 -2.0784
  341MOL0     H46029   9.255   8.498   2.978 -1.3827 -2.4523  0.6888
  341MOL0     H46030   9.174   8.454   2.830  1.2843  1.1302 -2.5593
  341MOL0     H46031   9.418   8.496   2.731  2.9803  2.9960  0.3041
  341MOL0     H46032   9.454   8.573   2.883  0.5790 -2.0965  0.0725
  341MOL0     H46033   9.196   8.838   2.661  0.7029  0.4723 -0.8891
  341MOL0     H46034   9.359   8.159   3.188 -0.3167  0.9702 -0.2550
  341MOL0     H46035   9.424   8.176   3.427 -0.6894 -2.5647 -1.3631
  342MOL0     O46036   5.185   6.906   1.214  0.3921  0.0577 -0.3318
  342MOL0     C46037   5.087   6.970   1.193  0.0457 -0.6699  1.0292
  342MOL0     O46038   4.968   6.911   1.168 -0.1420  0.3407  0.2994
  342MOL0     C46039   4.964   6.781   1.114 -0.6009  0.6881 -0.4473
  342MOL0     C46040   5.052   6.731   1.017 -0.1118 -0.0342 -0.0950
  342MOL0     C46041   5.030   6.594   0.977 -0.8575 -0.1968 -0.1032
  342MOL0     C46042   4.936   6.510   1.040  0.2121  0.8606  0.0077
  342MOL0     O46043   4.912   6.372   1.004 -0.8111  0.1203  0.1741
  342MOL0     C46044   5.032   6.289   1.012  0.0454 -0.3732  0.2809
  342MOL0     C46045   5.097   6.278   1.150 -0.4394  0.2779  0.0649
  342MOL0     C46046   5.026   6.193   1.260 -0.3269 -0.5961 -0.5172
  342MOL0     C46047   4.989   6.056   1.209 -0.5182 -0.1893 -0.3138
  342MOL0     C46048   4.946   5.975   1.330 -0.6149 -0.2470 -0.0656
  342MOL0     C46049   4.877   5.847   1.284  0.1893  0.0034  0.3422
  342MOL0     C46050   4.850   5.756   1.401 -0.4867 -0.0170  0.3880
  342MOL0     C46051   4.742   5.655   1.354  0.6088  0.5403  0.1842
  342MOL0     N46052   4.687   5.575   1.466 -0.1548 -0.8000 -0.6268
  342MOL0     C46053   4.764   5.507   1.559 -0.7014  0.6895 -0.0835
  342MOL0     C46054   4.675   5.458   1.646  0.5745 -0.7386 -0.1593
  342MOL0     C46055   4.706   5.364   1.761 -0.0083  0.6253  0.5460
  342MOL0     C46056   4.814   5.263   1.725 -0.3329 -0.3676 -0.2753
  342MOL0     C46057   4.848   5.166   1.850  0.4832  0.3864  0.4179
  342MOL0     C46058   4.913   5.029   1.803  0.0855  0.2005  0.5319
  342MOL0     O46059   5.012   5.038   1.694  0.4929  0.8241  0.2719
  342MOL0     C46060   5.139   5.071   1.735  0.4100 -0.5606 -0.4074
  342MOL0     C46061   5.228   5.074   1.636 -1.1162 -0.1162 -0.3719
  342MOL0     C46062   5.365   5.090   1.649 -0.4802 -0.7959  0.3242
  342MOL0     C46063   5.444   5.101   1.520  0.5106 -1.0286 -0.1175
  342MOL0     C46064   5.420   5.108   1.781  0.3647  0.8914 -0.7964
  342MOL0     C46065   5.572   5.131   1.805  0.7168  0.2281 -0.0461
  342MOL0     O46066   5.657   5.100   1.702 -0.2807  0.1431 -0.7359
  342MOL0     C46067   5.784   5.149   1.702 -0.9784  0.6191 -0.1698
  342MOL0     C46068   5.872   5.131   1.815 -0.4130  0.3661  0.1255
  342MOL0     C46069   6.012   5.157   1.791  0.0786 -0.4847 -0.6991
  342MOL0     C46070   6.063   5.190   1.667 -0.3612 -0.7827 -0.0930
  342MOL0     O46071   6.188   5.242   1.662 -0.0377 -0.2252  0.2355
  342MOL0     C46072   6.261   5.252   1.537 -0.3068  0.0697  0.4782
  342MOL0     C46073   6.283   5.401   1.511  0.2860 -0.7019 -0.3707
  342MOL0     C46074   6.326   5.428   1.369  0.0321 -0.5473  0.2213
  342MOL0     C46075   6.216   5.408   1.266  0.5279 -0.7016 -0.0054
  342MOL0     C46076   6.265   5.479   1.126 -0.6477  0.0275 -0.4785
  342MOL0     C46077   6.142   5.506   1.035 -0.0211  0.3815  0.9187
  342MOL0     C46078   6.106   5.373   0.968  0.2816 -0.6843 -0.2497
  342MOL0     C46079   5.955   5.345   0.973  0.1151  0.1234  0.1083
  342MOL0    Cl46080   5.893   5.353   1.143  0.0054 -0.4281  0.4326
  342MOL0     C46081   5.974   5.193   1.560  0.0687 -0.1221  0.0279
  342MOL0     C46082   5.836   5.171   1.573  0.1142  0.6598 -0.2749
  342MOL0     O46083   5.599   5.174   1.917 -0.8575 -0.1497 -0.1910
  342MOL0     C46084   5.327   5.100   1.885 -0.1111 -0.3482  0.1101
  342MOL0     C46085   5.197   5.094   1.864  0.9209  0.3906 -0.2988
  342MOL0     N46086   4.548   5.522   1.630  0.2657 -0.4140  0.4467
  342MOL0     N46087   4.557   5.595   1.520  0.4746 -0.1079  0.3297
  342MOL0     C46088   4.854   6.566   1.138 -0.3647  0.1529 -0.1219
  342MOL0     C46089   4.871   6.698   1.176  0.5856  0.9070 -0.4286
  342MOL0     C46090   5.089   7.116   1.185 -0.1220  0.7369  0.4601
  342MOL0     C46091   4.962   7.179   1.174  0.0138 -0.1643 -0.7424
  342MOL0     C46092   4.959   7.320   1.173 -1.0917 -0.3910 -0.3179
  342MOL0     C46093   5.081   7.397   1.171 -0.0345  0.6235 -0.2865
  342MOL0     O46094   5.051   7.525   1.145 -0.0352 -0.1588  0.1660
  342MOL0     C46095   5.136   7.632   1.189  0.4313  0.6794 -1.1726
  342MOL0     C46096   5.047   7.765   1.175 -0.3450 -0.1918  0.5114
  342MOL0     C46097   4.896   7.756   1.215  0.7177 -0.4124 -0.1424
  342MOL0     C46098   4.832   7.898   1.207 -0.1102  1.0316  0.0283
  342MOL0     C46099   4.687   7.888   1.222  0.2839  0.1813  0.5178
  342MOL0     C46100   4.567   7.893   1.238 -0.6309  0.3920  0.0816
  342MOL0     C46101   5.211   7.338   1.180  0.5359 -0.7655  0.1050
  342MOL0     C46102   5.208   7.193   1.188 -0.2493 -0.3371 -0.2469
  342MOL0     H46103   5.129   6.792   0.971 -2.7814  3.8337  0.1758
  342MOL0     H46104   5.071   6.559   0.883 -0.3135  1.4119 -0.4819
  342MOL0     H46105   5.011   6.186   0.982  1.4682 -0.0094 -2.2218
  342MOL0     H46106   5.106   6.322   0.938  0.3121 -0.9877  0.2638
  342MOL0     H46107   5.194   6.228   1.146 -0.1995  0.7111  0.3699
  342MOL0     H46108   5.118   6.378   1.191 -1.2118  0.3592  0.2719
  342MOL0     H46109   5.089   6.193   1.349  0.2206  0.3389 -0.8818
  342MOL0     H46110   4.931   6.242   1.284  0.2542 -0.7134  2.2825
  342MOL0     H46111   4.904   6.074   1.142 -0.1040  0.2145 -0.7442
  342MOL0     H46112   5.074   6.002   1.165  1.1475 -2.0504  4.5658
  342MOL0     H46113   5.044   5.949   1.371 -0.3099 -1.2911 -1.4154
  342MOL0     H46114   4.883   6.031   1.401  0.4770  3.8982 -2.0750
  342MOL0     H46115   4.778   5.868   1.241  0.5356 -1.1118 -1.0872
  342MOL0     H46116   4.932   5.801   1.202  0.7634 -0.6446  1.0722
  342MOL0     H46117   4.946   5.721   1.438 -1.3006 -0.3256  2.3468
  342MOL0     H46118   4.797   5.802   1.485  1.5610 -1.2202  2.4309
  342MOL0     H46119   4.791   5.583   1.288 -2.0202 -1.0912 -0.1255
  342MOL0     H46120   4.666   5.706   1.293  2.4462  0.9962 -1.8710
  342MOL0     H46121   4.872   5.496   1.555 -0.5607  1.5114  0.9082
  342MOL0     H46122   4.726   5.421   1.852  0.3274 -3.6359  3.4561
  342MOL0     H46123   4.619   5.299   1.769 -1.6231  2.2329 -2.3632
  342MOL0     H46124   4.905   5.313   1.691 -0.1834 -1.1682 -1.0795
  342MOL0     H46125   4.784   5.193   1.647  0.0383 -1.8708  0.8945
  342MOL0     H46126   4.765   5.141   1.917 -0.9839  0.7453 -1.1998
  342MOL0     H46127   4.931   5.208   1.908  1.2151  1.8626 -1.5796
  342MOL0     H46128   4.823   4.977   1.772 -1.8059  2.0197  2.5928
  342MOL0     H46129   4.953   4.977   1.890 -1.0346 -2.6816 -0.5874
  342MOL0     H46130   5.197   5.089   1.533  0.8370  3.5259 -0.6100
  342MOL0     H46131   5.371   5.083   1.440 -0.0140  1.1825 -0.1985
  342MOL0     H46132   5.474   5.206   1.513 -1.4284 -0.4707 -0.8022
  342MOL0     H46133   5.529   5.035   1.499  0.2344 -1.2448 -0.5816
  342MOL0     H46134   5.839   5.094   1.911 -0.7241 -1.5637 -0.6710
  342MOL0     H46135   6.090   5.150   1.866 -0.0356 -1.5516 -0.6606
  342MOL0     H46136   6.362   5.212   1.550  1.1850  2.2331 -3.0267
  342MOL0     H46137   6.220   5.198   1.451 -3.0717  2.3949  0.1579
  342MOL0     H46138   6.190   5.458   1.509 -0.0574 -1.2484 -2.3671
  342MOL0     H46139   6.360   5.442   1.577  1.2310 -4.1964  0.9428
  342MOL0     H46140   6.403   5.353   1.347 -3.6811 -4.6003 -0.3299
  342MOL0     H46141   6.356   5.532   1.361  0.1576 -0.6118 -0.1430
  342MOL0     H46142   6.192   5.302   1.254 -0.6105 -0.6421  1.5196
  342MOL0     H46143   6.123   5.459   1.290 -0.9425 -3.4459  0.5615
  342MOL0     H46144   6.348   5.425   1.081 -0.4778 -1.6093  1.6768
  342MOL0     H46145   6.302   5.578   1.154  0.1552 -0.3702 -0.1186
  342MOL0     H46146   6.063   5.566   1.081  0.2020  1.6926 -0.3163
  342MOL0     H46147   6.189   5.583   0.973  1.0300  0.3593  1.6670
  342MOL0     H46148   6.161   5.294   1.021 -1.5763 -2.3663 -0.7034
  342MOL0     H46149   6.137   5.368   0.863  1.4517  0.4401  0.0098
  342MOL0     H46150   5.937   5.242   0.942 -2.2111 -0.4681  2.9746
  342MOL0     H46151   5.900   5.419   0.914  0.0408  0.0018  0.0264
  342MOL0     H46152   6.005   5.234   1.465 -0.7015  1.7229  0.5280
  342MOL0     H46153   5.778   5.183   1.482 -2.5062 -1.1169  1.0178
  342MOL0     H46154   5.365   5.113   1.986 -3.1204  1.9438  1.0971
  342MOL0     H46155   5.135   5.092   1.954 -0.0504 -3.9105 -0.8599
  342MOL0     H46156   4.798   6.490   1.190 -0.8327  1.4461  1.3322
  342MOL0     H46157   4.809   6.743   1.253 -1.4434 -1.4944 -0.5565
  342MOL0     H46158   4.867   7.128   1.176 -1.6773  2.6661  3.4098
  342MOL0     H46159   4.865   7.373   1.167 -0.2869  1.2173  0.3747
  342MOL0     H46160   5.148   7.622   1.297  1.1392  2.5898 -1.0303
  342MOL0     H46161   5.226   7.635   1.128  1.8278  0.8400  0.8193
  342MOL0     H46162   5.041   7.783   1.068 -1.5646 -2.0287  0.2256
  342MOL0     H46163   5.100   7.850   1.218  0.0727  0.6780 -1.6402
  342MOL0     H46164   4.875   7.709   1.312  2.6996 -0.7403  0.1734
  342MOL0     H46165   4.854   7.689   1.139  1.2631 -3.8109  2.3207
  342MOL0     H46166   4.860   7.951   1.116  0.6252  3.1752  1.4090
  342MOL0     H46167   4.870   7.955   1.292  1.0002 -1.8668  1.6482
  342MOL0     H46168   4.461   7.904   1.252 -0.7197 -1.8048  1.4890
  342MOL0     H46169   5.302   7.396   1.173  0.2876 -0.4502 -0.6293
  342MOL0     H46170   5.304   7.148   1.209  0.5375  1.5176  0.3435
  343MOL0     O46171   1.865   1.860  11.412  0.1681  0.2606 -0.1043
  343MOL0     C46172   1.803   1.796  11.491 -0.2303 -0.0242 -0.6149
  343MOL0     O46173   1.714   1.854  11.580  0.3640 -0.4738  0.5666
  343MOL0     C46174   1.715   1.988  11.597 -0.3104  0.1086  0.2675
  343MOL0     C46175   1.818   2.061  11.657  0.2596  0.4399  0.4755
  343MOL0     C46176   1.804   2.197  11.680  0.2386 -0.0485  1.0616
  343MOL0     C46177   1.682   2.267  11.638 -0.2711  0.2648 -0.0562
  343MOL0     O46178   1.686   2.400  11.655  0.0168  0.6165  0.3388
  343MOL0     C46179   1.601   2.487  11.584 -0.1240  0.2746 -0.1449
  343MOL0     C46180   1.608   2.625  11.643 -0.2157  0.7629 -0.0916
  343MOL0     C46181   1.514   2.720  11.570  0.9426 -0.1927  0.4461
  343MOL0     C46182   1.504   2.862  11.632  0.3809  0.2206  0.5189
  343MOL0     C46183   1.379   2.940  11.581 -0.7542 -0.2435 -0.8158
  343MOL0     C46184   1.358   2.960  11.435 -0.3290  0.6852  0.0351
  343MOL0     C46185   1.243   3.052  11.418  0.6860 -0.8814 -0.6619
  343MOL0     C46186   1.109   3.003  11.455  0.3536  0.5786  0.4026
  343MOL0     N46187   1.047   2.896  11.380  0.0443 -0.3479  0.4702
  343MOL0     C46188   1.046   2.769  11.418 -0.0245  0.7426 -0.6682
  343MOL0     C46189   0.952   2.704  11.341 -1.2039  0.1926 -1.0783
  343MOL0     C46190   0.904   2.567  11.379  0.3089  0.3206  0.7503
  343MOL0     C46191   0.978   2.455  11.301  0.0680 -0.4723 -0.5809
  343MOL0     C46192   1.136   2.452  11.328 -0.4350 -0.1988  0.3495
  343MOL0     C46193   1.204   2.346  11.242 -0.1823 -0.5466  0.3601
  343MOL0     O46194   1.344   2.363  11.241  0.2180 -0.2481 -0.0934
  343MOL0     C46195   1.417   2.260  11.190 -0.2419  0.2981 -0.3804
  343MOL0     C46196   1.555   2.252  11.228  0.8137 -0.2644  0.2045
  343MOL0     C46197   1.639   2.158  11.167  0.4470 -0.3908 -0.0639
  343MOL0     C46198   1.787   2.169  11.199  0.2547 -0.0220 -0.6574
  343MOL0     C46199   1.585   2.047  11.085 -0.2708  0.4283  1.2065
  343MOL0     C46200   1.660   1.929  11.033  0.4341  0.6575  0.8164
  343MOL0     O46201   1.789   1.906  11.079  0.5971  0.0487  0.5578
  343MOL0     C46202   1.847   1.781  11.061  0.1509  0.2087  0.4717
  343MOL0     C46203   1.766   1.664  11.052  0.3475 -0.1218  0.0583
  343MOL0     C46204   1.828   1.539  11.035 -0.0701  0.2265  0.2337
  343MOL0     C46205   1.974   1.531  11.038  0.1653  0.6103 -0.0252
  343MOL0     O46206   2.019   1.404  11.032  0.0920 -1.0317 -0.4102
  343MOL0     C46207   2.162   1.372  11.058  0.4562 -0.4481 -1.0365
  343MOL0     C46208   2.189   1.265  10.947 -0.0529  0.2345  1.1266
  343MOL0     C46209   2.111   1.135  10.957 -0.5797  0.2794 -0.6902
  343MOL0     C46210   2.106   1.075  10.814  0.0490  0.0785 -0.3176
  343MOL0     C46211   2.013   0.951  10.812 -0.6038  0.1794  0.2009
  343MOL0     C46212   2.070   0.834  10.894  0.3460 -0.5053  1.3610
  343MOL0     C46213   1.954   0.768  10.979 -1.4008  0.9136  0.4615
  343MOL0     C46214   1.944   0.617  10.954 -0.2646 -0.0021 -0.2158
  343MOL0    Cl46215   2.108   0.529  10.961 -0.0639  0.1667 -0.0174
  343MOL0     C46216   2.053   1.646  11.042  1.0287 -0.2818  0.0916
  343MOL0     C46217   1.986   1.765  11.045 -0.0837  0.3358 -1.1313
  343MOL0     O46218   1.608   1.863  10.943  0.1176 -1.0220  0.5918
  343MOL0     C46219   1.450   2.063  11.050 -0.2032 -0.3075 -0.7341
  343MOL0     C46220   1.363   2.156  11.106  0.1780 -0.3828 -0.0203
  343MOL0     N46221   0.907   2.790  11.248 -0.3945  0.5262 -0.2890
  343MOL0     N46222   0.968   2.902  11.265  0.8057  0.7448 -0.3013
  343MOL0     C46223   1.581   2.200  11.571 -0.5701 -0.5852 -0.8886
  343MOL0     C46224   1.600   2.058  11.554  0.2111 -0.5610 -0.5113
  343MOL0     C46225   1.792   1.652  11.463 -0.5937 -0.4629  0.1108
  343MOL0     C46226   1.675   1.575  11.501  0.0941 -0.1799  0.8503
  343MOL0     C46227   1.680   1.439  11.481 -0.4438 -1.1879  0.4953
  343MOL0     C46228   1.778   1.376  11.403 -0.0382  0.1889  0.2490
  343MOL0     O46229   1.768   1.242  11.373  0.4678  0.6617 -0.7140
  343MOL0     C46230   1.809   1.198  11.247  0.7902  1.0836  0.5830
  343MOL0     C46231   1.732   1.084  11.175  0.4591  0.0383 -0.6762
  343MOL0     C46232   1.709   0.963  11.253 -0.0957  0.3190  0.2050
  343MOL0     C46233   1.617   0.869  11.183  0.2225  0.3361 -0.2395
  343MOL0     C46234   1.476   0.904  11.202  0.1626 -0.0965 -0.2147
  343MOL0     C46235   1.367   0.949  11.224  0.1108 -0.1504  0.2452
  343MOL0     C46236   1.880   1.453  11.360  0.0280  1.0701 -0.6166
  343MOL0     C46237   1.900   1.585  11.401 -0.5231  0.4991  0.0933
  343MOL0     H46238   1.904   2.012  11.702 -1.5656 -1.0726  2.5248
  343MOL0     H46239   1.877   2.262  11.726  0.3112 -0.0227  0.9118
  343MOL0     H46240   1.643   2.496  11.483 -0.2298  1.4879 -0.0904
  343MOL0     H46241   1.496   2.457  11.581 -0.5990  1.6774  1.1863
  343MOL0     H46242   1.565   2.615  11.743  0.6028  0.3023  0.2220
  343MOL0     H46243   1.713   2.652  11.654 -0.3253  0.9879  0.4417
  343MOL0     H46244   1.548   2.734  11.467  0.0664 -3.4183 -0.4159
  343MOL0     H46245   1.418   2.667  11.566  1.1691 -0.8490  2.4225
  343MOL0     H46246   1.513   2.855  11.741  1.7885 -1.2248  0.3411
  343MOL0     H46247   1.594   2.918  11.604 -1.0010  1.7648 -1.1026
  343MOL0     H46248   1.288   2.889  11.615 -0.5014 -0.3088 -0.2259
  343MOL0     H46249   1.390   3.036  11.632 -0.1626 -0.9384  0.4008
  343MOL0     H46250   1.443   3.015  11.395 -1.7672  1.7360 -1.7423
  343MOL0     H46251   1.350   2.860  11.393 -1.7859  0.9655 -0.4195
  343MOL0     H46252   1.257   3.147  11.470  2.5075 -0.8936 -1.0379
  343MOL0     H46253   1.234   3.074  11.311 -2.8740 -3.4147 -1.0528
  343MOL0     H46254   1.031   3.080  11.467  1.1149  1.2246  1.4591
  343MOL0     H46255   1.114   2.974  11.561  3.8213 -3.9305 -0.7378
  343MOL0     H46256   1.109   2.735  11.500 -1.6996  0.4313  0.5521
  343MOL0     H46257   0.909   2.539  11.484  2.1272  0.1723  0.6607
  343MOL0     H46258   0.797   2.551  11.360  0.4721 -3.8271  2.3612
  343MOL0     H46259   0.955   2.465  11.194 -1.5610 -2.3336 -0.4657
  343MOL0     H46260   0.944   2.357  11.337 -2.4160  0.5202 -0.0182
  343MOL0     H46261   1.154   2.442  11.436 -1.4622 -0.7968  0.4756
  343MOL0     H46262   1.178   2.544  11.285 -3.4766  0.4721 -1.5153
  343MOL0     H46263   1.166   2.360  11.140  2.9189  1.5214 -0.6737
  343MOL0     H46264   1.173   2.247  11.276  0.0471 -0.0051  2.2210
  343MOL0     H46265   1.583   2.331  11.296  2.0965 -0.7253  0.2431
  343MOL0     H46266   1.815   2.087  11.265  2.5431  1.5113  0.4029
  343MOL0     H46267   1.835   2.165  11.101  0.4543  1.6183 -0.6516
  343MOL0     H46268   1.810   2.265  11.245 -1.2065 -0.2707  0.6825
  343MOL0     H46269   1.658   1.662  11.058  0.3871 -0.9172  0.5816
  343MOL0     H46270   1.777   1.443  11.032 -2.7342  1.4020  2.7618
  343MOL0     H46271   2.227   1.459  11.045  1.0139 -0.9628 -1.8389
  343MOL0     H46272   2.181   1.334  11.159  0.6726  1.3525 -0.3691
  343MOL0     H46273   2.173   1.313  10.851  1.7524 -2.2534 -0.5275
  343MOL0     H46274   2.297   1.246  10.943 -0.3733 -1.5906 -0.9843
  343MOL0     H46275   2.015   1.149  11.008 -0.8581 -1.2733 -0.7425
  343MOL0     H46276   2.165   1.065  11.021 -2.0702  1.5495  2.1707
  343MOL0     H46277   2.064   1.153  10.749  1.5143  1.8764  0.7684
  343MOL0     H46278   2.204   1.040  10.780  0.3633 -0.0733  0.7116
  343MOL0     H46279   2.001   0.927  10.706  2.1451  2.0098 -0.6350
  343MOL0     H46280   1.912   0.981  10.842 -1.3499 -0.5535 -1.4203
  343MOL0     H46281   2.101   0.767  10.813 -1.0911  0.9540 -0.5004
  343MOL0     H46282   2.160   0.854  10.953  0.6203 -0.8749  1.0769
  343MOL0     H46283   1.855   0.805  10.953 -0.8478  1.9050 -0.2982
  343MOL0     H46284   1.975   0.777  11.086 -1.2898  1.4549  0.3973
  343MOL0     H46285   1.914   0.617  10.849  0.3759  2.5144 -0.4592
  343MOL0     H46286   1.871   0.558  11.010  1.2208 -1.3591  0.3777
  343MOL0     H46287   2.160   1.662  11.054  0.6616  0.5295  3.1683
  343MOL0     H46288   2.034   1.862  11.052  0.4287 -0.0057  0.5357
  343MOL0     H46289   1.411   2.001  10.970 -2.6011  1.5820 -1.1352
  343MOL0     H46290   1.257   2.162  11.082  0.3711  1.7912 -0.5002
  343MOL0     H46291   1.484   2.246  11.549 -0.4238  0.1195 -0.1246
  343MOL0     H46292   1.519   1.995  11.521 -1.1844 -1.0132  3.2958
  343MOL0     H46293   1.590   1.607  11.560 -2.3018 -1.4133 -1.6677
  343MOL0     H46294   1.593   1.380  11.509 -1.1873 -0.0947  0.5928
  343MOL0     H46295   1.804   1.288  11.185 -3.9478  1.0987  0.6470
  343MOL0     H46296   1.917   1.179  11.254  1.5970  3.2074 -3.4125
  343MOL0     H46297   1.795   1.068  11.086  2.3899 -0.3182  0.6957
  343MOL0     H46298   1.633   1.122  11.148 -0.5843 -1.8260  0.2758
  343MOL0     H46299   1.677   0.986  11.355 -0.3626  2.7812 -0.3805
  343MOL0     H46300   1.801   0.904  11.252  0.3907  1.0370  0.8889
  343MOL0     H46301   1.634   0.777  11.240 -0.7965 -0.1630 -0.7247
  343MOL0     H46302   1.636   0.853  11.076 -0.3357  2.2364 -0.6570
  343MOL0     H46303   1.267   0.984  11.242  0.4052  0.8062  0.1154
  343MOL0     H46304   1.960   1.405  11.303 -1.2847 -2.2358  0.0737
  343MOL0     H46305   1.993   1.636  11.379 -0.2149 -0.6720 -1.5114
  344MOL0     O46306   4.667   8.978   7.810 -0.6541  0.4161  0.2850
  344MOL0     C46307   4.726   9.008   7.918 -0.4114 -0.0977 -0.0353
  344MOL0     O46308   4.672   9.001   8.038  0.1389  0.6931  0.0183
  344MOL0     C46309   4.532   8.992   8.057 -0.3669 -0.4238 -0.0728
  344MOL0     C46310   4.426   9.034   7.974  0.7749  0.1404 -0.4118
  344MOL0     C46311   4.294   9.036   8.009 -0.6003 -0.0083 -0.5015
  344MOL0     C46312   4.261   8.987   8.142  1.3653 -0.7289  0.3718
  344MOL0     O46313   4.129   8.983   8.178  0.3868  0.3350  0.7129
  344MOL0     C46314   4.108   9.052   8.302  0.0988 -0.1431 -0.6218
  344MOL0     C46315   3.971   9.106   8.308 -0.6017 -0.4856 -0.2896
  344MOL0     C46316   3.974   9.198   8.433  1.3722  0.0877  0.5847
  344MOL0     C46317   3.819   9.239   8.457 -0.0236 -0.3120  0.5606
  344MOL0     C46318   3.803   9.342   8.558 -0.5627 -1.2315  0.2404
  344MOL0     C46319   3.853   9.284   8.699  0.9344 -0.3925 -0.1522
  344MOL0     C46320   3.866   9.387   8.809 -1.1303 -1.5095  0.0804
  344MOL0     C46321   3.930   9.334   8.943 -0.1125  0.0705 -0.6762
  344MOL0     N46322   4.074   9.307   8.951 -0.1814 -0.6467 -0.1433
  344MOL0     C46323   4.129   9.195   8.997 -0.2808 -0.9037  1.3089
  344MOL0     C46324   4.265   9.226   9.015 -0.5058  0.1119  0.1345
  344MOL0     C46325   4.373   9.142   9.074 -0.0264 -0.1576  1.0212
  344MOL0     C46326   4.352   9.133   9.230  0.3575  0.2928 -0.0186
  344MOL0     C46327   4.487   9.118   9.297 -0.4871 -0.7136 -0.8599
  344MOL0     C46328   4.455   9.096   9.449  0.1563  0.1217  0.6368
  344MOL0     O46329   4.582   9.090   9.526  0.1674  0.1201  0.1561
  344MOL0     C46330   4.576   9.072   9.663  0.9690  0.2280  0.1242
  344MOL0     C46331   4.686   9.096   9.737 -0.1361 -0.4657 -1.3168
  344MOL0     C46332   4.675   9.069   9.876  0.5539  0.6678  0.3489
  344MOL0     C46333   4.807   9.099   9.940  0.7473 -0.4932 -0.6851
  344MOL0     C46334   4.554   9.036   9.944  0.9615 -0.6918 -0.3503
  344MOL0     C46335   4.536   9.029  10.095 -0.4257  0.6544  0.5303
  344MOL0     O46336   4.647   9.029  10.173 -0.2671 -0.2141  0.1746
  344MOL0     C46337   4.653   8.983  10.309  0.0083 -0.1203  0.1082
  344MOL0     C46338   4.783   8.986  10.371  0.7847  0.6115 -0.1373
  344MOL0     C46339   4.796   8.954  10.504 -0.0757  0.3847 -0.3230
  344MOL0     C46340   4.682   8.928  10.584 -0.2508 -1.1516 -1.3686
  344MOL0     O46341   4.715   8.940  10.721  0.4669  0.1696 -0.1457
  344MOL0     C46342   4.651   8.863  10.824  0.0159  0.7782 -0.1304
  344MOL0     C46343   4.708   8.917  10.951  0.7031  0.7270 -0.0369
  344MOL0     C46344   4.694   8.823  11.072  0.1735 -0.3527  0.3941
  344MOL0     C46345   4.818   8.746  11.119  0.2738  0.2829 -0.4670
  344MOL0     C46346   4.923   8.830  11.193  0.6015 -0.3563  0.1707
  344MOL0     C46347   5.011   8.743  11.279  0.5063 -0.2677  0.3048
  344MOL0     C46348   5.125   8.832  11.335  0.6512 -0.3950 -0.7860
  344MOL0     C46349   5.176   8.778  11.463 -0.0488  0.1040 -0.1062
  344MOL0    Cl46350   5.293   8.874  11.547  0.0077  0.5344  0.2959
  344MOL0     C46351   4.552   8.915  10.523 -0.1214  0.0419 -0.4513
  344MOL0     C46352   4.543   8.942  10.386 -0.4156  0.3533  0.9132
  344MOL0     O46353   4.421   9.030  10.130  0.5221  0.0506 -0.0797
  344MOL0     C46354   4.433   9.037   9.859  0.3113 -0.2831  0.2841
  344MOL0     C46355   4.448   9.049   9.722  0.1476  0.3387 -0.3160
  344MOL0     N46356   4.278   9.359   8.970  0.5454 -0.0158  0.3554
  344MOL0     N46357   4.167   9.409   8.933  0.1943 -0.1253 -0.3898
  344MOL0     C46358   4.358   8.945   8.228  0.0390 -0.5412 -0.4093
  344MOL0     C46359   4.493   8.950   8.191 -0.4625 -0.5513  0.0218
  344MOL0     C46360   4.856   9.071   7.906  0.5847 -0.5314  0.8124
  344MOL0     C46361   4.929   9.091   8.020 -0.6307 -0.0042 -0.1019
  344MOL0     C46362   5.063   9.139   8.007 -0.1255 -0.4239 -0.1249
  344MOL0     C46363   5.109   9.175   7.884  1.0730 -1.6036  0.1301
  344MOL0     O46364   5.227   9.233   7.836 -0.1521 -0.1614 -0.2216
  344MOL0     C46365   5.341   9.242   7.921 -0.0132 -0.2868  0.9766
  344MOL0     C46366   5.387   9.106   7.957 -0.0207  0.0575  0.2996
  344MOL0     C46367   5.510   9.105   8.046 -0.6798  0.1370 -0.7281
  344MOL0     C46368   5.482   9.178   8.183 -0.3913 -0.0875  0.4757
  344MOL0     C46369   5.592   9.158   8.280  0.0338  0.1813  0.8664
  344MOL0     C46370   5.684   9.139   8.355 -0.3328 -0.3748  0.3184
  344MOL0     C46371   5.018   9.178   7.771 -0.5962  0.0249  0.6981
  344MOL0     C46372   4.894   9.118   7.776 -0.5027 -0.4493 -0.3772
  344MOL0     H46373   4.447   9.071   7.874  0.3748  0.5189 -0.3594
  344MOL0     H46374   4.214   9.064   7.942  1.0515  3.3458 -1.3173
  344MOL0     H46375   4.122   8.980   8.383 -1.6917 -0.5496 -0.6349
  344MOL0     H46376   4.186   9.125   8.325  0.5835 -1.0843  0.9267
  344MOL0     H46377   3.936   9.159   8.219 -0.9600 -1.3225 -0.6603
  344MOL0     H46378   3.896   9.029   8.328 -2.7082  1.9827  2.2221
  344MOL0     H46379   4.005   9.151   8.527 -0.2523 -0.6686  0.7637
  344MOL0     H46380   4.047   9.278   8.414  0.4392  0.8308  0.0560
  344MOL0     H46381   3.778   9.282   8.365  1.2434 -1.0745 -0.3852
  344MOL0     H46382   3.757   9.155   8.492 -1.0955 -0.9646 -2.5842
  344MOL0     H46383   3.865   9.429   8.538  2.9509 -3.4689  0.4373
  344MOL0     H46384   3.700   9.380   8.558 -0.0727  0.1111  0.2534
  344MOL0     H46385   3.777   9.211   8.727 -1.3371  1.0964 -2.0415
  344MOL0     H46386   3.952   9.238   8.689  0.6591 -1.2426  0.8697
  344MOL0     H46387   3.933   9.464   8.769  1.7682 -3.5779  0.6376
  344MOL0     H46388   3.764   9.415   8.837 -0.2225  3.5329 -0.6502
  344MOL0     H46389   3.884   9.238   8.966 -0.5741  0.4722  0.1460
  344MOL0     H46390   3.915   9.403   9.027  1.8453  3.0667 -2.5735
  344MOL0     H46391   4.080   9.099   9.008 -1.7624 -0.3596 -0.2714
  344MOL0     H46392   4.379   9.040   9.035  0.4807 -0.0796  0.8849
  344MOL0     H46393   4.472   9.180   9.048 -0.3823 -0.5392 -1.0567
  344MOL0     H46394   4.286   9.051   9.260 -1.5980  2.3094  1.5141
  344MOL0     H46395   4.305   9.223   9.271  0.5209 -0.2065  1.2978
  344MOL0     H46396   4.548   9.207   9.274  0.6819 -1.2489  0.0760
  344MOL0     H46397   4.529   9.019   9.275 -0.0604 -0.6784 -0.2374
  344MOL0     H46398   4.394   9.007   9.465  1.8827 -1.6112 -1.7909
  344MOL0     H46399   4.396   9.176   9.495  0.4795  1.3564 -1.0028
  344MOL0     H46400   4.781   9.092   9.685  0.9389 -0.8722  0.5784
  344MOL0     H46401   4.822   9.030  10.023  2.2195  1.4706  0.7865
  344MOL0     H46402   4.893   9.091   9.873  1.8960  0.6829  0.5804
  344MOL0     H46403   4.812   9.199   9.984  0.4832 -2.0703  3.3194
  344MOL0     H46404   4.875   9.021  10.325  0.2381  2.9501  0.4175
  344MOL0     H46405   4.889   8.965  10.559 -1.4642  3.0208  1.7354
  344MOL0     H46406   4.542   8.867  10.823  0.0212  3.2356 -2.8264
  344MOL0     H46407   4.678   8.758  10.814 -0.5345  0.3717  2.1377
  344MOL0     H46408   4.816   8.928  10.935  1.0567 -2.6982 -0.6691
  344MOL0     H46409   4.653   9.010  10.970 -1.2232 -0.4380  0.4073
  344MOL0     H46410   4.607   8.760  11.053 -0.4187  1.2574 -2.8403
  344MOL0     H46411   4.675   8.896  11.152  1.2578 -1.1816  1.4517
  344MOL0     H46412   4.783   8.663  11.181  0.4326  0.0402 -0.7043
  344MOL0     H46413   4.861   8.695  11.033 -1.3075 -1.4285 -0.3089
  344MOL0     H46414   4.877   8.908  11.255 -0.4704 -1.5634  0.9321
  344MOL0     H46415   4.982   8.867  11.108 -1.5645 -0.5257 -1.4947
  344MOL0     H46416   4.962   8.696  11.364 -0.3623  0.2145  0.0810
  344MOL0     H46417   5.055   8.667  11.213  1.1664  1.1235 -0.9362
  344MOL0     H46418   5.082   8.931  11.347  0.0494 -0.8024  0.7100
  344MOL0     H46419   5.209   8.834  11.265  1.7469 -2.7925  0.3243
  344MOL0     H46420   5.221   8.679  11.446 -1.4045 -0.5248 -0.1382
  344MOL0     H46421   5.096   8.771  11.537  3.1655  1.2396  3.8580
  344MOL0     H46422   4.472   8.895  10.593  0.6766 -1.3966  0.0862
  344MOL0     H46423   4.442   8.921  10.351  0.4035 -1.6176 -0.4660
  344MOL0     H46424   4.338   9.014   9.905  0.0171  1.3276  0.5153
  344MOL0     H46425   4.357   9.037   9.665  0.1179  0.3734 -0.2751
  344MOL0     H46426   4.328   8.905   8.324  1.0477 -2.2730 -0.7732
  344MOL0     H46427   4.576   8.928   8.258 -0.1133 -0.9373 -0.5349
  344MOL0     H46428   4.894   9.073   8.120  1.8357  2.2002  1.3072
  344MOL0     H46429   5.121   9.164   8.095 -0.2175  2.7775 -0.8737
  344MOL0     H46430   5.416   9.301   7.869 -1.4319  1.2472  0.5938
  344MOL0     H46431   5.321   9.299   8.013  1.5200  0.9618  0.5878
  344MOL0     H46432   5.392   9.063   7.856  1.8907  3.0033 -0.9850
  344MOL0     H46433   5.307   9.056   8.012 -1.1964  1.6351  0.0711
  344MOL0     H46434   5.594   9.153   7.994  0.3372 -2.1853 -1.3547
  344MOL0     H46435   5.528   9.001   8.076  1.3428  0.9602  1.1970
  344MOL0     H46436   5.391   9.138   8.228  0.8990 -2.0759  1.4801
  344MOL0     H46437   5.480   9.280   8.145 -3.1655 -0.4766 -0.5983
  344MOL0     H46438   5.767   9.132   8.422  0.2558  0.3132 -0.3218
  344MOL0     H46439   5.050   9.224   7.678  0.1621  0.1247  0.9999
  344MOL0     H46440   4.824   9.115   7.694  0.5147 -0.3567 -1.2690
  345MOL0     O46441   8.894   6.048   1.688 -0.0371 -0.0807 -0.1818
  345MOL0     C46442   8.821   5.952   1.712 -0.0759 -0.3368  0.7551
  345MOL0     O46443   8.801   5.901   1.835 -0.2459  0.3391 -0.0152
  345MOL0     C46444   8.876   5.953   1.938 -0.4155 -0.5366  0.3903
  345MOL0     C46445   8.827   6.063   2.017  0.5562  0.6213  0.8051
  345MOL0     C46446   8.902   6.097   2.124  0.0242 -0.3142  0.7856
  345MOL0     C46447   9.020   6.026   2.162 -0.5969  0.1740  0.3766
  345MOL0     O46448   9.087   6.075   2.272  0.4207  0.6278  0.0533
  345MOL0     C46449   9.223   6.084   2.254 -0.3050  0.4068  0.0643
  345MOL0     C46450   9.297   6.112   2.386  0.8747  0.1080  0.2770
  345MOL0     C46451   9.439   6.122   2.352  0.2528 -0.9919 -0.6103
  345MOL0     C46452   9.541   6.133   2.472  1.0611 -0.7890 -0.1681
  345MOL0     C46453   9.687   6.139   2.442 -0.0613  0.0718 -0.0504
  345MOL0     C46454   9.747   6.012   2.395  1.1181 -0.4026 -0.5625
  345MOL0     C46455   9.897   6.009   2.389  0.7898 -0.8081  0.2910
  345MOL0     C46456   9.969   6.110   2.304 -0.5154 -0.3851  0.2250
  345MOL0     N46457   9.951   6.111   2.148  0.2773 -0.2841 -0.0679
  345MOL0     C46458   9.838   6.140   2.084 -0.1480  0.8100  0.6899
  345MOL0     C46459   9.849   6.110   1.948  0.1115 -0.7624  0.0745
  345MOL0     C46460   9.746   6.136   1.848  0.2313  0.5511 -0.2299
  345MOL0     C46461   9.665   6.002   1.814  0.3635  0.7693  0.4095
  345MOL0     C46462   9.562   5.968   1.926 -0.0388  0.4307 -0.0179
  345MOL0     C46463   9.430   6.040   1.890  0.0727 -0.0546  0.2112
  345MOL0     O46464   9.427   6.180   1.901 -0.3008  0.5900 -0.2996
  345MOL0     C46465   9.306   6.234   1.903  0.6490 -0.4509  0.4086
  345MOL0     C46466   9.312   6.369   1.929 -0.6967 -0.2004  0.6082
  345MOL0     C46467   9.195   6.444   1.933 -0.7748 -0.0145  0.0644
  345MOL0     C46468   9.209   6.594   1.953 -0.8329  0.7838 -0.0130
  345MOL0     C46469   9.069   6.384   1.903 -0.5475 -1.5045  0.6435
  345MOL0     C46470   8.945   6.468   1.880  0.2231 -0.1390 -0.3575
  345MOL0     O46471   8.831   6.392   1.850  0.6029 -0.2988  0.0431
  345MOL0     C46472   8.712   6.452   1.827  0.4608 -0.6549 -0.8541
  345MOL0     C46473   8.690   6.561   1.745  0.7052 -1.1922  0.5408
  345MOL0     C46474   8.576   6.643   1.742  0.1870  0.2065 -0.9067
  345MOL0     C46475   8.469   6.610   1.828 -0.2464  0.0317 -0.0721
  345MOL0     O46476   8.374   6.707   1.832 -0.3676  0.6046 -0.1959
  345MOL0     C46477   8.262   6.694   1.920  0.4607  0.5603 -0.1051
  345MOL0     C46478   8.160   6.803   1.904 -0.4330 -0.8276 -0.6316
  345MOL0     C46479   8.214   6.936   1.976  0.2577  0.1374 -0.3840
  345MOL0     C46480   8.119   7.054   1.963  0.2177  0.1435 -0.1916
  345MOL0     C46481   8.192   7.185   1.998  0.1617 -0.2998  0.6836
  345MOL0     C46482   8.111   7.305   1.944 -0.3180 -0.3374  0.5875
  345MOL0     C46483   8.177   7.444   1.961 -0.5850  1.0513 -0.0028
  345MOL0     C46484   8.090   7.555   1.904 -1.0768 -1.1731  0.0450
  345MOL0    Cl46485   8.120   7.705   2.003  0.3727  0.2781  0.3284
  345MOL0     C46486   8.489   6.508   1.925 -0.0160  0.0280 -0.8959
  345MOL0     C46487   8.606   6.427   1.927 -0.2510 -0.1152  0.3841
  345MOL0     O46488   8.937   6.594   1.889 -0.7406 -0.1652 -0.0514
  345MOL0     C46489   9.064   6.256   1.882 -0.5288  0.3496 -0.6175
  345MOL0     C46490   9.180   6.171   1.874 -0.7071  0.5883  0.3988
  345MOL0     N46491   9.977   6.068   1.938 -0.6011 -0.0275  0.3072
  345MOL0     N46492  10.027   6.060   2.054 -1.7182  0.1368  0.4279
  345MOL0     C46493   9.066   5.910   2.089  0.2009  0.5423  0.9224
  345MOL0     C46494   8.985   5.883   1.978 -0.3919 -0.2011 -0.9599
  345MOL0     C46495   8.741   5.906   1.601 -0.3211 -0.1467 -0.3764
  345MOL0     C46496   8.788   5.920   1.463  1.1392  0.2719 -0.1745
  345MOL0     C46497   8.701   5.875   1.357  0.0244  0.9410 -0.2026
  345MOL0     C46498   8.578   5.811   1.379  0.2820  0.0512 -0.3150
  345MOL0     O46499   8.487   5.765   1.290 -0.2833 -0.1516  0.0679
  345MOL0     C46500   8.490   5.814   1.157 -0.3264 -0.3996 -0.5775
  345MOL0     C46501   8.453   5.960   1.139 -0.0959  0.3146  0.1303
  345MOL0     C46502   8.413   5.995   0.993  0.4013 -0.3059 -0.4840
  345MOL0     C46503   8.360   6.143   0.988 -1.0170 -0.3182 -0.2589
  345MOL0     C46504   8.325   6.181   0.854  0.0737 -0.3355  1.1904
  345MOL0     C46505   8.291   6.222   0.744 -0.3231  0.5527 -0.4137
  345MOL0     C46506   8.552   5.787   1.509  0.0251 -0.5046 -0.0460
  345MOL0     C46507   8.626   5.836   1.619 -0.0431  0.0379 -0.3632
  345MOL0     H46508   8.745   6.122   1.978  1.6867  0.6196 -1.7625
  345MOL0     H46509   8.877   6.190   2.174  0.9455  0.1473  0.4069
  345MOL0     H46510   9.268   5.985   2.240  0.7863  0.7664  0.8538
  345MOL0     H46511   9.255   6.160   2.182 -0.8033 -0.7057 -1.3779
  345MOL0     H46512   9.253   6.208   2.415 -0.2961  0.1535 -1.5315
  345MOL0     H46513   9.278   6.037   2.463  1.7020 -1.0979 -0.6410
  345MOL0     H46514   9.474   6.032   2.300 -1.4759 -2.6111  0.9234
  345MOL0     H46515   9.438   6.210   2.286 -1.8931  0.8085  1.6135
  345MOL0     H46516   9.509   6.228   2.515 -0.3723 -0.3309 -2.0747
  345MOL0     H46517   9.515   6.052   2.541  0.2318 -0.1418  0.3077
  345MOL0     H46518   9.719   6.222   2.378 -0.8675  1.6759  1.5458
  345MOL0     H46519   9.740   6.155   2.537 -2.8823  3.4477  1.1517
  345MOL0     H46520   9.715   5.939   2.470  0.0957  0.1916 -0.3942
  345MOL0     H46521   9.701   5.975   2.303 -0.3218 -1.6346  0.5994
  345MOL0     H46522   9.935   6.013   2.491  2.3601 -0.2897 -0.2745
  345MOL0     H46523   9.934   5.913   2.352 -0.2113 -0.4309 -1.8698
  345MOL0     H46524  10.076   6.097   2.323 -0.3059  0.0093 -0.6367
  345MOL0     H46525   9.941   6.213   2.331 -1.7709 -0.7162  0.2533
  345MOL0     H46526   9.744   6.159   2.134 -0.4810 -4.1387  2.4483
  345MOL0     H46527   9.672   6.209   1.883  1.3322  1.8776 -0.6081
  345MOL0     H46528   9.795   6.173   1.758 -1.7530 -1.9057 -2.4785
  345MOL0     H46529   9.734   5.918   1.800 -1.5638 -0.7875 -0.2703
  345MOL0     H46530   9.623   6.009   1.713  1.2274 -3.3777 -0.4140
  345MOL0     H46531   9.600   6.009   2.020 -2.7101 -1.5375  2.1167
  345MOL0     H46532   9.548   5.861   1.938  2.0120  0.1748  0.2701
  345MOL0     H46533   9.353   6.011   1.962 -4.0957  2.4212 -2.8623
  345MOL0     H46534   9.402   6.005   1.790 -0.3893  0.7754  0.0499
  345MOL0     H46535   9.409   6.415   1.943  0.5166 -2.9231  1.9233
  345MOL0     H46536   9.124   6.638   2.006 -0.0428  1.9947  0.3015
  345MOL0     H46537   9.299   6.619   2.010  0.2236 -3.1871  0.3511
  345MOL0     H46538   9.216   6.649   1.859 -0.4995 -1.8848 -1.6664
  345MOL0     H46539   8.768   6.596   1.677  2.9232 -1.2508  2.9062
  345MOL0     H46540   8.580   6.727   1.674  1.3299  2.2501  1.5137
  345MOL0     H46541   8.210   6.598   1.906 -1.3137  0.8784  3.2366
  345MOL0     H46542   8.292   6.702   2.025 -0.7182  0.7052  0.2372
  345MOL0     H46543   8.136   6.815   1.798  1.2953 -1.1972 -1.0917
  345MOL0     H46544   8.065   6.775   1.951  0.8115 -2.0911  1.2836
  345MOL0     H46545   8.310   6.975   1.940  0.4237  2.2057  2.0823
  345MOL0     H46546   8.226   6.914   2.082  2.9626  2.0466 -0.2118
  345MOL0     H46547   8.089   7.053   1.857  0.6870  0.1746 -0.3280
  345MOL0     H46548   8.033   7.043   2.029 -1.4624 -1.5641 -2.5038
  345MOL0     H46549   8.286   7.182   1.942 -0.6649 -0.1978 -0.7732
  345MOL0     H46550   8.207   7.202   2.105 -0.4389 -3.5655  1.3922
  345MOL0     H46551   8.087   7.290   1.839 -1.4567  1.4916  0.5499
  345MOL0     H46552   8.018   7.311   2.000  0.7695  2.6828  2.3152
  345MOL0     H46553   8.282   7.453   1.933 -0.2133 -0.3544  0.7984
  345MOL0     H46554   8.169   7.464   2.068 -0.1618 -1.9508  0.6996
  345MOL0     H46555   7.983   7.538   1.915 -1.9446  1.7802 -2.5073
  345MOL0     H46556   8.111   7.563   1.797 -0.8673  1.3203  0.2255
  345MOL0     H46557   8.406   6.495   1.993  0.5411  4.4752  1.0158
  345MOL0     H46558   8.617   6.352   2.006 -1.2794 -0.9782 -0.2726
  345MOL0     H46559   8.969   6.222   1.842  0.5022  1.3094 -4.2070
  345MOL0     H46560   9.191   6.068   1.841  1.6332  0.7319  0.5405
  345MOL0     H46561   9.152   5.847   2.107  0.6548  0.8971  0.0830
  345MOL0     H46562   9.001   5.796   1.916  0.4102  1.8192 -3.7703
  345MOL0     H46563   8.888   5.954   1.434  1.6677 -1.6270 -0.7307
  345MOL0     H46564   8.735   5.884   1.254 -2.8055  1.8208 -1.1215
  345MOL0     H46565   8.592   5.797   1.122 -0.7103  0.5541 -2.2880
  345MOL0     H46566   8.422   5.750   1.100 -2.6364 -0.4525  2.0353
  345MOL0     H46567   8.543   6.017   1.163  0.2199 -0.5567  1.0914
  345MOL0     H46568   8.380   5.990   1.215  0.2533 -0.9108  0.9883
  345MOL0     H46569   8.338   5.925   0.955 -1.2926  0.6577  1.0039
  345MOL0     H46570   8.503   5.980   0.931  0.1094 -1.7013 -0.6078
  345MOL0     H46571   8.444   6.211   1.007  1.5267 -2.2325 -3.4564
  345MOL0     H46572   8.279   6.155   1.059 -0.7365 -1.3513  0.2673
  345MOL0     H46573   8.274   6.256   0.644  1.1921  0.9105 -0.5718
  345MOL0     H46574   8.454   5.740   1.520 -1.5200  2.0670 -1.7037
  345MOL0     H46575   8.573   5.829   1.713 -5.8565  0.3037 -3.1513
  346MOL0     O46576   8.434   4.072   6.463  0.0946 -0.0091  0.4005
  346MOL0     C46577   8.521   4.026   6.386  0.5896  0.1999 -0.0624
  346MOL0     O46578   8.515   3.903   6.329 -0.1260 -0.3655 -0.5091
  346MOL0     C46579   8.417   3.812   6.356  1.0014  0.3669  0.2927
  346MOL0     C46580   8.463   3.676   6.331  0.4224  0.3071  0.2801
  346MOL0     C46581   8.378   3.566   6.357  0.6988 -0.2561  0.1608
  346MOL0     C46582   8.247   3.587   6.389 -0.4222 -0.4300 -0.1908
  346MOL0     O46583   8.177   3.466   6.399  0.3391 -0.1601  0.0556
  346MOL0     C46584   8.075   3.447   6.507 -0.6484 -0.5154  0.9980
  346MOL0     C46585   7.940   3.491   6.463  0.5971  0.1046  0.6379
  346MOL0     C46586   7.841   3.447   6.567  0.1770  0.7111 -0.8143
  346MOL0     C46587   7.831   3.297   6.594 -0.3430  0.3219  0.0688
  346MOL0     C46588   7.717   3.256   6.682  0.2660 -0.6052  1.4084
  346MOL0     C46589   7.709   3.115   6.727  0.0338  0.3917 -0.8014
  346MOL0     C46590   7.664   3.024   6.628 -0.7671  0.3112  0.0016
  346MOL0     C46591   7.627   2.882   6.688 -0.1689 -0.5663  0.1878
  346MOL0     N46592   7.599   2.782   6.586 -0.3731  0.3155 -0.3822
  346MOL0     C46593   7.677   2.666   6.565  0.2715 -0.0894 -0.2763
  346MOL0     C46594   7.641   2.624   6.444  0.5632  1.0315  1.0225
  346MOL0     C46595   7.696   2.513   6.347 -0.4827 -1.5178 -0.5350
  346MOL0     C46596   7.848   2.519   6.329 -0.7931 -0.0910  0.6361
  346MOL0     C46597   7.921   2.642   6.268  0.9404  0.0098 -0.0395
  346MOL0     C46598   7.954   2.744   6.383 -0.0427  0.1546  1.0301
  346MOL0     O46599   8.046   2.695   6.481 -0.1837  0.4995 -0.2654
  346MOL0     C46600   8.183   2.683   6.455 -0.2948 -0.0061 -1.0539
  346MOL0     C46601   8.255   2.625   6.558  0.3323  0.4290 -0.1603
  346MOL0     C46602   8.391   2.618   6.555  0.0420  0.4596  0.2556
  346MOL0     C46603   8.451   2.548   6.680 -0.2661  0.2860  0.2119
  346MOL0     C46604   8.461   2.669   6.442  0.0140  0.1340  0.1632
  346MOL0     C46605   8.608   2.680   6.434  0.2305 -0.4500  0.9246
  346MOL0     O46606   8.666   2.673   6.551  0.5292 -0.4448  0.0401
  346MOL0     C46607   8.792   2.726   6.563  0.0249  0.1817 -0.2930
  346MOL0     C46608   8.823   2.858   6.571  0.0798  0.6441  0.3580
  346MOL0     C46609   8.956   2.897   6.598  0.4466  0.1325  1.3257
  346MOL0     C46610   9.062   2.805   6.604 -0.2376  0.1261  0.3461
  346MOL0     O46611   9.197   2.828   6.618 -0.0531 -0.2451 -0.1920
  346MOL0     C46612   9.239   2.955   6.570 -0.0980  0.7555  0.0286
  346MOL0     C46613   9.394   2.969   6.559  0.3443  0.0077 -0.4506
  346MOL0     C46614   9.421   3.110   6.500  0.6686  0.2973  0.2218
  346MOL0     C46615   9.577   3.127   6.483  0.3714 -0.6955 -0.5789
  346MOL0     C46616   9.622   3.271   6.431  0.2837 -0.0423  0.0515
  346MOL0     C46617   9.772   3.281   6.403  0.4687 -0.8723 -0.1609
  346MOL0     C46618   9.814   3.422   6.348 -0.0183 -0.3984  0.0887
  346MOL0     C46619   9.969   3.432   6.338 -0.0485 -0.3831 -0.0529
  346MOL0    Cl46620  10.039   3.572   6.237  0.1497 -0.3412  0.7872
  346MOL0     C46621   9.024   2.664   6.593  0.1725 -0.7495 -0.3858
  346MOL0     C46622   8.890   2.621   6.572 -0.7715 -0.0750  0.2557
  346MOL0     O46623   8.675   2.706   6.330 -0.4617 -0.7085  0.4149
  346MOL0     C46624   8.395   2.701   6.325  0.1755 -0.4925 -0.5986
  346MOL0     C46625   8.256   2.710   6.338 -0.0329  0.8852 -0.2196
  346MOL0     N46626   7.544   2.711   6.398 -0.6008  0.2507  0.6454
  346MOL0     N46627   7.511   2.795   6.486 -0.6317 -0.5899 -0.8195
  346MOL0     C46628   8.199   3.718   6.409  0.4960 -0.4343  1.0415
  346MOL0     C46629   8.285   3.831   6.404 -1.3001  0.6910  0.8556
  346MOL0     C46630   8.635   4.119   6.341  1.0457  0.5438  0.4667
  346MOL0     C46631   8.733   4.071   6.254 -0.7677 -0.1564  0.0989
  346MOL0     C46632   8.841   4.158   6.226 -0.8978  1.3083 -0.2925
  346MOL0     C46633   8.856   4.281   6.279  0.5361 -0.8911  0.2881
  346MOL0     O46634   8.966   4.353   6.234 -0.2145  0.4364 -0.4223
  346MOL0     C46635   8.995   4.472   6.302 -0.0800 -1.0048 -0.2653
  346MOL0     C46636   9.106   4.525   6.207  0.2748  0.8603  0.2834
  346MOL0     C46637   9.149   4.661   6.259  0.6710 -0.3397 -0.5488
  346MOL0     C46638   9.234   4.746   6.171 -0.2154 -0.2076  0.3399
  346MOL0     C46639   9.276   4.874   6.240  0.0121  0.2251 -0.0532
  346MOL0     C46640   9.303   4.982   6.296 -0.5980  0.4698 -0.6837
  346MOL0     C46641   8.761   4.329   6.366  0.3800  1.1340  0.6842
  346MOL0     C46642   8.649   4.248   6.394 -0.0264  0.0274 -0.2448
  346MOL0     H46643   8.570   3.669   6.313  0.2303  1.2560 -1.4475
  346MOL0     H46644   8.406   3.463   6.334  1.1230  0.5310 -3.3919
  346MOL0     H46645   8.083   3.342   6.536 -4.8801 -0.9893  1.1675
  346MOL0     H46646   8.108   3.516   6.585 -0.0524  0.7626 -0.3322
  346MOL0     H46647   7.938   3.597   6.438  0.5540  0.3480  1.6178
  346MOL0     H46648   7.913   3.432   6.375 -0.0019 -2.0804  2.2088
  346MOL0     H46649   7.875   3.496   6.658  1.5982  1.5685 -1.7680
  346MOL0     H46650   7.737   3.483   6.559 -0.6938 -1.6266 -0.6800
  346MOL0     H46651   7.815   3.245   6.499 -0.0255 -0.5830  0.4931
  346MOL0     H46652   7.926   3.273   6.643  0.1083 -0.8912 -1.3047
  346MOL0     H46653   7.721   3.325   6.767 -0.7121  0.2142  0.8118
  346MOL0     H46654   7.630   3.289   6.624  1.4922  0.1173 -0.0863
  346MOL0     H46655   7.807   3.090   6.767  1.4120  1.1595 -3.4208
  346MOL0     H46656   7.635   3.108   6.807 -0.9773 -0.7194 -1.7985
  346MOL0     H46657   7.573   3.062   6.580 -2.4900  0.0381  2.8610
  346MOL0     H46658   7.740   3.008   6.550  0.0713  2.7610  0.2540
  346MOL0     H46659   7.550   2.884   6.764 -0.6794 -0.5632 -0.3216
  346MOL0     H46660   7.718   2.858   6.743  1.3492  2.9252 -0.5097
  346MOL0     H46661   7.758   2.625   6.624  0.1016 -0.4111 -0.2660
  346MOL0     H46662   7.674   2.414   6.386  1.4816 -1.3543  1.1515
  346MOL0     H46663   7.650   2.523   6.248 -2.8553 -0.9163  0.5550
  346MOL0     H46664   7.879   2.430   6.274  0.9423  0.8879 -0.0300
  346MOL0     H46665   7.894   2.500   6.426  0.9107  1.1626  0.1142
  346MOL0     H46666   7.849   2.684   6.197 -0.0172 -0.8236  0.4171
  346MOL0     H46667   8.014   2.605   6.224  2.4036 -2.7526  4.6349
  346MOL0     H46668   7.860   2.777   6.428 -1.3697 -3.0727  0.9086
  346MOL0     H46669   7.975   2.840   6.334 -1.1285 -0.0106  0.1788
  346MOL0     H46670   8.199   2.577   6.639 -0.9192 -2.8918 -2.7525
  346MOL0     H46671   8.543   2.496   6.652 -0.5321 -0.4100  0.5941
  346MOL0     H46672   8.496   2.625   6.743 -0.1864 -1.6781  2.7063
  346MOL0     H46673   8.388   2.476   6.733  2.1534 -0.8140  1.7170
  346MOL0     H46674   8.736   2.923   6.560 -2.3733 -2.4604  0.1711
  346MOL0     H46675   8.977   3.003   6.612 -2.6388  0.8585  1.3303
  346MOL0     H46676   9.180   2.968   6.479 -3.5304  1.5481  2.1960
  346MOL0     H46677   9.206   3.036   6.636 -3.2337  0.2380 -0.7461
  346MOL0     H46678   9.446   2.944   6.652  0.3348 -2.8043 -1.0991
  346MOL0     H46679   9.433   2.901   6.483 -1.6854  1.3781 -2.8432
  346MOL0     H46680   9.384   3.195   6.559  0.3040  0.8589 -0.7902
  346MOL0     H46681   9.369   3.123   6.405 -1.5337 -0.8038  1.2119
  346MOL0     H46682   9.618   3.101   6.581 -1.1728  0.8952  0.5499
  346MOL0     H46683   9.621   3.055   6.413  3.3336  1.3108 -0.9293
  346MOL0     H46684   9.575   3.351   6.488 -1.9739 -0.0868 -1.6047
  346MOL0     H46685   9.578   3.277   6.331 -1.6243  1.7488  0.9231
  346MOL0     H46686   9.824   3.269   6.498 -0.2595  2.8700  0.8844
  346MOL0     H46687   9.798   3.212   6.322 -2.1973 -1.6816 -0.4066
  346MOL0     H46688   9.773   3.499   6.413 -0.5287  0.5240 -1.2793
  346MOL0     H46689   9.766   3.433   6.250  0.7719 -0.7723 -0.3529
  346MOL0     H46690  10.009   3.340   6.295 -4.6499 -0.8636 -4.2708
  346MOL0     H46691  10.011   3.444   6.438  1.4852 -1.1821 -0.5797
  346MOL0     H46692   9.110   2.598   6.601  1.2513  0.7831  1.2582
  346MOL0     H46693   8.869   2.514   6.568 -1.1053 -0.0067  0.1092
  346MOL0     H46694   8.440   2.704   6.226 -2.2658 -1.1406 -1.8008
  346MOL0     H46695   8.196   2.755   6.259 -0.2023  1.7680  0.4027
  346MOL0     H46696   8.096   3.725   6.442  0.4422  1.7278  0.5895
  346MOL0     H46697   8.254   3.934   6.417  0.7136  1.4291  0.0410
  346MOL0     H46698   8.738   3.978   6.199  2.9045  1.0312 -1.9077
  346MOL0     H46699   8.913   4.122   6.155 -1.6848  2.8290 -1.9445
  346MOL0     H46700   8.910   4.540   6.314 -0.4745 -1.4806 -0.3201
  346MOL0     H46701   9.047   4.433   6.389  2.0578 -0.7429 -1.3578
  346MOL0     H46702   9.063   4.538   6.107  1.5647 -1.0927 -0.5784
  346MOL0     H46703   9.187   4.453   6.199  1.5960  2.4683 -1.8452
  346MOL0     H46704   9.207   4.644   6.350 -0.3381  3.1617  0.9276
  346MOL0     H46705   9.059   4.718   6.283  1.7298  0.4891  1.6938
  346MOL0     H46706   9.182   4.775   6.079 -1.8178 -0.0048  1.2620
  346MOL0     H46707   9.326   4.694   6.144 -0.0338  0.1885  0.1713
  346MOL0     H46708   9.332   5.076   6.340  3.1266 -1.4690  1.5582
  346MOL0     H46709   8.769   4.431   6.404 -1.9971  0.7996  2.2899
  346MOL0     H46710   8.570   4.273   6.465 -0.8518 -2.1046 -0.3375
  347MOL0     O46711   2.394  10.925  10.661  0.2679 -0.0934 -0.1780
  347MOL0     C46712   2.495  10.864  10.633  0.4864 -0.7008 -0.6016
  347MOL0     O46713   2.595  10.905  10.547 -0.4286  0.4289  0.4442
  347MOL0     C46714   2.579  11.005  10.461 -0.7654 -0.5956  0.2138
  347MOL0     C46715   2.651  11.124  10.459 -0.3216  0.7160  0.3855
  347MOL0     C46716   2.632  11.220  10.361  0.5189  0.4003  0.0328
  347MOL0     C46717   2.527  11.211  10.264  0.7271  0.0632  0.3300
  347MOL0     O46718   2.487  11.318  10.190  0.2420  0.6317 -0.5143
  347MOL0     C46719   2.523  11.454  10.231  0.1115  0.6832  0.4564
  347MOL0     C46720   2.416  11.548  10.180  0.6950  0.3920 -0.2546
  347MOL0     C46721   2.447  11.693  10.214 -0.4729 -0.0623  0.6832
  347MOL0     C46722   2.344  11.782  10.164  0.6269  0.8424 -0.7738
  347MOL0     C46723   2.382  11.922  10.192  0.0729 -0.4165  0.3270
  347MOL0     C46724   2.298  12.015  10.111 -0.4285  0.8967 -0.8815
  347MOL0     C46725   2.357  12.155  10.101  0.5633  0.2620  0.2723
  347MOL0     C46726   2.325  12.241   9.978 -0.0847 -0.1547 -0.9005
  347MOL0     N46727   2.367  12.178   9.853 -0.0913 -0.4905  0.1496
  347MOL0     C46728   2.282  12.167   9.746  1.0412 -0.5409  0.3130
  347MOL0     C46729   2.353  12.103   9.659 -0.4987  0.2796  1.0176
  347MOL0     C46730   2.316  12.042   9.522  0.2062 -0.3533 -0.1222
  347MOL0     C46731   2.177  12.071   9.475  0.5563 -0.0835  1.1278
  347MOL0     C46732   2.150  11.983   9.346 -0.4582  0.2960  0.2045
  347MOL0     C46733   2.018  12.003   9.275 -1.6238  0.0477  0.4843
  347MOL0     O46734   1.915  11.939   9.350  0.0631 -0.0732  0.2434
  347MOL0     C46735   1.789  11.992   9.346 -0.8504 -0.1186  0.3428
  347MOL0     C46736   1.718  11.987   9.227 -0.5934  0.1077  0.0689
  347MOL0     C46737   1.589  12.038   9.215  0.9085 -0.3578 -0.0204
  347MOL0     C46738   1.514  12.022   9.082 -0.3426 -0.2438 -0.7576
  347MOL0     C46739   1.535  12.096   9.336  0.2235  0.4419 -0.4163
  347MOL0     C46740   1.395  12.140   9.353 -0.6264  0.3299  0.0308
  347MOL0     O46741   1.317  12.110   9.246  0.9710 -0.5611  0.6989
  347MOL0     C46742   1.184  12.131   9.225  0.2613 -0.1998 -0.2375
  347MOL0     C46743   1.103  12.182   9.325 -0.0766  0.6536  0.0055
  347MOL0     C46744   0.973  12.207   9.291 -0.7177  0.5982 -0.0204
  347MOL0     C46745   0.912  12.176   9.173 -0.0206 -0.4024 -0.1698
  347MOL0     O46746   0.791  12.218   9.128  0.1107  0.0977  0.1725
  347MOL0     C46747   0.714  12.281   9.227  1.2865 -0.1080 -0.2298
  347MOL0     C46748   0.587  12.312   9.140 -0.3618  0.0902 -0.2154
  347MOL0     C46749   0.452  12.333   9.219 -0.7248  0.7041  1.3855
  347MOL0     C46750   0.441  12.455   9.320 -0.3770 -0.2372  0.0565
  347MOL0     C46751   0.504  12.425   9.461  0.8851  0.3074 -0.3128
  347MOL0     C46752   0.473  12.534   9.554  0.3349 -0.5662  0.1910
  347MOL0     C46753   0.527  12.519   9.704 -0.3839  0.0887 -0.9950
  347MOL0     C46754   0.473  12.627   9.799  0.4278 -0.2684 -0.6910
  347MOL0    Cl46755   0.302  12.616   9.806  0.1720  0.3559  0.6064
  347MOL0     C46756   0.991  12.122   9.075  0.5591  0.5892 -0.2844
  347MOL0     C46757   1.130  12.105   9.097 -0.2861  0.8227 -0.3266
  347MOL0     O46758   1.367  12.201   9.455 -1.1925 -0.1774  0.3159
  347MOL0     C46759   1.616  12.100   9.455  0.6368  0.2610  0.0420
  347MOL0     C46760   1.738  12.044   9.457  0.1067  0.7133 -0.2514
  347MOL0     N46761   2.490  12.119   9.696 -1.2031 -0.3363  0.2139
  347MOL0     N46762   2.500  12.167   9.816 -0.3096  0.4410 -0.1612
  347MOL0     C46763   2.447  11.094  10.269  0.4356 -0.6514 -0.2527
  347MOL0     C46764   2.475  11.000  10.361  0.1289 -0.1268 -0.0464
  347MOL0     C46765   2.520  10.730  10.698  0.7840 -0.2903 -0.3223
  347MOL0     C46766   2.629  10.648  10.653  0.0716 -0.6655 -0.3701
  347MOL0     C46767   2.658  10.524  10.697  0.2979  0.6686 -0.0095
  347MOL0     C46768   2.567  10.463  10.792 -0.6815  0.5829 -0.4017
  347MOL0     O46769   2.566  10.338  10.840  0.4591 -0.0496 -0.7149
  347MOL0     C46770   2.685  10.257  10.815  0.3618 -0.4834 -0.4353
  347MOL0     C46771   2.653  10.110  10.832  0.3374  0.0457 -0.0369
  347MOL0     C46772   2.554  10.041  10.729 -0.2099 -0.5323 -1.1409
  347MOL0     C46773   2.633  10.043  10.590 -0.2780  0.6186 -0.0053
  347MOL0     C46774   2.760   9.964  10.581  0.1830  0.3316 -0.1314
  347MOL0     C46775   2.860   9.894  10.582  0.1701 -1.0515 -1.5896
  347MOL0     C46776   2.456  10.540  10.833 -0.1747 -0.0062  0.5325
  347MOL0     C46777   2.436  10.666  10.791  0.8968  0.4880  0.2163
  347MOL0     H46778   2.733  11.130  10.531 -1.6121 -0.8292  2.0621
  347MOL0     H46779   2.694  11.309  10.352 -1.6407  2.0128  0.1852
  347MOL0     H46780   2.532  11.460  10.340 -2.7919 -1.5931  0.9457
  347MOL0     H46781   2.621  11.481  10.191 -0.4967  0.4906 -1.2631
  347MOL0     H46782   2.393  11.532  10.074 -1.4495 -1.4194  0.3945
  347MOL0     H46783   2.326  11.522  10.236  1.6696 -0.7628  0.8428
  347MOL0     H46784   2.467  11.711  10.320  1.9274  0.3897  0.2181
  347MOL0     H46785   2.543  11.708  10.164  0.4627 -0.6081  2.2479
  347MOL0     H46786   2.328  11.770  10.057 -0.1161  0.3100 -0.6095
  347MOL0     H46787   2.244  11.764  10.205 -0.2382  1.8979 -2.3200
  347MOL0     H46788   2.372  11.937  10.300 -1.3959  0.5425  0.0769
  347MOL0     H46789   2.489  11.937  10.177  0.1540 -2.0106 -0.9604
  347MOL0     H46790   2.312  11.973  10.011  1.8934 -1.3221  0.2630
  347MOL0     H46791   2.198  12.004  10.154  0.7989 -0.0094  1.9248
  347MOL0     H46792   2.327  12.218  10.185 -1.1175 -1.5282  1.0797
  347MOL0     H46793   2.465  12.135  10.100  0.5179 -0.0162  0.7761
  347MOL0     H46794   2.359  12.344   9.992  0.6599 -0.3138 -1.4906
  347MOL0     H46795   2.216  12.247   9.972 -0.2031 -1.3793 -0.3266
  347MOL0     H46796   2.178  12.196   9.737  0.4156 -1.3325  3.5655
  347MOL0     H46797   2.390  12.080   9.452 -1.8575 -0.2642 -2.3984
  347MOL0     H46798   2.331  11.934   9.530 -2.1369 -0.6210  2.0184
  347MOL0     H46799   2.163  12.175   9.447  0.6781  0.0741  1.6485
  347MOL0     H46800   2.100  12.047   9.549 -4.2505  3.7186 -2.0574
  347MOL0     H46801   2.160  11.877   9.371  0.3982  0.0709 -0.9773
  347MOL0     H46802   2.232  12.000   9.276  1.4859 -0.2991  2.2181
  347MOL0     H46803   2.014  11.952   9.178 -0.5751 -0.2303  0.5806
  347MOL0     H46804   1.996  12.109   9.263 -0.6374  0.4848  2.2261
  347MOL0     H46805   1.754  11.934   9.139 -0.3777  1.8018 -0.9008
  347MOL0     H46806   1.423  11.963   9.088 -1.8662  2.1403  2.3277
  347MOL0     H46807   1.469  12.117   9.055 -1.0806  0.2122  1.7875
  347MOL0     H46808   1.576  11.973   9.006  0.9578 -1.5385  1.0349
  347MOL0     H46809   1.128  12.204   9.428  0.5428 -2.8061  0.7015
  347MOL0     H46810   0.926  12.260   9.373  1.0181  0.3047  1.2397
  347MOL0     H46811   0.684  12.216   9.310 -1.8845  0.6875 -0.6185
  347MOL0     H46812   0.770  12.368   9.262  2.5747  0.3045 -3.0746
  347MOL0     H46813   0.597  12.402   9.078  5.1398  2.4234  3.2983
  347MOL0     H46814   0.570  12.234   9.066  1.0636  2.0090 -2.7547
  347MOL0     H46815   0.426  12.238   9.266  4.1088 -1.2499  0.7040
  347MOL0     H46816   0.387  12.367   9.137 -2.3894  0.7621  2.6733
  347MOL0     H46817   0.496  12.542   9.281 -0.2968 -0.4941 -0.4149
  347MOL0     H46818   0.337  12.486   9.333  0.1239  0.9363  1.6083
  347MOL0     H46819   0.613  12.418   9.458  1.1731  3.4150  0.1622
  347MOL0     H46820   0.452  12.336   9.500 -0.4158  0.2159 -2.1287
  347MOL0     H46821   0.517  12.627   9.517  0.4342 -1.7823 -3.0845
  347MOL0     H46822   0.364  12.539   9.561  0.3117 -1.8647  1.1809
  347MOL0     H46823   0.634  12.540   9.706 -0.8088  2.8279 -3.0498
  347MOL0     H46824   0.509  12.416   9.737  1.4727  0.3215  0.9729
  347MOL0     H46825   0.509  12.727   9.774  1.0738 -1.0397 -3.2016
  347MOL0     H46826   0.510  12.609   9.900  0.4040  2.8276 -0.0478
  347MOL0     H46827   0.934  12.098   8.985 -2.6516  0.3257  1.6733
  347MOL0     H46828   1.191  12.063   9.017 -0.6113 -1.7014  0.6628
  347MOL0     H46829   1.583  12.140   9.550 -0.5063 -2.4520  0.8956
  347MOL0     H46830   1.799  12.028   9.546  1.8699 -2.0669 -1.8143
  347MOL0     H46831   2.357  11.080  10.210  0.9190  0.4206 -1.2991
  347MOL0     H46832   2.408  10.915  10.378  1.5878 -1.5393 -1.0745
  347MOL0     H46833   2.700  10.689  10.580  0.5115  0.9074  0.8814
  347MOL0     H46834   2.742  10.474  10.651  0.8712  0.5976  1.0836
  347MOL0     H46835   2.712  10.265  10.709  2.7144 -1.3756  0.0397
  347MOL0     H46836   2.765  10.290  10.881 -0.3403  1.7025 -0.5994
  347MOL0     H46837   2.606  10.112  10.931 -1.9105  0.3547 -1.0531
  347MOL0     H46838   2.749  10.059  10.841  1.8996  2.6341 -0.7641
  347MOL0     H46839   2.466  10.105  10.716  1.1200  1.1552 -2.4054
  347MOL0     H46840   2.531   9.939  10.760 -0.9640  0.8393  3.7209
  347MOL0     H46841   2.640  10.143  10.546 -0.9502 -0.3802 -2.5852
  347MOL0     H46842   2.562   9.987  10.529 -0.8948 -1.4079  2.4099
  347MOL0     H46843   2.944   9.828  10.575  0.2508 -1.2923  0.7940
  347MOL0     H46844   2.381  10.495  10.897 -1.1552  0.6386 -0.1481
  347MOL0     H46845   2.345  10.717  10.819  0.2402  0.7755 -2.2242
  348MOL0     O46846   6.480   1.495   2.089 -0.7420 -0.6238 -0.7624
  348MOL0     C46847   6.460   1.555   1.983  0.0875 -0.7285  1.0312
  348MOL0     O46848   6.339   1.571   1.928  0.6462 -1.0226  0.8954
  348MOL0     C46849   6.220   1.501   1.949 -0.1854 -0.2255 -0.6758
  348MOL0     C46850   6.093   1.557   1.910  0.8781 -0.0841 -0.0755
  348MOL0     C46851   5.971   1.494   1.938 -0.6424 -0.0354  0.0773
  348MOL0     C46852   5.971   1.369   2.001 -0.0007  0.5576  0.8744
  348MOL0     O46853   5.857   1.296   2.024 -0.1122 -0.0576 -0.7517
  348MOL0     C46854   5.778   1.268   1.912 -0.7119  0.7586  0.9760
  348MOL0     C46855   5.841   1.164   1.820 -0.3676 -0.0070 -0.5254
  348MOL0     C46856   5.832   1.022   1.870 -0.0089 -0.1313 -0.1083
  348MOL0     C46857   5.922   0.980   1.989  0.0739 -0.4309 -0.3181
  348MOL0     C46858   5.864   0.861   2.067 -0.2682  0.0460 -0.2621
  348MOL0     C46859   5.822   0.736   1.995  0.7773  0.7934  0.4675
  348MOL0     C46860   5.799   0.606   2.087  0.1230  0.5940 -0.4190
  348MOL0     C46861   5.925   0.539   2.146 -0.9804 -0.9422 -0.0467
  348MOL0     N46862   5.984   0.605   2.265 -0.1323 -1.1244 -0.2719
  348MOL0     C46863   5.939   0.605   2.394  0.0508 -0.4562  0.2942
  348MOL0     C46864   6.026   0.681   2.459 -0.2033  0.5379 -0.0791
  348MOL0     C46865   6.003   0.719   2.610 -0.3585  0.5081  0.0979
  348MOL0     C46866   6.067   0.616   2.717  0.4296  0.6020  0.1091
  348MOL0     C46867   5.961   0.522   2.776  0.3386 -0.3858 -1.1267
  348MOL0     C46868   6.038   0.449   2.882 -0.2088 -0.0821 -0.3375
  348MOL0     O46869   6.058   0.528   3.002 -0.4234  0.3567 -0.0334
  348MOL0     C46870   6.071   0.457   3.120 -0.3260  0.7035 -1.3856
  348MOL0     C46871   6.021   0.508   3.239 -0.4118 -0.7363 -0.7684
  348MOL0     C46872   6.028   0.439   3.360  0.0874 -0.5264 -0.1165
  348MOL0     C46873   5.984   0.516   3.485 -0.1937  0.4491 -0.7342
  348MOL0     C46874   6.076   0.308   3.365 -0.1061  0.9436 -0.8807
  348MOL0     C46875   6.063   0.216   3.483  0.6378 -0.6576  0.2029
  348MOL0     O46876   6.135   0.099   3.471  0.2615  0.2545  0.4656
  348MOL0     C46877   6.105  -0.003   3.549  0.2989  1.0727  0.3192
  348MOL0     C46878   6.043  -0.117   3.500  0.4771  0.4705  0.5742
  348MOL0     C46879   6.007  -0.218   3.582  1.0800  0.2038  0.1089
  348MOL0     C46880   6.052  -0.211   3.714 -0.0247  0.3665  0.2922
  348MOL0     O46881   6.016  -0.321   3.786 -0.3271  0.5897 -0.6749
  348MOL0     C46882   5.925  -0.280   3.900 -0.7203 -0.2888  0.5576
  348MOL0     C46883   5.968  -0.337   4.030 -1.0011 -0.0132  0.9294
  348MOL0     C46884   5.922  -0.257   4.152 -1.3235 -0.5212  0.2531
  348MOL0     C46885   6.010  -0.311   4.275 -0.1597 -0.3864  0.0693
  348MOL0     C46886   5.939  -0.259   4.402 -0.1692 -0.2730  0.0050
  348MOL0     C46887   5.988  -0.123   4.453 -0.4602 -0.8325  0.5628
  348MOL0     C46888   5.926  -0.091   4.596  0.5411  0.5683  0.4356
  348MOL0     C46889   5.816   0.007   4.610  0.2747  1.2614 -0.6193
  348MOL0    Cl46890   5.815   0.062   4.778  0.6019  0.4190  0.1984
  348MOL0     C46891   6.124  -0.107   3.768  0.0829  0.3588  0.1142
  348MOL0     C46892   6.137  -0.002   3.683 -0.1733 -0.1456 -0.2102
  348MOL0     O46893   5.984   0.239   3.569  0.9483  0.3638 -0.0417
  348MOL0     C46894   6.124   0.254   3.236 -0.2034  0.6231 -0.9739
  348MOL0     C46895   6.131   0.331   3.123 -0.3447 -0.5778  1.0991
  348MOL0     N46896   6.122   0.732   2.367 -0.3504  0.7328  0.1571
  348MOL0     N46897   6.100   0.665   2.254  0.0392  0.2565 -0.6893
  348MOL0     C46898   6.095   1.324   2.044  0.5660  0.2231 -0.7614
  348MOL0     C46899   6.219   1.376   2.020  0.2048 -0.0476  1.3810
  348MOL0     C46900   6.571   1.630   1.913  0.4428 -0.3100  0.4237
  348MOL0     C46901   6.539   1.725   1.815 -0.5796  0.1979  0.2994
  348MOL0     C46902   6.649   1.785   1.753  0.4242 -0.6315  0.6523
  348MOL0     C46903   6.789   1.759   1.779  0.1076  0.2165  0.0578
  348MOL0     O46904   6.877   1.811   1.688 -0.0789  0.0117  0.0571
  348MOL0     C46905   7.010   1.765   1.705  0.5020  0.1617  0.2512
  348MOL0     C46906   7.084   1.823   1.590  0.3918  0.3996  0.2645
  348MOL0     C46907   7.239   1.800   1.609  0.3435  0.3050 -0.0565
  348MOL0     C46908   7.323   1.868   1.504 -0.5803 -0.2786  0.2017
  348MOL0     C46909   7.366   1.777   1.390  0.1770 -1.5884 -1.6229
  348MOL0     C46910   7.409   1.714   1.297 -0.8597  0.2748 -0.5140
  348MOL0     C46911   6.816   1.668   1.882  0.3132  0.5686  0.0865
  348MOL0     C46912   6.706   1.609   1.952 -0.7864  0.6809 -0.9353
  348MOL0     H46913   6.091   1.653   1.860  2.8245  0.5480  0.9720
  348MOL0     H46914   5.879   1.536   1.900 -1.0507 -1.6984 -0.8657
  348MOL0     H46915   5.676   1.247   1.943 -0.3007 -1.0637  1.2304
  348MOL0     H46916   5.781   1.357   1.849 -0.9217  0.3957  0.4483
  348MOL0     H46917   5.796   1.157   1.720 -2.5913 -2.0498  0.5204
  348MOL0     H46918   5.945   1.195   1.806  0.1279 -1.3715  0.0094
  348MOL0     H46919   5.725   1.017   1.894  0.1340  0.6456  0.7220
  348MOL0     H46920   5.845   0.949   1.789 -0.3551  0.3981 -0.6529
  348MOL0     H46921   6.028   0.966   1.965  1.0210 -3.0162  4.1894
  348MOL0     H46922   5.922   1.069   2.053 -1.7944  2.0344 -3.4824
  348MOL0     H46923   5.949   0.839   2.133  0.0448  0.6577 -0.4506
  348MOL0     H46924   5.779   0.896   2.125  0.5609  0.7888  0.5408
  348MOL0     H46925   5.722   0.761   1.959  0.3614  1.1333  1.7965
  348MOL0     H46926   5.896   0.720   1.917 -0.2841 -0.5966 -0.2928
  348MOL0     H46927   5.722   0.620   2.162  0.6486 -0.6354  0.3652
  348MOL0     H46928   5.769   0.527   2.018  1.0935  0.2201 -0.4335
  348MOL0     H46929   5.995   0.530   2.063 -0.7656 -0.7215  0.1116
  348MOL0     H46930   5.892   0.438   2.173 -0.8912 -0.6598  1.2064
  348MOL0     H46931   5.839   0.576   2.422  0.3435 -1.3624  0.4422
  348MOL0     H46932   6.029   0.822   2.634  1.1744  0.4017 -0.9410
  348MOL0     H46933   5.896   0.724   2.630 -0.5111  3.6848 -0.9440
  348MOL0     H46934   6.118   0.674   2.794 -0.8041  0.9264  0.7023
  348MOL0     H46935   6.138   0.562   2.653 -0.7944 -0.2603 -0.5635
  348MOL0     H46936   5.914   0.454   2.705 -3.1463 -0.8760  1.3804
  348MOL0     H46937   5.880   0.582   2.820  0.1790 -0.2328 -1.6222
  348MOL0     H46938   6.137   0.424   2.843 -0.8764  0.0523 -2.2090
  348MOL0     H46939   6.007   0.346   2.902  2.4836 -0.4676  2.6904
  348MOL0     H46940   5.987   0.611   3.236  1.1012 -0.1769  0.3913
  348MOL0     H46941   5.983   0.625   3.476  1.0152  0.5825  0.3901
  348MOL0     H46942   5.900   0.470   3.538  3.2954 -2.7229  2.7110
  348MOL0     H46943   6.063   0.508   3.560 -2.1284 -4.9759  1.1818
  348MOL0     H46944   6.040  -0.128   3.392  1.4533 -1.4677  0.7105
  348MOL0     H46945   5.950  -0.306   3.553 -0.8438  0.8395  1.7388
  348MOL0     H46946   5.915  -0.171   3.902  3.1640  0.3052 -1.3958
  348MOL0     H46947   5.825  -0.314   3.876 -0.1491 -0.3601 -2.0485
  348MOL0     H46948   5.940  -0.443   4.035 -0.1220 -0.2884  0.2146
  348MOL0     H46949   6.077  -0.336   4.033 -0.8922 -3.3543  1.8371
  348MOL0     H46950   5.814  -0.259   4.173 -1.2607 -0.0160  0.6330
  348MOL0     H46951   5.941  -0.150   4.139 -1.8368 -0.0936  2.6958
  348MOL0     H46952   6.003  -0.420   4.272  1.6568 -0.5103 -0.6026
  348MOL0     H46953   6.112  -0.274   4.263  0.0601 -1.0282 -0.0451
  348MOL0     H46954   5.949  -0.320   4.492 -0.5353  3.9345  3.2434
  348MOL0     H46955   5.831  -0.251   4.384 -0.1221  0.9066  0.1326
  348MOL0     H46956   6.097  -0.132   4.466 -0.6258 -4.3838  0.6131
  348MOL0     H46957   5.961  -0.047   4.380  0.3392  0.8145  1.8986
  348MOL0     H46958   6.014  -0.048   4.646  4.2477 -1.4496 -3.6235
  348MOL0     H46959   5.899  -0.188   4.638  1.1815  0.7096  1.1947
  348MOL0     H46960   5.722  -0.032   4.572  1.5570 -0.8393 -1.7810
  348MOL0     H46961   5.836   0.088   4.539 -1.6154  1.9422 -0.4358
  348MOL0     H46962   6.146  -0.109   3.874  0.2052  1.0454  0.1047
  348MOL0     H46963   6.196   0.084   3.715  1.3831 -2.2826  3.2757
  348MOL0     H46964   6.158   0.152   3.221 -0.0429  0.2327  1.6677
  348MOL0     H46965   6.164   0.291   3.028 -1.7204 -1.2632  0.8791
  348MOL0     H46966   6.092   1.235   2.106 -2.5717  0.5362 -0.2901
  348MOL0     H46967   6.311   1.320   2.035  0.4758 -0.2936 -0.8244
  348MOL0     H46968   6.436   1.742   1.786 -2.0807  1.3718  5.3857
  348MOL0     H46969   6.624   1.837   1.661  1.4784 -0.5614  0.3960
  348MOL0     H46970   7.056   1.793   1.800  1.9371  1.4311 -0.7743
  348MOL0     H46971   7.016   1.657   1.692 -1.7888 -0.0553  0.5188
  348MOL0     H46972   7.063   1.930   1.596 -1.0646  0.1102  0.4969
  348MOL0     H46973   7.049   1.785   1.494 -0.1714  0.5530  0.4048
  348MOL0     H46974   7.261   1.694   1.623 -0.0087  0.1368 -0.7422
  348MOL0     H46975   7.270   1.844   1.704 -0.3731 -0.2574  0.4450
  348MOL0     H46976   7.408   1.903   1.563 -1.1047 -1.0510  1.4696
  348MOL0     H46977   7.272   1.956   1.465 -0.4692 -0.2842  0.0417
  348MOL0     H46978   7.451   1.648   1.224 -0.7792 -1.9324  1.4363
  348MOL0     H46979   6.917   1.664   1.922  0.0873 -0.6649  0.5722
  348MOL0     H46980   6.729   1.537   2.030  0.2173  1.9606 -0.0196
  349MOL0     O46981  11.259   2.569   5.024 -0.5581  0.2343  0.1574
  349MOL0     C46982  11.304   2.656   5.107 -0.5116 -0.5537 -0.9167
  349MOL0     O46983  11.242   2.681   5.237  0.1072 -0.6771 -0.0811
  349MOL0     C46984  11.119   2.624   5.276  0.0899  0.6712 -0.0869
  349MOL0     C46985  11.002   2.632   5.203 -0.1142  0.6080  0.0720
  349MOL0     C46986  10.876   2.593   5.254 -0.2733  0.0826  0.0098
  349MOL0     C46987  10.861   2.554   5.391 -0.4769 -0.6583  0.8504
  349MOL0     O46988  10.739   2.522   5.457  0.3881 -0.8807 -0.0297
  349MOL0     C46989  10.612   2.559   5.402 -0.2064 -0.4952  0.5626
  349MOL0     C46990  10.490   2.517   5.486  0.1324  0.0714  0.6610
  349MOL0     C46991  10.495   2.597   5.621  0.5326  0.0819 -0.0161
  349MOL0     C46992  10.381   2.560   5.719  0.5773  0.2800  0.3206
  349MOL0     C46993  10.395   2.652   5.846 -0.8040 -0.5553 -0.4517
  349MOL0     C46994  10.279   2.642   5.944 -0.8466 -0.0729 -0.4304
  349MOL0     C46995  10.299   2.751   6.055 -0.2090 -0.2583 -0.2899
  349MOL0     C46996  10.204   2.729   6.175 -0.2704  0.3494 -0.2694
  349MOL0     N46997  10.235   2.603   6.245  0.1015  0.5947 -0.2669
  349MOL0     C46998  10.141   2.515   6.293  0.3661 -0.3556  0.0407
  349MOL0     C46999  10.197   2.436   6.384  0.2575 -0.2306  0.8433
  349MOL0     C47000  10.142   2.303   6.430 -0.5135 -0.4828  0.0617
  349MOL0     C47001  10.159   2.282   6.581 -0.5755 -0.3524  0.1767
  349MOL0     C47002  10.123   2.400   6.665 -0.3112 -0.2898 -0.5472
  349MOL0     C47003   9.982   2.437   6.664  0.0961 -0.4131  0.4318
  349MOL0     O47004   9.897   2.336   6.718  0.3245  0.7907 -0.1830
  349MOL0     C47005   9.766   2.348   6.683  0.0149  1.2099  0.7152
  349MOL0     C47006   9.704   2.462   6.626  0.5479  0.2672  0.0506
  349MOL0     C47007   9.580   2.454   6.559  0.0292  0.9406  0.6077
  349MOL0     C47008   9.533   2.573   6.494  0.3554 -0.0639  0.3248
  349MOL0     C47009   9.515   2.326   6.554 -1.1105 -0.7073  0.3325
  349MOL0     C47010   9.393   2.285   6.484 -0.5884 -0.8457  0.0080
  349MOL0     O47011   9.281   2.363   6.497  0.2093 -0.3255  0.0832
  349MOL0     C47012   9.156   2.320   6.457 -0.7688  0.4970 -0.2420
  349MOL0     C47013   9.101   2.193   6.486 -1.6238  0.1899  0.9043
  349MOL0     C47014   8.988   2.154   6.409 -0.3388 -0.0858  0.4036
  349MOL0     C47015   8.910   2.248   6.336  0.5572  1.1615  0.1495
  349MOL0     O47016   8.798   2.199   6.278  0.2135  0.4777  0.6095
  349MOL0     C47017   8.685   2.285   6.295 -0.4878 -0.5887  0.0158
  349MOL0     C47018   8.561   2.219   6.237 -0.2826 -0.1257  0.0854
  349MOL0     C47019   8.443   2.315   6.272 -0.4497 -0.1036 -0.4891
  349MOL0     C47020   8.317   2.228   6.286  0.2879  0.4308 -0.4151
  349MOL0     C47021   8.289   2.164   6.154 -0.3833 -0.2513  0.2288
  349MOL0     C47022   8.159   2.088   6.156  0.2151  0.1187 -0.3170
  349MOL0     C47023   8.112   2.028   6.032  0.1806 -0.1254  1.0852
  349MOL0     C47024   7.981   1.967   6.040  0.0650 -0.4338 -1.3790
  349MOL0    Cl47025   7.851   2.062   6.115 -0.5945 -0.1095  0.2987
  349MOL0     C47026   8.962   2.379   6.321  0.4917 -0.1877 -0.5545
  349MOL0     C47027   9.087   2.404   6.380 -0.8953 -1.0297  1.1220
  349MOL0     O47028   9.393   2.179   6.418 -0.1099  0.5264  0.8884
  349MOL0     C47029   9.579   2.209   6.613 -0.2937 -0.8797 -0.6635
  349MOL0     C47030   9.703   2.227   6.668  0.4929 -0.3549 -0.1387
  349MOL0     N47031  10.333   2.469   6.381  0.5894  0.5142  0.0251
  349MOL0     N47032  10.351   2.572   6.306 -0.2512  0.5247  0.4609
  349MOL0     C47033  10.979   2.534   5.462  0.8314 -1.0976  0.1347
  349MOL0     C47034  11.105   2.567   5.408  0.2529 -0.4581 -0.4939
  349MOL0     C47035  11.423   2.745   5.070 -0.2078  0.0622 -0.3269
  349MOL0     C47036  11.459   2.761   4.935 -1.0654  0.2712  0.1697
  349MOL0     C47037  11.552   2.862   4.894  0.9814  0.1596  0.3160
  349MOL0     C47038  11.618   2.941   4.986 -0.5433 -1.1766  0.5788
  349MOL0     O47039  11.704   3.038   4.929 -0.8147  0.2631  1.1995
  349MOL0     C47040  11.786   3.116   5.013 -1.6198  0.4643 -0.1444
  349MOL0     C47041  11.906   3.161   4.930  0.2918  0.5340 -0.3798
  349MOL0     C47042  11.987   3.272   4.998  0.2556  0.4414  0.5787
  349MOL0     C47043  12.086   3.341   4.908 -0.3527 -0.6171  0.3073
  349MOL0     C47044  12.190   3.246   4.890 -0.3248 -0.4754 -0.4748
  349MOL0     C47045  12.286   3.175   4.892 -0.4265 -0.2631  0.6066
  349MOL0     C47046  11.588   2.926   5.124  0.0394 -0.8459  0.9525
  349MOL0     C47047  11.485   2.830   5.165 -0.5201 -0.0514 -0.0711
  349MOL0     H47048  11.011   2.659   5.098  1.3145 -1.3291 -0.3615
  349MOL0     H47049  10.788   2.602   5.191  0.7869  0.6766 -1.4344
  349MOL0     H47050  10.615   2.668   5.396 -0.3765 -0.4728  0.8568
  349MOL0     H47051  10.599   2.517   5.302 -3.3112  0.6799  0.3573
  349MOL0     H47052  10.394   2.526   5.435  1.9376  1.2451 -2.8572
  349MOL0     H47053  10.509   2.414   5.519 -1.7379 -1.1723 -1.7978
  349MOL0     H47054  10.586   2.556   5.665 -0.3063 -1.3292  0.4862
  349MOL0     H47055  10.487   2.704   5.599  0.7864  0.3624  1.2321
  349MOL0     H47056  10.282   2.570   5.675  0.1201 -2.1805  0.6530
  349MOL0     H47057  10.386   2.456   5.751  0.0224  0.4127  0.8571
  349MOL0     H47058  10.493   2.635   5.891  0.2685 -0.2375 -2.5594
  349MOL0     H47059  10.398   2.755   5.808 -2.6502 -0.7108 -1.1512
  349MOL0     H47060  10.181   2.658   5.898 -1.2029  0.2398  0.4138
  349MOL0     H47061  10.269   2.542   5.986 -2.8282  0.2138 -0.1361
  349MOL0     H47062  10.403   2.750   6.088  0.1093 -0.4025 -1.2785
  349MOL0     H47063  10.274   2.847   6.009  1.7582  0.8879  0.8666
  349MOL0     H47064  10.099   2.745   6.147 -0.0921  1.8862 -0.1360
  349MOL0     H47065  10.234   2.813   6.237  0.9125  0.5158 -1.0436
  349MOL0     H47066  10.041   2.505   6.254  1.8210 -2.5906 -3.6167
  349MOL0     H47067  10.034   2.298   6.410 -0.8093  0.9160  1.1331
  349MOL0     H47068  10.183   2.220   6.372 -0.3984 -1.0697  0.9735
  349MOL0     H47069  10.262   2.252   6.602 -0.9794 -0.4266  2.2709
  349MOL0     H47070  10.102   2.192   6.608  0.9600 -1.9853 -1.7116
  349MOL0     H47071  10.178   2.486   6.626 -1.5074  1.1056  0.7138
  349MOL0     H47072  10.143   2.380   6.771 -2.5057  1.3046  0.2292
  349MOL0     H47073   9.957   2.439   6.558  0.2412  1.6598  0.4070
  349MOL0     H47074   9.965   2.537   6.705  0.7013  0.2538 -0.8851
  349MOL0     H47075   9.742   2.564   6.636  1.7231 -0.3189  2.2030
  349MOL0     H47076   9.607   2.628   6.434 -0.5738  1.4540  0.5070
  349MOL0     H47077   9.448   2.556   6.427  1.9551 -1.9512 -1.3346
  349MOL0     H47078   9.493   2.649   6.562 -2.6564 -1.9738  0.8604
  349MOL0     H47079   9.155   2.131   6.557  2.5155  1.9856 -0.3777
  349MOL0     H47080   8.958   2.050   6.418  0.8128 -0.2833  2.5144
  349MOL0     H47081   8.657   2.299   6.400 -2.4386 -2.1702 -0.2356
  349MOL0     H47082   8.716   2.379   6.248 -1.0197 -0.0765  0.6633
  349MOL0     H47083   8.580   2.209   6.130  0.6317 -1.8942  0.3777
  349MOL0     H47084   8.545   2.123   6.286 -3.1936  0.8410  1.2651
  349MOL0     H47085   8.429   2.393   6.197  0.5486 -1.1944 -1.8522
  349MOL0     H47086   8.452   2.369   6.368 -0.7334 -1.7470  0.5000
  349MOL0     H47087   8.327   2.151   6.363  1.5472 -0.6640 -1.6055
  349MOL0     H47088   8.238   2.297   6.316  1.1393  1.5885 -0.7518
  349MOL0     H47089   8.367   2.101   6.111 -0.6473  0.8306 -1.9214
  349MOL0     H47090   8.272   2.240   6.078  0.0019  0.1836  0.5706
  349MOL0     H47091   8.162   2.003   6.225 -3.6562  0.1483  0.1081
  349MOL0     H47092   8.083   2.162   6.183  0.9530  1.4100 -1.6435
  349MOL0     H47093   8.173   1.951   5.984  1.3758  1.9002 -0.8279
  349MOL0     H47094   8.106   2.116   5.967  0.7028 -0.2534  0.8593
  349MOL0     H47095   7.994   1.872   6.092  0.6756  0.1361 -0.4668
  349MOL0     H47096   7.950   1.944   5.938 -1.2588 -0.5687 -0.9632
  349MOL0     H47097   8.910   2.454   6.262 -0.3351  0.8862  1.4526
  349MOL0     H47098   9.129   2.500   6.353 -3.6972  0.2251  0.9220
  349MOL0     H47099   9.524   2.117   6.624  3.2072 -2.9100  1.9866
  349MOL0     H47100   9.763   2.142   6.699 -0.1586 -0.2366  1.5519
  349MOL0     H47101  10.995   2.493   5.561  3.2682 -2.6362 -0.8241
  349MOL0     H47102  11.196   2.560   5.467  1.3146  0.4139 -1.9598
  349MOL0     H47103  11.407   2.709   4.856  1.6610  1.3083 -2.5009
  349MOL0     H47104  11.568   2.875   4.788  0.6174  0.2526  0.2707
  349MOL0     H47105  11.722   3.199   5.044 -0.9578  0.5063  1.2367
  349MOL0     H47106  11.819   3.074   5.109 -2.4518  2.2727  1.0107
  349MOL0     H47107  11.865   3.195   4.834 -0.0984  1.4013  0.0802
  349MOL0     H47108  11.972   3.075   4.912  0.3694  0.4311  0.3647
  349MOL0     H47109  12.042   3.232   5.084  1.6423  0.0788 -0.4381
  349MOL0     H47110  11.925   3.357   5.029  1.2469  1.1629  0.5950
  349MOL0     H47111  12.128   3.432   4.953  3.0898 -0.3037 -2.9917
  349MOL0     H47112  12.049   3.364   4.807  2.2963 -0.2764 -0.6624
  349MOL0     H47113  12.369   3.107   4.895 -0.1071 -0.0510 -1.9125
  349MOL0     H47114  11.632   2.981   5.206  1.7924  1.1753 -1.2202
  349MOL0     H47115  11.470   2.816   5.272 -2.6208  1.3370 -0.1202
  350MOL0     O47116   7.248   4.547   5.957  0.4405  0.1227 -0.2056
  350MOL0     C47117   7.282   4.438   5.925  0.4251  0.4479  0.4317
  350MOL0     O47118   7.410   4.400   5.892  0.8038  0.7484  0.2237
  350MOL0     C47119   7.511   4.497   5.899 -0.5852  0.6294  0.4991
  350MOL0     C47120   7.618   4.470   5.977  0.0860 -0.4595  0.0272
  350MOL0     C47121   7.734   4.550   5.982  0.2111  0.4542  0.6045
  350MOL0     C47122   7.723   4.666   5.906  0.4506 -0.2100 -0.8257
  350MOL0     O47123   7.841   4.739   5.914 -0.1325  0.6858  0.0839
  350MOL0     C47124   7.850   4.884   5.883 -0.3548 -1.1270  0.4643
  350MOL0     C47125   7.992   4.918   5.922 -0.7633  0.1675  0.2692
  350MOL0     C47126   8.037   4.843   6.054  0.3505 -1.4088  0.7266
  350MOL0     C47127   8.151   4.924   6.121  0.1324  0.1080 -0.1084
  350MOL0     C47128   8.280   4.919   6.046  0.0228 -0.8648 -0.2851
  350MOL0     C47129   8.381   5.010   6.112  0.7473 -0.6683  0.5550
  350MOL0     C47130   8.404   5.016   6.261 -0.1506 -1.2229  0.2307
  350MOL0     C47131   8.493   5.133   6.308  0.1671 -0.0597 -0.8015
  350MOL0     N47132   8.467   5.159   6.445  0.3350  0.4716  0.0684
  350MOL0     C47133   8.349   5.197   6.508 -0.0289 -0.6110  0.2767
  350MOL0     C47134   8.399   5.218   6.631 -0.0163  0.5412  1.0294
  350MOL0     C47135   8.310   5.263   6.748  0.1250  1.2382  0.6439
  350MOL0     C47136   8.286   5.409   6.750 -0.0579  0.4355 -0.5458
  350MOL0     C47137   8.208   5.460   6.879  0.1718  1.2953  0.6163
  350MOL0     C47138   8.302   5.481   6.996  0.1183  0.1012  0.2515
  350MOL0     O47139   8.394   5.593   6.978  0.4118 -0.2483  0.1224
  350MOL0     C47140   8.350   5.727   6.976  0.1531  0.0848 -0.4527
  350MOL0     C47141   8.215   5.763   7.007  0.1967  0.2955  0.1782
  350MOL0     C47142   8.184   5.898   7.033 -0.2277 -0.3917  0.3712
  350MOL0     C47143   8.043   5.922   7.091  0.3789 -0.5418  0.5645
  350MOL0     C47144   8.285   5.995   7.036  0.5308 -0.9615 -0.2824
  350MOL0     C47145   8.250   6.137   7.052 -0.5805 -0.6169  0.0357
  350MOL0     O47146   8.172   6.175   7.160 -0.1178  0.3805  0.3992
  350MOL0     C47147   8.156   6.318   7.178 -0.1740 -0.1200 -0.4406
  350MOL0     C47148   8.036   6.369   7.171  0.8141 -0.6497  1.2549
  350MOL0     C47149   8.015   6.503   7.209  0.0192  0.0562 -0.1658
  350MOL0     C47150   8.117   6.580   7.256  0.3600 -0.3721 -0.4553
  350MOL0     O47151   8.069   6.706   7.294  0.5259  0.5069  0.7110
  350MOL0     C47152   8.139   6.791   7.384 -0.4130 -0.4334 -0.3372
  350MOL0     C47153   8.201   6.910   7.323  0.0628 -0.4069  0.4820
  350MOL0     C47154   8.105   7.035   7.303  0.0086  0.3336 -0.1922
  350MOL0     C47155   8.186   7.161   7.254 -0.1465  0.1564 -0.1802
  350MOL0     C47156   8.083   7.280   7.232 -0.6004  0.5884 -0.3313
  350MOL0     C47157   8.166   7.398   7.168 -0.5014  0.0746 -1.4783
  350MOL0     C47158   8.153   7.415   7.023 -0.4845 -0.0342  1.4437
  350MOL0     C47159   8.233   7.533   6.947  1.0820  0.8038  0.2720
  350MOL0    Cl47160   8.402   7.514   6.970 -0.2345  0.1340  0.2230
  350MOL0     C47161   8.247   6.531   7.262  0.2795 -0.7466 -0.4463
  350MOL0     C47162   8.263   6.394   7.229 -0.2245 -0.8367 -0.2726
  350MOL0     O47163   8.308   6.213   6.971  0.3438  0.5777  0.3800
  350MOL0     C47164   8.421   5.959   7.004  0.5540  0.0179  0.0209
  350MOL0     C47165   8.451   5.828   6.971 -0.0078  0.3530  0.3188
  350MOL0     N47166   8.533   5.205   6.638  0.4203 -0.3512 -0.1234
  350MOL0     N47167   8.574   5.161   6.529  0.2450  0.1198 -0.2090
  350MOL0     C47168   7.614   4.706   5.831  0.3539 -0.0288 -0.2714
  350MOL0     C47169   7.512   4.615   5.822 -0.3741  0.1363 -0.1022
  350MOL0     C47170   7.184   4.325   5.929  0.4489  0.1103 -0.0466
  350MOL0     C47171   7.223   4.190   5.919  0.6582  0.0331  0.2823
  350MOL0     C47172   7.129   4.087   5.912  0.5075  0.6285 -0.5624
  350MOL0     C47173   6.995   4.111   5.923  0.8011  0.3658 -0.1492
  350MOL0     O47174   6.897   4.012   5.913  0.2875 -0.2462  0.2289
  350MOL0     C47175   6.941   3.872   5.912  0.3379  0.0325  0.3269
  350MOL0     C47176   6.978   3.830   5.771 -1.2200  0.6956  0.9932
  350MOL0     C47177   7.085   3.715   5.765 -0.3814 -0.3680 -0.8485
  350MOL0     C47178   7.108   3.647   5.628  0.5758 -0.0343  0.7953
  350MOL0     C47179   7.000   3.566   5.585 -0.2041 -0.1847  0.6950
  350MOL0     C47180   6.910   3.490   5.573  0.3354 -0.8585  0.8620
  350MOL0     C47181   6.956   4.246   5.947  0.3690 -0.4334  0.4041
  350MOL0     C47182   7.049   4.346   5.950  0.1791  0.1951 -0.8134
  350MOL0     H47183   7.606   4.382   6.040  0.7444 -1.6112 -1.4014
  350MOL0     H47184   7.819   4.525   6.045  0.1005  2.7684  1.8061
  350MOL0     H47185   7.839   4.911   5.778  3.0315 -0.7562  0.1192
  350MOL0     H47186   7.783   4.942   5.948  2.7937  3.0712  0.3246
  350MOL0     H47187   8.060   4.887   5.842 -0.2056 -1.8848  1.4615
  350MOL0     H47188   7.995   5.027   5.924 -1.1305  0.2698 -2.0909
  350MOL0     H47189   7.949   4.849   6.118 -2.8551  1.1385 -3.3841
  350MOL0     H47190   8.062   4.737   6.047 -0.1072 -1.5174  0.7124
  350MOL0     H47191   8.121   5.028   6.135  1.5206  0.5249 -0.1342
  350MOL0     H47192   8.160   4.886   6.223 -0.8597 -0.3431 -0.1762
  350MOL0     H47193   8.325   4.819   6.046 -0.5524 -1.1250 -0.7119
  350MOL0     H47194   8.270   4.955   5.943 -0.2761 -1.2577 -0.3917
  350MOL0     H47195   8.478   5.002   6.062  0.0956 -1.1109 -0.6971
  350MOL0     H47196   8.354   5.111   6.081 -1.0660 -0.5987  2.1667
  350MOL0     H47197   8.313   5.032   6.319  0.0854  6.7322 -0.5265
  350MOL0     H47198   8.452   4.920   6.282  0.0163 -0.8985  1.3784
  350MOL0     H47199   8.465   5.225   6.257  0.1663  0.2530 -0.2456
  350MOL0     H47200   8.598   5.116   6.282 -0.3005  0.5799 -3.4209
  350MOL0     H47201   8.250   5.207   6.466  1.4804 -2.6403 -4.4815
  350MOL0     H47202   8.214   5.210   6.744 -0.1413  1.5745  2.1096
  350MOL0     H47203   8.365   5.235   6.838 -1.5612  0.7497  1.5558
  350MOL0     H47204   8.231   5.429   6.658 -3.7958 -2.2795  0.8562
  350MOL0     H47205   8.381   5.463   6.744 -1.2557  2.5701 -1.5397
  350MOL0     H47206   8.121   5.397   6.897 -0.5098  1.3413 -2.1240
  350MOL0     H47207   8.162   5.555   6.849 -0.3568  1.3190  1.4506
  350MOL0     H47208   8.348   5.383   7.014 -0.8758 -0.3005  0.7002
  350MOL0     H47209   8.241   5.492   7.086  0.5538  2.1242  0.3440
  350MOL0     H47210   8.140   5.685   7.017 -1.5347  1.9686  0.8801
  350MOL0     H47211   7.996   5.993   7.021 -0.0125  0.5307  1.8753
  350MOL0     H47212   7.982   5.831   7.098  0.9142 -0.9266  0.3002
  350MOL0     H47213   8.050   5.972   7.188 -1.4797  0.1561  0.3904
  350MOL0     H47214   7.956   6.304   7.137 -1.6658  2.2878  1.0401
  350MOL0     H47215   7.917   6.550   7.205 -0.2411 -0.4977 -0.3164
  350MOL0     H47216   8.077   6.833   7.464 -0.9335 -1.2611 -0.2914
  350MOL0     H47217   8.219   6.728   7.424  0.0375  1.0088  1.1536
  350MOL0     H47218   8.288   6.944   7.379  3.3163  0.7984 -4.7394
  350MOL0     H47219   8.233   6.893   7.220  0.3730  3.1644 -0.1286
  350MOL0     H47220   8.051   7.062   7.395 -1.1461  0.5009 -0.9011
  350MOL0     H47221   8.026   6.993   7.241 -0.5714 -3.9128  2.9763
  350MOL0     H47222   8.268   7.188   7.321  1.1300 -1.7153 -0.9043
  350MOL0     H47223   8.229   7.147   7.155  0.3843  0.3735  0.0185
  350MOL0     H47224   8.038   7.325   7.321  0.1214  1.9874 -0.6434
  350MOL0     H47225   7.995   7.259   7.171 -1.9270  2.8667  0.6769
  350MOL0     H47226   8.143   7.490   7.221  1.2816 -0.0723 -0.3334
  350MOL0     H47227   8.270   7.389   7.203 -0.7502  1.8530 -0.1682
  350MOL0     H47228   8.048   7.439   7.006 -0.2713  0.3275  0.5814
  350MOL0     H47229   8.174   7.322   6.971 -0.5526  2.1664 -3.0099
  350MOL0     H47230   8.205   7.624   7.002  1.4146  1.3188 -0.3991
  350MOL0     H47231   8.208   7.536   6.840  1.5855 -4.9126 -0.2777
  350MOL0     H47232   8.327   6.598   7.293 -0.0749 -1.2986  1.9023
  350MOL0     H47233   8.360   6.345   7.239 -0.8606 -1.7966  1.6556
  350MOL0     H47234   8.494   6.038   6.995  2.0866 -1.5012 -1.8288
  350MOL0     H47235   8.550   5.791   6.946  0.9244  0.8466  3.0175
  350MOL0     H47236   7.618   4.804   5.785  1.0550 -0.3808 -0.9840
  350MOL0     H47237   7.431   4.628   5.749  1.7657 -1.0290 -2.8807
  350MOL0     H47238   7.326   4.158   5.909  1.5351  2.3880  0.9674
  350MOL0     H47239   7.167   3.990   5.883  0.2191  0.7658 -1.4487
  350MOL0     H47240   7.025   3.857   5.980  0.9822 -0.5956 -0.5726
  350MOL0     H47241   6.864   3.813   5.963 -0.4242  1.9686  1.5285
  350MOL0     H47242   7.017   3.914   5.713 -2.3517  0.6539  0.1158
  350MOL0     H47243   6.879   3.812   5.728 -2.3230  2.4540  2.6395
  350MOL0     H47244   7.055   3.645   5.843 -1.0786  1.8128  0.9774
  350MOL0     H47245   7.177   3.754   5.811 -0.7816  0.1948 -0.5043
  350MOL0     H47246   7.204   3.596   5.623  1.1086  1.0573 -0.9672
  350MOL0     H47247   7.114   3.726   5.552  1.5448 -2.6492 -2.0593
  350MOL0     H47248   6.831   3.417   5.583  1.9285 -2.5290  1.8373
  350MOL0     H47249   6.850   4.269   5.955 -0.0331 -2.4361  1.3310
  350MOL0     H47250   7.022   4.449   5.969 -1.7150 -0.1886 -1.2370
  351MOL0     O47251   4.072   0.385   8.027 -0.1255  0.1973 -0.0810
  351MOL0     C47252   4.163   0.466   8.010  0.0194  0.3339  0.3225
  351MOL0     O47253   4.169   0.558   7.906 -0.7423  0.5873 -0.5328
  351MOL0     C47254   4.076   0.545   7.805 -0.3067 -0.0043 -0.0367
  351MOL0     C47255   4.058   0.420   7.734  0.7453  0.2187 -0.8236
  351MOL0     C47256   3.950   0.408   7.647  0.1215 -0.5872  0.0138
  351MOL0     C47257   3.867   0.517   7.620  0.8567 -1.3432 -0.0315
  351MOL0     O47258   3.760   0.538   7.531  0.0080  0.5401 -0.3773
  351MOL0     C47259   3.718   0.429   7.456 -0.0624 -0.2630 -0.6268
  351MOL0     C47260   3.645   0.317   7.540 -0.0068  0.2608 -0.4157
  351MOL0     C47261   3.544   0.250   7.445 -0.7349 -0.1574  0.1098
  351MOL0     C47262   3.439   0.167   7.519  0.3355 -0.0729  0.5702
  351MOL0     C47263   3.349   0.095   7.411  0.6399  0.4917  0.2763
  351MOL0     C47264   3.232   0.033   7.480 -0.3714  0.0514  0.2736
  351MOL0     C47265   3.154  -0.045   7.372  0.0111 -0.4108  0.1444
  351MOL0     C47266   3.041  -0.113   7.441 -0.8398 -0.3862 -0.4735
  351MOL0     N47267   2.932  -0.153   7.352  0.4417  0.3700  0.0831
  351MOL0     C47268   2.943  -0.209   7.228 -0.4023 -0.2478  0.0654
  351MOL0     C47269   2.824  -0.246   7.183  0.0572 -0.9368  1.1912
  351MOL0     C47270   2.791  -0.334   7.056 -0.9196 -0.3853 -0.7051
  351MOL0     C47271   2.654  -0.396   7.071  0.0666 -0.4728 -0.2419
  351MOL0     C47272   2.633  -0.482   6.942 -0.5166 -0.0722  0.8402
  351MOL0     C47273   2.564  -0.406   6.817 -0.8094 -0.2164 -0.5291
  351MOL0     O47274   2.511  -0.508   6.734 -0.8706  0.8884  0.0100
  351MOL0     C47275   2.386  -0.545   6.760  0.2725  0.1299  0.2447
  351MOL0     C47276   2.358  -0.658   6.836 -0.3654  0.3001  0.9480
  351MOL0     C47277   2.225  -0.700   6.867  0.4122  0.3299 -0.2170
  351MOL0     C47278   2.204  -0.823   6.960 -0.0392 -0.4667  0.3718
  351MOL0     C47279   2.118  -0.626   6.809 -0.4190  0.5475 -0.6952
  351MOL0     C47280   1.982  -0.664   6.843 -0.6319 -0.5593  0.2207
  351MOL0     O47281   1.923  -0.564   6.909  0.2111 -0.2317 -0.7478
  351MOL0     C47282   1.790  -0.594   6.961  0.1365 -0.3450  0.1550
  351MOL0     C47283   1.676  -0.586   6.877 -0.3808  0.1763  0.7110
  351MOL0     C47284   1.553  -0.645   6.907  0.0890 -0.1984 -0.8885
  351MOL0     C47285   1.545  -0.727   7.030  0.2715  0.2669  0.3893
  351MOL0     O47286   1.428  -0.797   7.056 -0.4363  0.4847  0.1215
  351MOL0     C47287   1.394  -0.808   7.197 -0.0380  0.1839 -0.9358
  351MOL0     C47288   1.371  -0.683   7.280 -0.4798 -0.2532 -0.5787
  351MOL0     C47289   1.291  -0.695   7.414 -0.7805  0.3149 -0.4095
  351MOL0     C47290   1.327  -0.803   7.515 -0.6072  0.2733 -0.3178
  351MOL0     C47291   1.476  -0.807   7.575 -0.4745 -0.0057 -0.3021
  351MOL0     C47292   1.511  -0.915   7.683 -0.3115  1.0009  0.0754
  351MOL0     C47293   1.663  -0.914   7.706 -0.3766  0.8507  0.2891
  351MOL0     C47294   1.682  -0.999   7.837  0.6403  0.0267  0.4502
  351MOL0    Cl47295   1.856  -0.996   7.881 -0.2463  0.5222  0.3655
  351MOL0     C47296   1.667  -0.752   7.104  0.1756  0.2406 -0.1902
  351MOL0     C47297   1.778  -0.672   7.073  0.8318 -0.2012 -1.0546
  351MOL0     O47298   1.944  -0.783   6.827 -0.2179  0.7644 -0.2925
  351MOL0     C47299   2.139  -0.532   6.717  0.0406  0.5082 -1.6810
  351MOL0     C47300   2.270  -0.488   6.692  0.0759  0.5638  0.0377
  351MOL0     N47301   2.733  -0.212   7.280 -0.1241  0.6398 -0.7664
  351MOL0     N47302   2.802  -0.152   7.372  0.5365  0.1367 -0.4264
  351MOL0     C47303   3.890   0.632   7.696  0.4300 -0.5621  0.0478
  351MOL0     C47304   3.995   0.651   7.780  0.1647  0.0463 -0.5064
  351MOL0     C47305   4.270   0.465   8.110  0.3582  0.4309 -0.1678
  351MOL0     C47306   4.387   0.525   8.090 -0.4049  0.1687 -0.4416
  351MOL0     C47307   4.499   0.493   8.158 -1.0431  0.2876 -1.5197
  351MOL0     C47308   4.506   0.396   8.253  0.0236  0.7610 -0.9246
  351MOL0     O47309   4.622   0.357   8.321  0.4618  1.1253  0.5160
  351MOL0     C47310   4.753   0.396   8.268  0.2621  0.3387  0.5868
  351MOL0     C47311   4.871   0.304   8.319  0.0056 -0.1736  0.2944
  351MOL0     C47312   5.001   0.327   8.258 -0.6928  0.2826  0.6530
  351MOL0     C47313   5.083   0.206   8.298  0.6508  1.1473  0.1017
  351MOL0     C47314   5.225   0.228   8.280 -0.4709  0.7182  0.4027
  351MOL0     C47315   5.348   0.241   8.264 -0.1381 -0.3718  0.6694
  351MOL0     C47316   4.384   0.322   8.275 -0.0330 -0.6724  0.6030
  351MOL0     C47317   4.272   0.355   8.207  0.1883  0.8490  0.5453
  351MOL0     H47318   4.126   0.338   7.756 -1.0478 -2.2685 -3.7381
  351MOL0     H47319   3.931   0.313   7.599 -0.0011 -1.2274  1.2900
  351MOL0     H47320   3.643   0.448   7.379  0.2593 -1.4810 -1.2714
  351MOL0     H47321   3.802   0.395   7.394 -0.3704  0.8278 -1.6839
  351MOL0     H47322   3.719   0.249   7.584  0.3899  0.1153 -1.2964
  351MOL0     H47323   3.596   0.365   7.626  1.2074 -0.4727  0.7206
  351MOL0     H47324   3.481   0.313   7.382 -2.6390 -1.1570  0.9486
  351MOL0     H47325   3.595   0.184   7.374 -1.8210  1.0883 -1.9144
  351MOL0     H47326   3.483   0.097   7.591 -0.0117 -1.3168 -0.3733
  351MOL0     H47327   3.373   0.233   7.576 -0.3065  0.8789 -1.1988
  351MOL0     H47328   3.308   0.171   7.343  2.3631  0.5195 -0.8059
  351MOL0     H47329   3.417   0.026   7.360  1.3692  1.3884  0.0031
  351MOL0     H47330   3.274  -0.028   7.561  4.1180  1.6183 -0.6266
  351MOL0     H47331   3.170   0.109   7.528 -1.2060 -0.2756 -0.2735
  351MOL0     H47332   3.120   0.028   7.299 -1.2462 -0.2920  0.8125
  351MOL0     H47333   3.204  -0.123   7.314 -1.9050 -2.4410  1.0678
  351MOL0     H47334   3.003  -0.062   7.529 -1.5064 -2.4678  0.4909
  351MOL0     H47335   3.074  -0.208   7.483  2.5009  1.3419  1.2202
  351MOL0     H47336   3.034  -0.241   7.178 -0.4244  2.7332 -2.1590
  351MOL0     H47337   2.802  -0.261   6.975 -4.2917  3.1270  1.6286
  351MOL0     H47338   2.874  -0.405   7.053  1.5391  2.2106  0.6437
  351MOL0     H47339   2.575  -0.320   7.072  0.5169  0.0204  1.2916
  351MOL0     H47340   2.644  -0.456   7.162 -1.3658  1.1643  0.7684
  351MOL0     H47341   2.559  -0.558   6.969 -1.7871  1.4274  1.7320
  351MOL0     H47342   2.723  -0.523   6.896 -2.0730  0.2623 -2.8331
  351MOL0     H47343   2.626  -0.340   6.756 -0.9076 -0.1971 -0.6075
  351MOL0     H47344   2.477  -0.348   6.850 -1.1085 -1.6894  1.4369
  351MOL0     H47345   2.439  -0.726   6.861  0.0608 -0.1087 -1.2851
  351MOL0     H47346   2.217  -0.914   6.902  0.7369 -0.0629 -0.1027
  351MOL0     H47347   2.269  -0.828   7.048  2.4351 -0.3663 -1.3388
  351MOL0     H47348   2.105  -0.824   7.006  0.2189 -0.1399  0.9519
  351MOL0     H47349   1.680  -0.524   6.788 -1.3386  0.3202  0.7622
  351MOL0     H47350   1.465  -0.643   6.844  0.1400 -0.3665 -0.9658
  351MOL0     H47351   1.306  -0.872   7.199 -0.6573  0.7923  3.9757
  351MOL0     H47352   1.470  -0.861   7.256 -1.4222  2.8524  3.7586
  351MOL0     H47353   1.467  -0.631   7.287 -2.1299  3.5129 -2.8707
  351MOL0     H47354   1.309  -0.615   7.221  0.2175 -0.4349 -1.5346
  351MOL0     H47355   1.191  -0.719   7.377 -1.0325 -1.4845  1.2467
  351MOL0     H47356   1.284  -0.600   7.468 -0.4834  1.9111 -3.0218
  351MOL0     H47357   1.262  -0.794   7.602  0.8023 -1.9423  1.0660
  351MOL0     H47358   1.305  -0.897   7.465 -2.2564 -0.9337  2.4608
  351MOL0     H47359   1.497  -0.706   7.614 -0.2773 -0.4324  0.7342
  351MOL0     H47360   1.542  -0.822   7.490  0.6975 -1.0462  0.7495
  351MOL0     H47361   1.443  -0.902   7.767 -0.7617  0.5769 -0.2192
  351MOL0     H47362   1.487  -1.014   7.644  2.3717  0.2023  0.2040
  351MOL0     H47363   1.693  -0.809   7.719  2.1572 -0.0069  2.1964
  351MOL0     H47364   1.721  -0.955   7.623  4.2629  1.0876  3.0527
  351MOL0     H47365   1.659  -1.105   7.830 -0.9791  0.3579  0.5111
  351MOL0     H47366   1.622  -0.953   7.916  2.3325  0.1159  1.7518
  351MOL0     H47367   1.683  -0.818   7.189  1.9221  1.0808  0.1877
  351MOL0     H47368   1.865  -0.669   7.139  0.6895 -1.5804 -0.7560
  351MOL0     H47369   2.050  -0.497   6.666 -1.3442  0.7514  0.7521
  351MOL0     H47370   2.285  -0.410   6.618 -0.9698  0.5704 -0.1780
  351MOL0     H47371   3.837   0.724   7.673  1.1698 -0.3796 -0.9620
  351MOL0     H47372   4.021   0.747   7.825 -1.5668  0.0538  0.5402
  351MOL0     H47373   4.393   0.605   8.017  1.3010  1.4583  1.0088
  351MOL0     H47374   4.594   0.543   8.141  0.7862 -2.8870 -1.4873
  351MOL0     H47375   4.746   0.399   8.159  0.3991  0.7686  0.5887
  351MOL0     H47376   4.784   0.495   8.301 -0.5852 -0.3313  3.7807
  351MOL0     H47377   4.839   0.204   8.290 -3.2436  0.5076  1.0867
  351MOL0     H47378   4.870   0.302   8.429  1.0831  0.6617  0.3419
  351MOL0     H47379   5.051   0.414   8.302  1.3705 -0.9256  0.8411
  351MOL0     H47380   4.994   0.351   8.152 -0.9631  2.1732  1.0583
  351MOL0     H47381   5.053   0.120   8.237  0.3019  1.8072 -0.6851
  351MOL0     H47382   5.082   0.178   8.403 -6.1309 -1.7138 -0.2368
  351MOL0     H47383   5.454   0.232   8.257 -0.2523 -4.3210  1.1457
  351MOL0     H47384   4.377   0.239   8.345  0.0409  1.1978  2.9846
  351MOL0     H47385   4.184   0.291   8.213  0.8215 -0.2919 -1.4424
  352MOL0     O47386  10.482   3.797   6.604 -0.6334 -0.1516 -0.3465
  352MOL0     C47387  10.469   3.692   6.540  0.7027 -0.5366 -0.7756
  352MOL0     O47388  10.355   3.650   6.479  0.2708 -0.3533 -0.5548
  352MOL0     C47389  10.244   3.727   6.506 -0.2827 -0.2399 -0.8840
  352MOL0     C47390  10.134   3.672   6.570 -0.0940 -0.1588  0.7203
  352MOL0     C47391  10.014   3.731   6.584  0.0328 -0.0871  0.0377
  352MOL0     C47392   9.996   3.856   6.529 -0.2751  0.0440  0.8325
  352MOL0     O47393   9.877   3.915   6.522 -0.2365 -0.3325 -0.3423
  352MOL0     C47394   9.779   3.846   6.444  0.1995 -0.1401  0.1861
  352MOL0     C47395   9.628   3.875   6.484 -1.0734 -0.3169 -0.2197
  352MOL0     C47396   9.549   3.762   6.418  0.1410 -0.0716 -0.5903
  352MOL0     C47397   9.513   3.635   6.500 -0.2522 -0.6680 -0.8978
  352MOL0     C47398   9.408   3.672   6.604  0.5604  0.7557 -0.4286
  352MOL0     C47399   9.340   3.539   6.641 -0.4279 -0.2949  0.9997
  352MOL0     C47400   9.246   3.576   6.754  0.6506 -0.4231  0.2784
  352MOL0     C47401   9.219   3.466   6.852  0.1239  0.0198  0.5400
  352MOL0     N47402   9.131   3.516   6.965  0.6586 -0.2949 -0.2979
  352MOL0     C47403   8.995   3.537   6.947 -1.0678 -0.3157  0.0029
  352MOL0     C47404   8.949   3.581   7.067 -0.6308 -0.9866 -0.1984
  352MOL0     C47405   8.810   3.634   7.097  0.0399 -0.4682 -0.1907
  352MOL0     C47406   8.794   3.785   7.069 -0.0804 -1.2121  0.0217
  352MOL0     C47407   8.649   3.817   7.078  0.5153  0.5243  0.0719
  352MOL0     C47408   8.559   3.754   7.187  0.6834 -0.2573  0.3226
  352MOL0     O47409   8.435   3.814   7.195  0.1429 -0.0646 -0.0044
  352MOL0     C47410   8.342   3.736   7.263  0.5646 -0.2331  0.2728
  352MOL0     C47411   8.337   3.748   7.406  0.4535  0.1370 -0.2431
  352MOL0     C47412   8.236   3.672   7.479 -0.3511 -0.4200  0.3428
  352MOL0     C47413   8.211   3.712   7.621 -1.1540  0.0616 -0.2893
  352MOL0     C47414   8.147   3.587   7.393  0.0994  0.6017 -0.6754
  352MOL0     C47415   8.033   3.517   7.451  0.0746  0.4013 -0.6672
  352MOL0     O47416   7.948   3.454   7.369  0.5925 -0.2309  0.3379
  352MOL0     C47417   7.824   3.386   7.412 -0.2487 -0.0602  0.4286
  352MOL0     C47418   7.745   3.442   7.511  0.6987  0.0575 -0.6698
  352MOL0     C47419   7.631   3.375   7.547 -0.9327 -0.3183 -0.2446
  352MOL0     C47420   7.601   3.249   7.492 -0.1141  0.4647 -0.5461
  352MOL0     O47421   7.486   3.179   7.531  0.4169 -0.5469 -0.0321
  352MOL0     C47422   7.397   3.217   7.636  0.4536 -0.1871 -0.0190
  352MOL0     C47423   7.297   3.100   7.666 -0.2994 -0.6890  0.5761
  352MOL0     C47424   7.278   2.983   7.564  0.8629  0.5977 -0.0479
  352MOL0     C47425   7.165   2.890   7.604 -1.0986 -0.6318  0.5579
  352MOL0     C47426   7.127   2.777   7.509  0.3649  0.5320  1.2837
  352MOL0     C47427   7.133   2.807   7.355  0.7557 -0.1834 -0.0082
  352MOL0     C47428   7.088   2.688   7.271  0.1683 -0.1041  0.6153
  352MOL0     C47429   7.183   2.568   7.285 -0.8098  1.1826 -0.1546
  352MOL0    Cl47430   7.145   2.444   7.419  0.0883 -0.4338  0.3362
  352MOL0     C47431   7.677   3.204   7.385 -0.5948  0.3198  0.2292
  352MOL0     C47432   7.776   3.277   7.336 -0.1276  0.4495  0.7059
  352MOL0     O47433   8.024   3.508   7.580 -0.6772 -0.2646 -0.0017
  352MOL0     C47434   8.164   3.574   7.253  0.2675 -0.8558 -0.2711
  352MOL0     C47435   8.254   3.658   7.192 -0.1164  0.0257 -0.2753
  352MOL0     N47436   9.055   3.580   7.158  0.5114 -0.4406 -0.3410
  352MOL0     N47437   9.162   3.545   7.089 -0.2030 -0.0310 -0.6141
  352MOL0     C47438  10.112   3.918   6.479  0.4718  0.0983 -0.1447
  352MOL0     C47439  10.232   3.852   6.455  0.9642 -0.4223  0.9049
  352MOL0     C47440  10.588   3.607   6.537 -0.5195  0.9746  1.3609
  352MOL0     C47441  10.717   3.638   6.596 -0.2937  0.1976 -0.6650
  352MOL0     C47442  10.826   3.550   6.583 -0.1164  0.3856  0.4032
  352MOL0     C47443  10.813   3.428   6.524 -0.2884  0.1527 -0.8164
  352MOL0     O47444  10.905   3.328   6.510 -0.3052 -0.0226 -0.4065
  352MOL0     C47445  11.033   3.355   6.565 -0.1552 -0.0384 -0.1000
  352MOL0     C47446  11.105   3.212   6.565  0.4606  0.4298 -0.0710
  352MOL0     C47447  11.036   3.120   6.665  0.0777 -0.5882 -0.4612
  352MOL0     C47448  10.904   3.058   6.646 -0.3430 -0.1238 -0.8428
  352MOL0     C47449  10.857   2.982   6.763  0.2735 -0.6941  1.1752
  352MOL0     C47450  10.817   2.917   6.855 -0.0312  0.6524  1.0127
  352MOL0     C47451  10.687   3.389   6.475 -0.6369 -0.5050  0.2157
  352MOL0     C47452  10.583   3.484   6.472 -0.5843 -0.0612 -0.2536
  352MOL0     H47453  10.157   3.581   6.624 -0.1659 -1.5033 -1.3971
  352MOL0     H47454   9.935   3.696   6.649 -0.5042  2.0012  0.5756
  352MOL0     H47455   9.795   3.869   6.338  1.0871 -3.3846 -0.4620
  352MOL0     H47456   9.801   3.740   6.450 -2.0390 -0.7935 -1.6088
  352MOL0     H47457   9.620   3.879   6.593  1.9050  0.4208  0.0611
  352MOL0     H47458   9.589   3.961   6.429 -2.0197 -2.1879 -2.6940
  352MOL0     H47459   9.454   3.809   6.390 -1.2276 -1.0448  2.0772
  352MOL0     H47460   9.603   3.728   6.330 -0.9204  1.3651 -1.8482
  352MOL0     H47461   9.473   3.555   6.437 -0.9411 -1.4456  0.4875
  352MOL0     H47462   9.597   3.596   6.559 -0.3049  0.1523 -0.2638
  352MOL0     H47463   9.454   3.720   6.691  2.3890  1.2165 -1.6195
  352MOL0     H47464   9.334   3.745   6.567  0.7547  2.1194  1.6480
  352MOL0     H47465   9.294   3.503   6.549  0.4304 -0.7908  0.7628
  352MOL0     H47466   9.418   3.469   6.673  0.7301  0.0191 -0.9952
  352MOL0     H47467   9.272   3.670   6.802 -2.1378  2.2143 -2.8903
  352MOL0     H47468   9.150   3.601   6.708  0.6347  0.2493  0.6708
  352MOL0     H47469   9.317   3.436   6.890  0.3318  1.3813  1.1663
  352MOL0     H47470   9.183   3.376   6.804 -0.8931  1.4205 -1.4426
  352MOL0     H47471   8.944   3.542   6.851 -2.5253  0.5836  0.7766
  352MOL0     H47472   8.738   3.570   7.045  0.3737  0.9008 -2.4655
  352MOL0     H47473   8.783   3.617   7.202 -2.3931  0.2678 -0.6461
  352MOL0     H47474   8.834   3.800   6.969  0.0034 -0.8761  0.1048
  352MOL0     H47475   8.850   3.840   7.146  1.1735  1.4179 -2.5819
  352MOL0     H47476   8.608   3.772   6.987  0.3294 -0.1673  0.4895
  352MOL0     H47477   8.631   3.925   7.087 -1.5906  0.0269  4.5896
  352MOL0     H47478   8.615   3.776   7.278  2.2886  2.9260 -1.2787
  352MOL0     H47479   8.565   3.646   7.168  2.3385  0.0099 -0.8129
  352MOL0     H47480   8.413   3.802   7.462  3.2263 -3.9018  0.3564
  352MOL0     H47481   8.249   3.623   7.671  0.3060  1.8110  1.9233
  352MOL0     H47482   8.277   3.795   7.646 -0.4199 -0.8444  0.8388
  352MOL0     H47483   8.106   3.730   7.644 -0.7686  0.0372  1.6432
  352MOL0     H47484   7.760   3.546   7.537  0.0103  1.2371 -4.3931
  352MOL0     H47485   7.566   3.405   7.629 -2.2393 -1.2677 -0.9102
  352MOL0     H47486   7.451   3.252   7.725 -2.8515  0.4493  1.9225
  352MOL0     H47487   7.335   3.303   7.609  0.0815 -0.0172  1.2793
  352MOL0     H47488   7.329   3.067   7.766  2.6143  0.2543  0.0511
  352MOL0     H47489   7.199   3.148   7.669  0.6667  1.4415 -0.2478
  352MOL0     H47490   7.365   2.921   7.543 -1.5598 -2.7843 -0.9435
  352MOL0     H47491   7.251   3.028   7.468  1.7769 -0.9489 -1.0800
  352MOL0     H47492   7.192   2.846   7.700 -0.3111  0.5976  0.9154
  352MOL0     H47493   7.074   2.950   7.616 -0.8034 -0.3982  1.7829
  352MOL0     H47494   7.020   2.763   7.530  0.3323 -1.9605 -0.1655
  352MOL0     H47495   7.179   2.689   7.546 -0.5547  0.0439  1.4339
  352MOL0     H47496   7.066   2.888   7.323  0.0004  0.3613  2.6632
  352MOL0     H47497   7.235   2.833   7.328 -0.0336 -0.2769 -3.6421
  352MOL0     H47498   7.089   2.712   7.164  2.4057 -1.8386  0.1700
  352MOL0     H47499   6.987   2.653   7.296 -0.2206 -0.7250 -1.6211
  352MOL0     H47500   7.290   2.594   7.284 -0.3222 -0.6788 -1.3552
  352MOL0     H47501   7.177   2.507   7.195  0.9015 -3.3663  2.4463
  352MOL0     H47502   7.648   3.110   7.338  0.5458  0.2617 -0.4052
  352MOL0     H47503   7.843   3.247   7.256 -2.6782 -3.2567 -0.3029
  352MOL0     H47504   8.090   3.524   7.192 -0.6436 -2.5335  2.0263
  352MOL0     H47505   8.259   3.663   7.084  3.0976 -0.2143 -0.2407
  352MOL0     H47506  10.112   4.019   6.437  3.1727  1.1964  2.1661
  352MOL0     H47507  10.307   3.908   6.400 -0.7174  1.0904  0.0862
  352MOL0     H47508  10.721   3.738   6.638  1.3770  0.3986 -1.2604
  352MOL0     H47509  10.924   3.583   6.617  0.1874 -1.4933  1.4855
  352MOL0     H47510  11.076   3.415   6.485 -0.0908  1.5668  1.0944
  352MOL0     H47511  11.033   3.405   6.662 -1.3176 -0.8111  0.3262
  352MOL0     H47512  11.208   3.214   6.604 -0.0069  0.4595  1.2315
  352MOL0     H47513  11.107   3.172   6.464 -3.1150  0.5662 -0.3148
  352MOL0     H47514  11.037   3.172   6.762  0.2209  2.3120 -1.8966
  352MOL0     H47515  11.108   3.038   6.666  0.0847 -0.6514 -2.2155
  352MOL0     H47516  10.900   2.991   6.560 -1.5142 -1.6665  0.3594
  352MOL0     H47517  10.828   3.135   6.633  0.7596  1.3559  0.8892
  352MOL0     H47518  10.783   2.854   6.934  0.3052  0.8781  1.3400
  352MOL0     H47519  10.679   3.287   6.441  0.0622 -0.6398  0.4480
  352MOL0     H47520  10.488   3.445   6.435 -1.4041 -1.3477  2.8631
  353MOL0     O47521   8.595   6.712  10.765 -0.3946 -0.0744 -0.1438
  353MOL0     C47522   8.501   6.675  10.694  0.1727 -0.4535  1.3765
  353MOL0     O47523   8.492   6.682  10.560  0.1590  0.3687  0.4152
  353MOL0     C47524   8.382   6.628  10.491 -0.4183  0.5489  0.2427
  353MOL0     C47525   8.362   6.490  10.485  0.1353 -0.0520 -0.4834
  353MOL0     C47526   8.239   6.435  10.449 -1.0688 -0.3574 -1.1256
  353MOL0     C47527   8.140   6.521  10.402  0.1447 -1.2514 -0.2709
  353MOL0     O47528   8.016   6.486  10.354 -0.7485 -0.0691  0.4326
  353MOL0     C47529   7.977   6.358  10.395  0.0842  0.3072  0.8537
  353MOL0     C47530   7.833   6.340  10.358  0.4400 -0.6354  0.1906
  353MOL0     C47531   7.727   6.394  10.470 -0.3872  0.0167 -0.4229
  353MOL0     C47532   7.731   6.548  10.489  0.3314 -0.5329 -0.3558
  353MOL0     C47533   7.778   6.594  10.632  0.0839 -0.0907  0.9371
  353MOL0     C47534   7.790   6.738  10.650 -0.6317  0.0717  0.1998
  353MOL0     C47535   7.837   6.765  10.793 -0.7181  0.0890  0.0758
  353MOL0     C47536   7.863   6.915  10.800 -0.5104  0.6179  0.4443
  353MOL0     N47537   7.990   6.946  10.741 -0.3488 -0.6619 -0.4253
  353MOL0     C47538   8.006   6.996  10.612 -0.0226  0.7376 -0.3061
  353MOL0     C47539   8.129   7.043  10.598  0.7874  0.0589 -0.3824
  353MOL0     C47540   8.188   7.104  10.479  0.1939 -0.4787  0.2138
  353MOL0     C47541   8.078   7.190  10.402 -0.5694 -0.3096  0.6345
  353MOL0     C47542   8.137   7.279  10.291  0.5618  0.0344 -0.2672
  353MOL0     C47543   8.209   7.194  10.194 -0.1680  0.2020  0.4692
  353MOL0     O47544   8.235   7.288  10.088 -0.3493 -0.6335 -0.3524
  353MOL0     C47545   8.174   7.272   9.964  0.2285 -0.2426 -1.2774
  353MOL0     C47546   8.037   7.251   9.953 -0.0734 -0.0979  0.1291
  353MOL0     C47547   7.980   7.233   9.825  0.3319  0.5604  0.1278
  353MOL0     C47548   7.833   7.190   9.821 -0.4419 -0.3953  0.6882
  353MOL0     C47549   8.070   7.253   9.713 -0.1308 -0.0719  0.3330
  353MOL0     C47550   8.014   7.254   9.574 -0.8008 -0.4205  0.2225
  353MOL0     O47551   7.877   7.264   9.550 -0.5871 -0.0741  0.3571
  353MOL0     C47552   7.825   7.295   9.424 -0.5216  0.5793 -0.0262
  353MOL0     C47553   7.869   7.238   9.303 -0.0569 -0.0238  0.5789
  353MOL0     C47554   7.803   7.275   9.183 -0.3152 -0.2551  0.1586
  353MOL0     C47555   7.685   7.361   9.184 -1.0047  0.5968 -0.0856
  353MOL0     O47556   7.625   7.385   9.066 -0.7020 -0.6828  0.6702
  353MOL0     C47557   7.617   7.526   9.029 -0.0750  0.2822 -0.0503
  353MOL0     C47558   7.596   7.536   8.877  0.4721  0.0082  0.2728
  353MOL0     C47559   7.711   7.597   8.797  0.5439  0.5784 -0.7687
  353MOL0     C47560   7.809   7.498   8.753  1.0088 -0.3846  0.1870
  353MOL0     C47561   7.937   7.560   8.691  0.1090 -0.3377 -0.5540
  353MOL0     C47562   8.029   7.446   8.653  0.4080 -0.2116 -0.6790
  353MOL0     C47563   8.143   7.506   8.579 -0.7443 -0.1110 -0.4750
  353MOL0     C47564   8.230   7.392   8.523  0.2027 -0.3960  0.4403
  353MOL0    Cl47565   8.155   7.318   8.371  0.0408  0.2909 -0.2378
  353MOL0     C47566   7.654   7.422   9.307  0.5540 -0.4582 -0.6788
  353MOL0     C47567   7.720   7.385   9.422  0.2213 -0.3942  0.0684
  353MOL0     O47568   8.100   7.254   9.482 -0.2717 -0.2057 -0.1555
  353MOL0     C47569   8.211   7.278   9.736  0.2929 -0.3991 -0.0299
  353MOL0     C47570   8.255   7.299   9.860  0.7145 -1.3945  0.5057
  353MOL0     N47571   8.188   7.037  10.718 -0.1663 -0.1106  0.3811
  353MOL0     N47572   8.106   6.978  10.804 -0.2089  0.7814  0.1864
  353MOL0     C47573   8.157   6.664  10.401 -0.6271 -0.2012  0.1107
  353MOL0     C47574   8.278   6.715  10.450 -1.1062  0.0506 -0.1478
  353MOL0     C47575   8.401   6.597  10.765 -0.2286 -0.2491 -0.0684
  353MOL0     C47576   8.429   6.468  10.811 -0.8311 -0.1914  0.6551
  353MOL0     C47577   8.366   6.411  10.917  0.3228  0.8896 -0.1594
  353MOL0     C47578   8.256   6.466  10.977 -0.2307 -0.0152 -0.3167
  353MOL0     O47579   8.206   6.394  11.078 -0.3222 -0.9918 -0.2350
  353MOL0     C47580   8.081   6.443  11.123 -0.0055  0.0121  0.4778
  353MOL0     C47581   8.018   6.367  11.245  0.4770  0.1574 -0.1064
  353MOL0     C47582   7.892   6.449  11.297 -0.7535  0.2086  0.0706
  353MOL0     C47583   7.788   6.349  11.348  0.1721 -1.3392 -0.0197
  353MOL0     C47584   7.652   6.406  11.361  0.2553  0.1428 -0.5301
  353MOL0     C47585   7.537   6.453  11.362 -0.2652  0.4908 -1.1625
  353MOL0     C47586   8.219   6.591  10.929 -0.1224  0.2249 -0.4158
  353MOL0     C47587   8.291   6.655  10.829  0.0118 -0.7204 -0.6614
  353MOL0     H47588   8.444   6.433  10.526  2.9672  1.8950 -2.9921
  353MOL0     H47589   8.234   6.326  10.450 -1.4594 -0.3476  0.4661
  353MOL0     H47590   8.037   6.289  10.335 -1.3216 -0.9140  0.7962
  353MOL0     H47591   8.000   6.336  10.500  1.6059  2.6409  1.0718
  353MOL0     H47592   7.808   6.380  10.259  1.3378 -0.9197 -0.1620
  353MOL0     H47593   7.813   6.234  10.341  1.2577 -0.4841 -2.1513
  353MOL0     H47594   7.621   6.372  10.452 -0.6730  1.1456 -0.2235
  353MOL0     H47595   7.756   6.352  10.567 -0.8354 -0.9429 -0.7018
  353MOL0     H47596   7.792   6.605  10.418 -2.8445  0.9538 -2.0933
  353MOL0     H47597   7.629   6.586  10.477  0.5541 -0.4287 -2.2106
  353MOL0     H47598   7.708   6.557  10.707 -0.1881  0.5056  0.9801
  353MOL0     H47599   7.874   6.548  10.659  0.5820  0.6802  0.5153
  353MOL0     H47600   7.860   6.774  10.573 -0.2472  0.3267  0.6619
  353MOL0     H47601   7.694   6.784  10.624 -0.4523 -0.5458 -1.7202
  353MOL0     H47602   7.756   6.733  10.859 -1.0370  0.5479 -0.0872
  353MOL0     H47603   7.924   6.702  10.810 -1.3902 -0.1737  3.1055
  353MOL0     H47604   7.870   6.944  10.906  0.8433 -0.1428  0.5868
  353MOL0     H47605   7.774   6.955  10.752 -1.8573 -3.2244 -0.6308
  353MOL0     H47606   7.923   7.014  10.544  0.1612 -0.2779 -0.8270
  353MOL0     H47607   8.268   7.176  10.503  0.4082 -0.8366  0.5938
  353MOL0     H47608   8.240   7.027  10.421 -3.4596 -1.4737 -2.0331
  353MOL0     H47609   8.014   7.250  10.467 -2.0646 -1.2377  0.0730
  353MOL0     H47610   8.011   7.117  10.355  0.6251  1.0090 -3.5559
  353MOL0     H47611   8.197   7.353  10.345  0.4901 -1.8727  2.6829
  353MOL0     H47612   8.051   7.333  10.250 -0.3420 -0.1385  1.3106
  353MOL0     H47613   8.141   7.112  10.171  0.0190  0.4669 -1.1412
  353MOL0     H47614   8.308   7.157  10.222  0.2431  0.4013 -0.6616
  353MOL0     H47615   7.984   7.239  10.046 -2.9231  3.5546 -0.7869
  353MOL0     H47616   7.797   7.184   9.925  2.1759 -1.3301  1.6234
  353MOL0     H47617   7.770   7.266   9.775  0.8470 -0.7443 -1.7796
  353MOL0     H47618   7.827   7.092   9.772  4.0876 -0.2329 -0.5851
  353MOL0     H47619   7.960   7.179   9.299  1.1281  1.5294  2.5554
  353MOL0     H47620   7.831   7.236   9.086  0.1371  1.2692 -0.3591
  353MOL0     H47621   7.542   7.575   9.092 -1.2783 -1.8319  0.2381
  353MOL0     H47622   7.715   7.566   9.057  0.6280 -2.4785  1.9051
  353MOL0     H47623   7.558   7.446   8.829 -0.2321  1.4930 -2.0946
  353MOL0     H47624   7.510   7.603   8.864  1.4334  1.0086 -1.2609
  353MOL0     H47625   7.761   7.672   8.859 -2.2353  0.8716  1.2718
  353MOL0     H47626   7.667   7.651   8.712 -0.6406  0.8457 -0.0002
  353MOL0     H47627   7.835   7.438   8.841 -0.9992 -1.4161  0.1189
  353MOL0     H47628   7.753   7.438   8.680  1.2550 -1.1274  0.5898
  353MOL0     H47629   7.980   7.630   8.763 -2.8268 -2.4056  3.6284
  353MOL0     H47630   7.915   7.617   8.601  1.2126  1.0953  0.0467
  353MOL0     H47631   8.064   7.408   8.750 -2.5584  1.8255  1.3579
  353MOL0     H47632   7.976   7.369   8.596 -0.0611 -0.6667  0.3493
  353MOL0     H47633   8.204   7.567   8.646 -0.1334  0.1996 -1.3054
  353MOL0     H47634   8.106   7.573   8.501 -1.2459  0.8306  0.5347
  353MOL0     H47635   8.248   7.319   8.603  1.6108 -1.3037 -0.6678
  353MOL0     H47636   8.330   7.426   8.495  0.5189 -0.1014  1.8374
  353MOL0     H47637   7.576   7.498   9.309  0.5196 -0.2964  3.8511
  353MOL0     H47638   7.705   7.438   9.516  2.3869  0.8265 -0.1956
  353MOL0     H47639   8.280   7.289   9.653  0.4242  1.0134  0.2306
  353MOL0     H47640   8.360   7.325   9.849  0.1702 -0.4198 -5.9329
  353MOL0     H47641   8.074   6.728  10.376 -0.6116 -0.4690 -0.6376
  353MOL0     H47642   8.306   6.819  10.458  1.4045 -0.5385 -0.5109
  353MOL0     H47643   8.524   6.423  10.783 -0.9828  0.8090 -1.6580
  353MOL0     H47644   8.388   6.309  10.947  0.0130  0.6514 -0.7227
  353MOL0     H47645   8.078   6.546  11.161 -1.8551  0.8928 -1.8364
  353MOL0     H47646   8.007   6.438  11.042  1.5658  2.5797 -1.2620
  353MOL0     H47647   8.084   6.355  11.331 -0.5074  1.5250  0.8951
  353MOL0     H47648   7.993   6.262  11.227 -1.1792 -0.7438  5.4885
  353MOL0     H47649   7.857   6.500  11.207  2.8907 -0.7047 -2.0766
  353MOL0     H47650   7.920   6.509  11.384  0.2074 -0.1791  0.0344
  353MOL0     H47651   7.825   6.299  11.439  1.0003 -0.2554  0.2611
  353MOL0     H47652   7.779   6.269  11.275  0.4141 -1.3492 -0.0407
  353MOL0     H47653   7.439   6.488  11.386 -2.7572 -4.3075 -2.9706
  353MOL0     H47654   8.133   6.642  10.971 -1.4860 -0.0044 -2.7621
  353MOL0     H47655   8.252   6.750  10.794  1.3486  1.1873  2.6024
  354MOL0     O47656   0.527  10.801   8.270 -0.1865  0.3664 -0.6687
  354MOL0     C47657   0.464  10.868   8.182 -1.1028 -0.6650 -1.0579
  354MOL0     O47658   0.331  10.887   8.170  0.2728  0.4770  0.1294
  354MOL0     C47659   0.241  10.830   8.260 -0.7414 -1.2804 -0.7671
  354MOL0     C47660   0.151  10.918   8.321  0.5684  0.1160 -0.7427
  354MOL0     C47661   0.079  10.877   8.436 -0.3389 -0.9241  0.3028
  354MOL0     C47662   0.110  10.759   8.500 -0.7592  1.0242 -0.9658
  354MOL0     O47663   0.040  10.736   8.612 -0.2538  0.2801  0.3122
  354MOL0     C47664   0.021  10.612   8.674  0.3362  0.1062  0.0655
  354MOL0     C47665  -0.042  10.636   8.815 -0.0683 -0.1871  0.3473
  354MOL0     C47666  -0.179  10.702   8.804  0.2963 -0.0869  1.1496
  354MOL0     C47667  -0.254  10.717   8.940 -0.2542 -0.3219  0.9774
  354MOL0     C47668  -0.284  10.579   9.006 -0.1199  0.2585 -1.3297
  354MOL0     C47669  -0.378  10.585   9.132 -0.3513  0.6526  0.3510
  354MOL0     C47670  -0.393  10.437   9.191 -0.4572  0.2156  0.5217
  354MOL0     C47671  -0.522  10.433   9.288 -0.2919  0.6163  0.5107
  354MOL0     N47672  -0.590  10.298   9.269  0.8012 -0.3394  0.3915
  354MOL0     C47673  -0.723  10.284   9.221 -0.0384 -0.3944 -0.4315
  354MOL0     C47674  -0.741  10.148   9.224  0.2050 -0.5337  0.7815
  354MOL0     C47675  -0.851  10.065   9.161 -0.4694  0.4706 -0.0346
  354MOL0     C47676  -0.977  10.085   9.228 -0.3634  0.1868 -0.3662
  354MOL0     C47677  -1.086   9.984   9.191  0.0920 -0.5413 -0.8284
  354MOL0     C47678  -1.201   9.969   9.283  0.2527 -0.5017 -0.8349
  354MOL0     O47679  -1.311   9.905   9.213  0.0883  0.1684 -0.1589
  354MOL0     C47680  -1.422   9.864   9.284 -0.3469 -1.1486 -0.0078
  354MOL0     C47681  -1.455   9.877   9.421  0.2696  0.2467  0.4560
  354MOL0     C47682  -1.573   9.815   9.478 -0.1869 -0.2686  1.1698
  354MOL0     C47683  -1.593   9.845   9.620 -0.0291  0.7462  0.3459
  354MOL0     C47684  -1.669   9.741   9.398  0.4408 -0.2323  0.0167
  354MOL0     C47685  -1.794   9.678   9.439  0.1191 -0.0899  0.4962
  354MOL0     O47686  -1.852   9.723   9.554  0.1913 -0.2430 -0.6810
  354MOL0     C47687  -1.986   9.739   9.568 -0.0573 -0.2965 -0.9626
  354MOL0     C47688  -2.042   9.736   9.701 -0.4734  0.1250  0.0189
  354MOL0     C47689  -2.181   9.750   9.728 -0.6917 -0.3867  0.3263
  354MOL0     C47690  -2.268   9.778   9.621  0.6460 -1.0430  0.5857
  354MOL0     O47691  -2.401   9.806   9.641  0.1214 -0.4456  0.5314
  354MOL0     C47692  -2.452   9.836   9.770  0.1238  0.0194  0.5644
  354MOL0     C47693  -2.610   9.837   9.763 -0.9697  0.3863  0.4757
  354MOL0     C47694  -2.678   9.943   9.668 -0.0493 -0.2208 -0.6847
  354MOL0     C47695  -2.828   9.913   9.650 -0.3696  0.1269  0.4239
  354MOL0     C47696  -2.898  10.009   9.551  0.7290 -0.0622 -0.0717
  354MOL0     C47697  -2.845  10.155   9.551  0.3471  0.3339  0.9708
  354MOL0     C47698  -2.949  10.247   9.493  1.3020 -0.7567 -0.0771
  354MOL0     C47699  -2.927  10.399   9.519  0.5880 -0.0087 -0.0647
  354MOL0    Cl47700  -2.779  10.460   9.435  0.2267 -0.0640  0.1326
  354MOL0     C47701  -2.217   9.780   9.487 -0.2440 -0.9131 -0.0817
  354MOL0     C47702  -2.081   9.763   9.463 -0.2670 -0.4193 -0.2152
  354MOL0     O47703  -1.848   9.606   9.351 -0.3811  0.4773 -0.1333
  354MOL0     C47704  -1.633   9.741   9.260  0.6214  0.7584 -0.6751
  354MOL0     C47705  -1.509   9.796   9.218  0.7780  1.3951 -0.1547
  354MOL0     N47706  -0.629  10.093   9.288 -0.3330  0.2169 -0.2673
  354MOL0     N47707  -0.534  10.177   9.301  0.4146 -0.1796 -0.4168
  354MOL0     C47708   0.190  10.666   8.435  0.3675 -0.3799  0.9485
  354MOL0     C47709   0.258  10.700   8.319  0.4197  0.2051 -0.5067
  354MOL0     C47710   0.539  10.945   8.085 -0.3033  0.9899 -1.1669
  354MOL0     C47711   0.479  11.031   7.993 -0.9167 -1.1939 -0.1212
  354MOL0     C47712   0.559  11.137   7.936 -0.0621 -0.2869 -0.3272
  354MOL0     C47713   0.699  11.120   7.931 -0.6006  0.1225 -0.2149
  354MOL0     O47714   0.780  11.188   7.848  0.1969 -0.1357  0.4322
  354MOL0     C47715   0.725  11.301   7.794  0.3462  0.5150  1.2042
  354MOL0     C47716   0.829  11.393   7.735  0.0400 -1.1999  0.2093
  354MOL0     C47717   0.938  11.445   7.831  0.5613  0.0270  0.0293
  354MOL0     C47718   1.036  11.533   7.746  0.1649  0.2245  0.2362
  354MOL0     C47719   1.124  11.458   7.661 -0.2656 -0.2265 -0.5482
  354MOL0     C47720   1.208  11.384   7.606  0.3643 -0.1091 -0.3757
  354MOL0     C47721   0.752  11.015   8.004 -0.4557 -0.0355 -0.4465
  354MOL0     C47722   0.677  10.933   8.089 -0.1486 -0.3608  1.7561
  354MOL0     H47723   0.128  11.014   8.276 -0.9261  0.2542  0.2266
  354MOL0     H47724  -0.001  10.935   8.481  1.9211  1.1117  1.9265
  354MOL0     H47725  -0.059  10.566   8.615 -0.4203  1.5445 -0.0931
  354MOL0     H47726   0.115  10.558   8.685  1.2861  1.6452 -0.1890
  354MOL0     H47727  -0.053  10.536   8.859  1.2295 -0.7476 -0.5569
  354MOL0     H47728   0.019  10.693   8.886 -2.9276  1.1011  1.9550
  354MOL0     H47729  -0.162  10.796   8.751 -1.8014 -1.4381 -2.2273
  354MOL0     H47730  -0.249  10.658   8.732 -1.5262  2.2197  1.3839
  354MOL0     H47731  -0.193  10.780   9.006  3.5523 -1.6725 -0.9757
  354MOL0     H47732  -0.350  10.764   8.916 -0.4537 -0.8249  0.7847
  354MOL0     H47733  -0.323  10.519   8.924 -2.9643  1.9103 -1.3215
  354MOL0     H47734  -0.194  10.526   9.038 -0.0213 -0.4357 -2.6750
  354MOL0     H47735  -0.334  10.652   9.207 -1.4317  3.3024 -1.2195
  354MOL0     H47736  -0.473  10.632   9.107  0.5880  3.4573  1.6467
  354MOL0     H47737  -0.410  10.363   9.113  0.9966 -1.3104  1.6047
  354MOL0     H47738  -0.301  10.402   9.237  0.8089  2.2857 -0.2819
  354MOL0     H47739  -0.594  10.513   9.270  0.9453  1.6617  0.0747
  354MOL0     H47740  -0.502  10.432   9.395 -2.6371 -1.5862  1.0377
  354MOL0     H47741  -0.788  10.361   9.179  4.0330  3.0791 -1.0969
  354MOL0     H47742  -0.855  10.102   9.058  1.5286 -0.5590 -0.5415
  354MOL0     H47743  -0.813   9.962   9.161  0.7934  0.7099 -4.5564
  354MOL0     H47744  -1.009  10.189   9.216  2.6676  1.7862  3.1724
  354MOL0     H47745  -0.949  10.073   9.333  1.7309 -1.1061 -1.0112
  354MOL0     H47746  -1.044   9.883   9.178  1.4325 -0.4152  1.9065
  354MOL0     H47747  -1.122  10.027   9.097 -0.3376  1.0870  0.0483
  354MOL0     H47748  -1.240  10.063   9.324  0.0399 -2.3681  3.7109
  354MOL0     H47749  -1.169   9.905   9.366  0.6361 -0.4536 -0.9416
  354MOL0     H47750  -1.377   9.933   9.472  0.1591  1.4743 -0.6629
  354MOL0     H47751  -1.682   9.905   9.642 -0.4646  0.6681 -1.1069
  354MOL0     H47752  -1.605   9.747   9.666 -1.8453  0.5014 -0.5693
  354MOL0     H47753  -1.506   9.891   9.668  1.1548 -1.0792  0.0339
  354MOL0     H47754  -1.979   9.722   9.788  1.0359  0.8240 -0.9169
  354MOL0     H47755  -2.216   9.741   9.830  1.0479  2.7381  1.3381
  354MOL0     H47756  -2.417   9.773   9.852 -0.1515  1.0094  1.4728
  354MOL0     H47757  -2.419   9.940   9.777 -0.5882  0.2314  0.8186
  354MOL0     H47758  -2.642   9.739   9.726 -0.0984  1.3421 -3.1847
  354MOL0     H47759  -2.635   9.846   9.869  1.5990 -0.7789  1.2671
  354MOL0     H47760  -2.631   9.943   9.569 -1.9664 -0.0858 -1.6284
  354MOL0     H47761  -2.665  10.038   9.721  0.3395 -0.5569 -0.1575
  354MOL0     H47762  -2.829   9.810   9.615  0.7752  0.7094 -1.4455
  354MOL0     H47763  -2.885   9.918   9.743  0.9247 -4.4508  1.7316
  354MOL0     H47764  -3.006  10.000   9.563  0.9339 -0.6827  1.6459
  354MOL0     H47765  -2.865   9.963   9.458 -0.0436  0.0500 -0.4032
  354MOL0     H47766  -2.815  10.181   9.652  1.0805  0.0987  0.8234
  354MOL0     H47767  -2.756  10.162   9.488 -1.0716  3.8599 -0.9548
  354MOL0     H47768  -3.047  10.211   9.525  1.4478  0.4024  1.7830
  354MOL0     H47769  -2.957  10.230   9.385 -3.0473  1.3564 -0.3424
  354MOL0     H47770  -2.898  10.417   9.623 -0.8003 -3.0459  0.9723
  354MOL0     H47771  -3.015  10.458   9.492  0.4965 -0.9863 -2.0700
  354MOL0     H47772  -2.279   9.796   9.400  2.1408  2.5371 -1.3565
  354MOL0     H47773  -2.044   9.754   9.362  1.1838  0.5802  0.2018
  354MOL0     H47774  -1.696   9.697   9.183 -1.6383 -0.9368  1.9416
  354MOL0     H47775  -1.488   9.784   9.112 -1.2719  3.1850 -0.8310
  354MOL0     H47776   0.199  10.571   8.485 -0.3286 -0.4485  0.9499
  354MOL0     H47777   0.329  10.632   8.273  0.7255  0.6095 -0.6420
  354MOL0     H47778   0.371  11.040   7.995 -0.7828  1.4023 -0.3247
  354MOL0     H47779   0.501  11.212   7.884 -0.4289 -1.5524 -1.8499
  354MOL0     H47780   0.661  11.272   7.710  1.2298 -1.7836  1.2753
  354MOL0     H47781   0.663  11.359   7.863  1.1673  1.8731  0.8348
  354MOL0     H47782   0.776  11.477   7.689 -0.6060 -1.3365  0.7020
  354MOL0     H47783   0.877  11.341   7.651 -1.9883  0.0260 -1.8448
  354MOL0     H47784   0.983  11.364   7.890  0.4345  0.2058  0.3737
  354MOL0     H47785   0.888  11.507   7.905 -1.6978  1.9186 -2.8257
  354MOL0     H47786   1.106  11.585   7.813  0.1825  0.5850 -0.0561
  354MOL0     H47787   0.978  11.607   7.690  0.5471 -0.0726 -0.5655
  354MOL0     H47788   1.287  11.322   7.568 -0.4694  0.3048 -2.9595
  354MOL0     H47789   0.860  11.002   8.010 -0.1798  2.0896 -0.3461
  354MOL0     H47790   0.724  10.865   8.160 -1.0826  0.9543  3.7333
  355MOL0     O47791   6.376   1.277   6.237  0.2890 -0.3361  0.2086
  355MOL0     C47792   6.380   1.399   6.220 -0.2086  0.2722  0.0409
  355MOL0     O47793   6.280   1.469   6.164 -0.3307 -0.0562 -0.7263
  355MOL0     C47794   6.164   1.408   6.134 -0.8015  0.3466  0.3929
  355MOL0     C47795   6.053   1.457   6.201 -0.1399 -0.5909 -0.0504
  355MOL0     C47796   5.929   1.422   6.163  0.0309 -0.9540  0.0204
  355MOL0     C47797   5.905   1.337   6.056  0.8764 -0.2160 -0.2810
  355MOL0     O47798   5.775   1.295   6.026 -0.4320  0.8293 -0.2277
  355MOL0     C47799   5.676   1.391   6.041 -0.3527  0.1538 -0.6189
  355MOL0     C47800   5.549   1.354   5.966  1.0595 -0.2278  0.8157
  355MOL0     C47801   5.483   1.230   6.026 -0.9135 -1.0121 -0.5262
  355MOL0     C47802   5.341   1.185   5.976  0.0930  0.1554  0.2576
  355MOL0     C47803   5.294   1.059   6.041  0.8027 -0.0415  0.1760
  355MOL0     C47804   5.184   0.990   5.954 -0.2919  0.9830  0.0023
  355MOL0     C47805   5.128   0.858   6.028 -1.3487 -1.1269  0.4615
  355MOL0     C47806   5.040   0.782   5.925  0.4250  0.2251 -0.0380
  355MOL0     N47807   4.943   0.686   5.978  0.2679  0.7362  0.2245
  355MOL0     C47808   4.981   0.560   6.032 -0.2559 -0.5649 -0.0617
  355MOL0     C47809   4.856   0.503   6.042 -0.7682  0.2830 -0.3744
  355MOL0     C47810   4.841   0.365   6.102 -0.1974 -0.1020  0.0771
  355MOL0     C47811   4.812   0.255   6.000  1.0716 -0.2540  0.2413
  355MOL0     C47812   4.677   0.281   5.926  0.2779 -0.1681 -0.3126
  355MOL0     C47813   4.550   0.219   5.973 -0.2660  0.2031 -0.2221
  355MOL0     O47814   4.450   0.263   5.879  0.5336  0.3230 -0.2529
  355MOL0     C47815   4.347   0.179   5.853 -1.0722 -0.1834 -0.1087
  355MOL0     C47816   4.271   0.197   5.738 -0.0098  0.1908 -0.4661
  355MOL0     C47817   4.148   0.137   5.716 -0.2911  0.3849  0.7044
  355MOL0     C47818   4.061   0.181   5.601  0.3873  0.1805 -0.4524
  355MOL0     C47819   4.112   0.032   5.798 -0.8135 -0.2313 -0.5667
  355MOL0     C47820   3.979  -0.040   5.784 -0.1686  0.0161  0.0001
  355MOL0     O47821   3.905  -0.070   5.897  0.0508 -0.2234 -0.4663
  355MOL0     C47822   3.788  -0.126   5.867  0.0356  0.0419  0.0761
  355MOL0     C47823   3.685  -0.046   5.864 -0.3434 -0.1937  0.1214
  355MOL0     C47824   3.557  -0.096   5.843 -0.2077  1.1321 -1.0222
  355MOL0     C47825   3.531  -0.231   5.829 -0.2557 -0.4355 -0.9506
  355MOL0     O47826   3.411  -0.288   5.798 -0.1374  0.5528  0.2579
  355MOL0     C47827   3.282  -0.230   5.810  0.3491 -1.2505  0.3046
  355MOL0     C47828   3.179  -0.325   5.767  0.7346  0.4100 -0.9483
  355MOL0     C47829   3.160  -0.440   5.856  1.2126  0.7010 -1.3491
  355MOL0     C47830   3.087  -0.395   5.995 -0.4840  0.0551  0.8524
  355MOL0     C47831   2.926  -0.393   5.980 -0.4712  0.0417  1.0611
  355MOL0     C47832   2.854  -0.530   5.967  1.1534 -0.2749  1.1014
  355MOL0     C47833   2.863  -0.625   6.093 -0.1583  0.5916 -0.1638
  355MOL0     C47834   2.814  -0.767   6.072 -0.1960 -0.4743 -0.0535
  355MOL0    Cl47835   2.638  -0.775   6.088 -0.1207 -0.0547 -0.3911
  355MOL0     C47836   3.639  -0.315   5.834  1.0283  0.5422  0.4017
  355MOL0     C47837   3.766  -0.265   5.864 -0.3229 -0.7638  1.5667
  355MOL0     O47838   3.946  -0.071   5.673  0.6561 -0.2788  0.6047
  355MOL0     C47839   4.189  -0.003   5.903  0.5274  0.7065 -0.3788
  355MOL0     C47840   4.302   0.073   5.936  0.6915  0.0699 -0.5628
  355MOL0     N47841   4.750   0.590   6.011 -0.7129  0.0113  0.5022
  355MOL0     N47842   4.804   0.699   5.968 -0.0097  0.1785 -0.4299
  355MOL0     C47843   6.017   1.287   5.990  0.2872 -0.2349 -0.4442
  355MOL0     C47844   6.152   1.324   6.028 -0.5746 -0.0586 -0.2558
  355MOL0     C47845   6.499   1.467   6.268  0.0290 -0.3339 -0.1859
  355MOL0     C47846   6.533   1.593   6.207  0.4752  0.6817 -0.9487
  355MOL0     C47847   6.643   1.657   6.261 -0.7923  0.1962  0.3330
  355MOL0     C47848   6.719   1.605   6.366 -0.4945 -0.1792  0.0103
  355MOL0     O47849   6.807   1.696   6.413  0.1003 -0.1703  0.8619
  355MOL0     C47850   6.885   1.648   6.521  0.1460  0.3433 -0.4182
  355MOL0     C47851   7.017   1.584   6.468 -0.4332  0.2820  0.6527
  355MOL0     C47852   7.099   1.680   6.384  0.2649 -0.1809  0.2855
  355MOL0     C47853   7.240   1.627   6.351  0.3454 -0.0454 -0.0198
  355MOL0     C47854   7.322   1.595   6.469  0.3881  0.0566 -0.6865
  355MOL0     C47855   7.398   1.563   6.565  0.2798 -0.6450  0.0866
  355MOL0     C47856   6.683   1.481   6.426 -0.2478 -0.0844 -0.3848
  355MOL0     C47857   6.576   1.410   6.375  0.1879 -0.7614 -0.4615
  355MOL0     H47858   6.064   1.518   6.291  0.8341 -1.1872  0.2564
  355MOL0     H47859   5.843   1.459   6.219 -0.1841  0.4423 -1.1655
  355MOL0     H47860   5.641   1.401   6.144 -0.1439  0.2442 -0.5571
  355MOL0     H47861   5.710   1.489   6.009  0.3327 -0.2239 -1.0666
  355MOL0     H47862   5.473   1.432   5.982  0.1866 -0.4048 -1.9220
  355MOL0     H47863   5.572   1.346   5.860  1.0329  2.3261  0.5449
  355MOL0     H47864   5.562   1.154   6.015 -0.1281 -0.1399 -1.0221
  355MOL0     H47865   5.488   1.248   6.134  0.4358 -1.4026 -0.5054
  355MOL0     H47866   5.259   1.256   5.990 -1.3087 -1.0168 -1.5927
  355MOL0     H47867   5.345   1.165   5.869  0.5676 -0.4987  0.3922
  355MOL0     H47868   5.377   0.988   6.046  0.2918 -0.5462  2.7146
  355MOL0     H47869   5.252   1.085   6.139 -3.3476 -0.0223 -1.4222
  355MOL0     H47870   5.101   1.058   5.930 -0.2925  0.4985 -1.4214
  355MOL0     H47871   5.218   0.967   5.853 -2.0987  0.3435 -0.4907
  355MOL0     H47872   5.210   0.797   6.065 -0.3990 -0.3781 -0.3441
  355MOL0     H47873   5.069   0.879   6.118 -1.8192 -1.5057  0.2425
  355MOL0     H47874   5.108   0.733   5.854  0.5417  1.0285 -0.4987
  355MOL0     H47875   4.988   0.851   5.858  2.5501  0.3028 -1.7363
  355MOL0     H47876   5.080   0.519   6.045  0.3289  0.6588 -0.4484
  355MOL0     H47877   4.932   0.346   6.160  0.7086  0.8751 -0.9614
  355MOL0     H47878   4.756   0.362   6.170 -0.0845 -1.9506  0.1776
  355MOL0     H47879   4.800   0.158   6.049 -0.3101 -0.3317 -0.2041
  355MOL0     H47880   4.893   0.249   5.927  0.1533  1.6483 -1.0425
  355MOL0     H47881   4.692   0.245   5.824 -0.3173  1.1297 -0.8788
  355MOL0     H47882   4.648   0.385   5.911 -0.3049 -0.3281 -0.3206
  355MOL0     H47883   4.523   0.255   6.073  0.1059 -2.3363  0.8791
  355MOL0     H47884   4.556   0.110   5.982 -1.8476  0.2119  2.0258
  355MOL0     H47885   4.311   0.267   5.666  0.6297  1.7423  1.3100
  355MOL0     H47886   4.105   0.274   5.563  3.7258 -0.6079  1.0958
  355MOL0     H47887   4.055   0.113   5.515 -0.9820  0.8565 -0.9216
  355MOL0     H47888   3.966   0.208   5.647  0.6946  1.5706 -0.5927
  355MOL0     H47889   3.702   0.061   5.867  0.9253 -0.3929  0.5319
  355MOL0     H47890   3.478  -0.022   5.836  0.2509  1.6729 -0.5413
  355MOL0     H47891   3.269  -0.200   5.915  0.8371  1.7821 -0.3896
  355MOL0     H47892   3.283  -0.140   5.748 -0.5897 -0.7989  0.9353
  355MOL0     H47893   3.080  -0.283   5.745 -0.8947 -1.9814  1.2109
  355MOL0     H47894   3.224  -0.371   5.679  1.1038  0.2841 -0.6958
  355MOL0     H47895   3.253  -0.492   5.880  0.7668 -0.4657 -2.0325
  355MOL0     H47896   3.098  -0.513   5.803 -0.8652  0.6694  0.9715
  355MOL0     H47897   3.122  -0.450   6.083 -0.5023  2.0534  2.1649
  355MOL0     H47898   3.110  -0.290   6.016  1.8282 -0.2826  0.2527
  355MOL0     H47899   2.900  -0.338   5.889 -2.1782 -0.8045  1.0074
  355MOL0     H47900   2.889  -0.333   6.064  0.8015  2.6935 -0.1472
  355MOL0     H47901   2.748  -0.514   5.949  1.9024  1.6732 -2.7685
  355MOL0     H47902   2.894  -0.571   5.873  0.5261 -0.7709  1.0446
  355MOL0     H47903   2.812  -0.579   6.179  0.7029 -0.8469  1.1712
  355MOL0     H47904   2.968  -0.623   6.126 -0.3372 -1.9195  0.7718
  355MOL0     H47905   2.863  -0.822   6.152 -0.6168  2.4716  2.3921
  355MOL0     H47906   2.844  -0.822   5.982 -2.1950 -2.3857  0.3626
  355MOL0     H47907   3.631  -0.424   5.836 -2.7598  0.6897  1.0152
  355MOL0     H47908   3.847  -0.337   5.864 -0.1348 -0.6458 -1.0050
  355MOL0     H47909   4.158  -0.089   5.962  0.9391 -1.0615 -2.5871
  355MOL0     H47910   4.350   0.049   6.030  0.5097 -2.8804 -1.1037
  355MOL0     H47911   6.000   1.216   5.910 -0.7980 -0.5152  0.0254
  355MOL0     H47912   6.237   1.288   5.971 -0.3060 -1.2561  0.8665
  355MOL0     H47913   6.472   1.633   6.128 -2.9133  0.4536  1.3517
  355MOL0     H47914   6.679   1.742   6.204  1.1411 -0.0323  1.1229
  355MOL0     H47915   6.907   1.736   6.582 -0.0633  1.4788 -1.9230
  355MOL0     H47916   6.841   1.577   6.591  2.6142 -0.4724  0.4050
  355MOL0     H47917   7.005   1.489   6.415  3.5180 -1.8953  3.1384
  355MOL0     H47918   7.083   1.553   6.550  0.3643 -3.0193 -1.0573
  355MOL0     H47919   7.111   1.773   6.440 -1.0132 -0.4004  0.9453
  355MOL0     H47920   7.038   1.699   6.295 -0.5730 -0.7649  0.7238
  355MOL0     H47921   7.298   1.698   6.292  4.1982 -1.9690  1.1542
  355MOL0     H47922   7.243   1.537   6.288  1.4449 -0.1305  0.1390
  355MOL0     H47923   7.438   1.504   6.645 -1.2324  0.2536  1.5562
  355MOL0     H47924   6.749   1.435   6.500 -0.1480 -1.8795 -1.5090
  355MOL0     H47925   6.550   1.324   6.437  0.6317 -0.9960 -0.6023
  356MOL0     O47926   0.919   7.145   4.518 -0.3819  0.0794 -0.2240
  356MOL0     C47927   0.905   7.108   4.632  0.6801  0.3912  0.0734
  356MOL0     O47928   0.784   7.084   4.683 -0.0947  0.2866 -0.2950
  356MOL0     C47929   0.657   7.117   4.621 -0.0551 -0.1001 -0.3027
  356MOL0     C47930   0.553   7.056   4.687  1.0551 -0.3317 -0.2484
  356MOL0     C47931   0.426   7.076   4.644  0.3275 -0.9342  0.5566
  356MOL0     C47932   0.398   7.146   4.532 -1.1132 -0.9772  0.3225
  356MOL0     O47933   0.269   7.184   4.484  0.5092 -0.0064 -0.1143
  356MOL0     C47934   0.152   7.122   4.536 -0.0404  0.6593 -0.4556
  356MOL0     C47935   0.023   7.200   4.490 -0.2898  0.6354 -0.3090
  356MOL0     C47936  -0.109   7.160   4.557 -0.0638 -0.6874 -0.7928
  356MOL0     C47937  -0.125   7.207   4.700 -0.1214 -0.4590 -0.0890
  356MOL0     C47938  -0.268   7.190   4.742 -0.1647  0.6038  0.4524
  356MOL0     C47939  -0.353   7.307   4.697  0.3150 -1.0725 -0.2951
  356MOL0     C47940  -0.508   7.287   4.746 -0.1848  0.2591  2.0855
  356MOL0     C47941  -0.531   7.265   4.897  0.1439  0.5586 -0.6918
  356MOL0     N47942  -0.668   7.234   4.938 -0.1034  0.6689 -0.5494
  356MOL0     C47943  -0.724   7.119   4.912  0.3117  0.4780 -0.4644
  356MOL0     C47944  -0.842   7.121   4.973  0.0614  0.1417  0.4556
  356MOL0     C47945  -0.935   7.000   4.984  0.5973  0.0804 -0.1522
  356MOL0     C47946  -1.053   7.034   5.077  0.2500  0.0169  0.2941
  356MOL0     C47947  -1.165   6.923   5.072  0.1243 -0.1709  0.0292
  356MOL0     C47948  -1.305   6.972   5.111 -0.3479  0.9719  0.4398
  356MOL0     O47949  -1.401   6.856   5.075 -0.1186  0.1175  0.6398
  356MOL0     C47950  -1.540   6.874   5.082  0.4680 -0.7386  0.4728
  356MOL0     C47951  -1.606   6.974   5.148 -1.2031 -0.2317  0.2685
  356MOL0     C47952  -1.738   7.003   5.120 -0.2367 -0.3818  0.3181
  356MOL0     C47953  -1.788   7.135   5.154  0.0515 -0.8258 -0.3364
  356MOL0     C47954  -1.817   6.914   5.037 -0.3786  0.9929 -0.1256
  356MOL0     C47955  -1.949   6.936   4.976  0.3397  0.6430 -0.2927
  356MOL0     O47956  -1.992   6.863   4.860 -0.2554  0.0818  0.0647
  356MOL0     C47957  -2.118   6.893   4.824 -0.3922  0.5552 -0.0345
  356MOL0     C47958  -2.228   6.816   4.881 -0.5767 -0.1811 -0.0473
  356MOL0     C47959  -2.360   6.831   4.839 -0.9697  0.4941  0.2439
  356MOL0     C47960  -2.393   6.928   4.739 -0.1838 -0.0976 -0.8200
  356MOL0     O47961  -2.527   6.944   4.698 -0.9012 -0.7908  0.2436
  356MOL0     C47962  -2.549   7.053   4.597  0.0985  0.2128  0.2931
  356MOL0     C47963  -2.686   7.053   4.540 -0.3530  0.2096 -0.2610
  356MOL0     C47964  -2.805   7.051   4.636  0.0075 -0.2031  0.1450
  356MOL0     C47965  -2.934   7.111   4.582 -0.3626  0.8841 -0.7179
  356MOL0     C47966  -2.988   7.012   4.477  0.7260  0.2754 -0.3072
  356MOL0     C47967  -3.122   7.062   4.415 -0.2128 -0.4354 -0.4402
  356MOL0     C47968  -3.117   7.185   4.335  0.2855 -0.4507 -0.3184
  356MOL0     C47969  -3.242   7.183   4.240  0.1901 -0.4222  1.0030
  356MOL0    Cl47970  -3.241   7.075   4.086  0.1765 -0.6508 -0.1302
  356MOL0     C47971  -2.285   7.008   4.688 -0.6950  0.3482 -0.2984
  356MOL0     C47972  -2.151   6.990   4.727 -0.7193 -0.0136 -0.0331
  356MOL0     O47973  -2.026   6.991   5.055 -0.5029 -0.1310 -0.3039
  356MOL0     C47974  -1.749   6.801   5.002  0.3056  0.2358  0.7089
  356MOL0     C47975  -1.619   6.778   5.020 -1.1655  0.4092  0.1391
  356MOL0     N47976  -0.859   7.248   5.025 -0.3168 -0.1937  0.0356
  356MOL0     N47977  -0.753   7.310   5.007  0.0016 -0.6389 -0.2015
  356MOL0     C47978   0.504   7.215   4.467  0.0448  0.6048 -0.9759
  356MOL0     C47979   0.632   7.202   4.505  0.2032  0.2495 -0.5371
  356MOL0     C47980   1.029   7.063   4.698  0.6565 -0.1211 -0.2584
  356MOL0     C47981   1.158   7.116   4.668 -0.0186  0.5469  0.1439
  356MOL0     C47982   1.273   7.073   4.732  0.3149 -0.1445  0.3181
  356MOL0     C47983   1.259   6.982   4.839 -0.8812 -0.6576 -0.4239
  356MOL0     O47984   1.370   6.941   4.914 -0.3160  0.1210 -0.0908
  356MOL0     C47985   1.491   7.015   4.891 -0.0171 -0.5151 -0.4713
  356MOL0     C47986   1.605   6.989   4.996  0.6987  0.1991  0.3745
  356MOL0     C47987   1.730   6.956   4.926  0.2766 -0.4249  0.0739
  356MOL0     C47988   1.861   6.964   5.017  0.1297  1.2303  0.1282
  356MOL0     C47989   1.967   7.038   4.960  0.2577  0.8977  0.6800
  356MOL0     C47990   2.075   7.098   4.930 -0.2459  0.7525 -0.1866
  356MOL0     C47991   1.132   6.932   4.879 -1.1002 -0.0171 -0.1406
  356MOL0     C47992   1.018   6.979   4.811 -0.1166 -0.2965 -0.4829
  356MOL0     H47993   0.572   6.989   4.771  1.1339 -0.1461 -0.1186
  356MOL0     H47994   0.343   7.042   4.704 -1.1721  1.1071 -0.2653
  356MOL0     H47995   0.145   7.016   4.512  2.0745 -0.1396  2.0310
  356MOL0     H47996   0.156   7.130   4.645  1.6333 -2.8497 -0.1152
  356MOL0     H47997   0.040   7.308   4.498  0.5883  0.4242  1.3344
  356MOL0     H47998   0.002   7.174   4.386  0.7992 -0.1321 -0.3655
  356MOL0     H47999  -0.190   7.206   4.500  0.7938  0.2489 -1.2777
  356MOL0     H48000  -0.131   7.053   4.546 -1.4453 -0.4997 -0.0101
  356MOL0     H48001  -0.057   7.160   4.771  0.8985  2.1816  0.8058
  356MOL0     H48002  -0.113   7.315   4.717 -2.2065 -0.3835  1.2472
  356MOL0     H48003  -0.313   7.098   4.703 -1.4628  2.0322 -1.6658
  356MOL0     H48004  -0.270   7.189   4.851 -0.2558  1.2713  0.4642
  356MOL0     H48005  -0.325   7.400   4.746 -1.4496 -0.9747  0.5921
  356MOL0     H48006  -0.354   7.312   4.588 -0.3999 -0.1305 -0.2565
  356MOL0     H48007  -0.562   7.379   4.719  2.9213  2.0047  1.2816
  356MOL0     H48008  -0.558   7.206   4.693 -1.1339  1.9402  0.3049
  356MOL0     H48009  -0.503   7.359   4.945 -1.2089 -0.0921  1.5124
  356MOL0     H48010  -0.463   7.187   4.933  0.2915  0.6282 -0.8187
  356MOL0     H48011  -0.682   7.029   4.869 -2.3955 -0.3236 -1.6786
  356MOL0     H48012  -0.961   6.975   4.880  1.3386 -0.7242 -0.1578
  356MOL0     H48013  -0.888   6.919   5.040 -0.7270  0.5667  1.7500
  356MOL0     H48014  -1.096   7.132   5.053  2.7858  1.1079 -0.1279
  356MOL0     H48015  -1.017   7.042   5.180 -0.9902 -0.5802  0.7921
  356MOL0     H48016  -1.132   6.846   5.142 -0.4777  1.2206  1.9207
  356MOL0     H48017  -1.170   6.878   4.972 -0.4810 -1.6158  0.6910
  356MOL0     H48018  -1.333   7.057   5.048  0.0689  0.0168 -1.0826
  356MOL0     H48019  -1.314   7.002   5.216  0.0557 -1.6602  1.2829
  356MOL0     H48020  -1.547   7.049   5.199  0.8811 -2.2029  0.8869
  356MOL0     H48021  -1.892   7.124   5.186  0.0895  2.5113  1.3047
  356MOL0     H48022  -1.733   7.169   5.242 -0.1421 -2.0287  0.2780
  356MOL0     H48023  -1.778   7.209   5.074 -0.6393  0.4185  0.6861
  356MOL0     H48024  -2.227   6.739   4.958 -3.2154 -0.8678 -0.6122
  356MOL0     H48025  -2.434   6.768   4.887 -1.0889  1.3820  1.2647
  356MOL0     H48026  -2.526   7.144   4.653 -0.6177 -1.1248  2.9257
  356MOL0     H48027  -2.480   7.028   4.516 -2.9172 -2.5395 -1.7033
  356MOL0     H48028  -2.685   7.141   4.474  0.3329 -2.3860 -3.9917
  356MOL0     H48029  -2.698   6.962   4.482 -1.5265  0.7779 -0.9530
  356MOL0     H48030  -2.802   7.110   4.728 -1.3296  1.4637 -0.8215
  356MOL0     H48031  -2.819   6.950   4.676 -0.6978  0.1736  0.8859
  356MOL0     H48032  -3.014   7.128   4.654  1.0726  1.7852  0.7325
  356MOL0     H48033  -2.919   7.211   4.540 -2.6292  1.6100  0.0978
  356MOL0     H48034  -3.007   6.915   4.524  0.1801 -0.6108 -2.2309
  356MOL0     H48035  -2.913   7.003   4.398  1.5702 -3.3015  0.7285
  356MOL0     H48036  -3.170   6.984   4.355  0.6508 -1.4900  0.1831
  356MOL0     H48037  -3.190   7.086   4.497  1.5714  1.2297  0.6277
  356MOL0     H48038  -3.026   7.204   4.277  0.6524  0.9396  0.6582
  356MOL0     H48039  -3.141   7.276   4.391 -0.5200 -0.9689  0.1975
  356MOL0     H48040  -3.254   7.284   4.199  1.6956 -1.0320 -1.1305
  356MOL0     H48041  -3.314   7.148   4.315  2.1385  1.3089  3.8997
  356MOL0     H48042  -2.294   7.092   4.620 -3.6512  1.1666  0.9455
  356MOL0     H48043  -2.067   7.047   4.689  0.8132 -2.9714 -1.4912
  356MOL0     H48044  -1.820   6.732   4.957 -1.9345  1.0341  2.7559
  356MOL0     H48045  -1.569   6.687   4.988 -0.6862  0.8113 -0.2732
  356MOL0     H48046   0.476   7.266   4.376 -1.2052 -1.9318 -2.1021
  356MOL0     H48047   0.713   7.241   4.443 -0.3805 -0.7339 -1.9746
  356MOL0     H48048   1.152   7.196   4.595 -1.8269  0.0758 -0.2849
  356MOL0     H48049   1.367   7.110   4.691  0.3472 -0.1782  0.3613
  356MOL0     H48050   1.529   6.990   4.792  0.3304 -2.4778  0.1096
  356MOL0     H48051   1.474   7.123   4.896 -0.1065 -0.5751  1.2118
  356MOL0     H48052   1.570   6.919   5.072  1.1816  0.6416  1.0137
  356MOL0     H48053   1.624   7.082   5.051 -0.0542  0.3563  0.3836
  356MOL0     H48054   1.738   7.028   4.844 -0.8637 -2.0188 -1.4913
  356MOL0     H48055   1.717   6.866   4.866  1.8881  0.1892 -1.2904
  356MOL0     H48056   1.892   6.859   5.023 -4.2326 -0.2571  0.4306
  356MOL0     H48057   1.862   7.000   5.120  1.0457 -1.3304  1.1091
  356MOL0     H48058   2.162   7.154   4.904 -0.6859  2.2192  1.3722
  356MOL0     H48059   1.125   6.869   4.967  1.2794 -1.1282 -0.6359
  356MOL0     H48060   0.927   6.926   4.837 -0.3645  0.2827 -0.1596
  357MOL0     O48061   8.314   2.888   0.535  0.5564  0.2817  0.2002
  357MOL0     C48062   8.382   2.823   0.461  0.9132 -0.0057 -0.1433
  357MOL0     O48063   8.501   2.784   0.477  0.1891  0.2697 -0.0792
  357MOL0     C48064   8.585   2.819   0.582  0.1141 -0.1785 -0.4880
  357MOL0     C48065   8.564   2.891   0.698  0.4557 -0.5903  0.2113
  357MOL0     C48066   8.672   2.920   0.791  0.1786 -0.7117 -0.4648
  357MOL0     C48067   8.794   2.872   0.755  0.2909  0.1551  0.1554
  357MOL0     O48068   8.915   2.895   0.827 -0.3632  0.6378 -0.9160
  357MOL0     C48069   8.932   2.962   0.952  0.9014  0.3323 -0.2378
  357MOL0     C48070   8.879   2.876   1.072  0.1609 -0.0132  0.0278
  357MOL0     C48071   8.845   2.957   1.197 -0.6048  0.4464  0.8171
  357MOL0     C48072   8.724   3.056   1.178  0.3620  0.9442 -0.3743
  357MOL0     C48073   8.675   3.111   1.321 -0.3146  0.3980 -0.2877
  357MOL0     C48074   8.785   3.189   1.398 -0.0754 -0.5873  0.5506
  357MOL0     C48075   8.849   3.307   1.308  0.5378  1.5880 -0.2002
  357MOL0     C48076   8.903   3.420   1.398  0.9241 -0.4206  0.3007
  357MOL0     N48077   8.783   3.508   1.442  0.1656  0.0274  0.2668
  357MOL0     C48078   8.722   3.506   1.565 -0.1308  0.1815 -0.4376
  357MOL0     C48079   8.612   3.580   1.548  0.6723  0.5317  0.5304
  357MOL0     C48080   8.495   3.602   1.642 -0.1571 -0.0948 -0.9018
  357MOL0     C48081   8.534   3.694   1.759  0.5423 -0.3930  0.3431
  357MOL0     C48082   8.638   3.631   1.863 -0.6987 -0.7159 -0.2821
  357MOL0     C48083   8.663   3.720   1.977  0.2281 -1.0501  0.5199
  357MOL0     O48084   8.767   3.656   2.052 -0.0712 -0.0501  0.3506
  357MOL0     C48085   8.802   3.708   2.177  0.0104 -0.2408  0.6818
  357MOL0     C48086   8.911   3.649   2.246  0.1508 -0.0950  1.0561
  357MOL0     C48087   8.925   3.663   2.390 -0.3449  0.0196  0.4072
  357MOL0     C48088   9.058   3.602   2.453  0.2206  0.0064 -0.3506
  357MOL0     C48089   8.839   3.757   2.457 -0.0252 -0.7768  0.0101
  357MOL0     C48090   8.848   3.772   2.595  0.0645 -0.1906  0.5339
  357MOL0     O48091   8.829   3.660   2.673  0.3595  0.6699 -0.1762
  357MOL0     C48092   8.815   3.677   2.810 -0.0126  0.0760  0.6664
  357MOL0     C48093   8.915   3.638   2.896 -0.2313 -0.4038  0.1623
  357MOL0     C48094   8.890   3.655   3.031 -0.4682  0.0390  1.0080
  357MOL0     C48095   8.775   3.711   3.086 -0.2307  0.1351  0.3803
  357MOL0     O48096   8.756   3.729   3.220 -0.4799 -0.7066  0.4331
  357MOL0     C48097   8.789   3.631   3.309 -0.0030  1.2846  0.0442
  357MOL0     C48098   8.650   3.561   3.346 -0.1808 -0.4851 -0.0801
  357MOL0     C48099   8.542   3.655   3.396 -0.1799 -0.6069 -0.8962
  357MOL0     C48100   8.409   3.576   3.420  1.1437  0.5695 -0.4899
  357MOL0     C48101   8.285   3.654   3.450 -0.3536  0.5390 -0.2608
  357MOL0     C48102   8.156   3.582   3.399 -0.0271  0.1723 -0.2020
  357MOL0     C48103   8.027   3.638   3.449  0.1440 -0.6813 -0.4682
  357MOL0     C48104   8.016   3.661   3.605 -0.0362 -0.0314 -0.2207
  357MOL0    Cl48105   7.830   3.682   3.636 -0.1185  0.3039 -0.0650
  357MOL0     C48106   8.670   3.735   3.003 -1.3387 -0.1361 -0.1526
  357MOL0     C48107   8.695   3.733   2.863 -0.1791  1.0750 -0.7823
  357MOL0     O48108   8.864   3.885   2.632 -0.3238  0.2653 -0.9056
  357MOL0     C48109   8.735   3.814   2.385  0.2930 -0.8826 -0.1554
  357MOL0     C48110   8.717   3.789   2.251 -0.1540  0.3613  0.3457
  357MOL0     N48111   8.593   3.615   1.422 -0.0979 -1.0807  0.5861
  357MOL0     N48112   8.705   3.587   1.359  0.3169 -0.2817 -0.7125
  357MOL0     C48113   8.816   2.785   0.639 -0.0316 -0.1924 -0.9743
  357MOL0     C48114   8.706   2.766   0.554  1.2150 -0.0045 -0.6759
  357MOL0     C48115   8.310   2.771   0.340 -0.2027 -0.1554  0.0808
  357MOL0     C48116   8.219   2.848   0.273 -0.4171  0.4478 -0.8806
  357MOL0     C48117   8.173   2.808   0.149 -0.1734 -0.2196  0.2861
  357MOL0     C48118   8.205   2.683   0.098 -0.8160  0.2404  0.8295
  357MOL0     O48119   8.144   2.655  -0.022  0.0096  0.9605  0.3438
  357MOL0     C48120   8.193   2.547  -0.103  0.5433  0.2182  0.7929
  357MOL0     C48121   8.145   2.413  -0.059  0.6345  0.0542  0.0854
  357MOL0     C48122   8.181   2.299  -0.159  0.4496  0.3168  0.0658
  357MOL0     C48123   8.116   2.170  -0.108  1.3270  0.0107 -0.2087
  357MOL0     C48124   8.165   2.062  -0.193  0.5169 -1.2407 -0.6836
  357MOL0     C48125   8.198   1.974  -0.276  0.5566  0.3186  0.8345
  357MOL0     C48126   8.286   2.597   0.171 -0.4146  0.5728  0.3953
  357MOL0     C48127   8.349   2.651   0.285 -0.0457  0.2912  1.0967
  357MOL0     H48128   8.471   2.936   0.731  1.2987 -0.2222  2.2259
  357MOL0     H48129   8.662   2.971   0.886  1.1567 -1.1599 -0.1144
  357MOL0     H48130   9.038   2.979   0.969  0.7309  0.2983  0.9752
  357MOL0     H48131   8.883   3.060   0.956  3.4144  1.7753 -2.1499
  357MOL0     H48132   8.790   2.815   1.053  1.2996 -1.5901 -0.5246
  357MOL0     H48133   8.959   2.806   1.098  1.7290  0.9943 -1.8606
  357MOL0     H48134   8.837   2.885   1.279 -2.0178 -2.0922 -1.4013
  357MOL0     H48135   8.931   3.024   1.207  0.0407 -0.5474  2.1711
  357MOL0     H48136   8.745   3.141   1.112 -0.4165  2.1343  0.8538
  357MOL0     H48137   8.641   3.002   1.132 -1.1391  2.8626 -0.0548
  357MOL0     H48138   8.592   3.179   1.299  0.5502  1.8030  0.6407
  357MOL0     H48139   8.632   3.035   1.388 -0.6844  0.8715  0.0217
  357MOL0     H48140   8.722   3.234   1.476  1.2350  0.7466  0.8803
  357MOL0     H48141   8.858   3.121   1.442 -0.3756 -0.5874  1.0578
  357MOL0     H48142   8.928   3.264   1.246  0.4844  0.7136  0.3258
  357MOL0     H48143   8.771   3.345   1.241  0.6473  1.8720 -0.1686
  357MOL0     H48144   8.963   3.486   1.334 -0.0532  1.2588  1.0540
  357MOL0     H48145   8.958   3.375   1.481 -1.8987  0.8798  3.0766
  357MOL0     H48146   8.757   3.445   1.647  0.7799  0.9483 -0.2360
  357MOL0     H48147   8.409   3.644   1.590 -1.4559 -0.7161  0.6742
  357MOL0     H48148   8.468   3.507   1.689 -0.8064  1.7897  2.9038
  357MOL0     H48149   8.435   3.711   1.801 -0.4105 -0.5887 -1.6991
  357MOL0     H48150   8.582   3.782   1.714 -0.2784 -0.5226 -0.8022
  357MOL0     H48151   8.733   3.614   1.811 -0.2686  2.3347 -0.6812
  357MOL0     H48152   8.594   3.540   1.906 -1.3131  1.2298  3.6325
  357MOL0     H48153   8.568   3.736   2.029 -2.2674  1.7833 -4.2420
  357MOL0     H48154   8.698   3.816   1.939 -2.7762 -0.4853 -1.1710
  357MOL0     H48155   8.979   3.578   2.201  1.0641  1.8367 -0.7990
  357MOL0     H48156   9.035   3.548   2.545 -1.5261 -0.0890 -0.8161
  357MOL0     H48157   9.114   3.522   2.402 -1.0317  0.4935 -2.6162
  357MOL0     H48158   9.120   3.682   2.495 -1.0733  0.8324  0.0249
  357MOL0     H48159   9.006   3.600   2.850  1.6370  3.1351  0.6318
  357MOL0     H48160   8.978   3.628   3.090  0.5598 -0.7358 -0.7975
  357MOL0     H48161   8.861   3.555   3.275  0.9858  1.4595  1.6185
  357MOL0     H48162   8.842   3.667   3.398  0.9037 -1.6538  0.8140
  357MOL0     H48163   8.605   3.512   3.259 -0.3727  0.0545 -0.2871
  357MOL0     H48164   8.658   3.474   3.412 -0.7881 -0.2833  0.2651
  357MOL0     H48165   8.516   3.730   3.321  0.5619  0.7527  0.1725
  357MOL0     H48166   8.568   3.699   3.493 -0.7103  1.1470 -1.5217
  357MOL0     H48167   8.381   3.515   3.333 -4.6556 -0.4473  1.6654
  357MOL0     H48168   8.424   3.498   3.495 -0.2932  0.1257 -0.6411
  357MOL0     H48169   8.293   3.748   3.396 -1.1106  0.0343 -1.2781
  357MOL0     H48170   8.278   3.676   3.557  0.4117 -2.9098  0.6449
  357MOL0     H48171   8.157   3.598   3.291 -3.6514  2.1283 -0.0858
  357MOL0     H48172   8.150   3.475   3.416  0.5469 -0.1394 -1.7983
  357MOL0     H48173   7.945   3.578   3.406 -0.7499 -0.3157  0.6884
  357MOL0     H48174   8.006   3.740   3.416  0.6662 -0.1080  0.9160
  357MOL0     H48175   8.068   3.753   3.634 -0.7618  0.5260 -0.6626
  357MOL0     H48176   8.058   3.582   3.668 -0.0458 -2.3198 -2.8556
  357MOL0     H48177   8.574   3.762   3.045 -1.6713 -1.5093  0.0257
  357MOL0     H48178   8.618   3.761   2.792  0.6504  1.0670 -1.7084
  357MOL0     H48179   8.652   3.857   2.441  0.0500 -0.1178 -1.0824
  357MOL0     H48180   8.627   3.828   2.203 -1.8083 -0.0297  2.9481
  357MOL0     H48181   8.918   2.749   0.629  1.3407  1.0167  4.8559
  357MOL0     H48182   8.721   2.697   0.471  2.1947 -1.8029  0.9235
  357MOL0     H48183   8.198   2.946   0.314  1.7109  0.3840  0.5480
  357MOL0     H48184   8.116   2.879   0.089  1.1591  1.2466  0.6811
  357MOL0     H48185   8.175   2.574  -0.208  0.6955 -5.4196 -1.0460
  357MOL0     H48186   8.302   2.552  -0.099  0.7970 -1.9280 -1.1791
  357MOL0     H48187   8.037   2.411  -0.040  0.7386 -2.2196  0.7965
  357MOL0     H48188   8.185   2.392   0.041  1.9598  0.2206 -0.3959
  357MOL0     H48189   8.290   2.289  -0.170  0.6417  1.6929  0.5256
  357MOL0     H48190   8.140   2.334  -0.254 -1.2955 -1.9570 -0.1146
  357MOL0     H48191   8.009   2.187  -0.119  1.3061  0.1661  0.2096
  357MOL0     H48192   8.134   2.151  -0.001  0.1303  1.8441  0.3646
  357MOL0     H48193   8.220   1.896  -0.346 -0.7161  1.7857 -1.3299
  357MOL0     H48194   8.324   2.500   0.142  0.6740  1.1598 -0.1978
  357MOL0     H48195   8.425   2.591   0.335 -0.8363 -0.9922  0.7918
  358MOL0     O48196   4.042   0.733   3.965 -0.1006  0.3674  0.5484
  358MOL0     C48197   4.091   0.635   3.911 -0.1468  0.6010 -1.2323
  358MOL0     O48198   4.042   0.509   3.916 -0.1404  0.2769 -0.1797
  358MOL0     C48199   3.920   0.488   3.977 -0.0158 -0.4785  0.0676
  358MOL0     C48200   3.901   0.518   4.118 -1.0090  0.5644  0.8092
  358MOL0     C48201   3.775   0.516   4.186  0.1941 -0.3698  0.1161
  358MOL0     C48202   3.663   0.493   4.100  0.1641 -0.5966  0.5565
  358MOL0     O48203   3.539   0.502   4.152  0.0103 -0.1006  0.3165
  358MOL0     C48204   3.418   0.461   4.084  0.6486  0.4544 -0.6944
  358MOL0     C48205   3.292   0.529   4.145  0.0535  0.1933 -1.1824
  358MOL0     C48206   3.257   0.484   4.291 -0.4390  0.0199 -0.8430
  358MOL0     C48207   3.353   0.523   4.403  0.8049  0.0383  0.6968
  358MOL0     C48208   3.327   0.443   4.527  0.7456 -0.6718  0.0051
  358MOL0     C48209   3.371   0.515   4.649  0.6080 -0.1679 -0.4216
  358MOL0     C48210   3.314   0.436   4.767  0.2213  0.1340 -0.2790
  358MOL0     C48211   3.280   0.530   4.883  0.8039 -0.3392 -0.7297
  358MOL0     N48212   3.165   0.621   4.849 -0.4925  0.4979 -0.4453
  358MOL0     C48213   3.048   0.586   4.788 -0.0042 -0.0172  0.1249
  358MOL0     C48214   2.987   0.702   4.743 -0.6977 -0.2700  0.3692
  358MOL0     C48215   2.847   0.713   4.687  0.6897 -0.9473 -0.3522
  358MOL0     C48216   2.762   0.839   4.723 -0.4622  0.7143  0.6707
  358MOL0     C48217   2.614   0.818   4.744  0.3987  0.3829  0.1877
  358MOL0     C48218   2.525   0.825   4.618 -0.5894 -0.1989  0.1599
  358MOL0     O48219   2.389   0.789   4.649  0.4194  0.1483 -0.1367
  358MOL0     C48220   2.276   0.808   4.570  0.5214 -0.1588 -0.0695
  358MOL0     C48221   2.272   0.875   4.451 -0.0672  0.5257 -0.1935
  358MOL0     C48222   2.142   0.899   4.394  0.3708 -0.3470  0.3383
  358MOL0     C48223   2.131   0.994   4.277  0.4840  0.0878 -0.8984
  358MOL0     C48224   2.023   0.834   4.453  0.8783  1.2756 -0.8340
  358MOL0     C48225   1.884   0.823   4.396  0.9009 -0.7665 -0.7468
  358MOL0     O48226   1.789   0.767   4.474  0.5140 -0.5145 -0.0657
  358MOL0     C48227   1.672   0.836   4.501  0.1807  0.1386 -0.5191
  358MOL0     C48228   1.552   0.826   4.431  1.0969 -0.6121  0.2735
  358MOL0     C48229   1.441   0.890   4.464  0.1423  0.2290 -0.0861
  358MOL0     C48230   1.438   0.966   4.581  0.0394 -0.1808  0.3365
  358MOL0     O48231   1.315   1.030   4.614 -0.0141 -0.4912  0.7343
  358MOL0     C48232   1.247   0.997   4.741 -0.9836 -0.0169  0.1881
  358MOL0     C48233   1.147   1.100   4.773  0.1257 -0.1649  0.2421
  358MOL0     C48234   1.021   1.079   4.691 -0.3858 -0.4226  0.2029
  358MOL0     C48235   0.885   1.125   4.755  0.4689  0.0051  0.1378
  358MOL0     C48236   0.857   1.271   4.719 -0.6133  0.0341  0.3773
  358MOL0     C48237   0.720   1.324   4.779 -0.4556 -0.3076  0.4896
  358MOL0     C48238   0.682   1.451   4.699  0.1649  0.4148  1.2764
  358MOL0     C48239   0.564   1.529   4.753 -0.1255 -0.8386 -0.0429
  358MOL0    Cl48240   0.617   1.607   4.899  0.4209 -0.4906 -0.1323
  358MOL0     C48241   1.554   0.981   4.655 -0.9538 -0.0648  1.1821
  358MOL0     C48242   1.677   0.914   4.614 -0.1172  0.6829  0.0897
  358MOL0     O48243   1.860   0.871   4.290  0.2283  0.4859 -0.2759
  358MOL0     C48244   2.035   0.772   4.574 -0.4602 -1.4607  0.2461
  358MOL0     C48245   2.157   0.763   4.636  0.2300  0.0787  0.4532
  358MOL0     N48246   3.072   0.803   4.778 -0.3634 -0.2882  0.2952
  358MOL0     N48247   3.180   0.756   4.838 -0.1314 -0.0944  0.2582
  358MOL0     C48248   3.679   0.467   3.963 -0.7428 -0.1254  0.2951
  358MOL0     C48249   3.806   0.453   3.906  0.3285 -0.3276  0.2492
  358MOL0     C48250   4.204   0.658   3.821  0.0705 -0.3814 -0.7659
  358MOL0     C48251   4.236   0.568   3.724 -0.4452 -0.2500  1.4302
  358MOL0     C48252   4.339   0.590   3.624 -0.3635  0.6112  0.1570
  358MOL0     C48253   4.409   0.714   3.628  0.0439 -0.1129 -0.2975
  358MOL0     O48254   4.504   0.764   3.542 -0.7829  0.7931  0.1002
  358MOL0     C48255   4.467   0.769   3.400  0.0571 -0.7177 -0.0581
  358MOL0     C48256   4.522   0.662   3.313  0.2700  0.5807  0.0725
  358MOL0     C48257   4.671   0.634   3.317  0.1648 -0.1037 -0.3249
  358MOL0     C48258   4.711   0.532   3.212  0.4171 -0.6541 -0.1271
  358MOL0     C48259   4.852   0.497   3.230  0.7730 -0.4859  0.3958
  358MOL0     C48260   4.965   0.490   3.266  0.6212 -0.4336 -0.5723
  358MOL0     C48261   4.384   0.794   3.734 -0.5393 -0.0824 -0.4769
  358MOL0     C48262   4.285   0.770   3.836 -0.1895  0.0925 -0.1929
  358MOL0     H48263   3.983   0.552   4.182 -0.9153  1.8335  0.0490
  358MOL0     H48264   3.773   0.525   4.295 -0.1127 -0.8530  0.1507
  358MOL0     H48265   3.417   0.487   3.978 -0.9218  0.9805 -0.5735
  358MOL0     H48266   3.412   0.355   4.107  2.7631  0.2580 -0.8297
  358MOL0     H48267   3.284   0.638   4.137  2.9142  1.0843  3.5942
  358MOL0     H48268   3.214   0.509   4.071 -0.9995 -0.0694 -0.0357
  358MOL0     H48269   3.159   0.520   4.324  0.9134  2.5473  0.7161
  358MOL0     H48270   3.246   0.375   4.289 -1.1604  0.0866 -1.5105
  358MOL0     H48271   3.454   0.516   4.364  0.6131  0.8454  0.0301
  358MOL0     H48272   3.352   0.630   4.426 -2.3263  0.5967 -1.3968
  358MOL0     H48273   3.218   0.430   4.524  0.6203  0.1367  0.6880
  358MOL0     H48274   3.385   0.351   4.521  3.4111  0.8270  1.2114
  358MOL0     H48275   3.480   0.506   4.645  0.5341 -1.3539 -0.2325
  358MOL0     H48276   3.348   0.621   4.641  4.2437  0.7448 -0.5294
  358MOL0     H48277   3.226   0.383   4.730  1.3453  0.1957 -3.3090
  358MOL0     H48278   3.385   0.358   4.797 -0.3251 -0.0748  0.5146
  358MOL0     H48279   3.368   0.593   4.900 -0.3863  0.7732  1.7412
  358MOL0     H48280   3.250   0.474   4.972  0.2800  1.2033  0.1049
  358MOL0     H48281   3.004   0.487   4.779  0.3514 -0.2785  1.1463
  358MOL0     H48282   2.861   0.716   4.578  0.1761  1.1922 -0.4109
  358MOL0     H48283   2.798   0.618   4.709 -0.1020 -0.5989 -0.5658
  358MOL0     H48284   2.775   0.918   4.649 -2.3822  1.0557  0.6528
  358MOL0     H48285   2.811   0.879   4.812  0.8603 -0.1033  0.3363
  358MOL0     H48286   2.592   0.907   4.803  1.9055  0.5464  0.5378
  358MOL0     H48287   2.583   0.730   4.801  1.5586 -0.0540  0.1765
  358MOL0     H48288   2.561   0.749   4.548 -0.4202  0.9624 -1.0497
  358MOL0     H48289   2.531   0.914   4.554 -3.0787 -0.5037 -0.6086
  358MOL0     H48290   2.355   0.931   4.410 -0.9017  3.4068  1.7326
  358MOL0     H48291   2.122   0.934   4.186 -1.7319 -1.8093  0.4673
  358MOL0     H48292   2.038   1.051   4.281  0.6874  0.7566 -3.4522
  358MOL0     H48293   2.220   1.057   4.267  1.6462 -1.1788  0.8689
  358MOL0     H48294   1.532   0.757   4.349 -2.3305  0.2545  0.2619
  358MOL0     H48295   1.341   0.883   4.425  0.9574 -1.1165 -2.0655
  358MOL0     H48296   1.199   0.898   4.741 -0.8760 -0.1071  2.1896
  358MOL0     H48297   1.322   0.981   4.819 -0.8102 -2.1431 -0.3365
  358MOL0     H48298   1.127   1.093   4.880  0.3134 -0.3127  0.2696
  358MOL0     H48299   1.198   1.195   4.758  1.3452 -0.7854  0.3050
  358MOL0     H48300   0.997   0.979   4.653  0.0929 -0.6410  0.4703
  358MOL0     H48301   1.031   1.140   4.601 -1.6930 -0.4834 -0.0088
  358MOL0     H48302   0.812   1.050   4.720  1.7222 -2.2713  2.1319
  358MOL0     H48303   0.873   1.104   4.861  2.1212 -1.7355  0.0322
  358MOL0     H48304   0.849   1.272   4.610 -4.2759 -0.2701  0.5055
  358MOL0     H48305   0.937   1.338   4.751 -0.4037 -1.2692  2.8970
  358MOL0     H48306   0.637   1.254   4.761  0.9770 -1.3972 -2.6461
  358MOL0     H48307   0.729   1.341   4.886 -0.6910  1.8324  0.2089
  358MOL0     H48308   0.654   1.423   4.597 -0.1466  1.5547  1.0382
  358MOL0     H48309   0.767   1.517   4.683  0.0852  0.3276  0.4722
  358MOL0     H48310   0.483   1.458   4.772 -0.8109 -0.1995 -0.5028
  358MOL0     H48311   0.525   1.606   4.686  0.0832 -0.2703  0.4823
  358MOL0     H48312   1.557   1.025   4.754 -1.7196 -0.1215  1.2324
  358MOL0     H48313   1.773   0.936   4.660  0.6082  1.8809 -1.8709
  358MOL0     H48314   1.958   0.723   4.632  1.1929 -1.3147  2.7244
  358MOL0     H48315   2.166   0.708   4.729  2.3029  0.0069  0.2682
  358MOL0     H48316   3.594   0.465   3.895  0.4150  3.8090 -1.5677
  358MOL0     H48317   3.816   0.441   3.799 -0.3278  0.6541  0.0672
  358MOL0     H48318   4.193   0.469   3.712 -1.3536  0.4436 -2.5540
  358MOL0     H48319   4.363   0.525   3.540  1.7575  1.6211 -0.0951
  358MOL0     H48320   4.358   0.770   3.401  0.0419 -1.4022 -0.2912
  358MOL0     H48321   4.511   0.859   3.354  2.6461 -1.5195  0.6597
  358MOL0     H48322   4.503   0.677   3.206 -0.0339 -0.0520  0.0378
  358MOL0     H48323   4.466   0.573   3.341  3.4107 -1.4020  0.4674
  358MOL0     H48324   4.699   0.605   3.418  3.2006 -0.7280 -1.2382
  358MOL0     H48325   4.725   0.728   3.301 -1.5608  0.9252 -0.2410
  358MOL0     H48326   4.707   0.561   3.107  1.7929 -3.5325 -1.0752
  358MOL0     H48327   4.652   0.440   3.219 -0.9705  0.2439  0.5895
  358MOL0     H48328   5.070   0.501   3.283  0.5559 -0.7372  0.0598
  358MOL0     H48329   4.444   0.885   3.735 -1.6592  0.6884 -1.5026
  358MOL0     H48330   4.265   0.841   3.916 -1.9204 -1.4051  0.7792
  359MOL0     O48331   4.051   4.839   9.202  0.5829  0.3562  0.3300
  359MOL0     C48332   4.157   4.856   9.154  0.0762  0.6176  0.4551
  359MOL0     O48333   4.265   4.911   9.214  0.3556  0.0605 -0.2492
  359MOL0     C48334   4.258   4.989   9.325  0.1986 -1.4459 -0.0721
  359MOL0     C48335   4.173   5.095   9.350 -0.0337  0.3345  0.8981
  359MOL0     C48336   4.190   5.195   9.452 -0.2662 -1.2669 -0.0619
  359MOL0     C48337   4.288   5.181   9.543  0.2409 -0.8927 -1.2353
  359MOL0     O48338   4.299   5.260   9.658  0.2138  0.9782  0.7453
  359MOL0     C48339   4.185   5.281   9.749 -0.2719  0.5619  0.5616
  359MOL0     C48340   4.236   5.275   9.897 -0.3818 -0.3672  0.5869
  359MOL0     C48341   4.330   5.150   9.924  0.0351 -0.2721  0.2806
  359MOL0     C48342   4.347   5.140  10.082 -0.0166 -0.3933 -0.1080
  359MOL0     C48343   4.229   5.101  10.163  0.2645  0.0577 -0.2348
  359MOL0     C48344   4.232   5.157  10.308  0.4448 -0.5042  0.3692
  359MOL0     C48345   4.106   5.123  10.390  0.7774  0.7150 -0.1087
  359MOL0     C48346   4.131   5.175  10.529 -0.4041  0.0111 -0.2770
  359MOL0     N48347   4.177   5.311  10.543 -0.5819 -0.1294  0.7461
  359MOL0     C48348   4.128   5.424  10.477  0.3225  0.0953  0.2648
  359MOL0     C48349   4.217   5.521  10.498 -0.5992  0.1261  0.1053
  359MOL0     C48350   4.225   5.661  10.453  1.0316  0.4265 -0.7688
  359MOL0     C48351   4.173   5.694  10.308 -0.0066 -0.0941 -0.0555
  359MOL0     C48352   4.258   5.644  10.204 -1.2160  0.7102 -0.7909
  359MOL0     C48353   4.216   5.696  10.065  0.0672 -0.5231  0.3347
  359MOL0     O48354   4.294   5.641   9.960  0.0659 -0.8911  0.2852
  359MOL0     C48355   4.267   5.662   9.823 -0.8078 -0.2566  0.8829
  359MOL0     C48356   4.350   5.607   9.724 -0.6257 -0.1147 -0.0649
  359MOL0     C48357   4.331   5.622   9.592  0.0475 -0.4919  1.0828
  359MOL0     C48358   4.431   5.557   9.498 -0.3241  0.0260  0.1208
  359MOL0     C48359   4.230   5.706   9.541 -0.3130  0.5076  0.5960
  359MOL0     C48360   4.208   5.736   9.397  0.3506 -0.3763 -0.9282
  359MOL0     O48361   4.302   5.752   9.308  0.0748  0.0820  0.7558
  359MOL0     C48362   4.285   5.851   9.210  0.7739  0.2157  0.3422
  359MOL0     C48363   4.363   5.831   9.095 -0.5252 -0.2581  0.3480
  359MOL0     C48364   4.365   5.914   8.984  0.5342 -1.0062  0.2067
  359MOL0     C48365   4.289   6.037   9.001 -0.0651  0.1276  0.0302
  359MOL0     O48366   4.301   6.116   8.886 -0.1785 -0.8808  0.3683
  359MOL0     C48367   4.249   6.250   8.899  0.7194 -0.7461 -0.3653
  359MOL0     C48368   4.247   6.306   8.750  0.4610 -0.2359 -0.4196
  359MOL0     C48369   4.123   6.394   8.724  0.5798  0.5635 -1.3124
  359MOL0     C48370   4.127   6.451   8.587  0.3598 -1.1022 -0.3508
  359MOL0     C48371   3.993   6.511   8.543  0.4922  0.1834  0.0445
  359MOL0     C48372   3.953   6.629   8.632 -0.1882 -0.3783  0.2256
  359MOL0     C48373   3.809   6.685   8.621 -1.0602  0.5926  0.3967
  359MOL0     C48374   3.697   6.592   8.658  0.1845  0.0506  0.6605
  359MOL0    Cl48375   3.706   6.545   8.826 -0.4175  0.2899  0.4557
  359MOL0     C48376   4.213   6.066   9.118  0.5619 -0.5155 -0.0946
  359MOL0     C48377   4.219   5.979   9.225  0.1249  1.0832 -0.0464
  359MOL0     O48378   4.092   5.737   9.373  0.2190  0.2069 -0.0783
  359MOL0     C48379   4.147   5.760   9.633  1.2813  0.6050  0.0433
  359MOL0     C48380   4.155   5.721   9.779 -0.1239 -0.0112  0.0216
  359MOL0     N48381   4.314   5.476  10.586  0.0314 -0.4098 -0.3202
  359MOL0     N48382   4.296   5.348  10.611 -0.3267 -0.6900  0.4254
  359MOL0     C48383   4.376   5.073   9.520  0.3377  0.8977  0.9298
  359MOL0     C48384   4.363   4.982   9.413 -0.7246 -0.5589  0.3187
  359MOL0     C48385   4.174   4.815   9.006 -0.0511  0.2285  0.1013
  359MOL0     C48386   4.100   4.711   8.940  0.9547  0.1006  0.8398
  359MOL0     C48387   4.126   4.691   8.801  0.8911 -0.6380 -0.0073
  359MOL0     C48388   4.227   4.764   8.734 -0.0010 -0.1563 -0.4578
  359MOL0     O48389   4.260   4.724   8.610  1.0050  0.0534 -0.5595
  359MOL0     C48390   4.353   4.619   8.619 -0.5121 -0.5753 -0.0589
  359MOL0     C48391   4.483   4.624   8.522  0.4162  0.2266  0.6731
  359MOL0     C48392   4.430   4.587   8.377  0.1487 -0.3164  0.9777
  359MOL0     C48393   4.538   4.650   8.273  0.2503  0.1408 -0.5175
  359MOL0     C48394   4.538   4.582   8.144  0.4210 -0.8083  0.6646
  359MOL0     C48395   4.545   4.534   8.037 -0.3297  0.1322  0.7166
  359MOL0     C48396   4.307   4.853   8.809  0.2375  0.1079  0.5700
  359MOL0     C48397   4.281   4.882   8.938 -0.3383 -0.1662 -0.6919
  359MOL0     H48398   4.088   5.094   9.282 -0.5889 -0.6557  1.5786
  359MOL0     H48399   4.121   5.279   9.451 -0.2209 -1.2299 -0.8280
  359MOL0     H48400   4.152   5.385   9.734  1.6651  0.9996 -1.1692
  359MOL0     H48401   4.111   5.203   9.733 -1.4319  1.5320  1.0080
  359MOL0     H48402   4.296   5.365   9.913 -1.6320  0.7921 -0.9399
  359MOL0     H48403   4.138   5.275   9.945 -0.3610  2.1772  0.7531
  359MOL0     H48404   4.292   5.053   9.892 -0.0096 -0.7712  1.7588
  359MOL0     H48405   4.421   5.167   9.866 -0.2658  1.0237  0.1558
  359MOL0     H48406   4.432   5.075  10.105 -0.5799 -1.9726 -2.1330
  359MOL0     H48407   4.380   5.236  10.121  1.1613 -2.0676  3.4615
  359MOL0     H48408   4.135   5.135  10.119 -0.2015 -0.6099  0.2240
  359MOL0     H48409   4.223   4.992  10.168 -1.8653  0.1310 -0.0691
  359MOL0     H48410   4.328   5.135  10.356  1.4657 -0.0466 -1.3700
  359MOL0     H48411   4.233   5.264  10.285  2.1064 -0.7649 -0.9586
  359MOL0     H48412   4.012   5.160  10.348  0.0096 -2.0240 -0.9695
  359MOL0     H48413   4.101   5.014  10.394 -1.0272  0.7973  2.3927
  359MOL0     H48414   4.210   5.108  10.565 -0.8119 -1.6488 -2.2992
  359MOL0     H48415   4.040   5.158  10.587 -0.1016  1.0145  0.5315
  359MOL0     H48416   4.036   5.434  10.420  1.0098  2.6798 -0.5418
  359MOL0     H48417   4.152   5.707  10.521 -0.1944 -4.3607  1.5839
  359MOL0     H48418   4.321   5.709  10.471 -0.6796  3.6424  0.6621
  359MOL0     H48419   4.148   5.798  10.283  0.2547  0.2541  1.1008
  359MOL0     H48420   4.076   5.645  10.296 -1.4562  1.7816  2.9057
  359MOL0     H48421   4.271   5.536  10.198 -3.9454  0.1033  1.7886
  359MOL0     H48422   4.356   5.690  10.221  0.0095 -1.4469 -1.7063
  359MOL0     H48423   4.228   5.805  10.062 -0.1669 -0.3292  3.4907
  359MOL0     H48424   4.111   5.675  10.044 -0.0263 -0.8442  1.1082
  359MOL0     H48425   4.422   5.536   9.762 -1.0489 -2.2547 -2.9637
  359MOL0     H48426   4.503   5.504   9.560 -1.4291 -1.5091  0.1290
  359MOL0     H48427   4.379   5.489   9.430  0.7066 -3.1835  2.3403
  359MOL0     H48428   4.487   5.634   9.444 -1.5555  2.2503  1.8434
  359MOL0     H48429   4.422   5.740   9.092  1.9524  1.1767  1.7005
  359MOL0     H48430   4.433   5.902   8.900 -0.6531 -4.0171 -0.4432
  359MOL0     H48431   4.148   6.249   8.940 -0.5898  4.1510 -2.6965
  359MOL0     H48432   4.317   6.314   8.956  0.5322  0.5338 -1.5366
  359MOL0     H48433   4.333   6.370   8.731  0.2217  0.8667  1.8615
  359MOL0     H48434   4.255   6.220   8.683 -0.2298 -1.4282  0.9760
  359MOL0     H48435   4.121   6.471   8.801  1.2465  0.4563 -1.1778
  359MOL0     H48436   4.038   6.327   8.735 -0.0445  1.6200  0.8158
  359MOL0     H48437   4.204   6.527   8.571 -0.7450  0.1869  0.2723
  359MOL0     H48438   4.155   6.369   8.520  0.1635 -1.3092 -0.1846
  359MOL0     H48439   3.916   6.434   8.530  1.0972  0.0695 -3.9913
  359MOL0     H48440   4.005   6.546   8.440  2.4615 -1.0311 -0.1826
  359MOL0     H48441   3.969   6.611   8.739 -0.4002 -0.3640  0.2627
  359MOL0     H48442   4.009   6.719   8.604  2.1840 -1.3861  1.4800
  359MOL0     H48443   3.803   6.712   8.516  0.0359  0.6493  0.3362
  359MOL0     H48444   3.797   6.768   8.692 -0.0753 -0.4028  1.8061
  359MOL0     H48445   3.719   6.499   8.604  1.7373  0.7867 -0.0280
  359MOL0     H48446   3.600   6.636   8.633 -0.1629  0.3115  2.3421
  359MOL0     H48447   4.156   6.157   9.132 -0.2777 -0.8150 -1.4284
  359MOL0     H48448   4.169   6.005   9.318 -0.3682 -1.5573  0.5098
  359MOL0     H48449   4.067   5.828   9.607  1.1593 -0.1084 -1.5153
  359MOL0     H48450   4.077   5.761   9.844  1.8971  0.8809  2.0172
  359MOL0     H48451   4.464   5.072   9.584  0.7589 -0.4795  0.3629
  359MOL0     H48452   4.428   4.896   9.399 -2.3309 -1.4317 -2.7551
  359MOL0     H48453   4.026   4.656   8.996 -0.0530 -0.5675 -1.0735
  359MOL0     H48454   4.070   4.624   8.736  2.1043 -3.0111  1.2501
  359MOL0     H48455   4.402   4.602   8.715 -2.5786 -1.4419  0.8998
  359MOL0     H48456   4.295   4.527   8.607 -1.6021  0.2305 -1.2557
  359MOL0     H48457   4.551   4.547   8.559 -1.0169 -0.9094  1.0674
  359MOL0     H48458   4.537   4.719   8.526 -2.1216  1.9303 -1.7886
  359MOL0     H48459   4.324   4.612   8.366  0.3831  0.2023 -0.2138
  359MOL0     H48460   4.439   4.478   8.375 -0.4489 -0.4422  3.0940
  359MOL0     H48461   4.637   4.639   8.319  0.4060 -2.8056 -1.3991
  359MOL0     H48462   4.517   4.755   8.252 -2.3215 -0.4315 -1.2181
  359MOL0     H48463   4.535   4.479   7.946 -0.1526  0.3412  0.5709
  359MOL0     H48464   4.389   4.907   8.763 -2.4650  2.0721 -2.3907
  359MOL0     H48465   4.333   4.965   8.985 -0.3373  1.0057 -2.6602
  360MOL0     O48466   2.051   7.320   8.698 -0.1985 -0.9504  0.3226
  360MOL0     C48467   1.961   7.247   8.656 -0.2144 -0.3708 -0.2901
  360MOL0     O48468   1.865   7.186   8.733 -0.0082 -0.2212 -0.0264
  360MOL0     C48469   1.860   7.215   8.866  0.2317  0.3332  0.0597
  360MOL0     C48470   1.740   7.173   8.923 -0.1559  0.9908  0.7540
  360MOL0     C48471   1.726   7.173   9.063  0.4478 -0.2820  0.4371
  360MOL0     C48472   1.824   7.230   9.148  0.4697 -0.4704  0.0404
  360MOL0     O48473   1.804   7.253   9.285 -0.1281 -0.8423  1.2206
  360MOL0     C48474   1.671   7.257   9.345  0.8413 -0.2965 -1.1750
  360MOL0     C48475   1.681   7.286   9.502  0.8209  0.0209  0.0518
  360MOL0     C48476   1.553   7.256   9.581 -0.2243  0.7138 -0.2506
  360MOL0     C48477   1.510   7.114   9.604  0.8836  0.2269  0.1398
  360MOL0     C48478   1.393   7.105   9.707  0.6611 -0.1256 -0.1811
  360MOL0     C48479   1.362   6.959   9.750 -0.1741 -0.1109  0.1274
  360MOL0     C48480   1.469   6.886   9.833 -0.0510 -0.8644 -0.1778
  360MOL0     C48481   1.479   6.911   9.974  0.2095  0.5689 -0.8303
  360MOL0     N48482   1.562   6.812  10.034 -0.3758 -0.1056 -0.1238
  360MOL0     C48483   1.692   6.822  10.069 -0.4115 -0.1981  0.9763
  360MOL0     C48484   1.726   6.700  10.123 -0.4652  0.0975  0.7078
  360MOL0     C48485   1.859   6.649  10.187  0.0381  0.5414  0.1996
  360MOL0     C48486   1.937   6.575  10.072  0.6645 -0.5044  1.0963
  360MOL0     C48487   2.063   6.499  10.126  0.5453  0.4051  0.7630
  360MOL0     C48488   2.178   6.591  10.163 -0.0542 -0.2873 -0.0905
  360MOL0     O48489   2.215   6.662  10.037  0.4271  0.4119  0.1191
  360MOL0     C48490   2.331   6.741  10.043  0.1558 -0.1697  0.4119
  360MOL0     C48491   2.313   6.883  10.031 -0.7211 -0.1406 -0.2823
  360MOL0     C48492   2.425   6.979  10.044  0.5243  0.4262  0.6180
  360MOL0     C48493   2.398   7.135  10.019  0.5892  0.1605  0.0600
  360MOL0     C48494   2.552   6.921  10.055  0.5675  0.0813 -0.2956
  360MOL0     C48495   2.683   7.005  10.068  0.9508  0.5279  0.0681
  360MOL0     O48496   2.786   6.926  10.078  0.1227  0.2521 -0.2538
  360MOL0     C48497   2.918   6.970  10.065 -0.3127  0.0864  0.5913
  360MOL0     C48498   2.966   7.051  10.162  0.1709 -0.2207  0.1674
  360MOL0     C48499   3.102   7.082  10.171  0.2969 -0.4480  0.5147
  360MOL0     C48500   3.183   7.048  10.066 -0.6186  0.3477  0.6125
  360MOL0     O48501   3.312   7.096  10.081 -0.2485  0.0865 -0.3195
  360MOL0     C48502   3.386   7.136   9.963  0.6656  0.0473  0.0439
  360MOL0     C48503   3.335   7.257   9.888  0.5544 -1.0143 -1.2348
  360MOL0     C48504   3.419   7.299   9.767 -0.1057 -0.5399  0.3496
  360MOL0     C48505   3.439   7.175   9.674  0.3835  0.6336 -0.0629
  360MOL0     C48506   3.467   7.209   9.527 -0.3622 -0.4254 -0.2502
  360MOL0     C48507   3.583   7.305   9.502  0.1227  0.4865 -0.4769
  360MOL0     C48508   3.546   7.458   9.508  0.1562 -0.5079  0.5402
  360MOL0     C48509   3.628   7.546   9.411  0.6113  0.0625  0.5385
  360MOL0    Cl48510   3.614   7.471   9.245  0.0551 -0.2432 -0.0695
  360MOL0     C48511   3.132   6.966   9.959  0.1627  0.9621 -0.9604
  360MOL0     C48512   2.998   6.929   9.961 -0.0919 -0.2312 -0.7613
  360MOL0     O48513   2.684   7.129  10.060 -0.8860 -0.3437  0.7874
  360MOL0     C48514   2.568   6.786  10.072 -0.2729  0.2255 -0.0507
  360MOL0     C48515   2.463   6.692  10.061  0.1801  0.8454 -0.1324
  360MOL0     N48516   1.611   6.619  10.106  0.0512 -0.1803 -0.6219
  360MOL0     N48517   1.513   6.693  10.066 -0.9435  1.3740 -0.7929
  360MOL0     C48518   1.948   7.262   9.095  0.5021  0.3172 -0.0508
  360MOL0     C48519   1.967   7.243   8.955 -0.2848  0.2040  0.0011
  360MOL0     C48520   1.961   7.233   8.509  0.2583 -0.4161  0.2912
  360MOL0     C48521   1.891   7.123   8.455  0.8250  0.2975 -0.2491
  360MOL0     C48522   1.878   7.103   8.315  0.0040  0.5645 -0.0907
  360MOL0     C48523   1.952   7.185   8.233 -1.2250 -0.4557 -0.1264
  360MOL0     O48524   1.944   7.196   8.101  1.0230 -0.6366 -0.3026
  360MOL0     C48525   1.861   7.094   8.032 -0.0835 -0.5907  0.2315
  360MOL0     C48526   1.886   7.091   7.877 -0.2848 -0.7936 -0.5925
  360MOL0     C48527   1.916   7.231   7.822 -0.8004 -0.8771 -0.0737
  360MOL0     C48528   1.992   7.223   7.689  0.1639  1.1714 -0.1918
  360MOL0     C48529   1.901   7.161   7.590  0.3702  0.4326  0.4500
  360MOL0     C48530   1.810   7.127   7.517 -0.8673 -0.2734  0.6222
  360MOL0     C48531   2.023   7.295   8.284 -0.5755 -0.1510 -0.2858
  360MOL0     C48532   2.028   7.325   8.418  0.2941 -0.0792  0.2440
  360MOL0     H48533   1.663   7.130   8.859  0.7631  1.1943 -0.5236
  360MOL0     H48534   1.628   7.152   9.105  0.8312 -0.0798  1.4705
  360MOL0     H48535   1.600   7.326   9.298 -2.3946 -0.4497  2.9094
  360MOL0     H48536   1.628   7.157   9.337 -1.1195  0.4917 -0.9822
  360MOL0     H48537   1.753   7.211   9.534 -0.8880 -0.4489  3.2275
  360MOL0     H48538   1.704   7.391   9.522  1.2708 -0.4438  2.2498
  360MOL0     H48539   1.576   7.288   9.683  2.4756 -0.6536 -0.3472
  360MOL0     H48540   1.471   7.308   9.530  2.4349  3.5525 -2.0610
  360MOL0     H48541   1.486   7.072   9.506  2.3081  0.6911 -0.4433
  360MOL0     H48542   1.593   7.053   9.641 -2.2180 -2.4660  3.4522
  360MOL0     H48543   1.407   7.162   9.800 -1.3474 -0.2084  0.2237
  360MOL0     H48544   1.302   7.133   9.652 -0.8391 -2.1445  1.1085
  360MOL0     H48545   1.272   6.975   9.810 -0.2665  1.2974 -0.3442
  360MOL0     H48546   1.335   6.900   9.662 -2.6164  1.5361 -0.3246
  360MOL0     H48547   1.442   6.782   9.812  0.8592 -1.2958  0.6957
  360MOL0     H48548   1.566   6.891   9.781 -0.3611 -3.5482 -1.1552
  360MOL0     H48549   1.380   6.902  10.019 -0.4322 -5.3952 -2.5831
  360MOL0     H48550   1.525   7.010   9.981  0.7099  0.4039 -1.6283
  360MOL0     H48551   1.747   6.915  10.064 -0.1926 -0.3956 -1.3775
  360MOL0     H48552   1.924   6.721  10.237  0.1193  1.2482 -0.9120
  360MOL0     H48553   1.839   6.573  10.264 -1.3565  1.3316  0.6569
  360MOL0     H48554   1.956   6.645   9.991 -1.2399 -0.1330  0.9369
  360MOL0     H48555   1.874   6.501  10.022 -1.1133  1.5873  0.0848
  360MOL0     H48556   2.093   6.429  10.048 -3.3688  1.3731 -1.9605
  360MOL0     H48557   2.036   6.450  10.220  1.7276  1.4262  1.6649
  360MOL0     H48558   2.261   6.537  10.210 -0.4484 -0.3023  0.6033
  360MOL0     H48559   2.153   6.675  10.229  2.6897  0.0588  0.6321
  360MOL0     H48560   2.218   6.935  10.023  0.5828  2.7371  1.2107
  360MOL0     H48561   2.290   7.144  10.015  0.6384  0.8819  0.2272
  360MOL0     H48562   2.432   7.201  10.100 -4.1163  0.1764  2.3207
  360MOL0     H48563   2.444   7.172   9.927  0.7408 -0.4585 -0.1175
  360MOL0     H48564   2.900   7.089  10.239  0.9499  0.3213  0.5851
  360MOL0     H48565   3.134   7.146  10.253 -0.4863 -1.0833  1.3406
  360MOL0     H48566   3.491   7.143   9.995  0.1692 -1.1155  2.0957
  360MOL0     H48567   3.369   7.048   9.902  0.7271 -0.1057  0.2458
  360MOL0     H48568   3.232   7.252   9.853  1.0248  3.9110 -4.2660
  360MOL0     H48569   3.356   7.341   9.955 -1.3471 -0.8507 -0.7879
  360MOL0     H48570   3.515   7.345   9.795  0.5804 -2.0286  0.5325
  360MOL0     H48571   3.369   7.376   9.708  0.1496 -0.4918  0.1928
  360MOL0     H48572   3.539   7.136   9.695  1.2332 -0.1378 -4.5155
  360MOL0     H48573   3.361   7.098   9.680  1.6416 -1.1629 -3.8639
  360MOL0     H48574   3.376   7.238   9.474  0.6628  3.3544 -0.2488
  360MOL0     H48575   3.500   7.118   9.475 -1.1060 -1.1340  0.4870
  360MOL0     H48576   3.662   7.283   9.575 -0.5605  0.0885  0.1507
  360MOL0     H48577   3.628   7.281   9.405  0.5249 -0.2642 -0.1126
  360MOL0     H48578   3.558   7.495   9.610 -2.7939  1.0426  0.4373
  360MOL0     H48579   3.441   7.473   9.481  1.0981  1.4304 -2.5971
  360MOL0     H48580   3.732   7.545   9.444  0.3853  4.3491  2.0755
  360MOL0     H48581   3.586   7.646   9.421 -1.6536 -0.4792 -2.2990
  360MOL0     H48582   3.200   6.951   9.876  1.9998 -0.8306  0.7409
  360MOL0     H48583   2.956   6.860   9.888 -4.6693  0.5439  0.7853
  360MOL0     H48584   2.661   6.738  10.099 -1.0678 -1.7699 -0.6604
  360MOL0     H48585   2.485   6.587  10.081 -0.4044  0.0598 -3.1282
  360MOL0     H48586   2.034   7.286   9.158 -0.4230  2.3564  0.5258
  360MOL0     H48587   2.069   7.263   8.922 -0.4131  0.7318 -0.0734
  360MOL0     H48588   1.846   7.044   8.515 -1.2102  0.2396 -1.7400
  360MOL0     H48589   1.816   7.019   8.284 -3.3419  3.5491 -2.3047
  360MOL0     H48590   1.862   6.994   8.077 -2.7022 -0.5095  0.6140
  360MOL0     H48591   1.757   7.127   8.045 -0.9217 -1.5401 -3.1350
  360MOL0     H48592   1.793   7.052   7.835 -0.6359 -1.8206  1.0107
  360MOL0     H48593   1.965   7.017   7.863  1.0036  0.7099 -1.4824
  360MOL0     H48594   1.981   7.289   7.887 -1.5098 -0.4174  0.2465
  360MOL0     H48595   1.824   7.290   7.807 -0.7763  0.2050  3.3417
  360MOL0     H48596   2.087   7.169   7.693 -3.0308 -5.7400 -2.1823
  360MOL0     H48597   2.019   7.326   7.663  1.0506  0.4913 -2.1748
  360MOL0     H48598   1.732   7.100   7.449  0.8472 -0.1587 -1.5058
  360MOL0     H48599   2.078   7.352   8.210  0.4779 -2.7404 -1.6636
  360MOL0     H48600   2.084   7.411   8.453 -2.1926  1.6079  0.3421
  361MOL0     O48601   8.152  11.345   0.226  0.3865 -0.4531 -0.6905
  361MOL0     C48602   8.255  11.328   0.164  0.5953  0.5675 -0.3819
  361MOL0     O48603   8.378  11.340   0.210 -0.1315 -0.6210  0.2328
  361MOL0     C48604   8.388  11.396   0.334 -0.1209 -0.0951 -0.4689
  361MOL0     C48605   8.429  11.317   0.441 -0.2430 -0.6679 -0.4540
  361MOL0     C48606   8.451  11.368   0.567  0.3671  0.2406  0.6001
  361MOL0     C48607   8.435  11.508   0.588 -0.1939  0.4261 -0.1511
  361MOL0     O48608   8.452  11.564   0.710 -0.3916  0.0630 -1.0091
  361MOL0     C48609   8.417  11.489   0.829  1.1432 -0.1535 -0.6345
  361MOL0     C48610   8.299  11.556   0.899  0.0322  0.2471 -0.6415
  361MOL0     C48611   8.159  11.553   0.825  0.9567  0.2144 -0.3029
  361MOL0     C48612   8.060  11.649   0.913 -0.2165  0.8471 -0.1308
  361MOL0     C48613   7.938  11.691   0.820 -0.4216 -0.7798  0.0660
  361MOL0     C48614   7.856  11.809   0.880  0.4524 -0.3442 -0.7399
  361MOL0     C48615   7.740  11.852   0.807  0.1689 -0.0667 -0.2249
  361MOL0     C48616   7.661  11.974   0.873  0.2878 -0.4803  0.2684
  361MOL0     N48617   7.557  11.929   0.962  0.2818 -0.2137  0.2002
  361MOL0     C48618   7.568  11.856   1.078 -0.0761 -0.1746 -0.7091
  361MOL0     C48619   7.439  11.826   1.104  0.5047  0.9368  0.7012
  361MOL0     C48620   7.387  11.747   1.222  0.2162  0.0873 -0.8683
  361MOL0     C48621   7.404  11.598   1.214  0.1253 -0.1041  0.3342
  361MOL0     C48622   7.543  11.553   1.258 -0.5979 -0.4663  1.0017
  361MOL0     C48623   7.557  11.411   1.323  0.3066  0.2761 -0.2133
  361MOL0     O48624   7.461  11.404   1.433 -0.4371 -0.7817 -0.4649
  361MOL0     C48625   7.447  11.292   1.488  0.7895  0.3474 -0.8287
  361MOL0     C48626   7.543  11.183   1.493 -0.1808 -0.1275 -1.0794
  361MOL0     C48627   7.520  11.069   1.565 -0.8672 -0.2709 -0.7140
  361MOL0     C48628   7.630  10.968   1.573 -0.2571 -0.5015  0.7311
  361MOL0     C48629   7.393  11.049   1.615 -0.0734  0.5681 -0.8319
  361MOL0     C48630   7.351  10.916   1.678  0.1710  0.1572 -0.7397
  361MOL0     O48631   7.269  10.920   1.781  0.0914 -0.3514 -0.6486
  361MOL0     C48632   7.255  10.804   1.856 -0.4818 -0.3186  1.1035
  361MOL0     C48633   7.328  10.771   1.972  1.1098  0.0472 -0.7153
  361MOL0     C48634   7.305  10.653   2.036  0.5333  0.1058 -0.1957
  361MOL0     C48635   7.197  10.573   2.000 -0.6179 -0.3987  0.0936
  361MOL0     O48636   7.177  10.462   2.069  0.0281 -0.2576  0.1655
  361MOL0     C48637   7.167  10.338   1.994 -0.5681 -1.2529  0.2923
  361MOL0     C48638   7.161  10.215   2.089 -0.5089  0.1549  0.1190
  361MOL0     C48639   7.037  10.217   2.171  0.2855  0.2549 -0.5668
  361MOL0     C48640   7.027  10.078   2.236  0.6587 -0.0987 -0.4914
  361MOL0     C48641   6.898  10.088   2.324  0.0586 -0.0552  1.2883
  361MOL0     C48642   6.875   9.964   2.415 -0.0084 -0.5125  0.2598
  361MOL0     C48643   6.951   9.972   2.547 -0.5096  0.1262 -0.2225
  361MOL0     C48644   6.862  10.000   2.681  0.4168  0.6422  0.3118
  361MOL0    Cl48645   6.725   9.885   2.701  0.3517  0.0224  0.0185
  361MOL0     C48646   7.118  10.605   1.893  0.6092 -0.5174  1.2377
  361MOL0     C48647   7.150  10.721   1.819 -0.2502  0.6171 -1.0354
  361MOL0     O48648   7.384  10.812   1.618  0.0274  0.6037 -0.1571
  361MOL0     C48649   7.304  11.156   1.628 -0.6340 -0.2624  0.4498
  361MOL0     C48650   7.341  11.276   1.569 -0.2485  0.0486 -0.5373
  361MOL0     N48651   7.351  11.883   1.004  0.7195 -0.3411 -0.0950
  361MOL0     N48652   7.431  11.936   0.918  0.6019  0.0024 -0.2576
  361MOL0     C48653   8.407  11.588   0.481 -0.7661  0.0141 -0.4938
  361MOL0     C48654   8.379  11.530   0.353 -0.7438 -0.7608 -0.4650
  361MOL0     C48655   8.243  11.256   0.031 -0.4668  0.7790 -0.2768
  361MOL0     C48656   8.340  11.262  -0.071  0.4883 -0.4363 -0.6287
  361MOL0     C48657   8.328  11.186  -0.189 -0.3515 -0.7646  0.1041
  361MOL0     C48658   8.227  11.092  -0.203 -0.2417  1.0034  0.9036
  361MOL0     O48659   8.223  11.014  -0.317  0.3016  0.5576 -0.1430
  361MOL0     C48660   8.283  10.889  -0.310 -0.3720 -0.1610 -0.3114
  361MOL0     C48661   8.430  10.906  -0.349 -0.2541 -0.5880 -0.2358
  361MOL0     C48662   8.437  10.927  -0.499  0.5407  0.2399  0.0002
  361MOL0     C48663   8.390  11.068  -0.546 -0.6277 -0.0925 -0.1890
  361MOL0     C48664   8.425  11.095  -0.687  0.0623  0.6283 -0.6147
  361MOL0     C48665   8.440  11.099  -0.806  0.6010  0.8578 -1.0331
  361MOL0     C48666   8.131  11.083  -0.109  0.4208 -0.3842  0.3240
  361MOL0     C48667   8.131  11.166   0.004 -0.4551 -0.9331 -0.7316
  361MOL0     H48668   8.436  11.210   0.424 -1.0321 -1.0575  1.4171
  361MOL0     H48669   8.478  11.297   0.645 -1.1743  1.8455  2.7286
  361MOL0     H48670   8.379  11.387   0.814  0.2233 -0.0670  0.8204
  361MOL0     H48671   8.503  11.488   0.896  0.4508 -2.0044  0.3092
  361MOL0     H48672   8.283  11.523   1.002 -1.4228 -0.8424 -1.1840
  361MOL0     H48673   8.333  11.660   0.903  0.4671  0.0924 -0.3131
  361MOL0     H48674   8.163  11.587   0.721 -2.0227 -1.2938 -1.0458
  361MOL0     H48675   8.123  11.450   0.830 -0.5212  0.7161  0.0061
  361MOL0     H48676   8.028  11.603   1.008 -0.9465  0.4488 -0.5641
  361MOL0     H48677   8.123  11.735   0.938  4.1589 -2.3450  1.3176
  361MOL0     H48678   7.968  11.713   0.717 -1.6502  0.7590 -0.0035
  361MOL0     H48679   7.875  11.604   0.802 -0.6788 -0.4303 -0.7669
  361MOL0     H48680   7.817  11.760   0.970 -1.8735  2.4196 -0.1003
  361MOL0     H48681   7.929  11.885   0.906  0.3295 -0.6187  0.4661
  361MOL0     H48682   7.784  11.892   0.715  0.4941 -0.9836 -0.4864
  361MOL0     H48683   7.663  11.776   0.788 -1.3880  0.6541  2.6545
  361MOL0     H48684   7.612  12.044   0.805  1.4684  1.1348  1.0028
  361MOL0     H48685   7.743  12.030   0.919 -0.2359  0.1259  0.4753
  361MOL0     H48686   7.654  11.819   1.132  1.1088  0.4453 -2.1052
  361MOL0     H48687   7.434  11.773   1.316  0.1210 -0.4398 -0.6696
  361MOL0     H48688   7.285  11.781   1.240  0.2815 -0.4081  0.5116
  361MOL0     H48689   7.391  11.560   1.112 -0.0500  0.4344  0.1503
  361MOL0     H48690   7.326  11.558   1.280 -1.5876 -1.3486 -2.2735
  361MOL0     H48691   7.599  11.631   1.309  1.3820 -1.0846 -0.1139
  361MOL0     H48692   7.594  11.546   1.161 -3.4398  0.0208 -0.6511
  361MOL0     H48693   7.659  11.395   1.358  1.4446 -3.3765 -4.3873
  361MOL0     H48694   7.535  11.331   1.252 -2.1014  1.9193 -1.4537
  361MOL0     H48695   7.631  11.201   1.431  0.3932  1.0189  0.0407
  361MOL0     H48696   7.625  10.899   1.488 -3.9585  0.4174 -0.0031
  361MOL0     H48697   7.723  11.025   1.570 -0.1637 -0.5930  1.6186
  361MOL0     H48698   7.627  10.913   1.667  0.2515 -0.1622  0.9494
  361MOL0     H48699   7.402  10.835   2.020  2.7205 -2.0993 -0.1837
  361MOL0     H48700   7.363  10.637   2.127  0.0831 -2.0135 -0.2143
  361MOL0     H48701   7.078  10.346   1.932  0.7389  1.7517 -1.4354
  361MOL0     H48702   7.257  10.326   1.933  0.2901  1.5327  0.8364
  361MOL0     H48703   7.157  10.120   2.034 -1.3551  0.2774 -0.0467
  361MOL0     H48704   7.250  10.202   2.151 -0.3156 -0.5999 -0.3008
  361MOL0     H48705   6.942  10.221   2.118 -0.2283 -1.0247  0.2177
  361MOL0     H48706   7.040  10.294   2.249  0.3612 -0.6388  0.3233
  361MOL0     H48707   7.002  10.001   2.162  1.4720  1.3211 -2.3164
  361MOL0     H48708   7.116  10.045   2.290  1.5348  0.0854 -1.7738
  361MOL0     H48709   6.812  10.099   2.257  0.6977 -0.6313  0.3505
  361MOL0     H48710   6.907  10.172   2.394 -0.7838 -1.7544  3.5307
  361MOL0     H48711   6.768   9.948   2.432  0.2141 -0.9647  1.3607
  361MOL0     H48712   6.904   9.874   2.360  0.4878  0.4533 -1.1132
  361MOL0     H48713   7.028  10.049   2.534 -0.5009 -0.1028 -1.7671
  361MOL0     H48714   6.998   9.876   2.565 -1.7146  0.0105  2.8612
  361MOL0     H48715   6.817  10.097   2.658 -0.8018  0.4411  1.6907
  361MOL0     H48716   6.920  10.003   2.774  0.7088  0.2803  0.1432
  361MOL0     H48717   7.036  10.543   1.859  2.2822 -1.5119 -1.2499
  361MOL0     H48718   7.087  10.734   1.732  1.2307 -0.5827 -2.3406
  361MOL0     H48719   7.204  11.150   1.669 -1.4618  0.6624 -1.3497
  361MOL0     H48720   7.277  11.363   1.586 -0.4348  0.0919 -1.4467
  361MOL0     H48721   8.408  11.694   0.503  2.4501 -0.0847  0.2798
  361MOL0     H48722   8.344  11.594   0.272  2.8452 -0.1463 -1.7216
  361MOL0     H48723   8.424  11.329  -0.053 -1.0320  1.2545  0.6219
  361MOL0     H48724   8.406  11.197  -0.263  0.4586 -3.8176  0.4004
  361MOL0     H48725   8.274  10.842  -0.212  0.6509 -1.6398 -0.8799
  361MOL0     H48726   8.220  10.822  -0.369 -2.2134  0.0149  1.3635
  361MOL0     H48727   8.482  10.812  -0.330 -0.4674 -0.4524  1.0674
  361MOL0     H48728   8.477  10.983  -0.287 -2.5142  0.7538 -0.0966
  361MOL0     H48729   8.396  10.834  -0.540  2.3454 -1.3573  1.5990
  361MOL0     H48730   8.545  10.929  -0.514  0.6956 -0.3829  0.9117
  361MOL0     H48731   8.448  11.146  -0.495 -6.3304  3.0034  2.5610
  361MOL0     H48732   8.282  11.077  -0.531 -0.6740 -1.8915  0.7245
  361MOL0     H48733   8.455  11.144  -0.902 -0.8710 -1.3595 -2.3949
  361MOL0     H48734   8.050  11.011  -0.117  0.7935 -1.0595  2.1601
  361MOL0     H48735   8.049  11.148   0.072  0.4463 -0.4639  0.5053
  362MOL0     O48736   2.119   4.387   2.461  0.5378  0.0259 -0.0521
  362MOL0     C48737   2.232   4.354   2.418  0.3900  0.1003  0.2303
  362MOL0     O48738   2.319   4.432   2.345  0.0502 -0.0871  0.8565
  362MOL0     C48739   2.293   4.566   2.323 -0.0310  0.3818  0.2161
  362MOL0     C48740   2.294   4.599   2.182  0.6931  0.2302 -0.5713
  362MOL0     C48741   2.270   4.738   2.160  0.0003  0.0981  0.2991
  362MOL0     C48742   2.244   4.827   2.266 -0.0965  1.6994  0.4515
  362MOL0     O48743   2.238   4.962   2.257  0.4435  0.0977 -1.3235
  362MOL0     C48744   2.157   5.030   2.158  0.5686  0.4981  0.6790
  362MOL0     C48745   2.008   5.035   2.193  0.5822  0.7856  1.0017
  362MOL0     C48746   1.983   5.126   2.309 -0.0373 -0.0520 -0.5846
  362MOL0     C48747   1.859   5.092   2.385  0.6837 -1.1467  0.6468
  362MOL0     C48748   1.848   5.201   2.492  0.5390  0.7101  0.2450
  362MOL0     C48749   1.711   5.176   2.564 -0.0045  0.9916  0.3456
  362MOL0     C48750   1.604   5.278   2.517  0.3686  0.7275  0.1148
  362MOL0     C48751   1.531   5.243   2.386 -0.2787 -0.9958  0.7282
  362MOL0     N48752   1.438   5.137   2.411  0.6014  0.1752  0.0909
  362MOL0     C48753   1.450   5.004   2.401 -0.0231  0.4490  0.9035
  362MOL0     C48754   1.322   4.947   2.414  0.0435 -0.3131  0.1588
  362MOL0     C48755   1.285   4.804   2.409 -0.7592 -0.4692  0.6089
  362MOL0     C48756   1.142   4.761   2.436  0.0969 -0.2910 -0.0617
  362MOL0     C48757   1.130   4.609   2.412  0.6221 -0.2596  0.0692
  362MOL0     C48758   0.997   4.541   2.449  0.1019  0.2088  0.6707
  362MOL0     O48759   0.891   4.602   2.377 -0.7590 -0.1642 -0.4656
  362MOL0     C48760   0.770   4.548   2.407 -0.1109 -0.0565 -0.4091
  362MOL0     C48761   0.740   4.443   2.495 -0.2732  0.5430  0.1154
  362MOL0     C48762   0.616   4.405   2.525  0.6404 -0.4269  0.5724
  362MOL0     C48763   0.605   4.300   2.628 -0.3497  0.5248 -0.1145
  362MOL0     C48764   0.508   4.474   2.462 -0.7284  0.5239 -0.8185
  362MOL0     C48765   0.373   4.438   2.491  0.2732 -0.3316 -0.4868
  362MOL0     O48766   0.335   4.303   2.502 -0.0355 -0.3133 -0.0694
  362MOL0     C48767   0.210   4.275   2.544  0.3967 -0.7085 -0.4317
  362MOL0     C48768   0.188   4.200   2.656  0.1002  0.2874 -0.6488
  362MOL0     C48769   0.054   4.163   2.686  0.0068 -1.2750  0.3009
  362MOL0     C48770  -0.049   4.172   2.588  0.4229  0.1399 -1.0502
  362MOL0     O48771  -0.162   4.104   2.618 -0.4494  0.1919 -1.1701
  362MOL0     C48772  -0.230   4.038   2.509 -0.0464 -0.5481  0.0854
  362MOL0     C48773  -0.377   4.000   2.540  0.7760 -0.5548  0.1464
  362MOL0     C48774  -0.447   3.927   2.428 -0.4000 -0.0331  0.6473
  362MOL0     C48775  -0.443   3.998   2.285  0.4966  0.4487  0.0783
  362MOL0     C48776  -0.536   3.955   2.169  0.5390  0.0193 -0.2469
  362MOL0     C48777  -0.539   3.806   2.151 -1.1561  0.5271  0.1757
  362MOL0     C48778  -0.656   3.763   2.068 -0.2119 -0.5620 -0.2082
  362MOL0     C48779  -0.788   3.731   2.144 -0.0303  0.0428  0.1659
  362MOL0    Cl48780  -0.916   3.719   2.019 -0.2896  0.4374  0.0928
  362MOL0     C48781  -0.023   4.248   2.481 -0.7289 -0.4956 -0.4437
  362MOL0     C48782   0.108   4.301   2.459 -0.5114  0.2427  0.1268
  362MOL0     O48783   0.289   4.527   2.500  0.5073  1.0764 -0.1145
  362MOL0     C48784   0.537   4.572   2.369  0.5668 -0.4414 -0.3128
  362MOL0     C48785   0.664   4.606   2.342  0.7467 -0.4055 -0.1536
  362MOL0     N48786   1.239   5.055   2.423  1.2280  0.2292 -0.6075
  362MOL0     N48787   1.306   5.170   2.423  0.7226 -0.0216 -0.1026
  362MOL0     C48788   2.251   4.787   2.398 -0.2981 -0.5220 -0.2221
  362MOL0     C48789   2.263   4.652   2.430  0.1251  0.0864 -0.1994
  362MOL0     C48790   2.250   4.214   2.448 -0.8281  0.0797  0.0164
  362MOL0     C48791   2.375   4.145   2.417 -0.0258 -0.4893  0.2160
  362MOL0     C48792   2.401   4.016   2.439  0.2499 -0.5261 -0.3914
  362MOL0     C48793   2.308   3.935   2.503 -0.4453 -0.0469 -0.1730
  362MOL0     O48794   2.336   3.800   2.522 -0.6102 -0.3156 -0.1030
  362MOL0     C48795   2.465   3.747   2.479 -0.0414 -0.4173  0.6018
  362MOL0     C48796   2.472   3.599   2.508 -0.0030  0.2376  0.5225
  362MOL0     C48797   2.539   3.594   2.643 -1.0119  0.5443 -0.3977
  362MOL0     C48798   2.540   3.463   2.711 -0.4050 -0.1292  0.1014
  362MOL0     C48799   2.585   3.469   2.855  0.3775  0.1731 -0.3265
  362MOL0     C48800   2.618   3.490   2.968  0.4885  0.2891 -0.1038
  362MOL0     C48801   2.180   3.991   2.537 -0.2374 -0.0264 -0.5990
  362MOL0     C48802   2.158   4.126   2.512 -1.1978 -0.7486 -0.3317
  362MOL0     H48803   2.321   4.531   2.102  0.8829  0.6540 -0.8691
  362MOL0     H48804   2.269   4.770   2.056 -1.8240 -2.4231 -0.5757
  362MOL0     H48805   2.203   5.127   2.137  0.7433  0.2567 -0.0862
  362MOL0     H48806   2.161   4.970   2.066  1.8323  0.7159  0.5718
  362MOL0     H48807   1.949   5.079   2.112  0.7872 -0.7759 -0.0409
  362MOL0     H48808   1.978   4.931   2.206  3.7122 -0.6231 -1.5872
  362MOL0     H48809   2.060   5.110   2.385 -0.5472  1.0672  0.1817
  362MOL0     H48810   1.986   5.230   2.275 -0.4622 -0.0399 -0.5816
  362MOL0     H48811   1.772   5.100   2.318  1.8598 -1.8819 -1.0162
  362MOL0     H48812   1.863   4.990   2.424  1.2254 -1.7638 -0.9403
  362MOL0     H48813   1.934   5.193   2.559  0.4371 -2.5119  0.1788
  362MOL0     H48814   1.864   5.301   2.452  4.7506  0.1095 -0.0086
  362MOL0     H48815   1.670   5.076   2.551  0.4832  0.6580  1.2921
  362MOL0     H48816   1.738   5.194   2.669  0.3058 -0.5280  0.5431
  362MOL0     H48817   1.536   5.277   2.603  0.1234 -2.0853 -0.0144
  362MOL0     H48818   1.646   5.377   2.496  2.6292 -0.4824 -1.3942
  362MOL0     H48819   1.591   5.214   2.300  0.9921  1.3789  0.7287
  362MOL0     H48820   1.468   5.329   2.360  1.1657 -0.4139 -0.9463
  362MOL0     H48821   1.538   4.946   2.373  0.6116  1.4177  0.8443
  362MOL0     H48822   1.319   4.766   2.313 -1.9070  2.4476 -1.0715
  362MOL0     H48823   1.349   4.749   2.479 -0.7365 -1.1111  0.0957
  362MOL0     H48824   1.075   4.827   2.379 -0.0364 -0.9082 -0.6218
  362MOL0     H48825   1.115   4.786   2.539  0.1169 -2.1788  0.4229
  362MOL0     H48826   1.206   4.553   2.467 -0.5621 -2.3451 -0.3324
  362MOL0     H48827   1.132   4.597   2.304 -3.3652 -0.7040 -0.1083
  362MOL0     H48828   0.978   4.561   2.555  0.3767  1.3258  0.5303
  362MOL0     H48829   0.998   4.436   2.419 -0.9857  0.6482 -1.0031
  362MOL0     H48830   0.819   4.406   2.560 -1.9725 -0.5709  1.6308
  362MOL0     H48831   0.702   4.279   2.674  0.1884 -1.5326 -1.9879
  362MOL0     H48832   0.526   4.322   2.700 -2.6838  0.4701 -2.4870
  362MOL0     H48833   0.578   4.201   2.589  2.4893  0.4533 -2.1935
  362MOL0     H48834   0.273   4.166   2.715 -0.4632 -1.9115 -0.9917
  362MOL0     H48835   0.038   4.109   2.778 -2.1511  0.4098  0.9906
  362MOL0     H48836  -0.240   4.102   2.420  0.3727 -0.9512 -0.2559
  362MOL0     H48837  -0.174   3.949   2.479  0.0142 -0.8465  1.0612
  362MOL0     H48838  -0.378   3.936   2.630  0.6748  0.6968  1.0542
  362MOL0     H48839  -0.441   4.087   2.550 -0.5000 -1.2508 -1.4761
  362MOL0     H48840  -0.556   3.932   2.443 -0.7312  0.6691 -1.6477
  362MOL0     H48841  -0.411   3.824   2.422  1.6729  0.7032 -0.6651
  362MOL0     H48842  -0.461   4.105   2.298  1.6904  0.4689  1.9770
  362MOL0     H48843  -0.343   3.980   2.246  1.0449  3.2883 -0.0363
  362MOL0     H48844  -0.497   4.005   2.081 -1.9932  2.1969 -0.2527
  362MOL0     H48845  -0.637   3.996   2.181  1.2692  1.9830 -0.4993
  362MOL0     H48846  -0.447   3.762   2.113 -0.1606  1.3774  1.5034
  362MOL0     H48847  -0.564   3.761   2.248  2.8722  1.7158  1.9922
  362MOL0     H48848  -0.622   3.666   2.032  0.8470 -1.0228  1.8811
  362MOL0     H48849  -0.676   3.838   1.990 -0.2969  1.5565  1.7475
  362MOL0     H48850  -0.818   3.805   2.219 -1.2023  1.3392 -1.5131
  362MOL0     H48851  -0.759   3.638   2.194  0.7627 -1.5246 -2.9668
  362MOL0     H48852  -0.099   4.275   2.409 -1.4173 -1.8811 -0.2603
  362MOL0     H48853   0.140   4.360   2.374 -1.4828 -1.8815 -1.8338
  362MOL0     H48854   0.458   4.611   2.306 -2.6590 -1.8700  2.5780
  362MOL0     H48855   0.686   4.694   2.282 -0.3983  3.0193  3.9750
  362MOL0     H48856   2.232   4.856   2.480  0.2941  0.2701 -0.7424
  362MOL0     H48857   2.259   4.617   2.533 -0.1433  2.1047  0.5132
  362MOL0     H48858   2.444   4.208   2.362 -1.3297 -1.0199 -2.1491
  362MOL0     H48859   2.499   3.989   2.400 -0.9147 -0.9587 -3.2684
  362MOL0     H48860   2.473   3.764   2.371  0.0266 -4.3568 -0.1615
  362MOL0     H48861   2.554   3.794   2.521 -1.4700  1.4493  1.6655
  362MOL0     H48862   2.528   3.546   2.430 -2.6896 -1.9024 -0.1434
  362MOL0     H48863   2.371   3.557   2.504 -1.8095  4.1892  0.5957
  362MOL0     H48864   2.504   3.679   2.703  1.1415  2.7506 -2.0936
  362MOL0     H48865   2.646   3.604   2.625 -0.5948  0.5237  1.7924
  362MOL0     H48866   2.598   3.389   2.655  0.6607  0.6098  0.1958
  362MOL0     H48867   2.434   3.437   2.719 -0.8292  0.9207 -1.5630
  362MOL0     H48868   2.676   3.496   3.058  0.6082  3.9146 -0.2896
  362MOL0     H48869   2.103   3.931   2.584 -0.5616  0.6766 -0.2053
  362MOL0     H48870   2.066   4.175   2.541 -0.1743  2.2684 -1.8062
  363MOL0     O48871   7.029   1.574   1.377 -0.6768  0.4816  0.7254
  363MOL0     C48872   6.953   1.492   1.428 -0.6790 -0.5421  0.1035
  363MOL0     O48873   6.988   1.357   1.443  0.3230  0.2305  0.5443
  363MOL0     C48874   7.121   1.317   1.456  0.0886 -0.7185  0.4437
  363MOL0     C48875   7.230   1.406   1.463 -0.4374  0.3090 -0.1620
  363MOL0     C48876   7.352   1.342   1.467 -0.4333 -0.4627 -0.5754
  363MOL0     C48877   7.372   1.203   1.485  0.1290 -0.0407 -0.6119
  363MOL0     O48878   7.502   1.172   1.514 -1.1189 -0.0835  0.2691
  363MOL0     C48879   7.537   1.029   1.527  0.3752 -0.2656  0.2840
  363MOL0     C48880   7.517   0.988   1.668 -0.5766  0.1434  0.3329
  363MOL0     C48881   7.521   0.831   1.686  0.6935  0.0514  0.2368
  363MOL0     C48882   7.516   0.792   1.842  0.1132  0.2209  0.4924
  363MOL0     C48883   7.480   0.644   1.865 -1.1191 -1.0276  0.6821
  363MOL0     C48884   7.483   0.593   2.004 -0.4735 -0.2809  0.2095
  363MOL0     C48885   7.375   0.660   2.089  0.6123  1.0297 -0.5277
  363MOL0     C48886   7.323   0.592   2.211  0.8520  0.6781  0.9722
  363MOL0     N48887   7.231   0.481   2.182 -0.0289 -0.8411  0.3985
  363MOL0     C48888   7.090   0.488   2.192 -0.9107 -0.5942  1.0344
  363MOL0     C48889   7.041   0.359   2.187  0.0579  0.2242 -1.0546
  363MOL0     C48890   6.900   0.309   2.205  0.9387  0.1636 -0.0819
  363MOL0     C48891   6.855   0.248   2.335 -0.0702 -0.3661  0.1843
  363MOL0     C48892   6.928   0.122   2.389  0.6644  2.0061  0.0428
  363MOL0     C48893   6.847  -0.014   2.357  0.3557  0.0904  1.1902
  363MOL0     O48894   6.741  -0.017   2.447 -0.0638  0.9336  0.8486
  363MOL0     C48895   6.662  -0.126   2.466 -0.6434 -0.0274  0.3401
  363MOL0     C48896   6.523  -0.107   2.477  0.1883 -0.6470  0.1792
  363MOL0     C48897   6.439  -0.214   2.494 -0.2262  0.2568 -1.2942
  363MOL0     C48898   6.289  -0.185   2.508 -0.0984  0.1099  0.3862
  363MOL0     C48899   6.494  -0.348   2.495  1.1185  0.0310 -0.6317
  363MOL0     C48900   6.415  -0.483   2.486  0.3741  0.7968  0.1821
  363MOL0     O48901   6.484  -0.593   2.510  0.1552 -0.2873 -0.5662
  363MOL0     C48902   6.422  -0.722   2.508  0.0193 -0.5110  0.4505
  363MOL0     C48903   6.349  -0.757   2.397  0.8876  0.2842  0.6823
  363MOL0     C48904   6.268  -0.872   2.407  0.8161 -0.1174  0.2229
  363MOL0     C48905   6.242  -0.934   2.534  0.4468 -0.1320  0.2531
  363MOL0     O48906   6.155  -1.039   2.552 -0.1884  0.1252  0.1616
  363MOL0     C48907   6.113  -1.103   2.434 -0.5916  0.8006 -0.2455
  363MOL0     C48908   6.007  -1.206   2.468 -0.9800 -1.3331 -0.3974
  363MOL0     C48909   5.886  -1.149   2.544 -0.5649  1.1696  0.0839
  363MOL0     C48910   5.839  -1.018   2.489 -1.1031 -0.0957  0.5953
  363MOL0     C48911   5.766  -1.054   2.357 -0.3904 -0.3528  0.5368
  363MOL0     C48912   5.691  -0.934   2.295  0.5904  0.4532  0.8907
  363MOL0     C48913   5.636  -0.956   2.147 -0.5604 -0.7874 -0.0327
  363MOL0     C48914   5.529  -0.847   2.135 -0.0442  0.7490 -0.3600
  363MOL0    Cl48915   5.460  -0.870   1.970  0.2732 -0.0443  0.0373
  363MOL0     C48916   6.313  -0.887   2.641  0.2806  0.1878 -0.0762
  363MOL0     C48917   6.402  -0.786   2.633 -0.3340  0.5085  0.4783
  363MOL0     O48918   6.305  -0.482   2.435 -0.5797  1.1036  0.0299
  363MOL0     C48919   6.629  -0.363   2.498 -0.5855 -0.2453  0.2093
  363MOL0     C48920   6.715  -0.250   2.495 -0.2256 -0.1365  0.5357
  363MOL0     N48921   7.156   0.274   2.187  1.3218 -0.4343  0.1170
  363MOL0     N48922   7.260   0.352   2.175 -0.4272  0.6830  0.3212
  363MOL0     C48923   7.259   1.117   1.497  0.2322  0.3131 -1.1324
  363MOL0     C48924   7.135   1.174   1.481 -0.2722  0.7496 -1.0569
  363MOL0     C48925   6.819   1.528   1.452 -0.0733  0.3134 -0.2743
  363MOL0     C48926   6.746   1.428   1.516  0.1115 -0.0955 -0.3588
  363MOL0     C48927   6.605   1.458   1.548 -0.5682  0.5242  0.4088
  363MOL0     C48928   6.550   1.584   1.520 -0.0086 -0.4647 -0.8317
  363MOL0     O48929   6.426   1.604   1.565  0.3614 -0.7790 -0.2758
  363MOL0     C48930   6.336   1.681   1.482 -0.2632 -0.2483  0.7104
  363MOL0     C48931   6.323   1.631   1.337  0.4173  0.6768  0.0780
  363MOL0     C48932   6.286   1.482   1.330 -0.1813 -0.0755  0.3508
  363MOL0     C48933   6.334   1.421   1.190  0.3389 -0.3519  0.2731
  363MOL0     C48934   6.298   1.283   1.197  1.0191 -0.3708 -0.1340
  363MOL0     C48935   6.254   1.170   1.190  0.4883  0.4606  0.3883
  363MOL0     C48936   6.623   1.674   1.443  0.4711 -1.2930 -0.9769
  363MOL0     C48937   6.752   1.648   1.402 -0.0129  0.1764 -0.3965
  363MOL0     H48938   7.228   1.514   1.449 -1.4861  0.1489 -1.4614
  363MOL0     H48939   7.437   1.409   1.471  0.0289 -1.1233  1.4912
  363MOL0     H48940   7.482   0.955   1.469  0.1491  0.7721 -0.8732
  363MOL0     H48941   7.641   1.015   1.498 -0.3344  0.0258 -2.7042
  363MOL0     H48942   7.588   1.045   1.730  0.4987  0.0208 -0.7527
  363MOL0     H48943   7.423   1.026   1.709 -0.2011 -0.3160  1.6725
  363MOL0     H48944   7.429   0.787   1.647  2.3568 -5.2471  1.3715
  363MOL0     H48945   7.595   0.771   1.632  0.4050 -0.9338  0.9034
  363MOL0     H48946   7.612   0.825   1.884  0.0611 -0.9788  1.5987
  363MOL0     H48947   7.443   0.849   1.900  0.2958  0.9530  0.0243
  363MOL0     H48948   7.378   0.627   1.830 -0.4013 -1.2392 -1.4923
  363MOL0     H48949   7.557   0.590   1.810 -0.2792 -2.0350  2.7577
  363MOL0     H48950   7.453   0.488   1.995 -1.3447  0.0221 -0.6478
  363MOL0     H48951   7.584   0.604   2.043 -0.3510  0.3301 -0.2844
  363MOL0     H48952   7.419   0.751   2.130  0.0236  1.1634 -0.1727
  363MOL0     H48953   7.288   0.687   2.028  1.1530  0.9777 -1.3445
  363MOL0     H48954   7.273   0.663   2.278 -1.4802 -1.2533  1.4136
  363MOL0     H48955   7.413   0.542   2.248 -0.5629 -2.8503 -0.0195
  363MOL0     H48956   7.019   0.569   2.183 -1.1519 -1.0193 -2.2745
  363MOL0     H48957   6.826   0.388   2.191  0.0273 -0.5863  0.3562
  363MOL0     H48958   6.878   0.236   2.126 -3.1304  2.0337 -0.9325
  363MOL0     H48959   6.748   0.225   2.330 -0.0742 -0.1551 -0.8144
  363MOL0     H48960   6.876   0.322   2.412  2.8623  0.6863 -1.4922
  363MOL0     H48961   6.934   0.133   2.498  0.9653 -2.0896  0.5852
  363MOL0     H48962   7.032   0.121   2.358 -0.4286 -0.3419 -4.4181
  363MOL0     H48963   6.910  -0.103   2.362 -0.4388 -0.6719 -1.2218
  363MOL0     H48964   6.807  -0.007   2.256  1.3326 -0.4647  0.7494
  363MOL0     H48965   6.484  -0.008   2.460  2.9657  0.0773 -3.0747
  363MOL0     H48966   6.257  -0.187   2.613  0.4347 -0.8392  0.5447
  363MOL0     H48967   6.270  -0.083   2.476 -0.4331 -0.3106 -0.8027
  363MOL0     H48968   6.234  -0.264   2.456 -0.5087 -1.5735  3.1225
  363MOL0     H48969   6.352  -0.706   2.302 -1.0488  0.5916  0.7366
  363MOL0     H48970   6.215  -0.896   2.316  0.3624 -2.1722  0.9679
  363MOL0     H48971   6.082  -1.036   2.353  0.9740  1.6068 -0.2196
  363MOL0     H48972   6.197  -1.158   2.391  0.5834  2.8837 -0.7963
  363MOL0     H48973   5.967  -1.244   2.373  0.8632 -0.0684 -1.7459
  363MOL0     H48974   6.058  -1.289   2.519  1.2972 -2.2476 -3.8197
  363MOL0     H48975   5.926  -1.137   2.645  2.3349 -2.2869 -0.4235
  363MOL0     H48976   5.811  -1.229   2.539 -0.0542  0.6810  0.1232
  363MOL0     H48977   5.769  -0.974   2.560 -3.1166 -2.1937  0.0349
  363MOL0     H48978   5.909  -0.934   2.480 -3.8325  2.3469  0.7481
  363MOL0     H48979   5.695  -1.137   2.366 -1.0776  0.3519  2.0889
  363MOL0     H48980   5.845  -1.075   2.284 -0.2711 -0.2042  0.6220
  363MOL0     H48981   5.611  -0.895   2.357 -4.0109 -0.7572 -3.6213
  363MOL0     H48982   5.761  -0.852   2.274 -0.2017  1.5518  2.4147
  363MOL0     H48983   5.583  -1.052   2.141 -0.9092 -0.8810  2.8520
  363MOL0     H48984   5.702  -0.944   2.061  0.1488 -2.5098  0.2390
  363MOL0     H48985   5.568  -0.745   2.137  2.3390 -0.0926  2.4246
  363MOL0     H48986   5.456  -0.855   2.217  2.8722 -0.7594  2.2784
  363MOL0     H48987   6.291  -0.929   2.738 -3.4104  1.5799 -0.1697
  363MOL0     H48988   6.461  -0.763   2.721  1.6903  1.4667 -1.0458
  363MOL0     H48989   6.687  -0.455   2.502  0.5158  0.1926 -3.0350
  363MOL0     H48990   6.821  -0.269   2.509 -0.1003  1.3470  1.9547
  363MOL0     H48991   7.266   1.010   1.515  0.6445  0.7138  1.4287
  363MOL0     H48992   7.051   1.106   1.488 -0.0644  0.5399 -0.5192
  363MOL0     H48993   6.779   1.327   1.542 -3.8127 -1.1102  1.5933
  363MOL0     H48994   6.549   1.385   1.606 -0.6309  0.7145  0.5903
  363MOL0     H48995   6.235   1.673   1.523 -0.6503  1.3089  0.1218
  363MOL0     H48996   6.366   1.786   1.478 -0.2498 -0.0981 -5.4561
  363MOL0     H48997   6.412   1.642   1.274  1.4834  0.2262  1.4669
  363MOL0     H48998   6.251   1.691   1.280  0.9748 -0.8957 -2.4697
  363MOL0     H48999   6.177   1.468   1.327 -0.6826  2.8877  0.7055
  363MOL0     H49000   6.331   1.441   1.421 -0.6660  2.2575  1.7426
  363MOL0     H49001   6.442   1.435   1.173  0.7288 -0.8565  2.1320
  363MOL0     H49002   6.284   1.466   1.104 -0.2627 -1.3532  0.0798
  363MOL0     H49003   6.194   1.087   1.158  1.1562  0.7199 -1.7109
  363MOL0     H49004   6.583   1.775   1.432 -0.5995 -1.6399 -0.4547
  363MOL0     H49005   6.791   1.738   1.356 -1.0064  1.3124  0.9171
  364MOL0     O49006   3.988   6.616   5.012  0.8241 -0.3475  0.4439
  364MOL0     C49007   3.901   6.536   4.997  0.7013  1.4732 -0.6659
  364MOL0     O49008   3.918   6.393   4.997 -0.0254  0.1105 -0.6774
  364MOL0     C49009   4.038   6.346   5.021 -0.1578 -0.2361  0.1506
  364MOL0     C49010   4.067   6.242   4.938  0.4962  0.1501  0.6681
  364MOL0     C49011   4.185   6.164   4.951 -0.9299 -0.4748 -0.5480
  364MOL0     C49012   4.284   6.203   5.043  0.6545  0.1067 -0.0505
  364MOL0     O49013   4.400   6.132   5.064  0.6448 -0.3721  0.1317
  364MOL0     C49014   4.453   6.044   4.964  0.5930 -0.2224 -0.8135
  364MOL0     C49015   4.564   5.959   5.023  0.2479 -0.2969 -0.5249
  364MOL0     C49016   4.600   5.861   4.916 -0.6849 -0.4586  0.5285
  364MOL0     C49017   4.703   5.763   4.952 -0.3296  0.7258 -1.0573
  364MOL0     C49018   4.749   5.679   4.832  0.4168  0.9773  0.1436
  364MOL0     C49019   4.886   5.616   4.851 -0.1447 -0.1912 -0.3876
  364MOL0     C49020   4.895   5.524   4.967 -0.0467 -0.0648 -0.1691
  364MOL0     C49021   5.024   5.449   4.964 -0.4449  0.0769 -0.3714
  364MOL0     N49022   5.127   5.518   5.048 -0.3417 -0.5032  0.2091
  364MOL0     C49023   5.129   5.513   5.182  0.7301  0.5130 -0.6015
  364MOL0     C49024   5.251   5.568   5.214  0.5672 -0.6501  0.1208
  364MOL0     C49025   5.320   5.586   5.343 -0.8313 -0.0357 -0.5370
  364MOL0     C49026   5.257   5.701   5.423  1.2703  0.0143  0.4982
  364MOL0     C49027   5.284   5.716   5.573  0.0605  0.4919  0.6403
  364MOL0     C49028   5.216   5.829   5.637  0.4847 -0.1122 -0.8271
  364MOL0     O49029   5.282   5.959   5.623  0.1654  0.1434 -0.4512
  364MOL0     C49030   5.215   6.072   5.629  0.2412  0.4218 -0.3360
  364MOL0     C49031   5.094   6.097   5.694  1.0057 -0.3059 -0.0060
  364MOL0     C49032   5.040   6.223   5.700  0.4229 -0.5700 -0.5934
  364MOL0     C49033   4.899   6.237   5.763 -0.6859 -1.0573 -0.2516
  364MOL0     C49034   5.101   6.332   5.649  1.2099 -0.0373 -0.5015
  364MOL0     C49035   5.062   6.479   5.658  0.0757 -0.1058  0.7816
  364MOL0     O49036   4.987   6.524   5.764  0.2122  0.0714 -0.1245
  364MOL0     C49037   4.964   6.661   5.775  0.4206  0.6087  0.5621
  364MOL0     C49038   5.065   6.741   5.838 -0.6362  0.3619 -0.0437
  364MOL0     C49039   5.050   6.878   5.853  0.1314 -0.2884  0.4620
  364MOL0     C49040   4.925   6.932   5.824 -0.0225  0.2029 -0.4164
  364MOL0     O49041   4.913   7.072   5.841  0.2682 -0.2898  0.0249
  364MOL0     C49042   4.793   7.128   5.890 -0.0306  0.6078  0.7573
  364MOL0     C49043   4.787   7.279   5.864  0.8584 -0.4733 -0.4235
  364MOL0     C49044   4.766   7.319   5.717  0.2482 -1.1073  0.0059
  364MOL0     C49045   4.900   7.356   5.640 -0.0404 -0.0366 -0.0501
  364MOL0     C49046   4.870   7.397   5.497  0.3100 -0.3367  1.2760
  364MOL0     C49047   4.847   7.276   5.405 -0.1543 -0.2116 -0.2571
  364MOL0     C49048   4.836   7.331   5.267 -0.7357 -0.0931 -0.0889
  364MOL0     C49049   4.801   7.227   5.165  0.4483  0.5015  0.9015
  364MOL0    Cl49050   4.779   7.308   5.010 -0.2383  0.2091 -0.1071
  364MOL0     C49051   4.823   6.857   5.759 -0.9401 -1.5868 -0.7182
  364MOL0     C49052   4.840   6.721   5.737 -0.8111 -0.2600  0.6524
  364MOL0     O49053   5.101   6.556   5.569  0.4194 -0.1882  0.3969
  364MOL0     C49054   5.224   6.312   5.589 -0.0025  0.9639  0.0431
  364MOL0     C49055   5.284   6.183   5.577 -0.8017 -0.1292  0.2062
  364MOL0     N49056   5.310   5.624   5.101 -0.1416 -0.5710 -0.1290
  364MOL0     N49057   5.237   5.589   5.008 -0.1977  1.4400 -0.1546
  364MOL0     C49058   4.251   6.310   5.135  0.1712  0.3924 -1.2320
  364MOL0     C49059   4.132   6.382   5.117  0.7693  0.4021 -0.3657
  364MOL0     C49060   3.768   6.575   4.955 -0.3940 -0.3116 -0.5202
  364MOL0     C49061   3.659   6.484   4.905 -0.3847 -0.7523  0.2121
  364MOL0     C49062   3.535   6.527   4.871 -0.1441  0.2365 -0.2247
  364MOL0     C49063   3.509   6.665   4.873  0.6459  0.4014  0.1490
  364MOL0     O49064   3.398   6.713   4.816 -0.1847  0.5926  0.3277
  364MOL0     C49065   3.312   6.772   4.910  1.7963 -0.0911 -1.2761
  364MOL0     C49066   3.164   6.777   4.869  0.3788 -0.6766  0.0632
  364MOL0     C49067   3.066   6.813   4.983 -0.0923 -0.3737 -0.6958
  364MOL0     C49068   3.101   6.946   5.061 -0.0929  0.6169  0.1390
  364MOL0     C49069   3.116   7.061   4.971 -0.9415  0.0127 -1.0286
  364MOL0     C49070   3.118   7.165   4.912 -0.4866  0.4694 -0.3173
  364MOL0     C49071   3.607   6.755   4.910  0.6350  0.4956 -0.1026
  364MOL0     C49072   3.736   6.710   4.939 -0.8533  0.7767 -0.4768
  364MOL0     H49073   4.006   6.209   4.854  0.0750 -0.4792  1.2135
  364MOL0     H49074   4.203   6.089   4.876 -3.3446 -1.1973 -0.4766
  364MOL0     H49075   4.373   5.981   4.925  0.0387  1.6107 -2.8322
  364MOL0     H49076   4.481   6.093   4.870 -1.3297  1.3759 -0.6137
  364MOL0     H49077   4.646   6.027   5.048 -0.6589 -0.8653  5.2980
  364MOL0     H49078   4.531   5.917   5.118 -2.6771  2.6318 -0.0839
  364MOL0     H49079   4.514   5.802   4.884  0.0377 -0.9814 -0.5332
  364MOL0     H49080   4.627   5.920   4.828 -1.6628  0.3135  0.7402
  364MOL0     H49081   4.784   5.826   4.989 -1.8741  2.2293 -0.0798
  364MOL0     H49082   4.648   5.708   5.030  1.7608  0.1245  0.0503
  364MOL0     H49083   4.678   5.603   4.798  1.9827 -0.1037 -0.9171
  364MOL0     H49084   4.754   5.754   4.753 -3.7756  1.5400  0.1928
  364MOL0     H49085   4.922   5.564   4.762 -1.0404 -0.6664 -0.4856
  364MOL0     H49086   4.960   5.696   4.862 -0.4164 -0.1813  1.7215
  364MOL0     H49087   4.869   5.574   5.061 -2.0752 -0.1622 -0.6142
  364MOL0     H49088   4.819   5.448   4.947  1.3270 -3.2123  4.8156
  364MOL0     H49089   5.069   5.444   4.865  2.4872  1.1972  0.8055
  364MOL0     H49090   5.012   5.348   5.006  0.1994  0.4688  0.8262
  364MOL0     H49091   5.064   5.467   5.256  1.0886 -0.7452 -1.0282
  364MOL0     H49092   5.311   5.489   5.394 -0.8686 -0.6819 -1.7211
  364MOL0     H49093   5.427   5.602   5.328 -0.8283  0.4863  0.0088
  364MOL0     H49094   5.148   5.695   5.424  0.9414  3.4618  1.7488
  364MOL0     H49095   5.288   5.793   5.372  0.6776 -0.6986 -1.2118
  364MOL0     H49096   5.391   5.712   5.598 -0.4757  0.2461  3.1710
  364MOL0     H49097   5.223   5.638   5.620 -1.6881  1.9042  0.8276
  364MOL0     H49098   5.196   5.802   5.741  2.4627 -3.1496 -1.1161
  364MOL0     H49099   5.124   5.834   5.578  1.1646 -0.4366 -1.9411
  364MOL0     H49100   5.053   6.005   5.734  2.7798 -0.5600  1.3529
  364MOL0     H49101   4.830   6.297   5.702 -1.1942 -1.0072  0.3639
  364MOL0     H49102   4.848   6.141   5.773 -0.8385 -1.2073 -2.1009
  364MOL0     H49103   4.892   6.292   5.858  0.0840  1.4045 -1.5191
  364MOL0     H49104   5.156   6.685   5.852 -1.3576 -1.5336 -2.2722
  364MOL0     H49105   5.135   6.938   5.882  0.8286 -2.1744  2.6281
  364MOL0     H49106   4.705   7.082   5.844  1.1187  0.1721 -1.1153
  364MOL0     H49107   4.788   7.113   5.998  0.0499  1.6689  0.9126
  364MOL0     H49108   4.703   7.319   5.921  0.0719 -3.0895  0.3809
  364MOL0     H49109   4.876   7.333   5.899 -0.0185  0.8450 -0.1779
  364MOL0     H49110   4.702   7.407   5.704  2.8397  0.6071 -2.2018
  364MOL0     H49111   4.720   7.238   5.659  0.7746 -0.8407 -0.7963
  364MOL0     H49112   4.952   7.436   5.693  1.2310 -1.0866  0.3298
  364MOL0     H49113   4.969   7.271   5.636  1.2617  0.9113  1.1750
  364MOL0     H49114   4.955   7.453   5.459  0.6803 -1.4331  0.4366
  364MOL0     H49115   4.783   7.463   5.502  0.6084  0.6053 -2.6175
  364MOL0     H49116   4.937   7.215   5.419 -1.7640 -2.2106  2.3248
  364MOL0     H49117   4.749   7.232   5.426 -0.2358 -0.4815 -1.1630
  364MOL0     H49118   4.934   7.371   5.239 -0.6677  0.3159  0.7037
  364MOL0     H49119   4.766   7.415   5.264 -1.5307 -0.7364  0.1958
  364MOL0     H49120   4.708   7.178   5.195 -1.9105  1.5006 -3.7983
  364MOL0     H49121   4.888   7.161   5.167  0.9813  1.1900  2.5043
  364MOL0     H49122   4.730   6.903   5.728 -1.3767  0.3868  2.8788
  364MOL0     H49123   4.759   6.658   5.700 -0.2933 -0.8153  0.4637
  364MOL0     H49124   5.293   6.393   5.569  1.3083  0.3575  1.8655
  364MOL0     H49125   5.383   6.175   5.535 -0.8386 -0.3360  0.1594
  364MOL0     H49126   4.314   6.339   5.219 -2.8088 -2.5095  2.3715
  364MOL0     H49127   4.103   6.465   5.181  1.1826  1.7787 -1.8880
  364MOL0     H49128   3.673   6.380   4.878 -0.4661  0.0189 -3.2926
  364MOL0     H49129   3.450   6.463   4.850 -1.9775  1.5475  2.4941
  364MOL0     H49130   3.323   6.726   5.009  1.7109  0.1237 -1.1638
  364MOL0     H49131   3.348   6.875   4.918 -2.9962  2.2038 -4.6231
  364MOL0     H49132   3.133   6.682   4.825 -1.7445  0.2777 -0.6533
  364MOL0     H49133   3.163   6.852   4.790 -0.1179 -1.1391 -0.3809
  364MOL0     H49134   3.067   6.733   5.057  0.0499  2.9331  3.2359
  364MOL0     H49135   2.964   6.827   4.944 -2.0033 -2.5644  2.9277
  364MOL0     H49136   3.198   6.941   5.112 -0.9340 -0.1195  1.7164
  364MOL0     H49137   3.031   6.961   5.143  1.3249  1.7028  1.1939
  364MOL0     H49138   3.137   7.246   4.845 -0.1201 -0.0856 -0.9085
  364MOL0     H49139   3.595   6.862   4.899  1.4548  0.4160 -2.4647
  364MOL0     H49140   3.815   6.784   4.940 -2.1635  2.2952 -1.7761
  365MOL0     O49141   4.911   1.704   2.204  0.6361  0.6179  0.2979
  365MOL0     C49142   4.867   1.799   2.278 -0.2654 -0.4105 -0.1643
  365MOL0     O49143   4.935   1.931   2.285 -0.3077 -0.1659 -0.0179
  365MOL0     C49144   5.056   1.941   2.214 -0.2672  0.0960  0.0220
  365MOL0     C49145   5.175   1.880   2.263  0.2427  0.4538  0.2133
  365MOL0     C49146   5.293   1.879   2.179 -0.0112 -0.8368  0.2337
  365MOL0     C49147   5.291   1.936   2.053 -0.2510  0.0353 -0.5096
  365MOL0     O49148   5.403   1.921   1.980  0.1798  0.2936  0.0076
  365MOL0     C49149   5.410   1.871   1.852 -0.4115 -0.0814 -0.4420
  365MOL0     C49150   5.494   1.749   1.833  0.1839 -0.4775 -0.1418
  365MOL0     C49151   5.453   1.633   1.936 -0.5462 -0.0095 -0.8291
  365MOL0     C49152   5.319   1.567   1.889  0.4748  0.0398  0.7419
  365MOL0     C49153   5.273   1.447   1.982 -1.0862  0.0204  0.4019
  365MOL0     C49154   5.208   1.478   2.116  0.1682 -0.7930  0.7103
  365MOL0     C49155   5.169   1.350   2.190 -0.3491 -0.5449 -0.7053
  365MOL0     C49156   5.069   1.375   2.309  0.3888 -0.4837 -0.2402
  365MOL0     N49157   5.039   1.242   2.382 -0.5497 -0.2691  0.5661
  365MOL0     C49158   4.920   1.169   2.362 -0.5276 -0.1134  0.9336
  365MOL0     C49159   4.943   1.053   2.436  0.1378 -1.1077 -0.6105
  365MOL0     C49160   4.854   0.937   2.472  0.1695 -0.6601 -0.5624
  365MOL0     C49161   4.858   0.828   2.360 -0.4177 -0.6615  0.6801
  365MOL0     C49162   4.775   0.876   2.240  0.3227  1.0693 -0.2684
  365MOL0     C49163   4.750   0.765   2.134 -0.2685  0.4208  0.0147
  365MOL0     O49164   4.678   0.644   2.178  0.1556  0.2744  0.2540
  365MOL0     C49165   4.563   0.669   2.252  0.4147  1.5789  0.0933
  365MOL0     C49166   4.459   0.760   2.209 -0.1955 -0.0906 -0.3388
  365MOL0     C49167   4.330   0.762   2.277 -0.0017 -0.3181 -0.2579
  365MOL0     C49168   4.224   0.839   2.201  0.1934 -1.1448  0.5024
  365MOL0     C49169   4.313   0.683   2.390 -0.0805 -0.0237 -0.5389
  365MOL0     C49170   4.184   0.677   2.463  0.2786  0.2115 -0.5294
  365MOL0     O49171   4.155   0.552   2.515  0.2253  0.3110  0.0236
  365MOL0     C49172   4.061   0.547   2.615  0.4969 -0.1406 -0.6289
  365MOL0     C49173   3.940   0.498   2.575 -0.2248 -0.0943 -0.3462
  365MOL0     C49174   3.841   0.476   2.678  0.0634 -0.0783  0.3425
  365MOL0     C49175   3.866   0.494   2.811  0.0229  0.0956 -0.3181
  365MOL0     O49176   3.788   0.459   2.913  0.4811  0.6616  0.6073
  365MOL0     C49177   3.653   0.512   2.904 -0.8256 -0.0632 -0.8292
  365MOL0     C49178   3.586   0.529   3.042  0.4845 -0.2822 -0.0983
  365MOL0     C49179   3.597   0.672   3.110  0.4210  0.4707 -0.4359
  365MOL0     C49180   3.465   0.712   3.178  0.3444  0.9536 -1.0227
  365MOL0     C49181   3.485   0.798   3.301 -0.3058 -0.3033  0.4230
  365MOL0     C49182   3.348   0.858   3.349 -0.4840  0.4092  0.3753
  365MOL0     C49183   3.364   0.944   3.479  0.2026  0.4880 -0.0207
  365MOL0     C49184   3.237   1.006   3.528 -0.4413  0.7693  0.6743
  365MOL0    Cl49185   3.117   0.890   3.572  0.0202  0.4336  0.5015
  365MOL0     C49186   3.993   0.541   2.849  0.4881  1.1444  1.0169
  365MOL0     C49187   4.087   0.576   2.752  0.7477  0.3156 -0.4448
  365MOL0     O49188   4.119   0.778   2.483  0.2282  0.1075  0.9466
  365MOL0     C49189   4.416   0.585   2.426  0.0744 -0.4316  0.1668
  365MOL0     C49190   4.533   0.577   2.353 -0.3208 -0.1342  0.1706
  365MOL0     N49191   5.074   1.061   2.483  0.1859  0.0055  0.0610
  365MOL0     N49192   5.132   1.166   2.446  0.1276 -0.3286  0.8353
  365MOL0     C49193   5.172   1.996   2.003  0.2611 -0.7585 -0.1576
  365MOL0     C49194   5.060   1.999   2.082  0.2459 -0.1995  1.1785
  365MOL0     C49195   4.737   1.786   2.355 -0.3963 -0.4848 -0.2795
  365MOL0     C49196   4.653   1.676   2.355 -0.1941  0.0494 -0.0739
  365MOL0     C49197   4.543   1.670   2.434  0.8222 -0.8994 -0.5569
  365MOL0     C49198   4.501   1.772   2.513  0.1695  0.6665  0.0773
  365MOL0     O49199   4.382   1.758   2.573  0.4006  0.0281 -0.3232
  365MOL0     C49200   4.355   1.833   2.693  1.0071 -0.3176 -0.2233
  365MOL0     C49201   4.196   1.831   2.712 -0.1364 -0.2315 -1.1001
  365MOL0     C49202   4.109   1.711   2.688  0.0088  1.0041 -0.3332
  365MOL0     C49203   4.072   1.627   2.813  0.3313  0.9719  0.3592
  365MOL0     C49204   3.953   1.690   2.884 -0.2275 -0.8068 -0.4716
  365MOL0     C49205   3.853   1.744   2.927 -0.1404  0.6371 -0.1818
  365MOL0     C49206   4.578   1.890   2.519 -0.4812 -0.3347  0.4029
  365MOL0     C49207   4.694   1.895   2.440  0.3045 -0.3731  0.1614
  365MOL0     H49208   5.180   1.836   2.362  0.3169 -0.9590 -0.3961
  365MOL0     H49209   5.383   1.827   2.209  0.7133 -0.6853 -1.5639
  365MOL0     H49210   5.309   1.848   1.818  0.1131 -1.0442 -1.4395
  365MOL0     H49211   5.459   1.953   1.800 -2.5708  0.4345 -1.7654
  365MOL0     H49212   5.490   1.721   1.727  3.1334 -1.5793 -0.0721
  365MOL0     H49213   5.603   1.755   1.846  0.2036  1.4119 -0.9470
  365MOL0     H49214   5.541   1.569   1.943  0.2522  0.9147 -2.0773
  365MOL0     H49215   5.435   1.676   2.035 -0.4463 -1.9403  0.0691
  365MOL0     H49216   5.240   1.641   1.876 -1.0519 -1.5431  0.6624
  365MOL0     H49217   5.345   1.538   1.787 -1.6702 -1.0833  0.4653
  365MOL0     H49218   5.198   1.386   1.933 -2.5684  0.0460  2.5021
  365MOL0     H49219   5.357   1.381   2.005  1.7183  2.3871 -2.1208
  365MOL0     H49220   5.272   1.550   2.169 -0.1169  0.2235 -0.3004
  365MOL0     H49221   5.116   1.534   2.098 -0.2124 -2.0892 -1.7739
  365MOL0     H49222   5.132   1.281   2.113  1.2269  2.6882 -4.7754
  365MOL0     H49223   5.256   1.300   2.233 -1.4833 -2.3118 -0.3373
  365MOL0     H49224   4.986   1.420   2.253  1.6728 -0.1849 -1.9975
  365MOL0     H49225   5.109   1.451   2.377  2.5989 -1.4211 -0.4173
  365MOL0     H49226   4.838   1.199   2.299  1.6242  2.2253 -0.9543
  365MOL0     H49227   4.894   0.897   2.566 -0.3421  0.2548  0.0595
  365MOL0     H49228   4.752   0.971   2.493  0.5403  1.1998 -1.5805
  365MOL0     H49229   4.826   0.729   2.396  0.3502 -1.1485  0.0322
  365MOL0     H49230   4.964   0.831   2.336 -0.7817  0.2672 -0.9686
  365MOL0     H49231   4.830   0.953   2.186  2.5723 -0.9181 -1.0242
  365MOL0     H49232   4.679   0.914   2.276 -0.0797 -0.8546  0.8358
  365MOL0     H49233   4.854   0.738   2.110  0.1174  1.3750  0.5784
  365MOL0     H49234   4.710   0.814   2.046  2.5682  5.0052  0.9543
  365MOL0     H49235   4.497   0.831   2.137 -0.5205  2.4915  1.8944
  365MOL0     H49236   4.153   0.782   2.140  0.2774 -0.9309  0.2036
  365MOL0     H49237   4.173   0.901   2.275  1.1210  0.7078 -0.3260
  365MOL0     H49238   4.264   0.923   2.143  0.2876  2.4235  5.1084
  365MOL0     H49239   3.922   0.480   2.469  0.6819  0.3138 -0.5846
  365MOL0     H49240   3.746   0.430   2.654 -0.9542  1.7320  0.6807
  365MOL0     H49241   3.670   0.610   2.857  1.1246 -0.6514 -1.4606
  365MOL0     H49242   3.593   0.443   2.843 -1.0002 -0.6145 -0.0405
  365MOL0     H49243   3.481   0.527   3.012  1.3543  2.3867 -4.1405
  365MOL0     H49244   3.611   0.453   3.117 -1.9146  0.9422  2.1088
  365MOL0     H49245   3.617   0.750   3.036  1.0691 -0.6258 -1.4648
  365MOL0     H49246   3.675   0.660   3.186  0.3155 -0.7395 -0.4900
  365MOL0     H49247   3.386   0.751   3.114 -2.8824 -0.2996  1.8945
  365MOL0     H49248   3.432   0.618   3.225  0.4691  2.0831  1.5095
  365MOL0     H49249   3.546   0.885   3.276 -0.8964  0.3742  1.2835
  365MOL0     H49250   3.528   0.739   3.382  1.7449 -0.0008 -0.3686
  365MOL0     H49251   3.297   0.926   3.281 -1.4201 -0.1965  0.4548
  365MOL0     H49252   3.289   0.767   3.362 -0.6043  0.3993 -0.2157
  365MOL0     H49253   3.434   1.027   3.467 -1.1535  1.9980  1.8805
  365MOL0     H49254   3.399   0.889   3.568  0.7561  0.1572 -0.4329
  365MOL0     H49255   3.209   1.076   3.448  1.7216  2.5751  1.3987
  365MOL0     H49256   3.271   1.063   3.614 -0.5666  0.3292  1.0210
  365MOL0     H49257   3.996   0.558   2.956  2.9588  1.7392  0.9207
  365MOL0     H49258   4.189   0.603   2.778  1.0398 -0.1400 -1.0976
  365MOL0     H49259   4.418   0.521   2.514  1.8166 -0.6315  0.0074
  365MOL0     H49260   4.607   0.511   2.395  0.0809  1.1793  1.6224
  365MOL0     H49261   5.182   2.043   1.905  3.3300  2.1577  1.3728
  365MOL0     H49262   4.963   2.040   2.054 -0.2768 -0.7986  2.0232
  365MOL0     H49263   4.679   1.591   2.294  0.6613  0.4759 -0.3209
  365MOL0     H49264   4.479   1.583   2.438 -0.6889  0.1093 -1.7244
  365MOL0     H49265   4.396   1.781   2.780  0.9528  2.6838  1.7621
  365MOL0     H49266   4.395   1.934   2.703  1.3292 -0.0877 -3.1830
  365MOL0     H49267   4.161   1.903   2.638  1.2630  1.4773 -0.1801
  365MOL0     H49268   4.163   1.861   2.812  0.4841 -1.4751 -0.5067
  365MOL0     H49269   4.166   1.646   2.621 -0.1424 -0.0758  0.5573
  365MOL0     H49270   4.015   1.737   2.637 -0.9554 -0.2962  0.7112
  365MOL0     H49271   4.160   1.612   2.877  0.5721  0.0523 -0.1610
  365MOL0     H49272   4.037   1.532   2.772 -2.2557  2.7600 -1.9071
  365MOL0     H49273   3.760   1.790   2.954 -0.2953 -1.0178  2.3968
  365MOL0     H49274   4.548   1.968   2.588  0.3968  1.0633 -0.7294
  365MOL0     H49275   4.752   1.986   2.456  2.0500 -0.7452 -3.1847
  366MOL0     O49276   4.095   5.892   1.846  0.3287  0.2170 -0.2539
  366MOL0     C49277   4.009   5.968   1.897  0.3143 -1.3934 -0.1322
  366MOL0     O49278   3.899   5.939   1.963  0.1065 -0.0989  0.6278
  366MOL0     C49279   3.862   5.815   1.980 -0.5010 -0.2239  0.1036
  366MOL0     C49280   3.856   5.774   2.106 -0.7219 -0.1492  0.0165
  366MOL0     C49281   3.806   5.650   2.147  0.2459 -0.8367 -0.4071
  366MOL0     C49282   3.779   5.554   2.048 -0.0016  0.3800 -0.4834
  366MOL0     O49283   3.741   5.430   2.093  0.6890 -0.6643 -0.2572
  366MOL0     C49284   3.622   5.376   2.030 -0.2420  0.1630  0.2593
  366MOL0     C49285   3.580   5.242   2.099  0.4299  0.3004  0.0495
  366MOL0     C49286   3.690   5.141   2.090  0.1276 -0.2904 -0.0578
  366MOL0     C49287   3.637   5.023   2.179  0.0491  0.5009  0.0997
  366MOL0     C49288   3.750   4.907   2.187 -0.4813  0.7487  0.0967
  366MOL0     C49289   3.740   4.815   2.309  0.1000 -0.0755 -0.3833
  366MOL0     C49290   3.866   4.722   2.328  0.1944  0.1889 -0.1355
  366MOL0     C49291   3.869   4.594   2.237  0.0327 -0.3230  0.2083
  366MOL0     N49292   3.992   4.523   2.224 -0.0658 -0.0125  0.1881
  366MOL0     C49293   4.044   4.449   2.326  0.9600  0.3247  0.0560
  366MOL0     C49294   4.158   4.403   2.280 -0.2359  0.9426 -0.0679
  366MOL0     C49295   4.265   4.336   2.344  0.5131  0.4618 -0.3494
  366MOL0     C49296   4.222   4.203   2.428 -0.2851 -0.1627 -0.2477
  366MOL0     C49297   4.210   4.089   2.334  0.4592 -0.2783  0.3360
  366MOL0     C49298   4.076   4.019   2.355 -0.2783 -0.2833  0.4103
  366MOL0     O49299   4.030   3.921   2.258  0.2004 -0.1692  0.2774
  366MOL0     C49300   4.124   3.826   2.265  0.1122 -0.0749  0.8705
  366MOL0     C49301   4.132   3.736   2.367  0.0065  1.0832 -0.4018
  366MOL0     C49302   4.231   3.637   2.387  0.7076 -0.6283  0.0926
  366MOL0     C49303   4.211   3.550   2.504  0.9803  0.6689  0.1175
  366MOL0     C49304   4.331   3.632   2.286 -0.2794  0.2260  0.7797
  366MOL0     C49305   4.442   3.525   2.283  0.6102  1.2466 -0.1781
  366MOL0     O49306   4.473   3.469   2.402 -0.2120 -0.2695  0.0659
  366MOL0     C49307   4.557   3.361   2.413  0.1195  0.4273 -0.1640
  366MOL0     C49308   4.502   3.229   2.438 -0.1449  0.0318  0.2169
  366MOL0     C49309   4.589   3.119   2.446  0.1635 -0.2108  1.1218
  366MOL0     C49310   4.725   3.133   2.433  0.3188 -0.4697  0.5553
  366MOL0     O49311   4.811   3.025   2.459  0.1556  0.4379 -0.4126
  366MOL0     C49312   4.951   3.035   2.476  0.3915 -0.5233  0.0309
  366MOL0     C49313   5.031   2.897   2.495 -0.0091 -0.4562  0.5098
  366MOL0     C49314   5.184   2.937   2.455  0.2848  0.4313 -0.1490
  366MOL0     C49315   5.276   2.811   2.456 -0.9221 -0.3558 -0.3371
  366MOL0     C49316   5.426   2.865   2.442 -0.1127 -0.2434 -0.0402
  366MOL0     C49317   5.523   2.757   2.420 -0.1124  0.0319  0.1974
  366MOL0     C49318   5.660   2.814   2.427  0.2546  0.1454 -0.3132
  366MOL0     C49319   5.726   2.820   2.289 -0.4989 -0.1031 -0.5260
  366MOL0    Cl49320   5.749   2.663   2.221  0.2004  0.5913 -0.1114
  366MOL0     C49321   4.777   3.262   2.409 -0.2337  0.7357 -0.8991
  366MOL0     C49322   4.691   3.375   2.399  0.1162 -0.6856  0.3159
  366MOL0     O49323   4.512   3.506   2.181  0.1511 -0.1229 -0.3195
  366MOL0     C49324   4.329   3.721   2.176  0.0505  0.9265 -0.4368
  366MOL0     C49325   4.229   3.821   2.171  0.4473 -0.0971 -0.5414
  366MOL0     N49326   4.184   4.461   2.159  0.6316 -0.7929 -0.3156
  366MOL0     N49327   4.076   4.532   2.115  0.4209  0.9916 -0.3758
  366MOL0     C49328   3.781   5.595   1.916  0.2388 -0.4887  0.1287
  366MOL0     C49329   3.832   5.719   1.882 -0.7606  0.0088  0.4435
  366MOL0     C49330   4.028   6.117   1.872  0.6808  0.6574 -0.2237
  366MOL0     C49331   4.133   6.161   1.788 -0.0086  0.6649 -0.4034
  366MOL0     C49332   4.171   6.297   1.790  0.2512  0.4150 -0.0241
  366MOL0     C49333   4.089   6.395   1.855  0.1001 -0.6383  1.2098
  366MOL0     O49334   4.140   6.523   1.829  0.1510 -0.3179 -0.6896
  366MOL0     C49335   4.064   6.637   1.869 -0.3372 -0.1148  0.6586
  366MOL0     C49336   4.132   6.758   1.815  0.7601  0.4488  0.4358
  366MOL0     C49337   4.264   6.786   1.881  0.0514  0.2281  1.1492
  366MOL0     C49338   4.255   6.857   2.015  0.7839 -0.3944 -0.4911
  366MOL0     C49339   4.244   6.748   2.115 -0.7376  0.9678 -0.1276
  366MOL0     C49340   4.231   6.676   2.209 -0.6602  0.5948 -0.3404
  366MOL0     C49341   3.970   6.354   1.916 -0.8718 -0.1517 -0.4421
  366MOL0     C49342   3.952   6.212   1.935 -0.4036 -0.4688  0.3936
  366MOL0     H49343   3.888   5.841   2.186 -0.4937  2.0109 -1.7953
  366MOL0     H49344   3.800   5.631   2.254 -1.4964 -0.7139 -0.4534
  366MOL0     H49345   3.541   5.449   2.045 -0.2428  0.3562 -0.6420
  366MOL0     H49346   3.643   5.363   1.924 -0.9571  2.3978 -0.2277
  366MOL0     H49347   3.563   5.266   2.205 -0.6909 -0.7232  0.1285
  366MOL0     H49348   3.485   5.202   2.062 -0.5389  2.9179 -0.5227
  366MOL0     H49349   3.706   5.100   1.990 -0.1940  0.5441 -0.4605
  366MOL0     H49350   3.784   5.181   2.128 -1.3056  3.3098  0.0495
  366MOL0     H49351   3.628   5.043   2.286  0.5455 -1.4340  0.5425
  366MOL0     H49352   3.552   4.976   2.128  2.5744 -2.5822 -1.5768
  366MOL0     H49353   3.742   4.846   2.096 -1.0384  1.4326 -0.3327
  366MOL0     H49354   3.848   4.954   2.195  0.1839 -0.6437  0.3828
  366MOL0     H49355   3.745   4.875   2.400 -0.2658 -0.3678 -0.1724
  366MOL0     H49356   3.641   4.770   2.316 -1.2458  2.5963 -0.9068
  366MOL0     H49357   3.945   4.793   2.303  0.7597  0.2517  1.7002
  366MOL0     H49358   3.875   4.700   2.435  1.1052  0.3816 -0.1674
  366MOL0     H49359   3.841   4.623   2.136 -1.5996 -0.2335  0.6704
  366MOL0     H49360   3.784   4.533   2.267  0.4288  0.2754  2.8407
  366MOL0     H49361   3.998   4.416   2.419  2.1096 -1.4648  0.0320
  366MOL0     H49362   4.338   4.307   2.268 -0.4801  0.4714 -1.3336
  366MOL0     H49363   4.301   4.418   2.407 -3.8575  1.9578  0.5540
  366MOL0     H49364   4.128   4.225   2.478  0.6792  0.7082  1.2693
  366MOL0     H49365   4.300   4.181   2.501 -0.5492 -0.3316 -0.0180
  366MOL0     H49366   4.298   4.025   2.348  1.4826  0.4794 -2.1924
  366MOL0     H49367   4.221   4.118   2.230  1.8041  0.0975  0.5623
  366MOL0     H49368   3.999   4.096   2.354 -0.8577 -0.8522 -0.5716
  366MOL0     H49369   4.067   3.969   2.452 -0.9429  0.2035  0.6052
  366MOL0     H49370   4.056   3.755   2.442  1.0110  2.4046  0.3062
  366MOL0     H49371   4.278   3.574   2.587  0.6227 -0.1495  0.6527
  366MOL0     H49372   4.108   3.548   2.542  0.8207 -1.6114 -0.3336
  366MOL0     H49373   4.236   3.448   2.475 -2.2448 -0.1188 -0.2854
  366MOL0     H49374   4.396   3.208   2.451 -0.4289  0.1858 -1.5987
  366MOL0     H49375   4.552   3.020   2.474  1.9234 -0.7219  1.7893
  366MOL0     H49376   4.984   3.083   2.383  2.2292  1.7875  1.7407
  366MOL0     H49377   4.967   3.109   2.555  0.3444 -0.7246  0.2320
  366MOL0     H49378   5.028   2.855   2.596  3.6296  0.2200  1.0352
  366MOL0     H49379   4.993   2.820   2.427  1.3355  0.7706 -1.7470
  366MOL0     H49380   5.211   3.012   2.530  0.1248  0.3661 -0.0248
  366MOL0     H49381   5.193   2.984   2.357 -0.3085  2.1466  0.5916
  366MOL0     H49382   5.251   2.755   2.547 -4.0138  1.3362  0.0153
  366MOL0     H49383   5.248   2.754   2.367 -1.9987 -1.9006  0.9390
  366MOL0     H49384   5.451   2.915   2.536  2.0768 -1.0620 -0.1305
  366MOL0     H49385   5.429   2.944   2.366 -2.2625  2.7614  2.7011
  366MOL0     H49386   5.514   2.677   2.494  0.4000 -0.6511 -0.4629
  366MOL0     H49387   5.496   2.723   2.320 -1.6280 -0.1945  0.6564
  366MOL0     H49388   5.725   2.761   2.497  0.0563  1.3708  0.8441
  366MOL0     H49389   5.662   2.916   2.469  0.6055  0.8513 -1.9635
  366MOL0     H49390   5.820   2.875   2.277  0.0173 -1.3302 -2.7425
  366MOL0     H49391   5.654   2.874   2.227 -2.4053 -1.2798  0.5587
  366MOL0     H49392   4.885   3.278   2.411  0.0047 -0.7581  1.2616
  366MOL0     H49393   4.729   3.476   2.387 -1.9455 -0.0754 -1.9265
  366MOL0     H49394   4.403   3.713   2.098  0.3757  3.0296 -0.3819
  366MOL0     H49395   4.216   3.894   2.092 -1.9018 -1.0501 -1.1181
  366MOL0     H49396   3.760   5.519   1.842  0.9130 -1.0576  0.5091
  366MOL0     H49397   3.845   5.744   1.777 -2.2357 -1.0151 -0.0118
  366MOL0     H49398   4.202   6.095   1.737 -2.7550 -1.8376 -1.0891
  366MOL0     H49399   4.265   6.327   1.744  0.2787  3.7814  1.8524
  366MOL0     H49400   3.968   6.627   1.817  1.1717 -0.4210 -2.3019
  366MOL0     H49401   4.044   6.640   1.977  4.1918 -0.7832  1.7160
  366MOL0     H49402   4.068   6.847   1.819 -2.5082 -1.6739 -0.5351
  366MOL0     H49403   4.146   6.740   1.708  1.1244 -0.3306  0.6059
  366MOL0     H49404   4.319   6.860   1.821  0.2138  1.0564  2.3024
  366MOL0     H49405   4.322   6.695   1.894 -1.8471 -1.0069  1.3112
  366MOL0     H49406   4.166   6.921   2.008 -0.5855 -2.2148 -0.4369
  366MOL0     H49407   4.343   6.920   2.027  0.2349  0.2905  0.0948
  366MOL0     H49408   4.240   6.620   2.300 -1.2801  0.6498 -0.2403
  366MOL0     H49409   3.884   6.415   1.943 -0.2796  0.6849 -0.4092
  366MOL0     H49410   3.870   6.170   1.992  1.1339  0.0999  3.1596
  367MOL0     O49411  10.794   8.702   0.122 -0.4642  0.1629  0.2026
  367MOL0     C49412  10.715   8.790   0.098 -0.4454  0.5214 -0.6524
  367MOL0     O49413  10.585   8.781   0.129 -0.3004 -0.1697  0.0847
  367MOL0     C49414  10.512   8.665   0.119  0.3975  0.5023 -0.0735
  367MOL0     C49415  10.399   8.650   0.208 -0.6678  0.4307  0.1695
  367MOL0     C49416  10.312   8.542   0.189 -0.9185  0.1228 -0.7507
  367MOL0     C49417  10.335   8.447   0.090 -0.4972  0.1301  0.1435
  367MOL0     O49418  10.252   8.341   0.073 -0.0012  0.2703 -0.2944
  367MOL0     C49419  10.213   8.255   0.184  0.2369 -0.2648  0.2867
  367MOL0     C49420  10.132   8.146   0.112 -0.3809 -0.4086 -0.3358
  367MOL0     C49421   9.996   8.191   0.058  0.0067  0.3856  0.1732
  367MOL0     C49422   9.894   8.075   0.012 -0.5501  0.2443 -0.0452
  367MOL0     C49423   9.774   8.127  -0.079 -0.5059  0.5331  0.2615
  367MOL0     C49424   9.684   8.012  -0.120 -0.3578 -0.2168 -0.5687
  367MOL0     C49425   9.598   8.049  -0.236  0.2680 -0.3018  0.0238
  367MOL0     C49426   9.478   8.142  -0.200 -0.1642 -1.0439  0.0669
  367MOL0     N49427   9.382   8.140  -0.304  0.1600  0.0079 -0.3666
  367MOL0     C49428   9.300   8.037  -0.339  0.4091  0.2338  0.4093
  367MOL0     C49429   9.232   8.072  -0.453  0.2824 -0.1223 -0.6764
  367MOL0     C49430   9.110   8.006  -0.510  0.5212 -0.3866 -0.3700
  367MOL0     C49431   8.981   8.046  -0.423 -0.5829 -0.0066  0.5102
  367MOL0     C49432   8.853   8.014  -0.493  0.5447 -0.1186 -0.1085
  367MOL0     C49433   8.748   8.013  -0.381  0.7231  0.0986 -0.9336
  367MOL0     O49434   8.747   7.899  -0.290  0.9774 -0.0758  0.2077
  367MOL0     C49435   8.719   7.899  -0.161 -0.0490  0.1184 -0.0123
  367MOL0     C49436   8.640   7.995  -0.103 -0.2099 -0.2998  0.0742
  367MOL0     C49437   8.609   7.993   0.030 -0.4959 -0.3785 -0.1188
  367MOL0     C49438   8.552   8.122   0.091  0.2623  0.5090 -0.6397
  367MOL0     C49439   8.641   7.877   0.106 -0.3721  0.2964 -0.2228
  367MOL0     C49440   8.609   7.863   0.248 -0.2233 -0.1736  0.5684
  367MOL0     O49441   8.692   7.775   0.316  0.3818  0.0294 -0.5742
  367MOL0     C49442   8.651   7.730   0.439  0.1657  0.3413  0.1288
  367MOL0     C49443   8.566   7.794   0.534 -0.0260  0.0085  0.6885
  367MOL0     C49444   8.542   7.716   0.648  0.2976 -0.0503  0.2969
  367MOL0     C49445   8.591   7.579   0.659 -0.3549  0.0267 -0.3117
  367MOL0     O49446   8.535   7.488   0.747 -0.7251 -0.1952 -0.2055
  367MOL0     C49447   8.609   7.467   0.863 -0.8079  0.1631 -0.9837
  367MOL0     C49448   8.532   7.368   0.945  0.5038  0.4081  0.2874
  367MOL0     C49449   8.618   7.337   1.078  0.2127  0.1054 -0.4490
  367MOL0     C49450   8.532   7.264   1.167 -0.2529  0.0166  0.4774
  367MOL0     C49451   8.596   7.251   1.300  0.1903 -0.4978  0.2680
  367MOL0     C49452   8.514   7.146   1.384  0.3457  0.5961  0.3440
  367MOL0     C49453   8.587   7.135   1.522  1.5786  1.0112  0.5653
  367MOL0     C49454   8.500   7.038   1.602 -0.1870  0.5712 -0.2867
  367MOL0    Cl49455   8.562   7.029   1.761  0.1558 -0.1367 -0.0273
  367MOL0     C49456   8.665   7.522   0.562  0.5951 -1.0296  0.2732
  367MOL0     C49457   8.688   7.599   0.447 -0.2905 -0.5868  0.0667
  367MOL0     O49458   8.519   7.933   0.290 -0.1003 -0.5432 -0.2743
  367MOL0     C49459   8.700   7.774   0.040 -0.4761  0.3374 -0.9215
  367MOL0     C49460   8.750   7.784  -0.090 -0.1612  0.2984  0.2933
  367MOL0     N49461   9.291   8.188  -0.498 -0.2253  0.0076  0.3091
  367MOL0     N49462   9.368   8.230  -0.403  0.0881  0.9557  0.9793
  367MOL0     C49463  10.439   8.469  -0.005  0.4499  0.6612  0.1784
  367MOL0     C49464  10.529   8.575   0.011 -0.4400  0.2599 -0.9495
  367MOL0     C49465  10.760   8.925   0.067  0.5853  0.4363  0.0819
  367MOL0     C49466  10.897   8.951   0.056  0.6433  0.0254 -0.5697
  367MOL0     C49467  10.948   9.074   0.028 -0.6706 -0.4846  0.1917
  367MOL0     C49468  10.859   9.187   0.023 -1.1537 -0.7783  0.1993
  367MOL0     O49469  10.918   9.306  -0.003 -0.6653 -0.2138  1.1370
  367MOL0     C49470  10.848   9.433   0.017  0.2073 -0.4120 -0.9729
  367MOL0     C49471  10.929   9.546   0.083  1.3327 -0.0115 -0.4079
  367MOL0     C49472  11.020   9.505   0.204  0.5737  0.2978  1.1722
  367MOL0     C49473  10.944   9.461   0.328 -0.2464 -0.5151  0.2802
  367MOL0     C49474  10.894   9.329   0.333  0.3909 -0.5151  0.5596
  367MOL0     C49475  10.840   9.225   0.357 -0.5832  0.2872 -0.0985
  367MOL0     C49476  10.714   9.163   0.028  0.4589 -0.4582  1.0704
  367MOL0     C49477  10.670   9.034   0.046  0.9548 -0.1874  0.1830
  367MOL0     H49478  10.386   8.718   0.292 -1.8020  0.1349  0.2509
  367MOL0     H49479  10.236   8.529   0.266  0.6848  0.3928  0.9694
  367MOL0     H49480  10.279   8.210   0.259  0.1640 -2.5539 -0.9439
  367MOL0     H49481  10.143   8.309   0.248  0.0744 -3.6937  3.3156
  367MOL0     H49482  10.199   8.107   0.035  0.6692  0.7417 -0.0473
  367MOL0     H49483  10.101   8.066   0.180 -1.0877  2.2710  2.7602
  367MOL0     H49484   9.945   8.258   0.128  1.8472  0.9964  0.9795
  367MOL0     H49485  10.018   8.252  -0.030  4.0614 -0.2951  0.5289
  367MOL0     H49486   9.944   8.000  -0.049  0.5174  0.3847  0.6404
  367MOL0     H49487   9.850   8.025   0.099  2.6112 -4.6075 -0.8699
  367MOL0     H49488   9.723   8.209  -0.027  1.5784  1.4348  0.9977
  367MOL0     H49489   9.829   8.155  -0.170 -1.2420 -4.8400 -2.2221
  367MOL0     H49490   9.738   7.927  -0.162 -1.5706 -1.4900  0.3702
  367MOL0     H49491   9.636   7.972  -0.030  2.0898 -0.7905  0.5446
  367MOL0     H49492   9.664   8.107  -0.300 -0.3039 -1.0967 -1.3346
  367MOL0     H49493   9.567   7.959  -0.290  3.4198 -1.6742  0.2634
  367MOL0     H49494   9.517   8.243  -0.183 -0.9421 -0.5065 -1.2278
  367MOL0     H49495   9.433   8.100  -0.110  0.1409  2.6355  2.1548
  367MOL0     H49496   9.293   7.944  -0.284  1.1337 -1.3900 -2.0780
  367MOL0     H49497   9.089   8.026  -0.615  0.0543 -2.3898 -0.7032
  367MOL0     H49498   9.123   7.898  -0.500  2.6810 -0.0807  0.5727
  367MOL0     H49499   8.997   8.150  -0.394  3.3393 -0.2319 -0.2753
  367MOL0     H49500   8.976   7.996  -0.325  1.1021  1.5975  1.4830
  367MOL0     H49501   8.852   7.914  -0.539 -2.6537 -1.9375  3.3232
  367MOL0     H49502   8.830   8.090  -0.568  0.1792  0.0934  0.2149
  367MOL0     H49503   8.650   8.022  -0.428  1.5290 -0.9849 -2.9496
  367MOL0     H49504   8.763   8.102  -0.319 -0.0578 -0.9332  0.8292
  367MOL0     H49505   8.619   8.085  -0.160  0.0648 -1.4887 -2.0247
  367MOL0     H49506   8.562   8.201   0.016 -1.2611  1.3665  0.0143
  367MOL0     H49507   8.450   8.105   0.126  0.9284 -0.1525  1.1001
  367MOL0     H49508   8.615   8.148   0.177 -0.7737 -3.9469  1.7691
  367MOL0     H49509   8.520   7.891   0.517 -1.6502 -0.6711  0.9377
  367MOL0     H49510   8.469   7.751   0.721 -1.1505 -0.8295 -0.7309
  367MOL0     H49511   8.711   7.435   0.845 -0.1778  0.0136  2.1769
  367MOL0     H49512   8.614   7.553   0.931 -3.1418 -2.5185  3.0466
  367MOL0     H49513   8.439   7.418   0.971  0.0755  0.2842 -0.9350
  367MOL0     H49514   8.512   7.276   0.890 -1.1537 -0.0774  1.6273
  367MOL0     H49515   8.661   7.423   1.130  1.5220  1.9070 -4.1396
  367MOL0     H49516   8.699   7.269   1.050 -1.9284 -3.8032  2.0426
  367MOL0     H49517   8.434   7.306   1.190 -0.1206  0.0859  0.9262
  367MOL0     H49518   8.517   7.168   1.117 -0.5224  0.2185  0.1718
  367MOL0     H49519   8.597   7.352   1.341  1.0812  0.7214 -2.4525
  367MOL0     H49520   8.698   7.212   1.294  0.7622  0.8023  1.1482
  367MOL0     H49521   8.409   7.175   1.391 -0.2114 -0.8137 -1.5823
  367MOL0     H49522   8.518   7.046   1.341 -0.9804  0.9136 -0.5945
  367MOL0     H49523   8.587   7.231   1.574 -2.6750  1.6384 -0.2178
  367MOL0     H49524   8.688   7.101   1.497  1.0608 -0.2002  0.0198
  367MOL0     H49525   8.506   6.942   1.549  0.3658  1.0024 -1.0011
  367MOL0     H49526   8.394   7.067   1.609 -0.5866 -0.9652  0.9016
  367MOL0     H49527   8.696   7.418   0.557 -1.2963 -1.7335  1.6471
  367MOL0     H49528   8.744   7.564   0.360  0.0325 -1.8627  0.7676
  367MOL0     H49529   8.720   7.685   0.099  1.7380  0.7705 -0.9284
  367MOL0     H49530   8.812   7.707  -0.134  0.4598  1.1151 -0.2686
  367MOL0     H49531  10.460   8.399  -0.085 -0.3777  1.4046 -0.7054
  367MOL0     H49532  10.621   8.570  -0.047  0.0252  0.0056 -0.2008
  367MOL0     H49533  10.975   8.876   0.065  0.6098  0.0287 -0.2224
  367MOL0     H49534  11.054   9.084   0.006 -1.0840 -2.3788 -3.3369
  367MOL0     H49535  10.821   9.472  -0.081  1.6693 -1.0278 -1.6496
  367MOL0     H49536  10.758   9.402   0.071  2.6750 -0.9125  3.3276
  367MOL0     H49537  10.858   9.620   0.120  0.9896 -1.4305  2.0064
  367MOL0     H49538  10.991   9.597   0.009  0.4116  1.9926  0.1421
  367MOL0     H49539  11.081   9.596   0.207  1.3728 -0.1123 -0.8313
  367MOL0     H49540  11.095   9.429   0.180  0.1403  0.1294  0.2949
  367MOL0     H49541  10.863   9.533   0.339  1.5470  1.4645  1.1180
  367MOL0     H49542  11.008   9.480   0.415 -0.6232 -1.2122  0.7191
  367MOL0     H49543  10.828   9.119   0.367  1.9163  0.0591  1.2891
  367MOL0     H49544  10.645   9.246   0.016  2.1318  0.9975  1.0163
  367MOL0     H49545  10.563   9.013   0.042  0.9948 -0.3996  0.2345
  368MOL0     O49546   8.149   5.830  10.274  0.0126  0.9265  0.2714
  368MOL0     C49547   8.130   5.741  10.359 -0.6183  0.4534 -0.3030
  368MOL0     O49548   8.012   5.695  10.401 -0.2917 -0.0813 -0.0505
  368MOL0     C49549   7.907   5.781  10.374  0.1495  0.5176 -0.9068
  368MOL0     C49550   7.859   5.810  10.244 -0.1519 -0.3830 -0.1406
  368MOL0     C49551   7.737   5.883  10.226  0.5446 -0.0531  1.1003
  368MOL0     C49552   7.673   5.940  10.342 -0.0947  0.1184 -0.0699
  368MOL0     O49553   7.550   6.008  10.342  0.1026  0.1961  0.2108
  368MOL0     C49554   7.480   6.022  10.214  0.5410 -0.0407  0.0116
  368MOL0     C49555   7.342   6.087  10.229 -0.4462  0.1950  0.0547
  368MOL0     C49556   7.344   6.242  10.219  0.4095  0.5567  0.4501
  368MOL0     C49557   7.191   6.281  10.207  0.1307  0.6890  0.2856
  368MOL0     C49558   7.180   6.431  10.186  0.6747 -0.5210 -0.5091
  368MOL0     C49559   7.050   6.493  10.156 -0.0404  0.1397  0.2922
  368MOL0     C49560   7.047   6.647  10.166 -0.2524  0.4334 -0.4244
  368MOL0     C49561   6.897   6.704  10.148 -0.5637  0.4285 -0.1837
  368MOL0     N49562   6.823   6.667  10.275 -0.1095 -0.0657 -0.0738
  368MOL0     C49563   6.806   6.735  10.401 -0.7651  0.3776  0.7880
  368MOL0     C49564   6.707   6.676  10.462 -0.7448  0.4868 -0.4975
  368MOL0     C49565   6.658   6.689  10.609 -0.5892  0.7316  0.6273
  368MOL0     C49566   6.503   6.697  10.634  0.1457 -0.3279  0.8658
  368MOL0     C49567   6.430   6.558  10.645 -0.4721 -0.4599  0.4894
  368MOL0     C49568   6.284   6.586  10.646 -0.7632  0.1003 -0.2073
  368MOL0     O49569   6.199   6.476  10.677 -0.4668  0.7168  0.0178
  368MOL0     C49570   6.067   6.500  10.671 -0.0788 -0.0910 -0.2092
  368MOL0     C49571   5.997   6.441  10.778  0.7041  0.4632  0.2293
  368MOL0     C49572   5.856   6.432  10.771 -0.3400  0.3261 -0.0479
  368MOL0     C49573   5.782   6.356  10.883 -0.4704 -0.2580 -0.2911
  368MOL0     C49574   5.790   6.475  10.649  0.2149  0.2893 -1.3697
  368MOL0     C49575   5.642   6.461  10.633 -0.3512  0.8713 -0.5320
  368MOL0     O49576   5.600   6.472  10.512 -0.2982  0.0299 -0.1316
  368MOL0     C49577   5.460   6.476  10.501  0.0047  0.8004 -0.2290
  368MOL0     C49578   5.376   6.370  10.545 -0.3174  0.0797  0.5923
  368MOL0     C49579   5.239   6.378  10.536  0.0022  0.0367  0.3274
  368MOL0     C49580   5.179   6.499  10.495  0.2399 -0.6858  0.7930
  368MOL0     O49581   5.049   6.525  10.490  0.2310  0.6080  0.4751
  368MOL0     C49582   4.990   6.549  10.616  0.6384 -0.2166 -1.0605
  368MOL0     C49583   4.850   6.589  10.594  0.0607  0.4501  0.2898
  368MOL0     C49584   4.770   6.474  10.521 -0.7657  0.3601 -0.2073
  368MOL0     C49585   4.628   6.518  10.481 -0.3185 -0.2250 -0.6252
  368MOL0     C49586   4.534   6.402  10.447 -0.3978  0.2807  0.3411
  368MOL0     C49587   4.423   6.430  10.337 -0.7419  0.2261 -0.8937
  368MOL0     C49588   4.362   6.292  10.293 -0.9390  0.2477 -0.1327
  368MOL0     C49589   4.254   6.303  10.184 -0.8078  0.4981 -0.3259
  368MOL0    Cl49590   4.317   6.375  10.037  0.6403  0.0443  0.4914
  368MOL0     C49591   5.265   6.605  10.450  0.4835 -0.5622  0.7806
  368MOL0     C49592   5.401   6.598  10.460  0.2428  0.4152 -0.3391
  368MOL0     O49593   5.577   6.474  10.730 -0.1087 -0.0302 -0.5688
  368MOL0     C49594   5.862   6.536  10.548  0.1121 -0.2798 -0.7383
  368MOL0     C49595   6.003   6.546  10.558 -1.0625 -1.1175  1.0730
  368MOL0     N49596   6.649   6.580  10.380 -0.2521  0.2530  0.2171
  368MOL0     N49597   6.723   6.573  10.271 -0.0340 -0.1228 -0.6806
  368MOL0     C49598   7.730   5.915  10.461 -0.3047 -0.3778 -0.5046
  368MOL0     C49599   7.839   5.832  10.480  0.4951 -0.0872 -0.0368
  368MOL0     C49600   8.259   5.683  10.417  0.9029 -0.3487  0.8797
  368MOL0     C49601   8.386   5.739  10.397 -0.5977 -0.5699 -0.3499
  368MOL0     C49602   8.506   5.673  10.446 -0.6042 -0.0768  0.5711
  368MOL0     C49603   8.500   5.545  10.508 -0.2359  0.1741 -0.5252
  368MOL0     O49604   8.609   5.473  10.547 -0.0071  0.4803 -0.4854
  368MOL0     C49605   8.711   5.549  10.616  0.2254  0.6317 -0.1609
  368MOL0     C49606   8.821   5.447  10.661 -0.0733 -0.0068  0.4604
  368MOL0     C49607   8.916   5.509  10.757  0.3194 -0.4378 -0.0451
  368MOL0     C49608   9.007   5.394  10.828  0.0621 -0.0465  0.7265
  368MOL0     C49609   9.078   5.313  10.728 -0.7906 -0.4018 -0.2529
  368MOL0     C49610   9.116   5.244  10.634 -0.1054 -0.2702  0.6108
  368MOL0     C49611   8.371   5.498  10.536 -0.4833 -0.3104 -0.4082
  368MOL0     C49612   8.254   5.568  10.492 -0.2657 -0.1594 -0.5457
  368MOL0     H49613   7.915   5.775  10.158 -1.2880  0.2534 -1.1807
  368MOL0     H49614   7.698   5.901  10.126  2.9182  1.5514  0.3708
  368MOL0     H49615   7.539   6.086  10.147  0.1258 -0.0782 -0.3995
  368MOL0     H49616   7.466   5.932  10.153 -0.1054  0.5179 -0.6876
  368MOL0     H49617   7.278   6.054  10.147 -0.5155  1.8152 -0.5776
  368MOL0     H49618   7.290   6.046  10.316 -0.5626 -0.3170 -0.2517
  368MOL0     H49619   7.398   6.284  10.305  0.1006 -0.4419  1.1445
  368MOL0     H49620   7.390   6.275  10.126 -0.3342  0.8752  0.1914
  368MOL0     H49621   7.149   6.258  10.108  2.4980  4.3652 -1.8340
  368MOL0     H49622   7.120   6.245  10.281 -1.1599 -2.3721 -2.2050
  368MOL0     H49623   7.210   6.477  10.280  0.6005  1.4663 -1.4159
  368MOL0     H49624   7.240   6.474  10.105 -0.6251  0.2706 -1.0807
  368MOL0     H49625   7.025   6.458  10.056  3.5188  0.4843 -0.8571
  368MOL0     H49626   6.991   6.446  10.235  3.2889 -2.1718  1.6534
  368MOL0     H49627   7.083   6.670  10.267 -0.7754  0.6041 -0.2727
  368MOL0     H49628   7.112   6.692  10.090 -0.0846  0.2885 -0.3669
  368MOL0     H49629   6.858   6.666  10.053  0.5235  2.4360 -1.5054
  368MOL0     H49630   6.890   6.813  10.135  3.0494  0.8961  0.8338
  368MOL0     H49631   6.872   6.812  10.440  2.0450 -0.4325 -1.9852
  368MOL0     H49632   6.705   6.610  10.667  2.2977  2.0911  0.3815
  368MOL0     H49633   6.699   6.786  10.640  1.1639  0.3333 -0.2709
  368MOL0     H49634   6.464   6.744  10.543  4.3964  1.8960 -0.0529
  368MOL0     H49635   6.492   6.768  10.716  2.0218 -0.8632  1.6318
  368MOL0     H49636   6.451   6.509  10.741 -3.9254  0.9204  2.1303
  368MOL0     H49637   6.445   6.503  10.552  3.3398  2.5140 -0.9381
  368MOL0     H49638   6.252   6.635  10.554  0.2870 -0.7298 -1.0426
  368MOL0     H49639   6.265   6.656  10.728  1.7890 -1.1084  1.5437
  368MOL0     H49640   6.043   6.395  10.865  1.3186  1.2585  0.3224
  368MOL0     H49641   5.696   6.296  10.851 -3.4063  2.1634  2.3202
  368MOL0     H49642   5.844   6.288  10.941 -0.3328  1.4632  1.6856
  368MOL0     H49643   5.748   6.432  10.955 -0.9656 -3.2315  2.8731
  368MOL0     H49644   5.433   6.282  10.572 -0.0752  0.8024  2.5530
  368MOL0     H49645   5.170   6.297  10.557  0.6934 -0.7473 -0.3370
  368MOL0     H49646   4.995   6.458  10.676  0.6709  0.4015 -0.1009
  368MOL0     H49647   5.041   6.635  10.661 -0.8174 -0.5306  1.3657
  368MOL0     H49648   4.796   6.617  10.685 -0.0725  4.4180 -0.8509
  368MOL0     H49649   4.852   6.681  10.535 -1.2794 -1.0866 -2.3655
  368MOL0     H49650   4.767   6.389  10.590  1.1710  0.3689 -0.0520
  368MOL0     H49651   4.815   6.435  10.429 -2.9118 -0.1320 -1.0944
  368MOL0     H49652   4.588   6.593  10.551  1.4298 -0.0120  0.2152
  368MOL0     H49653   4.634   6.571  10.385  1.2060  1.0727  0.1301
  368MOL0     H49654   4.485   6.357  10.533 -1.7555 -3.6398 -2.2059
  368MOL0     H49655   4.594   6.316  10.417 -2.6468 -1.8743  1.6484
  368MOL0     H49656   4.347   6.503  10.365 -2.3754 -0.1954 -3.8855
  368MOL0     H49657   4.474   6.467  10.247  0.7681  1.5549  0.4478
  368MOL0     H49658   4.320   6.233  10.376  0.8080 -0.4162  0.3227
  368MOL0     H49659   4.430   6.227  10.239 -0.5390 -0.1296  0.7982
  368MOL0     H49660   4.168   6.357  10.226 -0.1436  0.9508  0.4767
  368MOL0     H49661   4.218   6.203  10.157  0.7140 -0.3607  0.7185
  368MOL0     H49662   5.216   6.692  10.406  2.3453 -0.3155 -0.9657
  368MOL0     H49663   5.472   6.677  10.434 -1.5308  1.6547 -1.6798
  368MOL0     H49664   5.800   6.579  10.470 -2.4776  0.6714  1.6655
  368MOL0     H49665   6.067   6.570  10.474 -1.1505 -0.7301  1.1151
  368MOL0     H49666   7.681   5.959  10.548 -1.6133  0.1766 -1.4873
  368MOL0     H49667   7.880   5.811  10.578  0.6746  0.3393 -0.0158
  368MOL0     H49668   8.390   5.834  10.344 -0.4342 -0.1161  0.4604
  368MOL0     H49669   8.608   5.707  10.431  0.3250 -2.4838  0.8639
  368MOL0     H49670   8.763   5.621  10.552  1.3774 -1.2202 -1.3968
  368MOL0     H49671   8.671   5.598  10.705  0.8398 -2.5493  2.0199
  368MOL0     H49672   8.878   5.408  10.576  0.0013  1.7509 -0.3388
  368MOL0     H49673   8.769   5.365  10.713  0.8471 -2.6938 -2.5380
  368MOL0     H49674   8.869   5.572  10.832  3.6383  2.4303 -0.1499
  368MOL0     H49675   8.991   5.564  10.700 -0.9326 -1.1381 -2.5404
  368MOL0     H49676   8.948   5.332  10.895 -2.1636  1.3586  0.1762
  368MOL0     H49677   9.079   5.434  10.899 -0.0719  0.7231  0.4378
  368MOL0     H49678   9.157   5.195  10.548 -0.4530  2.8747 -1.5268
  368MOL0     H49679   8.370   5.415  10.607  0.8069  0.4092  0.4869
  368MOL0     H49680   8.162   5.531  10.537  1.0111 -0.1531  2.2597
  369MOL0     O49681   4.917   4.180   3.935 -0.5457  0.2277 -0.0847
  369MOL0     C49682   4.853   4.080   3.917  0.1194 -0.5619  0.2472
  369MOL0     O49683   4.908   3.961   3.914 -1.0456 -0.0473 -0.4384
  369MOL0     C49684   5.029   3.943   3.982 -0.5871  0.3917  0.7537
  369MOL0     C49685   5.024   3.874   4.101 -0.9297 -0.2300 -0.2271
  369MOL0     C49686   5.145   3.845   4.172  0.7093 -0.2576 -1.1998
  369MOL0     C49687   5.266   3.901   4.136 -0.2176 -0.1829 -0.9061
  369MOL0     O49688   5.386   3.904   4.216 -0.2272  0.6991  0.0590
  369MOL0     C49689   5.403   3.820   4.327 -0.4902  0.0815 -0.5839
  369MOL0     C49690   5.517   3.876   4.411  0.6608  0.3737  0.7159
  369MOL0     C49691   5.502   4.018   4.465 -0.6986 -0.5357 -0.3045
  369MOL0     C49692   5.644   4.072   4.494  0.3931 -0.6637 -0.1147
  369MOL0     C49693   5.650   4.221   4.538 -0.1969 -0.8237 -0.0155
  369MOL0     C49694   5.782   4.296   4.510 -0.5816  0.9067 -0.5440
  369MOL0     C49695   5.787   4.449   4.536  0.2452  0.4087  0.4364
  369MOL0     C49696   5.896   4.516   4.459 -0.0184 -0.0768  0.3998
  369MOL0     N49697   5.903   4.670   4.477  0.2916  0.3242  0.3789
  369MOL0     C49698   6.025   4.736   4.465  0.1450  0.6918 -0.8177
  369MOL0     C49699   5.997   4.864   4.458  0.1906  0.2254 -0.1981
  369MOL0     C49700   6.091   4.978   4.423 -0.8596 -0.4853 -0.2409
  369MOL0     C49701   6.211   4.987   4.519  0.3220  0.6098  0.4382
  369MOL0     C49702   6.325   5.078   4.467  0.1106  0.4398 -0.1148
  369MOL0     C49703   6.448   5.010   4.410  0.1961 -0.6726 -1.1321
  369MOL0     O49704   6.405   4.898   4.329  0.5186  0.1466  0.5382
  369MOL0     C49705   6.488   4.814   4.275  0.4416 -0.2183 -0.3356
  369MOL0     C49706   6.628   4.824   4.287  1.3581  0.3922  0.4224
  369MOL0     C49707   6.714   4.724   4.235 -0.4265 -0.8384  0.7175
  369MOL0     C49708   6.856   4.769   4.225 -0.1841 -0.2914 -0.4658
  369MOL0     C49709   6.656   4.609   4.175 -0.3426  0.2718  0.1138
  369MOL0     C49710   6.743   4.497   4.128 -0.5027  0.2425 -1.2320
  369MOL0     O49711   6.853   4.472   4.215  0.2871 -0.4060  0.1938
  369MOL0     C49712   6.941   4.371   4.177 -0.2950  0.6995 -0.5577
  369MOL0     C49713   7.067   4.406   4.129 -0.3384  0.1966 -0.9124
  369MOL0     C49714   7.148   4.318   4.065  0.6700 -0.4139 -0.2799
  369MOL0     C49715   7.112   4.178   4.067  0.6789  0.1796  0.2482
  369MOL0     O49716   7.178   4.077   4.008 -0.3093 -0.3797  0.1456
  369MOL0     C49717   7.291   4.111   3.925 -0.6293 -0.3453 -0.5149
  369MOL0     C49718   7.348   3.993   3.848 -0.1777 -0.4703 -0.6822
  369MOL0     C49719   7.466   4.038   3.751  0.3717  0.5243 -0.6847
  369MOL0     C49720   7.527   3.937   3.665  0.1254  0.2208 -0.2224
  369MOL0     C49721   7.455   3.927   3.527  0.0505  1.0627  0.0474
  369MOL0     C49722   7.512   3.813   3.460 -0.2610  0.1894 -0.2137
  369MOL0     C49723   7.470   3.786   3.317  0.0150 -0.0080 -0.1502
  369MOL0     C49724   7.557   3.680   3.267 -0.1878 -0.5381 -0.6138
  369MOL0    Cl49725   7.564   3.699   3.090 -0.0469 -0.0238 -0.3376
  369MOL0     C49726   6.996   4.139   4.136  0.2660  1.0475  0.1485
  369MOL0     C49727   6.915   4.238   4.189  0.0178  0.7609  0.5621
  369MOL0     O49728   6.726   4.421   4.025  0.3960 -0.5585  0.3192
  369MOL0     C49729   6.519   4.595   4.161  0.4973 -0.9562  0.5440
  369MOL0     C49730   6.434   4.698   4.219  0.3342  0.8744  0.0726
  369MOL0     N49731   5.862   4.869   4.482 -1.1175  0.4039  0.3423
  369MOL0     N49732   5.809   4.761   4.496  0.1560  0.6596  1.2632
  369MOL0     C49733   5.271   3.976   4.018  0.2549  0.3430 -0.4092
  369MOL0     C49734   5.159   3.990   3.939  1.4141  0.1866  0.2863
  369MOL0     C49735   4.713   4.095   3.878  0.0588 -0.3562 -0.3113
  369MOL0     C49736   4.632   3.991   3.831  0.0158  0.0948 -0.1877
  369MOL0     C49737   4.490   4.016   3.798  0.6304 -1.0299 -0.4494
  369MOL0     C49738   4.440   4.153   3.802  0.9190  0.1685  0.6001
  369MOL0     O49739   4.311   4.192   3.760 -0.3347 -0.6175  0.1712
  369MOL0     C49740   4.227   4.091   3.697 -0.3410 -0.4463 -0.3317
  369MOL0     C49741   4.113   4.167   3.636 -0.8173  0.2380 -0.1395
  369MOL0     C49742   3.997   4.072   3.581  0.1268 -0.4375  0.0051
  369MOL0     C49743   4.037   3.953   3.487  0.1313  0.0329  1.1331
  369MOL0     C49744   3.924   3.877   3.446  0.7340  1.4144  0.3016
  369MOL0     C49745   3.828   3.812   3.424  0.4313  0.0177 -0.2088
  369MOL0     C49746   4.528   4.253   3.840  0.1653  0.1540 -0.1420
  369MOL0     C49747   4.658   4.224   3.875 -0.5311  0.4491  0.6927
  369MOL0     H49748   4.933   3.833   4.142 -1.0986 -0.5246 -0.8732
  369MOL0     H49749   5.142   3.799   4.270  0.1091  0.7467 -0.7206
  369MOL0     H49750   5.313   3.829   4.388  1.0865 -2.5217  2.4224
  369MOL0     H49751   5.419   3.713   4.307 -0.1800 -0.5561  2.5571
  369MOL0     H49752   5.532   3.808   4.495  0.2560  2.8481  2.9130
  369MOL0     H49753   5.608   3.862   4.352 -0.5013 -3.0200 -0.5383
  369MOL0     H49754   5.451   4.084   4.394  2.3891 -0.1607 -2.3520
  369MOL0     H49755   5.446   4.005   4.558  0.3304 -1.5009  0.2086
  369MOL0     H49756   5.679   4.012   4.578 -2.3016  0.1438  1.7256
  369MOL0     H49757   5.710   4.071   4.406  2.7536 -1.3843  1.5785
  369MOL0     H49758   5.581   4.263   4.465  0.0663  0.5632  0.5039
  369MOL0     H49759   5.612   4.233   4.640  2.3466  0.5574  0.8610
  369MOL0     H49760   5.863   4.245   4.564 -1.8758  1.7593  2.4346
  369MOL0     H49761   5.800   4.284   4.403  2.5296 -2.1693  0.1500
  369MOL0     H49762   5.696   4.489   4.491  1.3569 -0.2046 -2.5958
  369MOL0     H49763   5.796   4.460   4.645  0.1036 -2.4196  0.8214
  369MOL0     H49764   5.894   4.490   4.353  1.1600 -2.5017  0.8890
  369MOL0     H49765   5.991   4.475   4.496 -0.4001 -3.3614 -1.8674
  369MOL0     H49766   6.123   4.695   4.445 -1.3650 -2.0754 -3.4963
  369MOL0     H49767   6.126   4.962   4.321  0.7473 -0.7806  0.3328
  369MOL0     H49768   6.043   5.076   4.420 -0.2387 -0.0866  1.5339
  369MOL0     H49769   6.250   4.886   4.534  1.4837  0.3731 -3.2781
  369MOL0     H49770   6.176   5.034   4.612  0.6447  0.3251  0.7053
  369MOL0     H49771   6.362   5.138   4.550  0.7929 -0.0552 -0.0558
  369MOL0     H49772   6.301   5.142   4.381  3.7142  1.2936 -0.6536
  369MOL0     H49773   6.508   4.967   4.491  0.4407 -2.9810 -2.4398
  369MOL0     H49774   6.514   5.076   4.353 -0.7776  1.5856  0.2148
  369MOL0     H49775   6.671   4.911   4.336 -0.3343  0.8825  1.1129
  369MOL0     H49776   6.851   4.865   4.172 -0.9489 -0.9609 -1.6445
  369MOL0     H49777   6.886   4.776   4.330  0.2165 -0.4410 -0.5661
  369MOL0     H49778   6.928   4.708   4.169  0.1712 -0.7387  0.4508
  369MOL0     H49779   7.100   4.508   4.146 -0.9499  0.2125  0.2365
  369MOL0     H49780   7.244   4.351   4.027  0.8360  0.3203  0.7444
  369MOL0     H49781   7.261   4.178   3.844 -2.2939  0.6998  0.8753
  369MOL0     H49782   7.365   4.151   3.995 -0.0544 -1.3252 -0.5523
  369MOL0     H49783   7.386   3.913   3.912  3.4299  1.4228 -0.2181
  369MOL0     H49784   7.273   3.938   3.791  0.1664 -1.5064 -0.1549
  369MOL0     H49785   7.543   4.090   3.810  1.4754 -1.1623 -0.5695
  369MOL0     H49786   7.433   4.112   3.678  0.9976 -0.1853 -1.7085
  369MOL0     H49787   7.632   3.962   3.650  0.0366  0.6979 -0.0667
  369MOL0     H49788   7.528   3.839   3.713 -1.9096  0.6141  0.7306
  369MOL0     H49789   7.473   4.015   3.464  0.2864  1.0805  0.1388
  369MOL0     H49790   7.348   3.906   3.527  0.2412 -1.0942 -4.7071
  369MOL0     H49791   7.620   3.829   3.463 -0.2358 -0.1207  2.0579
  369MOL0     H49792   7.487   3.722   3.516  1.4420  1.2762  2.4809
  369MOL0     H49793   7.478   3.875   3.254 -2.0405  1.7278  1.8584
  369MOL0     H49794   7.364   3.761   3.313 -0.0551  0.4089 -1.1677
  369MOL0     H49795   7.536   3.576   3.289  2.3457 -0.5431  2.5385
  369MOL0     H49796   7.662   3.688   3.298 -0.2436  0.3010 -0.6152
  369MOL0     H49797   6.982   4.033   4.155 -1.0163  1.4905  1.9312
  369MOL0     H49798   6.822   4.202   4.232  0.6450 -2.8444 -0.7216
  369MOL0     H49799   6.481   4.509   4.107 -0.2416 -0.7503  0.7239
  369MOL0     H49800   6.326   4.699   4.230  0.5262 -0.4036  3.5199
  369MOL0     H49801   5.359   4.021   3.975  0.6327  2.2478  2.1492
  369MOL0     H49802   5.158   4.047   3.847  0.1769  0.2662  0.3284
  369MOL0     H49803   4.672   3.892   3.814 -2.2757 -0.7465 -0.9400
  369MOL0     H49804   4.431   3.929   3.775  0.1245 -0.6540 -0.5813
  369MOL0     H49805   4.275   4.042   3.612 -0.8118 -2.7226  0.6445
  369MOL0     H49806   4.193   4.018   3.771 -0.7932 -1.0679 -1.1476
  369MOL0     H49807   4.147   4.229   3.552 -1.7712 -0.9449 -1.4383
  369MOL0     H49808   4.077   4.227   3.720 -1.4332 -1.8908  1.1935
  369MOL0     H49809   3.918   4.131   3.534 -0.7708 -2.7180 -1.5349
  369MOL0     H49810   3.957   4.028   3.673 -1.3067  2.4008  0.8666
  369MOL0     H49811   4.106   3.888   3.540 -1.1698 -3.5847 -1.2005
  369MOL0     H49812   4.075   3.983   3.389  2.4452  0.1652  2.0142
  369MOL0     H49813   3.747   3.744   3.407  1.3903 -0.8634 -1.4986
  369MOL0     H49814   4.490   4.354   3.834 -0.6525 -0.1062  0.4549
  369MOL0     H49815   4.722   4.311   3.890  0.1994 -0.1770  1.3091
  370MOL0     O49816   6.610   4.525   6.738  1.1124 -0.1682 -0.6203
  370MOL0     C49817   6.657   4.641   6.750  0.1546  0.0741  1.4305
  370MOL0     O49818   6.684   4.706   6.865  0.2997  0.8822  1.2192
  370MOL0     C49819   6.719   4.633   6.970  0.0416 -1.3944  0.5349
  370MOL0     C49820   6.858   4.623   7.002  0.6333  0.1756 -0.3616
  370MOL0     C49821   6.889   4.572   7.130 -0.1880 -0.1423 -0.0861
  370MOL0     C49822   6.789   4.527   7.217 -0.2380  1.1173  0.1631
  370MOL0     O49823   6.804   4.476   7.345 -0.0515 -0.6452 -0.2584
  370MOL0     C49824   6.935   4.465   7.389 -1.7248 -0.3202 -0.3990
  370MOL0     C49825   6.944   4.393   7.529  0.0536 -0.9301 -0.1446
  370MOL0     C49826   6.880   4.485   7.631 -0.5299 -0.2250  0.3837
  370MOL0     C49827   6.820   4.398   7.746 -0.1914  0.5488  0.4826
  370MOL0     C49828   6.666   4.372   7.731 -0.2658  0.2871 -0.6585
  370MOL0     C49829   6.626   4.298   7.860  0.3338 -0.4081 -0.0523
  370MOL0     C49830   6.478   4.280   7.886  0.9681  0.6566  0.2176
  370MOL0     C49831   6.440   4.138   7.926  0.2808  0.4219 -0.1000
  370MOL0     N49832   6.527   4.084   8.031  0.3400 -0.6725 -0.1739
  370MOL0     C49833   6.500   4.098   8.168 -1.1394  0.1101 -0.0157
  370MOL0     C49834   6.578   4.008   8.229 -0.6150 -0.2864 -0.5414
  370MOL0     C49835   6.586   3.975   8.380 -0.3197 -0.4577  0.1277
  370MOL0     C49836   6.583   3.831   8.406  0.2903 -0.3064 -0.8343
  370MOL0     C49837   6.603   3.803   8.549 -0.4410 -0.1765  0.4095
  370MOL0     C49838   6.494   3.791   8.644  1.0542  0.9710  0.8012
  370MOL0     O49839   6.530   3.746   8.768 -0.7224  0.0371  0.9125
  370MOL0     C49840   6.436   3.687   8.845  0.5677 -0.2778  0.1035
  370MOL0     C49841   6.477   3.590   8.929 -0.0130 -0.3860 -1.4588
  370MOL0     C49842   6.390   3.517   9.005  0.1742  0.5137  0.1565
  370MOL0     C49843   6.456   3.415   9.094 -0.6961  0.1631 -0.8633
  370MOL0     C49844   6.245   3.544   8.988 -0.2510 -0.8454 -0.6278
  370MOL0     C49845   6.141   3.459   9.062 -0.0030 -0.0042  0.4889
  370MOL0     O49846   6.185   3.361   9.153  0.0023  0.1718  0.8347
  370MOL0     C49847   6.109   3.264   9.218  0.2368  0.2277 -0.5886
  370MOL0     C49848   6.180   3.201   9.325  0.5337  0.7365  0.3521
  370MOL0     C49849   6.113   3.111   9.412 -0.3426  0.0238  0.0064
  370MOL0     C49850   5.974   3.076   9.384  0.0272  0.1107 -0.3633
  370MOL0     O49851   5.918   2.982   9.462 -0.4892 -0.3604 -0.1533
  370MOL0     C49852   5.914   3.026   9.604 -0.2490  0.3102 -0.1925
  370MOL0     C49853   5.797   2.953   9.679  0.4545  1.1159 -0.6823
  370MOL0     C49854   5.660   2.970   9.618 -0.2617  1.0006 -0.5886
  370MOL0     C49855   5.555   2.921   9.723  0.7316 -0.3190 -0.1339
  370MOL0     C49856   5.412   2.957   9.679  1.1299  0.4128  0.5941
  370MOL0     C49857   5.364   2.904   9.543  0.1935  0.2123 -0.3479
  370MOL0     C49858   5.210   2.931   9.504 -0.0752  0.0690 -0.3365
  370MOL0     C49859   5.188   3.076   9.490 -0.4128  0.4564 -0.4042
  370MOL0    Cl49860   5.022   3.112   9.443 -0.0423 -0.2265  0.2397
  370MOL0     C49861   5.906   3.138   9.278 -0.5104 -0.7258 -0.0758
  370MOL0     C49862   5.973   3.232   9.194  0.1696  0.5653 -0.5368
  370MOL0     O49863   6.021   3.480   9.036  0.5744 -0.0844  0.1608
  370MOL0     C49864   6.203   3.643   8.905  0.2461 -0.0411  0.0320
  370MOL0     C49865   6.295   3.720   8.832 -0.5535  0.1913 -0.2466
  370MOL0     N49866   6.665   3.957   8.131  0.8315  0.2959 -0.6186
  370MOL0     N49867   6.627   3.997   8.015  0.8972  0.6307  0.0749
  370MOL0     C49868   6.659   4.524   7.171 -0.0469 -0.2643  0.2886
  370MOL0     C49869   6.618   4.579   7.049 -0.7349 -0.7516 -0.3858
  370MOL0     C49870   6.674   4.718   6.623 -0.5054  0.5390 -0.0096
  370MOL0     C49871   6.609   4.672   6.516  0.0038 -0.2552 -0.4892
  370MOL0     C49872   6.638   4.719   6.386 -0.0534  0.0991 -0.2958
  370MOL0     C49873   6.721   4.831   6.373 -0.7042 -0.3273 -0.5912
  370MOL0     O49874   6.788   4.881   6.267  0.2980  0.4762  0.1572
  370MOL0     C49875   6.738   4.836   6.137 -0.5301 -0.4349  0.6436
  370MOL0     C49876   6.798   4.915   6.026 -0.2651 -0.1227 -0.6259
  370MOL0     C49877   6.957   4.896   6.015  1.0754 -0.0623  0.0851
  370MOL0     C49878   6.996   4.761   5.967 -0.8631  0.5764  0.1469
  370MOL0     C49879   6.955   4.729   5.838 -0.3086  0.3587  0.3006
  370MOL0     C49880   6.928   4.730   5.724 -1.1917 -0.9316  0.7137
  370MOL0     C49881   6.776   4.884   6.497 -0.4824 -0.0966 -0.4601
  370MOL0     C49882   6.769   4.822   6.614  0.6405 -0.2852  0.1818
  370MOL0     H49883   6.939   4.672   6.949  1.8786  0.0966  1.3564
  370MOL0     H49884   6.993   4.559   7.156  0.2257  1.4955 -0.7925
  370MOL0     H49885   6.992   4.408   7.315 -2.9044 -0.2065 -1.4309
  370MOL0     H49886   6.986   4.561   7.398 -1.5023 -0.1356 -2.9672
  370MOL0     H49887   6.885   4.301   7.517 -1.9513  0.4770 -1.9045
  370MOL0     H49888   7.049   4.376   7.556  0.2074  1.1010  0.6702
  370MOL0     H49889   6.953   4.565   7.646 -1.5402  0.7328  0.3987
  370MOL0     H49890   6.790   4.535   7.592  0.1535  1.9781  1.4243
  370MOL0     H49891   6.879   4.306   7.744  0.7479  1.1458  0.0368
  370MOL0     H49892   6.835   4.445   7.844  1.4700  0.3226  0.3613
  370MOL0     H49893   6.615   4.469   7.721 -0.0525  0.4451 -0.2449
  370MOL0     H49894   6.641   4.308   7.647 -0.4176 -2.5734  1.4213
  370MOL0     H49895   6.662   4.195   7.851 -2.8631 -1.8323  1.6552
  370MOL0     H49896   6.675   4.340   7.948 -1.4795  2.4889 -0.2831
  370MOL0     H49897   6.447   4.347   7.967  0.4592  0.5351  0.1252
  370MOL0     H49898   6.419   4.290   7.795  0.8130 -1.7277 -0.0002
  370MOL0     H49899   6.446   4.073   7.839  0.7988  1.5598 -0.9341
  370MOL0     H49900   6.334   4.130   7.951  1.0489 -0.9530  3.3092
  370MOL0     H49901   6.418   4.159   8.207 -2.4739 -0.3604 -1.9182
  370MOL0     H49902   6.681   4.015   8.418  0.2500 -1.6243 -0.0411
  370MOL0     H49903   6.506   4.028   8.432 -0.2000 -0.6167  0.4716
  370MOL0     H49904   6.671   3.789   8.357  1.1335 -0.4948  0.7588
  370MOL0     H49905   6.491   3.787   8.366 -1.2499  2.7939 -0.9456
  370MOL0     H49906   6.662   3.885   8.591 -0.7706 -0.3794  1.2913
  370MOL0     H49907   6.650   3.705   8.561 -1.3150 -0.6361  0.1897
  370MOL0     H49908   6.430   3.716   8.596 -0.5088  3.0582 -0.5313
  370MOL0     H49909   6.427   3.876   8.659 -0.0433  0.2668  0.0134
  370MOL0     H49910   6.582   3.573   8.950 -0.5837 -1.3520  0.8471
  370MOL0     H49911   6.426   3.437   9.197  0.4096 -0.6155 -0.3622
  370MOL0     H49912   6.418   3.316   9.070 -2.4132 -0.4168  3.3339
  370MOL0     H49913   6.563   3.406   9.074 -0.3986  1.4281 -0.0022
  370MOL0     H49914   6.287   3.196   9.339  0.9974  1.4698 -2.2906
  370MOL0     H49915   6.165   3.050   9.485 -1.9512  0.9994  2.0689
  370MOL0     H49916   6.004   3.011   9.664 -0.6846  2.3588  1.0880
  370MOL0     H49917   5.905   3.133   9.626 -0.4544 -0.1172  2.1287
  370MOL0     H49918   5.823   2.847   9.678 -3.5466 -0.1860  2.8708
  370MOL0     H49919   5.797   2.991   9.781 -1.6926  1.7438 -0.8578
  370MOL0     H49920   5.649   2.902   9.533  2.1028 -1.9124  1.2388
  370MOL0     H49921   5.657   3.078   9.598  2.6064  1.8552  2.5385
  370MOL0     H49922   5.569   2.813   9.738  2.3048 -0.0793  0.3519
  370MOL0     H49923   5.569   2.974   9.818 -1.0234  1.1667 -0.6423
  370MOL0     H49924   5.416   3.066   9.674  3.2690  0.3124 -1.1978
  370MOL0     H49925   5.334   2.934   9.753  0.7326  0.2909  0.1452
  370MOL0     H49926   5.435   2.936   9.466  1.9677 -1.8234  0.3601
  370MOL0     H49927   5.385   2.798   9.528  3.7445  1.0918 -2.9593
  370MOL0     H49928   5.150   2.890   9.586  0.6567  1.4130  0.9244
  370MOL0     H49929   5.177   2.878   9.414 -2.8442 -1.1783  1.2711
  370MOL0     H49930   5.263   3.130   9.431 -1.1115  3.2531  1.1117
  370MOL0     H49931   5.196   3.120   9.590  0.3617 -0.5174 -0.0236
  370MOL0     H49932   5.803   3.120   9.252 -0.4874 -3.2711  1.1679
  370MOL0     H49933   5.928   3.276   9.105 -1.2291 -2.1024 -1.2279
  370MOL0     H49934   6.097   3.666   8.908 -0.5690 -3.2557  0.1663
  370MOL0     H49935   6.256   3.791   8.761  1.4528  1.8708  0.2337
  370MOL0     H49936   6.588   4.480   7.240  0.4426 -3.0255 -0.8194
  370MOL0     H49937   6.515   4.602   7.023 -1.0283  1.2887  2.1784
  370MOL0     H49938   6.538   4.591   6.527  1.0168 -1.1671 -0.4660
  370MOL0     H49939   6.589   4.678   6.299 -0.5726  0.2876 -0.0939
  370MOL0     H49940   6.765   4.730   6.135  0.7672 -0.1120 -0.4729
  370MOL0     H49941   6.632   4.841   6.113  0.1951  0.6049 -3.0141
  370MOL0     H49942   6.781   5.019   6.056 -1.7122  0.2204 -2.4545
  370MOL0     H49943   6.743   4.891   5.935 -0.9248  0.4959 -0.3998
  370MOL0     H49944   7.006   4.929   6.107  5.1045 -0.2484 -1.7940
  370MOL0     H49945   6.995   4.962   5.936 -0.6501 -0.1046 -0.8192
  370MOL0     H49946   6.975   4.693   6.050  0.9180 -0.1941  0.0199
  370MOL0     H49947   7.105   4.757   5.957 -0.8478 -0.9515  0.5809
  370MOL0     H49948   6.907   4.744   5.620 -1.7408 -1.5650  0.7344
  370MOL0     H49949   6.862   4.952   6.495  0.0225 -0.7322 -1.0681
  370MOL0     H49950   6.830   4.860   6.696  1.5905 -1.1509 -0.1054
  371MOL0     O49951   3.023   0.479  10.554 -0.0109  0.1455  0.6948
  371MOL0     C49952   3.057   0.384  10.482 -0.1089  0.0305  0.0076
  371MOL0     O49953   3.003   0.255  10.491 -0.2816  0.0016  0.0448
  371MOL0     C49954   2.886   0.232  10.558  0.0533  0.1745 -0.6794
  371MOL0     C49955   2.868   0.098  10.595 -0.2528 -0.0953  0.6116
  371MOL0     C49956   2.741   0.054  10.622  0.2384 -0.7715  0.4819
  371MOL0     C49957   2.624   0.142  10.612 -0.3947  0.4201 -0.1536
  371MOL0     O49958   2.491   0.103  10.629 -0.4002 -0.6108  0.6263
  371MOL0     C49959   2.452  -0.036  10.618 -0.0774  0.7554  0.1892
  371MOL0     C49960   2.314  -0.047  10.567  0.3394 -0.7185 -0.7628
  371MOL0     C49961   2.269  -0.188  10.566  0.0588  1.1204  0.4221
  371MOL0     C49962   2.126  -0.196  10.509  0.1141 -0.1834 -0.2317
  371MOL0     C49963   2.048  -0.312  10.565 -0.2944  0.0846  0.5563
  371MOL0     C49964   1.901  -0.307  10.519 -0.0230 -0.8638 -0.6534
  371MOL0     C49965   1.881  -0.353  10.377  0.1388 -0.4546  0.6943
  371MOL0     C49966   1.880  -0.501  10.359 -1.1334  0.5482  0.6334
  371MOL0     N49967   1.746  -0.561  10.366  1.2584  0.2687 -0.5495
  371MOL0     C49968   1.725  -0.700  10.350 -0.6354  0.5929  0.2815
  371MOL0     C49969   1.594  -0.715  10.385  0.3576 -1.2464  0.1603
  371MOL0     C49970   1.521  -0.841  10.386 -0.5004  0.2633 -0.1022
  371MOL0     C49971   1.423  -0.857  10.265  0.9229 -0.4279  0.5716
  371MOL0     C49972   1.485  -0.864  10.121 -0.3412 -0.2144 -0.2486
  371MOL0     C49973   1.586  -0.979  10.098 -0.2265  0.7875 -0.1741
  371MOL0     O49974   1.523  -1.110  10.136 -0.6331 -0.3610 -0.5471
  371MOL0     C49975   1.575  -1.223  10.077 -0.2373 -1.3042 -0.2747
  371MOL0     C49976   1.702  -1.231  10.024  0.7824  0.4644 -0.6423
  371MOL0     C49977   1.747  -1.347   9.969 -0.1735  0.0031 -0.8808
  371MOL0     C49978   1.884  -1.351   9.920 -0.1449  0.2582  0.4987
  371MOL0     C49979   1.657  -1.459   9.946  0.4546 -0.0560 -0.0003
  371MOL0     C49980   1.695  -1.591   9.889  0.2243 -0.6127  0.5215
  371MOL0     O49981   1.630  -1.699   9.936 -0.4366 -0.5734 -0.8084
  371MOL0     C49982   1.666  -1.832   9.917  0.7305 -0.3123 -0.4573
  371MOL0     C49983   1.613  -1.924  10.002 -0.3415 -0.3296 -0.8110
  371MOL0     C49984   1.659  -2.056   9.996 -0.3481  0.0633 -0.6756
  371MOL0     C49985   1.762  -2.096   9.912 -0.6836 -0.2241 -1.0500
  371MOL0     O49986   1.809  -2.226   9.923  0.0760 -0.0696  0.1513
  371MOL0     C49987   1.883  -2.275   9.812  0.6436  0.2370  0.1681
  371MOL0     C49988   1.886  -2.430   9.814 -0.3459 -0.3880 -0.4534
  371MOL0     C49989   1.959  -2.492   9.694 -0.3897  0.0744  0.4147
  371MOL0     C49990   1.981  -2.639   9.713 -0.1191 -0.4778  1.1076
  371MOL0     C49991   1.863  -2.734   9.699  0.3774  0.6349  1.0118
  371MOL0     C49992   1.899  -2.882   9.716  0.0577 -0.0289  0.0292
  371MOL0     C49993   1.786  -2.982   9.700  0.2852  0.2884 -0.3507
  371MOL0     C49994   1.824  -3.130   9.733 -0.0938 -0.4243 -0.2437
  371MOL0    Cl49995   2.005  -3.151   9.691  0.3685  0.1957 -0.3257
  371MOL0     C49996   1.819  -2.001   9.826 -0.2330  0.5507  1.0423
  371MOL0     C49997   1.754  -1.879   9.819 -0.2249 -0.0914  0.7631
  371MOL0     O49998   1.787  -1.595   9.810  0.2150  0.2494  0.2293
  371MOL0     C49999   1.522  -1.436   9.993 -0.2149 -0.4310 -0.6711
  371MOL0     C50000   1.484  -1.322  10.070 -0.8735  0.3953  0.3068
  371MOL0     N50001   1.534  -0.589  10.403  0.1210  0.5013  0.2042
  371MOL0     N50002   1.632  -0.499  10.390 -0.9078 -0.6069 -0.2794
  371MOL0     C50003   2.650   0.279  10.583 -0.0664  0.4570 -0.8021
  371MOL0     C50004   2.779   0.321  10.558 -0.1666 -0.0965  1.0038
  371MOL0     C50005   3.160   0.400  10.372 -0.2536  0.2896 -0.0850
  371MOL0     C50006   3.131   0.342  10.253  0.4717 -0.9186  0.5949
  371MOL0     C50007   3.215   0.356  10.140 -0.0379  0.0503  0.4469
  371MOL0     C50008   3.328   0.437  10.154 -0.3574 -0.8754  0.7118
  371MOL0     O50009   3.415   0.476  10.053 -0.2866  0.6330 -0.0086
  371MOL0     C50010   3.464   0.365   9.966 -1.1810 -0.7529 -0.7085
  371MOL0     C50011   3.488   0.386   9.815 -0.0135 -1.0612  0.0362
  371MOL0     C50012   3.412   0.500   9.746  0.4640  0.1440 -0.6192
  371MOL0     C50013   3.300   0.450   9.656  1.7554  0.0814 -0.5895
  371MOL0     C50014   3.344   0.373   9.548 -0.1256  0.8125  0.3210
  371MOL0     C50015   3.405   0.294   9.472 -0.3069 -0.3718 -0.1410
  371MOL0     C50016   3.348   0.508  10.275 -0.3852 -0.1895  0.3367
  371MOL0     C50017   3.261   0.487  10.385 -0.6927  0.5860  0.2615
  371MOL0     H50018   2.951   0.028  10.589  1.4309  1.9033 -1.4131
  371MOL0     H50019   2.722  -0.051  10.642 -4.1975  0.2835  3.2126
  371MOL0     H50020   2.510  -0.084  10.540  2.5617  4.3463 -0.3041
  371MOL0     H50021   2.466  -0.099  10.706  0.2844  2.4436  1.3975
  371MOL0     H50022   2.247   0.003  10.638  0.9321 -2.9209  1.5142
  371MOL0     H50023   2.306   0.002  10.470 -0.1437  1.2578  0.2260
  371MOL0     H50024   2.331  -0.255  10.506 -0.9201 -0.3755  1.0310
  371MOL0     H50025   2.281  -0.220  10.670  2.0346 -2.8891 -0.8245
  371MOL0     H50026   2.084  -0.099  10.538  1.3961  0.0524  0.9537
  371MOL0     H50027   2.127  -0.199  10.399 -1.7561 -3.2402 -0.2657
  371MOL0     H50028   2.099  -0.404  10.533  1.3157  1.4404 -0.9850
  371MOL0     H50029   2.051  -0.304  10.674 -0.1255  2.6032  0.4246
  371MOL0     H50030   1.842  -0.364  10.590 -1.3536 -1.3276 -2.0766
  371MOL0     H50031   1.874  -0.202  10.536 -0.2097 -0.6720 -2.0104
  371MOL0     H50032   1.791  -0.312  10.330  1.2845  0.2835 -0.9400
  371MOL0     H50033   1.950  -0.304  10.308 -2.1155  3.5566  0.9832
  371MOL0     H50034   1.940  -0.562  10.427 -3.2085 -2.6422 -0.1798
  371MOL0     H50035   1.933  -0.522  10.266  1.3400 -1.4396  2.3695
  371MOL0     H50036   1.801  -0.766  10.311  1.0826  0.5244  3.4443
  371MOL0     H50037   1.585  -0.927  10.401 -2.0034 -0.9271 -0.2550
  371MOL0     H50038   1.461  -0.839  10.478 -1.5761  2.0862 -0.7710
  371MOL0     H50039   1.357  -0.770  10.271  4.1359  2.2359  0.4730
  371MOL0     H50040   1.364  -0.949  10.270  0.5455 -0.1188  2.5217
  371MOL0     H50041   1.532  -0.767  10.103 -2.5640  0.7826 -1.0215
  371MOL0     H50042   1.397  -0.875  10.058  1.4399  1.3345 -3.2248
  371MOL0     H50043   1.683  -0.957  10.142 -0.3146  0.4125  0.2142
  371MOL0     H50044   1.609  -0.969   9.991  0.6434 -1.6400 -0.2801
  371MOL0     H50045   1.752  -1.135  10.025  0.3266  0.7802 -2.7480
  371MOL0     H50046   1.940  -1.431   9.970 -0.2796  0.7440  1.4430
  371MOL0     H50047   1.882  -1.352   9.811 -0.4726  1.5465  0.4800
  371MOL0     H50048   1.931  -1.254   9.941  1.2876 -0.0990 -0.9014
  371MOL0     H50049   1.536  -1.891  10.071  1.3161  3.6224 -0.6190
  371MOL0     H50050   1.616  -2.119  10.074  1.7201  1.1741  1.4992
  371MOL0     H50051   1.843  -2.237   9.717 -0.4454  1.6394  1.1536
  371MOL0     H50052   1.984  -2.235   9.820  0.8014  0.3382 -1.6838
  371MOL0     H50053   1.937  -2.469   9.903 -0.2909  0.6620 -0.0078
  371MOL0     H50054   1.785  -2.472   9.811 -0.4232 -0.6378  2.5237
  371MOL0     H50055   2.058  -2.447   9.681 -1.0443  1.6142  0.5791
  371MOL0     H50056   1.899  -2.482   9.602 -1.2335  2.5268  1.1429
  371MOL0     H50057   2.065  -2.677   9.653  0.3927 -0.5493  1.8503
  371MOL0     H50058   2.030  -2.657   9.809  0.4458  1.0751  1.1480
  371MOL0     H50059   1.837  -2.721   9.594  0.2635  0.9916  1.0822
  371MOL0     H50060   1.784  -2.705   9.769  0.8489 -0.8156  2.2083
  371MOL0     H50061   1.962  -2.912   9.632 -2.4696  1.3435 -2.4992
  371MOL0     H50062   1.954  -2.885   9.811 -0.2983  0.0506  0.2377
  371MOL0     H50063   1.750  -2.976   9.597  0.6130  0.9422 -0.4303
  371MOL0     H50064   1.701  -2.952   9.762 -1.0726  0.0756 -2.0401
  371MOL0     H50065   1.764  -3.190   9.665  0.1892  0.7607 -1.5852
  371MOL0     H50066   1.805  -3.171   9.832 -0.5142  0.9877  0.2878
  371MOL0     H50067   1.910  -2.021   9.770 -0.9774 -0.5366  0.1465
  371MOL0     H50068   1.801  -1.812   9.748 -1.5546 -0.5338 -0.5843
  371MOL0     H50069   1.465  -1.528  10.002  2.5023 -2.3534 -1.7965
  371MOL0     H50070   1.386  -1.300  10.112 -2.2037 -2.8559 -0.7825
  371MOL0     H50071   2.569   0.351  10.591  0.9271  1.7162 -1.5380
  371MOL0     H50072   2.795   0.424  10.525 -2.2543 -0.4609 -1.4143
  371MOL0     H50073   3.034   0.295  10.241 -0.3700 -0.0282  3.2533
  371MOL0     H50074   3.196   0.305  10.046 -1.0800  0.5211  0.3923
  371MOL0     H50075   3.560   0.330  10.006 -0.8710  0.3554 -0.4543
  371MOL0     H50076   3.395   0.281   9.971 -0.2708 -1.4747  0.2751
  371MOL0     H50077   3.469   0.292   9.763 -0.3682 -0.3845 -1.1156
  371MOL0     H50078   3.593   0.415   9.797 -0.5427  0.7122 -0.4870
  371MOL0     H50079   3.488   0.543   9.680  1.9876 -2.2204 -0.5188
  371MOL0     H50080   3.362   0.575   9.808 -2.4710 -1.4649 -0.8373
  371MOL0     H50081   3.250   0.531   9.601  2.3930  0.1750 -1.0382
  371MOL0     H50082   3.217   0.400   9.707 -0.0053  3.1173 -0.1775
  371MOL0     H50083   3.463   0.232   9.406 -0.8640 -0.1134 -0.8852
  371MOL0     H50084   3.416   0.592  10.281 -1.1020  0.6245 -1.9373
  371MOL0     H50085   3.283   0.545  10.474 -3.9818  1.9785  0.2912
  372MOL0     O50086   5.627   8.281   0.700  0.0775 -0.5648 -0.3566
  372MOL0     C50087   5.666   8.166   0.692  0.2265  0.1264 -0.3090
  372MOL0     O50088   5.598   8.060   0.731 -0.4110 -0.4836  0.1998
  372MOL0     C50089   5.490   8.079   0.809 -0.0118 -0.0699 -0.0690
  372MOL0     C50090   5.495   8.036   0.940 -0.7729  0.5483  0.1212
  372MOL0     C50091   5.387   8.053   1.018 -0.2192 -0.6814  0.6798
  372MOL0     C50092   5.261   8.105   0.979 -0.4740 -0.0796 -0.1935
  372MOL0     O50093   5.161   8.131   1.069  0.2399  0.4300 -0.2161
  372MOL0     C50094   5.088   8.248   1.051 -0.7094 -0.2877  0.3874
  372MOL0     C50095   4.986   8.255   1.159  0.0702  0.2388 -0.3548
  372MOL0     C50096   4.951   8.399   1.167  0.3672  0.0027 -0.0795
  372MOL0     C50097   4.831   8.414   1.072 -0.9112  0.4592 -0.1071
  372MOL0     C50098   4.757   8.538   1.088 -0.2229 -0.4602  0.0878
  372MOL0     C50099   4.840   8.657   1.042  0.5269 -0.1710  0.0846
  372MOL0     C50100   4.753   8.784   1.014 -0.3121  0.3952 -1.0903
  372MOL0     C50101   4.678   8.769   0.878  0.2896 -0.5916  0.7271
  372MOL0     N50102   4.616   8.896   0.837 -0.2839 -0.4261  0.6792
  372MOL0     C50103   4.680   8.971   0.742  1.1565  0.6269 -0.5239
  372MOL0     C50104   4.615   9.089   0.738 -0.1582 -0.3915 -0.2447
  372MOL0     C50105   4.653   9.203   0.645 -0.3256  0.6326 -0.4028
  372MOL0     C50106   4.569   9.252   0.539 -0.0037 -0.3781 -0.8997
  372MOL0     C50107   4.447   9.337   0.595 -0.8240 -0.8072  0.1735
  372MOL0     C50108   4.477   9.477   0.653  0.1569 -0.5647 -0.0116
  372MOL0     O50109   4.555   9.477   0.778  0.2138  0.1085  0.7835
  372MOL0     C50110   4.594   9.597   0.836 -0.4767 -0.3431  0.2326
  372MOL0     C50111   4.670   9.588   0.945 -0.7223 -0.1564 -1.0971
  372MOL0     C50112   4.747   9.689   1.001  0.3663  0.1010 -0.2231
  372MOL0     C50113   4.843   9.664   1.119  0.1955 -0.7072 -0.3561
  372MOL0     C50114   4.712   9.816   0.957 -0.0646  0.1438 -0.5712
  372MOL0     C50115   4.774   9.927   1.020 -1.0314  0.3815  0.0790
  372MOL0     O50116   4.856   9.999   0.947 -0.3869 -0.5868 -0.2285
  372MOL0     C50117   4.955  10.072   1.005 -0.8528 -0.1616  0.6076
  372MOL0     C50118   5.074  10.015   1.051 -0.9882  0.2233 -1.0798
  372MOL0     C50119   5.174  10.091   1.111  0.6030 -0.1976  0.0364
  372MOL0     C50120   5.150  10.229   1.144  0.1394  0.0624  1.1772
  372MOL0     O50121   5.239  10.309   1.207  0.5337  0.7105 -0.0758
  372MOL0     C50122   5.237  10.292   1.347  0.3281  0.0586 -0.0897
  372MOL0     C50123   5.150  10.398   1.410 -0.0563  0.1179  0.5949
  372MOL0     C50124   5.152  10.380   1.559 -0.6056 -0.7651 -0.4632
  372MOL0     C50125   5.032  10.442   1.629  0.1785 -0.2307 -0.0369
  372MOL0     C50126   5.034  10.590   1.610 -0.4968 -0.7592 -1.3980
  372MOL0     C50127   5.134  10.663   1.708 -0.1498  0.2666  0.3999
  372MOL0     C50128   5.148  10.814   1.668 -0.3451 -0.8129 -0.2668
  372MOL0     C50129   5.266  10.873   1.749 -0.1709 -0.0515  0.4245
  372MOL0    Cl50130   5.424  10.792   1.721 -0.0146 -0.5349  0.4092
  372MOL0     C50131   5.017  10.281   1.105  0.9123  1.0393  0.4842
  372MOL0     C50132   4.930  10.210   1.030  0.7872  0.3546 -0.6499
  372MOL0     O50133   4.741   9.950   1.138  0.5845 -0.3457 -0.1662
  372MOL0     C50134   4.613   9.833   0.860  0.1145 -0.1186  0.5012
  372MOL0     C50135   4.566   9.727   0.790 -0.6326  0.1677 -0.0621
  372MOL0     N50136   4.513   9.082   0.834  0.7641  0.0208  0.4601
  372MOL0     N50137   4.521   8.974   0.905 -0.1967  1.1763  0.4018
  372MOL0     C50138   5.254   8.131   0.838 -0.3809  0.3726 -0.5586
  372MOL0     C50139   5.368   8.133   0.765 -1.0647  0.1115 -0.2377
  372MOL0     C50140   5.803   8.133   0.642 -0.2746 -0.3756 -0.1401
  372MOL0     C50141   5.884   8.232   0.585  0.1755 -0.6746 -0.5057
  372MOL0     C50142   6.013   8.216   0.554 -0.3583 -0.2272 -0.0981
  372MOL0     C50143   6.068   8.084   0.573 -0.4230  0.1868 -0.0745
  372MOL0     O50144   6.205   8.060   0.559 -0.6035 -0.3013  0.5062
  372MOL0     C50145   6.244   7.936   0.500  0.1160  0.2282  0.1414
  372MOL0     C50146   6.365   7.962   0.409 -0.3428  0.5995 -0.6975
  372MOL0     C50147   6.451   7.841   0.362  0.0394  0.2180  0.0203
  372MOL0     C50148   6.500   7.747   0.479 -0.6332 -0.5226  0.0816
  372MOL0     C50149   6.614   7.656   0.440 -0.2227  0.3245  0.4692
  372MOL0     C50150   6.703   7.582   0.408 -0.1583 -0.0578  0.1724
  372MOL0     C50151   5.983   7.980   0.606 -0.0296 -0.5693  0.0735
  372MOL0     C50152   5.856   8.006   0.642  0.0657  0.5100  0.6651
  372MOL0     H50153   5.585   7.999   0.989 -0.4457 -0.3829 -1.1207
  372MOL0     H50154   5.397   8.036   1.124 -0.4819  4.6878  1.8575
  372MOL0     H50155   5.155   8.335   1.051 -3.4364  2.0150 -2.1677
  372MOL0     H50156   5.035   8.243   0.955  1.8242 -1.6564 -1.0685
  372MOL0     H50157   4.900   8.191   1.138  1.0688 -2.7856  3.5163
  372MOL0     H50158   5.021   8.216   1.255  1.3821  0.8359 -0.5651
  372MOL0     H50159   4.908   8.417   1.266 -4.6858 -2.2605 -1.5881
  372MOL0     H50160   5.030   8.473   1.148  1.1022 -0.4705  1.0435
  372MOL0     H50161   4.876   8.422   0.973  0.5005 -2.9354  0.1221
  372MOL0     H50162   4.768   8.325   1.068  0.6968 -0.7352 -0.0024
  372MOL0     H50163   4.667   8.530   1.026 -0.4424 -1.5057  0.5126
  372MOL0     H50164   4.714   8.561   1.186 -1.6954  0.5565 -0.7527
  372MOL0     H50165   4.898   8.694   1.127 -0.0066 -2.4298  1.5228
  372MOL0     H50166   4.886   8.641   0.944 -0.2412  0.1257 -0.3255
  372MOL0     H50167   4.680   8.803   1.094 -0.7406 -3.7225 -0.2770
  372MOL0     H50168   4.818   8.871   1.008  1.5827 -0.8090  0.7070
  372MOL0     H50169   4.590   8.704   0.881 -0.6238  0.3321 -2.5783
  372MOL0     H50170   4.745   8.725   0.803  1.0486  0.4219  0.7893
  372MOL0     H50171   4.748   8.927   0.670  0.3359 -1.7951  0.0931
  372MOL0     H50172   4.685   9.293   0.698 -1.2184  0.9538 -0.3972
  372MOL0     H50173   4.747   9.166   0.601 -0.4337 -2.1073  1.4425
  372MOL0     H50174   4.534   9.167   0.480  1.6350  0.8986 -3.9563
  372MOL0     H50175   4.622   9.300   0.456 -3.0054 -0.3071 -2.9521
  372MOL0     H50176   4.395   9.279   0.672 -1.5498  0.2437  0.4983
  372MOL0     H50177   4.375   9.339   0.513  0.4785  0.6059 -0.9998
  372MOL0     H50178   4.384   9.525   0.686  0.5868 -1.3764  2.6256
  372MOL0     H50179   4.532   9.526   0.573  1.3247  0.6177  1.4620
  372MOL0     H50180   4.693   9.483   0.963  0.3813  0.4615  1.5463
  372MOL0     H50181   4.925   9.736   1.109  1.5289 -2.3720 -2.1133
  372MOL0     H50182   4.798   9.682   1.217  1.4647 -1.1322  0.3277
  372MOL0     H50183   4.883   9.562   1.115 -1.7411 -1.4724 -1.8058
  372MOL0     H50184   5.065   9.907   1.048 -0.7197  0.1624  0.0490
  372MOL0     H50185   5.264  10.041   1.147  2.1882  2.4658  0.0362
  372MOL0     H50186   5.206  10.192   1.380 -3.6315  0.7380 -1.2182
  372MOL0     H50187   5.336  10.317   1.385  1.8205  0.8254 -4.0900
  372MOL0     H50188   5.188  10.493   1.373 -0.3360  0.9545  2.3415
  372MOL0     H50189   5.048  10.397   1.372  1.0641  0.0192 -2.6902
  372MOL0     H50190   5.244  10.411   1.609 -1.5444  0.4224  0.5685
  372MOL0     H50191   5.136  10.274   1.584 -1.4931 -0.4709  0.2929
  372MOL0     H50192   4.936  10.410   1.587  0.6357 -3.0032  0.7919
  372MOL0     H50193   5.038  10.408   1.733  0.1431 -2.9031 -0.8224
  372MOL0     H50194   4.934  10.630   1.632 -0.1441 -1.4555  2.0705
  372MOL0     H50195   5.057  10.621   1.508  2.4943 -1.1029 -0.9081
  372MOL0     H50196   5.093  10.667   1.809  1.0455  0.5934  0.8875
  372MOL0     H50197   5.227  10.606   1.703 -0.2449  0.2359 -1.7606
  372MOL0     H50198   5.054  10.870   1.680  0.7437  1.5047 -1.6813
  372MOL0     H50199   5.174  10.815   1.562  0.2499 -1.7093 -0.1396
  372MOL0     H50200   5.237  10.862   1.854 -1.0353  2.6457  0.5583
  372MOL0     H50201   5.270  10.982   1.741 -1.4349 -0.0227 -0.0571
  372MOL0     H50202   5.010  10.389   1.104  0.3358  1.0253  1.7382
  372MOL0     H50203   4.844  10.267   0.996  1.0004  0.6672 -0.6570
  372MOL0     H50204   4.569   9.931   0.845  0.0500 -0.3305 -0.7443
  372MOL0     H50205   4.492   9.734   0.711  1.1535  0.0172 -1.8293
  372MOL0     H50206   5.160   8.155   0.788 -0.7078  0.8538  0.2533
  372MOL0     H50207   5.361   8.174   0.665 -2.9812  1.3312  0.3439
  372MOL0     H50208   5.855   8.336   0.572  1.9887 -0.1150 -0.3576
  372MOL0     H50209   6.075   8.295   0.514  0.2585 -0.9217 -0.5452
  372MOL0     H50210   6.269   7.869   0.582 -0.4242  4.8522  4.6300
  372MOL0     H50211   6.169   7.887   0.437 -1.7593  0.3394  2.1542
  372MOL0     H50212   6.433   8.026   0.466  0.1301 -0.7469  0.3007
  372MOL0     H50213   6.338   8.006   0.312  0.8561 -4.3610 -3.6460
  372MOL0     H50214   6.546   7.873   0.318  0.6289  0.8014  1.6519
  372MOL0     H50215   6.392   7.780   0.293  0.1462 -0.3462  0.4210
  372MOL0     H50216   6.417   7.683   0.512 -1.4392  0.0072 -0.8529
  372MOL0     H50217   6.533   7.804   0.567  2.5877  1.5429 -2.2548
  372MOL0     H50218   6.776   7.511   0.376  2.1679  2.9244 -1.6737
  372MOL0     H50219   6.011   7.875   0.610  2.0486 -0.0399  1.0686
  372MOL0     H50220   5.800   7.921   0.681  2.0889 -1.4370 -0.3800
  373MOL0     O50221   4.918   5.689  11.008  0.2145 -0.6076 -0.1403
  373MOL0     C50222   4.897   5.802  11.056 -0.6597 -0.0567  0.0536
  373MOL0     O50223   4.781   5.857  11.090  0.7023  0.1811 -0.7378
  373MOL0     C50224   4.654   5.806  11.065 -0.4671 -0.2428  0.5924
  373MOL0     C50225   4.552   5.877  11.119  0.4106 -0.2400  0.6304
  373MOL0     C50226   4.420   5.842  11.089 -0.3314 -0.4054 -0.0525
  373MOL0     C50227   4.385   5.737  11.003  0.1645  0.5780 -0.1262
  373MOL0     O50228   4.256   5.703  10.984 -1.0876  0.4151 -1.0604
  373MOL0     C50229   4.226   5.586  10.906 -0.1909  0.3987 -0.1702
  373MOL0     C50230   4.076   5.609  10.879 -0.4032 -0.2143  0.4435
  373MOL0     C50231   4.017   5.473  10.831  0.2015  0.0783 -0.2248
  373MOL0     C50232   3.905   5.426  10.930 -0.6414  0.4334 -0.2424
  373MOL0     C50233   3.820   5.316  10.863  0.7939  0.0466 -0.5815
  373MOL0     C50234   3.708   5.278  10.961 -0.5818  0.4311  0.0993
  373MOL0     C50235   3.597   5.183  10.919 -0.4147  0.3050 -0.5648
  373MOL0     C50236   3.488   5.265  10.853  0.3326  0.3912  0.3466
  373MOL0     N50237   3.364   5.183  10.867 -0.7236  0.5861  0.6752
  373MOL0     C50238   3.249   5.213  10.934 -0.1336  0.3058  0.3570
  373MOL0     C50239   3.150   5.142  10.870  0.2137 -0.4958  0.6723
  373MOL0     C50240   3.004   5.151  10.897 -0.5612 -0.3701 -0.0194
  373MOL0     C50241   2.942   5.022  10.851  0.0321 -0.1530 -0.7950
  373MOL0     C50242   2.793   5.031  10.873 -0.2559  0.3638 -0.4139
  373MOL0     C50243   2.736   4.905  10.802  0.5324 -0.3977  0.1050
  373MOL0     O50244   2.680   4.947  10.680 -0.0301 -0.6768  0.4341
  373MOL0     C50245   2.594   4.860  10.618 -0.1160  0.2171 -0.8716
  373MOL0     C50246   2.569   4.898  10.486 -0.3232  0.0798 -0.9266
  373MOL0     C50247   2.498   4.809  10.406 -0.5786 -0.5752  0.8240
  373MOL0     C50248   2.490   4.872  10.268 -0.2764  0.4527 -0.5339
  373MOL0     C50249   2.442   4.688  10.459  0.7096  0.8222 -0.5390
  373MOL0     C50250   2.355   4.594  10.381 -0.1785  0.2018  0.0341
  373MOL0     O50251   2.354   4.467  10.428  0.1174 -0.4087 -0.0942
  373MOL0     C50252   2.272   4.372  10.368  1.1855 -0.1776 -0.8916
  373MOL0     C50253   2.287   4.313  10.247 -0.1529 -0.9242  0.0599
  373MOL0     C50254   2.192   4.225  10.192 -0.6405 -0.2366 -1.1836
  373MOL0     C50255   2.079   4.203  10.255  0.2209 -1.0638 -0.4389
  373MOL0     O50256   1.968   4.145  10.196  0.3490 -0.2113  0.1436
  373MOL0     C50257   1.989   4.061  10.078  0.1952 -0.4994  0.5481
  373MOL0     C50258   1.866   3.976  10.056 -0.1630  0.4647  0.0349
  373MOL0     C50259   1.891   3.910   9.927 -0.3269 -0.1252 -0.0341
  373MOL0     C50260   1.781   3.812   9.875 -0.4113 -0.4039 -0.1844
  373MOL0     C50261   1.694   3.874   9.767 -0.3868 -0.0237  0.2547
  373MOL0     C50262   1.774   3.875   9.632  0.8082 -0.5759 -0.4879
  373MOL0     C50263   1.686   3.910   9.513 -0.1254  0.3881 -0.0923
  373MOL0     C50264   1.763   3.904   9.389 -0.3426 -0.5539  0.7471
  373MOL0    Cl50265   1.782   3.718   9.345 -0.3067 -0.2374 -0.3412
  373MOL0     C50266   2.063   4.256  10.389 -0.2743  0.1318 -0.1596
  373MOL0     C50267   2.155   4.344  10.442  0.0670  0.1044  0.0288
  373MOL0     O50268   2.291   4.637  10.282  0.4998 -0.3425 -0.7290
  373MOL0     C50269   2.449   4.667  10.596  0.8275 -1.2498 -0.5119
  373MOL0     C50270   2.529   4.756  10.680 -0.3489 -0.1534  0.1402
  373MOL0     N50271   3.211   5.046  10.784 -0.4550 -0.3589 -0.7732
  373MOL0     N50272   3.342   5.082  10.781  0.4178 -0.2557  0.1906
  373MOL0     C50273   4.490   5.671  10.932 -0.7235  0.8212 -0.8558
  373MOL0     C50274   4.625   5.699  10.971 -0.9745 -0.3511 -0.3987
  373MOL0     C50275   5.015   5.893  11.084 -0.6796  0.6217 -0.7102
  373MOL0     C50276   5.003   6.027  11.128 -0.3884 -0.0198 -0.2200
  373MOL0     C50277   5.119   6.099  11.179  1.0625 -0.1212  0.5493
  373MOL0     C50278   5.241   6.040  11.155 -0.2742  0.1498 -0.2654
  373MOL0     O50279   5.367   6.098  11.178  0.2629  0.3958 -0.8685
  373MOL0     C50280   5.373   6.239  11.158 -0.0857  0.6847 -0.1608
  373MOL0     C50281   5.518   6.292  11.147  0.5552 -0.1970  0.5889
  373MOL0     C50282   5.600   6.258  11.273  0.5862 -0.3275  0.6062
  373MOL0     C50283   5.554   6.334  11.396 -0.2019  0.1657 -0.9166
  373MOL0     C50284   5.596   6.464  11.387 -0.7999  0.1718 -0.1924
  373MOL0     C50285   5.647   6.571  11.353  0.1766  0.7916 -0.4691
  373MOL0     C50286   5.251   5.911  11.113  1.6008  0.5980  0.2927
  373MOL0     C50287   5.139   5.833  11.087 -0.2760  0.1780  0.0863
  373MOL0     H50288   4.565   5.972  11.170 -1.4070  0.0842  0.5581
  373MOL0     H50289   4.338   5.899  11.132 -0.6160  0.9063 -2.1845
  373MOL0     H50290   4.271   5.585  10.806  0.5153  2.3721  0.0585
  373MOL0     H50291   4.239   5.495  10.966  1.7647  1.2967  0.8833
  373MOL0     H50292   4.016   5.642  10.963  0.2636  2.4964 -0.0385
  373MOL0     H50293   4.059   5.697  10.816  0.2311 -0.1365  0.3715
  373MOL0     H50294   3.981   5.494  10.730  2.3816  1.9506 -0.6803
  373MOL0     H50295   4.094   5.396  10.823 -0.9495 -1.1028 -0.3108
  373MOL0     H50296   3.936   5.382  11.026 -1.6625 -1.7530 -0.8459
  373MOL0     H50297   3.834   5.505  10.955 -1.8108 -0.2507 -1.2991
  373MOL0     H50298   3.761   5.356  10.781 -3.7159 -2.6581  0.9443
  373MOL0     H50299   3.880   5.230  10.833 -0.3267 -0.4057 -1.6427
  373MOL0     H50300   3.747   5.228  11.051 -1.8285 -0.7079  0.0453
  373MOL0     H50301   3.656   5.361  11.009 -2.3176 -1.4476  1.6987
  373MOL0     H50302   3.644   5.101  10.865 -1.6982 -1.2244  0.5456
  373MOL0     H50303   3.552   5.135  11.007 -0.2725  1.1185 -0.0365
  373MOL0     H50304   3.516   5.259  10.747 -1.1912  0.4605 -0.0766
  373MOL0     H50305   3.489   5.370  10.886 -0.0760 -0.4104  3.1016
  373MOL0     H50306   3.228   5.286  11.012 -1.9683 -0.7250  0.8810
  373MOL0     H50307   2.991   5.163  11.005  2.0288 -1.1198  0.4415
  373MOL0     H50308   2.971   5.244  10.850  2.6970 -1.1476 -4.3720
  373MOL0     H50309   2.990   4.938  10.902  2.2332  0.6411 -1.4805
  373MOL0     H50310   2.953   5.001  10.745 -2.1445  0.0672 -1.1081
  373MOL0     H50311   2.737   5.122  10.850 -1.6291 -0.2867  0.2027
  373MOL0     H50312   2.784   5.029  10.982  3.0439  1.4882 -0.0189
  373MOL0     H50313   2.658   4.881  10.874  0.4636  2.5283  1.1432
  373MOL0     H50314   2.805   4.822  10.785  2.4234  1.7184 -4.0814
  373MOL0     H50315   2.613   4.991  10.451  2.0856 -0.3667  0.7019
  373MOL0     H50316   2.593   4.889  10.233  0.7975  1.0908  2.6739
  373MOL0     H50317   2.437   4.812  10.192 -1.7222  2.0094 -0.8063
  373MOL0     H50318   2.433   4.965  10.271  0.3265  0.8032  0.9302
  373MOL0     H50319   2.372   4.340  10.186 -1.9241 -0.2692 -2.2525
  373MOL0     H50320   2.207   4.195  10.089  0.8987 -0.1288 -1.0142
  373MOL0     H50321   2.010   4.117   9.987 -2.9492 -1.6497 -1.0383
  373MOL0     H50322   2.079   3.999  10.089 -0.3202 -1.6068 -1.1357
  373MOL0     H50323   1.845   3.915  10.144 -1.1361  0.9501  0.1453
  373MOL0     H50324   1.778   4.039  10.045 -0.7754 -0.6662 -2.3245
  373MOL0     H50325   1.976   3.850   9.961 -1.2321 -0.7146  1.2724
  373MOL0     H50326   1.921   3.981   9.849 -0.4743  1.9899  1.7557
  373MOL0     H50327   1.833   3.728   9.827  2.2419  0.0786  1.6581
  373MOL0     H50328   1.724   3.778   9.962 -3.2138  0.6016 -1.4885
  373MOL0     H50329   1.672   3.979   9.788 -0.2776 -0.2113  1.3649
  373MOL0     H50330   1.598   3.822   9.755 -0.5022  0.4755 -1.0845
  373MOL0     H50331   1.854   3.949   9.630  1.6214 -1.4501 -0.8592
  373MOL0     H50332   1.823   3.779   9.616 -2.1081 -2.1525 -0.5755
  373MOL0     H50333   1.652   4.014   9.519 -2.1721 -0.1847 -0.7526
  373MOL0     H50334   1.596   3.848   9.508  1.7691 -2.5263 -0.7962
  373MOL0     H50335   1.861   3.951   9.404 -0.2080 -0.2620 -0.8373
  373MOL0     H50336   1.703   3.958   9.315 -0.9568  0.1510  1.7417
  373MOL0     H50337   1.978   4.246  10.457 -1.0629  2.1003 -0.7727
  373MOL0     H50338   2.128   4.389  10.537  0.7211  1.1884 -0.2846
  373MOL0     H50339   2.407   4.576  10.638  0.1752 -1.4647 -1.5858
  373MOL0     H50340   2.543   4.732  10.785 -2.6213 -0.3503  0.4539
  373MOL0     H50341   4.477   5.577  10.878 -1.1370  0.2161  0.2584
  373MOL0     H50342   4.702   5.633  10.933 -0.8699 -0.3956 -0.1117
  373MOL0     H50343   4.908   6.078  11.138  0.2167  0.8659  1.5441
  373MOL0     H50344   5.104   6.197  11.222 -0.5608  0.2883 -0.8388
  373MOL0     H50345   5.337   6.250  11.055  3.7840  0.8287 -1.6513
  373MOL0     H50346   5.334   6.305  11.237  3.8590 -0.3830  3.0135
  373MOL0     H50347   5.513   6.400  11.127  0.8863 -0.3665 -0.4529
  373MOL0     H50348   5.563   6.231  11.068  0.5941 -0.1609  0.5832
  373MOL0     H50349   5.705   6.282  11.254  0.1329  0.8746 -0.5739
  373MOL0     H50350   5.592   6.151  11.294 -2.7921 -0.9811 -2.7761
  373MOL0     H50351   5.607   6.285  11.478 -0.1105  1.0508 -0.4377
  373MOL0     H50352   5.446   6.325  11.411 -0.1867  3.2956  2.0814
  373MOL0     H50353   5.690   6.664  11.322 -0.6810  0.7309 -1.9742
  373MOL0     H50354   5.353   5.873  11.118  1.8214  1.0961 -0.2521
  373MOL0     H50355   5.146   5.732  11.050  2.2343  0.7058 -1.0919
  374MOL0     O50356   7.284   4.070   0.152 -0.2248 -0.3010  0.0371
  374MOL0     C50357   7.240   4.005   0.061  0.1924  0.3916 -0.0622
  374MOL0     O50358   7.104   3.976   0.043 -0.5589  0.4177 -0.6734
  374MOL0     C50359   7.011   4.017   0.135  0.9894 -0.0324 -0.0748
  374MOL0     C50360   7.019   3.981   0.268  0.1872 -0.4717 -0.6179
  374MOL0     C50361   6.921   4.024   0.360 -1.5332  0.2798 -0.1965
  374MOL0     C50362   6.808   4.086   0.315  0.3693  0.0976  0.7170
  374MOL0     O50363   6.714   4.132   0.410  0.4890 -0.0096 -0.1704
  374MOL0     C50364   6.575   4.101   0.374  0.2975 -0.2560  0.3256
  374MOL0     C50365   6.492   4.227   0.319 -0.6808  0.3180 -0.7150
  374MOL0     C50366   6.394   4.199   0.216 -0.2758  0.1826  0.9762
  374MOL0     C50367   6.286   4.112   0.266  0.4619  1.4763  0.2787
  374MOL0     C50368   6.212   4.027   0.164  0.6254 -0.4075  0.1550
  374MOL0     C50369   6.113   4.111   0.079 -0.0094  0.9403 -0.7362
  374MOL0     C50370   5.994   4.026   0.022  0.8844 -0.1767  0.1916
  374MOL0     C50371   5.887   4.120  -0.045 -0.5551 -0.3732 -0.2993
  374MOL0     N50372   5.845   4.235   0.035 -0.4339 -0.7881  0.4262
  374MOL0     C50373   5.740   4.243   0.121 -0.5218  0.4547 -0.6107
  374MOL0     C50374   5.739   4.359   0.176 -0.5717 -0.0115  0.4118
  374MOL0     C50375   5.640   4.409   0.274 -0.3173 -0.5851 -0.5843
  374MOL0     C50376   5.515   4.464   0.206 -0.3839 -0.9673 -0.4171
  374MOL0     C50377   5.442   4.569   0.297  0.3799 -0.0693  0.4714
  374MOL0     C50378   5.327   4.642   0.221 -0.5723 -0.2083  0.4907
  374MOL0     O50379   5.220   4.555   0.193  0.1185 -0.4480 -0.7261
  374MOL0     C50380   5.103   4.613   0.151 -0.2421 -0.0801 -0.2552
  374MOL0     C50381   4.992   4.529   0.127  0.2761  0.4340 -0.9647
  374MOL0     C50382   4.874   4.579   0.089  0.8119  0.2336  1.1282
  374MOL0     C50383   4.758   4.477   0.087  0.0606  0.0088 -0.7401
  374MOL0     C50384   4.852   4.717   0.066  0.3257  0.5813 -0.1315
  374MOL0     C50385   4.731   4.783   0.023  0.9949 -0.9844  0.2203
  374MOL0     O50386   4.641   4.709  -0.045  0.9238  1.1982 -0.4558
  374MOL0     C50387   4.553   4.764  -0.131 -0.5644  1.1115  0.5661
  374MOL0     C50388   4.597   4.855  -0.232 -0.5951 -0.9916 -1.1417
  374MOL0     C50389   4.508   4.917  -0.314 -0.3847 -0.0273 -0.0448
  374MOL0     C50390   4.370   4.884  -0.308  1.1072 -0.5220 -0.6886
  374MOL0     O50391   4.273   4.940  -0.382 -0.3996  0.3368  0.5480
  374MOL0     C50392   4.313   4.965  -0.518  0.0300  0.8536  0.9667
  374MOL0     C50393   4.341   4.833  -0.601  0.4545  0.0097 -0.7343
  374MOL0     C50394   4.352   4.881  -0.742 -0.6806  1.0016  0.1271
  374MOL0     C50395   4.376   4.756  -0.829 -0.4144 -0.7036 -0.5216
  374MOL0     C50396   4.362   4.773  -0.979 -0.6113 -0.1338  0.2103
  374MOL0     C50397   4.463   4.871  -1.032 -0.1847 -0.2016  0.6699
  374MOL0     C50398   4.606   4.829  -1.009 -1.4813  0.4802  0.2069
  374MOL0     C50399   4.707   4.927  -1.048  0.9757  0.6925 -0.3000
  374MOL0    Cl50400   4.675   4.982  -1.216  0.3757 -0.0950  0.0815
  374MOL0     C50401   4.324   4.784  -0.225 -0.2003 -0.6296 -0.9787
  374MOL0     C50402   4.416   4.725  -0.128 -0.2611 -0.3966  0.0251
  374MOL0     O50403   4.711   4.898   0.053  0.1893 -0.5258 -0.3892
  374MOL0     C50404   4.968   4.799   0.075  0.0602 -0.0455 -0.2930
  374MOL0     C50405   5.092   4.745   0.114  0.2585 -0.7855  0.0928
  374MOL0     N50406   5.847   4.428   0.130 -0.0592  0.7144 -0.4655
  374MOL0     N50407   5.914   4.349   0.053  0.2407 -0.4229 -0.2647
  374MOL0     C50408   6.787   4.097   0.176 -0.0787 -0.7416 -0.6830
  374MOL0     C50409   6.891   4.071   0.092  0.9537  1.5379  0.0436
  374MOL0     C50410   7.336   3.945  -0.030  0.0236 -0.3013 -0.2361
  374MOL0     C50411   7.300   3.905  -0.166  0.0483 -0.5780  0.0548
  374MOL0     C50412   7.403   3.844  -0.235 -0.0832 -0.5652 -1.3864
  374MOL0     C50413   7.531   3.817  -0.181 -0.2210 -0.5316  0.2767
  374MOL0     O50414   7.634   3.764  -0.262 -0.4733 -0.3212 -0.8472
  374MOL0     C50415   7.610   3.633  -0.307 -0.4136  0.4062  0.2126
  374MOL0     C50416   7.714   3.543  -0.240 -0.6111  0.4852 -0.0386
  374MOL0     C50417   7.855   3.566  -0.292  0.2806  1.3111  0.3638
  374MOL0     C50418   7.968   3.506  -0.192  0.1476  0.2293  0.4560
  374MOL0     C50419   8.101   3.518  -0.262 -0.2444  0.5195  1.2043
  374MOL0     C50420   8.207   3.522  -0.323 -0.1386 -0.4161  0.0282
  374MOL0     C50421   7.573   3.860  -0.051 -0.3359 -0.0039  0.0741
  374MOL0     C50422   7.468   3.919   0.024 -0.9147  0.6708 -0.3321
  374MOL0     H50423   7.103   3.925   0.306 -1.8708 -2.2986  1.5590
  374MOL0     H50424   6.940   4.008   0.465 -1.3113 -0.1372 -0.3002
  374MOL0     H50425   6.572   4.023   0.296 -0.0779  0.4557 -0.3857
  374MOL0     H50426   6.520   4.059   0.459 -2.8731 -1.8231 -2.2557
  374MOL0     H50427   6.435   4.276   0.398 -0.1634  0.2247 -0.2688
  374MOL0     H50428   6.557   4.307   0.282 -1.7816  2.0986  0.9975
  374MOL0     H50429   6.356   4.289   0.166  0.0871 -0.5311 -0.6331
  374MOL0     H50430   6.444   4.137   0.141 -0.7586  0.5898  0.3007
  374MOL0     H50431   6.330   4.041   0.337  0.8289  1.8638  0.4483
  374MOL0     H50432   6.216   4.163   0.333 -1.2034 -0.3486 -0.0019
  374MOL0     H50433   6.287   3.977   0.101  0.9496  2.7414 -2.1926
  374MOL0     H50434   6.156   3.950   0.218 -2.6654  1.4146 -0.4042
  374MOL0     H50435   6.074   4.196   0.135  0.0300  0.9861 -0.7779
  374MOL0     H50436   6.182   4.142  -0.000 -0.7299  1.6363 -1.1002
  374MOL0     H50437   6.023   3.958  -0.059 -6.3166 -1.4446 -2.0107
  374MOL0     H50438   5.946   3.961   0.096 -1.5125  2.6208  1.2792
  374MOL0     H50439   5.800   4.057  -0.063 -3.2972  2.3359  2.3521
  374MOL0     H50440   5.924   4.159  -0.140 -1.6034  2.3296  0.3104
  374MOL0     H50441   5.676   4.159   0.145  0.7080 -0.8650 -1.7126
  374MOL0     H50442   5.608   4.325   0.336 -1.9224 -1.2984 -2.2839
  374MOL0     H50443   5.704   4.481   0.326  0.9584 -1.9096 -0.2493
  374MOL0     H50444   5.454   4.377   0.177 -0.2735 -2.0627  2.3996
  374MOL0     H50445   5.548   4.501   0.108  1.5835 -2.1470 -0.2421
  374MOL0     H50446   5.513   4.647   0.326  2.5243 -1.8205  0.1172
  374MOL0     H50447   5.400   4.529   0.390 -2.7426 -0.7952 -1.1124
  374MOL0     H50448   5.374   4.673   0.127  1.0958 -1.5108  0.8542
  374MOL0     H50449   5.295   4.726   0.283 -2.4339 -0.2478 -0.3303
  374MOL0     H50450   4.994   4.422   0.145 -2.9301  0.0389 -2.2815
  374MOL0     H50451   4.788   4.396   0.153  3.0294  1.2256 -0.4478
  374MOL0     H50452   4.673   4.526   0.136  0.1960 -0.9420  0.4913
  374MOL0     H50453   4.715   4.444  -0.008 -2.1460 -1.1988  0.5924
  374MOL0     H50454   4.699   4.887  -0.247 -0.2553 -1.8086 -0.6583
  374MOL0     H50455   4.542   4.990  -0.386  0.0149 -0.6952 -0.5435
  374MOL0     H50456   4.239   5.024  -0.573  1.6184  0.3395 -1.9325
  374MOL0     H50457   4.406   5.023  -0.520  1.9120 -1.9082 -1.5837
  374MOL0     H50458   4.428   4.785  -0.556  1.9189  3.6214  0.6621
  374MOL0     H50459   4.253   4.768  -0.597  0.1593  0.3290 -1.7774
  374MOL0     H50460   4.436   4.949  -0.761  1.6553 -1.9755 -1.1587
  374MOL0     H50461   4.256   4.921  -0.775 -3.7830 -3.1892  3.0112
  374MOL0     H50462   4.471   4.706  -0.806 -0.0393 -0.4514 -1.4494
  374MOL0     H50463   4.297   4.689  -0.795 -3.0145  1.8985 -0.9922
  374MOL0     H50464   4.264   4.820  -0.991  0.5174  2.5352  0.9301
  374MOL0     H50465   4.351   4.683  -1.040 -4.7158 -0.3607  0.9979
  374MOL0     H50466   4.445   4.888  -1.139  0.1641  2.7719  0.9920
  374MOL0     H50467   4.449   4.965  -0.978  1.7451 -0.7586  2.2638
  374MOL0     H50468   4.609   4.737  -1.068 -0.1288 -0.4397  1.6290
  374MOL0     H50469   4.628   4.801  -0.905 -1.2694  3.4593  1.0472
  374MOL0     H50470   4.808   4.883  -1.043  0.3106 -0.7638  0.9558
  374MOL0     H50471   4.706   5.014  -0.982  2.7213  0.5890 -0.0825
  374MOL0     H50472   4.227   4.735  -0.226 -1.1916  1.2090 -3.7607
  374MOL0     H50473   4.402   4.649  -0.052  0.8808 -0.3130  0.3281
  374MOL0     H50474   4.973   4.903   0.043  0.5845  0.1159  0.3027
  374MOL0     H50475   5.164   4.826   0.112  1.0892 -1.5135 -2.5261
  374MOL0     H50476   6.698   4.135   0.129  0.2099 -0.0988 -0.7140
  374MOL0     H50477   6.874   4.077  -0.016 -0.4169  0.2601  0.1595
  374MOL0     H50478   7.204   3.934  -0.207  1.2747  1.3928 -1.5933
  374MOL0     H50479   7.392   3.817  -0.340 -1.2673 -0.8718 -1.1884
  374MOL0     H50480   7.509   3.596  -0.285 -2.1510  3.0418 -2.5894
  374MOL0     H50481   7.623   3.636  -0.415 -1.6491 -0.1941  0.0191
  374MOL0     H50482   7.699   3.436  -0.257  3.7767 -1.0620  3.7646
  374MOL0     H50483   7.713   3.564  -0.132  0.8633  3.7703 -0.5523
  374MOL0     H50484   7.862   3.675  -0.298  0.1382  1.2688 -0.9798
  374MOL0     H50485   7.867   3.524  -0.392 -0.1942 -2.1065  1.6093
  374MOL0     H50486   7.946   3.400  -0.178 -2.7552  0.5478 -0.8969
  374MOL0     H50487   7.964   3.566  -0.101 -0.5827 -1.7197  1.7747
  374MOL0     H50488   8.292   3.509  -0.387 -0.1372  2.5606 -0.7158
  374MOL0     H50489   7.674   3.846  -0.014  0.6599 -0.3135 -2.5818
  374MOL0     H50490   7.483   3.951   0.127 -0.9763 -0.3186 -0.0070
  375MOL0     O50491   2.696   9.168   9.239  0.0344 -0.2087 -0.3808
  375MOL0     C50492   2.782   9.178   9.157 -0.9960 -0.6969 -0.7393
  375MOL0     O50493   2.780   9.251   9.044  0.3998  0.0920 -0.2226
  375MOL0     C50494   2.663   9.286   8.974  0.3783 -0.5760 -0.2596
  375MOL0     C50495   2.539   9.227   9.002 -0.0816  0.3727  0.6882
  375MOL0     C50496   2.427   9.259   8.937  0.8800  0.4598  0.5827
  375MOL0     C50497   2.424   9.332   8.827  0.2760  0.5513 -0.8405
  375MOL0     O50498   2.304   9.341   8.759  0.2484 -0.1719 -0.2680
  375MOL0     C50499   2.310   9.295   8.627 -0.2320 -0.7440 -0.4706
  375MOL0     C50500   2.252   9.146   8.634 -0.1774 -1.0308 -0.1197
  375MOL0     C50501   2.229   9.108   8.489  1.1224  0.0370  0.2871
  375MOL0     C50502   2.177   8.959   8.476  0.2960 -0.2298  0.2815
  375MOL0     C50503   2.178   8.913   8.322  0.1140 -0.0137 -1.2502
  375MOL0     C50504   2.049   8.952   8.242 -0.5865  0.5701  0.1441
  375MOL0     C50505   2.038   8.870   8.119 -0.1719  0.6183  0.2887
  375MOL0     C50506   1.931   8.929   8.016  0.6733 -0.8227 -0.3822
  375MOL0     N50507   1.807   8.896   8.066  1.0998  0.8961  0.6770
  375MOL0     C50508   1.733   8.790   8.017 -1.0243  0.2994 -0.0207
  375MOL0     C50509   1.615   8.800   8.077 -0.0391 -1.2447 -0.2585
  375MOL0     C50510   1.495   8.711   8.056  0.7819  0.6569  0.5124
  375MOL0     C50511   1.464   8.704   7.901 -0.9342  0.2209 -0.3020
  375MOL0     C50512   1.334   8.625   7.862  0.7541 -1.1246  0.4206
  375MOL0     C50513   1.306   8.613   7.713 -0.1092 -0.9100  0.4230
  375MOL0     O50514   1.301   8.743   7.643 -1.2751 -0.3279 -0.0659
  375MOL0     C50515   1.172   8.789   7.631  0.0560 -0.5598  0.5332
  375MOL0     C50516   1.148   8.903   7.547  0.4841  0.7690 -0.9368
  375MOL0     C50517   1.014   8.959   7.532  0.0799 -0.1694 -0.1602
  375MOL0     C50518   1.006   9.079   7.442  1.2218 -0.9155  0.3911
  375MOL0     C50519   0.904   8.903   7.601 -0.4949 -0.5189  0.0756
  375MOL0     C50520   0.764   8.952   7.594 -1.1639  0.5035  0.5489
  375MOL0     O50521   0.675   8.943   7.703 -0.1418  0.2119 -0.4520
  375MOL0     C50522   0.598   9.054   7.727  0.8356 -0.4919  0.0130
  375MOL0     C50523   0.471   9.034   7.788  0.1102 -0.3391  0.6772
  375MOL0     C50524   0.389   9.147   7.823 -0.3515  0.0880 -1.1224
  375MOL0     C50525   0.440   9.277   7.815 -0.1356  0.1532  0.3020
  375MOL0     O50526   0.360   9.387   7.849  0.6065 -0.4560  0.5758
  375MOL0     C50527   0.432   9.508   7.879  0.4759 -0.1280 -0.3525
  375MOL0     C50528   0.353   9.617   7.949 -0.4010  0.3096  0.2581
  375MOL0     C50529   0.435   9.740   7.992 -0.4356  0.2172  0.0856
  375MOL0     C50530   0.352   9.832   8.077 -0.5015  0.9677  0.2767
  375MOL0     C50531   0.389   9.984   8.069 -0.3680 -0.0613  0.6247
  375MOL0     C50532   0.326  10.057   8.186 -0.1526 -0.0829  0.5237
  375MOL0     C50533   0.339  10.210   8.179 -0.4348  0.5495 -0.3336
  375MOL0     C50534   0.210  10.284   8.198 -0.1700  0.2995  0.3349
  375MOL0    Cl50535   0.124  10.240   8.350 -0.6660 -0.0731 -0.2076
  375MOL0     C50536   0.574   9.293   7.749  0.0688 -0.3028 -0.4949
  375MOL0     C50537   0.646   9.180   7.713 -0.0687  0.1464 -0.4739
  375MOL0     O50538   0.729   8.994   7.482 -0.2818 -0.3567 -0.7850
  375MOL0     C50539   0.930   8.797   7.686 -0.0443  0.8938 -0.2520
  375MOL0     C50540   1.056   8.739   7.696 -0.0382  0.6664  0.0430
  375MOL0     N50541   1.617   8.918   8.156  0.0367  0.9997  0.0271
  375MOL0     N50542   1.728   8.976   8.140 -0.8535 -0.3662 -0.2286
  375MOL0     C50543   2.534   9.421   8.809  0.2787  0.0477 -0.2824
  375MOL0     C50544   2.654   9.396   8.878 -0.5284  0.3057  0.4757
  375MOL0     C50545   2.918   9.119   9.185  0.3835 -0.1430 -0.4644
  375MOL0     C50546   3.026   9.159   9.104 -0.5334 -0.0677  0.4948
  375MOL0     C50547   3.159   9.107   9.126 -0.2445 -0.3330 -0.6066
  375MOL0     C50548   3.182   9.025   9.232  0.3540  0.9986 -0.9067
  375MOL0     O50549   3.310   8.984   9.240 -0.4543  0.0716  0.7261
  375MOL0     C50550   3.354   8.903   9.351 -0.3216 -0.5423  0.0754
  375MOL0     C50551   3.504   8.865   9.324 -0.5779 -0.9040  0.5078
  375MOL0     C50552   3.562   8.762   9.419  0.7049  1.4127  0.0618
  375MOL0     C50553   3.524   8.772   9.573  0.2333  0.6533 -0.3480
  375MOL0     C50554   3.602   8.685   9.660  0.4679  0.3207  0.2490
  375MOL0     C50555   3.675   8.622   9.737 -0.4183  0.3184  0.2162
  375MOL0     C50556   3.080   8.990   9.324  0.2406 -0.4655 -0.7841
  375MOL0     C50557   2.949   9.032   9.296  0.5126  0.8580  0.0263
  375MOL0     H50558   2.538   9.142   9.070  2.5740 -0.8177 -0.5927
  375MOL0     H50559   2.332   9.210   8.956  0.1643  0.8735 -1.7143
  375MOL0     H50560   2.243   9.356   8.565  0.0353  2.0149  1.7683
  375MOL0     H50561   2.409   9.294   8.581 -0.0899  0.5813 -0.2190
  375MOL0     H50562   2.319   9.082   8.693 -2.0767 -0.5641  2.7475
  375MOL0     H50563   2.150   9.147   8.673 -1.5312  1.3561 -3.2252
  375MOL0     H50564   2.148   9.173   8.454 -2.3099 -2.9973  2.0491
  375MOL0     H50565   2.320   9.135   8.434 -0.3547  2.6575 -1.1041
  375MOL0     H50566   2.249   8.889   8.518  0.3483 -2.3215 -2.9462
  375MOL0     H50567   2.078   8.947   8.523  0.6903  1.3580  1.6028
  375MOL0     H50568   2.260   8.954   8.262  1.1329 -2.9386 -2.0395
  375MOL0     H50569   2.174   8.804   8.316 -1.2605 -0.1701  1.2687
  375MOL0     H50570   1.958   8.942   8.302 -0.3534  1.9167  0.7701
  375MOL0     H50571   2.063   9.058   8.218 -0.7732  1.6476  4.1002
  375MOL0     H50572   2.135   8.851   8.073 -0.3775  0.4371 -0.0678
  375MOL0     H50573   2.008   8.768   8.145  0.9306 -0.4783 -2.4463
  375MOL0     H50574   1.943   8.890   7.915  1.5511  0.0759 -0.6408
  375MOL0     H50575   1.923   9.036   7.998 -0.7291 -0.8355  0.0240
  375MOL0     H50576   1.765   8.716   7.945  0.3407  1.2522 -0.4269
  375MOL0     H50577   1.508   8.612   8.100  3.9593 -0.8838 -3.2919
  375MOL0     H50578   1.405   8.762   8.093 -1.4322 -3.0464  0.7096
  375MOL0     H50579   1.547   8.649   7.855  0.4815 -0.3723  2.7140
  375MOL0     H50580   1.466   8.808   7.868  0.7191  0.3445  0.1068
  375MOL0     H50581   1.252   8.674   7.916  0.0928  0.0999 -1.5770
  375MOL0     H50582   1.342   8.523   7.900  1.8232 -0.8642  0.9240
  375MOL0     H50583   1.222   8.551   7.678 -0.5658  0.9225 -1.9970
  375MOL0     H50584   1.391   8.554   7.677  1.0805  0.6594  0.5538
  375MOL0     H50585   1.232   8.944   7.493  1.1996  0.3946 -0.1184
  375MOL0     H50586   0.960   9.155   7.506  0.7052  0.3545 -1.4184
  375MOL0     H50587   1.098   9.125   7.406 -0.9323  2.0129 -1.8759
  375MOL0     H50588   0.928   9.063   7.367 -0.5850 -2.0963  2.4075
  375MOL0     H50589   0.453   8.930   7.812 -0.3955 -0.8127 -1.5406
  375MOL0     H50590   0.296   9.130   7.877 -1.2289  2.0252 -1.9400
  375MOL0     H50591   0.524   9.483   7.933  2.1820  0.9434 -2.5859
  375MOL0     H50592   0.463   9.560   7.788  0.8574  0.8372  0.3079
  375MOL0     H50593   0.272   9.654   7.886  2.3301  3.7092 -1.6096
  375MOL0     H50594   0.313   9.581   8.045  0.0406 -1.1622 -0.0776
  375MOL0     H50595   0.473   9.794   7.904  3.2948  0.3478  1.5989
  375MOL0     H50596   0.528   9.706   8.039 -1.5096 -0.7565  1.5636
  375MOL0     H50597   0.245   9.825   8.055 -0.4616  1.7566 -0.1928
  375MOL0     H50598   0.371   9.801   8.180  0.3479  0.8516  0.0869
  375MOL0     H50599   0.348  10.032   7.979 -3.1869 -0.5234  1.5611
  375MOL0     H50600   0.498   9.991   8.062 -0.5071  1.2232 -1.0665
  375MOL0     H50601   0.218  10.039   8.181 -0.1060 -0.1404 -2.5101
  375MOL0     H50602   0.370  10.028   8.281  0.3860  1.0283  0.6294
  375MOL0     H50603   0.378  10.242   8.082 -0.2859  1.9949  0.1906
  375MOL0     H50604   0.410  10.234   8.258  0.4716  0.1979 -1.0199
  375MOL0     H50605   0.135  10.258   8.122  1.4363 -0.1484 -1.1466
  375MOL0     H50606   0.217  10.392   8.180  2.3717 -0.0988 -1.6342
  375MOL0     H50607   0.612   9.390   7.720  0.6569 -0.1409  0.7267
  375MOL0     H50608   0.746   9.194   7.673  0.0583 -3.0559 -1.5632
  375MOL0     H50609   0.850   8.742   7.734  0.6996 -3.4679 -3.4026
  375MOL0     H50610   1.055   8.652   7.761  0.2901  0.6963  0.0865
  375MOL0     H50611   2.522   9.505   8.741  4.3489  2.9232  2.0784
  375MOL0     H50612   2.745   9.455   8.875 -0.5692  0.3276 -1.6088
  375MOL0     H50613   3.022   9.243   9.035 -0.0592 -0.2464  0.2463
  375MOL0     H50614   3.234   9.139   9.054 -0.3719  1.1771 -0.1230
  375MOL0     H50615   3.354   8.967   9.439  0.0817 -0.7024  0.1930
  375MOL0     H50616   3.301   8.810   9.373  1.4234 -2.0532 -1.7158
  375MOL0     H50617   3.570   8.950   9.343  1.1218 -1.9216 -0.6073
  375MOL0     H50618   3.511   8.834   9.219 -3.3617 -3.8630  1.0163
  375MOL0     H50619   3.669   8.750   9.400  0.5421 -3.3770  0.7584
  375MOL0     H50620   3.506   8.674   9.387  3.1744 -0.9221  1.6468
  375MOL0     H50621   3.418   8.752   9.592 -0.5247  0.2164 -4.1611
  375MOL0     H50622   3.546   8.874   9.607 -0.1629  0.7022 -0.2369
  375MOL0     H50623   3.734   8.590   9.820  0.1681  1.8975  0.4479
  375MOL0     H50624   3.093   8.919   9.404 -3.2002  1.6844  1.9991
  375MOL0     H50625   2.869   8.993   9.357  1.0496  0.3087  0.3954
  376MOL0     O50626   9.947  10.179   0.519  0.0204  0.9506  0.2644
  376MOL0     C50627   9.928  10.224   0.629 -0.5837 -0.1855 -0.3043
  376MOL0     O50628   9.923  10.143   0.742 -0.0884 -0.4288  0.0301
  376MOL0     C50629   9.972  10.015   0.760 -0.6103  0.4514  0.3849
  376MOL0     C50630  10.020   9.933   0.658 -0.2400  0.2523  0.4731
  376MOL0     C50631  10.073   9.807   0.683  0.1543 -0.4801  0.5664
  376MOL0     C50632  10.070   9.755   0.814 -0.0026 -0.4056  0.4896
  376MOL0     O50633  10.117   9.628   0.845  0.0034  0.4197 -0.5775
  376MOL0     C50634  10.077   9.520   0.755 -0.3970 -0.6488  0.3136
  376MOL0     C50635  10.108   9.376   0.814  0.8574  0.1816  0.5980
  376MOL0     C50636  10.240   9.368   0.870  0.3489  0.9112 -0.3217
  376MOL0     C50637  10.267   9.219   0.927 -0.3025  0.0302 -0.0988
  376MOL0     C50638  10.395   9.214   1.017  0.7157  0.5069  0.3622
  376MOL0     C50639  10.450   9.080   1.016  0.6600  0.7693  0.8849
  376MOL0     C50640  10.572   9.058   1.104 -0.1253 -0.1020 -0.1305
  376MOL0     C50641  10.612   8.913   1.092 -0.1323 -0.4496  0.6369
  376MOL0     N50642  10.708   8.867   1.187  0.4832  0.8806 -0.3421
  376MOL0     C50643  10.834   8.815   1.169  0.5706  0.0994 -0.4063
  376MOL0     C50644  10.886   8.791   1.290  0.4649 -0.2736  0.5874
  376MOL0     C50645  11.027   8.744   1.327 -0.0868 -0.2340  0.0471
  376MOL0     C50646  11.132   8.846   1.274 -0.0865  0.1889  0.3264
  376MOL0     C50647  11.106   8.997   1.327  0.0071  0.5626  0.3766
  376MOL0     C50648  11.103   9.002   1.482  0.1385  0.1863  0.0603
  376MOL0     O50649  11.095   9.144   1.508  0.0878  0.4860  0.0590
  376MOL0     C50650  10.981   9.198   1.573 -0.1952 -1.0230  0.5475
  376MOL0     C50651  10.854   9.147   1.550 -0.3615 -0.6835 -0.3455
  376MOL0     C50652  10.738   9.216   1.596 -0.1780 -0.6327 -0.9362
  376MOL0     C50653  10.603   9.146   1.567 -0.9025  0.0239  0.4292
  376MOL0     C50654  10.750   9.339   1.673 -0.2368 -0.3851 -0.5580
  376MOL0     C50655  10.636   9.422   1.721  0.3150 -0.4414 -0.6208
  376MOL0     O50656  10.674   9.543   1.772  0.0370  0.3352  0.0803
  376MOL0     C50657  10.584   9.637   1.810  0.3500 -1.5559  0.2861
  376MOL0     C50658  10.498   9.700   1.715  0.2799  0.5166 -0.8340
  376MOL0     C50659  10.416   9.796   1.772  0.4437 -0.3477 -0.1491
  376MOL0     C50660  10.414   9.837   1.913 -0.0572  0.8247 -0.2073
  376MOL0     O50661  10.339   9.933   1.965  0.1079 -0.2785 -0.2060
  376MOL0     C50662  10.248  10.010   1.884 -0.5185  0.0609 -0.6011
  376MOL0     C50663  10.193  10.133   1.956  0.6252 -0.4937  0.3284
  376MOL0     C50664  10.128  10.234   1.856 -0.1502  0.4907 -0.6224
  376MOL0     C50665  10.227  10.319   1.785 -0.2423  0.3093 -0.0307
  376MOL0     C50666  10.175  10.352   1.643  0.3007 -0.2676 -0.6877
  376MOL0     C50667  10.253  10.462   1.576  0.2372 -0.3029 -0.1270
  376MOL0     C50668  10.205  10.486   1.434  0.8833 -0.1186 -0.0379
  376MOL0     C50669  10.317  10.550   1.359 -0.0225  0.2848  0.7762
  376MOL0    Cl50670  10.258  10.564   1.190 -0.3326  0.3348 -0.0332
  376MOL0     C50671  10.511   9.780   1.995 -0.6697  0.2985  0.4079
  376MOL0     C50672  10.588   9.676   1.940 -0.8064  0.8690 -0.2048
  376MOL0     O50673  10.523   9.379   1.713 -0.2079 -0.1752  0.9208
  376MOL0     C50674  10.888   9.373   1.697  0.5057 -0.8246  0.3532
  376MOL0     C50675  10.997   9.311   1.638  0.2895 -0.5058 -0.5400
  376MOL0     N50676  10.789   8.823   1.381  0.3954  0.0411  0.6995
  376MOL0     N50677  10.685   8.869   1.319 -0.2819  0.5976  0.0771
  376MOL0     C50678  10.010   9.833   0.911 -0.5782  0.0035  0.0070
  376MOL0     C50679   9.979   9.964   0.890 -0.1406  0.5231 -0.2073
  376MOL0     C50680   9.920  10.368   0.641 -0.8170 -0.2947 -0.5655
  376MOL0     C50681   9.946  10.427   0.770  0.6089 -0.1053 -0.2128
  376MOL0     C50682   9.956  10.564   0.789 -0.8687  0.7324 -0.4511
  376MOL0     C50683   9.939  10.650   0.687 -0.7810 -0.1677 -0.6837
  376MOL0     O50684   9.958  10.786   0.703  0.8335  0.2023  0.3471
  376MOL0     C50685   9.897  10.845   0.820 -0.2658  0.1980  0.3772
  376MOL0     C50686   9.982  10.865   0.947 -0.6244 -0.6325 -0.1688
  376MOL0     C50687  10.107  10.947   0.911  1.1434 -0.3668  0.2839
  376MOL0     C50688  10.226  10.914   1.000 -1.0036 -0.7035 -0.9046
  376MOL0     C50689  10.345  10.994   0.961  0.6784 -0.3888 -0.0789
  376MOL0     C50690  10.447  11.061   0.923 -0.0627 -0.3830 -0.3104
  376MOL0     C50691   9.917  10.590   0.558 -0.0652 -0.9838  0.4287
  376MOL0     C50692   9.913  10.454   0.538  1.0221  0.1310  0.0423
  376MOL0     H50693  10.024   9.958   0.552 -0.4252 -0.7745  0.2191
  376MOL0     H50694  10.117   9.754   0.599  0.1460  1.1745 -0.5263
  376MOL0     H50695   9.975   9.525   0.714  0.2945  0.1203 -1.4030
  376MOL0     H50696  10.144   9.531   0.669 -2.3471  0.3700 -1.1550
  376MOL0     H50697  10.034   9.340   0.886  2.3742 -0.8798  1.6695
  376MOL0     H50698  10.101   9.297   0.740 -4.8185 -1.8742  2.7754
  376MOL0     H50699  10.311   9.380   0.788  0.3331 -1.4038 -0.7502
  376MOL0     H50700  10.265   9.441   0.947 -0.9309 -0.7732  1.8248
  376MOL0     H50701  10.181   9.185   0.985  0.3835 -0.5969  0.5760
  376MOL0     H50702  10.284   9.150   0.844  7.2213  0.3944  0.4741
  376MOL0     H50703  10.475   9.279   0.981  1.5709 -0.2525  0.8570
  376MOL0     H50704  10.373   9.256   1.116 -5.2344 -1.0171  0.1040
  376MOL0     H50705  10.365   9.026   1.057 -0.8174  1.6524 -0.8735
  376MOL0     H50706  10.461   9.039   0.915 -2.9898 -0.0158  0.6630
  376MOL0     H50707  10.653   9.122   1.068 -1.5361 -0.5215 -4.7771
  376MOL0     H50708  10.551   9.082   1.208  2.4237 -2.1191  0.9286
  376MOL0     H50709  10.637   8.894   0.987 -4.1057 -0.0168 -0.5507
  376MOL0     H50710  10.521   8.854   1.104 -1.4868  1.2055 -0.8820
  376MOL0     H50711  10.884   8.806   1.074 -1.8093 -1.1239 -1.6371
  376MOL0     H50712  11.030   8.742   1.436  3.3009  4.5963  0.4108
  376MOL0     H50713  11.044   8.647   1.281  0.8944 -0.6412  1.2137
  376MOL0     H50714  11.125   8.842   1.165 -1.0179  0.8146  0.3512
  376MOL0     H50715  11.233   8.808   1.292  0.2090  0.2836 -1.0464
  376MOL0     H50716  11.017   9.040   1.280  1.4942  0.5506 -2.7148
  376MOL0     H50717  11.189   9.065   1.306  0.8231 -0.1566  1.1467
  376MOL0     H50718  11.198   8.964   1.520  2.1002  2.1564 -2.4320
  376MOL0     H50719  11.022   8.935   1.512  0.4185  1.1412  3.2458
  376MOL0     H50720  10.843   9.055   1.494  1.5522 -0.9980 -0.2607
  376MOL0     H50721  10.621   9.057   1.505 -1.8487  0.5591 -0.6617
  376MOL0     H50722  10.558   9.105   1.658 -1.6051 -1.1712 -0.4232
  376MOL0     H50723  10.530   9.210   1.517 -1.8101 -2.2965 -1.3856
  376MOL0     H50724  10.489   9.659   1.616  2.3922  0.0588 -0.8774
  376MOL0     H50725  10.343   9.849   1.712  0.9287  1.3471  0.6916
  376MOL0     H50726  10.314  10.039   1.802  0.2016  1.3043  0.3759
  376MOL0     H50727  10.166   9.953   1.840 -2.4905  2.7024 -0.6345
  376MOL0     H50728  10.112  10.094   2.019 -1.2052  2.5089  0.0684
  376MOL0     H50729  10.266  10.185   2.019 -2.4482  3.4124  1.0596
  376MOL0     H50730  10.054  10.300   1.901  0.7173  2.8225 -2.3907
  376MOL0     H50731  10.076  10.170   1.784 -1.5558 -0.6178  1.2842
  376MOL0     H50732  10.245  10.404   1.852  1.1237  1.0686 -1.3125
  376MOL0     H50733  10.326  10.275   1.772  0.0718  1.3695 -1.4501
  376MOL0     H50734  10.079  10.400   1.663  0.1546 -0.4289 -0.9949
  376MOL0     H50735  10.151  10.262   1.585  0.6859 -3.0166  3.0212
  376MOL0     H50736  10.256  10.556   1.631 -0.2610 -1.1575  1.4445
  376MOL0     H50737  10.358  10.431   1.577  0.2867 -0.3397  2.6440
  376MOL0     H50738  10.125  10.561   1.428  0.1696 -0.5459  2.7527
  376MOL0     H50739  10.176  10.389   1.393  0.3757 -0.7788  1.7816
  376MOL0     H50740  10.407  10.488   1.364 -0.7128 -1.2437 -2.8520
  376MOL0     H50741  10.331  10.649   1.403 -0.6262 -0.3970  2.6016
  376MOL0     H50742  10.528   9.816   2.096  0.3528  1.8313 -0.2727
  376MOL0     H50743  10.663   9.629   2.002  0.1980 -0.0546 -2.0654
  376MOL0     H50744  10.896   9.462   1.759 -0.1088  0.9282 -1.9470
  376MOL0     H50745  11.098   9.346   1.660 -0.4214  1.8691 -0.7115
  376MOL0     H50746   9.996   9.791   1.010  1.1860 -1.5379 -0.3416
  376MOL0     H50747   9.940  10.010   0.981  1.4594 -0.7218  1.1688
  376MOL0     H50748   9.966  10.345   0.839  2.2923 -0.6747 -1.3179
  376MOL0     H50749   9.983  10.587   0.892 -0.8046 -0.9592 -0.0588
  376MOL0     H50750   9.860  10.943   0.788  0.7718  1.4348  2.6967
  376MOL0     H50751   9.800  10.805   0.850  1.2445 -2.4952  2.0522
  376MOL0     H50752  10.020  10.767   0.979  0.5765  0.1183  0.8136
  376MOL0     H50753   9.926  10.915   1.026 -4.1189  0.3346 -2.9899
  376MOL0     H50754  10.086  11.054   0.903 -0.9907 -0.6746  1.1380
  376MOL0     H50755  10.128  10.923   0.806 -0.5426 -3.8179  0.5985
  376MOL0     H50756  10.255  10.810   0.987 -0.4429 -0.4236 -2.0075
  376MOL0     H50757  10.207  10.926   1.107 -3.2160  1.2305 -1.4188
  376MOL0     H50758  10.533  11.118   0.894  0.6042  0.3716  2.7903
  376MOL0     H50759   9.914  10.650   0.467  3.8501  1.0765  1.4505
  376MOL0     H50760   9.892  10.424   0.436 -0.2072  4.0199 -1.0177
  377MOL0     O50761  10.496   0.522   3.852 -0.4384  0.2137  0.0743
  377MOL0     C50762  10.559   0.569   3.943 -0.3938  0.0308  0.0553
  377MOL0     O50763  10.495   0.635   4.050 -0.4927  0.6336 -0.3384
  377MOL0     C50764  10.359   0.662   4.039  0.3823  0.0675  0.5514
  377MOL0     C50765  10.325   0.795   4.065 -0.0933 -1.0373 -0.2113
  377MOL0     C50766  10.190   0.833   4.064 -0.7867  0.4380 -0.2988
  377MOL0     C50767  10.096   0.738   4.030  0.1949 -0.4434 -0.4201
  377MOL0     O50768   9.964   0.774   4.014  0.3654 -0.5366  0.1561
  377MOL0     C50769   9.879   0.740   4.120  0.1188  0.0250  0.0868
  377MOL0     C50770   9.746   0.774   4.071 -0.3355  0.3758  0.3692
  377MOL0     C50771   9.655   0.767   4.197 -0.5523  0.3080 -0.0888
  377MOL0     C50772   9.500   0.783   4.168  0.0098  1.2208  0.1442
  377MOL0     C50773   9.432   0.745   4.295  0.5223  0.6148  0.0500
  377MOL0     C50774   9.288   0.730   4.266  0.0791 -0.1400  0.2790
  377MOL0     C50775   9.200   0.720   4.397 -0.7296 -0.6654 -0.1321
  377MOL0     C50776   9.099   0.829   4.416 -0.0225 -0.5738 -0.7989
  377MOL0     N50777   8.982   0.808   4.335 -0.6182 -0.0096  1.2405
  377MOL0     C50778   8.869   0.748   4.375  0.3748  0.2274 -0.8690
  377MOL0     C50779   8.800   0.724   4.265 -0.3650 -0.0289 -0.1457
  377MOL0     C50780   8.683   0.635   4.251  0.6946 -0.5321 -0.1912
  377MOL0     C50781   8.598   0.650   4.130  0.2229  0.9542 -0.2646
  377MOL0     C50782   8.486   0.540   4.122 -1.0585 -0.0467  0.3317
  377MOL0     C50783   8.364   0.586   4.203 -0.0674  0.3995  0.2345
  377MOL0     O50784   8.282   0.476   4.179  0.1038 -0.2775  0.7014
  377MOL0     C50785   8.148   0.489   4.222  0.3302  0.9002 -0.7220
  377MOL0     C50786   8.102   0.574   4.316  0.6095  0.3060 -0.0657
  377MOL0     C50787   7.964   0.574   4.346 -0.1198 -0.5310  0.3491
  377MOL0     C50788   7.915   0.675   4.444 -1.0698 -0.3639 -0.2691
  377MOL0     C50789   7.874   0.486   4.283  0.3466 -0.2281  0.1504
  377MOL0     C50790   7.725   0.499   4.314  0.1635 -0.4611  0.7461
  377MOL0     O50791   7.665   0.370   4.328  0.1888  0.2615 -0.4896
  377MOL0     C50792   7.525   0.360   4.360 -0.3181 -0.1726  0.1636
  377MOL0     C50793   7.444   0.454   4.421  1.1890  0.2663  0.6774
  377MOL0     C50794   7.309   0.420   4.447 -0.3167  1.1241 -0.7901
  377MOL0     C50795   7.262   0.296   4.417 -0.2204 -0.1864  0.2433
  377MOL0     O50796   7.136   0.260   4.441  0.2396 -0.0100  0.5979
  377MOL0     C50797   7.031   0.331   4.377 -0.2086 -0.3425  0.5709
  377MOL0     C50798   6.925   0.236   4.336  0.1488  0.3331  0.5416
  377MOL0     C50799   6.833   0.170   4.453  0.4756 -0.2983  0.6422
  377MOL0     C50800   6.708   0.100   4.398 -0.2719 -0.2242 -0.0812
  377MOL0     C50801   6.603   0.083   4.511  0.2448 -0.7914 -0.1951
  377MOL0     C50802   6.461   0.065   4.458  0.6826 -0.1317  1.0776
  377MOL0     C50803   6.423   0.172   4.352  0.6079 -0.4389 -1.0342
  377MOL0     C50804   6.272   0.180   4.342 -0.4853 -0.3249 -0.0682
  377MOL0    Cl50805   6.199   0.019   4.276  0.2738  0.2111  0.2732
  377MOL0     C50806   7.346   0.198   4.355 -0.0336  0.5063 -0.4487
  377MOL0     C50807   7.478   0.232   4.334 -0.3118 -0.2265  0.4309
  377MOL0     O50808   7.666   0.605   4.303  0.3016 -0.5442  0.0239
  377MOL0     C50809   7.923   0.395   4.191  0.7630  0.0592  0.0252
  377MOL0     C50810   8.061   0.400   4.162  0.9230  0.5170  0.6530
  377MOL0     N50811   8.866   0.801   4.165  0.2343 -0.0956 -0.0927
  377MOL0     N50812   8.987   0.839   4.197  0.5906 -0.6174 -0.4045
  377MOL0     C50813  10.131   0.607   4.012 -0.0556  0.2091 -0.7471
  377MOL0     C50814  10.261   0.567   4.016  0.2287  0.0926 -0.2117
  377MOL0     C50815  10.703   0.531   3.943 -0.1523  0.4320 -0.1129
  377MOL0     C50816  10.768   0.456   3.838  0.9073 -0.4577  0.1754
  377MOL0     C50817  10.915   0.447   3.834 -0.8724 -0.3817  0.2898
  377MOL0     C50818  10.990   0.484   3.952  1.1530 -0.4134  0.5588
  377MOL0     O50819  11.126   0.473   3.961 -0.8922 -0.8338  0.2327
  377MOL0     C50820  11.190   0.394   3.856  0.1801  0.0506 -0.2302
  377MOL0     C50821  11.351   0.384   3.866  0.6417 -0.0639 -0.7583
  377MOL0     C50822  11.414   0.476   3.762  0.3761  0.5254 -0.2004
  377MOL0     C50823  11.375   0.620   3.768 -0.4848 -0.1088  0.6546
  377MOL0     C50824  11.437   0.695   3.651  0.1531  0.1468 -0.1815
  377MOL0     C50825  11.504   0.745   3.561 -0.0255 -0.4780 -0.3627
  377MOL0     C50826  10.920   0.539   4.059 -0.5480 -0.2401 -0.0890
  377MOL0     C50827  10.782   0.564   4.043  0.3694  0.6715 -0.1920
  377MOL0     H50828  10.392   0.878   4.087 -0.6986 -0.5508 -0.1909
  377MOL0     H50829  10.162   0.936   4.085 -0.1907  0.4994  0.2381
  377MOL0     H50830   9.893   0.635   4.146  1.7993  0.7319  2.4206
  377MOL0     H50831   9.913   0.798   4.207 -0.5515  1.1992 -0.4120
  377MOL0     H50832   9.745   0.863   4.007 -0.0653 -1.5926 -2.5920
  377MOL0     H50833   9.726   0.686   4.010 -0.9575  1.2902 -0.8080
  377MOL0     H50834   9.666   0.668   4.241 -0.1972  1.0128  1.4731
  377MOL0     H50835   9.696   0.843   4.264  4.0338 -2.8502  1.1393
  377MOL0     H50836   9.485   0.887   4.138 -0.2239  1.5851  1.4574
  377MOL0     H50837   9.476   0.709   4.091 -2.3130 -1.3730  3.0982
  377MOL0     H50838   9.475   0.651   4.332 -0.5373 -0.1317 -0.5633
  377MOL0     H50839   9.456   0.818   4.372  4.8800 -1.9536  1.5043
  377MOL0     H50840   9.255   0.812   4.202 -3.7891 -0.3146  1.7466
  377MOL0     H50841   9.264   0.651   4.193  0.8622  0.5641 -0.7628
  377MOL0     H50842   9.142   0.627   4.395  0.0815 -1.3591  2.9839
  377MOL0     H50843   9.265   0.718   4.485 -0.1562  1.5700 -0.4411
  377MOL0     H50844   9.129   0.930   4.386 -1.0403  0.1719  0.5669
  377MOL0     H50845   9.073   0.824   4.522 -1.2808  0.8003 -1.0008
  377MOL0     H50846   8.875   0.712   4.478  4.1882 -0.1052 -1.0318
  377MOL0     H50847   8.723   0.533   4.256 -0.4985 -0.9480  2.2272
  377MOL0     H50848   8.624   0.657   4.340  1.4882  1.1671 -0.0399
  377MOL0     H50849   8.658   0.641   4.039 -1.5454  0.8875 -1.4743
  377MOL0     H50850   8.555   0.750   4.120 -1.6151  0.2483  0.1496
  377MOL0     H50851   8.527   0.439   4.135 -0.0779  0.5565  2.3953
  377MOL0     H50852   8.453   0.547   4.018  0.7326 -1.0138 -0.3478
  377MOL0     H50853   8.333   0.683   4.164  4.4034  3.6920  3.7231
  377MOL0     H50854   8.382   0.594   4.311  1.1679  1.4349 -0.0163
  377MOL0     H50855   8.173   0.632   4.374 -0.4639  0.1519  1.4617
  377MOL0     H50856   7.847   0.744   4.394 -2.8807 -1.8780 -0.0118
  377MOL0     H50857   7.855   0.627   4.522 -1.1887 -1.4375 -1.0041
  377MOL0     H50858   7.994   0.735   4.490  1.3407 -0.3775 -4.0209
  377MOL0     H50859   7.487   0.548   4.453  1.0260  0.4106  0.4744
  377MOL0     H50860   7.246   0.500   4.486  1.4054  3.9385 -3.3448
  377MOL0     H50861   6.992   0.407   4.445  0.5418  1.0241 -0.4853
  377MOL0     H50862   7.068   0.385   4.290  0.1913 -1.3354  0.1098
  377MOL0     H50863   6.854   0.297   4.279 -2.3160 -1.8676  1.0106
  377MOL0     H50864   6.960   0.146   4.284 -0.1469  0.6942 -0.2856
  377MOL0     H50865   6.817   0.233   4.540 -1.7075 -1.9985  1.5677
  377MOL0     H50866   6.882   0.077   4.482  3.2878  0.0852 -2.2531
  377MOL0     H50867   6.666   0.163   4.319  1.8782 -2.4004 -3.2056
  377MOL0     H50868   6.744   0.011   4.345  1.5803 -1.2057  2.6347
  377MOL0     H50869   6.606   0.160   4.588  1.5396  0.4403 -1.4192
  377MOL0     H50870   6.628  -0.006   4.569  2.8472  1.2275  2.0395
  377MOL0     H50871   6.451  -0.031   4.407  0.1419  1.8570 -2.9942
  377MOL0     H50872   6.395   0.064   4.545  0.5637 -0.6178  0.9835
  377MOL0     H50873   6.451   0.139   4.252 -0.5646  0.7224 -1.7752
  377MOL0     H50874   6.442   0.277   4.379 -1.8489  1.0689 -4.4248
  377MOL0     H50875   6.244   0.256   4.269 -2.9002 -1.0669 -0.0035
  377MOL0     H50876   6.236   0.209   4.441 -0.3575  1.3379 -0.4860
  377MOL0     H50877   7.314   0.101   4.317  2.0396  0.3845 -2.0130
  377MOL0     H50878   7.544   0.159   4.288 -0.7532 -0.2335 -0.2091
  377MOL0     H50879   7.862   0.317   4.146 -0.1165 -1.1212  3.0437
  377MOL0     H50880   8.095   0.334   4.083 -1.7887  0.8753 -0.9460
  377MOL0     H50881  10.057   0.542   3.966  0.4138 -2.0358  1.4510
  377MOL0     H50882  10.291   0.463   4.007  0.0390  0.0413 -0.2659
  377MOL0     H50883  10.704   0.422   3.757 -0.7986 -1.6282  1.9369
  377MOL0     H50884  10.957   0.418   3.739 -0.8611  0.1929  0.1135
  377MOL0     H50885  11.161   0.288   3.855  1.4955 -0.3414 -1.9733
  377MOL0     H50886  11.161   0.430   3.757 -3.4542 -1.3236  0.1915
  377MOL0     H50887  11.373   0.277   3.856  1.6564 -0.0395  0.8735
  377MOL0     H50888  11.377   0.416   3.967  0.2580  2.6583 -1.4447
  377MOL0     H50889  11.391   0.432   3.665  2.1544 -1.8805  0.4017
  377MOL0     H50890  11.523   0.474   3.768  0.3756  0.8313 -0.0434
  377MOL0     H50891  11.404   0.663   3.864  0.2717 -1.1237  0.8951
  377MOL0     H50892  11.266   0.626   3.765 -0.5051  0.6626  2.0833
  377MOL0     H50893  11.559   0.784   3.478  0.2262  1.0506  0.4756
  377MOL0     H50894  10.965   0.573   4.152  2.7082  1.7335 -2.2185
  377MOL0     H50895  10.730   0.622   4.119 -2.6138 -1.9076 -0.0871
  378MOL0     O50896   0.224   1.115   8.928 -0.5150 -0.3780  0.7653
  378MOL0     C50897   0.255   1.181   9.022  0.0137 -1.1981 -0.5486
  378MOL0     O50898   0.373   1.251   9.037  0.7118  0.8004 -0.3431
  378MOL0     C50899   0.479   1.247   8.951  0.4997 -0.7906  0.9767
  378MOL0     C50900   0.491   1.149   8.848 -0.0724 -0.3918  0.4758
  378MOL0     C50901   0.593   1.152   8.757  1.2304  0.1239 -1.0066
  378MOL0     C50902   0.710   1.231   8.784  0.9773  0.1705 -0.0232
  378MOL0     O50903   0.809   1.220   8.699 -0.1013 -0.7797  0.4786
  378MOL0     C50904   0.926   1.297   8.737  0.0650 -0.2813  0.7260
  378MOL0     C50905   1.026   1.293   8.621  0.4568  0.6869 -0.5237
  378MOL0     C50906   1.158   1.377   8.646  0.2121  0.2673 -0.1951
  378MOL0     C50907   1.262   1.342   8.540  0.0748 -0.0243  0.7643
  378MOL0     C50908   1.391   1.426   8.564 -0.5430  0.7135  0.6633
  378MOL0     C50909   1.380   1.573   8.567 -0.2276 -0.2609  0.0460
  378MOL0     C50910   1.498   1.661   8.590 -0.1934 -0.6461 -0.8507
  378MOL0     C50911   1.458   1.801   8.596 -0.3435 -0.3031  0.0132
  378MOL0     N50912   1.562   1.893   8.621  0.2797 -0.4150 -0.2194
  378MOL0     C50913   1.655   1.903   8.725 -0.3977  0.5088  0.2721
  378MOL0     C50914   1.739   2.003   8.704 -0.9031  0.1188  0.1236
  378MOL0     C50915   1.858   2.047   8.786  0.9131  0.2666  0.6813
  378MOL0     C50916   1.928   1.953   8.877 -0.1717 -0.0088  0.5984
  378MOL0     C50917   1.967   1.827   8.798 -0.7305  1.0862 -1.0236
  378MOL0     C50918   2.097   1.773   8.871 -0.8645  0.2948  0.1722
  378MOL0     O50919   2.141   1.664   8.804  0.5180 -0.0200  1.0917
  378MOL0     C50920   2.244   1.581   8.845  0.6482 -1.0388 -0.3876
  378MOL0     C50921   2.307   1.597   8.974  0.1845  0.7155 -0.0540
  378MOL0     C50922   2.405   1.502   9.003 -0.6760 -0.0556 -0.3202
  378MOL0     C50923   2.448   1.509   9.148  0.4093  0.1122 -0.9066
  378MOL0     C50924   2.452   1.404   8.912  0.6440 -0.5024 -0.0148
  378MOL0     C50925   2.563   1.305   8.932  0.7083 -0.6956 -1.1703
  378MOL0     O50926   2.553   1.187   8.865 -0.4914 -0.1024  1.2848
  378MOL0     C50927   2.672   1.129   8.822 -0.1391 -0.2493  0.2542
  378MOL0     C50928   2.772   1.201   8.754 -0.8759  0.5714 -0.4485
  378MOL0     C50929   2.889   1.147   8.717 -0.4609 -0.4065  0.2073
  378MOL0     C50930   2.913   1.010   8.738 -0.0450  0.5140  0.3180
  378MOL0     O50931   3.033   0.957   8.703  0.4850 -0.1389 -0.1105
  378MOL0     C50932   3.049   0.823   8.653  0.1426 -0.8082  0.8367
  378MOL0     C50933   3.196   0.787   8.645 -0.2168  0.1710 -0.4651
  378MOL0     C50934   3.272   0.767   8.786 -0.2200 -0.7205  1.1345
  378MOL0     C50935   3.223   0.645   8.866  0.6645  0.3049  0.4983
  378MOL0     C50936   3.290   0.635   9.008  0.7266 -0.0887 -0.4064
  378MOL0     C50937   3.316   0.764   9.083 -0.2223 -0.4329 -0.0084
  378MOL0     C50938   3.358   0.742   9.225 -0.0096 -0.5753 -0.0098
  378MOL0     C50939   3.452   0.863   9.270  0.8623 -0.5103 -0.9553
  378MOL0    Cl50940   3.472   0.857   9.449 -0.2782 -0.3457  0.0702
  378MOL0     C50941   2.809   0.938   8.813  0.0657  0.4988 -0.4132
  378MOL0     C50942   2.692   0.996   8.850  0.0070 -0.0528  0.7861
  378MOL0     O50943   2.647   1.337   9.013  0.0611  0.0006 -0.9572
  378MOL0     C50944   2.391   1.400   8.785  0.1671  0.6452  0.7087
  378MOL0     C50945   2.290   1.488   8.755  0.1182 -0.4323  0.4002
  378MOL0     N50946   1.686   2.073   8.598 -0.0878 -0.1040 -0.0972
  378MOL0     N50947   1.580   2.016   8.557  0.1948  0.5870 -0.7721
  378MOL0     C50948   0.703   1.330   8.890 -0.3647 -0.8289 -0.7059
  378MOL0     C50949   0.586   1.329   8.970 -0.4564 -0.7668 -0.0245
  378MOL0     C50950   0.152   1.189   9.125 -0.3524  0.3050  0.9176
  378MOL0     C50951   0.025   1.128   9.116 -0.2590  0.1753 -0.8337
  378MOL0     C50952  -0.073   1.145   9.220 -0.2469 -0.2883 -0.7150
  378MOL0     C50953  -0.039   1.218   9.338 -0.6125  0.1550  0.9321
  378MOL0     O50954  -0.121   1.242   9.446 -0.0730 -0.5382 -0.4172
  378MOL0     C50955  -0.258   1.209   9.433  0.3593 -0.7038  0.0482
  378MOL0     C50956  -0.338   1.303   9.525 -0.7342 -0.2405 -0.2507
  378MOL0     C50957  -0.410   1.216   9.629  0.2739  0.3668  0.4678
  378MOL0     C50958  -0.340   1.116   9.725  0.0627 -0.0558  0.8180
  378MOL0     C50959  -0.229   1.186   9.781 -0.9354 -0.1837 -0.1641
  378MOL0     C50960  -0.133   1.248   9.830  0.4987 -0.9149 -0.1031
  378MOL0     C50961   0.092   1.269   9.336 -0.4822  1.0270  0.2159
  378MOL0     C50962   0.183   1.260   9.238 -0.3083 -0.4123  0.7677
  378MOL0     H50963   0.426   1.063   8.830 -0.2595 -0.3516  0.9268
  378MOL0     H50964   0.586   1.078   8.678 -3.0291 -1.2929  0.4439
  378MOL0     H50965   0.911   1.402   8.762  1.1121  0.0131  0.1477
  378MOL0     H50966   0.977   1.242   8.817 -1.9094 -2.7282  0.4345
  378MOL0     H50967   1.059   1.190   8.604  1.9802  0.4044  3.2515
  378MOL0     H50968   0.976   1.330   8.531 -0.0420 -0.8266 -0.9066
  378MOL0     H50969   1.142   1.485   8.646  3.3296  0.8566  1.3728
  378MOL0     H50970   1.200   1.357   8.746  4.6550 -0.0460 -1.8692
  378MOL0     H50971   1.290   1.236   8.542  3.1040  0.6797  0.7244
  378MOL0     H50972   1.212   1.370   8.447 -3.1091  1.2393  2.7264
  378MOL0     H50973   1.428   1.402   8.664  1.7976  4.9833  1.0386
  378MOL0     H50974   1.473   1.399   8.497 -1.1615 -1.7252  0.7923
  378MOL0     H50975   1.335   1.610   8.475 -1.6353 -2.4027 -0.2093
  378MOL0     H50976   1.309   1.590   8.648 -0.9909 -1.9067 -0.2280
  378MOL0     H50977   1.542   1.633   8.686  0.1970  1.2356 -0.4533
  378MOL0     H50978   1.576   1.645   8.515 -2.2348  0.1481 -3.3004
  378MOL0     H50979   1.380   1.809   8.672 -0.0633 -0.0667  0.2803
  378MOL0     H50980   1.417   1.834   8.500 -0.2938 -2.5715 -0.8374
  378MOL0     H50981   1.661   1.826   8.800  0.4553  0.3374  0.0467
  378MOL0     H50982   1.929   2.077   8.708  0.0558  2.7568  0.7807
  378MOL0     H50983   1.827   2.136   8.841  1.9337 -0.1997  2.0804
  378MOL0     H50984   1.871   1.923   8.965  0.2485 -2.5205  0.1166
  378MOL0     H50985   2.020   1.996   8.917  0.8336 -0.9724 -0.5609
  378MOL0     H50986   1.984   1.851   8.693  0.8694  1.2275 -0.7514
  378MOL0     H50987   1.885   1.754   8.798 -1.6643  2.0063  1.5655
  378MOL0     H50988   2.089   1.745   8.977  2.1187 -0.8456  0.1915
  378MOL0     H50989   2.183   1.840   8.860 -0.5191  0.1245  1.6047
  378MOL0     H50990   2.265   1.669   9.043 -1.2164  0.5284 -0.6683
  378MOL0     H50991   2.424   1.417   9.201 -0.6040  0.5392 -0.5991
  378MOL0     H50992   2.552   1.534   9.173  0.6276 -1.3209 -0.2686
  378MOL0     H50993   2.387   1.590   9.190 -0.9066 -0.3986 -1.7767
  378MOL0     H50994   2.753   1.306   8.733 -0.9642  0.6382 -0.0506
  378MOL0     H50995   2.957   1.217   8.671 -1.7024  1.2747  0.8325
  378MOL0     H50996   2.992   0.750   8.711  0.4612 -1.8226 -0.0968
  378MOL0     H50997   3.019   0.816   8.548 -1.1366  0.5431  1.0699
  378MOL0     H50998   3.209   0.701   8.579 -1.0482 -0.1627 -0.2024
  378MOL0     H50999   3.244   0.858   8.577 -0.0301 -2.1943 -2.9803
  378MOL0     H51000   3.267   0.862   8.839 -0.3370  1.3955 -2.3235
  378MOL0     H51001   3.381   0.764   8.769 -0.6023  0.1379 -2.2285
  378MOL0     H51002   3.114   0.649   8.878  0.7706 -1.4983  2.6684
  378MOL0     H51003   3.237   0.552   8.811 -1.1152  0.8451 -0.9546
  378MOL0     H51004   3.384   0.584   8.983  0.0239 -2.5182  1.4370
  378MOL0     H51005   3.225   0.571   9.069  0.1558  1.6937  0.9111
  378MOL0     H51006   3.391   0.823   9.029 -0.6233  0.8657  0.8213
  378MOL0     H51007   3.221   0.818   9.088  0.0999  0.1688 -0.3100
  378MOL0     H51008   3.424   0.655   9.224  1.0154  0.1803 -1.2376
  378MOL0     H51009   3.269   0.737   9.288  0.0693  1.3422  0.3099
  378MOL0     H51010   3.408   0.954   9.229 -2.5033 -1.9836 -0.9720
  378MOL0     H51011   3.547   0.856   9.217  1.2550  0.7018 -0.4587
  378MOL0     H51012   2.819   0.834   8.842 -1.8084  0.8642  1.8101
  378MOL0     H51013   2.610   0.945   8.899 -0.4785 -0.3562 -0.3126
  378MOL0     H51014   2.418   1.333   8.704 -2.0327 -0.2802  0.6735
  378MOL0     H51015   2.248   1.481   8.655  1.9781 -1.7876 -0.3536
  378MOL0     H51016   0.778   1.405   8.910 -3.0210  2.2442 -1.4498
  378MOL0     H51017   0.576   1.406   9.046  0.4807 -0.4628 -0.2083
  378MOL0     H51018   0.009   1.056   9.036 -0.0892 -1.5385  0.6234
  378MOL0     H51019  -0.171   1.102   9.200 -0.5968 -0.0759  0.4978
  378MOL0     H51020  -0.296   1.226   9.332 -0.3982 -2.8635 -0.0886
  378MOL0     H51021  -0.279   1.103   9.449  0.5413 -0.7662 -0.1249
  378MOL0     H51022  -0.414   1.360   9.471  0.3486  2.6778  1.1349
  378MOL0     H51023  -0.278   1.380   9.574 -3.5754  0.2487  2.7144
  378MOL0     H51024  -0.467   1.147   9.568  1.5844 -1.9150  1.6899
  378MOL0     H51025  -0.468   1.286   9.691  3.4171  3.5268  0.2102
  378MOL0     H51026  -0.307   1.033   9.662  0.9567  0.2611  0.8514
  378MOL0     H51027  -0.400   1.082   9.810 -0.8405  0.2910  0.3365
  378MOL0     H51028  -0.057   1.299   9.885 -0.7659  0.3968  0.4802
  378MOL0     H51029   0.132   1.337   9.411  2.8298 -1.3838  0.8305
  378MOL0     H51030   0.269   1.326   9.253 -0.6037  0.2211 -0.2503
  379MOL0     O51031   3.864   5.900   8.242 -0.0904 -0.0696 -0.2394
  379MOL0     C51032   3.812   5.846   8.343 -0.2809 -0.2000  0.4705
  379MOL0     O51033   3.717   5.901   8.426 -0.5189 -0.5304  0.1340
  379MOL0     C51034   3.667   6.022   8.380  0.0990 -0.5308 -0.4884
  379MOL0     C51035   3.741   6.143   8.404 -0.3749 -1.5594  0.5957
  379MOL0     C51036   3.695   6.263   8.362  0.2028  0.0261 -0.4184
  379MOL0     C51037   3.567   6.275   8.301  0.4959 -0.4037  0.4515
  379MOL0     O51038   3.527   6.406   8.280 -0.1802  0.5977 -0.3540
  379MOL0     C51039   3.390   6.441   8.320 -0.2543 -0.3845  0.8554
  379MOL0     C51040   3.349   6.578   8.258 -0.2583  0.2254  0.7665
  379MOL0     C51041   3.232   6.641   8.328 -0.4048 -0.7004 -1.3081
  379MOL0     C51042   3.108   6.549   8.318  1.2235 -0.6884  0.5379
  379MOL0     C51043   2.972   6.627   8.324 -0.9218  0.3711  0.4539
  379MOL0     C51044   2.954   6.741   8.221  0.9221 -0.7633 -0.0071
  379MOL0     C51045   2.803   6.776   8.205 -0.0635 -0.1320 -0.5342
  379MOL0     C51046   2.717   6.668   8.124 -0.1540  0.8541 -0.1358
  379MOL0     N51047   2.757   6.670   7.983  0.6302  0.3696  0.4693
  379MOL0     C51048   2.871   6.595   7.943 -0.0615 -0.5195  0.4608
  379MOL0     C51049   2.895   6.636   7.819  0.2544  0.8359  0.3508
  379MOL0     C51050   3.005   6.592   7.722  1.4011 -0.3067 -0.0184
  379MOL0     C51051   3.108   6.490   7.793  0.3172 -0.1822  0.8290
  379MOL0     C51052   3.221   6.449   7.696  0.1584 -0.1949  0.1264
  379MOL0     C51053   3.311   6.342   7.763 -0.8246  0.7400 -0.3741
  379MOL0     O51054   3.383   6.417   7.863  0.0967  0.0244  0.4785
  379MOL0     C51055   3.508   6.378   7.899  0.6185 -0.7016  0.6267
  379MOL0     C51056   3.554   6.243   7.892  1.4807  0.4794 -0.1488
  379MOL0     C51057   3.687   6.213   7.923 -0.3602  0.7064 -0.9130
  379MOL0     C51058   3.733   6.072   7.904 -0.1604 -0.6090  0.2935
  379MOL0     C51059   3.775   6.310   7.967 -0.4820  0.2887  0.7608
  379MOL0     C51060   3.912   6.279   8.028 -0.1594  0.1263  0.7362
  379MOL0     O51061   3.940   6.338   8.152 -0.8053 -0.1177  0.2946
  379MOL0     C51062   4.063   6.295   8.204 -0.5106 -0.3705  0.1407
  379MOL0     C51063   4.078   6.167   8.254 -0.6639  0.0261  0.9658
  379MOL0     C51064   4.201   6.128   8.307  0.8151 -0.8821  0.9324
  379MOL0     C51065   4.314   6.209   8.298 -0.2565  0.2785  0.0224
  379MOL0     O51066   4.436   6.146   8.340  0.3464 -0.1160 -0.3573
  379MOL0     C51067   4.556   6.224   8.351  0.2687  0.3371  0.2735
  379MOL0     C51068   4.550   6.320   8.467  0.4511 -0.6815 -0.3664
  379MOL0     C51069   4.686   6.360   8.511  0.4603  0.8028  0.1362
  379MOL0     C51070   4.686   6.416   8.649 -0.1051 -0.1470  0.3227
  379MOL0     C51071   4.664   6.314   8.768 -0.4971  0.1492  0.3012
  379MOL0     C51072   4.670   6.377   8.901 -0.6002  0.1014  0.3364
  379MOL0     C51073   4.645   6.291   9.008  0.0310  0.3810 -0.7588
  379MOL0     C51074   4.624   6.362   9.140 -0.5741  1.0912  0.5531
  379MOL0    Cl51075   4.469   6.301   9.200 -0.2702 -0.2014 -0.0705
  379MOL0     C51076   4.295   6.347   8.265 -0.5608  0.8670  0.0080
  379MOL0     C51077   4.167   6.385   8.221  0.7720  0.2283  1.0622
  379MOL0     O51078   3.992   6.216   7.960  0.4588  0.7757 -0.3852
  379MOL0     C51079   3.725   6.435   7.991  0.7708  0.5264  0.5344
  379MOL0     C51080   3.589   6.471   7.955 -0.1939  0.8387  0.4635
  379MOL0     N51081   2.786   6.718   7.781 -0.3209  0.9884 -0.0901
  379MOL0     N51082   2.715   6.756   7.880 -0.4005  0.6342 -0.0981
  379MOL0     C51083   3.491   6.162   8.276 -1.0673  0.1352 -0.8950
  379MOL0     C51084   3.541   6.033   8.315 -0.3605 -0.1125 -1.1109
  379MOL0     C51085   3.845   5.708   8.382  0.3238  0.0224 -0.1211
  379MOL0     C51086   3.809   5.643   8.502  0.3411 -0.0992  0.0300
  379MOL0     C51087   3.828   5.508   8.519 -1.0060  0.2237 -0.2364
  379MOL0     C51088   3.895   5.427   8.416  1.4354 -0.5447  0.8733
  379MOL0     O51089   3.906   5.290   8.426 -0.9127 -0.2795 -0.1806
  379MOL0     C51090   3.892   5.223   8.551  0.4148 -0.4998  0.1242
  379MOL0     C51091   3.919   5.074   8.542 -0.2427 -0.1947 -0.4176
  379MOL0     C51092   3.948   5.001   8.679 -1.0455  0.1243  0.7371
  379MOL0     C51093   3.831   4.998   8.761  0.6639  0.0776  0.6954
  379MOL0     C51094   3.833   4.893   8.864  0.6758 -0.0021  0.0906
  379MOL0     C51095   3.813   4.820   8.965 -0.2844  0.3713  0.0190
  379MOL0     C51096   3.943   5.493   8.302  0.5527 -1.1290  0.4109
  379MOL0     C51097   3.918   5.635   8.289 -0.0590  0.0419 -0.2444
  379MOL0     H51098   3.824   6.138   8.475 -1.6560 -0.4819  2.2514
  379MOL0     H51099   3.757   6.348   8.392  1.6164 -1.1144  0.0398
  379MOL0     H51100   3.313   6.369   8.292 -1.5206  1.4235 -0.5432
  379MOL0     H51101   3.392   6.451   8.429  1.9190 -1.1498  0.9383
  379MOL0     H51102   3.429   6.649   8.282 -0.2575 -0.2505  2.2347
  379MOL0     H51103   3.329   6.572   8.150  2.6869  0.7990  0.1110
  379MOL0     H51104   3.252   6.667   8.432 -1.7410 -2.4818 -0.5726
  379MOL0     H51105   3.210   6.737   8.280 -1.7698 -0.8728 -1.0558
  379MOL0     H51106   3.123   6.495   8.224  0.6205 -0.9630  0.5961
  379MOL0     H51107   3.105   6.478   8.401 -2.4647  0.8655  1.9543
  379MOL0     H51108   2.902   6.548   8.296  0.5910 -1.2745  1.1647
  379MOL0     H51109   2.967   6.649   8.431  1.9290 -2.3023  1.2821
  379MOL0     H51110   3.019   6.824   8.250 -0.6747 -0.0234  1.6822
  379MOL0     H51111   2.995   6.708   8.126  1.0099 -2.7879  0.6842
  379MOL0     H51112   2.760   6.782   8.305 -0.1615  0.2690 -0.5997
  379MOL0     H51113   2.806   6.871   8.151  4.1314  0.9294  1.2012
  379MOL0     H51114   2.611   6.691   8.137 -0.3624 -0.1107 -0.0502
  379MOL0     H51115   2.725   6.565   8.158  0.5077  1.3283  1.2347
  379MOL0     H51116   2.931   6.518   7.990  0.2662 -0.5739 -0.0467
  379MOL0     H51117   2.959   6.544   7.635  3.1253 -2.1634  0.0297
  379MOL0     H51118   3.056   6.684   7.693 -0.4786  1.8022  2.8479
  379MOL0     H51119   3.060   6.396   7.824  3.9316 -2.4339  0.1910
  379MOL0     H51120   3.147   6.538   7.883 -0.9691  0.8623  0.8578
  379MOL0     H51121   3.274   6.534   7.653  2.9367 -1.3355  1.0670
  379MOL0     H51122   3.162   6.401   7.617  1.6945 -0.5213 -0.8579
  379MOL0     H51123   3.384   6.305   7.691  1.9644  3.9450  0.5947
  379MOL0     H51124   3.259   6.258   7.810 -0.1927  0.3584 -0.3440
  379MOL0     H51125   3.479   6.175   7.853 -0.4192  3.2649 -1.7302
  379MOL0     H51126   3.647   6.005   7.897  0.2887 -1.2064  0.4555
  379MOL0     H51127   3.795   6.062   7.814 -2.6361  0.0968 -1.5761
  379MOL0     H51128   3.784   6.048   7.998  0.3958  2.3221  0.8322
  379MOL0     H51129   3.990   6.105   8.238 -1.7243  1.5186  0.8441
  379MOL0     H51130   4.199   6.030   8.354 -1.3475 -0.2523  2.3115
  379MOL0     H51131   4.639   6.156   8.372  0.2636  0.2349 -0.0261
  379MOL0     H51132   4.575   6.269   8.253  2.4113  1.1299  0.9901
  379MOL0     H51133   4.498   6.413   8.442  0.9947  0.7099  3.0435
  379MOL0     H51134   4.489   6.289   8.552  0.9890  1.5322  0.9135
  379MOL0     H51135   4.722   6.433   8.438  0.9034 -0.2430 -0.7031
  379MOL0     H51136   4.747   6.270   8.507 -1.2345 -0.3516 -1.1536
  379MOL0     H51137   4.791   6.447   8.653  0.5314 -2.1192  0.0211
  379MOL0     H51138   4.618   6.501   8.661  1.0714  0.7362  0.8698
  379MOL0     H51139   4.739   6.234   8.759 -0.5574  0.2367 -1.1549
  379MOL0     H51140   4.567   6.267   8.750  1.3953 -3.8245 -0.7403
  379MOL0     H51141   4.772   6.413   8.915  0.5603 -2.5385 -0.5770
  379MOL0     H51142   4.604   6.464   8.906 -0.3994  0.3515 -1.0315
  379MOL0     H51143   4.714   6.210   9.032 -3.3505 -2.4893 -0.0654
  379MOL0     H51144   4.556   6.234   8.980  0.8963 -1.4947  0.1434
  379MOL0     H51145   4.611   6.470   9.134 -2.5538  0.9097  0.7015
  379MOL0     H51146   4.698   6.334   9.215 -0.6147 -1.2413 -0.1904
  379MOL0     H51147   4.375   6.421   8.264 -0.1586  0.4884  1.5497
  379MOL0     H51148   4.147   6.489   8.200  0.8933  0.0706  0.1185
  379MOL0     H51149   3.785   6.519   8.025  0.8807 -0.1637  2.1412
  379MOL0     H51150   3.555   6.574   7.967 -0.9742  0.7714 -0.9935
  379MOL0     H51151   3.387   6.174   8.249 -1.9619  2.1249  2.8162
  379MOL0     H51152   3.483   5.943   8.300 -0.1316  0.0136 -3.0237
  379MOL0     H51153   3.761   5.705   8.576 -0.0514 -0.0614 -0.2519
  379MOL0     H51154   3.796   5.462   8.612  1.4152 -3.4667 -1.0095
  379MOL0     H51155   3.965   5.262   8.622  3.1662 -0.6381 -2.4297
  379MOL0     H51156   3.797   5.233   8.604  0.5214 -1.4065  0.5183
  379MOL0     H51157   4.010   5.065   8.482  0.0883  2.2542 -0.3717
  379MOL0     H51158   3.846   5.017   8.484  0.6620 -0.4479 -1.3369
  379MOL0     H51159   4.029   5.036   8.744 -0.5673 -1.4216  1.0061
  379MOL0     H51160   3.981   4.902   8.647 -0.7836 -0.7629  3.5269
  379MOL0     H51161   3.742   4.987   8.698  0.8344  1.3547  0.2083
  379MOL0     H51162   3.832   5.095   8.811  2.1622  1.2077 -1.3641
  379MOL0     H51163   3.795   4.755   9.048  0.5617  1.7202  1.3146
  379MOL0     H51164   3.977   5.439   8.214 -1.1817 -3.8538  1.2961
  379MOL0     H51165   3.962   5.680   8.201 -0.1881 -1.2680 -1.0063
  380MOL0     O51166   1.695   5.559   9.604 -0.8454 -0.7708 -0.0031
  380MOL0     C51167   1.766   5.622   9.523 -0.1191 -0.3514 -0.0834
  380MOL0     O51168   1.707   5.718   9.441 -0.0330  0.7748 -0.4356
  380MOL0     C51169   1.579   5.761   9.468  0.6558 -0.0277  0.3997
  380MOL0     C51170   1.472   5.673   9.431 -0.7009  0.3973 -0.4728
  380MOL0     C51171   1.336   5.713   9.452  0.7548 -0.4458  0.0500
  380MOL0     C51172   1.308   5.841   9.485  0.3656 -0.5619  0.3626
  380MOL0     O51173   1.173   5.883   9.502 -0.2292 -0.4284 -0.0280
  380MOL0     C51174   1.145   6.023   9.460  0.0244  0.3153 -0.0859
  380MOL0     C51175   1.000   6.049   9.432 -0.8502 -0.0427 -0.7944
  380MOL0     C51176   0.958   5.972   9.304 -0.0692 -0.0015 -0.0366
  380MOL0     C51177   0.964   6.055   9.174  0.1742 -0.2976  0.6505
  380MOL0     C51178   0.905   5.989   9.058 -0.3513  0.6434  0.5209
  380MOL0     C51179   0.754   6.018   9.039  0.8591  0.1835 -0.3178
  380MOL0     C51180   0.684   5.923   8.948 -0.0778  0.4243 -0.4116
  380MOL0     C51181   0.675   5.776   9.000  0.1014  0.1879  0.3637
  380MOL0     N51182   0.604   5.755   9.130  0.2770 -0.8095  0.0743
  380MOL0     C51183   0.531   5.642   9.164  0.3982 -0.2634  1.1039
  380MOL0     C51184   0.491   5.660   9.292  0.6977  0.1328  0.4829
  380MOL0     C51185   0.413   5.561   9.368 -0.3952  0.6536  0.0493
  380MOL0     C51186   0.288   5.623   9.434  0.0948 -0.4352  0.2709
  380MOL0     C51187   0.188   5.522   9.489  0.8589 -0.1933 -0.3746
  380MOL0     C51188   0.233   5.437   9.605  0.5862 -0.0779  0.2600
  380MOL0     O51189   0.321   5.330   9.553  0.1938 -0.4930 -0.8314
  380MOL0     C51190   0.398   5.276   9.652  0.2300 -0.5691  1.2633
  380MOL0     C51191   0.520   5.330   9.686  1.2639  0.4665 -0.7491
  380MOL0     C51192   0.588   5.278   9.801 -0.2955  0.9607 -0.9780
  380MOL0     C51193   0.716   5.350   9.826 -0.1444 -0.0103  0.4678
  380MOL0     C51194   0.542   5.164   9.871  0.0991 -0.5390  0.0255
  380MOL0     C51195   0.620   5.085   9.967 -0.5156  0.5787  0.2477
  380MOL0     O51196   0.577   4.961   9.990 -0.2610 -0.0165  0.1753
  380MOL0     C51197   0.661   4.866  10.042 -0.0985  0.9123 -0.8439
  380MOL0     C51198   0.758   4.813   9.958 -0.1847  0.4532  1.2458
  380MOL0     C51199   0.849   4.718  10.009 -0.3918  0.9385 -0.5388
  380MOL0     C51200   0.851   4.675  10.143  0.0797 -0.5085  0.3976
  380MOL0     O51201   0.946   4.592  10.190 -0.3841 -0.5023 -0.1449
  380MOL0     C51202   1.003   4.619  10.322  0.6211 -0.2480 -0.0452
  380MOL0     C51203   1.086   4.743  10.319  0.6262 -0.4023 -0.5470
  380MOL0     C51204   1.142   4.768  10.459 -0.3259 -0.5141  0.3949
  380MOL0     C51205   1.271   4.684  10.483 -0.8506 -0.3220 -0.2364
  380MOL0     C51206   1.319   4.717  10.639  0.1974 -0.6625  0.4116
  380MOL0     C51207   1.452   4.654  10.669  0.5146 -0.1412 -0.2894
  380MOL0     C51208   1.495   4.709  10.807 -0.0336 -0.2986  0.6516
  380MOL0     C51209   1.407   4.659  10.931 -0.3245 -0.3262 -0.4235
  380MOL0    Cl51210   1.433   4.484  10.949  0.4171 -0.2200  0.0200
  380MOL0     C51211   0.759   4.737  10.228 -0.6910 -0.2687 -0.0733
  380MOL0     C51212   0.665   4.817  10.175  0.7483 -0.8024 -0.3996
  380MOL0     O51213   0.717   5.141  10.020 -0.1563  0.5571  0.2239
  380MOL0     C51214   0.415   5.121   9.840 -0.4082  0.4643  0.4651
  380MOL0     C51215   0.339   5.177   9.735  0.1418  0.4061  0.8096
  380MOL0     N51216   0.539   5.783   9.341 -0.1024 -0.1641  0.3081
  380MOL0     N51217   0.612   5.833   9.239  0.5895 -0.4849 -0.7675
  380MOL0     C51218   1.416   5.924   9.526 -0.0603 -0.0087 -0.5035
  380MOL0     C51219   1.554   5.888   9.513  1.3040 -0.1887  0.1745
  380MOL0     C51220   1.909   5.601   9.534 -0.4893  0.8220  0.1247
  380MOL0     C51221   1.968   5.549   9.655 -0.2131  0.2440  0.6805
  380MOL0     C51222   2.105   5.511   9.656 -0.2053 -0.9257 -0.8377
  380MOL0     C51223   2.184   5.540   9.549 -0.6880  0.2389 -0.1927
  380MOL0     O51224   2.317   5.510   9.562 -0.5927 -0.2375 -0.4558
  380MOL0     C51225   2.393   5.625   9.612  0.1741  0.1998  0.7900
  380MOL0     C51226   2.524   5.588   9.671  0.3606 -0.5097  0.3482
  380MOL0     C51227   2.523   5.527   9.805 -0.3057  0.6467  0.2623
  380MOL0     C51228   2.656   5.473   9.855 -0.1455  0.7899  0.7068
  380MOL0     C51229   2.768   5.574   9.847 -0.8632 -0.2669 -0.0037
  380MOL0     C51230   2.870   5.643   9.828  0.2004 -0.6711  0.3078
  380MOL0     C51231   2.134   5.602   9.434 -0.5891 -0.0540 -0.6233
  380MOL0     C51232   2.001   5.623   9.423  0.3898 -0.5019  0.6598
  380MOL0     H51233   1.498   5.570   9.408  1.5067  1.0806 -1.2665
  380MOL0     H51234   1.247   5.654   9.431 -0.8592  0.5266  3.4772
  380MOL0     H51235   1.172   6.089   9.543 -2.1440  2.1127 -0.6884
  380MOL0     H51236   1.203   6.050   9.371 -0.7319  3.1668  0.1936
  380MOL0     H51237   0.939   6.009   9.513 -0.1446 -0.2759 -0.3698
  380MOL0     H51238   0.990   6.158   9.430 -1.6838 -0.0300  1.4448
  380MOL0     H51239   1.014   5.880   9.287  0.7784  0.9266 -2.8846
  380MOL0     H51240   0.855   5.937   9.319  0.4598 -0.9905  1.5481
  380MOL0     H51241   0.910   6.147   9.198  3.6683  1.5898  2.0741
  380MOL0     H51242   1.067   6.078   9.145  0.0369 -1.1791 -0.6225
  380MOL0     H51243   0.961   6.026   8.971  2.6454 -0.3093  1.9113
  380MOL0     H51244   0.930   5.882   9.051  0.1390  0.6855  1.5936
  380MOL0     H51245   0.691   6.034   9.127 -2.9247 -0.9188 -2.5798
  380MOL0     H51246   0.746   6.113   8.987 -3.2562 -1.1592 -2.6105
  380MOL0     H51247   0.582   5.960   8.936  0.9944  2.8377 -4.0092
  380MOL0     H51248   0.732   5.916   8.850 -0.3980  0.7593 -0.5953
  380MOL0     H51249   0.779   5.744   9.010  0.0072  0.1113  1.2545
  380MOL0     H51250   0.621   5.711   8.931 -0.7641 -1.4437  2.4538
  380MOL0     H51251   0.530   5.555   9.099  1.0043 -0.3722  1.2312
  380MOL0     H51252   0.389   5.478   9.301  1.7175  1.6676 -2.1310
  380MOL0     H51253   0.493   5.535   9.438  0.2831  1.9870 -0.1935
  380MOL0     H51254   0.233   5.688   9.366  2.1725  1.5361  0.3341
  380MOL0     H51255   0.322   5.688   9.515  0.3571  2.7673 -2.2241
  380MOL0     H51256   0.145   5.458   9.412  1.1485 -3.2476  1.8162
  380MOL0     H51257   0.089   5.564   9.508  0.8111  0.3008 -1.6509
  380MOL0     H51258   0.139   5.396   9.642  0.1025  0.1540 -0.6869
  380MOL0     H51259   0.278   5.506   9.677 -0.1357  2.2774 -1.4189
  380MOL0     H51260   0.553   5.417   9.631 -1.5724  1.3301 -1.2305
  380MOL0     H51261   0.795   5.281   9.795 -3.1897 -4.2851  1.3449
  380MOL0     H51262   0.724   5.452   9.789  0.8627  0.3927  1.7045
  380MOL0     H51263   0.731   5.361   9.934  2.5976 -1.6437  0.3399
  380MOL0     H51264   0.764   4.844   9.854  0.1873 -0.3627  1.0139
  380MOL0     H51265   0.923   4.686   9.936  0.1249  1.2367 -0.1560
  380MOL0     H51266   0.924   4.623  10.398  0.9312  0.8269  0.2403
  380MOL0     H51267   1.074   4.536  10.329  0.6781 -0.2990 -1.1120
  380MOL0     H51268   1.171   4.739  10.250 -0.2158 -3.7791 -1.6080
  380MOL0     H51269   1.023   4.826  10.285  2.5985  0.6949 -1.6714
  380MOL0     H51270   1.067   4.738  10.533 -0.0599  1.0026  1.2972
  380MOL0     H51271   1.181   4.868  10.477 -0.0481 -0.2734 -1.4052
  380MOL0     H51272   1.255   4.578  10.460  4.4352 -0.9066 -2.9143
  380MOL0     H51273   1.343   4.726  10.412 -1.9323  1.4080 -0.3841
  380MOL0     H51274   1.248   4.671  10.709 -0.1072  1.0203  1.2382
  380MOL0     H51275   1.327   4.825  10.647 -1.1855 -0.3024 -2.1925
  380MOL0     H51276   1.455   4.545  10.674 -1.0630 -0.1919  0.0273
  380MOL0     H51277   1.529   4.687  10.599  2.8581 -1.2746  1.6206
  380MOL0     H51278   1.508   4.817  10.808  0.0667 -0.3069  1.6870
  380MOL0     H51279   1.592   4.667  10.836  0.4507  0.5700  0.3177
  380MOL0     H51280   1.301   4.685  10.922 -0.1477  1.2862  1.5384
  380MOL0     H51281   1.445   4.697  11.025  1.0413 -0.2088 -1.0011
  380MOL0     H51282   0.743   4.714  10.333 -1.3054  2.8121  0.6067
  380MOL0     H51283   0.585   4.853  10.239  0.9069  0.3838 -0.8444
  380MOL0     H51284   0.372   5.040   9.898  0.3440 -3.1420 -3.5078
  380MOL0     H51285   0.234   5.151   9.721  0.4515 -0.6971  0.3552
  380MOL0     H51286   1.399   6.024   9.563 -0.9858 -0.2520 -0.2450
  380MOL0     H51287   1.641   5.951   9.532  0.1606  1.2961  0.6790
  380MOL0     H51288   1.917   5.526   9.748  1.2604 -0.2794  1.3959
  380MOL0     H51289   2.146   5.490   9.755 -0.1685  1.7452 -0.2035
  380MOL0     H51290   2.404   5.686   9.522  0.6955 -1.0982 -0.0601
  380MOL0     H51291   2.320   5.680   9.671 -2.9317 -1.1211 -1.5465
  380MOL0     H51292   2.584   5.679   9.668 -0.9210  0.3966  1.1580
  380MOL0     H51293   2.571   5.516   9.604 -1.1071 -4.0989  2.8572
  380MOL0     H51294   2.446   5.450   9.814 -0.8774  1.4078  2.9538
  380MOL0     H51295   2.496   5.603   9.879 -3.5380  0.1692 -0.2928
  380MOL0     H51296   2.696   5.397   9.788 -2.0257 -1.1146  1.6026
  380MOL0     H51297   2.657   5.432   9.957  0.4384 -0.1405  0.3379
  380MOL0     H51298   2.955   5.700   9.795 -0.7504  0.3719 -0.4370
  380MOL0     H51299   2.206   5.628   9.358  0.4322 -0.8219  0.0646
  380MOL0     H51300   1.961   5.666   9.332  0.6708 -1.2467  0.1743
  381MOL0     O51301  10.644  10.848  10.277 -0.1065 -0.7371 -0.4389
  381MOL0     C51302  10.560  10.874  10.357 -0.3941  0.4757  0.6169
  381MOL0     O51303  10.517  10.798  10.455  0.2515  0.6090 -0.4432
  381MOL0     C51304  10.574  10.682  10.486  0.6090  1.1226  0.6446
  381MOL0     C51305  10.484  10.595  10.542 -0.6703  0.4299  0.0215
  381MOL0     C51306  10.524  10.470  10.579  0.6887  0.1595  0.5823
  381MOL0     C51307  10.664  10.438  10.590 -0.3436  0.4371  0.0087
  381MOL0     O51308  10.699  10.317  10.636 -0.9900 -0.2816 -0.7620
  381MOL0     C51309  10.812  10.254  10.580 -0.0536 -0.0811 -0.2822
  381MOL0     C51310  10.890  10.183  10.701 -0.3638  0.0105 -0.5423
  381MOL0     C51311  10.921  10.276  10.819  0.3971 -0.2004 -0.8274
  381MOL0     C51312  11.033  10.218  10.914  0.3664  0.4976 -0.0628
  381MOL0     C51313  10.991  10.102  11.003  0.0800 -0.0374 -0.4109
  381MOL0     C51314  11.105  10.043  11.085  0.8222  0.4299 -0.0782
  381MOL0     C51315  11.198   9.975  10.991  0.3087 -0.6651 -0.6094
  381MOL0     C51316  11.339   9.941  11.051  0.4334  0.2597  1.0009
  381MOL0     N51317  11.442  10.047  11.067 -0.1957  0.3699 -0.6522
  381MOL0     C51318  11.474  10.141  10.972 -0.2034  0.3134 -0.5134
  381MOL0     C51319  11.572  10.215  11.032  0.5405  0.6933 -0.4971
  381MOL0     C51320  11.644  10.342  10.987  0.4160 -0.3893 -0.1668
  381MOL0     C51321  11.564  10.464  11.057  1.2203 -0.3496 -0.0807
  381MOL0     C51322  11.627  10.603  11.026  0.6481  0.6126 -0.4164
  381MOL0     C51323  11.581  10.713  11.115  0.0980  0.0021 -0.0551
  381MOL0     O51324  11.668  10.825  11.090  0.6281  0.4829 -0.0940
  381MOL0     C51325  11.647  10.932  11.182 -0.6426  0.5687 -0.3060
  381MOL0     C51326  11.692  10.926  11.316  1.1144 -0.4407  0.3326
  381MOL0     C51327  11.688  11.041  11.406 -0.5201  0.5979  0.7316
  381MOL0     C51328  11.740  11.022  11.547  0.2686  0.6988  1.1522
  381MOL0     C51329  11.630  11.166  11.351  0.0924  0.1762  0.5655
  381MOL0     C51330  11.589  11.286  11.436  0.0636  0.3495  0.7066
  381MOL0     O51331  11.510  11.383  11.387  0.0002  0.0233  0.1046
  381MOL0     C51332  11.472  11.491  11.468  0.3719  0.3340  0.7278
  381MOL0     C51333  11.505  11.528  11.600  0.1697 -0.1938  0.1676
  381MOL0     C51334  11.453  11.632  11.657  1.3216  0.2086 -0.1728
  381MOL0     C51335  11.355  11.713  11.590  0.2903 -0.4034 -0.4917
  381MOL0     O51336  11.305  11.821  11.666 -0.2448  0.2170  0.6623
  381MOL0     C51337  11.192  11.881  11.612  0.5973  0.9873 -0.1323
  381MOL0     C51338  11.128  11.980  11.709  0.1573 -0.5300  0.4067
  381MOL0     C51339  11.020  12.063  11.636  0.3637 -0.3960 -0.0452
  381MOL0     C51340  10.998  12.200  11.710 -0.0533 -0.5794 -0.0113
  381MOL0     C51341  10.921  12.305  11.628 -0.6260  0.7022 -0.3150
  381MOL0     C51342  11.010  12.358  11.516 -0.2872 -0.1158  0.5356
  381MOL0     C51343  10.937  12.451  11.423  0.5802  0.3134  0.4689
  381MOL0     C51344  11.020  12.461  11.296  0.5428 -1.2441 -0.4377
  381MOL0    Cl51345  11.157  12.570  11.349  0.3725  0.2541  0.0593
  381MOL0     C51346  11.323  11.678  11.453  0.5004 -0.2759  0.8485
  381MOL0     C51347  11.378  11.566  11.399  0.7243  0.0773 -0.5268
  381MOL0     O51348  11.633  11.284  11.546 -0.2447  0.1748 -0.6812
  381MOL0     C51349  11.580  11.159  11.219  0.5180  0.1917 -0.0328
  381MOL0     C51350  11.596  11.055  11.134  0.4573  0.2776  0.5348
  381MOL0     N51351  11.590  10.161  11.157 -0.1996 -0.0739  1.0532
  381MOL0     N51352  11.519  10.057  11.175 -0.0837  0.2631 -0.2094
  381MOL0     C51353  10.751  10.545  10.566  0.2527  0.1989  0.5017
  381MOL0     C51354  10.706  10.660  10.494 -0.4557 -0.2277 -0.2744
  381MOL0     C51355  10.473  10.994  10.339 -0.8976  0.8847  0.2555
  381MOL0     C51356  10.456  11.054  10.215 -0.5538 -0.5036 -0.7723
  381MOL0     C51357  10.372  11.166  10.188 -0.0839  0.5358 -0.1223
  381MOL0     C51358  10.292  11.201  10.302  0.9836 -0.7933 -0.1240
  381MOL0     O51359  10.188  11.300  10.311 -0.0078  0.2475 -0.3446
  381MOL0     C51360  10.156  11.352  10.182  0.2552  0.5237 -0.7658
  381MOL0     C51361  10.079  11.249  10.097  1.2249  0.7059 -0.2086
  381MOL0     C51362   9.951  11.192  10.177  0.4026 -0.3512  0.6963
  381MOL0     C51363   9.862  11.306  10.250 -0.4391 -0.3468  0.9201
  381MOL0     C51364   9.830  11.407  10.144 -0.2723  0.3835  0.7297
  381MOL0     C51365   9.828  11.486  10.052 -0.7181 -0.3236 -0.1217
  381MOL0     C51366  10.312  11.147  10.428 -0.4537 -0.2226 -0.6448
  381MOL0     C51367  10.401  11.047  10.447 -0.6701 -0.0462 -0.7969
  381MOL0     H51368  10.382  10.634  10.539 -0.7368  0.2235 -0.5887
  381MOL0     H51369  10.456  10.387  10.598  1.7891 -0.1694  3.7097
  381MOL0     H51370  10.778  10.180  10.508 -0.7557 -0.6441  0.6046
  381MOL0     H51371  10.878  10.326  10.531 -1.4852  3.1273  2.1074
  381MOL0     H51372  10.816  10.111  10.736 -0.1988  0.7780  1.5205
  381MOL0     H51373  10.981  10.133  10.665 -2.0180 -1.3406 -3.1359
  381MOL0     H51374  10.950  10.371  10.774  0.9607 -1.2197 -2.7572
  381MOL0     H51375  10.832  10.295  10.878  0.8357  2.1291 -0.8358
  381MOL0     H51376  11.124  10.199  10.858  0.3195  0.2342 -0.0498
  381MOL0     H51377  11.057  10.304  10.977 -0.4154  2.4298 -2.2495
  381MOL0     H51378  10.922  10.142  11.078  1.3106  2.7761 -0.6585
  381MOL0     H51379  10.950  10.016  10.950  0.4299  0.0775 -0.8684
  381MOL0     H51380  11.158  10.123  11.138 -1.3754  0.6144  1.9886
  381MOL0     H51381  11.074   9.971  11.161  0.0937 -0.8901 -1.5646
  381MOL0     H51382  11.158   9.881  10.953  3.6974 -2.5307 -0.0354
  381MOL0     H51383  11.217  10.036  10.901  0.9293 -1.6246 -1.1482
  381MOL0     H51384  11.382   9.856  10.998 -0.3651 -0.4945  1.5371
  381MOL0     H51385  11.317   9.885  11.143 -0.2493  0.7488  1.1472
  381MOL0     H51386  11.457  10.162  10.867 -1.4820  0.4647 -0.2902
  381MOL0     H51387  11.740  10.323  11.036 -0.0642  0.5626  1.2103
  381MOL0     H51388  11.654  10.352  10.879  0.1189  1.7715 -0.0419
  381MOL0     H51389  11.566  10.448  11.165 -1.9951  0.9198  0.3009
  381MOL0     H51390  11.458  10.465  11.030  1.1369 -1.1011  0.1915
  381MOL0     H51391  11.605  10.621  10.920 -0.1395 -2.8583 -0.9577
  381MOL0     H51392  11.736  10.592  11.035  0.5149  0.4640  1.5390
  381MOL0     H51393  11.593  10.676  11.217  2.4228 -1.1415 -0.6691
  381MOL0     H51394  11.475  10.732  11.093  0.4398  1.4080 -0.5486
  381MOL0     H51395  11.719  10.827  11.351 -1.2976 -2.7138 -3.5124
  381MOL0     H51396  11.795  11.108  11.586  4.1129 -0.8275 -0.3434
  381MOL0     H51397  11.657  10.991  11.612 -0.1491  0.1013  0.3490
  381MOL0     H51398  11.818  10.945  11.550 -1.7301 -1.3899  2.3481
  381MOL0     H51399  11.572  11.474  11.667 -0.9577 -0.8745  0.7628
  381MOL0     H51400  11.492  11.659  11.754  1.1718 -2.5692  0.7480
  381MOL0     H51401  11.222  11.942  11.526  0.7287  1.7860  0.4754
  381MOL0     H51402  11.125  11.804  11.571  1.4285  0.7269 -1.0444
  381MOL0     H51403  11.084  11.920  11.790 -3.4434  1.7117  0.3628
  381MOL0     H51404  11.200  12.055  11.742  2.1182 -0.9779 -2.4755
  381MOL0     H51405  10.918  12.022  11.638  0.3436 -0.3446 -0.0044
  381MOL0     H51406  11.051  12.073  11.531 -0.3022  0.0238 -0.2112
  381MOL0     H51407  10.948  12.179  11.805  0.1172 -1.3572 -0.0911
  381MOL0     H51408  11.096  12.243  11.733  0.3409 -0.5981 -1.5312
  381MOL0     H51409  10.891  12.391  11.688  1.4768  2.8973 -2.1600
  381MOL0     H51410  10.832  12.250  11.595 -0.9203  0.8750  0.1859
  381MOL0     H51411  11.088  12.412  11.571 -0.2443 -1.9523  2.4057
  381MOL0     H51412  11.063  12.284  11.454  0.0417 -0.2926  1.0222
  381MOL0     H51413  10.921  12.546  11.474 -3.0911 -0.7802  1.6749
  381MOL0     H51414  10.838  12.413  11.397 -0.3100  1.2373  2.3668
  381MOL0     H51415  10.961  12.513  11.220  1.0783 -0.0325 -0.0615
  381MOL0     H51416  11.047  12.371  11.239  0.6352  0.0821 -2.6033
  381MOL0     H51417  11.266  11.733  11.379  3.1797 -1.6889 -2.5592
  381MOL0     H51418  11.371  11.551  11.292  1.6649  0.8486 -0.7009
  381MOL0     H51419  11.542  11.253  11.179 -0.1228  0.7708  1.8414
  381MOL0     H51420  11.571  11.056  11.028  0.8228 -0.5654  0.4401
  381MOL0     H51421  10.854  10.530  10.593  0.4389 -2.8279 -1.3710
  381MOL0     H51422  10.778  10.731  10.456 -2.6308  2.8570  0.9540
  381MOL0     H51423  10.511  11.014  10.131 -2.2287 -2.2693 -1.1032
  381MOL0     H51424  10.350  11.208  10.090 -1.5649  0.5258  0.1830
  381MOL0     H51425  10.097  11.445  10.180 -1.2511 -0.3645  0.1302
  381MOL0     H51426  10.244  11.383  10.125 -0.3739  0.6995 -1.6581
  381MOL0     H51427  10.142  11.162  10.079  0.8923  0.4156  0.0151
  381MOL0     H51428  10.049  11.286   9.999 -3.4653 -1.8226 -0.0429
  381MOL0     H51429   9.988  11.118  10.249 -2.9970 -0.6729  2.3527
  381MOL0     H51430   9.893  11.140  10.101 -2.3020  1.9951  0.9841
  381MOL0     H51431   9.911  11.350  10.336  2.0500  1.6464 -1.3410
  381MOL0     H51432   9.765  11.275  10.291  0.0626 -0.5908  1.9315
  381MOL0     H51433   9.834  11.565   9.979  1.9364  0.5901  0.9591
  381MOL0     H51434  10.269  11.201  10.512  1.9558 -2.3320  2.1604
  381MOL0     H51435  10.398  11.005  10.548  1.1953  1.9585  0.1816
  382MOL0     O51436   2.652   5.727  10.176 -0.3546 -0.2876  0.4265
  382MOL0     C51437   2.628   5.836  10.118 -0.0903 -0.2773 -0.2840
  382MOL0     O51438   2.726   5.928  10.095 -0.6018 -0.1904  0.0192
  382MOL0     C51439   2.853   5.913  10.146 -0.3190  0.1395 -0.2952
  382MOL0     C51440   2.894   6.014  10.233 -0.2462 -1.0544  0.2261
  382MOL0     C51441   3.022   5.996  10.304  0.1054 -0.1136 -0.1044
  382MOL0     C51442   3.109   5.886  10.268 -0.3812 -0.0747 -0.1407
  382MOL0     O51443   3.231   5.861  10.333  0.5860 -0.3646 -0.2038
  382MOL0     C51444   3.316   5.973  10.367 -0.9206 -0.1116  0.9864
  382MOL0     C51445   3.463   5.939  10.331  0.2197 -0.0589  0.5120
  382MOL0     C51446   3.508   5.976  10.189 -0.7802  0.8510 -0.7442
  382MOL0     C51447   3.399   5.942  10.081  0.1590  0.2213 -0.0898
  382MOL0     C51448   3.473   5.933   9.947 -0.9926  0.1576 -0.5810
  382MOL0     C51449   3.378   5.955   9.832  0.4109 -0.9911  0.9372
  382MOL0     C51450   3.347   6.107   9.808  0.8089 -0.1150 -0.3934
  382MOL0     C51451   3.291   6.130   9.673 -0.7985 -0.0953 -0.0346
  382MOL0     N51452   3.158   6.064   9.660  1.6415  0.3773  0.7380
  382MOL0     C51453   3.036   6.119   9.703 -0.2222  0.2963  0.0835
  382MOL0     C51454   2.938   6.020   9.671 -0.6954  1.0462 -0.1109
  382MOL0     C51455   2.800   6.015   9.718 -0.3405  0.6276 -0.1322
  382MOL0     C51456   2.717   5.930   9.623 -0.1298 -0.5813  0.2790
  382MOL0     C51457   2.711   5.990   9.481  0.6290  0.0370  0.8598
  382MOL0     C51458   2.580   5.937   9.422 -0.4832 -0.5297  0.3152
  382MOL0     O51459   2.458   5.985   9.479 -0.0303 -0.3872 -0.2482
  382MOL0     C51460   2.346   5.997   9.397 -0.0835 -0.1031 -0.3763
  382MOL0     C51461   2.316   5.918   9.280 -0.5431  0.7950 -0.2869
  382MOL0     C51462   2.202   5.943   9.204 -0.1444  0.2524 -0.9595
  382MOL0     C51463   2.184   5.866   9.079 -0.2184 -0.7274 -1.2653
  382MOL0     C51464   2.110   6.042   9.249  0.1876 -0.3235 -0.4419
  382MOL0     C51465   1.986   6.085   9.182  0.5312 -0.1612  0.8664
  382MOL0     O51466   1.893   5.999   9.145  0.6078  0.3471  0.0308
  382MOL0     C51467   1.765   6.038   9.115  0.7833 -0.1876  0.5935
  382MOL0     C51468   1.740   6.131   9.013 -0.6081 -0.0923  0.5385
  382MOL0     C51469   1.610   6.166   8.967  0.0382  0.1032  0.1817
  382MOL0     C51470   1.500   6.110   9.032  0.4440  0.0889 -0.0682
  382MOL0     O51471   1.373   6.162   9.009 -0.1635  0.0601 -0.3211
  382MOL0     C51472   1.340   6.181   8.877 -0.3365  0.1472  0.5052
  382MOL0     C51473   1.293   6.040   8.816  0.7029  0.5133  0.0397
  382MOL0     C51474   1.228   6.037   8.674  0.7029  0.1467 -1.2673
  382MOL0     C51475   1.165   5.901   8.645 -0.1353  0.7775 -0.4394
  382MOL0     C51476   1.044   5.845   8.730  1.3626 -0.6272 -0.3056
  382MOL0     C51477   0.987   5.720   8.658  0.3393  0.3439  0.8027
  382MOL0     C51478   0.909   5.736   8.522  0.1155 -0.0269 -0.8019
  382MOL0     C51479   0.876   5.601   8.464  0.7363  0.0305  0.0275
  382MOL0    Cl51480   0.834   5.481   8.592 -0.0530  0.0951 -0.2532
  382MOL0     C51481   1.516   6.012   9.133 -0.5767 -1.1216  1.2667
  382MOL0     C51482   1.649   5.981   9.168  1.0736  0.6006 -1.2901
  382MOL0     O51483   1.969   6.208   9.187  0.6280 -0.4051  0.3678
  382MOL0     C51484   2.134   6.099   9.374 -1.1329 -0.1841 -0.6007
  382MOL0     C51485   2.245   6.070   9.444  1.1222 -0.1880 -0.2042
  382MOL0     N51486   3.009   5.904   9.626 -0.3176  0.2917 -0.4883
  382MOL0     N51487   3.133   5.935   9.618 -0.7862 -0.6160  1.0343
  382MOL0     C51488   3.076   5.802  10.172 -0.4323  0.1569  0.6519
  382MOL0     C51489   2.947   5.814  10.114  0.3359 -0.5119  0.7647
  382MOL0     C51490   2.492   5.863  10.066 -0.2510 -0.0053  1.0410
  382MOL0     C51491   2.469   5.965   9.965  0.4087  0.1960 -0.0149
  382MOL0     C51492   2.339   5.969   9.902 -0.0108 -1.0611 -0.1666
  382MOL0     C51493   2.241   5.883   9.939 -0.8582  0.0314 -0.4275
  382MOL0     O51494   2.109   5.895   9.905  1.7089 -0.3440 -0.5891
  382MOL0     C51495   2.087   5.925   9.773 -1.0811  0.2219  0.1349
  382MOL0     C51496   1.943   5.887   9.730  0.0995  0.3722  0.1343
  382MOL0     C51497   1.835   5.961   9.800 -0.3830  0.0674 -0.6427
  382MOL0     C51498   1.732   5.864   9.859 -0.1323 -0.0640  0.2989
  382MOL0     C51499   1.612   5.925   9.875 -0.2026 -0.2372  0.6800
  382MOL0     C51500   1.507   5.973   9.872 -0.3481 -0.3755  0.4808
  382MOL0     C51501   2.276   5.779  10.028  0.9569 -0.0288  0.6264
  382MOL0     C51502   2.392   5.777  10.090  0.2888 -0.1141  0.8237
  382MOL0     H51503   2.835   6.104  10.252  1.7509  0.1257  1.1089
  382MOL0     H51504   3.060   6.070  10.374  2.3930 -3.1170  2.0693
  382MOL0     H51505   3.293   6.074  10.331  2.2649  1.6555  3.4316
  382MOL0     H51506   3.317   5.970  10.476 -2.5466 -4.5684  1.0735
  382MOL0     H51507   3.522   5.996  10.404 -1.9233 -0.0303  2.3394
  382MOL0     H51508   3.475   5.834  10.360 -1.9637 -0.7071 -0.6959
  382MOL0     H51509   3.528   6.083  10.182  0.4884  0.9042  2.2046
  382MOL0     H51510   3.600   5.921  10.167  0.2522  0.5480  3.3886
  382MOL0     H51511   3.342   5.850  10.097  2.0074 -1.2740 -1.6361
  382MOL0     H51512   3.327   6.024  10.080  0.1185  0.1982 -1.7986
  382MOL0     H51513   3.561   5.997   9.944  1.6560 -3.2461 -2.0992
  382MOL0     H51514   3.509   5.831   9.932  0.8419  0.9984 -2.2441
  382MOL0     H51515   3.416   5.908   9.740 -0.3248 -1.1613  0.7082
  382MOL0     H51516   3.284   5.905   9.856 -0.8755  0.8418 -0.0141
  382MOL0     H51517   3.276   6.146   9.882 -0.1788 -2.0148 -0.2722
  382MOL0     H51518   3.441   6.162   9.814  1.9873 -2.1750  1.2799
  382MOL0     H51519   3.356   6.085   9.598 -3.1867  0.4764 -2.6075
  382MOL0     H51520   3.294   6.238   9.657  4.5277  0.3814  2.3165
  382MOL0     H51521   3.010   6.214   9.747 -1.9192  0.0449 -0.3336
  382MOL0     H51522   2.798   5.970   9.818  1.8954  0.6200 -0.0370
  382MOL0     H51523   2.758   6.116   9.725 -0.9617  0.3202  0.6476
  382MOL0     H51524   2.617   5.920   9.666 -0.8543  0.5758 -1.0063
  382MOL0     H51525   2.754   5.828   9.620 -0.9436 -0.8705 -0.8897
  382MOL0     H51526   2.792   5.942   9.427 -0.5425 -3.4651  1.9203
  382MOL0     H51527   2.725   6.098   9.480  3.0732 -0.2348 -0.1420
  382MOL0     H51528   2.581   5.829   9.438 -2.3336 -0.4150  1.5363
  382MOL0     H51529   2.583   5.954   9.314  0.6181 -1.6792  0.1500
  382MOL0     H51530   2.398   5.853   9.252  1.2346  3.6104 -2.1417
  382MOL0     H51531   2.102   5.797   9.099 -0.8843  0.5643  0.7699
  382MOL0     H51532   2.160   5.937   8.999 -1.1840 -0.9248 -1.1648
  382MOL0     H51533   2.274   5.814   9.045 -1.0340 -2.2516 -1.1670
  382MOL0     H51534   1.832   6.167   8.968 -0.3107 -1.6771 -0.1706
  382MOL0     H51535   1.603   6.255   8.905  0.8264 -0.3837 -0.6375
  382MOL0     H51536   1.255   6.248   8.893 -1.6229 -1.7738  2.2355
  382MOL0     H51537   1.414   6.230   8.813  0.5326 -1.3396  0.3298
  382MOL0     H51538   1.375   5.969   8.812 -1.4418 -2.1704 -4.0567
  382MOL0     H51539   1.215   6.000   8.881  0.4060  1.1779  0.1048
  382MOL0     H51540   1.308   6.064   8.604  1.4610 -1.1721 -0.9415
  382MOL0     H51541   1.151   6.115   8.676  0.1920 -0.3588  1.1859
  382MOL0     H51542   1.137   5.901   8.539  0.3843  0.5881 -0.5811
  382MOL0     H51543   1.246   5.829   8.659 -0.4332 -0.0534 -2.4914
  382MOL0     H51544   0.975   5.930   8.742  5.7839  3.6046 -1.4628
  382MOL0     H51545   1.075   5.814   8.830 -0.5636 -1.4563  0.0868
  382MOL0     H51546   1.057   5.636   8.645  0.7747  0.4437  2.2840
  382MOL0     H51547   0.912   5.685   8.729 -1.2374 -1.1707 -1.4573
  382MOL0     H51548   0.961   5.804   8.454  1.1040 -1.0681 -1.1168
  382MOL0     H51549   0.809   5.774   8.543 -0.4079 -1.3897 -0.6795
  382MOL0     H51550   0.965   5.561   8.415  1.0206 -0.4823  0.9313
  382MOL0     H51551   0.796   5.605   8.390  0.1186  2.2608  0.7360
  382MOL0     H51552   1.436   5.965   9.188 -2.4609 -0.2089 -0.5518
  382MOL0     H51553   1.652   5.903   9.243 -0.5705  1.0678 -0.7007
  382MOL0     H51554   2.077   6.186   9.404 -1.5795 -1.6043  3.2781
  382MOL0     H51555   2.254   6.114   9.542 -3.7610  0.0069  0.3904
  382MOL0     H51556   3.143   5.721  10.145  0.0972  0.3965  1.2307
  382MOL0     H51557   2.902   5.752  10.037  0.9573 -1.2363  0.9662
  382MOL0     H51558   2.546   6.032   9.928  0.3927 -0.8312 -2.0294
  382MOL0     H51559   2.319   6.049   9.831 -0.0269 -0.7958  0.1348
  382MOL0     H51560   2.114   6.030   9.762 -0.1541 -0.0048  0.1291
  382MOL0     H51561   2.153   5.870   9.705  1.5439 -0.8987  3.3400
  382MOL0     H51562   1.937   5.780   9.750  0.6369  0.4434  0.7194
  382MOL0     H51563   1.928   5.911   9.625 -0.2644 -0.8959 -0.1251
  382MOL0     H51564   1.789   6.021   9.721  1.1208  2.6031  0.2850
  382MOL0     H51565   1.865   6.027   9.883 -0.7545 -3.2397  2.3724
  382MOL0     H51566   1.767   5.811   9.948 -2.4175 -2.2906 -0.0096
  382MOL0     H51567   1.718   5.788   9.782  1.2376 -0.7164  0.6601
  382MOL0     H51568   1.403   5.999   9.878 -0.3187 -0.0476 -0.2376
  382MOL0     H51569   2.195   5.713  10.058 -0.8755  1.1019 -1.4963
  382MOL0     H51570   2.392   5.691  10.157  1.3485  0.9011  2.1635
  383MOL0     O51571   7.652  11.372  10.247  0.1370 -0.0527  0.3071
  383MOL0     C51572   7.571  11.372  10.147 -0.5483  1.0102 -0.0500
  383MOL0     O51573   7.467  11.453  10.133 -0.7566 -0.3537  0.2855
  383MOL0     C51574   7.406  11.524  10.236  0.3000  0.1601  0.0300
  383MOL0     C51575   7.410  11.477  10.373 -0.7100 -0.2620  1.3644
  383MOL0     C51576   7.332  11.540  10.463 -0.0311  0.4214  1.5228
  383MOL0     C51577   7.245  11.645  10.427 -0.5846  0.6798  0.3416
  383MOL0     O51578   7.153  11.711  10.511  0.0309 -0.8365  0.2818
  383MOL0     C51579   7.165  11.704  10.652 -0.5431 -1.0753  0.2366
  383MOL0     C51580   7.300  11.767  10.697 -0.9138 -0.1980 -0.0326
  383MOL0     C51581   7.293  11.833  10.834 -1.3047 -0.6621  0.0842
  383MOL0     C51582   7.367  11.963  10.835 -0.0236 -0.5341  0.0785
  383MOL0     C51583   7.374  12.030  10.970  0.1734  0.0876  0.4753
  383MOL0     C51584   7.489  12.121  10.995 -0.6663  0.7953  0.3827
  383MOL0     C51585   7.524  12.222  10.881  0.0539 -0.2519  0.9161
  383MOL0     C51586   7.410  12.320  10.851  0.1211 -0.5108 -0.2050
  383MOL0     N51587   7.449  12.445  10.779  0.1072  0.1390 -0.2999
  383MOL0     C51588   7.548  12.445  10.671 -0.2201 -0.5011 -0.6592
  383MOL0     C51589   7.592  12.569  10.669  0.7813  0.3734  0.3143
  383MOL0     C51590   7.690  12.627  10.575 -0.8491 -0.0982 -0.3100
  383MOL0     C51591   7.618  12.706  10.466 -0.1332 -0.4111 -0.0173
  383MOL0     C51592   7.677  12.704  10.324  0.8552 -0.2316 -0.8093
  383MOL0     C51593   7.588  12.785  10.230 -0.1467  0.3609  0.1166
  383MOL0     O51594   7.585  12.924  10.259  0.8824 -0.0881  0.5815
  383MOL0     C51595   7.702  12.990  10.234  0.6895  0.1630  0.7191
  383MOL0     C51596   7.772  12.992  10.113  0.2281  0.0912  0.2965
  383MOL0     C51597   7.898  13.062  10.106  1.3027  0.3829 -0.8974
  383MOL0     C51598   7.975  13.039   9.978 -0.0514 -1.0260 -0.3735
  383MOL0     C51599   7.954  13.131  10.224  1.1164  0.0610  0.7812
  383MOL0     C51600   8.086  13.197  10.235  0.2516 -0.9590 -0.4897
  383MOL0     O51601   8.108  13.286  10.331 -0.5298 -0.1486 -1.3923
  383MOL0     C51602   8.225  13.365  10.339  0.4607 -0.7942 -1.0763
  383MOL0     C51603   8.293  13.418  10.230  0.3752 -1.3414  0.3841
  383MOL0     C51604   8.405  13.497  10.252  0.5876  0.7412 -0.2572
  383MOL0     C51605   8.446  13.536  10.376 -0.8841  0.0011  0.0721
  383MOL0     O51606   8.544  13.633  10.375 -0.0962  1.1618 -0.1311
  383MOL0     C51607   8.501  13.758  10.321 -0.0710  0.0395  0.7740
  383MOL0     C51608   8.601  13.865  10.364 -0.0237  0.2982 -0.8095
  383MOL0     C51609   8.548  14.010  10.310 -0.2165  0.9379  0.7444
  383MOL0     C51610   8.634  14.124  10.356 -0.3200 -0.6796 -0.1298
  383MOL0     C51611   8.571  14.262  10.298 -0.1070  0.3628 -0.5479
  383MOL0     C51612   8.657  14.387  10.296 -0.2380 -0.1508 -0.4531
  383MOL0     C51613   8.714  14.446  10.430 -0.5009  0.4223 -0.2180
  383MOL0     C51614   8.611  14.496  10.521 -0.1547 -0.5230 -0.3354
  383MOL0    Cl51615   8.539  14.380  10.622  0.3701 -0.2143  0.6045
  383MOL0     C51616   8.384  13.477  10.483  0.1255 -0.0096  0.3099
  383MOL0     C51617   8.271  13.399  10.466  1.1908  0.1055  0.1023
  383MOL0     O51618   8.169  13.160  10.155 -0.4938 -0.1341  0.3580
  383MOL0     C51619   7.861  13.143  10.327 -0.1598  0.1183 -0.6333
  383MOL0     C51620   7.746  13.069  10.336 -0.2793  0.3859 -0.0202
  383MOL0     N51621   7.525  12.641  10.763  0.8030 -0.0893  0.5786
  383MOL0     N51622   7.451  12.561  10.838  0.2390 -0.2536  1.1921
  383MOL0     C51623   7.239  11.686  10.295 -0.0318  0.3525 -0.1172
  383MOL0     C51624   7.311  11.620  10.195 -0.4567  0.8151  0.5108
  383MOL0     C51625   7.590  11.258  10.050 -0.6045 -0.4786  0.8846
  383MOL0     C51626   7.556  11.258   9.918  0.5071 -0.8414  0.1580
  383MOL0     C51627   7.571  11.149   9.834  0.0956  0.9631  0.8364
  383MOL0     C51628   7.623  11.034   9.885  0.0698 -0.6153 -0.1900
  383MOL0     O51629   7.635  10.921   9.810 -0.1393 -0.5720 -0.3145
  383MOL0     C51630   7.538  10.886   9.706 -0.0017 -0.5242 -0.2057
  383MOL0     C51631   7.513  10.736   9.712 -0.2761  0.2041 -0.2078
  383MOL0     C51632   7.623  10.640   9.662  0.2125 -0.1973  1.2131
  383MOL0     C51633   7.759  10.663   9.725  0.3901  0.4219  0.4570
  383MOL0     C51634   7.838  10.536   9.719  0.5660 -0.2677 -0.6410
  383MOL0     C51635   7.911  10.434   9.747  0.6802 -0.6390 -0.5280
  383MOL0     C51636   7.670  11.031  10.013 -0.6431  1.1111 -0.6897
  383MOL0     C51637   7.646  11.140  10.098  0.1399 -0.7263  0.4468
  383MOL0     H51638   7.471  11.391  10.397 -0.3364  0.0543  1.5760
  383MOL0     H51639   7.327  11.513  10.568  3.9816 -0.6949  1.5998
  383MOL0     H51640   7.088  11.769  10.694  0.0261  0.2497 -0.7049
  383MOL0     H51641   7.165  11.602  10.692  3.4928 -2.3432 -2.3629
  383MOL0     H51642   7.377  11.689  10.697 -1.2061 -0.4943  0.9538
  383MOL0     H51643   7.333  11.836  10.619 -2.5296 -1.5476 -2.0523
  383MOL0     H51644   7.193  11.870  10.858 -0.7427 -0.1118  1.7136
  383MOL0     H51645   7.305  11.753  10.909 -3.8223  0.3337  1.6990
  383MOL0     H51646   7.471  11.937  10.812 -0.4551 -2.6178  0.2931
  383MOL0     H51647   7.328  12.033  10.760 -4.3052 -0.7600  1.8529
  383MOL0     H51648   7.285  12.093  10.981 -0.6802 -1.2341  1.5866
  383MOL0     H51649   7.359  11.946  11.039 -1.8318 -0.3836 -0.4597
  383MOL0     H51650   7.472  12.176  11.088 -1.9082 -2.0068  1.9018
  383MOL0     H51651   7.584  12.067  11.001  0.4727  2.5657 -0.7080
  383MOL0     H51652   7.611  12.281  10.913  0.3665 -0.2991  0.1726
  383MOL0     H51653   7.557  12.177  10.787  2.1496  1.0782  0.9380
  383MOL0     H51654   7.353  12.347  10.940 -2.2424  0.3737 -1.8820
  383MOL0     H51655   7.330  12.278  10.790 -0.2075 -1.9120  1.1504
  383MOL0     H51656   7.584  12.360  10.613  5.0374  1.4048 -0.7637
  383MOL0     H51657   7.771  12.675  10.631 -0.1385 -1.3307 -0.2388
  383MOL0     H51658   7.750  12.549  10.527  1.1246  2.9232 -3.2172
  383MOL0     H51659   7.620  12.807  10.509 -3.7210 -0.4138  0.4702
  383MOL0     H51660   7.512  12.681  10.455 -0.6351  1.8705 -0.8763
  383MOL0     H51661   7.660  12.606  10.279 -1.6651 -1.0915  1.6618
  383MOL0     H51662   7.781  12.738  10.329  1.1229 -0.8306 -1.9678
  383MOL0     H51663   7.487  12.744  10.231 -0.3308  0.5125 -3.0164
  383MOL0     H51664   7.620  12.771  10.126  2.5423 -0.9275  1.0303
  383MOL0     H51665   7.736  12.944  10.022  2.1350  1.0360 -1.0181
  383MOL0     H51666   8.033  13.127   9.949  0.8053 -0.6374  2.2593
  383MOL0     H51667   8.036  12.951   9.995  2.0218  0.8514  3.1473
  383MOL0     H51668   7.916  13.025   9.887  0.7186 -2.7942 -0.6263
  383MOL0     H51669   8.273  13.392  10.127 -0.4479  4.8826 -1.4701
  383MOL0     H51670   8.457  13.528  10.162 -1.8504 -0.9626 -2.4090
  383MOL0     H51671   8.514  13.752  10.213 -0.8090  0.7750  0.6371
  383MOL0     H51672   8.395  13.779  10.336 -0.0025  1.6975 -0.7301
  383MOL0     H51673   8.615  13.868  10.473  1.6208 -2.4530 -0.8513
  383MOL0     H51674   8.702  13.834  10.334  0.5104 -0.4192  1.5216
  383MOL0     H51675   8.447  14.022  10.350 -0.6478 -0.1564  0.0487
  383MOL0     H51676   8.554  14.012  10.201  0.5209  3.9859  0.7784
  383MOL0     H51677   8.655  14.111  10.463  2.3060 -2.2894 -0.7476
  383MOL0     H51678   8.729  14.108  10.305 -0.0125  1.0587 -0.1798
  383MOL0     H51679   8.486  14.278  10.365 -1.2623  1.3049 -2.1571
  383MOL0     H51680   8.532  14.239  10.198  2.9697 -2.9832 -1.1764
  383MOL0     H51681   8.736  14.379  10.220 -1.9229 -1.4879 -2.1432
  383MOL0     H51682   8.596  14.468  10.255  1.0629  1.4984  0.7107
  383MOL0     H51683   8.772  14.536  10.407 -1.0472  0.9933  0.5975
  383MOL0     H51684   8.788  14.380  10.475 -0.6294 -0.3382 -1.0910
  383MOL0     H51685   8.539  14.563  10.474  0.8413  0.8857  0.0891
  383MOL0     H51686   8.668  14.556  10.593 -0.1864 -1.1491  0.2186
  383MOL0     H51687   8.424  13.509  10.579  1.1568 -0.8263  0.1707
  383MOL0     H51688   8.212  13.375  10.554 -1.4249 -1.4018 -1.9404
  383MOL0     H51689   7.893  13.207  10.409  0.8296 -2.2633  0.9483
  383MOL0     H51690   7.682  13.066  10.424 -1.6773 -0.0025 -1.0323
  383MOL0     H51691   7.174  11.770  10.271 -0.3596 -0.4412 -2.2150
  383MOL0     H51692   7.306  11.646  10.090  4.2544 -1.7369 -0.6497
  383MOL0     H51693   7.518  11.347   9.870  0.2885  0.1268  2.0519
  383MOL0     H51694   7.537  11.154   9.731 -3.6875  3.3775  1.9670
  383MOL0     H51695   7.443  10.940   9.718  0.5901  1.1922 -2.5897
  383MOL0     H51696   7.572  10.920   9.608 -3.5786 -1.4453 -1.9362
  383MOL0     H51697   7.439  10.708   9.637  0.9002 -4.1392 -0.0403
  383MOL0     H51698   7.476  10.715   9.813 -0.9466  2.7011  0.1197
  383MOL0     H51699   7.640  10.659   9.556  0.2853 -2.4175  0.7824
  383MOL0     H51700   7.586  10.538   9.676 -0.2627  0.0865  2.0852
  383MOL0     H51701   7.749  10.698   9.828  0.1708 -0.1732  0.6352
  383MOL0     H51702   7.820  10.738   9.673  2.5678 -1.8451 -0.4392
  383MOL0     H51703   7.964  10.343   9.767  1.1685 -0.8894 -2.7308
  383MOL0     H51704   7.714  10.944  10.060  0.1307  1.6860 -0.3231
  383MOL0     H51705   7.670  11.126  10.204 -0.8917 -1.2871  0.6204
  384MOL0     O51706   7.435   0.312   9.259 -0.1726 -0.1750 -0.6090
  384MOL0     C51707   7.462   0.363   9.152  0.0713  0.3830 -0.0328
  384MOL0     O51708   7.580   0.349   9.087 -0.1205 -0.3286 -0.3781
  384MOL0     C51709   7.675   0.286   9.169  0.0086  0.4035  0.3924
  384MOL0     C51710   7.690   0.147   9.159 -0.2867 -1.3026 -0.0371
  384MOL0     C51711   7.798   0.091   9.213  0.1947  0.7062 -0.2028
  384MOL0     C51712   7.897   0.170   9.274 -0.5289 -0.0285 -0.0286
  384MOL0     O51713   8.019   0.133   9.319 -0.6056  0.1187  1.0582
  384MOL0     C51714   8.037  -0.011   9.307 -0.1705  0.1001  0.3023
  384MOL0     C51715   8.169  -0.074   9.362 -0.5712  0.4385  0.2647
  384MOL0     C51716   8.193  -0.050   9.517 -0.3906  0.4889  1.0400
  384MOL0     C51717   8.332  -0.094   9.554  0.4386  0.6825 -0.5975
  384MOL0     C51718   8.344  -0.109   9.702 -0.3134 -0.7854  0.8814
  384MOL0     C51719   8.348   0.019   9.774  0.0595 -1.2644  0.7713
  384MOL0     C51720   8.412   0.005   9.915  0.5739  0.6786 -0.1787
  384MOL0     C51721   8.321  -0.077  10.009 -1.1248 -0.3302 -0.4406
  384MOL0     N51722   8.367  -0.054  10.145 -0.1723 -0.7974 -1.0089
  384MOL0     C51723   8.343   0.067  10.217 -0.1173  1.1948  0.3064
  384MOL0     C51724   8.364   0.027  10.344 -0.1190  0.5000  0.0264
  384MOL0     C51725   8.341   0.112  10.464 -0.2433 -0.3349 -0.9977
  384MOL0     C51726   8.434   0.243  10.453  0.5464 -0.4580 -0.5839
  384MOL0     C51727   8.582   0.204  10.442  0.1562  0.2997 -0.3503
  384MOL0     C51728   8.641   0.110  10.555 -0.6585 -0.3969 -0.3031
  384MOL0     O51729   8.630   0.187  10.684  0.0402  0.4351  0.2832
  384MOL0     C51730   8.640   0.125  10.809 -0.3185  0.3292  0.5738
  384MOL0     C51731   8.703  -0.003  10.830  0.0363  0.0774 -0.1619
  384MOL0     C51732   8.708  -0.068  10.963 -0.4358  0.3767  0.0813
  384MOL0     C51733   8.768  -0.207  10.976 -0.3220  0.2421  0.4393
  384MOL0     C51734   8.660   0.006  11.081 -0.8098  0.3056 -0.1958
  384MOL0     C51735   8.675  -0.048  11.220  0.7065  0.6998 -0.1552
  384MOL0     O51736   8.670   0.048  11.313 -0.2195 -0.1572 -0.0677
  384MOL0     C51737   8.721   0.016  11.436  0.3742  0.0212  0.5544
  384MOL0     C51738   8.851  -0.053  11.466  0.1317 -0.2633  0.7823
  384MOL0     C51739   8.891  -0.064  11.605  0.6546 -0.5479 -0.0752
  384MOL0     C51740   8.821  -0.010  11.708 -1.0563 -0.1784  0.3944
  384MOL0     O51741   8.874  -0.018  11.838 -0.1234  0.2389  0.0979
  384MOL0     C51742   8.787   0.017  11.950  0.4027  0.1589 -0.4491
  384MOL0     C51743   8.843  -0.032  12.087  0.2276  0.4556 -0.5259
  384MOL0     C51744   8.821  -0.179  12.125 -0.8272 -0.4607 -0.2870
  384MOL0     C51745   8.854  -0.279  12.010 -0.3703 -0.8276 -0.3782
  384MOL0     C51746   8.841  -0.429  12.050 -0.4910  0.6103  0.0977
  384MOL0     C51747   8.696  -0.476  12.051  0.1843  0.3713  0.4307
  384MOL0     C51748   8.620  -0.455  11.919  0.1533 -0.2029 -1.3731
  384MOL0     C51749   8.551  -0.585  11.878  1.1839  0.0634  0.6254
  384MOL0    Cl51750   8.406  -0.632  11.983 -0.4454 -0.4056  0.2646
  384MOL0     C51751   8.699   0.058  11.674 -0.5313  0.0180  0.3493
  384MOL0     C51752   8.654   0.066  11.543 -0.5656  0.4595  0.5486
  384MOL0     O51753   8.695  -0.175  11.248 -0.1624 -0.3770 -0.6880
  384MOL0     C51754   8.600   0.132  11.050 -1.0162  0.1989  0.9821
  384MOL0     C51755   8.583   0.189  10.918 -0.1355  0.9952 -0.2055
  384MOL0     N51756   8.406  -0.103  10.349 -0.6452 -0.0227 -0.0278
  384MOL0     N51757   8.393  -0.154  10.236 -0.2773 -0.0949  0.3721
  384MOL0     C51758   7.882   0.311   9.277 -0.6693  0.1848 -0.0025
  384MOL0     C51759   7.763   0.362   9.231  0.1391  0.4593 -0.3468
  384MOL0     C51760   7.352   0.439   9.086 -0.4579  1.1537  0.0640
  384MOL0     C51761   7.366   0.485   8.950 -0.9380 -0.0381 -0.1710
  384MOL0     C51762   7.265   0.552   8.884 -0.8400 -0.7920 -0.3713
  384MOL0     C51763   7.138   0.570   8.948  0.2988 -0.2408  1.0873
  384MOL0     O51764   7.020   0.619   8.886  0.6714  0.4429 -0.1277
  384MOL0     C51765   7.033   0.661   8.750  0.1850  0.0964 -0.5140
  384MOL0     C51766   6.898   0.718   8.698 -0.2640 -0.1407 -0.7354
  384MOL0     C51767   6.815   0.608   8.642 -0.7502 -0.4404 -0.9318
  384MOL0     C51768   6.699   0.666   8.556 -0.0431  0.6778 -0.4182
  384MOL0     C51769   6.567   0.595   8.565 -0.2223 -1.1931 -0.4089
  384MOL0     C51770   6.456   0.554   8.578 -0.2960 -0.4650 -0.9235
  384MOL0     C51771   7.125   0.527   9.080 -0.6351 -0.7502  1.0250
  384MOL0     C51772   7.229   0.467   9.153 -0.0089 -0.1592  0.0763
  384MOL0     H51773   7.634   0.077   9.099 -0.9510 -0.9710  0.1853
  384MOL0     H51774   7.811  -0.016   9.226 -0.0273  0.5760 -0.9789
  384MOL0     H51775   7.958  -0.062   9.362 -0.8089  0.2603 -0.4529
  384MOL0     H51776   8.027  -0.045   9.203 -1.2861 -1.9514  1.0301
  384MOL0     H51777   8.168  -0.181   9.338  2.7012  0.4797 -0.4961
  384MOL0     H51778   8.250  -0.033   9.302  0.0610  0.9218  1.4216
  384MOL0     H51779   8.176   0.056   9.539  0.8815  0.9740 -0.1703
  384MOL0     H51780   8.118  -0.100   9.579 -0.7618 -1.2349 -0.6762
  384MOL0     H51781   8.348  -0.189   9.502 -1.6658 -0.4086  0.5890
  384MOL0     H51782   8.397  -0.017   9.512  0.9907 -0.4196 -1.8474
  384MOL0     H51783   8.272  -0.180   9.744  0.5647 -1.0793  1.9217
  384MOL0     H51784   8.440  -0.160   9.714  0.0943 -1.2760 -3.1734
  384MOL0     H51785   8.418   0.089   9.727 -0.8949 -0.4140  0.5756
  384MOL0     H51786   8.255   0.077   9.775  1.7733  1.6751  0.9829
  384MOL0     H51787   8.507  -0.049   9.904 -0.5610 -1.7251  0.9981
  384MOL0     H51788   8.443   0.102   9.953  1.1293  1.8258 -3.2968
  384MOL0     H51789   8.338  -0.184   9.990 -0.4500  0.0914 -2.4824
  384MOL0     H51790   8.216  -0.050   9.998 -0.5600  2.1547 -0.2462
  384MOL0     H51791   8.303   0.162  10.184  0.5808  0.7773 -1.8648
  384MOL0     H51792   8.235   0.137  10.469 -0.6020 -1.9332  0.3414
  384MOL0     H51793   8.366   0.064  10.559 -1.3749  3.1531  1.2409
  384MOL0     H51794   8.422   0.304  10.543  0.3949  0.5658 -1.2718
  384MOL0     H51795   8.414   0.302  10.362  2.3889 -0.6802 -1.1767
  384MOL0     H51796   8.640   0.297  10.449 -0.6190  1.1884 -3.8295
  384MOL0     H51797   8.591   0.156  10.344  0.2925  0.2866 -0.3318
  384MOL0     H51798   8.746   0.088  10.535 -1.2812 -2.9096 -1.2447
  384MOL0     H51799   8.582   0.018  10.547 -1.2337 -0.0527 -0.0985
  384MOL0     H51800   8.741  -0.064  10.748 -0.5630 -0.3874 -0.0989
  384MOL0     H51801   8.854  -0.210  11.043  0.2024 -2.5871 -0.2616
  384MOL0     H51802   8.693  -0.280  11.007  0.3813 -1.1161 -0.9405
  384MOL0     H51803   8.810  -0.235  10.879  1.0861 -1.5389  1.5135
  384MOL0     H51804   8.910  -0.092  11.384 -1.9332 -1.5659 -0.1783
  384MOL0     H51805   8.983  -0.112  11.635  1.1300 -0.4544 -1.3318
  384MOL0     H51806   8.781   0.126  11.950 -0.4906  0.1221 -1.1812
  384MOL0     H51807   8.683  -0.016  11.950  0.8062 -1.3691  2.1874
  384MOL0     H51808   8.949  -0.004  12.098  0.3314 -0.0367 -0.2532
  384MOL0     H51809   8.781   0.027  12.155 -2.4572 -0.4269 -2.0715
  384MOL0     H51810   8.718  -0.190  12.160  0.4332 -2.4372  3.4140
  384MOL0     H51811   8.874  -0.203  12.218  0.0027  0.5991 -0.4775
  384MOL0     H51812   8.798  -0.237  11.926  0.8866  1.2262 -0.2680
  384MOL0     H51813   8.961  -0.263  11.997 -0.4216 -0.1493 -0.0322
  384MOL0     H51814   8.897  -0.441  12.143 -0.0682  0.1038 -0.2142
  384MOL0     H51815   8.893  -0.480  11.969 -0.9620  1.0286 -0.4791
  384MOL0     H51816   8.699  -0.585  12.062  0.0663  0.1996 -1.1184
  384MOL0     H51817   8.630  -0.439  12.130 -2.7475 -4.2176  0.4733
  384MOL0     H51818   8.692  -0.438  11.838  0.8753  1.8800 -0.3554
  384MOL0     H51819   8.543  -0.377  11.921 -2.0224 -2.1405  3.2449
  384MOL0     H51820   8.618  -0.671  11.875  3.7753  1.8329  3.1754
  384MOL0     H51821   8.518  -0.563  11.776 -1.2833  1.0033  1.5304
  384MOL0     H51822   8.643   0.118  11.745 -1.3554  0.6503 -0.8093
  384MOL0     H51823   8.577   0.138  11.518 -1.2307  0.0187  1.2725
  384MOL0     H51824   8.565   0.191  11.134  0.0703  0.6497  1.1364
  384MOL0     H51825   8.531   0.284  10.910  2.5686  2.5105 -1.0731
  384MOL0     H51826   7.959   0.375   9.320  0.2829 -1.9347  1.6243
  384MOL0     H51827   7.760   0.471   9.236  0.6072  0.4706 -0.2980
  384MOL0     H51828   7.456   0.463   8.894 -1.2812  0.5732 -0.9719
  384MOL0     H51829   7.279   0.573   8.778 -1.1897 -1.3387 -0.5332
  384MOL0     H51830   7.102   0.745   8.752 -1.9549  2.0126 -1.6488
  384MOL0     H51831   7.072   0.579   8.689  0.3068 -1.0691  1.0855
  384MOL0     H51832   6.923   0.783   8.613  1.9014  0.7655  0.5097
  384MOL0     H51833   6.854   0.778   8.778  1.3303  2.4701 -1.6857
  384MOL0     H51834   6.771   0.544   8.719  0.0440 -0.4249 -0.4620
  384MOL0     H51835   6.881   0.548   8.580 -0.2594  0.5350 -1.3839
  384MOL0     H51836   6.728   0.673   8.451  2.5040  0.0075  0.1819
  384MOL0     H51837   6.673   0.771   8.574 -1.6887  0.5801 -1.9517
  384MOL0     H51838   6.350   0.544   8.589 -0.4047  0.1661 -1.3841
  384MOL0     H51839   7.037   0.552   9.137 -1.8708 -1.2492 -0.5951
  384MOL0     H51840   7.207   0.432   9.253 -1.4177 -1.3510 -0.6072
  385MOL0     O51841   4.710   7.557   8.951  0.3534  0.2469  0.3557
  385MOL0     C51842   4.833   7.571   8.938  0.8121 -0.3050 -0.5587
  385MOL0     O51843   4.892   7.642   8.838 -0.2905 -0.8219  0.3543
  385MOL0     C51844   4.825   7.696   8.724  0.5539  1.2154  0.7470
  385MOL0     C51845   4.688   7.692   8.697  0.9634 -0.1327  0.5704
  385MOL0     C51846   4.643   7.744   8.574 -0.0317  0.0448  0.5598
  385MOL0     C51847   4.726   7.809   8.484 -0.1077 -0.5058 -0.4339
  385MOL0     O51848   4.676   7.864   8.369  0.2838  0.5945 -0.5693
  385MOL0     C51849   4.539   7.916   8.387 -0.6184 -0.7195  1.1099
  385MOL0     C51850   4.519   8.005   8.260  0.0405  0.3788  0.7625
  385MOL0     C51851   4.370   8.002   8.227  0.7234  0.7625 -0.2562
  385MOL0     C51852   4.319   8.084   8.111  0.1214 -0.4094  0.1791
  385MOL0     C51853   4.179   8.042   8.070  0.1822  0.3732 -0.6351
  385MOL0     C51854   4.133   8.140   7.968  0.0272  0.2161  0.2453
  385MOL0     C51855   3.989   8.123   7.940  1.2800  0.0147 -0.5297
  385MOL0     C51856   3.926   8.232   7.848 -0.4217  0.2817  0.2438
  385MOL0     N51857   3.791   8.175   7.810 -0.6032  0.2778 -0.1999
  385MOL0     C51858   3.674   8.182   7.890 -0.7070  0.8492 -0.3593
  385MOL0     C51859   3.584   8.117   7.817  0.1193 -0.1186  0.6790
  385MOL0     C51860   3.430   8.130   7.824 -0.2776 -0.5529 -0.6776
  385MOL0     C51861   3.391   8.266   7.759 -0.9472 -0.1681  0.1942
  385MOL0     C51862   3.238   8.278   7.757  0.4859  0.0600  0.0477
  385MOL0     C51863   3.197   8.421   7.716  0.1147  0.0079  0.5321
  385MOL0     O51864   3.053   8.427   7.754 -0.5958 -0.4143 -0.0573
  385MOL0     C51865   2.990   8.554   7.757 -0.0558  0.2726 -0.0285
  385MOL0     C51866   3.061   8.670   7.762 -1.1545 -0.2636  0.9942
  385MOL0     C51867   2.990   8.793   7.745  0.3338  0.7926 -0.3764
  385MOL0     C51868   3.073   8.916   7.737 -0.2247  0.2395  0.0582
  385MOL0     C51869   2.849   8.791   7.717  0.5268 -0.0799  0.0178
  385MOL0     C51870   2.784   8.915   7.670 -0.0882  0.2321 -0.8240
  385MOL0     O51871   2.698   8.911   7.571 -0.0495  1.1121  0.0186
  385MOL0     C51872   2.676   9.032   7.509 -0.7478 -0.0447 -0.4797
  385MOL0     C51873   2.609   9.137   7.571 -0.0895  0.3465  0.5014
  385MOL0     C51874   2.589   9.262   7.496 -0.1981 -0.5537  0.4705
  385MOL0     C51875   2.621   9.275   7.359  0.2623  0.6764 -0.9958
  385MOL0     O51876   2.588   9.371   7.271 -0.0713 -0.3260 -0.0688
  385MOL0     C51877   2.531   9.492   7.322 -0.1017 -0.3226  0.4048
  385MOL0     C51878   2.476   9.578   7.209 -0.6760 -0.4848  0.1533
  385MOL0     C51879   2.396   9.517   7.098  0.8321 -0.6357 -0.1749
  385MOL0     C51880   2.248   9.498   7.149  0.7875  0.7337 -1.1516
  385MOL0     C51881   2.147   9.442   7.048  0.1613  0.2069 -0.1118
  385MOL0     C51882   2.004   9.453   7.092 -0.3484  0.0904  0.4082
  385MOL0     C51883   1.905   9.404   6.978 -0.4944 -0.3999 -1.2489
  385MOL0     C51884   1.762   9.395   7.027 -0.4528  0.0398  0.5847
  385MOL0    Cl51885   1.718   9.244   7.111  0.0394 -0.4654  0.4924
  385MOL0     C51886   2.684   9.169   7.309 -0.0475  0.1836  0.1830
  385MOL0     C51887   2.714   9.046   7.383  0.5272  0.1756  0.0619
  385MOL0     O51888   2.817   9.018   7.731  0.5960  0.1727 -0.0321
  385MOL0     C51889   2.774   8.674   7.730 -0.3770 -0.3758  0.5712
  385MOL0     C51890   2.850   8.554   7.737  0.8919  0.3085 -0.6292
  385MOL0     N51891   3.648   8.079   7.696  0.9095  0.2480  0.5416
  385MOL0     N51892   3.768   8.109   7.698  0.6399 -0.0147  0.3442
  385MOL0     C51893   4.861   7.817   8.522 -0.2817 -0.0919  0.1624
  385MOL0     C51894   4.906   7.755   8.630  0.5506 -0.5265 -0.4973
  385MOL0     C51895   4.915   7.491   9.027 -0.1004  0.2361  0.0391
  385MOL0     C51896   4.869   7.396   9.119  0.4511  0.7592  0.2418
  385MOL0     C51897   4.952   7.323   9.193  0.4156 -0.1165 -0.2555
  385MOL0     C51898   5.092   7.354   9.192 -0.1818 -0.7046 -0.1318
  385MOL0     O51899   5.163   7.272   9.278  0.3081 -0.6283 -0.9345
  385MOL0     C51900   5.309   7.280   9.268  0.1030 -0.3780 -0.3017
  385MOL0     C51901   5.372   7.378   9.366 -0.4851  0.0986 -0.9951
  385MOL0     C51902   5.326   7.341   9.505 -0.3878 -0.0206  0.8584
  385MOL0     C51903   5.349   7.446   9.604  0.2749 -0.2578 -0.7322
  385MOL0     C51904   5.495   7.456   9.635  1.3949 -0.3396  0.8448
  385MOL0     C51905   5.607   7.484   9.655  0.1514  0.5059  0.7308
  385MOL0     C51906   5.142   7.466   9.128 -0.4779  0.6792 -0.8471
  385MOL0     C51907   5.053   7.532   9.047  0.6743  0.6972 -0.0060
  385MOL0     H51908   4.617   7.643   8.764  1.7583 -0.4191  1.2243
  385MOL0     H51909   4.540   7.728   8.544  0.0162 -2.3474  1.5002
  385MOL0     H51910   4.463   7.837   8.390 -1.7858  0.3644  0.9389
  385MOL0     H51911   4.530   7.966   8.483  2.4354  2.0186  0.1455
  385MOL0     H51912   4.559   8.107   8.261 -2.0602  1.2719 -0.1416
  385MOL0     H51913   4.567   7.953   8.176 -0.5637  0.1918  0.5265
  385MOL0     H51914   4.341   7.898   8.206  0.1502  0.2725  2.5270
  385MOL0     H51915   4.304   8.028   8.310 -1.7919 -0.5537 -1.7118
  385MOL0     H51916   4.320   8.188   8.144  0.4356 -0.4491  0.2908
  385MOL0     H51917   4.393   8.080   8.030  0.3962  3.8134 -0.0127
  385MOL0     H51918   4.173   7.939   8.033 -1.0824  1.4467 -3.7739
  385MOL0     H51919   4.098   8.057   8.142  0.1990  2.1707 -0.9322
  385MOL0     H51920   4.148   8.240   8.009 -1.7935  0.4700  0.3602
  385MOL0     H51921   4.190   8.148   7.875  1.7324  2.3589  1.3908
  385MOL0     H51922   3.975   8.030   7.885  0.4971 -1.2856  1.7344
  385MOL0     H51923   3.921   8.114   8.025  0.1501 -0.0556 -1.4214
  385MOL0     H51924   4.001   8.255   7.772  0.0301 -0.0698  0.5766
  385MOL0     H51925   3.911   8.331   7.892 -1.4524 -0.1675  0.9363
  385MOL0     H51926   3.650   8.232   7.983 -1.7539 -1.4234  0.6510
  385MOL0     H51927   3.392   8.045   7.765  0.0700 -0.2517 -1.3510
  385MOL0     H51928   3.414   8.123   7.932  2.4326  1.6836 -0.0287
  385MOL0     H51929   3.423   8.267   7.655 -3.6834  3.2215 -0.7960
  385MOL0     H51930   3.449   8.346   7.807 -0.7242  1.3549 -2.4466
  385MOL0     H51931   3.206   8.269   7.861  2.4323 -0.8679  0.6114
  385MOL0     H51932   3.180   8.198   7.709 -2.7867  1.8328  0.7470
  385MOL0     H51933   3.206   8.446   7.610 -2.8694 -0.1561  0.1475
  385MOL0     H51934   3.258   8.492   7.773  1.2653 -1.7135  1.5760
  385MOL0     H51935   3.169   8.674   7.774 -0.8506 -0.8722 -1.1572
  385MOL0     H51936   3.063   8.966   7.640  1.7752  4.2523  1.6543
  385MOL0     H51937   3.032   8.977   7.818  3.0510  0.6814  1.5359
  385MOL0     H51938   3.179   8.895   7.755 -0.9840 -2.7056  1.6302
  385MOL0     H51939   2.572   9.126   7.673  1.8204  3.3595  1.6839
  385MOL0     H51940   2.537   9.346   7.541  0.1648  0.8738 -1.6181
  385MOL0     H51941   2.441   9.461   7.376 -0.3550  0.3747  0.3887
  385MOL0     H51942   2.582   9.560   7.391  0.4889 -0.1679 -0.1649
  385MOL0     H51943   2.426   9.663   7.256  1.7395  1.0122  0.1906
  385MOL0     H51944   2.567   9.621   7.165  0.1584 -3.7364 -1.5889
  385MOL0     H51945   2.442   9.426   7.059  1.6246 -0.3144 -0.0060
  385MOL0     H51946   2.396   9.592   7.019  0.6768 -0.1308  0.3002
  385MOL0     H51947   2.251   9.439   7.241 -1.0498 -0.6336 -1.8883
  385MOL0     H51948   2.208   9.596   7.177 -0.9430 -0.1329 -0.3756
  385MOL0     H51949   2.166   9.339   7.019 -0.6017  0.1779 -0.5442
  385MOL0     H51950   2.157   9.519   6.970  0.5277  2.7706  2.3050
  385MOL0     H51951   1.987   9.388   7.179 -0.6129 -0.0550  0.2463
  385MOL0     H51952   1.997   9.561   7.107  2.5012  0.7879 -2.2584
  385MOL0     H51953   1.940   9.312   6.929  4.3154  0.0292  0.9124
  385MOL0     H51954   1.903   9.477   6.897 -1.4657 -3.4546 -4.2457
  385MOL0     H51955   1.697   9.420   6.943 -0.2780  1.4171  0.8243
  385MOL0     H51956   1.756   9.468   7.109  0.4755  0.2932  0.4411
  385MOL0     H51957   2.700   9.171   7.201 -2.4470  2.3780 -0.2393
  385MOL0     H51958   2.766   8.965   7.331  1.5404  2.3182 -2.5633
  385MOL0     H51959   2.666   8.671   7.719 -0.5576 -1.4921  2.2943
  385MOL0     H51960   2.799   8.458   7.739  1.3056  0.0876 -0.6889
  385MOL0     H51961   4.925   7.881   8.464 -0.6199  0.2862  0.2006
  385MOL0     H51962   5.014   7.758   8.645  0.5067 -2.8749  0.8002
  385MOL0     H51963   4.764   7.374   9.133  0.7735 -0.2556  1.2085
  385MOL0     H51964   4.916   7.249   9.263  1.7279 -1.1095 -0.5930
  385MOL0     H51965   5.352   7.181   9.285 -0.8906 -0.3040  3.5166
  385MOL0     H51966   5.325   7.306   9.162 -0.1542 -2.1440 -0.8118
  385MOL0     H51967   5.338   7.480   9.348 -5.3625 -0.9361  0.8950
  385MOL0     H51968   5.481   7.382   9.377 -0.5985  1.3613 -0.1261
  385MOL0     H51969   5.348   7.238   9.538  0.8042 -0.9361 -2.4425
  385MOL0     H51970   5.218   7.344   9.490 -0.4303  1.3215  1.2985
  385MOL0     H51971   5.300   7.414   9.696  2.2797 -1.8986 -0.1705
  385MOL0     H51972   5.314   7.545   9.571 -2.7659 -0.5068  1.2912
  385MOL0     H51973   5.703   7.532   9.655 -0.6828  2.2564 -0.3392
  385MOL0     H51974   5.247   7.494   9.122 -0.0518  0.2147  2.5227
  385MOL0     H51975   5.094   7.608   8.981 -0.1461  1.2965  0.1567
  386MOL0     O51976   0.228   2.562   9.565 -0.5708  0.2067  0.4739
  386MOL0     C51977   0.270   2.560   9.453  0.1953  0.0696  0.1208
  386MOL0     O51978   0.198   2.576   9.339 -0.5604 -0.0338  0.6599
  386MOL0     C51979   0.071   2.616   9.361  0.6002  0.1972 -0.7217
  386MOL0     C51980   0.042   2.750   9.362  0.3294 -0.1408  0.7651
  386MOL0     C51981  -0.086   2.798   9.372  0.0383 -0.0479 -0.3805
  386MOL0     C51982  -0.193   2.708   9.384  0.0504 -0.6991  0.1167
  386MOL0     O51983  -0.325   2.732   9.371  0.3113  0.3851  0.3087
  386MOL0     C51984  -0.370   2.873   9.367 -0.0152  0.9036 -1.0086
  386MOL0     C51985  -0.519   2.863   9.357  0.4868 -1.0134 -0.2857
  386MOL0     C51986  -0.565   3.001   9.323  0.4188  0.0179  0.5784
  386MOL0     C51987  -0.712   3.000   9.318  0.2546  0.1878  0.9120
  386MOL0     C51988  -0.772   3.135   9.269  0.8274  0.1994  0.1049
  386MOL0     C51989  -0.770   3.243   9.383 -0.5434  0.1170 -0.4175
  386MOL0     C51990  -0.788   3.390   9.343 -0.1756  0.1761 -0.5360
  386MOL0     C51991  -0.867   3.409   9.217 -0.5990  0.0739  0.1243
  386MOL0     N51992  -0.918   3.547   9.220  0.9517  0.7523 -0.2786
  386MOL0     C51993  -0.844   3.660   9.193 -0.9019  0.4557 -0.3688
  386MOL0     C51994  -0.926   3.767   9.218 -0.0006 -0.4895  0.2283
  386MOL0     C51995  -0.902   3.919   9.194  1.1256 -0.0598  0.6202
  386MOL0     C51996  -0.830   3.982   9.312 -0.3034  1.1864  0.2779
  386MOL0     C51997  -0.815   4.138   9.301 -0.0507  0.9549 -0.3124
  386MOL0     C51998  -0.751   4.188   9.433 -1.5191 -0.4861 -0.1594
  386MOL0     O51999  -0.821   4.161   9.553  0.4722  0.5732 -0.1089
  386MOL0     C52000  -0.935   4.236   9.571 -0.6033  0.2421 -0.2671
  386MOL0     C52001  -1.039   4.165   9.631 -0.1497  0.0768 -0.0065
  386MOL0     C52002  -1.156   4.229   9.669  0.4342 -0.7959 -0.3636
  386MOL0     C52003  -1.277   4.148   9.705  0.0091  0.4562 -0.3464
  386MOL0     C52004  -1.161   4.372   9.668 -0.2004 -0.5941 -0.5378
  386MOL0     C52005  -1.278   4.448   9.723  0.5849  1.1692 -0.4230
  386MOL0     O52006  -1.305   4.568   9.662 -0.0766 -0.0897  0.7599
  386MOL0     C52007  -1.430   4.622   9.674  0.1510  0.1876  0.0100
  386MOL0     C52008  -1.519   4.625   9.564  0.5737 -0.2690  0.3264
  386MOL0     C52009  -1.652   4.680   9.572 -0.9888 -0.7874  0.1010
  386MOL0     C52010  -1.702   4.717   9.694 -0.0981 -0.2073 -0.5859
  386MOL0     O52011  -1.831   4.778   9.720 -0.8196  0.3394  1.0003
  386MOL0     C52012  -1.915   4.809   9.603  0.3786 -0.3313 -0.5190
  386MOL0     C52013  -2.027   4.915   9.652 -0.8546 -0.2511  0.3900
  386MOL0     C52014  -1.963   5.043   9.690 -0.0608 -0.3753  0.3348
  386MOL0     C52015  -2.061   5.149   9.748  0.1334  0.8429 -0.0432
  386MOL0     C52016  -1.981   5.272   9.789  0.5341 -0.5430 -0.6729
  386MOL0     C52017  -2.085   5.385   9.835 -0.1306  0.1092 -0.1520
  386MOL0     C52018  -2.050   5.525   9.788  0.5946  0.3466  0.0789
  386MOL0     C52019  -1.918   5.582   9.862 -0.0238  0.0861  1.1973
  386MOL0    Cl52020  -1.947   5.572  10.028 -0.2709 -0.3866  0.4284
  386MOL0     C52021  -1.615   4.697   9.807  0.9771 -0.5759 -0.1047
  386MOL0     C52022  -1.488   4.657   9.802 -0.2352  0.2087  0.1101
  386MOL0     O52023  -1.351   4.397   9.812  0.3131  0.6430  0.6054
  386MOL0     C52024  -1.046   4.445   9.627  0.0456 -0.2320 -0.6797
  386MOL0     C52025  -0.934   4.376   9.571 -0.2595  0.2522 -0.8280
  386MOL0     N52026  -1.047   3.717   9.260  0.9135 -0.1439 -0.4377
  386MOL0     N52027  -1.044   3.590   9.265  0.4563  0.0477  0.2551
  386MOL0     C52028  -0.167   2.570   9.365 -0.0369  0.2274 -0.0878
  386MOL0     C52029  -0.033   2.523   9.360 -0.3849 -0.2438  0.6163
  386MOL0     C52030   0.416   2.518   9.431  1.2120  0.0055  0.1422
  386MOL0     C52031   0.453   2.476   9.312 -0.4720 -0.0217 -0.0898
  386MOL0     C52032   0.578   2.424   9.296 -0.4077 -0.6534  0.1578
  386MOL0     C52033   0.672   2.407   9.405 -0.5602 -0.2108  0.1408
  386MOL0     O52034   0.801   2.349   9.393  0.1229 -0.2057  0.3827
  386MOL0     C52035   0.841   2.308   9.261  0.0261  1.1111  0.0692
  386MOL0     C52036   0.898   2.427   9.182  0.6799  0.4053  0.3197
  386MOL0     C52037   1.005   2.500   9.266 -0.4639 -0.1459  0.5655
  386MOL0     C52038   1.116   2.410   9.310 -0.4118 -1.0447 -0.7047
  386MOL0     C52039   1.228   2.510   9.357 -0.5217 -0.0622  1.0020
  386MOL0     C52040   1.322   2.579   9.387  0.9348 -0.0090  0.0538
  386MOL0     C52041   0.630   2.465   9.524 -0.0564  0.1788 -0.7061
  386MOL0     C52042   0.503   2.515   9.535 -0.1796 -0.0019 -0.2643
  386MOL0     H52043   0.111   2.832   9.345  1.6569 -0.4996  3.8223
  386MOL0     H52044  -0.111   2.903   9.375 -0.5166  0.0019 -3.5245
  386MOL0     H52045  -0.353   2.925   9.461  2.3360  0.6658 -1.2531
  386MOL0     H52046  -0.325   2.930   9.285  3.5658 -0.8358 -0.4091
  386MOL0     H52047  -0.561   2.784   9.293  0.2857  0.1765 -1.6596
  386MOL0     H52048  -0.544   2.827   9.458  3.0718  2.6694  1.9296
  386MOL0     H52049  -0.531   3.077   9.394 -1.3703  0.1944  1.3134
  386MOL0     H52050  -0.525   3.038   9.228 -0.7462  0.5564  0.2665
  386MOL0     H52051  -0.743   2.913   9.259 -0.3291 -0.3764  2.0150
  386MOL0     H52052  -0.751   2.987   9.419 -1.4275  2.6823  0.6616
  386MOL0     H52053  -0.719   3.176   9.182 -2.6526 -0.7771 -2.7214
  386MOL0     H52054  -0.879   3.125   9.249  0.8035 -1.1895  0.8486
  386MOL0     H52055  -0.831   3.209   9.467  2.1223 -1.5027  1.0110
  386MOL0     H52056  -0.669   3.240   9.426 -1.6530  2.1408  2.6528
  386MOL0     H52057  -0.825   3.450   9.427  2.3230 -1.4604  1.8914
  386MOL0     H52058  -0.684   3.419   9.326  0.7668 -2.4213  0.3765
  386MOL0     H52059  -0.950   3.338   9.223 -2.8105  2.5481  0.8351
  386MOL0     H52060  -0.817   3.391   9.121 -0.1637 -4.0901  0.9476
  386MOL0     H52061  -0.745   3.666   9.149  0.6055  0.4321  2.7500
  386MOL0     H52062  -0.854   3.942   9.098  0.1705 -0.3205  0.0667
  386MOL0     H52063  -1.000   3.967   9.183  0.0459 -0.6256  5.4563
  386MOL0     H52064  -0.733   3.932   9.322 -0.4164  0.9097  0.0089
  386MOL0     H52065  -0.884   3.963   9.405  1.4442  0.6129  1.2177
  386MOL0     H52066  -0.914   4.183   9.312  0.3200  1.2917  2.1521
  386MOL0     H52067  -0.765   4.168   9.209  1.4961  1.0848  0.5401
  386MOL0     H52068  -0.722   4.293   9.418  1.1200 -1.2564 -0.9040
  386MOL0     H52069  -0.657   4.135   9.448 -0.5320  1.3425  0.4514
  386MOL0     H52070  -1.043   4.059   9.653 -1.9203 -0.1897 -1.3162
  386MOL0     H52071  -1.371   4.181   9.659 -0.0995 -0.2002 -0.6138
  386MOL0     H52072  -1.266   4.046   9.669 -0.6630  0.0406  0.5847
  386MOL0     H52073  -1.285   4.138   9.813 -0.6270 -0.4109 -0.4619
  386MOL0     H52074  -1.488   4.583   9.468 -2.8799 -0.0247 -1.0437
  386MOL0     H52075  -1.700   4.692   9.475 -0.2689 -2.6608 -0.5396
  386MOL0     H52076  -1.850   4.866   9.536  2.3044 -2.5472 -0.6441
  386MOL0     H52077  -1.961   4.720   9.560 -0.0394 -1.3841  1.9119
  386MOL0     H52078  -2.102   4.930   9.573 -1.5682 -0.9320  0.9165
  386MOL0     H52079  -2.081   4.863   9.732  0.3868 -3.0749 -0.4978
  386MOL0     H52080  -1.914   5.077   9.598 -1.4495 -0.5385 -0.4962
  386MOL0     H52081  -1.894   5.024   9.773 -0.4356  2.7766  1.5295
  386MOL0     H52082  -2.144   5.160   9.678 -2.6883  1.9306  3.2063
  386MOL0     H52083  -2.105   5.102   9.837 -1.6754 -1.1842 -1.8886
  386MOL0     H52084  -1.925   5.300   9.699 -0.4376 -0.6753 -1.3456
  386MOL0     H52085  -1.902   5.244   9.858 -0.2176 -1.9077 -0.3280
  386MOL0     H52086  -2.180   5.340   9.806 -0.4058 -0.2414  1.2046
  386MOL0     H52087  -2.077   5.383   9.944  2.5161  2.4428 -0.1942
  386MOL0     H52088  -2.132   5.595   9.804  0.7692  0.9153 -1.3502
  386MOL0     H52089  -2.033   5.526   9.680  0.9052  0.8804  0.1281
  386MOL0     H52090  -1.896   5.682   9.825  5.3814 -1.6633 -1.3035
  386MOL0     H52091  -1.839   5.512   9.835 -3.2534 -2.7188 -1.9980
  386MOL0     H52092  -1.646   4.724   9.908  0.5962 -0.7129 -0.1819
  386MOL0     H52093  -1.441   4.644   9.899 -1.8887 -0.5146  0.8657
  386MOL0     H52094  -1.050   4.554   9.628  1.6327 -0.1543  0.6763
  386MOL0     H52095  -0.845   4.427   9.534  0.0478  0.2996 -0.0390
  386MOL0     H52096  -0.239   2.489   9.359  1.7194 -1.5070  1.0331
  386MOL0     H52097  -0.022   2.415   9.362  0.4598 -0.2019 -0.6921
  386MOL0     H52098   0.389   2.462   9.226  1.5521  0.1964 -1.7368
  386MOL0     H52099   0.604   2.377   9.202  1.4420 -0.6224  0.6164
  386MOL0     H52100   0.920   2.233   9.274  0.7158  1.0818 -3.1980
  386MOL0     H52101   0.763   2.263   9.200  0.0431  0.2816  0.6528
  386MOL0     H52102   0.826   2.509   9.172 -1.3855 -1.1865  1.2391
  386MOL0     H52103   0.929   2.398   9.082 -0.8443 -2.4801  0.5602
  386MOL0     H52104   0.962   2.548   9.354 -0.3124 -0.7777  0.9889
  386MOL0     H52105   1.037   2.590   9.212 -1.0330  1.0097  2.0671
  386MOL0     H52106   1.162   2.342   9.238 -0.0977 -2.0368  0.4188
  386MOL0     H52107   1.082   2.350   9.395  0.9693 -0.2223  0.4831
  386MOL0     H52108   1.398   2.650   9.412  1.5556 -0.8356  0.5831
  386MOL0     H52109   0.692   2.457   9.613 -0.0242 -1.1670 -0.8290
  386MOL0     H52110   0.474   2.528   9.638 -0.6121 -1.1010 -0.2332
  387MOL0     O52111   1.613   1.607   8.946 -0.5564 -0.6351  0.0009
  387MOL0     C52112   1.582   1.601   9.063 -0.0449 -0.2653  0.7143
  387MOL0     O52113   1.453   1.576   9.122  0.0715  0.0410 -0.0556
  387MOL0     C52114   1.340   1.604   9.047  0.1234  0.1843  0.3631
  387MOL0     C52115   1.329   1.702   8.944  0.7010  0.3583 -0.8446
  387MOL0     C52116   1.213   1.717   8.870 -0.0758 -0.9568 -0.4154
  387MOL0     C52117   1.095   1.654   8.911  0.4560 -0.8666 -0.2794
  387MOL0     O52118   0.973   1.690   8.857  0.7006 -0.6604  0.0709
  387MOL0     C52119   0.852   1.684   8.942 -0.2309  0.2709 -0.2844
  387MOL0     C52120   0.724   1.710   8.867 -0.3317 -0.7480 -0.5097
  387MOL0     C52121   0.604   1.716   8.955  0.1902 -1.1704 -0.0468
  387MOL0     C52122   0.475   1.693   8.883  0.1177  1.0271  0.6248
  387MOL0     C52123   0.367   1.674   8.989  0.3695  0.0274 -0.1104
  387MOL0     C52124   0.226   1.673   8.926  0.5300 -0.3742 -0.0959
  387MOL0     C52125   0.124   1.656   9.037  0.3141 -0.5324  1.3389
  387MOL0     C52126   0.100   1.789   9.106  0.4475 -0.3530 -0.5645
  387MOL0     N52127   0.025   1.764   9.227 -0.0450  0.0357 -0.0033
  387MOL0     C52128  -0.103   1.810   9.251 -0.7530 -0.0537  0.6896
  387MOL0     C52129  -0.125   1.801   9.387 -1.0360  0.9074 -0.3407
  387MOL0     C52130  -0.253   1.843   9.458 -0.8322 -0.7676  0.2518
  387MOL0     C52131  -0.233   1.924   9.587 -0.4943  0.5098  0.0705
  387MOL0     C52132  -0.362   1.960   9.668 -0.4717  0.5661  0.2465
  387MOL0     C52133  -0.375   2.105   9.682  0.5641  0.1205 -1.3637
  387MOL0     O52134  -0.393   2.175   9.554  0.2052 -0.0298 -0.2762
  387MOL0     C52135  -0.488   2.272   9.548 -0.0222  0.1993  0.2671
  387MOL0     C52136  -0.624   2.233   9.544 -0.0779 -0.3205  0.1051
  387MOL0     C52137  -0.736   2.320   9.538  0.0313  0.5986  0.0092
  387MOL0     C52138  -0.877   2.258   9.538  0.5864  0.1012  0.3258
  387MOL0     C52139  -0.714   2.462   9.549 -0.8460  0.7258 -0.5079
  387MOL0     C52140  -0.824   2.560   9.546  0.5833  0.2013  0.0145
  387MOL0     O52141  -0.952   2.514   9.524 -0.4475 -0.1218 -0.1121
  387MOL0     C52142  -1.065   2.585   9.565  0.1559 -0.5400 -0.7437
  387MOL0     C52143  -1.170   2.588   9.482 -0.5405 -0.0140 -0.3893
  387MOL0     C52144  -1.287   2.661   9.505 -0.2423  0.2140  0.2597
  387MOL0     C52145  -1.309   2.714   9.633  0.6384 -0.0425 -0.1148
  387MOL0     O52146  -1.425   2.781   9.678  0.5479  0.0358  0.0729
  387MOL0     C52147  -1.530   2.808   9.583  0.4581  0.8698  0.7198
  387MOL0     C52148  -1.621   2.900   9.654 -0.5782 -0.2328 -0.2265
  387MOL0     C52149  -1.736   2.944   9.569 -0.2316  0.3427  0.2437
  387MOL0     C52150  -1.832   2.830   9.551  0.0158  0.1810 -0.3275
  387MOL0     C52151  -1.969   2.871   9.496  0.1894  0.2584  1.0893
  387MOL0     C52152  -2.042   2.747   9.436  0.4588 -0.4100  0.3316
  387MOL0     C52153  -2.178   2.788   9.376  0.1962  0.1612  1.3980
  387MOL0     C52154  -2.171   2.867   9.243  0.0585 -0.2746  0.0290
  387MOL0    Cl52155  -2.131   2.742   9.111 -0.5198  0.4831 -0.1416
  387MOL0     C52156  -1.207   2.706   9.729 -0.5087 -0.1416 -0.5070
  387MOL0     C52157  -1.082   2.641   9.697 -0.4239 -0.4138 -0.0499
  387MOL0     O52158  -0.801   2.678   9.568 -0.5360 -0.2227 -0.8972
  387MOL0     C52159  -0.569   2.504   9.542  0.4246  1.1668  0.5649
  387MOL0     C52160  -0.459   2.410   9.548  1.0828 -0.5023 -0.7664
  387MOL0     N52161  -0.007   1.752   9.446  0.3934  0.3857  0.0712
  387MOL0     N52162   0.072   1.724   9.350 -0.6020  0.5315  0.1068
  387MOL0     C52163   1.104   1.565   9.018  0.3304 -0.3467 -0.3730
  387MOL0     C52164   1.225   1.529   9.086 -0.3923 -0.2506 -0.2288
  387MOL0     C52165   1.695   1.597   9.159 -0.0775  0.2288 -0.2803
  387MOL0     C52166   1.828   1.614   9.117  0.6068  0.2164  0.5728
  387MOL0     C52167   1.930   1.615   9.208 -0.1654 -0.2096 -0.1806
  387MOL0     C52168   1.904   1.613   9.348 -0.7687  0.4958  0.6795
  387MOL0     O52169   2.002   1.620   9.441 -0.6092 -0.7648  0.6461
  387MOL0     C52170   2.130   1.670   9.393  0.0587  0.2825 -0.2196
  387MOL0     C52171   2.227   1.683   9.513 -1.7223  0.4858  0.5822
  387MOL0     C52172   2.331   1.569   9.502 -0.3360 -0.0276  1.1462
  387MOL0     C52173   2.439   1.581   9.607  0.1004  0.9087  0.5564
  387MOL0     C52174   2.537   1.663   9.551 -0.1672 -0.1607  1.0171
  387MOL0     C52175   2.623   1.736   9.499  0.4074 -0.3948 -0.1176
  387MOL0     C52176   1.769   1.596   9.394  0.2489  0.0627  1.0459
  387MOL0     C52177   1.669   1.571   9.304  0.8144  0.0194  0.2119
  387MOL0     H52178   1.416   1.765   8.927  1.0286 -0.1175 -0.9304
  387MOL0     H52179   1.225   1.785   8.786  1.4158 -0.3580  0.2381
  387MOL0     H52180   0.849   1.581   8.980 -0.5529  0.2355 -0.3978
  387MOL0     H52181   0.861   1.757   9.022  2.7792  1.4470 -1.5806
  387MOL0     H52182   0.719   1.812   8.827 -1.7252 -0.0242  1.3994
  387MOL0     H52183   0.720   1.630   8.793 -1.1295  0.5676 -1.9694
  387MOL0     H52184   0.614   1.637   9.030  1.1555 -0.6796  0.3620
  387MOL0     H52185   0.608   1.813   9.006 -0.7732 -2.2157  2.1675
  387MOL0     H52186   0.462   1.773   8.810  1.3511  1.2834  0.6758
  387MOL0     H52187   0.487   1.597   8.831  1.0810  0.7124  1.4124
  387MOL0     H52188   0.378   1.576   9.036  1.1803  0.9980  1.8126
  387MOL0     H52189   0.370   1.761   9.054  2.0330 -0.5460  0.6435
  387MOL0     H52190   0.213   1.763   8.865 -1.1213 -1.4232 -1.4063
  387MOL0     H52191   0.213   1.591   8.853  1.2234  2.2417 -3.4165
  387MOL0     H52192   0.032   1.629   8.984 -0.2582  1.6849  1.1206
  387MOL0     H52193   0.157   1.576   9.104 -0.4874 -1.8384  0.2194
  387MOL0     H52194   0.036   1.848   9.039 -0.4580  0.2841  0.8188
  387MOL0     H52195   0.191   1.847   9.123 -0.6359  2.0089 -2.1403
  387MOL0     H52196  -0.171   1.846   9.174  0.4153  2.9190  0.9115
  387MOL0     H52197  -0.305   1.906   9.385  1.0575  0.3557 -0.2105
  387MOL0     H52198  -0.304   1.754   9.497 -0.3594 -1.2540 -0.2213
  387MOL0     H52199  -0.180   2.012   9.550 -0.3157  1.5414  2.6416
  387MOL0     H52200  -0.171   1.876   9.663 -2.2594  1.7605  2.4170
  387MOL0     H52201  -0.364   1.909   9.765  1.9650  2.8296  1.6244
  387MOL0     H52202  -0.451   1.923   9.617 -1.4378  2.4202  0.5194
  387MOL0     H52203  -0.295   2.154   9.739 -2.0522  1.5443  1.3744
  387MOL0     H52204  -0.461   2.107   9.749  2.3819  0.8916  1.0984
  387MOL0     H52205  -0.652   2.129   9.548 -1.0342 -0.0651  0.3763
  387MOL0     H52206  -0.921   2.270   9.438  1.5191  4.4431  0.2193
  387MOL0     H52207  -0.874   2.150   9.554  1.5991  0.4373  2.8849
  387MOL0     H52208  -0.941   2.296   9.618 -2.6916 -2.2180 -0.9514
  387MOL0     H52209  -1.145   2.554   9.382  0.1799 -3.0420  0.7046
  387MOL0     H52210  -1.361   2.682   9.428  0.2628  3.7605  0.5532
  387MOL0     H52211  -1.494   2.851   9.489 -1.2335 -0.8731 -0.8073
  387MOL0     H52212  -1.582   2.719   9.546  0.0419  1.7233 -0.8422
  387MOL0     H52213  -1.655   2.843   9.741 -1.4524 -3.9389 -2.7681
  387MOL0     H52214  -1.566   2.989   9.686  5.6635 -3.0678 -1.5607
  387MOL0     H52215  -1.693   2.971   9.472 -0.3468 -2.0365 -0.5380
  387MOL0     H52216  -1.781   3.022   9.632  0.8098 -0.3116  1.8597
  387MOL0     H52217  -1.784   2.756   9.487  0.6348 -0.7129  1.1258
  387MOL0     H52218  -1.845   2.792   9.653 -0.7055  2.4876  0.5003
  387MOL0     H52219  -1.953   2.955   9.427 -2.1987 -1.1464 -1.3566
  387MOL0     H52220  -2.041   2.914   9.565 -4.1406 -0.4229 -2.5409
  387MOL0     H52221  -1.991   2.716   9.344 -2.0855  1.0933 -1.7579
  387MOL0     H52222  -2.053   2.661   9.502  1.8916 -1.8190 -1.1804
  387MOL0     H52223  -2.227   2.851   9.450  1.6049  2.1759  0.7312
  387MOL0     H52224  -2.235   2.696   9.359 -0.2673  0.9547 -2.4402
  387MOL0     H52225  -2.095   2.944   9.255  0.2683 -0.4985  0.1441
  387MOL0     H52226  -2.268   2.912   9.218  0.6034  0.4898 -0.7596
  387MOL0     H52227  -1.223   2.769   9.816  5.2176  0.8860  0.2180
  387MOL0     H52228  -1.000   2.651   9.767 -0.9870  1.8067  0.3796
  387MOL0     H52229  -0.553   2.610   9.529  3.0887  0.7993  0.3388
  387MOL0     H52230  -0.359   2.449   9.564  0.8633 -0.6166  1.0817
  387MOL0     H52231   1.021   1.511   9.062  0.5039  0.0818  0.5252
  387MOL0     H52232   1.233   1.467   9.174 -0.0320  1.2437  0.8291
  387MOL0     H52233   1.843   1.637   9.012  0.3065 -1.8621  0.0264
  387MOL0     H52234   2.032   1.630   9.172  0.3077  3.3367  2.1312
  387MOL0     H52235   2.165   1.592   9.325  0.8625 -0.7284  1.2935
  387MOL0     H52236   2.124   1.770   9.350  1.0460 -0.0175 -1.1034
  387MOL0     H52237   2.179   1.679   9.611 -1.1841  2.0245  0.9445
  387MOL0     H52238   2.284   1.777   9.508 -2.3230  0.9114  1.4366
  387MOL0     H52239   2.377   1.564   9.403 -1.6628 -1.4963  0.5670
  387MOL0     H52240   2.267   1.480   9.507 -2.4075  1.0096 -2.5348
  387MOL0     H52241   2.490   1.485   9.621 -0.5376  0.9671  4.5424
  387MOL0     H52242   2.396   1.609   9.704 -3.2496 -1.3804 -0.1071
  387MOL0     H52243   2.707   1.790   9.461  1.0182  0.1100  1.8259
  387MOL0     H52244   1.767   1.584   9.502  4.9298 -1.0405  1.2523
  387MOL0     H52245   1.570   1.555   9.347  0.3708  1.4851 -0.1842
  388MOL0     O52246   5.314   4.238   8.241 -0.7180 -0.0036 -0.3707
  388MOL0     C52247   5.299   4.231   8.115 -0.9461 -0.1084  0.0378
  388MOL0     O52248   5.241   4.133   8.042 -0.1365  0.4842 -0.0867
  388MOL0     C52249   5.140   4.045   8.086 -0.3720  0.5542 -0.4148
  388MOL0     C52250   5.059   4.067   8.188  0.4923  0.0222  0.4081
  388MOL0     C52251   4.948   3.984   8.217 -0.2815  0.1879  0.9693
  388MOL0     C52252   4.939   3.854   8.161 -1.9450 -0.1322 -0.0938
  388MOL0     O52253   4.837   3.767   8.192  0.5018  0.1873 -0.7350
  388MOL0     C52254   4.835   3.716   8.324  1.0048 -0.3448  0.3078
  388MOL0     C52255   4.956   3.619   8.333 -0.4174  0.0232 -0.1891
  388MOL0     C52256   4.975   3.513   8.221 -0.8205  0.2232  0.2200
  388MOL0     C52257   5.125   3.479   8.215 -0.0320 -0.6051 -0.5182
  388MOL0     C52258   5.136   3.333   8.160  0.1209  0.3644 -0.3502
  388MOL0     C52259   5.279   3.316   8.111  0.2111  0.2612 -0.6606
  388MOL0     C52260   5.302   3.169   8.074 -0.6802  0.3752 -0.0596
  388MOL0     C52261   5.297   3.144   7.919  0.0899 -0.2611 -0.2641
  388MOL0     N52262   5.329   3.002   7.914  0.3503 -0.1905 -0.1555
  388MOL0     C52263   5.457   2.957   7.906  0.4677 -0.8234 -0.6113
  388MOL0     C52264   5.447   2.834   7.865  0.3407  0.1241  0.4403
  388MOL0     C52265   5.574   2.754   7.848  0.2328  0.3308 -0.6518
  388MOL0     C52266   5.557   2.639   7.955  0.7682  0.1125  0.0499
  388MOL0     C52267   5.678   2.556   7.980 -0.2335 -0.1518 -0.3443
  388MOL0     C52268   5.728   2.488   7.855 -0.1940  0.4423  0.9677
  388MOL0     O52269   5.625   2.418   7.786 -0.0487  0.0629  0.7990
  388MOL0     C52270   5.567   2.314   7.850  0.5500 -0.6045 -0.3850
  388MOL0     C52271   5.648   2.210   7.903 -0.5198  1.2127 -0.2135
  388MOL0     C52272   5.588   2.101   7.977 -0.3649 -0.1249 -0.2207
  388MOL0     C52273   5.690   2.008   8.041 -0.5213  0.0417  0.7239
  388MOL0     C52274   5.444   2.104   7.999  0.1122 -0.2915 -0.8495
  388MOL0     C52275   5.368   2.006   8.079 -0.1609 -0.1266 -0.2760
  388MOL0     O52276   5.275   2.059   8.161  1.4271 -0.6593  0.5092
  388MOL0     C52277   5.185   1.979   8.231 -0.5710  0.2313 -0.2917
  388MOL0     C52278   5.052   2.001   8.218 -0.7767 -0.7801  0.5000
  388MOL0     C52279   4.955   1.929   8.274 -0.1633  0.1945  0.0023
  388MOL0     C52280   4.989   1.831   8.364  0.2541 -0.2444 -0.1710
  388MOL0     O52281   4.902   1.765   8.447  0.0415  0.9534  0.2510
  388MOL0     C52282   4.780   1.721   8.386  1.0528  0.4326 -0.8156
  388MOL0     C52283   4.671   1.661   8.474  0.2942  0.3861  0.0596
  388MOL0     C52284   4.568   1.609   8.376 -0.0274 -0.8314  0.1855
  388MOL0     C52285   4.425   1.604   8.438  0.1207  0.1752  0.2813
  388MOL0     C52286   4.344   1.500   8.357 -0.2811 -0.2342  0.1684
  388MOL0     C52287   4.198   1.503   8.384  0.0340  0.7395 -0.0860
  388MOL0     C52288   4.143   1.363   8.365  0.4005 -1.1177  0.6725
  388MOL0     C52289   3.985   1.357   8.358 -1.1560 -0.4990 -0.2953
  388MOL0    Cl52290   3.884   1.440   8.234 -0.3686  0.3678  0.1292
  388MOL0     C52291   5.129   1.812   8.393  1.0453  0.4867  0.6239
  388MOL0     C52292   5.234   1.883   8.328  0.2376  0.1968  1.0593
  388MOL0     O52293   5.377   1.890   8.048 -0.1189  0.2736 -0.1770
  388MOL0     C52294   5.368   2.202   7.930 -0.3478 -0.4734 -0.1869
  388MOL0     C52295   5.433   2.310   7.867  1.6800  0.3744 -0.5047
  388MOL0     N52296   5.311   2.795   7.866  0.5861 -0.2822 -0.2641
  388MOL0     N52297   5.241   2.903   7.889  0.2127 -0.2805  0.9575
  388MOL0     C52298   5.028   3.826   8.054 -0.0238  0.8147 -0.1540
  388MOL0     C52299   5.123   3.924   8.011 -0.7874  0.1594 -0.6276
  388MOL0     C52300   5.376   4.324   8.034 -0.2448  0.3680  0.6640
  388MOL0     C52301   5.404   4.321   7.898  0.9824  0.3371  1.1402
  388MOL0     C52302   5.484   4.416   7.835 -0.4302 -0.3979 -0.1474
  388MOL0     C52303   5.540   4.521   7.906 -0.0553  0.7282  0.5516
  388MOL0     O52304   5.617   4.612   7.827  0.0003  0.3776  0.1642
  388MOL0     C52305   5.719   4.696   7.877 -0.7637  0.3831  0.4967
  388MOL0     C52306   5.840   4.663   7.793 -0.3576 -0.1426  0.7323
  388MOL0     C52307   5.911   4.789   7.737 -0.2519  0.5723 -0.5700
  388MOL0     C52308   6.041   4.756   7.649 -0.4272 -0.3676  0.3787
  388MOL0     C52309   6.020   4.721   7.507 -0.0900 -0.2492 -0.3013
  388MOL0     C52310   6.011   4.699   7.385 -0.5351 -0.0308 -0.5792
  388MOL0     C52311   5.516   4.526   8.043 -0.5177  0.0567 -0.8664
  388MOL0     C52312   5.435   4.430   8.106 -0.3088 -0.1285  0.5828
  388MOL0     H52313   5.073   4.159   8.243  1.8936  0.5642 -0.8086
  388MOL0     H52314   4.894   4.016   8.305  2.6500  2.0214  2.2622
  388MOL0     H52315   4.856   3.798   8.393  2.1869 -2.2442  2.3346
  388MOL0     H52316   4.750   3.654   8.352  1.0049 -1.3771 -1.8389
  388MOL0     H52317   5.048   3.678   8.331  0.8219 -1.4967 -5.5226
  388MOL0     H52318   4.952   3.565   8.428  3.1283 -1.6074 -0.8296
  388MOL0     H52319   4.917   3.424   8.247  0.7372 -1.7036 -2.4495
  388MOL0     H52320   4.945   3.558   8.126  0.2715  1.5314  0.4669
  388MOL0     H52321   5.178   3.552   8.153  0.5556 -0.0038  0.6556
  388MOL0     H52322   5.178   3.480   8.311  1.2136  0.1870 -1.1735
  388MOL0     H52323   5.119   3.257   8.237 -1.6428 -0.6762 -1.6657
  388MOL0     H52324   5.075   3.315   8.071  1.2991 -1.1601 -0.9008
  388MOL0     H52325   5.287   3.390   8.030 -3.4314 -1.2310 -2.5885
  388MOL0     H52326   5.340   3.349   8.196  0.7610  1.6453 -1.5505
  388MOL0     H52327   5.404   3.145   8.107 -0.5277 -1.8877 -1.9473
  388MOL0     H52328   5.234   3.109   8.134  2.7977 -1.3049  2.5855
  388MOL0     H52329   5.367   3.211   7.868  1.5781 -2.6130 -1.4696
  388MOL0     H52330   5.193   3.159   7.890 -0.9621 -3.8193  1.1014
  388MOL0     H52331   5.536   3.027   7.928  0.4242 -0.9041 -0.1858
  388MOL0     H52332   5.595   2.712   7.749  3.1903 -1.7282  0.7264
  388MOL0     H52333   5.658   2.821   7.868 -2.2201  3.3184  0.4107
  388MOL0     H52334   5.475   2.575   7.921  0.5182  1.4086 -1.8971
  388MOL0     H52335   5.530   2.682   8.052  2.0079  1.6731 -0.2551
  388MOL0     H52336   5.662   2.484   8.060 -3.8577  1.3808  0.5074
  388MOL0     H52337   5.760   2.622   8.012 -1.4649  0.3286  1.9696
  388MOL0     H52338   5.814   2.423   7.873  0.8057  1.3082 -0.4417
  388MOL0     H52339   5.770   2.560   7.785 -1.1727 -1.0670 -1.3186
  388MOL0     H52340   5.755   2.222   7.891  0.3770  1.2518  5.1291
  388MOL0     H52341   5.641   1.910   8.040 -0.5456  0.0519  0.8584
  388MOL0     H52342   5.780   1.993   7.980  1.3746  2.7851  2.5796
  388MOL0     H52343   5.712   2.048   8.141 -1.0516 -2.3919  1.8996
  388MOL0     H52344   5.016   2.076   8.148  2.2611  0.4308  0.0758
  388MOL0     H52345   4.853   1.932   8.237 -0.8022 -2.1833  1.3314
  388MOL0     H52346   4.736   1.799   8.322  0.2905 -0.4110 -1.3368
  388MOL0     H52347   4.817   1.642   8.320  2.6109 -1.3297  1.9881
  388MOL0     H52348   4.701   1.570   8.527 -3.7807 -1.6206 -0.6489
  388MOL0     H52349   4.624   1.734   8.541 -1.6400 -0.4681 -0.2962
  388MOL0     H52350   4.604   1.514   8.338  3.7424 -0.1211  1.5362
  388MOL0     H52351   4.556   1.686   8.299 -1.1585  0.7500  1.8514
  388MOL0     H52352   4.430   1.573   8.542 -1.3547 -0.3436  0.2233
  388MOL0     H52353   4.373   1.700   8.432 -2.6445 -1.2449 -0.2755
  388MOL0     H52354   4.376   1.396   8.374 -3.2004 -1.3398 -0.5520
  388MOL0     H52355   4.376   1.524   8.255  1.2260  1.7725  1.0359
  388MOL0     H52356   4.172   1.532   8.486 -1.9810 -1.0134 -0.0304
  388MOL0     H52357   4.151   1.578   8.320  1.3356 -0.4907 -2.6049
  388MOL0     H52358   4.167   1.291   8.444 -1.0597 -2.5695 -0.1622
  388MOL0     H52359   4.187   1.316   8.277 -0.3386  0.2837 -0.4976
  388MOL0     H52360   3.935   1.390   8.450  0.5247 -0.8689  0.8034
  388MOL0     H52361   3.966   1.250   8.348  0.4422 -0.7893 -0.4562
  388MOL0     H52362   5.160   1.738   8.467  0.6821  0.9003  1.1947
  388MOL0     H52363   5.337   1.850   8.342 -0.3209 -1.8715  0.6158
  388MOL0     H52364   5.260   2.191   7.931 -0.2781 -1.8125 -2.1265
  388MOL0     H52365   5.363   2.372   7.812 -3.8518 -4.0445  0.6507
  388MOL0     H52366   5.010   3.733   8.000  2.6623  0.7349 -1.0644
  388MOL0     H52367   5.193   3.909   7.930  2.5139  1.4235  1.8011
  388MOL0     H52368   5.353   4.246   7.839 -3.3560  0.6593  3.9876
  388MOL0     H52369   5.496   4.411   7.727  0.9377 -3.8927  0.0369
  388MOL0     H52370   5.671   4.794   7.869 -4.6523 -1.2899  0.8175
  388MOL0     H52371   5.746   4.691   7.983  1.3775 -1.5039 -0.0651
  388MOL0     H52372   5.818   4.588   7.717  1.1433 -2.1652  2.1818
  388MOL0     H52373   5.911   4.614   7.861 -0.2016 -2.3966 -0.9495
  388MOL0     H52374   5.945   4.841   7.827 -1.7952  0.6360  0.0080
  388MOL0     H52375   5.856   4.862   7.677  2.6366  2.2282 -1.4400
  388MOL0     H52376   6.098   4.675   7.695  0.1187 -0.0132  0.3256
  388MOL0     H52377   6.101   4.847   7.651 -0.8008 -0.1349  1.1291
  388MOL0     H52378   6.009   4.683   7.279 -0.6327  0.5943 -0.6721
  388MOL0     H52379   5.554   4.606   8.106 -0.4004  0.1550 -1.0597
  388MOL0     H52380   5.412   4.455   8.209 -1.6066  2.8430 -0.3208
  389MOL0     O52381  11.005   6.118   3.808  0.5449  0.4683 -0.6827
  389MOL0     C52382  10.992   6.158   3.694 -0.6454  0.2087  0.6094
  389MOL0     O52383  10.877   6.218   3.642  0.0266  0.1285 -0.2573
  389MOL0     C52384  10.772   6.227   3.724  0.8634 -0.5504 -0.2519
  389MOL0     C52385  10.707   6.356   3.712 -0.5265  0.7408 -0.0013
  389MOL0     C52386  10.589   6.378   3.782  0.2349  0.3008  0.5755
  389MOL0     C52387  10.545   6.273   3.867  0.3272 -1.0425  0.0591
  389MOL0     O52388  10.433   6.311   3.934  0.7971  0.0687  0.0719
  389MOL0     C52389  10.324   6.216   3.949  0.4597  0.1320  0.2123
  389MOL0     C52390  10.310   6.181   4.091  1.1065  0.3966  0.2682
  389MOL0     C52391  10.287   6.028   4.110 -0.0645 -0.6319  0.3142
  389MOL0     C52392  10.239   5.982   4.248  0.3146 -0.8212  0.5434
  389MOL0     C52393  10.252   5.834   4.279 -0.4854 -0.7493  0.7511
  389MOL0     C52394  10.163   5.758   4.177 -0.7275  0.0077  1.3904
  389MOL0     C52395  10.160   5.611   4.204  0.1436  0.7896 -0.3671
  389MOL0     C52396  10.041   5.544   4.130  1.4501 -0.5207 -0.4236
  389MOL0     N52397  10.029   5.402   4.160 -0.2940  0.2552 -0.0202
  389MOL0     C52398  10.033   5.291   4.075 -0.8871 -0.5410 -0.1581
  389MOL0     C52399  10.031   5.185   4.155  0.9071 -0.0255  0.1054
  389MOL0     C52400  10.006   5.052   4.090  0.1020 -0.3248  0.8688
  389MOL0     C52401  10.130   4.960   4.076  0.2646  0.2406  0.5322
  389MOL0     C52402  10.205   4.936   4.209 -0.2057 -0.2072  0.1228
  389MOL0     C52403  10.330   4.859   4.187  0.5409 -0.0996  0.5869
  389MOL0     O52404  10.401   4.833   4.312 -0.6414  0.5516  0.4936
  389MOL0     C52405  10.500   4.910   4.363  0.7675 -1.0490 -0.9862
  389MOL0     C52406  10.544   4.876   4.490 -0.3664  0.1367  0.6440
  389MOL0     C52407  10.648   4.942   4.559 -0.0301  0.2166  0.6842
  389MOL0     C52408  10.688   4.894   4.688  0.7249 -0.8116  0.6419
  389MOL0     C52409  10.713   5.055   4.493 -0.1333  0.0920 -0.6743
  389MOL0     C52410  10.826   5.128   4.551  0.4237  0.0129  0.3942
  389MOL0     O52411  10.913   5.173   4.459 -0.2611 -0.3712 -0.2220
  389MOL0     C52412  11.021   5.245   4.501 -0.5782  0.8487  0.0153
  389MOL0     C52413  11.036   5.375   4.459 -0.9474  0.1082  1.1300
  389MOL0     C52414  11.139   5.455   4.506  0.1151 -0.3814  0.4280
  389MOL0     C52415  11.243   5.406   4.581 -1.1658  0.0112  0.1388
  389MOL0     O52416  11.358   5.488   4.592 -0.1277  0.4592  0.6159
  389MOL0     C52417  11.458   5.445   4.686 -1.0622 -0.5752  0.4737
  389MOL0     C52418  11.585   5.541   4.685  0.0984 -0.1680 -0.3214
  389MOL0     C52419  11.669   5.529   4.818  0.4724 -0.5078 -0.9052
  389MOL0     C52420  11.784   5.633   4.799  0.4727  1.4223  0.3923
  389MOL0     C52421  11.845   5.652   4.940 -0.1508  0.1428 -0.0499
  389MOL0     C52422  11.917   5.783   4.955 -0.4508 -0.0527 -0.9327
  389MOL0     C52423  12.037   5.782   4.856 -0.0387 -0.4877 -0.4949
  389MOL0     C52424  12.102   5.924   4.844 -1.2491 -1.0117 -0.5814
  389MOL0    Cl52425  12.158   5.989   4.996  0.2560 -0.4047 -0.5758
  389MOL0     C52426  11.233   5.267   4.613 -0.4172 -0.5585 -0.0464
  389MOL0     C52427  11.122   5.194   4.580  0.0322  0.3919 -0.0888
  389MOL0     O52428  10.841   5.142   4.671  0.8664  0.0930  0.3583
  389MOL0     C52429  10.668   5.096   4.365 -0.0946  0.2286  0.2292
  389MOL0     C52430  10.565   5.020   4.304 -0.2214  0.6443  0.1008
  389MOL0     N52431  10.019   5.225   4.284  0.1336 -0.6383  0.0920
  389MOL0     N52432  10.023   5.361   4.290 -1.2718 -0.4346 -0.3832
  389MOL0     C52433  10.611   6.155   3.883  0.7019  0.2924  0.8421
  389MOL0     C52434  10.724   6.127   3.804  0.9197 -0.1978  0.6901
  389MOL0     C52435  11.105   6.144   3.602  0.4968  0.2994 -0.3602
  389MOL0     C52436  11.081   6.176   3.464 -0.1431 -0.3784 -0.4609
  389MOL0     C52437  11.171   6.135   3.367  0.4584  0.6474 -1.0104
  389MOL0     C52438  11.280   6.055   3.395  0.0625 -0.2335 -0.2060
  389MOL0     O52439  11.373   6.001   3.312  0.0837  0.3699  0.2024
  389MOL0     C52440  11.366   6.034   3.175  0.1564  0.1371  0.3089
  389MOL0     C52441  11.487   5.963   3.129 -0.6303 -1.0480 -0.1170
  389MOL0     C52442  11.505   5.963   2.973 -0.3212  0.1251 -0.0038
  389MOL0     C52443  11.422   5.860   2.900  0.1018  0.0271  0.1940
  389MOL0     C52444  11.426   5.722   2.940  0.3943  0.5640 -0.3153
  389MOL0     C52445  11.455   5.613   2.988  0.0562  1.0832 -0.1453
  389MOL0     C52446  11.296   6.029   3.530 -0.0037 -0.4033 -0.3395
  389MOL0     C52447  11.215   6.070   3.634 -0.0651  0.1534 -0.7729
  389MOL0     H52448  10.757   6.429   3.649  0.0127 -0.7168 -1.3263
  389MOL0     H52449  10.535   6.471   3.769  2.4857  1.2977 -3.2846
  389MOL0     H52450  10.228   6.262   3.924  0.5608 -0.2027 -0.8155
  389MOL0     H52451  10.343   6.137   3.876  2.6019  0.9702 -0.2140
  389MOL0     H52452  10.397   6.215   4.149 -0.7646 -0.5997  4.0112
  389MOL0     H52453  10.226   6.230   4.142  2.0756  0.1929  2.1833
  389MOL0     H52454  10.225   5.988   4.029  2.2117 -0.5146 -1.5670
  389MOL0     H52455  10.387   5.989   4.091  0.4640  0.2663  1.1523
  389MOL0     H52456  10.299   6.038   4.320 -1.5686 -0.2283  1.7335
  389MOL0     H52457  10.132   6.006   4.257  0.2251 -1.0496  0.1289
  389MOL0     H52458  10.351   5.794   4.257 -0.0430  1.1760 -1.1038
  389MOL0     H52459  10.227   5.809   4.382  2.4497  5.0381  3.3617
  389MOL0     H52460  10.064   5.803   4.166 -0.8320 -0.5146 -0.1579
  389MOL0     H52461  10.209   5.766   4.078  0.2026 -0.7175  1.7500
  389MOL0     H52462  10.249   5.553   4.179  0.1484  1.6179 -2.4536
  389MOL0     H52463  10.144   5.611   4.312 -2.3066 -0.8465 -0.6632
  389MOL0     H52464  10.048   5.560   4.022 -0.9413 -1.0139 -0.6987
  389MOL0     H52465   9.949   5.597   4.155  1.1166 -1.7373  1.1145
  389MOL0     H52466  10.014   5.282   3.969 -2.2469  0.3556 -0.0277
  389MOL0     H52467   9.930   5.006   4.154  0.4198  0.8980  2.1767
  389MOL0     H52468   9.950   5.060   3.997 -0.1547  0.8975  1.1097
  389MOL0     H52469  10.207   5.007   4.014  0.8123 -0.1289  0.9230
  389MOL0     H52470  10.107   4.867   4.024  4.5603 -1.2384  0.9551
  389MOL0     H52471  10.154   4.881   4.288 -1.3259  0.2932 -0.2298
  389MOL0     H52472  10.233   5.037   4.238  1.1805 -0.7187  0.6389
  389MOL0     H52473  10.397   4.905   4.113 -1.5057 -0.8181 -1.8477
  389MOL0     H52474  10.291   4.766   4.143  1.5216 -0.5178  0.5772
  389MOL0     H52475  10.493   4.794   4.540 -4.1813  0.6563 -1.9757
  389MOL0     H52476  10.654   4.966   4.762 -3.8213 -1.6951 -0.3070
  389MOL0     H52477  10.634   4.805   4.722 -2.3165  0.6618  0.0287
  389MOL0     H52478  10.795   4.870   4.694  0.5239 -1.7929  0.4688
  389MOL0     H52479  10.980   5.419   4.378  0.2201 -0.4437 -0.0219
  389MOL0     H52480  11.136   5.556   4.465 -3.0207 -1.1128 -1.4937
  389MOL0     H52481  11.415   5.445   4.786 -0.0859  0.9842  0.9308
  389MOL0     H52482  11.491   5.344   4.660 -0.8636 -0.6383  0.9576
  389MOL0     H52483  11.651   5.535   4.598 -1.0741 -0.1095 -1.2373
  389MOL0     H52484  11.544   5.642   4.693 -3.9600 -1.6634  0.0474
  389MOL0     H52485  11.702   5.428   4.844  1.0616  0.1742  1.1560
  389MOL0     H52486  11.596   5.550   4.897  1.2637  1.6525 -0.6779
  389MOL0     H52487  11.865   5.604   4.732  0.4268  0.1921  0.8542
  389MOL0     H52488  11.752   5.729   4.756 -1.0153  1.1588  0.8607
  389MOL0     H52489  11.920   5.575   4.962 -2.2363 -1.4626  1.8771
  389MOL0     H52490  11.772   5.627   5.017  0.7974  1.8722  1.4813
  389MOL0     H52491  11.853   5.871   4.940 -0.5051 -0.0433 -0.6497
  389MOL0     H52492  11.953   5.804   5.056  1.8115  2.5998 -2.1478
  389MOL0     H52493  12.007   5.757   4.754 -0.9064  3.5328 -1.4252
  389MOL0     H52494  12.121   5.719   4.885  0.7989  1.4082  1.4223
  389MOL0     H52495  12.027   5.988   4.797 -0.6324 -0.3387 -0.6749
  389MOL0     H52496  12.185   5.927   4.772 -1.4192  1.4940 -0.7717
  389MOL0     H52497  11.307   5.215   4.673  0.6888  1.1820  0.1663
  389MOL0     H52498  11.115   5.091   4.614  1.7544  0.2233 -0.1461
  389MOL0     H52499  10.717   5.179   4.317 -0.1098  0.7653  1.1317
  389MOL0     H52500  10.549   5.037   4.198  3.3419  0.6657 -0.5676
  389MOL0     H52501  10.576   6.082   3.954  1.2935 -2.0451 -1.1087
  389MOL0     H52502  10.779   6.033   3.803 -0.2450 -0.9258 -1.6414
  389MOL0     H52503  10.995   6.230   3.426  0.9628  1.1099 -0.9626
  389MOL0     H52504  11.154   6.166   3.264 -3.0319 -2.9005 -1.7174
  389MOL0     H52505  11.267   6.002   3.142 -0.2716 -2.0197  3.2781
  389MOL0     H52506  11.376   6.143   3.175  1.4890  0.0679  2.2404
  389MOL0     H52507  11.483   5.862   3.171  2.5330 -0.7029  1.3158
  389MOL0     H52508  11.582   6.003   3.167 -0.5305  1.8590 -3.0043
  389MOL0     H52509  11.606   5.934   2.943 -0.0346 -2.0027  2.6309
  389MOL0     H52510  11.473   6.059   2.932  1.1408  1.7419  2.3727
  389MOL0     H52511  11.457   5.873   2.797  1.2206 -0.9288  0.4253
  389MOL0     H52512  11.318   5.892   2.886  0.8523  1.7338 -2.1546
  389MOL0     H52513  11.469   5.518   3.036  0.6186 -0.0328 -2.3730
  389MOL0     H52514  11.386   5.976   3.560  1.4851  0.4178 -2.9660
  389MOL0     H52515  11.236   6.043   3.737 -0.2115 -0.9302 -1.0165
  390MOL0     O52516   5.679   3.698   1.985 -0.2910 -0.8732 -0.2868
  390MOL0     C52517   5.673   3.650   2.093  0.0322 -0.1284 -0.8985
  390MOL0     O52518   5.781   3.619   2.169 -0.5758 -0.0846  0.8040
  390MOL0     C52519   5.907   3.643   2.121 -0.4496  0.3776  0.0653
  390MOL0     C52520   5.972   3.552   2.041 -0.0425 -0.1253 -0.1673
  390MOL0     C52521   6.103   3.584   1.998  0.0553  0.6594 -0.1342
  390MOL0     C52522   6.168   3.690   2.046  0.4573  0.2336 -0.2459
  390MOL0     O52523   6.297   3.724   2.017 -0.2680 -0.1575  0.2670
  390MOL0     C52524   6.344   3.716   1.886 -0.6834  0.5695  0.5195
  390MOL0     C52525   6.469   3.805   1.871 -0.4473 -0.0504  0.1406
  390MOL0     C52526   6.448   3.945   1.926  0.2373  0.3361  0.4653
  390MOL0     C52527   6.559   4.040   1.884  0.2051 -0.8920  0.2640
  390MOL0     C52528   6.700   4.018   1.928 -0.9163  0.2739 -0.2857
  390MOL0     C52529   6.709   4.000   2.082 -0.0882  0.1796  0.4355
  390MOL0     C52530   6.669   4.131   2.147  0.5036  0.7608  0.1590
  390MOL0     C52531   6.721   4.159   2.282  0.7621 -0.0583 -1.4029
  390MOL0     N52532   6.673   4.072   2.390  0.1129  0.3416  0.0534
  390MOL0     C52533   6.555   4.081   2.455  0.2783  0.2719 -0.0353
  390MOL0     C52534   6.561   3.970   2.537  0.0578 -0.6547 -0.2488
  390MOL0     C52535   6.458   3.926   2.634  0.1974  0.1850 -0.4791
  390MOL0     C52536   6.337   3.846   2.575 -0.4121  0.2178  0.7608
  390MOL0     C52537   6.252   3.949   2.487  0.0724  0.0011 -0.4126
  390MOL0     C52538   6.162   4.054   2.568  0.2254  0.0396  0.7059
  390MOL0     O52539   6.050   4.086   2.485  0.0855 -0.0870  0.2562
  390MOL0     C52540   5.933   4.134   2.539 -0.6041  0.1482  1.2102
  390MOL0     C52541   5.904   4.150   2.675  0.0449  1.4015  0.5392
  390MOL0     C52542   5.797   4.219   2.723  0.0490  0.0265 -0.3740
  390MOL0     C52543   5.790   4.231   2.873 -0.0127  0.1133 -0.6174
  390MOL0     C52544   5.688   4.237   2.635 -0.3242 -0.3461  0.9127
  390MOL0     C52545   5.547   4.278   2.671 -0.2686  0.0574 -0.4723
  390MOL0     O52546   5.457   4.287   2.567  0.6442  0.0642 -0.8240
  390MOL0     C52547   5.331   4.337   2.584  0.0608  0.3212  0.2412
  390MOL0     C52548   5.276   4.379   2.460  0.1381  0.8650  0.3480
  390MOL0     C52549   5.141   4.429   2.448  0.0982  0.1958 -0.7943
  390MOL0     C52550   5.060   4.431   2.560  0.5567 -0.3710  0.1427
  390MOL0     O52551   4.930   4.478   2.565  0.9859  0.1340 -0.4519
  390MOL0     C52552   4.827   4.431   2.481 -0.3727 -0.6229  0.1614
  390MOL0     C52553   4.775   4.551   2.392 -0.0822 -0.1277  0.0311
  390MOL0     C52554   4.628   4.527   2.336 -0.1732  1.0792 -0.6699
  390MOL0     C52555   4.601   4.629   2.226 -0.6074 -0.4513 -1.0143
  390MOL0     C52556   4.462   4.624   2.160 -0.8706 -0.8502 -0.8138
  390MOL0     C52557   4.454   4.729   2.039 -0.3203  0.6604  0.2712
  390MOL0     C52558   4.304   4.759   2.016 -0.7764 -0.0871  0.0941
  390MOL0     C52559   4.258   4.697   1.881 -0.3832 -0.6787  0.5763
  390MOL0    Cl52560   4.083   4.725   1.860  0.2145 -0.1630  0.1801
  390MOL0     C52561   5.112   4.389   2.681 -0.2898  0.4437  0.5072
  390MOL0     C52562   5.243   4.354   2.696 -0.6821 -0.5922 -0.0228
  390MOL0     O52563   5.519   4.265   2.791 -0.1287  0.5490 -0.2275
  390MOL0     C52564   5.722   4.208   2.502  1.0926 -0.5559 -0.2805
  390MOL0     C52565   5.839   4.164   2.443 -0.6617  0.0444  0.2084
  390MOL0     N52566   6.679   3.899   2.510  0.7588 -0.1356 -0.6759
  390MOL0     N52567   6.742   3.956   2.424  0.1601 -1.0497  0.2597
  390MOL0     C52568   6.098   3.778   2.136 -0.7819  0.0628 -0.1376
  390MOL0     C52569   5.971   3.748   2.179 -0.2667 -0.3426 -0.3245
  390MOL0     C52570   5.549   3.662   2.157  0.6099 -0.3201 -0.4414
  390MOL0     C52571   5.426   3.695   2.097 -0.5812  0.4155 -0.0063
  390MOL0     C52572   5.306   3.697   2.165 -0.9563  0.4738 -0.0517
  390MOL0     C52573   5.304   3.670   2.300 -0.3310 -0.8308 -0.4283
  390MOL0     O52574   5.201   3.687   2.381 -0.2844 -0.1977 -0.0779
  390MOL0     C52575   5.080   3.757   2.332 -0.5907  1.4446  0.2270
  390MOL0     C52576   4.975   3.653   2.284 -0.2852 -0.1263 -0.7655
  390MOL0     C52577   4.841   3.725   2.271  0.5892  0.2815  0.4854
  390MOL0     C52578   4.815   3.838   2.160  0.2707  0.1769 -1.6737
  390MOL0     C52579   4.681   3.896   2.157  0.3833 -0.9858 -0.7021
  390MOL0     C52580   4.584   3.970   2.170  1.1584  0.0470 -0.2212
  390MOL0     C52581   5.423   3.648   2.363 -1.0680 -0.3932  0.0237
  390MOL0     C52582   5.540   3.637   2.289 -0.0488  0.0193  0.5010
  390MOL0     H52583   5.918   3.462   2.014 -0.3936 -0.4505  1.4621
  390MOL0     H52584   6.151   3.510   1.934  0.3838 -0.1916  1.0563
  390MOL0     H52585   6.379   3.614   1.869  0.2238  1.1901 -1.7168
  390MOL0     H52586   6.266   3.747   1.816 -0.9482 -0.0800  0.5200
  390MOL0     H52587   6.563   3.768   1.914  0.2459  1.0704 -0.3646
  390MOL0     H52588   6.489   3.814   1.763 -1.2891 -2.7961 -0.3346
  390MOL0     H52589   6.347   3.972   1.892  1.1863  1.1464 -1.9361
  390MOL0     H52590   6.446   3.948   2.035 -0.1968  1.2637  0.4495
  390MOL0     H52591   6.576   4.040   1.776  0.1431 -1.6028  0.2502
  390MOL0     H52592   6.521   4.142   1.896 -1.3500 -1.6325  2.3168
  390MOL0     H52593   6.725   3.920   1.887  0.3990 -0.2419  1.6267
  390MOL0     H52594   6.778   4.081   1.884 -0.1189 -1.0817 -0.8595
  390MOL0     H52595   6.641   3.923   2.122  0.3011  1.1553  3.2076
  390MOL0     H52596   6.814   3.971   2.096  0.3478  1.7910  0.6267
  390MOL0     H52597   6.705   4.207   2.077 -0.9026 -0.9605 -2.5659
  390MOL0     H52598   6.560   4.127   2.158  0.5483 -0.4345  0.2445
  390MOL0     H52599   6.700   4.263   2.311 -1.0431 -0.7913  0.1258
  390MOL0     H52600   6.830   4.159   2.283  0.8003  0.7700  0.5406
  390MOL0     H52601   6.476   4.154   2.442  3.3165  4.6630  3.2275
  390MOL0     H52602   6.505   3.846   2.692 -3.0921 -1.4480  0.1661
  390MOL0     H52603   6.426   3.998   2.710  0.8364 -1.3041  1.2673
  390MOL0     H52604   6.277   3.799   2.653  3.6936 -1.9272  2.9112
  390MOL0     H52605   6.376   3.766   2.512  3.9282  0.6293  2.6190
  390MOL0     H52606   6.187   3.881   2.432 -2.5248  2.5533 -0.7142
  390MOL0     H52607   6.315   4.008   2.421  0.7347 -0.5952 -0.3268
  390MOL0     H52608   6.219   4.144   2.593  0.3935 -0.1205  0.9014
  390MOL0     H52609   6.129   4.007   2.662 -2.1825 -1.4308 -0.7687
  390MOL0     H52610   5.974   4.117   2.751 -0.5246  1.2893  1.0231
  390MOL0     H52611   5.762   4.335   2.895  0.1160 -0.2489  1.4388
  390MOL0     H52612   5.708   4.173   2.916 -2.2357  1.2673 -3.0733
  390MOL0     H52613   5.884   4.208   2.924  1.3993 -3.1924 -4.2131
  390MOL0     H52614   5.344   4.374   2.375  0.2028 -0.1541  0.4417
  390MOL0     H52615   5.108   4.458   2.349 -3.1721 -0.6205 -0.0406
  390MOL0     H52616   4.857   4.347   2.418 -0.5411  0.4651 -1.4277
  390MOL0     H52617   4.744   4.401   2.545 -2.2413 -2.0348 -2.6980
  390MOL0     H52618   4.755   4.628   2.467 -4.1273  2.3476 -3.1357
  390MOL0     H52619   4.845   4.598   2.322  0.4424 -2.7575 -1.3089
  390MOL0     H52620   4.553   4.520   2.415  0.7970 -1.5815  0.1011
  390MOL0     H52621   4.620   4.426   2.295  0.0892  0.4891  0.6884
  390MOL0     H52622   4.626   4.725   2.271 -0.1268 -0.6207 -0.9159
  390MOL0     H52623   4.675   4.624   2.146  1.0219 -0.6200  0.4649
  390MOL0     H52624   4.379   4.643   2.229 -0.4787  1.0952 -0.8340
  390MOL0     H52625   4.457   4.526   2.112  1.8725 -0.3427 -2.3569
  390MOL0     H52626   4.491   4.828   2.069 -2.3525  1.0316  1.8276
  390MOL0     H52627   4.508   4.688   1.953 -0.2645 -0.3474  0.7723
  390MOL0     H52628   4.286   4.866   2.007 -2.3563 -0.1110  2.1977
  390MOL0     H52629   4.242   4.719   2.098  0.9339  0.0909  1.5372
  390MOL0     H52630   4.264   4.592   1.911 -1.8405 -0.8392  0.3879
  390MOL0     H52631   4.316   4.721   1.791 -2.5167 -1.6769 -1.1486
  390MOL0     H52632   5.049   4.404   2.768  0.4922  1.6007  0.9068
  390MOL0     H52633   5.297   4.336   2.789 -0.1134 -0.5918 -0.3534
  390MOL0     H52634   5.651   4.214   2.420  0.9731 -0.7034 -0.1887
  390MOL0     H52635   5.863   4.154   2.338  2.1987 -0.0598  0.7959
  390MOL0     H52636   6.154   3.862   2.177 -1.8312  0.0449  1.4225
  390MOL0     H52637   5.923   3.813   2.252 -2.2198  0.3456 -2.0880
  390MOL0     H52638   5.435   3.722   1.992 -0.2193 -0.3812 -0.1897
  390MOL0     H52639   5.218   3.729   2.110 -1.5913 -0.9474  0.0954
  390MOL0     H52640   5.030   3.813   2.411 -1.0390  0.5988  0.5491
  390MOL0     H52641   5.102   3.820   2.244  1.7124 -0.2999 -0.5456
  390MOL0     H52642   4.960   3.575   2.359 -1.2862  0.5225 -0.2563
  390MOL0     H52643   5.006   3.605   2.191 -0.7699  0.4395 -1.2256
  390MOL0     H52644   4.792   3.758   2.363 -1.5070  0.4259 -0.6227
  390MOL0     H52645   4.771   3.649   2.237 -0.4958  1.3822  0.1685
  390MOL0     H52646   4.838   3.800   2.060  0.7548  0.5241 -1.6952
  390MOL0     H52647   4.880   3.922   2.183 -1.7952  0.8299  3.0258
  390MOL0     H52648   4.504   4.041   2.167  0.2928 -0.8213  1.2519
  390MOL0     H52649   5.443   3.625   2.468  2.4496  0.0076 -0.4510
  390MOL0     H52650   5.627   3.617   2.350 -0.0331 -0.3535  0.3594
  391MOL0     O52651   3.929   7.852   2.214 -0.4697 -0.3998 -0.4696
  391MOL0     C52652   3.827   7.887   2.151 -1.2869 -0.4100  0.5236
  391MOL0     O52653   3.812   8.009   2.098  0.0152  0.2437  0.6194
  391MOL0     C52654   3.896   8.108   2.128  0.2676  1.4318 -0.5370
  391MOL0     C52655   3.982   8.153   2.034  0.4616 -1.3162  0.7988
  391MOL0     C52656   4.077   8.251   2.060  0.3647 -1.0397 -0.7024
  391MOL0     C52657   4.093   8.302   2.184 -0.1433 -0.4755 -0.4351
  391MOL0     O52658   4.183   8.403   2.209 -0.0075 -0.2050 -0.6910
  391MOL0     C52659   4.304   8.418   2.133  0.5618  0.4445  1.1049
  391MOL0     C52660   4.408   8.507   2.186 -0.8363  0.4072  0.0779
  391MOL0     C52661   4.464   8.452   2.323  0.0808 -0.9150  1.1217
  391MOL0     C52662   4.582   8.548   2.366 -0.3264  0.6786 -0.1010
  391MOL0     C52663   4.680   8.485   2.455  0.1959 -0.1409 -0.2469
  391MOL0     C52664   4.778   8.590   2.518  0.1699 -0.1066 -0.6838
  391MOL0     C52665   4.847   8.530   2.653  0.0176  0.3195 -0.7568
  391MOL0     C52666   4.956   8.634   2.697 -0.5132 -0.1985  0.6092
  391MOL0     N52667   4.981   8.630   2.840  0.1588 -0.0206 -0.0119
  391MOL0     C52668   5.109   8.623   2.890 -0.0350  0.4664  0.0394
  391MOL0     C52669   5.105   8.643   3.028  0.7773 -0.5522  0.3687
  391MOL0     C52670   5.208   8.658   3.125 -0.8174 -0.7132 -0.7535
  391MOL0     C52671   5.341   8.617   3.077  0.0291 -0.3339  0.1867
  391MOL0     C52672   5.445   8.607   3.193 -0.2695 -1.0588 -0.4632
  391MOL0     C52673   5.584   8.652   3.143  0.6975  0.5452 -0.3251
  391MOL0     O52674   5.586   8.797   3.133 -0.0256  0.1886  0.0834
  391MOL0     C52675   5.710   8.861   3.123  0.0259 -1.2206  0.3302
  391MOL0     C52676   5.826   8.790   3.084  0.5194 -0.0085 -0.8113
  391MOL0     C52677   5.956   8.853   3.070  0.3919  0.1559 -0.4691
  391MOL0     C52678   6.067   8.754   3.040  0.5364  0.0641 -0.7414
  391MOL0     C52679   5.969   8.997   3.085  0.6187 -0.3010 -0.3839
  391MOL0     C52680   6.102   9.073   3.052  0.3074  0.8360 -0.4017
  391MOL0     O52681   6.219   9.002   3.037 -0.0353 -0.2248 -0.5362
  391MOL0     C52682   6.320   9.044   2.943  0.8884 -0.3887 -0.1337
  391MOL0     C52683   6.386   9.162   2.980  0.1237 -0.1870 -0.1086
  391MOL0     C52684   6.484   9.210   2.887  0.4712 -0.1247  0.1472
  391MOL0     C52685   6.521   9.135   2.774  0.3933 -0.0098 -0.0591
  391MOL0     O52686   6.618   9.191   2.680  0.2565  0.0862 -0.2691
  391MOL0     C52687   6.618   9.335   2.649  0.9696 -0.9690  0.2657
  391MOL0     C52688   6.721   9.403   2.740  0.3088 -0.0187 -0.2242
  391MOL0     C52689   6.845   9.481   2.683  0.9955  0.1648  0.6728
  391MOL0     C52690   6.943   9.397   2.600 -0.3300  0.6035 -0.0150
  391MOL0     C52691   7.073   9.470   2.560 -0.1941  0.0307 -0.0771
  391MOL0     C52692   7.050   9.577   2.449 -0.6852 -0.0840  0.1975
  391MOL0     C52693   7.185   9.643   2.410 -0.2877  0.3769 -0.4406
  391MOL0     C52694   7.168   9.739   2.287  0.0093 -0.1206 -0.0247
  391MOL0    Cl52695   7.306   9.837   2.260  0.4504 -0.8842  0.5398
  391MOL0     C52696   6.465   9.010   2.754  0.0514 -0.2951 -0.3460
  391MOL0     C52697   6.365   8.958   2.840  0.4043 -0.1243  0.1501
  391MOL0     O52698   6.084   9.186   3.041  0.7589  0.0696 -0.0134
  391MOL0     C52699   5.851   9.066   3.126  0.2487  0.5279  0.0216
  391MOL0     C52700   5.723   9.004   3.145  0.2216 -0.5265  0.2912
  391MOL0     N52701   4.966   8.657   3.057 -0.1628  0.8056 -0.0154
  391MOL0     N52702   4.897   8.644   2.944 -0.2998 -0.2006 -0.0666
  391MOL0     C52703   4.015   8.254   2.287 -0.2259 -1.0161 -0.1151
  391MOL0     C52704   3.913   8.155   2.263 -1.0528 -0.3070  0.4230
  391MOL0     C52705   3.728   7.782   2.124  0.8094 -1.0363  0.9891
  391MOL0     C52706   3.597   7.827   2.079 -0.2241  0.3313 -0.1785
  391MOL0     C52707   3.501   7.728   2.054 -0.1506 -0.3952  0.3616
  391MOL0     C52708   3.529   7.596   2.038  0.9643  0.8587 -0.4465
  391MOL0     O52709   3.440   7.500   1.987  0.5378  0.1007 -0.2903
  391MOL0     C52710   3.305   7.506   2.041 -1.6854 -0.0450  0.0505
  391MOL0     C52711   3.215   7.478   1.917 -0.5381 -0.5408 -0.2948
  391MOL0     C52712   3.089   7.565   1.938 -0.2511 -0.7925  0.3970
  391MOL0     C52713   2.990   7.524   1.827 -0.4747 -0.6100  0.1014
  391MOL0     C52714   3.029   7.588   1.697 -0.3950  0.5765 -0.8273
  391MOL0     C52715   3.075   7.628   1.592  0.9544  0.3668 -0.0312
  391MOL0     C52716   3.662   7.555   2.073  0.5586  0.5783  0.3014
  391MOL0     C52717   3.763   7.645   2.118 -0.6905  0.2745  0.0580
  391MOL0     H52718   3.974   8.101   1.939  0.9938  0.5922 -0.3402
  391MOL0     H52719   4.155   8.274   1.987  0.7828  1.1256  0.3552
  391MOL0     H52720   4.354   8.321   2.128  0.7239  0.5559  0.4302
  391MOL0     H52721   4.275   8.439   2.030 -0.4702 -0.0382  1.2813
  391MOL0     H52722   4.495   8.513   2.120  0.0530  0.8686  1.2683
  391MOL0     H52723   4.364   8.606   2.205 -0.0603  0.8169 -0.2256
  391MOL0     H52724   4.379   8.455   2.392 -1.3039 -1.3537 -0.4840
  391MOL0     H52725   4.497   8.349   2.307 -1.7927 -1.3607 -0.2588
  391MOL0     H52726   4.627   8.584   2.272 -2.3839 -1.2173 -1.9419
  391MOL0     H52727   4.541   8.633   2.420 -0.4761  2.9162 -3.4646
  391MOL0     H52728   4.629   8.436   2.539  4.3756 -1.1243  1.9726
  391MOL0     H52729   4.728   8.403   2.401 -2.0850 -1.5857 -0.2214
  391MOL0     H52730   4.853   8.615   2.443  1.3569 -1.1736  0.1020
  391MOL0     H52731   4.718   8.675   2.553  0.7834  0.2119 -0.3966
  391MOL0     H52732   4.767   8.510   2.724 -0.8217 -1.1472 -2.0496
  391MOL0     H52733   4.900   8.437   2.631  0.7609  0.3584  0.7375
  391MOL0     H52734   4.938   8.740   2.681  1.3250 -0.2626 -2.8012
  391MOL0     H52735   5.045   8.603   2.642 -1.6305 -0.6676 -0.9894
  391MOL0     H52736   5.198   8.596   2.833  1.3576 -0.9062  2.6636
  391MOL0     H52737   5.210   8.766   3.145  1.9825 -0.7566 -0.4286
  391MOL0     H52738   5.158   8.611   3.210 -2.1090  0.4764 -0.8001
  391MOL0     H52739   5.366   8.694   3.003 -2.5541 -2.6751 -3.4567
  391MOL0     H52740   5.332   8.525   3.019  4.0093 -1.7657  1.5295
  391MOL0     H52741   5.448   8.506   3.234 -0.3785 -1.0632 -0.4686
  391MOL0     H52742   5.428   8.680   3.272  1.7623  0.9191 -1.7085
  391MOL0     H52743   5.605   8.622   3.040  3.2316  0.1372  0.2339
  391MOL0     H52744   5.658   8.614   3.213 -0.1186 -2.2911 -0.8956
  391MOL0     H52745   5.829   8.682   3.069  1.5584  0.1244 -1.7454
  391MOL0     H52746   6.124   8.795   2.956  0.0323  0.2376 -1.0052
  391MOL0     H52747   6.135   8.750   3.125  0.7888 -0.1976 -0.9578
  391MOL0     H52748   6.023   8.656   3.018 -3.3270  1.6363 -0.9582
  391MOL0     H52749   6.377   9.225   3.067  2.2597 -0.2821  0.2560
  391MOL0     H52750   6.542   9.297   2.916 -0.7833  1.1994 -1.1713
  391MOL0     H52751   6.645   9.351   2.545 -0.6648  1.7196  0.1782
  391MOL0     H52752   6.519   9.377   2.666  1.4609 -0.0694  0.9855
  391MOL0     H52753   6.674   9.479   2.803  2.1392 -0.6542  2.0110
  391MOL0     H52754   6.757   9.343   2.824  1.6696  2.4152  1.0285
  391MOL0     H52755   6.908   9.517   2.765  2.6141  1.0898 -0.9039
  391MOL0     H52756   6.806   9.565   2.625 -1.6048 -1.7140 -0.5010
  391MOL0     H52757   6.962   9.306   2.657 -0.1732  1.3966  1.2377
  391MOL0     H52758   6.891   9.366   2.509  2.2003 -0.7989 -1.0815
  391MOL0     H52759   7.133   9.388   2.519 -1.3020 -0.5086 -0.6737
  391MOL0     H52760   7.119   9.502   2.654 -2.1693  1.9579  0.3005
  391MOL0     H52761   7.023   9.528   2.355  4.0903  3.0439 -3.2845
  391MOL0     H52762   6.989   9.656   2.493 -0.5134  0.0194  0.2489
  391MOL0     H52763   7.255   9.563   2.385  0.5011  1.1823 -0.8680
  391MOL0     H52764   7.216   9.709   2.491 -3.0156  1.2279  0.0230
  391MOL0     H52765   7.077   9.798   2.301  1.8147  3.0400 -0.8215
  391MOL0     H52766   7.158   9.664   2.208  0.5139 -1.7612  1.3926
  391MOL0     H52767   6.488   8.961   2.660  0.4947  1.6113 -1.3041
  391MOL0     H52768   6.324   8.858   2.834  1.7035 -0.7317  1.0418
  391MOL0     H52769   5.854   9.173   3.145  1.2887  1.0862 -2.7124
  391MOL0     H52770   5.636   9.058   3.181  2.1620  0.8375  3.3583
  391MOL0     H52771   4.009   8.296   2.387 -0.2358  1.2738 -1.0386
  391MOL0     H52772   3.860   8.115   2.349  0.4841  0.3295  1.7118
  391MOL0     H52773   3.564   7.930   2.087 -1.3889  0.2535 -3.0491
  391MOL0     H52774   3.406   7.780   2.047 -1.1386 -2.3109 -1.8074
  391MOL0     H52775   3.279   7.447   2.129  0.3262  3.8653  3.6214
  391MOL0     H52776   3.285   7.605   2.082 -1.5301 -0.4592  1.1745
  391MOL0     H52777   3.185   7.374   1.904  0.6772 -0.6884 -2.1282
  391MOL0     H52778   3.260   7.515   1.825  1.2300 -2.7679 -0.4155
  391MOL0     H52779   3.117   7.670   1.921  1.2242 -1.4085 -1.4028
  391MOL0     H52780   3.054   7.556   2.041  1.4841  0.4740  1.1526
  391MOL0     H52781   2.886   7.549   1.851 -0.9734 -3.1158  0.8603
  391MOL0     H52782   2.980   7.416   1.808 -0.9602 -0.3684 -1.0661
  391MOL0     H52783   3.104   7.691   1.510 -5.3724  1.8644 -1.5972
  391MOL0     H52784   3.680   7.448   2.079 -2.6412 -0.0427  0.6390
  391MOL0     H52785   3.866   7.616   2.138 -1.7039 -3.4867  0.5275
  392MOL0     O52786   6.694   5.471  10.685  0.5399 -0.9814  0.4149
  392MOL0     C52787   6.729   5.401  10.776 -0.1214 -0.1479 -0.3278
  392MOL0     O52788   6.648   5.346  10.879  0.1262 -0.3749 -0.1801
  392MOL0     C52789   6.511   5.382  10.883  0.3435 -0.5005 -0.5056
  392MOL0     C52790   6.431   5.417  10.771 -0.9347  0.1196  0.3902
  392MOL0     C52791   6.298   5.459  10.782 -0.1180 -0.5276 -0.1145
  392MOL0     C52792   6.227   5.461  10.904  0.1801  1.0344 -0.3486
  392MOL0     O52793   6.096   5.490  10.893 -0.0915 -0.5165  0.0324
  392MOL0     C52794   6.033   5.533  11.017  0.4889 -0.1722  0.8198
  392MOL0     C52795   5.914   5.447  11.071 -0.0062  0.5148 -0.5759
  392MOL0     C52796   5.864   5.487  11.206  0.2559 -0.6549  0.2206
  392MOL0     C52797   5.794   5.619  11.205 -0.8879  0.0610 -0.1359
  392MOL0     C52798   5.733   5.654  11.338  0.9520  0.1796 -0.4336
  392MOL0     C52799   5.688   5.803  11.340  0.8345  0.1286  0.2601
  392MOL0     C52800   5.627   5.842  11.473 -0.5953  0.3196  1.1952
  392MOL0     C52801   5.480   5.800  11.495  0.4429 -0.5848  1.4788
  392MOL0     N52802   5.450   5.663  11.518  0.7544 -0.0949  0.5245
  392MOL0     C52803   5.511   5.589  11.617 -1.5633 -0.3593 -0.1515
  392MOL0     C52804   5.484   5.459  11.591  0.4180  0.7271 -0.4678
  392MOL0     C52805   5.536   5.355  11.678 -0.5682  0.8392 -1.0626
  392MOL0     C52806   5.691   5.335  11.673  0.1698  0.3195  0.4371
  392MOL0     C52807   5.733   5.295  11.531  0.8114  0.4414  0.1312
  392MOL0     C52808   5.880   5.254  11.530  0.8144  0.8581  0.2916
  392MOL0     O52809   5.971   5.371  11.540  0.3454  0.5195 -0.7757
  392MOL0     C52810   6.105   5.358  11.520  0.5574 -0.1435  1.1361
  392MOL0     C52811   6.183   5.468  11.510 -0.2923  0.1477  0.3287
  392MOL0     C52812   6.317   5.466  11.489  0.4337  0.4869 -0.0138
  392MOL0     C52813   6.384   5.599  11.476  0.0173 -0.2566 -0.1324
  392MOL0     C52814   6.385   5.345  11.473  0.4462  0.6824  0.3939
  392MOL0     C52815   6.522   5.336  11.443 -0.1439 -0.2225 -0.4501
  392MOL0     O52816   6.581   5.216  11.489  0.1826  0.1822 -0.5281
  392MOL0     C52817   6.711   5.195  11.448 -0.4510 -0.1162  0.8604
  392MOL0     C52818   6.809   5.150  11.537 -0.7537 -0.4691  0.8494
  392MOL0     C52819   6.936   5.113  11.496  0.4749  0.0102 -0.6068
  392MOL0     C52820   6.965   5.107  11.355  0.3700 -0.4615 -1.0331
  392MOL0     O52821   7.084   5.065  11.306 -0.2084  0.8308 -0.3066
  392MOL0     C52822   7.165   4.974  11.384 -0.6574  0.0087 -0.5392
  392MOL0     C52823   7.279   4.943  11.300 -0.6107  0.0836  0.3826
  392MOL0     C52824   7.381   5.058  11.322  0.2158  0.1921  0.7891
  392MOL0     C52825   7.511   5.008  11.273 -0.3045 -0.5531 -0.2584
  392MOL0     C52826   7.605   5.131  11.274 -0.9429  0.6953 -0.0159
  392MOL0     C52827   7.746   5.092  11.232  0.1580  0.4102  0.4456
  392MOL0     C52828   7.840   5.220  11.218  0.3612  0.5640  0.4856
  392MOL0     C52829   7.985   5.185  11.181  0.4345  1.1594 -0.2187
  392MOL0    Cl52830   8.076   5.110  11.315 -0.3356  0.9312  0.3367
  392MOL0     C52831   6.864   5.148  11.264 -1.0393  0.1240  0.5389
  392MOL0     C52832   6.740   5.196  11.312  0.0454  0.9994 -0.5317
  392MOL0     O52833   6.573   5.420  11.370 -0.5462  0.1297 -0.4456
  392MOL0     C52834   6.305   5.230  11.496 -0.7330 -0.3057 -0.7608
  392MOL0     C52835   6.168   5.238  11.510  0.6779 -0.0367  0.4211
  392MOL0     N52836   5.394   5.448  11.489 -0.0723 -0.5867 -0.1122
  392MOL0     N52837   5.365   5.575  11.448  0.1355 -0.0852 -0.1225
  392MOL0     C52838   6.299   5.420  11.022  0.3540 -0.1644  0.4537
  392MOL0     C52839   6.440   5.380  11.007 -0.6007 -0.4475 -0.0511
  392MOL0     C52840   6.870   5.366  10.798 -0.0874  0.5225  0.5115
  392MOL0     C52841   6.974   5.429  10.729 -0.0217 -0.6429 -0.0839
  392MOL0     C52842   7.108   5.402  10.758 -0.2281 -0.8864  0.1815
  392MOL0     C52843   7.154   5.309  10.855  0.2662 -0.0067 -0.5497
  392MOL0     O52844   7.282   5.280  10.886  0.1607  0.0637 -0.5059
  392MOL0     C52845   7.393   5.339  10.819 -0.4932  0.1553  0.7360
  392MOL0     C52846   7.426   5.474  10.877  0.1413 -0.1054 -0.0290
  392MOL0     C52847   7.473   5.452  11.021 -0.4126  0.2523  0.3410
  392MOL0     C52848   7.469   5.587  11.097  0.2980 -0.4582 -0.3473
  392MOL0     C52849   7.492   5.568  11.244  0.1658 -0.3577 -0.0463
  392MOL0     C52850   7.516   5.563  11.367 -0.6332 -0.3181  0.2934
  392MOL0     C52851   7.051   5.241  10.918  0.1631  0.1320 -0.8205
  392MOL0     C52852   6.909   5.257  10.886 -0.0401  0.1598  0.4921
  392MOL0     H52853   6.481   5.408  10.675  1.1561 -0.8712  1.5169
  392MOL0     H52854   6.237   5.474  10.693  1.7434 -1.3434 -1.5929
  392MOL0     H52855   6.103   5.540  11.101  0.4004  0.0486  0.8748
  392MOL0     H52856   5.998   5.635  10.999  1.8595  0.5441  1.9640
  392MOL0     H52857   5.825   5.467  11.010  0.1672  0.4230 -0.8607
  392MOL0     H52858   5.949   5.343  11.076  1.0608  0.8194 -1.2093
  392MOL0     H52859   5.800   5.407  11.244  0.9648 -0.7917  1.1745
  392MOL0     H52860   5.946   5.483  11.279  0.8964 -1.4452 -0.5258
  392MOL0     H52861   5.863   5.701  11.182 -2.2538  1.0321 -0.9600
  392MOL0     H52862   5.718   5.637  11.128  0.7838 -0.1804 -1.9157
  392MOL0     H52863   5.648   5.586  11.345  1.6346 -0.7001 -0.5555
  392MOL0     H52864   5.795   5.645  11.428  0.6159  0.3770 -0.1787
  392MOL0     H52865   5.775   5.864  11.316  0.4276  0.4723 -0.3522
  392MOL0     H52866   5.607   5.829  11.271 -0.3090  0.4086  1.6389
  392MOL0     H52867   5.689   5.803  11.554 -0.5921  0.0752  1.0749
  392MOL0     H52868   5.623   5.951  11.482 -2.3256  0.2951  1.0297
  392MOL0     H52869   5.418   5.828  11.410 -0.1364  2.0307  2.6725
  392MOL0     H52870   5.429   5.855  11.574 -2.5272  0.1849 -0.8190
  392MOL0     H52871   5.570   5.631  11.698  0.3814 -4.0238  0.5549
  392MOL0     H52872   5.520   5.387  11.781  1.0824 -0.5289 -0.3211
  392MOL0     H52873   5.480   5.262  11.665 -0.2334 -0.7640  5.5278
  392MOL0     H52874   5.721   5.268  11.754  2.7843  0.6833 -0.1473
  392MOL0     H52875   5.746   5.423  11.707 -0.1280  0.1115  1.5007
  392MOL0     H52876   5.723   5.382  11.466  1.8850  1.5330  1.3582
  392MOL0     H52877   5.685   5.201  11.502  0.9177  0.8055 -1.2641
  392MOL0     H52878   5.892   5.202  11.435  0.4616  0.9741  0.1852
  392MOL0     H52879   5.897   5.181  11.611 -0.3358  3.7597  3.3960
  392MOL0     H52880   6.137   5.566  11.507 -0.4739  0.0949  0.9987
  392MOL0     H52881   6.478   5.604  11.533 -1.0733  2.4119  1.6843
  392MOL0     H52882   6.400   5.597  11.368  2.3978  1.6504  0.1031
  392MOL0     H52883   6.331   5.688  11.513  3.6359  2.3395 -0.6669
  392MOL0     H52884   6.775   5.130  11.638 -1.7211  2.8704  1.3257
  392MOL0     H52885   7.016   5.084  11.564  0.2661 -1.6535 -1.0353
  392MOL0     H52886   7.194   5.017  11.480  2.0072 -0.8454 -0.8930
  392MOL0     H52887   7.106   4.884  11.405 -4.3931  2.2446 -0.3642
  392MOL0     H52888   7.336   4.862  11.348  2.5914  1.5762 -0.6158
  392MOL0     H52889   7.252   4.918  11.196  1.0535  0.0195 -0.0588
  392MOL0     H52890   7.398   5.078  11.429 -0.3018 -1.8541  1.3081
  392MOL0     H52891   7.351   5.149  11.269  0.0652 -0.2388  0.1293
  392MOL0     H52892   7.549   4.926  11.335  1.8082 -0.4667 -1.3384
  392MOL0     H52893   7.506   4.981  11.167  4.4095  0.5916 -0.9748
  392MOL0     H52894   7.607   5.184  11.370  0.4427 -0.2445  0.5146
  392MOL0     H52895   7.569   5.195  11.194 -0.7410  0.3292 -0.4034
  392MOL0     H52896   7.794   5.025  11.304 -0.3966  1.0772  1.4512
  392MOL0     H52897   7.752   5.043  11.134  2.3839 -1.5816  1.4793
  392MOL0     H52898   7.819   5.278  11.308 -0.6192 -1.4547  1.6472
  392MOL0     H52899   7.797   5.279  11.137  0.2794  1.5307  1.2253
  392MOL0     H52900   8.043   5.272  11.148  0.1483  0.7561 -1.8853
  392MOL0     H52901   7.992   5.112  11.100  0.7493 -1.7791  2.2689
  392MOL0     H52902   6.887   5.147  11.158  0.1689 -1.6368  0.7883
  392MOL0     H52903   6.658   5.214  11.243  0.9493 -0.5287 -2.0941
  392MOL0     H52904   6.354   5.133  11.494 -0.6754 -0.2857 -0.3970
  392MOL0     H52905   6.114   5.144  11.507  1.3228 -0.3830 -0.6177
  392MOL0     H52906   6.260   5.416  11.124 -1.1399 -1.1902 -0.1124
  392MOL0     H52907   6.495   5.355  11.097  0.3841 -2.2647 -1.0982
  392MOL0     H52908   6.944   5.497  10.650  0.6570 -0.3017 -0.0543
  392MOL0     H52909   7.167   5.472  10.700 -2.6313  1.9572  0.9085
  392MOL0     H52910   7.472   5.264  10.830  0.2533  0.9969  1.2472
  392MOL0     H52911   7.375   5.363  10.714 -1.7809  1.8622  1.3064
  392MOL0     H52912   7.339   5.540  10.876  0.9867  1.0413 -0.3360
  392MOL0     H52913   7.501   5.536  10.827 -0.4754  1.0729  0.4811
  392MOL0     H52914   7.576   5.415  11.021  0.2390  1.7948 -2.1331
  392MOL0     H52915   7.402   5.389  11.074 -0.2657  1.8067  2.5330
  392MOL0     H52916   7.367   5.624  11.086  0.0191 -1.3276 -0.7525
  392MOL0     H52917   7.529   5.662  11.045 -2.1897  2.4476  0.7282
  392MOL0     H52918   7.539   5.565  11.471  1.2758  0.4485 -0.1013
  392MOL0     H52919   7.096   5.160  10.974  1.7287  0.4494 -1.5585
  392MOL0     H52920   6.833   5.190  10.924  0.2602 -1.1542 -1.1164
  393MOL0     O52921  11.073  10.837  10.578 -0.6642 -0.3383  0.7269
  393MOL0     C52922  11.090  10.887  10.691 -0.8947 -0.0212  0.3529
  393MOL0     O52923  11.152  10.828  10.792 -0.5938 -0.0680  0.2851
  393MOL0     C52924  11.226  10.720  10.754 -0.3438  0.3425  0.2104
  393MOL0     C52925  11.172  10.591  10.736  0.3796 -1.1302 -0.1489
  393MOL0     C52926  11.257  10.484  10.698 -0.6915  0.6011 -0.3137
  393MOL0     C52927  11.400  10.500  10.674  0.8300 -0.5398 -0.8589
  393MOL0     O52928  11.479  10.389  10.643  0.1799  0.4048 -0.4092
  393MOL0     C52929  11.587  10.417  10.552  0.2302  0.8372  0.9325
  393MOL0     C52930  11.630  10.291  10.492  0.0342 -0.2547 -0.2305
  393MOL0     C52931  11.517  10.207  10.411 -0.2658  0.0633 -0.2981
  393MOL0     C52932  11.568  10.086  10.319 -0.5164  0.0178 -0.1851
  393MOL0     C52933  11.650   9.987  10.392 -0.2383 -0.1124 -0.3249
  393MOL0     C52934  11.575   9.889  10.484 -0.0256  0.1095 -0.1206
  393MOL0     C52935  11.678   9.842  10.580 -0.2927  0.3573 -0.0009
  393MOL0     C52936  11.624   9.717  10.661  0.1772 -0.4898  0.0594
  393MOL0     N52937  11.484   9.717  10.712  0.9941 -0.3995 -0.4416
  393MOL0     C52938  11.368   9.675  10.643 -0.4863  0.9505  0.6032
  393MOL0     C52939  11.280   9.640  10.737 -0.1416  0.0020 -0.2159
  393MOL0     C52940  11.138   9.598  10.707  0.3970  1.0103 -0.0863
  393MOL0     C52941  11.123   9.495  10.594 -0.8367  0.6608 -0.0528
  393MOL0     C52942  11.208   9.369  10.602 -0.2761 -0.6580 -0.3101
  393MOL0     C52943  11.182   9.275  10.723  0.5896  1.0503 -0.3881
  393MOL0     O52944  11.220   9.141  10.682 -0.6087  0.5202  0.1830
  393MOL0     C52945  11.203   9.030  10.764  0.2490 -0.4363  0.1938
  393MOL0     C52946  11.282   8.922  10.743  1.1763 -0.0494 -0.0188
  393MOL0     C52947  11.256   8.805  10.803 -0.9966 -0.0159 -0.1704
  393MOL0     C52948  11.345   8.694  10.748  0.3190  0.2581 -0.4546
  393MOL0     C52949  11.159   8.782  10.906  0.0709 -0.9297 -0.1470
  393MOL0     C52950  11.122   8.663  10.982  1.2428 -1.0104  0.5397
  393MOL0     O52951  11.012   8.671  11.068 -0.1954  0.2172  0.2321
  393MOL0     C52952  10.958   8.555  11.125  0.1836 -0.5211  0.3896
  393MOL0     C52953  10.923   8.565  11.264  0.3894 -0.0674  0.1519
  393MOL0     C52954  10.889   8.450  11.336  0.4882 -0.2983  0.1111
  393MOL0     C52955  10.865   8.328  11.272 -0.6205  0.3425  0.0297
  393MOL0     O52956  10.846   8.219  11.345 -0.2081 -0.1550  0.1964
  393MOL0     C52957  10.714   8.160  11.311  0.4183  0.6461 -0.1581
  393MOL0     C52958  10.654   8.108  11.443  0.2966 -0.3539 -0.7894
  393MOL0     C52959  10.517   8.041  11.436  0.9232 -0.1698 -0.1244
  393MOL0     C52960  10.521   7.904  11.360  0.1574 -0.6691 -0.3900
  393MOL0     C52961  10.572   7.779  11.449 -0.6282 -0.0083  0.0242
  393MOL0     C52962  10.459   7.727  11.536 -0.6017  0.4897  0.7674
  393MOL0     C52963  10.500   7.621  11.638 -0.0733 -0.7044 -0.4890
  393MOL0     C52964  10.560   7.504  11.558 -0.6756  0.9350 -0.2383
  393MOL0    Cl52965  10.738   7.534  11.536 -0.4522 -0.2748  0.3050
  393MOL0     C52966  10.873   8.323  11.130  0.5166 -0.3112 -0.3017
  393MOL0     C52967  10.928   8.434  11.062  0.3275  0.1312  0.1502
  393MOL0     O52968  11.185   8.560  10.964  0.2603 -0.6600 -0.2796
  393MOL0     C52969  11.088   8.905  10.934  0.5120  0.1940  0.2533
  393MOL0     C52970  11.107   9.024  10.866  0.8413 -0.1299 -0.2426
  393MOL0     N52971  11.341   9.641  10.859 -0.4049  0.1005  0.6874
  393MOL0     N52972  11.459   9.684  10.839 -0.9068 -0.4187  0.1616
  393MOL0     C52973  11.454  10.631  10.695  0.3013  0.6664  0.0338
  393MOL0     C52974  11.363  10.733  10.744 -0.7276  0.0452 -0.9299
  393MOL0     C52975  11.030  11.026  10.703 -0.9886  0.3134 -0.5766
  393MOL0     C52976  10.946  11.084  10.607 -0.3771 -0.6313 -0.4462
  393MOL0     C52977  10.887  11.209  10.625  0.8477 -0.6295 -0.0538
  393MOL0     C52978  10.909  11.282  10.738 -0.0321  0.2124  0.7896
  393MOL0     O52979  10.846  11.412  10.746 -0.3627 -0.1968  0.3942
  393MOL0     C52980  10.884  11.488  10.865 -0.1368 -0.0771 -0.0032
  393MOL0     C52981  10.811  11.619  10.881  0.5026  0.2594  0.1801
  393MOL0     C52982  10.661  11.605  10.897  0.3535 -0.2800 -0.4909
  393MOL0     C52983  10.622  11.514  11.017  0.3927 -0.5273 -0.4365
  393MOL0     C52984  10.674  11.576  11.141  0.7116 -0.2159 -1.0064
  393MOL0     C52985  10.714  11.627  11.248  0.8153  0.6084  0.7495
  393MOL0     C52986  10.988  11.218  10.834 -0.9193 -0.2112  0.1601
  393MOL0     C52987  11.030  11.088  10.822 -0.2749  0.5693  0.5910
  393MOL0     H52988  11.068  10.577  10.761  0.5670  0.8117  2.0336
  393MOL0     H52989  11.212  10.385  10.695 -0.8062  0.6824 -2.0173
  393MOL0     H52990  11.551  10.477  10.468 -1.8601 -2.8180 -1.0511
  393MOL0     H52991  11.668  10.467  10.604  0.4356 -1.0004  2.5229
  393MOL0     H52992  11.694  10.334  10.414 -0.3184 -0.0696 -0.4168
  393MOL0     H52993  11.699  10.232  10.554  0.7638  0.8441  0.0392
  393MOL0     H52994  11.438  10.165  10.474 -0.8422 -2.8263 -2.7441
  393MOL0     H52995  11.472  10.276  10.339 -1.2833 -0.7206 -0.4332
  393MOL0     H52996  11.493  10.033  10.261 -0.5362 -0.0828 -0.0665
  393MOL0     H52997  11.634  10.128  10.242 -0.3469 -1.5093 -0.8927
  393MOL0     H52998  11.703   9.923  10.321  0.4723 -1.9511  1.7562
  393MOL0     H52999  11.722  10.047  10.448 -0.5662  2.3698 -2.4086
  393MOL0     H53000  11.485   9.930  10.530  1.3274  2.0168  0.9538
  393MOL0     H53001  11.546   9.803  10.423  2.1426  0.3075 -1.5476
  393MOL0     H53002  11.769   9.825  10.522 -0.1980  2.7543 -0.6674
  393MOL0     H53003  11.713   9.918  10.650  0.1616  0.0908  0.0640
  393MOL0     H53004  11.689   9.700  10.748 -1.2885  3.3688  2.1835
  393MOL0     H53005  11.643   9.629  10.599 -1.5678  1.0779 -2.9665
  393MOL0     H53006  11.350   9.686  10.537  0.0624  4.2702  0.7556
  393MOL0     H53007  11.087   9.561  10.797  1.5440 -0.7063 -0.1109
  393MOL0     H53008  11.096   9.695  10.677  0.4751  0.0797 -3.6308
  393MOL0     H53009  11.155   9.555  10.508 -2.1828  2.2678  0.5081
  393MOL0     H53010  11.018   9.467  10.585 -0.0712 -1.9819 -1.9598
  393MOL0     H53011  11.314   9.394  10.591  1.0186 -4.5089  1.3704
  393MOL0     H53012  11.188   9.309  10.513  1.0268 -1.7648  0.1013
  393MOL0     H53013  11.076   9.276  10.749  0.3411  0.9879 -1.3343
  393MOL0     H53014  11.239   9.294  10.814  0.0814 -2.1310  0.7310
  393MOL0     H53015  11.356   8.924  10.664 -0.2470  2.7770 -1.4318
  393MOL0     H53016  11.287   8.602  10.736  0.2313  0.1217  0.8949
  393MOL0     H53017  11.381   8.717  10.647 -0.8617 -1.6022 -1.3550
  393MOL0     H53018  11.437   8.675  10.804  0.7876  0.9826 -0.9662
  393MOL0     H53019  10.961   8.658  11.305 -0.4010  0.2123  0.2566
  393MOL0     H53020  10.901   8.458  11.444 -0.7401 -0.9763  0.3098
  393MOL0     H53021  10.648   8.235  11.266  0.4208 -0.7312 -2.6592
  393MOL0     H53022  10.735   8.083  11.237  2.7197 -1.4664  2.4598
  393MOL0     H53023  10.729   8.041  11.486  1.5114  0.6604 -1.2311
  393MOL0     H53024  10.637   8.190  11.514  3.5884  2.2263 -2.6943
  393MOL0     H53025  10.436   8.105  11.401  0.9459  1.5953  2.7336
  393MOL0     H53026  10.483   8.024  11.538  0.1647 -0.4818 -0.4274
  393MOL0     H53027  10.415   7.893  11.334 -0.3950  1.8227  0.4864
  393MOL0     H53028  10.592   7.926  11.280  2.5931  4.9501  2.7226
  393MOL0     H53029  10.653   7.806  11.517  0.6214 -1.9759 -0.6066
  393MOL0     H53030  10.616   7.706  11.380  2.2993 -0.1257  1.8799
  393MOL0     H53031  10.406   7.809  11.587 -0.6841  1.6731 -1.1130
  393MOL0     H53032  10.385   7.673  11.475  0.1475 -0.0125  0.2931
  393MOL0     H53033  10.426   7.580  11.707  3.0760 -2.3126  2.2509
  393MOL0     H53034  10.576   7.661  11.705 -0.8699  1.3820 -0.7843
  393MOL0     H53035  10.505   7.481  11.466  2.3596 -0.6319 -1.8179
  393MOL0     H53036  10.557   7.410  11.614  3.2377  1.7000  1.5797
  393MOL0     H53037  10.854   8.230  11.076 -1.5210 -0.5048  0.6464
  393MOL0     H53038  10.967   8.436  10.961  0.2927  0.2848  0.1401
  393MOL0     H53039  11.012   8.915  11.010 -0.2469  3.9001 -0.7888
  393MOL0     H53040  11.044   9.110  10.887  3.3010  0.8589  4.1647
  393MOL0     H53041  11.558  10.660  10.696  0.9287 -1.3659  2.4596
  393MOL0     H53042  11.396  10.833  10.768  0.1044 -0.6711  1.1173
  393MOL0     H53043  10.939  11.024  10.516  1.3690  1.9183 -2.3819
  393MOL0     H53044  10.828  11.238  10.539 -2.9768  0.7205  2.6876
  393MOL0     H53045  10.877  11.422  10.952  0.4713  0.4269  0.4403
  393MOL0     H53046  10.991  11.512  10.862  0.0898 -1.0386 -2.5839
  393MOL0     H53047  10.825  11.678  10.790 -2.8899 -1.2743 -1.5517
  393MOL0     H53048  10.848  11.671  10.970 -1.1947  0.9297  0.5460
  393MOL0     H53049  10.610  11.570  10.807  0.1924 -0.7055 -0.2441
  393MOL0     H53050  10.621  11.706  10.912  3.1618  0.9434 -0.7626
  393MOL0     H53051  10.670  11.416  11.017 -2.2634 -1.9218 -0.3573
  393MOL0     H53052  10.514  11.502  11.027  0.3291  0.6665  0.4447
  393MOL0     H53053  10.742  11.681  11.336 -1.1533  2.5967  0.2669
  393MOL0     H53054  11.004  11.281  10.921 -0.9307  1.1326 -0.7790
  393MOL0     H53055  11.084  11.048  10.907  2.6353  0.4419 -1.1760
  394MOL0     O53056   8.265   1.564   1.103  0.1331 -0.8298 -0.5481
  394MOL0     C53057   8.159   1.536   1.155 -0.4329  0.3458  0.0568
  394MOL0     O53058   8.133   1.431   1.247 -0.2753 -0.2420  0.0365
  394MOL0     C53059   8.233   1.382   1.325 -0.7992 -1.0689  0.9324
  394MOL0     C53060   8.346   1.448   1.349 -0.2659 -0.4499  0.1752
  394MOL0     C53061   8.449   1.388   1.426  0.0432  0.6294  0.4487
  394MOL0     C53062   8.444   1.259   1.475  0.9447 -0.1827 -1.0872
  394MOL0     O53063   8.551   1.213   1.562  1.0487  0.3403  0.0468
  394MOL0     C53064   8.559   1.071   1.597 -0.2289  0.4440  0.2343
  394MOL0     C53065   8.655   1.045   1.713  0.0905 -0.5379 -0.2861
  394MOL0     C53066   8.807   1.081   1.674 -0.1912 -0.2352 -0.1508
  394MOL0     C53067   8.837   1.218   1.742 -0.3646 -0.6741 -0.3135
  394MOL0     C53068   8.991   1.238   1.724 -0.5176  0.2703  0.0209
  394MOL0     C53069   9.041   1.232   1.576 -0.5802 -0.3625 -0.1958
  394MOL0     C53070   8.972   1.324   1.481 -0.3341 -0.3050 -0.2608
  394MOL0     C53071   9.002   1.308   1.330 -0.8341 -0.0596 -0.3208
  394MOL0     N53072   8.928   1.415   1.267  0.5200  0.0224 -0.1993
  394MOL0     C53073   8.802   1.396   1.215 -0.4657 -1.1139 -0.9527
  394MOL0     C53074   8.770   1.521   1.177  0.8690 -0.0399 -0.3452
  394MOL0     C53075   8.641   1.564   1.124 -0.1420  0.3562 -0.0871
  394MOL0     C53076   8.634   1.585   0.973  0.0155 -0.4210  0.2821
  394MOL0     C53077   8.553   1.480   0.905  0.7635  0.0513  0.2530
  394MOL0     C53078   8.548   1.499   0.746  0.2732  0.7157  0.2054
  394MOL0     O53079   8.684   1.512   0.692 -0.0245  0.1760  0.1728
  394MOL0     C53080   8.705   1.481   0.561  0.1584 -0.6194 -1.0324
  394MOL0     C53081   8.645   1.373   0.500  0.6408  0.6903  0.1597
  394MOL0     C53082   8.655   1.362   0.365  0.2381  0.2785 -0.5487
  394MOL0     C53083   8.559   1.270   0.301 -0.1479  0.0567  0.4943
  394MOL0     C53084   8.746   1.451   0.287 -0.5530 -0.5301  0.1710
  394MOL0     C53085   8.766   1.437   0.137  0.3622  0.2671  0.7748
  394MOL0     O53086   8.725   1.328   0.068  0.0631 -0.2563  1.0790
  394MOL0     C53087   8.793   1.302  -0.045 -0.7264  0.3850 -0.3458
  394MOL0     C53088   8.730   1.311  -0.169  0.3254 -0.9822  0.2813
  394MOL0     C53089   8.797   1.284  -0.292  0.1123 -0.5195  0.1578
  394MOL0     C53090   8.926   1.228  -0.289 -0.4898 -0.5064 -0.6743
  394MOL0     O53091   8.975   1.195  -0.419 -0.2091 -0.7548 -0.3308
  394MOL0     C53092   9.102   1.127  -0.425 -1.1288 -0.0426 -0.0774
  394MOL0     C53093   9.136   1.104  -0.562  0.2663 -0.0508  0.3806
  394MOL0     C53094   9.077   0.966  -0.599  0.1120 -0.5118  0.1303
  394MOL0     C53095   9.081   0.937  -0.744 -0.8667 -0.0860  0.3234
  394MOL0     C53096   8.952   0.895  -0.801 -0.0574 -0.2296 -0.0026
  394MOL0     C53097   8.909   0.758  -0.745  0.1265  0.8851  0.1377
  394MOL0     C53098   8.778   0.709  -0.811  1.0319  0.2294 -0.8909
  394MOL0     C53099   8.713   0.586  -0.764  0.0555 -0.1821 -0.3592
  394MOL0    Cl53100   8.833   0.452  -0.794  0.3304  0.0496  0.3194
  394MOL0     C53101   8.980   1.191  -0.160 -0.1218 -0.2960  0.4336
  394MOL0     C53102   8.918   1.242  -0.042  0.3481  1.1740  0.1457
  394MOL0     O53103   8.824   1.533   0.086  0.5337  0.1870 -0.9890
  394MOL0     C53104   8.811   1.552   0.362 -0.7629  0.6647  0.1847
  394MOL0     C53105   8.792   1.565   0.493  0.0100  1.0586  0.5047
  394MOL0     N53106   8.870   1.614   1.219  0.1895  0.5435 -0.0700
  394MOL0     N53107   8.956   1.545   1.274 -0.5620  0.4440  0.0568
  394MOL0     C53108   8.326   1.188   1.445  0.5508  0.1231 -0.1944
  394MOL0     C53109   8.214   1.256   1.377  0.4897  0.3177  0.9682
  394MOL0     C53110   8.050   1.620   1.106 -0.9258 -0.3446 -0.3054
  394MOL0     C53111   8.065   1.735   1.028  0.9230  0.2965  0.7994
  394MOL0     C53112   7.957   1.806   0.977  0.1557  0.6050  0.2798
  394MOL0     C53113   7.828   1.763   1.009  0.4464 -0.9414 -0.1285
  394MOL0     O53114   7.715   1.816   0.966  1.1537 -0.2878 -0.1384
  394MOL0     C53115   7.723   1.954   0.916 -0.1878 -0.0007 -0.2083
  394MOL0     C53116   7.752   1.954   0.767  0.2080 -0.4814  0.4402
  394MOL0     C53117   7.638   1.879   0.690 -0.6181  0.1837 -0.9665
  394MOL0     C53118   7.668   1.864   0.539 -1.5961 -0.2709 -0.1466
  394MOL0     C53119   7.606   1.740   0.500  0.2186 -0.1151  0.7930
  394MOL0     C53120   7.562   1.631   0.476  0.4526  0.4401 -0.2999
  394MOL0     C53121   7.805   1.648   1.079 -0.6147 -0.2760 -0.0764
  394MOL0     C53122   7.915   1.576   1.129 -0.2620 -0.1919  0.4895
  394MOL0     H53123   8.353   1.554   1.324  2.7209 -0.4955  0.4917
  394MOL0     H53124   8.532   1.456   1.445  1.3327 -0.4282 -1.1380
  394MOL0     H53125   8.463   1.028   1.623 -0.3902  0.8310  0.2896
  394MOL0     H53126   8.590   1.004   1.516  0.4918 -0.7206  1.4356
  394MOL0     H53127   8.614   1.093   1.803 -0.9538 -1.5277 -0.2086
  394MOL0     H53128   8.648   0.937   1.729 -0.0174 -0.6236 -0.8853
  394MOL0     H53129   8.869   1.013   1.734 -0.6437  0.8979  1.6877
  394MOL0     H53130   8.833   1.077   1.568 -2.0344 -3.8874 -0.6256
  394MOL0     H53131   8.787   1.308   1.706  0.1728  1.4707  3.6557
  394MOL0     H53132   8.823   1.227   1.850  1.9812  0.2470 -0.0264
  394MOL0     H53133   9.017   1.334   1.772 -1.1437  2.0346 -2.9285
  394MOL0     H53134   9.041   1.160   1.782 -2.7938 -1.9836 -0.8885
  394MOL0     H53135   9.144   1.267   1.579 -1.0211  1.0236 -0.0615
  394MOL0     H53136   9.021   1.132   1.538  1.6749 -0.9361  0.0216
  394MOL0     H53137   8.866   1.299   1.492 -0.0470 -0.8599  1.5764
  394MOL0     H53138   8.983   1.430   1.506 -1.2117 -0.2619 -0.0488
  394MOL0     H53139   8.984   1.206   1.296 -1.9217 -0.6118  1.7428
  394MOL0     H53140   9.109   1.328   1.320 -0.7516  1.6539  2.7082
  394MOL0     H53141   8.751   1.300   1.203 -1.3123 -0.7170 -0.6097
  394MOL0     H53142   8.576   1.478   1.138  0.5940 -0.3822 -1.1142
  394MOL0     H53143   8.607   1.658   1.168 -0.5835  1.7839 -3.2066
  394MOL0     H53144   8.737   1.592   0.937 -0.1538  0.3256 -0.0708
  394MOL0     H53145   8.588   1.682   0.955 -2.0918 -1.0705  1.8031
  394MOL0     H53146   8.451   1.478   0.946  0.8877 -0.3286  0.5460
  394MOL0     H53147   8.605   1.386   0.928  2.8390  1.3079  0.9194
  394MOL0     H53148   8.491   1.589   0.723 -1.7796  0.0878  2.4533
  394MOL0     H53149   8.487   1.420   0.700  2.5884 -0.7266 -0.6226
  394MOL0     H53150   8.589   1.302   0.559  0.3874 -0.8716 -1.8558
  394MOL0     H53151   8.509   1.324   0.220 -1.6066 -0.8341  0.7568
  394MOL0     H53152   8.605   1.178   0.265  2.2397  0.4755  2.2280
  394MOL0     H53153   8.474   1.239   0.364 -3.6100  1.5401 -3.0179
  394MOL0     H53154   8.632   1.355  -0.171  1.0747  0.8151  1.1896
  394MOL0     H53155   8.747   1.303  -0.386 -0.1639  0.8248  0.5621
  394MOL0     H53156   9.181   1.183  -0.375 -0.1911 -1.4367  0.0468
  394MOL0     H53157   9.097   1.035  -0.367  0.3201  0.3028  0.6365
  394MOL0     H53158   9.096   1.182  -0.628 -0.5417 -1.2173 -0.5480
  394MOL0     H53159   9.244   1.100  -0.583  0.7382 -0.9395  2.7235
  394MOL0     H53160   8.971   0.974  -0.572  0.5537  2.2154  1.3641
  394MOL0     H53161   9.126   0.886  -0.543  1.6055  0.5066  0.3443
  394MOL0     H53162   9.120   1.027  -0.794  1.9883 -0.7568  1.1559
  394MOL0     H53163   9.159   0.862  -0.766  0.6870  1.7031 -0.5737
  394MOL0     H53164   8.958   0.893  -0.910 -1.0849 -0.5446 -0.0605
  394MOL0     H53165   8.878   0.973  -0.782  0.2272  0.0250  0.0791
  394MOL0     H53166   8.977   0.677  -0.771 -2.0647 -1.3832  0.9588
  394MOL0     H53167   8.891   0.773  -0.638 -1.5787  1.6872 -0.2197
  394MOL0     H53168   8.785   0.694  -0.919 -1.3425 -0.8644 -0.9701
  394MOL0     H53169   8.697   0.782  -0.815 -0.1159 -1.0014 -0.9477
  394MOL0     H53170   8.625   0.566  -0.826 -0.5916 -1.0467  0.8009
  394MOL0     H53171   8.678   0.593  -0.661 -0.4771  0.4992 -0.5788
  394MOL0     H53172   9.078   1.146  -0.152  1.1393  2.3455  0.9560
  394MOL0     H53173   8.956   1.215   0.056 -0.7424  0.4816  0.3875
  394MOL0     H53174   8.888   1.613   0.315 -0.7052  0.2672 -0.2447
  394MOL0     H53175   8.847   1.650   0.534 -4.3193  3.1189  2.6519
  394MOL0     H53176   8.313   1.085   1.477 -0.8555  0.6004  0.8398
  394MOL0     H53177   8.121   1.206   1.352 -0.0458  0.2362  2.9224
  394MOL0     H53178   8.158   1.777   0.992  1.1387  1.3477  2.4886
  394MOL0     H53179   7.968   1.899   0.923 -0.9184 -0.4336 -1.8607
  394MOL0     H53180   7.627   2.005   0.933 -0.0384 -0.1416  1.1367
  394MOL0     H53181   7.787   2.016   0.979  0.7134  1.3302 -2.3240
  394MOL0     H53182   7.850   1.909   0.746 -0.2651 -1.7158  0.8585
  394MOL0     H53183   7.752   2.057   0.728  0.2250  0.1172  1.9532
  394MOL0     H53184   7.539   1.917   0.715 -1.2034 -0.3527 -2.3746
  394MOL0     H53185   7.639   1.782   0.739 -1.0152  1.1773  1.1177
  394MOL0     H53186   7.776   1.856   0.520 -1.5646  1.9498 -1.2221
  394MOL0     H53187   7.627   1.946   0.481 -2.0773 -1.4763 -1.5571
  394MOL0     H53188   7.525   1.532   0.461 -1.9051  1.2236 -0.0922
  394MOL0     H53189   7.708   1.609   1.109  0.2005 -0.5566  2.4263
  394MOL0     H53190   7.897   1.484   1.184  1.6167 -2.6672 -2.7379
  395MOL0     O53191   7.410   0.740   1.343 -0.2388  0.2696 -0.4868
  395MOL0     C53192   7.507   0.757   1.268 -0.5064 -0.3249 -0.6437
  395MOL0     O53193   7.512   0.832   1.156  0.0161  0.3440  0.0445
  395MOL0     C53194   7.391   0.907   1.141 -0.3802 -0.6530  0.7809
  395MOL0     C53195   7.382   1.038   1.173  0.1092  0.0565 -0.2726
  395MOL0     C53196   7.272   1.113   1.126  0.3515 -0.1939  0.2345
  395MOL0     C53197   7.165   1.048   1.063  0.0159  0.1800 -0.1572
  395MOL0     O53198   7.060   1.119   1.016 -0.5176  0.5288 -0.0558
  395MOL0     C53199   7.008   1.235   1.082 -0.4222 -0.5219 -0.7070
  395MOL0     C53200   6.856   1.230   1.119 -0.2124 -0.1377 -0.5421
  395MOL0     C53201   6.827   1.119   1.223 -0.7910 -1.2205  0.2505
  395MOL0     C53202   6.673   1.113   1.234 -0.5437 -0.1384  0.7228
  395MOL0     C53203   6.627   1.056   1.374 -0.8522 -0.1038  0.0328
  395MOL0     C53204   6.650   0.915   1.379 -0.1545  1.1865 -0.5812
  395MOL0     C53205   6.554   0.845   1.478 -0.1382  0.1565 -0.9861
  395MOL0     C53206   6.588   0.885   1.621 -0.2589 -0.0286  0.0353
  395MOL0     N53207   6.735   0.852   1.651  0.9634 -0.2396 -1.0875
  395MOL0     C53208   6.812   0.751   1.594  0.0942 -0.1455  0.8585
  395MOL0     C53209   6.938   0.791   1.622 -0.3271  0.5625 -1.4018
  395MOL0     C53210   7.060   0.731   1.562 -0.2617 -0.1805 -0.8025
  395MOL0     C53211   7.097   0.581   1.597 -0.1133 -0.3011 -0.2016
  395MOL0     C53212   7.235   0.537   1.549 -0.5748 -0.2623  1.0407
  395MOL0     C53213   7.263   0.384   1.580  0.7472 -0.0052  0.0100
  395MOL0     O53214   7.400   0.360   1.572  0.3619 -0.4758  0.4077
  395MOL0     C53215   7.470   0.258   1.635  0.6928 -0.1974 -0.6990
  395MOL0     C53216   7.599   0.240   1.581  0.6561  0.5328  0.1335
  395MOL0     C53217   7.677   0.127   1.632 -0.6642  0.1289 -0.4468
  395MOL0     C53218   7.816   0.113   1.575  0.0968 -0.4256  0.8596
  395MOL0     C53219   7.625   0.040   1.738 -0.3965 -0.5042 -0.5606
  395MOL0     C53220   7.695  -0.076   1.806 -0.7037  0.7077 -0.8601
  395MOL0     O53221   7.653  -0.121   1.933  0.8398  0.0787 -0.4181
  395MOL0     C53222   7.709  -0.234   1.983 -0.4553  0.9285 -0.1245
  395MOL0     C53223   7.649  -0.358   1.963  0.8030 -0.2506 -0.4024
  395MOL0     C53224   7.718  -0.477   1.981 -0.3282  0.0718 -0.3134
  395MOL0     C53225   7.844  -0.479   2.052  0.6013 -0.2763  1.2946
  395MOL0     O53226   7.909  -0.596   2.068  0.4707 -0.8277 -0.4887
  395MOL0     C53227   8.020  -0.606   2.150  1.1573 -0.1156 -0.2814
  395MOL0     C53228   8.127  -0.703   2.088  0.0251 -0.0659 -0.3761
  395MOL0     C53229   8.066  -0.843   2.058  1.1098 -0.1123  0.0126
  395MOL0     C53230   8.122  -0.923   1.940 -0.6117 -1.3317 -0.0990
  395MOL0     C53231   8.060  -1.052   1.928  0.1124  0.6622 -0.1405
  395MOL0     C53232   8.117  -1.128   1.806  0.1382 -0.1933  0.2820
  395MOL0     C53233   8.042  -1.264   1.799  0.0102  0.1349 -0.2659
  395MOL0     C53234   8.107  -1.368   1.709  0.7261  0.2670  0.0856
  395MOL0    Cl53235   7.983  -1.491   1.697  0.1718  0.2188 -0.4458
  395MOL0     C53236   7.901  -0.353   2.074 -0.5585 -0.1723  0.5797
  395MOL0     C53237   7.837  -0.233   2.039  0.9225  0.2929  0.2126
  395MOL0     O53238   7.797  -0.123   1.745 -0.3651  0.0224  0.2506
  395MOL0     C53239   7.494   0.071   1.788  0.4367 -1.5302 -0.2204
  395MOL0     C53240   7.412   0.171   1.732  0.1466  0.6539 -0.3659
  395MOL0     N53241   6.930   0.897   1.700  0.6222 -0.0491 -1.0018
  395MOL0     N53242   6.812   0.944   1.707  0.5292 -0.4969  0.2295
  395MOL0     C53243   7.171   0.912   1.031 -0.0605  0.0118 -0.2591
  395MOL0     C53244   7.281   0.839   1.081 -0.1062 -0.8235  0.2347
  395MOL0     C53245   7.634   0.687   1.300  0.3437 -0.1419 -0.0020
  395MOL0     C53246   7.647   0.615   1.418 -0.3314 -0.5169 -0.3506
  395MOL0     C53247   7.770   0.547   1.447 -1.4477  0.5370  0.1229
  395MOL0     C53248   7.868   0.537   1.349  0.7024  0.3732 -0.0838
  395MOL0     O53249   7.959   0.440   1.391 -0.8786  0.5478 -0.7297
  395MOL0     C53250   8.038   0.367   1.300  0.0862  0.2836  0.1734
  395MOL0     C53251   8.163   0.321   1.376  0.5868  0.0487  0.4627
  395MOL0     C53252   8.281   0.271   1.290  0.1899  0.0521  0.6545
  395MOL0     C53253   8.355   0.393   1.228 -0.7601 -0.0422  0.5862
  395MOL0     C53254   8.469   0.343   1.145  0.8799  0.8479  1.0108
  395MOL0     C53255   8.559   0.309   1.069 -0.3253 -0.0640 -0.0028
  395MOL0     C53256   7.858   0.608   1.229  0.7190  0.1071  0.4920
  395MOL0     C53257   7.742   0.686   1.213 -0.1924 -0.4236 -0.4978
  395MOL0     H53258   7.458   1.093   1.228  0.9099 -1.1396 -0.1535
  395MOL0     H53259   7.273   1.215   1.161 -0.7824 -0.3890  0.8925
  395MOL0     H53260   7.056   1.240   1.180 -0.0653  0.2157 -0.9035
  395MOL0     H53261   7.021   1.325   1.020 -1.4921 -0.6283 -1.0960
  395MOL0     H53262   6.827   1.328   1.156  1.5723  1.0037 -1.9988
  395MOL0     H53263   6.807   1.220   1.022  0.6235  3.9402 -1.5650
  395MOL0     H53264   6.875   1.023   1.199 -0.6740 -0.8759 -0.9656
  395MOL0     H53265   6.886   1.141   1.312  0.5284 -1.2306 -0.5858
  395MOL0     H53266   6.643   1.218   1.240 -0.6484 -0.1421  0.2977
  395MOL0     H53267   6.627   1.056   1.153  0.8857 -0.1282 -0.1366
  395MOL0     H53268   6.690   1.100   1.452 -2.5854 -0.5173  1.7525
  395MOL0     H53269   6.520   1.074   1.392 -0.5542  0.5910  1.2015
  395MOL0     H53270   6.633   0.859   1.287  1.5039 -0.1587 -0.1321
  395MOL0     H53271   6.756   0.900   1.401 -0.6333 -1.5267  0.3107
  395MOL0     H53272   6.451   0.858   1.445 -0.6418 -4.1293 -1.7957
  395MOL0     H53273   6.571   0.738   1.460 -0.9460 -0.0020 -0.8511
  395MOL0     H53274   6.509   0.846   1.686 -1.0490  0.0068 -0.8778
  395MOL0     H53275   6.574   0.993   1.630  3.3039  0.7716 -2.3900
  395MOL0     H53276   6.784   0.672   1.525  3.2188 -1.4692  0.9234
  395MOL0     H53277   7.045   0.733   1.453 -1.9461  2.3691 -0.5989
  395MOL0     H53278   7.145   0.796   1.587 -2.3385  2.2012  0.5748
  395MOL0     H53279   7.024   0.521   1.541  0.9797  0.9622 -3.1814
  395MOL0     H53280   7.084   0.563   1.704 -1.1680  1.4195 -0.0050
  395MOL0     H53281   7.311   0.610   1.580  0.7144 -0.7135 -0.9056
  395MOL0     H53282   7.247   0.548   1.441 -0.1267 -0.4211  1.0722
  395MOL0     H53283   7.220   0.326   1.498 -0.1593  1.5413 -0.6472
  395MOL0     H53284   7.222   0.349   1.675 -1.2358 -1.6676 -1.3826
  395MOL0     H53285   7.649   0.299   1.505  2.6598  0.9673  1.7054
  395MOL0     H53286   7.818   0.022   1.513 -0.1923  0.0395  0.1579
  395MOL0     H53287   7.845   0.198   1.514 -0.4125 -1.7763 -1.4019
  395MOL0     H53288   7.891   0.103   1.654 -0.1053  1.6966  1.3602
  395MOL0     H53289   7.552  -0.340   1.918  1.1870 -1.6531 -1.9138
  395MOL0     H53290   7.673  -0.573   1.957  0.4324 -0.7646  1.4737
  395MOL0     H53291   8.075  -0.513   2.167  2.7873 -0.9073 -0.9869
  395MOL0     H53292   7.986  -0.643   2.247 -2.8536  2.3616 -0.5193
  395MOL0     H53293   8.168  -0.649   2.002  1.1411  1.4738  1.0385
  395MOL0     H53294   8.214  -0.719   2.153  1.1651 -0.8533 -2.0211
  395MOL0     H53295   7.959  -0.823   2.042 -0.3150 -1.8155  5.3223
  395MOL0     H53296   8.052  -0.901   2.150 -4.1777  0.3537 -0.1546
  395MOL0     H53297   8.114  -0.858   1.852  1.7495 -1.7540 -0.6832
  395MOL0     H53298   8.231  -0.924   1.949 -0.6280  0.0766  0.5631
  395MOL0     H53299   7.951  -1.042   1.925  0.0935  1.0510  1.1627
  395MOL0     H53300   8.084  -1.109   2.017 -0.7069 -2.6146 -1.8782
  395MOL0     H53301   8.106  -1.067   1.716  1.7920  1.4776  1.1405
  395MOL0     H53302   8.226  -1.140   1.802  0.6345  3.5818 -2.4509
  395MOL0     H53303   7.943  -1.240   1.757  1.1876  1.9715 -2.2047
  395MOL0     H53304   8.022  -1.309   1.896  0.8900 -1.9511 -1.0035
  395MOL0     H53305   8.205  -1.407   1.738  2.2523  4.2261  0.9195
  395MOL0     H53306   8.123  -1.319   1.613  1.6614 -1.5355 -0.7060
  395MOL0     H53307   7.996  -0.338   2.124 -1.3196  1.1691  1.6873
  395MOL0     H53308   7.885  -0.138   2.060 -3.8021  2.7065  1.6041
  395MOL0     H53309   7.441   0.007   1.857 -1.7405  1.4422  1.0625
  395MOL0     H53310   7.312   0.181   1.773  0.4907  0.7916  0.4603
  395MOL0     H53311   7.088   0.866   0.977  1.4603 -1.0587 -1.8059
  395MOL0     H53312   7.285   0.732   1.065  3.8479 -0.4684 -2.5278
  395MOL0     H53313   7.552   0.614   1.471 -2.4752  3.2040 -3.5579
  395MOL0     H53314   7.781   0.488   1.538  2.8417  0.3896 -0.2896
  395MOL0     H53315   7.992   0.281   1.251  0.4558 -0.1836  0.6385
  395MOL0     H53316   8.066   0.421   1.208 -1.6837 -0.4961 -0.8591
  395MOL0     H53317   8.140   0.234   1.437  1.0245 -1.9056 -2.0128
  395MOL0     H53318   8.186   0.407   1.440 -0.6994  1.8959 -1.4217
  395MOL0     H53319   8.236   0.204   1.215  4.2195  0.9678 -3.0126
  395MOL0     H53320   8.350   0.220   1.358  0.5802  1.0324  1.0123
  395MOL0     H53321   8.407   0.448   1.307 -1.2373  3.1782 -1.1727
  395MOL0     H53322   8.287   0.455   1.169 -0.0130  0.4071  0.1846
  395MOL0     H53323   8.644   0.286   1.007 -0.2754 -1.1150  0.4400
  395MOL0     H53324   7.941   0.630   1.164  0.5219  1.6929  0.7400
  395MOL0     H53325   7.752   0.749   1.125 -0.7084 -2.3692 -2.0302
  396MOL0     O53326   1.065   2.425   0.801  1.0250 -0.1797  0.2720
  396MOL0     C53327   1.132   2.356   0.878  1.4154 -0.7892 -0.3233
  396MOL0     O53328   1.070   2.271   0.972 -0.4187  0.1371 -0.1251
  396MOL0     C53329   0.937   2.269   1.009  0.7945 -0.5492 -0.2096
  396MOL0     C53330   0.843   2.371   0.992 -0.5332 -1.2232  0.1694
  396MOL0     C53331   0.708   2.365   1.026  0.1364  0.0828  0.1558
  396MOL0     C53332   0.657   2.245   1.079 -1.5385 -0.0239 -0.2415
  396MOL0     O53333   0.530   2.223   1.119 -0.4701  0.4327 -0.0008
  396MOL0     C53334   0.429   2.320   1.104 -0.3744 -0.4718  0.3897
  396MOL0     C53335   0.370   2.339   0.957  0.8049 -0.2154 -0.2857
  396MOL0     C53336   0.254   2.438   0.945 -0.1818 -0.1371  0.0473
  396MOL0     C53337   0.297   2.582   0.962 -0.0111  0.1381  0.6527
  396MOL0     C53338   0.194   2.691   0.905  1.1756 -0.3777 -0.0846
  396MOL0     C53339   0.226   2.826   0.943 -0.0490 -0.0376 -0.2060
  396MOL0     C53340   0.131   2.936   0.902  0.3886  0.3660 -0.4211
  396MOL0     C53341  -0.022   2.922   0.910  0.3746  0.2122 -0.4099
  396MOL0     N53342  -0.080   2.863   1.038 -0.9230  0.4558  0.6961
  396MOL0     C53343  -0.071   2.921   1.157  0.7869 -0.4031  0.3655
  396MOL0     C53344  -0.116   2.829   1.245 -0.2294  0.6481 -0.5323
  396MOL0     C53345  -0.115   2.830   1.394 -0.1173 -0.4542  0.0605
  396MOL0     C53346   0.019   2.822   1.467  0.0723 -0.1053  0.1230
  396MOL0     C53347   0.096   2.702   1.423  0.4854 -0.4536  0.0974
  396MOL0     C53348   0.219   2.681   1.514 -0.3949 -0.7760 -0.5448
  396MOL0     O53349   0.311   2.581   1.472  0.8997  0.3760  0.4617
  396MOL0     C53350   0.427   2.626   1.407 -0.2594  0.6524 -0.0087
  396MOL0     C53351   0.436   2.749   1.337  0.4439  0.7128  0.7231
  396MOL0     C53352   0.544   2.788   1.265 -0.3476  0.8292  0.7327
  396MOL0     C53353   0.537   2.920   1.191 -0.0840 -0.2115 -0.0143
  396MOL0     C53354   0.648   2.693   1.250 -1.2233 -0.2291 -0.7886
  396MOL0     C53355   0.756   2.715   1.153  0.8315  0.1614  0.3236
  396MOL0     O53356   0.874   2.733   1.215  0.0255  1.4487 -0.8396
  396MOL0     C53357   0.987   2.771   1.139  0.4263  0.6954 -0.5018
  396MOL0     C53358   1.025   2.905   1.112 -0.2675  0.0571  1.2353
  396MOL0     C53359   1.153   2.917   1.059  0.8134 -0.6221 -0.7660
  396MOL0     C53360   1.225   2.810   1.006 -0.8899  0.3879  1.2513
  396MOL0     O53361   1.341   2.833   0.936 -0.0315 -0.3748 -0.4806
  396MOL0     C53362   1.339   2.831   0.790 -0.9478  0.0807 -0.2869
  396MOL0     C53363   1.454   2.926   0.742  0.1479 -0.4564  0.3437
  396MOL0     C53364   1.405   3.077   0.756 -0.5101  0.1384 -0.1793
  396MOL0     C53365   1.521   3.173   0.714 -0.6500 -0.2752  0.5591
  396MOL0     C53366   1.465   3.304   0.679 -0.0189  0.5124 -0.8246
  396MOL0     C53367   1.575   3.391   0.617  1.1596  0.5513 -0.4546
  396MOL0     C53368   1.514   3.499   0.524 -0.0265  0.2879 -0.7804
  396MOL0     C53369   1.490   3.438   0.386  0.2933  1.0551 -1.1785
  396MOL0    Cl53370   1.486   3.562   0.254  0.0238  0.1411 -0.9003
  396MOL0     C53371   1.176   2.679   1.023  0.2665 -0.3796  0.0998
  396MOL0     C53372   1.063   2.662   1.094 -0.3564 -0.0885 -0.4530
  396MOL0     O53373   0.732   2.740   1.030 -0.3777  0.5330 -0.8053
  396MOL0     C53374   0.644   2.562   1.318  0.1948 -0.3461 -0.0136
  396MOL0     C53375   0.528   2.533   1.397  0.4468 -0.1991  0.0198
  396MOL0     N53376  -0.162   2.720   1.179  0.0637 -0.4689  0.3639
  396MOL0     N53377  -0.137   2.745   1.050  0.2645  0.0067 -0.1327
  396MOL0     C53378   0.752   2.145   1.109  0.4303  0.5951  0.4436
  396MOL0     C53379   0.890   2.156   1.070  0.1666  0.0623 -0.3804
  396MOL0     C53380   1.276   2.347   0.856  0.4082 -0.0779  1.0576
  396MOL0     C53381   1.341   2.402   0.740  0.8804 -0.1554  0.5322
  396MOL0     C53382   1.480   2.396   0.707  0.5005  0.7642  0.6995
  396MOL0     C53383   1.562   2.320   0.801  0.5594 -0.2653 -0.4936
  396MOL0     O53384   1.692   2.306   0.778 -0.8296 -0.1153 -0.2225
  396MOL0     C53385   1.779   2.217   0.853 -0.0572 -0.4354  0.2039
  396MOL0     C53386   1.847   2.296   0.966 -0.1421 -0.6674  0.3778
  396MOL0     C53387   1.950   2.390   0.897  0.2452 -0.5058  0.1915
  396MOL0     C53388   2.051   2.466   0.980 -0.5038 -0.4976  0.2947
  396MOL0     C53389   2.100   2.589   0.899  0.1530  0.1705  0.7347
  396MOL0     C53390   2.119   2.697   0.841 -0.7566  0.1015  0.2611
  396MOL0     C53391   1.501   2.274   0.912 -0.8599  0.2144 -0.5613
  396MOL0     C53392   1.370   2.282   0.946  0.2108 -0.6764 -0.1710
  396MOL0     H53393   0.862   2.469   0.951  0.1256 -1.4657 -0.1072
  396MOL0     H53394   0.648   2.454   1.008  0.1073 -0.3172 -1.9945
  396MOL0     H53395   0.344   2.286   1.164 -0.7527 -0.5912 -0.2136
  396MOL0     H53396   0.459   2.420   1.138 -2.2134 -0.0708  0.9470
  396MOL0     H53397   0.457   2.371   0.899  2.7213  1.0404  3.0280
  396MOL0     H53398   0.320   2.249   0.919 -0.7001  1.0911 -1.5358
  396MOL0     H53399   0.212   2.435   0.844  0.4562  1.7596 -0.3192
  396MOL0     H53400   0.173   2.417   1.016  1.9471 -1.5063  2.1924
  396MOL0     H53401   0.296   2.599   1.070 -0.2131  1.1004  0.5113
  396MOL0     H53402   0.397   2.608   0.927 -0.7337 -0.8913 -2.5603
  396MOL0     H53403   0.192   2.681   0.796 -0.8441 -1.3388 -0.0228
  396MOL0     H53404   0.090   2.670   0.932  1.6935 -1.4908  1.1254
  396MOL0     H53405   0.235   2.822   1.052  0.0283 -2.0857 -0.2419
  396MOL0     H53406   0.323   2.842   0.895  0.4517  1.4325  1.1852
  396MOL0     H53407   0.164   3.025   0.956  1.0361 -0.6246  0.8672
  396MOL0     H53408   0.151   2.957   0.796  2.9696 -2.4456 -0.6255
  396MOL0     H53409  -0.046   2.849   0.831 -0.7969 -0.2870  0.3723
  396MOL0     H53410  -0.068   3.017   0.883  4.1104  2.1496 -0.5460
  396MOL0     H53411  -0.034   3.021   1.177 -0.0598 -0.7265  4.3297
  396MOL0     H53412  -0.150   2.928   1.428  2.6448  1.0351 -1.1181
  396MOL0     H53413  -0.181   2.750   1.430  1.0307 -1.0413  0.9273
  396MOL0     H53414  -0.000   2.835   1.574 -0.4779  0.5339 -0.0477
  396MOL0     H53415   0.078   2.911   1.441  0.5296  0.3706  2.5749
  396MOL0     H53416   0.118   2.719   1.317 -0.6524  1.2896  0.1184
  396MOL0     H53417   0.040   2.609   1.439 -2.8060  1.4092  0.2093
  396MOL0     H53418   0.177   2.648   1.610  0.8310  1.1371  0.7116
  396MOL0     H53419   0.275   2.774   1.531 -2.5533  0.6919 -0.9931
  396MOL0     H53420   0.351   2.817   1.328 -0.8357 -1.0467 -1.9715
  396MOL0     H53421   0.485   2.987   1.260  1.8261  1.8732 -0.5208
  396MOL0     H53422   0.631   2.971   1.169 -1.3398  1.3179 -2.2494
  396MOL0     H53423   0.485   2.915   1.094 -1.8206 -1.2339  0.9047
  396MOL0     H53424   0.968   2.979   1.167 -2.9738 -2.8478  2.6519
  396MOL0     H53425   1.207   3.009   1.077  1.3187 -1.3607  1.8093
  396MOL0     H53426   1.343   2.732   0.743 -1.4650  0.1318 -0.4493
  396MOL0     H53427   1.247   2.876   0.752 -1.5908 -0.1549  0.9280
  396MOL0     H53428   1.533   2.910   0.816 -1.2485  0.5237  2.1189
  396MOL0     H53429   1.492   2.895   0.644  1.1138  0.4612  0.4201
  396MOL0     H53430   1.372   3.093   0.859  1.9741 -0.7717  0.8621
  396MOL0     H53431   1.317   3.094   0.694 -1.5307  0.9980  1.4374
  396MOL0     H53432   1.602   3.189   0.786  0.2149  2.8341 -0.9096
  396MOL0     H53433   1.562   3.131   0.622 -1.6990 -3.0885  1.2707
  396MOL0     H53434   1.433   3.353   0.771  2.6278 -1.9317  1.5927
  396MOL0     H53435   1.375   3.301   0.616  1.0258  0.2023 -2.3657
  396MOL0     H53436   1.631   3.438   0.698  0.9947 -0.6970  0.4284
  396MOL0     H53437   1.645   3.330   0.559 -1.0837 -1.1593 -1.5430
  396MOL0     H53438   1.594   3.570   0.499  0.9319  0.3044  1.9993
  396MOL0     H53439   1.427   3.537   0.577  0.2937 -0.4881  0.3285
  396MOL0     H53440   1.388   3.398   0.389  0.8900 -0.7237 -2.5523
  396MOL0     H53441   1.555   3.352   0.367 -2.0312 -0.7808 -1.3197
  396MOL0     H53442   1.220   2.595   0.970  0.1708  0.5357 -1.5040
  396MOL0     H53443   1.033   2.559   1.108  0.4678 -0.2886 -0.0694
  396MOL0     H53444   0.724   2.492   1.296  1.0297  0.3400  0.7785
  396MOL0     H53445   0.506   2.441   1.450 -1.6078 -0.4581 -1.1634
  396MOL0     H53446   0.715   2.060   1.166  1.5602  0.9198  1.7252
  396MOL0     H53447   0.956   2.070   1.080 -1.8070 -1.3961  0.9408
  396MOL0     H53448   1.271   2.443   0.667 -0.3387 -0.2566  1.6116
  396MOL0     H53449   1.528   2.436   0.618 -1.3981 -0.9470 -1.1894
  396MOL0     H53450   1.731   2.124   0.886 -0.9728  0.0188  0.1998
  396MOL0     H53451   1.853   2.200   0.774  0.3717  2.2145 -0.0543
  396MOL0     H53452   1.899   2.228   1.034  0.9434 -0.0275  0.2080
  396MOL0     H53453   1.775   2.356   1.021  1.0089  0.3747  0.7859
  396MOL0     H53454   1.878   2.458   0.852  0.8161  3.1118  4.1570
  396MOL0     H53455   2.007   2.348   0.814  1.3162  2.9938 -1.0016
  396MOL0     H53456   2.138   2.407   1.013  1.5726  2.8097  1.1813
  396MOL0     H53457   2.003   2.503   1.071 -2.1043  1.3147 -1.2286
  396MOL0     H53458   2.142   2.780   0.777  0.9245 -0.7955 -0.3470
  396MOL0     H53459   1.557   2.231   0.994 -0.0139  0.7459 -0.8546
  396MOL0     H53460   1.340   2.238   1.040  0.7396 -2.4485 -0.7986
  397MOL0     O53461   3.521   8.647   8.302 -0.1193 -0.0602  0.2159
  397MOL0     C53462   3.599   8.564   8.259  0.2568  0.5212 -0.2259
  397MOL0     O53463   3.571   8.469   8.173  0.3820 -0.7600 -0.1302
  397MOL0     C53464   3.438   8.437   8.148 -0.5509  0.0602  0.0822
  397MOL0     C53465   3.387   8.325   8.214 -0.7314  0.3500  0.1782
  397MOL0     C53466   3.251   8.288   8.211 -0.6609  0.0734 -1.4773
  397MOL0     C53467   3.162   8.357   8.134  0.3230 -1.2494  0.3831
  397MOL0     O53468   3.027   8.337   8.120 -0.3170  0.6390 -0.2061
  397MOL0     C53469   2.978   8.202   8.119  0.7719  0.1799 -0.3127
  397MOL0     C53470   2.817   8.212   8.129 -0.3110 -0.0653  1.3067
  397MOL0     C53471   2.751   8.317   8.032 -0.0756 -1.1349 -0.4487
  397MOL0     C53472   2.630   8.249   7.963 -0.5159 -0.2049 -0.2520
  397MOL0     C53473   2.523   8.339   7.906 -0.2722 -0.8024  0.4571
  397MOL0     C53474   2.429   8.412   7.999 -0.4475 -0.1927 -0.9035
  397MOL0     C53475   2.304   8.451   7.915  0.8600 -0.2807 -0.5390
  397MOL0     C53476   2.187   8.518   7.998 -0.6803 -0.2165  1.0123
  397MOL0     N53477   2.055   8.496   7.941  0.8066  0.9315 -0.2615
  397MOL0     C53478   1.971   8.389   7.957 -0.4351 -0.3251 -0.3942
  397MOL0     C53479   1.865   8.413   7.870  0.2159  0.6637 -0.6664
  397MOL0     C53480   1.751   8.317   7.851  0.7120  0.6608  0.1443
  397MOL0     C53481   1.679   8.306   7.990 -0.0424  0.0135  0.6742
  397MOL0     C53482   1.562   8.209   7.977  1.0804 -0.2022 -0.4821
  397MOL0     C53483   1.487   8.175   8.105 -1.1599 -0.2549 -0.2161
  397MOL0     O53484   1.448   8.301   8.171 -0.1441  0.6261 -0.1251
  397MOL0     C53485   1.313   8.305   8.190  0.1233  0.2874  0.0943
  397MOL0     C53486   1.207   8.304   8.099 -0.0833  0.0976 -0.6845
  397MOL0     C53487   1.075   8.309   8.141 -0.4866  0.1364 -0.5567
  397MOL0     C53488   0.976   8.313   8.032  0.4067 -0.7632  0.8508
  397MOL0     C53489   1.034   8.324   8.269  0.6239  0.5212  0.2433
  397MOL0     C53490   0.896   8.346   8.314  0.0913  1.2532 -0.2846
  397MOL0     O53491   0.789   8.366   8.227 -0.6713  0.8948 -1.1522
  397MOL0     C53492   0.667   8.407   8.274  0.1097  0.2184 -0.0385
  397MOL0     C53493   0.547   8.329   8.271  0.4136  0.4898  1.3376
  397MOL0     C53494   0.430   8.373   8.337  0.8180 -0.0013 -0.0357
  397MOL0     C53495   0.437   8.498   8.404 -0.2048 -0.2615 -0.4335
  397MOL0     O53496   0.319   8.529   8.457  0.2827 -0.3577 -0.6771
  397MOL0     C53497   0.313   8.565   8.593 -0.1496  0.1160 -0.3850
  397MOL0     C53498   0.255   8.456   8.685  0.5928  0.0781  0.3481
  397MOL0     C53499   0.096   8.452   8.654  0.2923  0.2467 -0.6185
  397MOL0     C53500   0.010   8.407   8.774 -0.6648 -0.7094  0.9559
  397MOL0     C53501  -0.141   8.406   8.763  1.1544 -0.2720  0.1692
  397MOL0     C53502  -0.210   8.361   8.893 -0.3751 -1.0231  0.7626
  397MOL0     C53503  -0.218   8.482   8.989 -0.5761 -0.6420 -0.1298
  397MOL0     C53504  -0.257   8.435   9.138  0.6440  0.6623  0.8090
  397MOL0    Cl53505  -0.203   8.559   9.256 -0.1482  0.0007  0.0502
  397MOL0     C53506   0.559   8.571   8.403 -0.5942  0.5089 -0.3775
  397MOL0     C53507   0.664   8.529   8.329  0.2447 -0.1084  1.1252
  397MOL0     O53508   0.882   8.355   8.437 -0.5916  0.5314 -0.6268
  397MOL0     C53509   1.152   8.333   8.365  0.0093  0.2180 -0.4008
  397MOL0     C53510   1.280   8.337   8.323 -0.1285 -0.4388 -0.3274
  397MOL0     N53511   1.883   8.541   7.815  0.0844 -0.4679 -0.3444
  397MOL0     N53512   1.994   8.589   7.866 -0.3231 -0.6691  0.6937
  397MOL0     C53513   3.212   8.470   8.066  0.7103  0.7096 -0.1414
  397MOL0     C53514   3.344   8.516   8.079 -0.3640 -0.0195  0.4587
  397MOL0     C53515   3.741   8.570   8.293 -0.8542 -0.2943 -0.1236
  397MOL0     C53516   3.813   8.699   8.314 -0.0849  0.7406 -0.5401
  397MOL0     C53517   3.944   8.700   8.346 -0.0332 -0.2925 -0.1296
  397MOL0     C53518   4.022   8.585   8.363 -0.5282  0.0630  0.1356
  397MOL0     O53519   4.154   8.606   8.392  0.4101 -0.0511  0.1577
  397MOL0     C53520   4.237   8.498   8.435 -0.0779  0.4952 -0.4708
  397MOL0     C53521   4.339   8.561   8.532  0.1038  0.4648  0.0919
  397MOL0     C53522   4.433   8.460   8.605 -0.1921 -0.0925  0.2204
  397MOL0     C53523   4.464   8.330   8.529  0.6216 -0.2765 -0.2780
  397MOL0     C53524   4.569   8.260   8.615 -0.0690 -0.3878  0.3033
  397MOL0     C53525   4.659   8.222   8.679 -0.4305 -0.4613 -0.5792
  397MOL0     C53526   3.955   8.460   8.356 -0.3763  0.4114  0.5541
  397MOL0     C53527   3.817   8.453   8.317  1.0806 -0.5997 -0.2510
  397MOL0     H53528   3.446   8.254   8.271 -2.3666 -2.1119 -1.0446
  397MOL0     H53529   3.217   8.220   8.288  2.2940  2.2063  2.0558
  397MOL0     H53530   3.008   8.146   8.030 -1.5194 -2.4117  0.4297
  397MOL0     H53531   3.018   8.155   8.209 -2.7702  0.9915  1.8505
  397MOL0     H53532   2.776   8.113   8.105 -4.3174  1.4207  1.3687
  397MOL0     H53533   2.782   8.235   8.229 -2.8400  0.6174  0.3352
  397MOL0     H53534   2.714   8.404   8.086 -0.3818  0.4010 -2.9701
  397MOL0     H53535   2.817   8.354   7.953  3.9493  1.6887  3.7241
  397MOL0     H53536   2.668   8.177   7.891 -0.6627 -2.5263  1.8581
  397MOL0     H53537   2.565   8.191   8.029  0.1461  1.6391  2.2091
  397MOL0     H53538   2.577   8.415   7.849  0.7209 -1.6372  0.2558
  397MOL0     H53539   2.472   8.271   7.839  3.0315 -3.0551 -0.0365
  397MOL0     H53540   2.406   8.370   8.098  2.1456  1.7590  0.6696
  397MOL0     H53541   2.473   8.510   8.022  0.0761 -0.0832 -2.2837
  397MOL0     H53542   2.335   8.520   7.836  2.0587  0.1880  0.3122
  397MOL0     H53543   2.251   8.364   7.874 -0.7579 -0.4452  1.6513
  397MOL0     H53544   2.198   8.626   8.009 -0.8709 -0.1199  0.2829
  397MOL0     H53545   2.193   8.475   8.098 -2.3159  0.0208  1.2372
  397MOL0     H53546   1.988   8.299   8.015 -0.9077 -0.6445 -0.7501
  397MOL0     H53547   1.680   8.348   7.774  1.6667 -0.0785 -1.0588
  397MOL0     H53548   1.791   8.220   7.821 -1.3337 -0.0485 -0.4269
  397MOL0     H53549   1.640   8.394   8.043 -2.2408 -1.0772  0.9645
  397MOL0     H53550   1.759   8.266   8.054 -0.4636 -2.3055 -0.1687
  397MOL0     H53551   1.598   8.110   7.946 -1.8577 -1.4875 -0.1555
  397MOL0     H53552   1.487   8.251   7.910 -1.4813  1.8003  3.2714
  397MOL0     H53553   1.556   8.117   8.167  0.4742 -1.0163 -2.5772
  397MOL0     H53554   1.400   8.114   8.081 -0.4992 -2.1268  1.8647
  397MOL0     H53555   1.229   8.305   7.992  2.4638  0.5609 -0.1994
  397MOL0     H53556   1.012   8.297   7.930 -3.8905  3.1095 -1.6874
  397MOL0     H53557   0.914   8.225   8.055  1.5103 -1.1419  2.5993
  397MOL0     H53558   0.924   8.409   8.022  1.4057 -0.1528  1.4170
  397MOL0     H53559   0.541   8.233   8.220 -1.1493 -0.3211  2.9232
  397MOL0     H53560   0.332   8.327   8.339  2.2901 -3.6036  2.8905
  397MOL0     H53561   0.409   8.587   8.642 -1.8042  0.3934  2.9805
  397MOL0     H53562   0.267   8.663   8.605  1.6452  1.7102 -4.6065
  397MOL0     H53563   0.297   8.359   8.655 -2.9616 -1.2163 -0.9635
  397MOL0     H53564   0.264   8.488   8.790  0.9867  1.1378  0.0083
  397MOL0     H53565   0.076   8.382   8.572  0.4114 -0.3773 -0.1162
  397MOL0     H53566   0.066   8.555   8.631  0.6782  0.2013 -1.3616
  397MOL0     H53567   0.047   8.306   8.792  1.7376  0.2416  1.8884
  397MOL0     H53568   0.048   8.451   8.867  1.4620 -5.8545  2.9236
  397MOL0     H53569  -0.177   8.336   8.687  0.6326  1.4099 -1.2046
  397MOL0     H53570  -0.191   8.493   8.722 -1.5242 -1.4565  0.7054
  397MOL0     H53571  -0.314   8.333   8.873 -0.8489  0.0214  1.6052
  397MOL0     H53572  -0.165   8.274   8.941  1.4200 -0.0255  0.9796
  397MOL0     H53573  -0.301   8.547   8.959  0.1286 -0.3777 -1.5811
  397MOL0     H53574  -0.122   8.533   8.982 -1.3771  0.7753 -1.3337
  397MOL0     H53575  -0.208   8.339   9.156  0.0637  0.0857 -0.5345
  397MOL0     H53576  -0.364   8.414   9.148  0.0174  2.9502 -0.4142
  397MOL0     H53577   0.569   8.676   8.429 -0.7123  0.0872  1.4876
  397MOL0     H53578   0.755   8.590   8.332 -0.3215  0.9249 -0.7207
  397MOL0     H53579   1.143   8.345   8.473  2.0321 -2.9519  0.2498
  397MOL0     H53580   1.361   8.340   8.396  2.3445 -1.8945 -2.8148
  397MOL0     H53581   3.158   8.529   7.992  1.4904  1.2264 -0.3057
  397MOL0     H53582   3.366   8.616   8.041 -2.0449  0.1207 -0.2456
  397MOL0     H53583   3.757   8.792   8.306 -0.2929  0.5475 -1.4143
  397MOL0     H53584   4.006   8.787   8.366 -0.4312  0.3523 -1.5681
  397MOL0     H53585   4.195   8.410   8.486  3.5485 -0.1088  1.8770
  397MOL0     H53586   4.287   8.458   8.346 -0.2347  0.8785 -0.7318
  397MOL0     H53587   4.288   8.624   8.605  1.5087  1.7198  0.0285
  397MOL0     H53588   4.400   8.631   8.475 -1.0819  0.7348 -0.8913
  397MOL0     H53589   4.371   8.423   8.687 -1.1471  3.3141  1.2364
  397MOL0     H53590   4.515   8.515   8.653  1.7617 -0.1600 -2.7817
  397MOL0     H53591   4.483   8.340   8.422 -2.0682 -0.8372 -0.8808
  397MOL0     H53592   4.371   8.273   8.524  0.8860 -0.5833 -2.2501
  397MOL0     H53593   4.736   8.193   8.748 -1.2627 -1.1759  0.0721
  397MOL0     H53594   4.019   8.372   8.368  0.9613  1.5344  2.0738
  397MOL0     H53595   3.773   8.354   8.309 -1.7584  0.4260  1.3440
  398MOL0     O53596   8.992   4.575   5.855  0.1967  0.3272  0.4199
  398MOL0     C53597   9.102   4.616   5.820 -0.5499 -0.0713 -1.3743
  398MOL0     O53598   9.127   4.744   5.782  0.3001  0.4399  0.9217
  398MOL0     C53599   9.024   4.833   5.752 -0.8696  0.8923 -0.1264
  398MOL0     C53600   9.056   4.966   5.758 -0.1219  0.1060  0.0604
  398MOL0     C53601   8.954   5.059   5.749 -0.2472 -0.1269 -0.0270
  398MOL0     C53602   8.825   5.030   5.719  0.4873 -0.3656 -0.6359
  398MOL0     O53603   8.722   5.112   5.728  0.2279 -0.1184  0.2468
  398MOL0     C53604   8.742   5.249   5.763  0.3134  0.0635 -1.1530
  398MOL0     C53605   8.604   5.329   5.748  0.5232  0.1135  0.0247
  398MOL0     C53606   8.505   5.265   5.853 -0.1188  0.1404  0.5482
  398MOL0     C53607   8.364   5.338   5.825 -0.9157  0.0218 -0.1974
  398MOL0     C53608   8.249   5.287   5.909 -0.2575  0.0041 -0.3376
  398MOL0     C53609   8.115   5.319   5.844 -0.2257  0.1452 -0.0832
  398MOL0     C53610   8.096   5.471   5.806 -0.4954 -0.8679  0.3477
  398MOL0     C53611   8.091   5.557   5.927  0.2378  0.2893  0.6003
  398MOL0     N53612   8.033   5.692   5.910  0.2135 -0.3447  0.3358
  398MOL0     C53613   7.901   5.721   5.927 -0.5967 -0.1373 -0.2456
  398MOL0     C53614   7.888   5.843   5.877 -0.4768 -0.6969 -0.3844
  398MOL0     C53615   7.759   5.928   5.875  0.1911 -0.5669 -0.2931
  398MOL0     C53616   7.668   5.919   6.006  1.0854  0.2893 -0.5486
  398MOL0     C53617   7.664   6.061   6.075 -0.5046  0.3872 -0.7144
  398MOL0     C53618   7.540   6.060   6.166 -0.2781 -0.6654  0.6420
  398MOL0     O53619   7.547   6.193   6.226 -0.0914  1.0614 -0.6845
  398MOL0     C53620   7.484   6.205   6.357 -0.1117 -1.0891 -0.1234
  398MOL0     C53621   7.367   6.136   6.394 -0.6139  0.9282  1.0951
  398MOL0     C53622   7.302   6.152   6.515  0.3843  0.2667  0.1434
  398MOL0     C53623   7.177   6.076   6.533  0.7421 -0.1354 -0.2692
  398MOL0     C53624   7.365   6.228   6.612 -0.5813 -0.2951 -0.9599
  398MOL0     C53625   7.325   6.237   6.752 -0.1850 -0.2173 -0.7471
  398MOL0     O53626   7.418   6.295   6.842  0.2131  0.2440  0.4852
  398MOL0     C53627   7.378   6.291   6.980 -0.2485 -0.7224  0.2504
  398MOL0     C53628   7.379   6.169   7.050  0.4698  0.0964 -0.1287
  398MOL0     C53629   7.326   6.161   7.180 -0.3243  0.5853  0.3477
  398MOL0     C53630   7.269   6.269   7.243 -0.3577 -0.3944  1.3565
  398MOL0     O53631   7.218   6.272   7.369 -0.6674 -0.1270  0.2080
  398MOL0     C53632   7.133   6.164   7.396  0.1392 -0.7832  0.6986
  398MOL0     C53633   7.002   6.221   7.467 -1.0109 -0.1271  0.3578
  398MOL0     C53634   7.036   6.322   7.573  0.3353 -1.3893  1.4930
  398MOL0     C53635   6.983   6.458   7.519 -0.4286  0.8848 -0.9197
  398MOL0     C53636   7.016   6.567   7.616  0.3269 -0.6254 -0.5802
  398MOL0     C53637   6.923   6.581   7.736  0.2897  0.3505 -0.2916
  398MOL0     C53638   6.773   6.613   7.705 -0.2683 -0.7271 -0.1167
  398MOL0     C53639   6.687   6.633   7.823 -0.7886  0.0457 -0.0667
  398MOL0    Cl53640   6.723   6.520   7.954 -0.3314  0.7151 -0.0311
  398MOL0     C53641   7.279   6.393   7.177  0.9218 -0.0216  0.1904
  398MOL0     C53642   7.330   6.404   7.044 -0.3280  0.5359 -0.2945
  398MOL0     O53643   7.229   6.171   6.783  0.4366 -0.0503  0.3110
  398MOL0     C53644   7.490   6.292   6.577  0.8246 -0.2356  0.6806
  398MOL0     C53645   7.541   6.286   6.450  0.1712 -0.7014  0.0176
  398MOL0     N53646   8.015   5.891   5.833  0.5176  0.0192  0.4787
  398MOL0     N53647   8.105   5.797   5.867  0.6955  0.5171  0.9762
  398MOL0     C53648   8.793   4.895   5.700  0.6142  0.6268 -0.2910
  398MOL0     C53649   8.889   4.798   5.722  0.1287  0.2829  0.6904
  398MOL0     C53650   9.218   4.522   5.816  0.4136 -0.0746  0.6207
  398MOL0     C53651   9.341   4.578   5.811  0.1210 -1.1061  0.2897
  398MOL0     C53652   9.453   4.496   5.823  1.1181  0.2298 -0.1066
  398MOL0     C53653   9.447   4.359   5.832  0.0353 -0.1313 -0.6158
  398MOL0     O53654   9.564   4.295   5.828 -0.2518  0.3762 -0.3144
  398MOL0     C53655   9.565   4.155   5.795  0.0379  0.6152  0.3450
  398MOL0     C53656   9.536   4.140   5.645  0.9594  0.3333 -1.0517
  398MOL0     C53657   9.660   4.110   5.562 -0.1327 -0.2186 -0.4805
  398MOL0     C53658   9.760   4.224   5.547  0.0981 -0.0313  0.8391
  398MOL0     C53659   9.719   4.362   5.566  0.4326 -0.8486  0.5305
  398MOL0     C53660   9.693   4.479   5.589 -0.8869 -0.0287 -0.2841
  398MOL0     C53661   9.318   4.303   5.838 -0.3582  0.9020  0.8947
  398MOL0     C53662   9.202   4.385   5.835 -0.3002 -0.6637 -0.2148
  398MOL0     H53663   9.154   5.001   5.791 -0.2494  0.9548 -0.4541
  398MOL0     H53664   8.972   5.165   5.768 -3.3231  0.3412  0.8513
  398MOL0     H53665   8.778   5.257   5.866  3.3549 -2.1615 -1.9238
  398MOL0     H53666   8.825   5.292   5.705 -0.4108  2.0911 -0.7844
  398MOL0     H53667   8.618   5.433   5.779  3.6463 -0.2619  0.2551
  398MOL0     H53668   8.571   5.336   5.645  1.4299  2.9986 -0.1826
  398MOL0     H53669   8.500   5.157   5.837 -3.0964  0.2530  0.1805
  398MOL0     H53670   8.540   5.288   5.954  2.7194  3.5774 -0.9965
  398MOL0     H53671   8.384   5.446   5.833  2.0908 -0.5674  2.4524
  398MOL0     H53672   8.335   5.318   5.722 -3.8708 -2.6851  0.9808
  398MOL0     H53673   8.233   5.178   5.904 -2.9371  0.3751 -2.1498
  398MOL0     H53674   8.272   5.325   6.009 -0.1882 -0.2600 -0.2519
  398MOL0     H53675   8.104   5.248   5.762  0.4551 -2.4094  1.9307
  398MOL0     H53676   8.032   5.289   5.909 -0.8080 -0.2897 -1.0092
  398MOL0     H53677   8.178   5.503   5.741  1.5864 -1.8007  2.3666
  398MOL0     H53678   8.003   5.487   5.752 -0.5996  0.4597  0.8898
  398MOL0     H53679   8.191   5.557   5.971  1.6673 -1.7003 -2.3217
  398MOL0     H53680   8.015   5.517   5.994  0.1368 -2.8735 -1.2244
  398MOL0     H53681   7.827   5.655   5.971 -1.8830 -0.2503 -2.4337
  398MOL0     H53682   7.785   6.033   5.854  1.2870 -0.5151  1.1053
  398MOL0     H53683   7.698   5.900   5.789  0.5516 -0.5481 -0.5579
  398MOL0     H53684   7.702   5.841   6.075  1.2737 -0.7828 -1.8202
  398MOL0     H53685   7.568   5.886   5.980  1.3980 -0.2198 -1.1045
  398MOL0     H53686   7.642   6.132   5.995 -1.8291 -0.9194 -1.5590
  398MOL0     H53687   7.758   6.092   6.122 -2.3680  1.3228  2.7781
  398MOL0     H53688   7.553   5.979   6.238  1.3163 -0.5412  0.5157
  398MOL0     H53689   7.442   6.045   6.118 -0.2739 -0.3891  0.5470
  398MOL0     H53690   7.322   6.073   6.318  0.0789  1.4106  0.2781
  398MOL0     H53691   7.101   6.152   6.554 -1.7903 -2.0579 -1.8862
  398MOL0     H53692   7.156   6.020   6.442 -0.8233  2.0036 -1.2998
  398MOL0     H53693   7.188   6.003   6.614  4.9046 -2.7314 -2.8137
  398MOL0     H53694   7.402   6.075   7.001 -1.7153 -1.9963  2.5578
  398MOL0     H53695   7.330   6.067   7.235 -0.6300  0.9127  0.9366
  398MOL0     H53696   7.102   6.103   7.311 -0.9440  1.1988 -0.3979
  398MOL0     H53697   7.195   6.097   7.456 -0.5680 -1.6435  0.4952
  398MOL0     H53698   6.942   6.261   7.385 -0.6380 -2.4738 -1.1721
  398MOL0     H53699   6.951   6.136   7.513  0.3732 -0.4442  1.3816
  398MOL0     H53700   7.141   6.343   7.595 -0.2745  2.1618  1.7020
  398MOL0     H53701   6.996   6.287   7.669 -0.8288 -3.0335  0.4556
  398MOL0     H53702   7.040   6.471   7.426 -2.2895  0.7353 -2.1467
  398MOL0     H53703   6.876   6.453   7.496 -0.3453 -2.6829 -1.0888
  398MOL0     H53704   7.023   6.656   7.553 -0.0221 -0.5692 -0.5407
  398MOL0     H53705   7.117   6.555   7.655  0.6141  2.6860 -0.0669
  398MOL0     H53706   6.944   6.490   7.793  0.0866 -0.4705 -1.5012
  398MOL0     H53707   6.954   6.667   7.797 -1.5719  2.2770 -1.9138
  398MOL0     H53708   6.731   6.534   7.642  0.5009 -1.3279  0.1063
  398MOL0     H53709   6.773   6.701   7.640  1.3571 -1.4879 -1.2336
  398MOL0     H53710   6.588   6.627   7.777  1.2188  2.0030 -5.4640
  398MOL0     H53711   6.683   6.730   7.874 -0.1311  0.6313 -1.0870
  398MOL0     H53712   7.249   6.480   7.234  1.5051  1.5166 -1.7633
  398MOL0     H53713   7.322   6.497   6.988  0.1248 -0.9978 -3.1186
  398MOL0     H53714   7.546   6.357   6.644  1.3040  0.1098 -0.0473
  398MOL0     H53715   7.630   6.337   6.417 -2.0792  1.8616 -2.7277
  398MOL0     H53716   8.696   4.862   5.665  0.2214 -3.8373  3.9818
  398MOL0     H53717   8.847   4.698   5.712  1.8689 -0.5028  0.8214
  398MOL0     H53718   9.353   4.686   5.800  0.2204 -1.1259  0.2015
  398MOL0     H53719   9.552   4.539   5.813  1.9125 -1.8830 -2.2126
  398MOL0     H53720   9.663   4.108   5.804  0.6510  1.8432  0.2973
  398MOL0     H53721   9.487   4.097   5.846 -1.6708  2.0265 -0.5515
  398MOL0     H53722   9.485   4.231   5.614  0.5483  0.4284 -0.1389
  398MOL0     H53723   9.468   4.056   5.628  1.9211 -0.3040 -1.8788
  398MOL0     H53724   9.632   4.077   5.461 -2.3645 -1.2535  0.4149
  398MOL0     H53725   9.713   4.029   5.613  1.0089  1.1205  0.5326
  398MOL0     H53726   9.807   4.204   5.450  1.3051  0.9559  1.2027
  398MOL0     H53727   9.837   4.213   5.623 -2.0540  2.0870  3.5751
  398MOL0     H53728   9.672   4.581   5.614 -0.7757  0.1426 -0.8571
  398MOL0     H53729   9.316   4.196   5.856 -1.0936  0.2639 -2.3519
  398MOL0     H53730   9.106   4.335   5.834  0.2636 -1.8810  1.5836
  399MOL0     O53731   6.269   2.716   0.046 -0.3044 -0.0622 -0.2734
  399MOL0     C53732   6.344   2.810   0.019 -0.2888  0.2361  0.5675
  399MOL0     O53733   6.302   2.936   0.001  0.1822  0.2553 -0.7800
  399MOL0     C53734   6.183   2.968   0.068 -0.5747  0.2731  0.3174
  399MOL0     C53735   6.095   3.061   0.008 -0.2672  0.5163  0.9715
  399MOL0     C53736   5.980   3.108   0.072 -0.1155 -0.1085  0.3089
  399MOL0     C53737   5.954   3.070   0.200 -0.0298 -0.0386 -1.1003
  399MOL0     O53738   5.844   3.117   0.259 -0.4990 -0.5228  0.4141
  399MOL0     C53739   5.728   3.027   0.237  0.7453 -0.1472 -1.3706
  399MOL0     C53740   5.610   3.125   0.267  0.6817  0.6348  0.5156
  399MOL0     C53741   5.565   3.219   0.153  0.6812 -0.4138  0.0789
  399MOL0     C53742   5.485   3.341   0.205  0.0219  0.5788  0.1245
  399MOL0     C53743   5.411   3.407   0.085  0.0970  0.1584  0.3955
  399MOL0     C53744   5.330   3.533   0.129  0.3809  0.1288 -0.0765
  399MOL0     C53745   5.202   3.519   0.229  0.0888  0.3982  0.5848
  399MOL0     C53746   5.098   3.414   0.194 -0.1343  0.8234 -0.2234
  399MOL0     N53747   4.992   3.418   0.297 -1.1737  0.0303  0.5777
  399MOL0     C53748   4.877   3.481   0.266 -0.2062  0.0160  0.6378
  399MOL0     C53749   4.794   3.444   0.367 -0.2200  0.7554 -0.9229
  399MOL0     C53750   4.648   3.488   0.376 -0.8377 -0.6016 -0.6337
  399MOL0     C53751   4.555   3.414   0.289  0.7412  0.2721 -0.0137
  399MOL0     C53752   4.543   3.441   0.142  0.7181 -0.6102  0.1186
  399MOL0     C53753   4.541   3.597   0.109 -0.0606  1.0139  0.9805
  399MOL0     O53754   4.425   3.657   0.169  0.6349 -0.1444  0.1724
  399MOL0     C53755   4.315   3.674   0.092 -0.4745  0.8098  1.1187
  399MOL0     C53756   4.297   3.634  -0.050  0.1709 -0.3493 -0.4108
  399MOL0     C53757   4.170   3.641  -0.118  0.1928  0.1468 -0.0018
  399MOL0     C53758   4.166   3.579  -0.255  0.6346 -0.5620 -0.1385
  399MOL0     C53759   4.063   3.701  -0.050 -0.5115  0.3583 -0.9687
  399MOL0     C53760   3.933   3.721  -0.097  0.2874  0.8904  0.4311
  399MOL0     O53761   3.844   3.789  -0.017 -0.2829 -0.4845 -0.1029
  399MOL0     C53762   3.707   3.799  -0.043 -0.0578  0.6744  0.1095
  399MOL0     C53763   3.650   3.921  -0.054  0.7740  0.4374  0.6122
  399MOL0     C53764   3.512   3.921  -0.080  0.2420 -0.1158 -0.7874
  399MOL0     C53765   3.429   3.807  -0.090  0.5137 -0.1934  1.3716
  399MOL0     O53766   3.293   3.825  -0.117  0.4443  0.1622 -0.3561
  399MOL0     C53767   3.214   3.706  -0.123 -0.0575  0.3497  0.3559
  399MOL0     C53768   3.068   3.747  -0.131  0.0169 -0.4346 -0.3957
  399MOL0     C53769   2.961   3.646  -0.136  0.3385  0.5590  0.0825
  399MOL0     C53770   2.811   3.681  -0.125  0.5064 -0.3703  0.7939
  399MOL0     C53771   2.788   3.811  -0.035 -0.1341 -0.0634 -0.7492
  399MOL0     C53772   2.841   3.786   0.110 -0.6686 -0.2101  0.7315
  399MOL0     C53773   2.850   3.931   0.178 -0.2027 -0.2835 -0.2742
  399MOL0     C53774   2.882   3.920   0.326  0.6847 -0.1625 -0.5597
  399MOL0    Cl53775   2.741   3.837   0.402  0.0239 -0.1399  0.2055
  399MOL0     C53776   3.494   3.681  -0.086 -0.0105 -0.6170 -0.5802
  399MOL0     C53777   3.635   3.682  -0.056  0.5919  0.1078  1.1367
  399MOL0     O53778   3.903   3.686  -0.209  0.2938 -0.1406  0.6895
  399MOL0     C53779   4.084   3.744   0.089  0.4154  0.9545  0.0250
  399MOL0     C53780   4.207   3.723   0.152  0.5115  0.2830 -0.4917
  399MOL0     N53781   4.875   3.379   0.470  0.1688 -0.8967  0.1370
  399MOL0     N53782   4.992   3.372   0.426 -0.0055  0.1247 -0.1480
  399MOL0     C53783   6.048   2.985   0.258 -0.4231 -0.4001  0.2001
  399MOL0     C53784   6.151   2.928   0.192  0.0531  0.4589  0.0070
  399MOL0     C53785   6.487   2.784   0.000 -0.4112 -0.3706 -0.5492
  399MOL0     C53786   6.566   2.891  -0.042 -0.6015  0.5329  0.7407
  399MOL0     C53787   6.703   2.894  -0.025  0.2027  0.3156 -0.0959
  399MOL0     C53788   6.768   2.786   0.017 -0.0610  0.3018 -0.5844
  399MOL0     O53789   6.905   2.778   0.050 -0.0870  0.0707 -0.4251
  399MOL0     C53790   6.998   2.888   0.038  0.4868  0.3023 -0.4391
  399MOL0     C53791   7.143   2.843   0.047  0.0354  0.4121 -0.7119
  399MOL0     C53792   7.183   2.775   0.182  0.9447 -0.2034  0.1789
  399MOL0     C53793   7.326   2.722   0.187 -0.3664 -1.0658  0.5800
  399MOL0     C53794   7.403   2.848   0.217 -0.5678  0.6265 -0.0045
  399MOL0     C53795   7.453   2.959   0.236  0.1937  0.2208 -0.0928
  399MOL0     C53796   6.696   2.666   0.044 -0.2823  0.3377 -0.3437
  399MOL0     C53797   6.557   2.666   0.049 -0.3250  0.1352 -0.2606
  399MOL0     H53798   6.126   3.087  -0.093 -2.6937 -0.5873 -0.1334
  399MOL0     H53799   5.920   3.181   0.018 -0.7164 -0.1180  0.9409
  399MOL0     H53800   5.718   2.977   0.140 -1.9782 -3.4768  0.4288
  399MOL0     H53801   5.725   2.942   0.305  2.9563  1.5872  1.0714
  399MOL0     H53802   5.524   3.075   0.314  1.2131 -1.1702 -0.3358
  399MOL0     H53803   5.643   3.191   0.347  0.5407  2.3160 -0.7666
  399MOL0     H53804   5.648   3.274   0.107  0.2340 -0.5747 -0.9642
  399MOL0     H53805   5.511   3.156   0.081 -0.8480 -1.4257  2.0143
  399MOL0     H53806   5.408   3.307   0.275 -0.5488  0.5567 -0.5080
  399MOL0     H53807   5.553   3.412   0.252 -0.5052  1.8680 -1.0102
  399MOL0     H53808   5.494   3.446   0.025  1.4122 -0.2631  1.8443
  399MOL0     H53809   5.352   3.328   0.037 -0.4341  1.4068 -1.0801
  399MOL0     H53810   5.413   3.588   0.174  0.3009 -0.5296  0.9136
  399MOL0     H53811   5.291   3.595   0.048 -0.2771  2.5759  1.9726
  399MOL0     H53812   5.239   3.468   0.318 -0.7331 -1.4016 -0.0666
  399MOL0     H53813   5.159   3.612   0.266  0.5512 -0.4558  3.4953
  399MOL0     H53814   5.135   3.311   0.195 -3.0809 -0.3669  1.7460
  399MOL0     H53815   5.057   3.430   0.094 -1.3306 -3.5307 -0.6696
  399MOL0     H53816   4.843   3.533   0.177 -1.6596 -2.4305 -0.3243
  399MOL0     H53817   4.611   3.478   0.479 -0.5365 -0.1238 -0.4771
  399MOL0     H53818   4.643   3.594   0.350 -0.4553 -0.7609 -1.3813
  399MOL0     H53819   4.456   3.435   0.329 -0.1480 -1.6468 -1.0760
  399MOL0     H53820   4.572   3.306   0.292 -0.7917 -0.0052 -0.5867
  399MOL0     H53821   4.452   3.395   0.103  0.5373 -0.9421  0.9023
  399MOL0     H53822   4.635   3.395   0.104 -0.1266 -1.1400 -1.3614
  399MOL0     H53823   4.552   3.624   0.004  1.3343 -0.3742  0.7138
  399MOL0     H53824   4.637   3.635   0.147  1.0033 -1.5064  1.0666
  399MOL0     H53825   4.380   3.583  -0.098 -0.0329  1.0396 -2.3680
  399MOL0     H53826   4.176   3.666  -0.321 -1.3323  0.1079  0.3911
  399MOL0     H53827   4.244   3.504  -0.274  0.3667 -1.1868  1.1562
  399MOL0     H53828   4.067   3.537  -0.275  0.7672 -1.1163  0.3543
  399MOL0     H53829   3.706   4.014  -0.051  4.1638 -1.4556  1.0850
  399MOL0     H53830   3.466   4.018  -0.094 -0.6779  0.1131  2.8290
  399MOL0     H53831   3.246   3.641  -0.205  1.5749  1.0000  0.4263
  399MOL0     H53832   3.222   3.649  -0.030 -1.9642 -1.3221 -0.4339
  399MOL0     H53833   3.056   3.803  -0.038 -0.4857  0.6164 -1.0628
  399MOL0     H53834   3.066   3.823  -0.210  1.8204 -2.0426 -2.0894
  399MOL0     H53835   2.991   3.575  -0.058  0.0454 -0.4944 -0.7321
  399MOL0     H53836   2.976   3.596  -0.233 -1.3850  0.5552 -0.2038
  399MOL0     H53837   2.763   3.701  -0.221  0.5640  0.4306  0.9259
  399MOL0     H53838   2.757   3.594  -0.087  2.0043 -2.1560 -0.9438
  399MOL0     H53839   2.686   3.851  -0.033  0.0706  0.6606 -2.5076
  399MOL0     H53840   2.846   3.894  -0.076 -2.5017  2.0361 -0.0898
  399MOL0     H53841   2.770   3.714   0.151  1.9625 -2.7583  1.0672
  399MOL0     H53842   2.940   3.741   0.111  0.3931  2.0030  0.6553
  399MOL0     H53843   2.752   3.976   0.163 -0.0792  0.1647  0.2420
  399MOL0     H53844   2.932   3.989   0.136  0.9709 -0.6164  1.4485
  399MOL0     H53845   2.905   4.010   0.383  4.8785 -2.1602  1.4443
  399MOL0     H53846   2.968   3.854   0.347 -0.9556 -2.0675  0.5490
  399MOL0     H53847   3.436   3.589  -0.089 -3.0769  0.9095  3.0083
  399MOL0     H53848   3.688   3.588  -0.051 -1.5864 -1.3654 -1.4293
  399MOL0     H53849   4.005   3.781   0.155 -1.8694 -1.6662 -1.0349
  399MOL0     H53850   4.216   3.733   0.260  4.4397 -3.3771 -0.2095
  399MOL0     H53851   6.022   2.964   0.361  1.4432  3.1818  1.5792
  399MOL0     H53852   6.212   2.860   0.250 -0.4274 -1.0729 -1.1893
  399MOL0     H53853   6.526   2.982  -0.086  0.0659  0.4414 -0.0896
  399MOL0     H53854   6.762   2.985  -0.033  2.9092 -1.1729  1.4130
  399MOL0     H53855   6.980   2.950  -0.050  1.0405  1.5161  0.2852
  399MOL0     H53856   6.979   2.960   0.118  0.3783 -0.8839  0.6504
  399MOL0     H53857   7.197   2.937   0.031 -1.4528  1.4203 -0.0614
  399MOL0     H53858   7.177   2.770  -0.026  0.1790 -1.0142  0.7291
  399MOL0     H53859   7.121   2.686   0.199  0.1659 -0.0952 -1.8264
  399MOL0     H53860   7.161   2.840   0.268  0.0058 -0.5536  0.2185
  399MOL0     H53861   7.360   2.676   0.094 -0.4206  2.9761 -1.6626
  399MOL0     H53862   7.352   2.654   0.269 -0.7088  1.8220  3.2607
  399MOL0     H53863   7.477   3.062   0.251  1.8248  0.1569 -1.9387
  399MOL0     H53864   6.750   2.579   0.078 -2.3680 -0.7560  0.3438
  399MOL0     H53865   6.503   2.573   0.063 -1.1291  0.7628  0.9592
  400MOL0     O53866   2.464   3.110   4.920 -0.2778  1.1350  0.0396
  400MOL0     C53867   2.518   3.000   4.894  0.7169 -0.5376  0.7227
  400MOL0     O53868   2.451   2.877   4.880  0.3990  0.5538 -1.3736
  400MOL0     C53869   2.317   2.879   4.904  0.5568  0.0703  0.8547
  400MOL0     C53870   2.267   2.783   4.993 -0.1819 -0.1835  0.4040
  400MOL0     C53871   2.135   2.759   5.000  0.4411 -0.5096  0.0529
  400MOL0     C53872   2.043   2.817   4.905  0.2289 -0.4996  0.0274
  400MOL0     O53873   1.914   2.764   4.895 -0.3050  0.5634 -0.1257
  400MOL0     C53874   1.846   2.754   4.765 -0.0364  0.3355 -0.2560
  400MOL0     C53875   1.704   2.748   4.792  1.0876 -0.4294 -0.3901
  400MOL0     C53876   1.649   2.608   4.828 -0.4822 -0.4284  0.2184
  400MOL0     C53877   1.495   2.606   4.852 -0.5629  0.3619  0.6693
  400MOL0     C53878   1.442   2.461   4.862  0.2040 -0.2020  0.1570
  400MOL0     C53879   1.323   2.445   4.777 -0.1440  0.5404  0.1479
  400MOL0     C53880   1.237   2.327   4.834  0.2636  0.5852 -0.4463
  400MOL0     C53881   1.125   2.304   4.734 -0.6639  0.1320  0.8530
  400MOL0     N53882   1.015   2.203   4.772 -0.1565 -0.4746 -0.3144
  400MOL0     C53883   1.004   2.126   4.884 -1.3359  0.5747 -0.7407
  400MOL0     C53884   0.897   2.052   4.866 -0.6622 -0.0733  0.1622
  400MOL0     C53885   0.851   1.947   4.963  0.5577 -0.3996  0.3035
  400MOL0     C53886   0.764   2.010   5.071 -0.1933  0.3853 -0.4176
  400MOL0     C53887   0.642   2.085   5.031  0.6351  0.5926 -0.1897
  400MOL0     C53888   0.541   1.986   4.963 -0.4086 -0.4536 -0.1288
  400MOL0     O53889   0.410   2.043   4.943 -0.1424  0.6291  0.0334
  400MOL0     C53890   0.397   2.160   4.866  0.8015  0.2870  0.3047
  400MOL0     C53891   0.288   2.247   4.895 -0.9492 -0.2369  0.0390
  400MOL0     C53892   0.274   2.368   4.823  0.7086 -0.4910  0.9601
  400MOL0     C53893   0.165   2.462   4.858  0.9139 -0.7933 -0.7956
  400MOL0     C53894   0.376   2.407   4.730  0.4925  0.3824 -0.3241
  400MOL0     C53895   0.375   2.542   4.653 -0.2938  0.5616 -0.0859
  400MOL0     O53896   0.480   2.556   4.565  0.7247 -0.5787 -0.1887
  400MOL0     C53897   0.536   2.676   4.538 -0.2357  0.7811  1.1051
  400MOL0     C53898   0.578   2.711   4.404  0.1690  1.3750  0.3710
  400MOL0     C53899   0.656   2.822   4.374  0.8984 -0.1772  0.2118
  400MOL0     C53900   0.692   2.907   4.479 -0.5003 -0.0168 -0.0500
  400MOL0     O53901   0.758   3.024   4.453 -0.1193 -0.8599  0.7187
  400MOL0     C53902   0.863   3.010   4.351  0.2922 -0.1545 -0.0498
  400MOL0     C53903   0.924   3.146   4.329  0.7891 -0.3481 -0.2295
  400MOL0     C53904   1.027   3.187   4.431 -0.0567  1.2777 -0.0389
  400MOL0     C53905   1.057   3.334   4.401 -0.2237  0.2517 -0.8225
  400MOL0     C53906   1.198   3.370   4.470  0.3948  0.6947  0.3772
  400MOL0     C53907   1.249   3.501   4.397  0.1528 -0.5969 -0.1280
  400MOL0     C53908   1.362   3.552   4.494 -0.1492 -0.9588  0.5944
  400MOL0     C53909   1.448   3.656   4.418 -0.7501 -0.9154 -0.2329
  400MOL0    Cl53910   1.575   3.724   4.524  0.0823  0.4727 -0.7009
  400MOL0     C53911   0.644   2.879   4.610 -0.3943  0.9593  0.0486
  400MOL0     C53912   0.573   2.765   4.637  0.2387  0.3922 -0.2884
  400MOL0     O53913   0.286   2.626   4.673  0.3098  0.1393 -0.0365
  400MOL0     C53914   0.482   2.312   4.700  0.3720 -0.9178  0.2382
  400MOL0     C53915   0.490   2.189   4.764 -0.0458  0.0642 -0.5467
  400MOL0     N53916   0.842   2.090   4.749  0.0760 -0.3541 -0.7966
  400MOL0     N53917   0.912   2.172   4.683 -1.2668 -0.3739 -0.0454
  400MOL0     C53918   2.092   2.910   4.810  0.1268 -0.6869  0.0273
  400MOL0     C53919   2.228   2.950   4.818  0.5279  0.5727  0.1826
  400MOL0     C53920   2.660   2.996   4.865 -0.2065  1.1355  0.4144
  400MOL0     C53921   2.727   2.883   4.841 -0.0841 -0.2001 -0.4700
  400MOL0     C53922   2.869   2.875   4.821 -0.0234  0.0130 -0.4225
  400MOL0     C53923   2.939   2.987   4.804  0.2638 -0.8252 -0.0740
  400MOL0     O53924   3.072   3.005   4.783  0.4549  0.0625  0.3126
  400MOL0     C53925   3.153   2.886   4.762 -0.4221  0.0425  0.2718
  400MOL0     C53926   3.293   2.942   4.722  0.1663 -1.0910  0.4815
  400MOL0     C53927   3.284   3.039   4.601 -0.3185 -0.5708  0.5399
  400MOL0     C53928   3.420   3.090   4.536  0.9092 -0.1521 -0.3914
  400MOL0     C53929   3.413   3.073   4.398 -0.0795 -0.2624  0.8552
  400MOL0     C53930   3.415   3.045   4.280 -0.5348 -0.3155 -0.3223
  400MOL0     C53931   2.875   3.111   4.818 -0.5760 -0.4644 -0.3530
  400MOL0     C53932   2.743   3.110   4.844  0.5547 -0.4525  0.1546
  400MOL0     H53933   2.323   2.729   5.070  3.0828  1.5295 -0.5814
  400MOL0     H53934   2.094   2.677   5.059  0.2553 -2.7711 -2.9696
  400MOL0     H53935   1.857   2.839   4.697 -3.2791  1.2799  0.2439
  400MOL0     H53936   1.879   2.665   4.711 -0.0799  1.5329 -2.4223
  400MOL0     H53937   1.686   2.811   4.880 -1.0132  3.1374 -3.1628
  400MOL0     H53938   1.634   2.785   4.717 -0.9009 -1.1924  0.9992
  400MOL0     H53939   1.672   2.533   4.752  1.3964  0.0053  0.2966
  400MOL0     H53940   1.699   2.573   4.919 -1.6540 -1.9021  0.3191
  400MOL0     H53941   1.458   2.660   4.939 -3.2378 -2.9986  1.8194
  400MOL0     H53942   1.441   2.649   4.767  1.6528 -1.3365 -1.7775
  400MOL0     H53943   1.521   2.386   4.853  1.3021  0.9330  0.0549
  400MOL0     H53944   1.418   2.439   4.966  0.7443  0.0887  0.3466
  400MOL0     H53945   1.258   2.533   4.787 -1.6467 -0.3939 -0.8957
  400MOL0     H53946   1.346   2.423   4.672 -0.2107  1.0573  0.0211
  400MOL0     H53947   1.291   2.232   4.836  1.6205  1.3063 -1.3391
  400MOL0     H53948   1.193   2.360   4.929  2.5107 -1.1120  1.3210
  400MOL0     H53949   1.162   2.255   4.643 -0.8137 -0.2924  1.0180
  400MOL0     H53950   1.066   2.396   4.725 -3.2013 -0.9156  4.2849
  400MOL0     H53951   1.061   2.141   4.975  0.5764  5.8020 -2.4339
  400MOL0     H53952   0.788   1.874   4.911 -0.9906  1.3565 -0.3811
  400MOL0     H53953   0.931   1.889   5.011  0.1450 -1.1183  0.1450
  400MOL0     H53954   0.832   2.075   5.126  1.5760 -2.5859  1.2181
  400MOL0     H53955   0.734   1.933   5.144  1.4026  1.6424  1.6940
  400MOL0     H53956   0.658   2.179   4.978  1.0938  0.4146 -0.3740
  400MOL0     H53957   0.588   2.115   5.122  0.3648 -2.4600  0.7655
  400MOL0     H53958   0.537   1.891   5.016 -0.4210 -1.6813 -2.2353
  400MOL0     H53959   0.574   1.961   4.862 -2.1652 -0.7035 -0.6739
  400MOL0     H53960   0.212   2.208   4.962  0.5895 -2.5799  0.5141
  400MOL0     H53961   0.109   2.512   4.778 -0.3886 -0.1790  0.4367
  400MOL0     H53962   0.094   2.409   4.922  3.2355 -1.6697  1.2095
  400MOL0     H53963   0.204   2.545   4.918  1.2045  0.2586 -2.3798
  400MOL0     H53964   0.568   2.637   4.325  4.1163  0.0026  0.9426
  400MOL0     H53965   0.681   2.843   4.270 -2.1006  1.6353 -0.2620
  400MOL0     H53966   0.946   2.948   4.387  0.1042 -0.9784 -0.9823
  400MOL0     H53967   0.839   2.972   4.251 -1.1127 -0.0576  0.2233
  400MOL0     H53968   0.973   3.140   4.231 -2.2230 -1.0234 -1.7876
  400MOL0     H53969   0.852   3.227   4.315  2.1420  1.0553  0.4668
  400MOL0     H53970   1.111   3.118   4.430  3.3299  5.0634  0.6221
  400MOL0     H53971   0.980   3.169   4.528  0.9016  0.1436  0.2347
  400MOL0     H53972   1.060   3.346   4.293  1.2670 -1.6822 -1.0588
  400MOL0     H53973   0.976   3.393   4.446  0.8430  2.3318 -1.5485
  400MOL0     H53974   1.273   3.292   4.456  0.6342  0.8174  0.9203
  400MOL0     H53975   1.184   3.374   4.578  2.7362 -2.2700  0.9211
  400MOL0     H53976   1.284   3.478   4.297 -0.0140  2.1598 -0.9096
  400MOL0     H53977   1.173   3.580   4.388  0.3279 -0.2062  1.4657
  400MOL0     H53978   1.429   3.469   4.519  0.4552 -0.4138  0.7870
  400MOL0     H53979   1.319   3.608   4.577  0.2257  1.3602 -0.6824
  400MOL0     H53980   1.378   3.730   4.380  0.1500  0.3569  0.4963
  400MOL0     H53981   1.493   3.602   4.335  0.1584  1.8590 -1.6767
  400MOL0     H53982   0.671   2.951   4.687  0.7893 -0.1604  0.7229
  400MOL0     H53983   0.533   2.746   4.736 -0.3340  0.4997 -0.4955
  400MOL0     H53984   0.556   2.342   4.626  0.3005 -0.5671  0.3053
  400MOL0     H53985   0.572   2.123   4.738  0.4052 -0.4684  1.9823
  400MOL0     H53986   2.037   2.966   4.735 -0.5022  0.0774  1.0452
  400MOL0     H53987   2.256   3.040   4.765 -1.9091  1.2171 -0.1529
  400MOL0     H53988   2.677   2.787   4.833 -0.4592  0.1235 -3.0513
  400MOL0     H53989   2.925   2.783   4.810  1.7186  0.6521  2.1484
  400MOL0     H53990   3.160   2.814   4.844  2.4365 -1.2157 -0.9411
  400MOL0     H53991   3.104   2.820   4.690 -0.5622 -1.4456  1.6823
  400MOL0     H53992   3.356   2.855   4.701  2.2975  0.0451  1.7096
  400MOL0     H53993   3.337   3.004   4.802 -1.4479 -0.4580  0.9083
  400MOL0     H53994   3.234   3.129   4.637 -3.4327 -1.8689 -0.2297
  400MOL0     H53995   3.216   2.988   4.531 -2.3410 -0.4018  2.2680
  400MOL0     H53996   3.496   3.020   4.571  0.1215 -0.8489 -0.0154
  400MOL0     H53997   3.429   3.193   4.570 -1.9884 -0.1444  0.6424
  400MOL0     H53998   3.450   3.024   4.181  2.3505  2.5600 -0.0940
  400MOL0     H53999   2.929   3.205   4.817 -2.3695  0.6414 -2.7935
  400MOL0     H54000   2.699   3.208   4.861 -2.2788 -1.6325  0.2877
  401MOL0     O54001   2.090   1.640   0.860 -0.3757 -0.1152  0.1740
  401MOL0     C54002   1.966   1.658   0.873 -0.3960  0.2768 -0.6476
  401MOL0     O54003   1.905   1.755   0.946  0.7757 -0.8580 -0.3121
  401MOL0     C54004   1.997   1.853   0.985  0.1989  0.0636 -0.7718
  401MOL0     C54005   2.061   1.938   0.903  0.6106  0.6974 -0.1744
  401MOL0     C54006   2.149   2.033   0.955  0.2782  0.0207 -0.4208
  401MOL0     C54007   2.163   2.058   1.086  0.2590  0.3669  0.4053
  401MOL0     O54008   2.215   2.173   1.142 -0.0516  0.1401  0.2675
  401MOL0     C54009   2.359   2.174   1.146 -1.0256 -0.1143  0.1658
  401MOL0     C54010   2.400   2.299   1.229 -0.3408 -0.4371 -0.7732
  401MOL0     C54011   2.355   2.439   1.173  0.1542  0.4163  0.5496
  401MOL0     C54012   2.414   2.556   1.262 -0.1773  0.2679 -0.1344
  401MOL0     C54013   2.368   2.694   1.219 -0.3224  0.0838  0.4514
  401MOL0     C54014   2.356   2.799   1.330  0.3015  0.8940  0.1193
  401MOL0     C54015   2.272   2.925   1.289 -0.2480 -0.2248  0.2628
  401MOL0     C54016   2.276   3.023   1.400  0.3656  0.4535  0.8782
  401MOL0     N54017   2.173   3.119   1.366 -0.1828 -0.3805  0.5247
  401MOL0     C54018   2.207   3.247   1.333  0.6033  0.1843  0.4150
  401MOL0     C54019   2.099   3.321   1.332  0.1282  0.0290  1.4952
  401MOL0     C54020   2.069   3.463   1.278  0.0335  0.0990  0.4539
  401MOL0     C54021   2.004   3.556   1.383 -0.3102  0.2166 -0.4484
  401MOL0     C54022   2.016   3.707   1.343  0.7174  0.0771  0.1775
  401MOL0     C54023   1.982   3.737   1.196  0.3501 -0.3187 -0.2922
  401MOL0     O54024   1.853   3.690   1.173  0.3505 -0.0868 -0.1195
  401MOL0     C54025   1.799   3.724   1.054 -0.4115 -1.4231 -0.2369
  401MOL0     C54026   1.858   3.689   0.934 -0.9290  0.4765 -0.2903
  401MOL0     C54027   1.805   3.716   0.805 -0.1740 -0.2568 -0.9454
  401MOL0     C54028   1.881   3.674   0.686 -0.2153 -0.2951  0.0431
  401MOL0     C54029   1.680   3.787   0.798 -0.0806  0.6191 -0.0310
  401MOL0     C54030   1.628   3.847   0.674  0.3466 -0.4752  0.1165
  401MOL0     O54031   1.494   3.868   0.668 -0.6025  0.6104 -0.6248
  401MOL0     C54032   1.425   3.894   0.547  0.1109  0.1453 -0.2176
  401MOL0     C54033   1.303   3.972   0.578 -0.4708  0.1387 -0.0246
  401MOL0     C54034   1.219   4.010   0.478  0.1727  0.7661  0.4573
  401MOL0     C54035   1.252   3.970   0.350 -0.1105 -0.1880  0.1542
  401MOL0     O54036   1.170   4.014   0.244 -0.4615 -0.2423  0.3185
  401MOL0     C54037   1.148   3.933   0.116 -0.0355  0.5753  0.2730
  401MOL0     C54038   1.015   3.945   0.053  0.4079  0.2769  0.8424
  401MOL0     C54039   0.901   3.894   0.141  1.0899 -0.5497 -0.0909
  401MOL0     C54040   0.809   3.795   0.078  0.6070  0.1588 -0.5742
  401MOL0     C54041   0.739   3.854  -0.048 -0.1238  0.5875  0.5273
  401MOL0     C54042   0.653   3.972  -0.034  0.2804 -1.0014 -0.5630
  401MOL0     C54043   0.566   3.991  -0.155  0.0103 -0.6113 -0.0982
  401MOL0     C54044   0.453   4.088  -0.122 -0.5912  0.5791 -0.7603
  401MOL0    Cl54045   0.518   4.251  -0.127  0.2692 -0.7415 -0.0460
  401MOL0     C54046   1.361   3.894   0.322  0.5626 -0.1079 -0.5135
  401MOL0     C54047   1.452   3.847   0.419  0.3243 -0.8119 -0.6451
  401MOL0     O54048   1.717   3.885   0.589  0.5680 -0.1977 -0.2859
  401MOL0     C54049   1.614   3.827   0.920 -0.7407 -0.7594 -0.2822
  401MOL0     C54050   1.681   3.794   1.044  0.9771 -0.9902 -0.0319
  401MOL0     N54051   2.003   3.242   1.386  0.1287 -0.6056  0.3626
  401MOL0     N54052   2.052   3.122   1.410 -0.5574  0.0994 -0.7260
  401MOL0     C54053   2.091   1.972   1.175  0.1237  0.0861  0.1732
  401MOL0     C54054   2.011   1.866   1.124 -0.1029 -0.3773  1.1591
  401MOL0     C54055   1.892   1.543   0.828 -0.9638 -0.3401  0.0865
  401MOL0     C54056   1.747   1.544   0.839  0.8762  0.0418 -0.4152
  401MOL0     C54057   1.673   1.432   0.816 -0.7609  0.7413  0.6881
  401MOL0     C54058   1.735   1.306   0.783  0.7409 -0.5936  0.5681
  401MOL0     O54059   1.661   1.191   0.756  0.2562 -0.3368  1.0545
  401MOL0     C54060   1.546   1.206   0.668 -0.0007  0.0223  0.2667
  401MOL0     C54061   1.592   1.164   0.532 -1.6791 -0.2337 -0.1933
  401MOL0     C54062   1.498   1.172   0.420  0.3089  0.1653  0.7019
  401MOL0     C54063   1.565   1.119   0.287  0.6406  0.4485  0.1257
  401MOL0     C54064   1.549   0.969   0.277  1.1137  0.3180  0.1890
  401MOL0     C54065   1.544   0.850   0.257 -0.2493  0.6635 -0.3307
  401MOL0     C54066   1.869   1.297   0.771  0.3581 -0.3876 -0.0162
  401MOL0     C54067   1.953   1.416   0.782 -0.3084 -0.0680  0.3157
  401MOL0     H54068   2.044   1.915   0.798 -2.2713  0.8354  0.1914
  401MOL0     H54069   2.203   2.096   0.885  1.6509 -0.8039 -0.1355
  401MOL0     H54070   2.383   2.076   1.187  1.8927  0.2295 -0.5452
  401MOL0     H54071   2.405   2.177   1.047  0.1254  2.1042  0.7067
  401MOL0     H54072   2.349   2.300   1.326 -2.8784 -0.0850 -2.0133
  401MOL0     H54073   2.507   2.303   1.250 -0.9058  1.5431  2.6552
  401MOL0     H54074   2.396   2.456   1.073 -1.9967  0.0175 -0.4373
  401MOL0     H54075   2.246   2.443   1.171  0.1365 -0.1685 -0.7237
  401MOL0     H54076   2.393   2.535   1.367  0.1512 -0.6600 -0.2459
  401MOL0     H54077   2.523   2.561   1.256 -0.1157  0.6915  1.0222
  401MOL0     H54078   2.439   2.724   1.141 -1.0662  1.3567  0.2271
  401MOL0     H54079   2.272   2.675   1.170 -1.4253 -0.6215  2.7474
  401MOL0     H54080   2.309   2.746   1.413  0.0565 -0.2118 -0.7039
  401MOL0     H54081   2.459   2.810   1.365  0.7140  0.0142 -0.7553
  401MOL0     H54082   2.323   2.974   1.205 -1.6707 -0.5764 -0.8524
  401MOL0     H54083   2.171   2.909   1.252 -0.0828 -0.4346 -0.1004
  401MOL0     H54084   2.374   3.071   1.410  0.7243 -0.3486  1.3923
  401MOL0     H54085   2.253   2.969   1.492  1.3054 -0.3180  0.6762
  401MOL0     H54086   2.298   3.293   1.295  0.6405  0.0264  0.3128
  401MOL0     H54087   2.166   3.508   1.256 -0.5393  0.7795 -0.8280
  401MOL0     H54088   2.006   3.468   1.188  1.3873 -1.6357 -0.6612
  401MOL0     H54089   2.066   3.542   1.472 -1.1279 -0.1107  0.0776
  401MOL0     H54090   1.898   3.535   1.400 -0.4040  0.8034 -0.2764
  401MOL0     H54091   2.117   3.745   1.357  1.0611 -0.3174 -1.0711
  401MOL0     H54092   1.954   3.770   1.408  1.0258  1.1291 -0.5134
  401MOL0     H54093   2.067   3.723   1.129  0.4523  0.7974 -0.4127
  401MOL0     H54094   1.974   3.846   1.198  1.0355 -0.2618  1.8324
  401MOL0     H54095   1.956   3.644   0.944  0.0333  2.7573  1.7021
  401MOL0     H54096   1.922   3.760   0.632 -1.4515 -1.3053 -2.7061
  401MOL0     H54097   1.966   3.607   0.699  0.1954  0.0082 -0.9489
  401MOL0     H54098   1.810   3.628   0.616 -2.1557  2.5576 -0.0526
  401MOL0     H54099   1.272   3.998   0.679  3.7454  1.4110  1.1173
  401MOL0     H54100   1.133   4.068   0.511  0.5751  1.8214 -0.2861
  401MOL0     H54101   1.228   3.946   0.042  0.7885 -1.0069  0.8449
  401MOL0     H54102   1.148   3.827   0.142 -2.8172 -0.2525 -2.4641
  401MOL0     H54103   1.008   4.049   0.022  2.6533  0.4248  0.7076
  401MOL0     H54104   1.024   3.877  -0.032  2.9602  1.6466 -0.0805
  401MOL0     H54105   0.841   3.981   0.171  1.9028  0.2171 -0.6498
  401MOL0     H54106   0.944   3.847   0.230  0.8453 -1.3750 -0.3996
  401MOL0     H54107   0.867   3.709   0.044  3.2685  1.2149  0.9910
  401MOL0     H54108   0.742   3.759   0.158  1.0284  1.5110  0.4218
  401MOL0     H54109   0.680   3.765  -0.071  1.0955  0.0080 -0.5292
  401MOL0     H54110   0.811   3.880  -0.126 -0.8810  0.9537 -0.0631
  401MOL0     H54111   0.580   3.959   0.046 -0.0411 -1.5891 -0.9430
  401MOL0     H54112   0.728   4.049  -0.012 -0.8230 -0.1889  0.4734
  401MOL0     H54113   0.521   3.898  -0.192 -1.4328 -1.9158  4.3018
  401MOL0     H54114   0.629   4.035  -0.233  0.8322 -2.8249 -0.7548
  401MOL0     H54115   0.399   4.064  -0.030 -1.9443  0.1745 -1.6167
  401MOL0     H54116   0.373   4.077  -0.197 -0.2970  0.0190 -0.9980
  401MOL0     H54117   1.377   3.872   0.216  0.3609  0.6091 -0.6980
  401MOL0     H54118   1.548   3.800   0.401  2.4649  2.9333 -0.0943
  401MOL0     H54119   1.520   3.882   0.915 -0.2068  0.0768 -2.1569
  401MOL0     H54120   1.627   3.831   1.130 -1.0112  0.1781 -1.6852
  401MOL0     H54121   2.091   1.983   1.283 -0.2354 -2.3502  0.4627
  401MOL0     H54122   1.957   1.797   1.187 -1.5937 -1.0246 -0.7239
  401MOL0     H54123   1.696   1.626   0.889  2.4495  1.1849 -0.6113
  401MOL0     H54124   1.566   1.448   0.820 -0.8634 -0.0501  1.5653
  401MOL0     H54125   1.462   1.148   0.706  0.2831  0.3023  1.3646
  401MOL0     H54126   1.512   1.309   0.658 -0.0006  0.1518  1.4626
  401MOL0     H54127   1.624   1.060   0.546  3.9113  1.3258  0.9878
  401MOL0     H54128   1.681   1.221   0.505 -0.7312 -1.9944 -0.9501
  401MOL0     H54129   1.489   1.279   0.402  0.9077  0.4191  1.8125
  401MOL0     H54130   1.401   1.124   0.435  0.0172  0.2869 -0.7325
  401MOL0     H54131   1.668   1.150   0.270  0.5789  0.6923  0.1841
  401MOL0     H54132   1.505   1.164   0.207 -2.2953 -1.0062  1.3359
  401MOL0     H54133   1.550   0.746   0.235 -1.1378  0.6698 -0.6441
  401MOL0     H54134   1.904   1.197   0.746 -2.2599 -1.0506 -1.4275
  401MOL0     H54135   2.060   1.406   0.792 -0.1007 -2.1036 -2.7753
  402MOL0     O54136   0.968   4.298   8.252 -0.5239  1.1551 -0.2148
  402MOL0     C54137   0.927   4.386   8.322 -0.1763 -0.4870  0.2483
  402MOL0     O54138   0.818   4.462   8.292 -0.6937 -0.0565 -0.4243
  402MOL0     C54139   0.774   4.458   8.165 -0.0649  0.4043  0.3542
  402MOL0     C54140   0.672   4.372   8.132 -0.2885  0.4865 -0.0104
  402MOL0     C54141   0.626   4.368   8.001 -0.0779 -0.3666 -0.4154
  402MOL0     C54142   0.686   4.436   7.891 -0.0491 -0.6062 -0.4969
  402MOL0     O54143   0.638   4.428   7.763 -0.5132  0.0724  0.2476
  402MOL0     C54144   0.496   4.429   7.749 -0.4458 -1.6069 -0.5478
  402MOL0     C54145   0.462   4.457   7.603 -0.5894 -0.0629 -0.8895
  402MOL0     C54146   0.319   4.422   7.574  0.5537 -0.4572 -0.0776
  402MOL0     C54147   0.224   4.541   7.604  0.3222 -0.9291  0.3064
  402MOL0     C54148   0.085   4.516   7.537 -0.5641  1.1031 -0.0361
  402MOL0     C54149  -0.023   4.629   7.550 -1.5680 -0.3369 -0.1253
  402MOL0     C54150  -0.142   4.593   7.469 -0.1623  0.4349  0.2708
  402MOL0     C54151  -0.126   4.599   7.316  1.0682 -0.0251 -0.3902
  402MOL0     N54152  -0.262   4.581   7.249 -0.6004 -0.3518 -0.2024
  402MOL0     C54153  -0.320   4.478   7.195 -0.6231 -0.0220  0.1906
  402MOL0     C54154  -0.446   4.510   7.190  0.3020 -0.4958 -0.9515
  402MOL0     C54155  -0.549   4.438   7.113  0.2604 -0.0043  0.0757
  402MOL0     C54156  -0.655   4.528   7.043 -0.1238  0.6656 -0.4352
  402MOL0     C54157  -0.740   4.453   6.935 -0.5117  0.6685  0.0425
  402MOL0     C54158  -0.828   4.548   6.852  0.3734  0.2262 -1.0511
  402MOL0     O54159  -0.968   4.518   6.877  0.0550  0.1777 -0.0975
  402MOL0     C54160  -1.060   4.605   6.809 -0.4207 -0.0512  0.6739
  402MOL0     C54161  -1.029   4.722   6.733  0.0648  0.5880  0.2766
  402MOL0     C54162  -1.122   4.799   6.670 -0.0769  1.3434 -0.1805
  402MOL0     C54163  -1.066   4.900   6.582  0.6380 -0.4967 -0.6277
  402MOL0     C54164  -1.260   4.773   6.692 -0.0018  0.0470  1.1552
  402MOL0     C54165  -1.378   4.864   6.653  0.5912  0.0204 -1.1596
  402MOL0     O54166  -1.515   4.827   6.693 -0.2729  0.1143 -0.3943
  402MOL0     C54167  -1.620   4.915   6.679 -0.3537 -0.4695  0.5858
  402MOL0     C54168  -1.629   5.009   6.571  0.5251 -0.6695  0.3904
  402MOL0     C54169  -1.750   5.074   6.546  0.6418  0.3473 -0.0750
  402MOL0     C54170  -1.869   5.052   6.627 -0.0395  0.7694 -0.5382
  402MOL0     O54171  -1.987   5.110   6.593  0.1006 -0.2757 -0.0476
  402MOL0     C54172  -2.111   5.045   6.628 -0.5728 -0.1022 -0.4259
  402MOL0     C54173  -2.230   5.135   6.596 -0.5524  0.7269  0.7669
  402MOL0     C54174  -2.364   5.060   6.637  0.1039 -0.7503 -0.0147
  402MOL0     C54175  -2.380   4.916   6.599 -0.1412  0.3110  0.4380
  402MOL0     C54176  -2.532   4.890   6.588 -0.3023 -0.0850  0.1985
  402MOL0     C54177  -2.573   4.743   6.613 -0.0164 -0.3594 -0.1980
  402MOL0     C54178  -2.727   4.720   6.606 -0.7988 -0.1082  0.4810
  402MOL0     C54179  -2.773   4.595   6.656 -0.2700 -0.0324  0.5938
  402MOL0    Cl54180  -2.759   4.577   6.830 -0.0286 -0.1887  0.3170
  402MOL0     C54181  -1.847   4.974   6.744  0.3832 -0.2724  0.0906
  402MOL0     C54182  -1.732   4.904   6.766  0.2748  0.6045  0.9463
  402MOL0     O54183  -1.343   4.968   6.611  0.3910 -0.2812 -0.0448
  402MOL0     C54184  -1.296   4.658   6.771 -0.5172 -0.0059 -0.0390
  402MOL0     C54185  -1.196   4.571   6.829 -0.4363 -0.4010  0.4906
  402MOL0     N54186  -0.465   4.630   7.249  0.1526 -0.3930 -0.3607
  402MOL0     N54187  -0.353   4.674   7.280 -0.4196  0.7032 -0.6700
  402MOL0     C54188   0.799   4.520   7.927  0.4752  0.2543  0.3418
  402MOL0     C54189   0.834   4.530   8.061  0.0599 -0.0510 -0.5238
  402MOL0     C54190   1.010   4.436   8.438 -0.1831 -0.3775 -0.3870
  402MOL0     C54191   0.982   4.561   8.502 -0.4278  0.4613  0.8116
  402MOL0     C54192   1.058   4.605   8.607 -0.1720  0.1356  0.2248
  402MOL0     C54193   1.152   4.519   8.675 -0.5599  0.5433  0.2976
  402MOL0     O54194   1.222   4.551   8.788  0.2962  0.5600  0.4431
  402MOL0     C54195   1.215   4.687   8.823 -0.5904 -0.4634 -0.6518
  402MOL0     C54196   1.330   4.723   8.923 -0.8089  0.1748 -0.7737
  402MOL0     C54197   1.456   4.733   8.851 -0.9858  0.6156 -0.5110
  402MOL0     C54198   1.591   4.744   8.925 -0.1035 -0.3707  0.0732
  402MOL0     C54199   1.623   4.877   8.960  0.9170 -0.0180 -1.4791
  402MOL0     C54200   1.647   4.989   9.005 -0.0491 -0.0391 -0.1786
  402MOL0     C54201   1.171   4.392   8.620  0.7205 -0.5523 -0.3788
  402MOL0     C54202   1.106   4.359   8.507 -0.9200  0.6497  0.3287
  402MOL0     H54203   0.622   4.311   8.207  1.4401 -1.8341 -0.6236
  402MOL0     H54204   0.536   4.310   7.984 -0.2069 -0.8878  1.6945
  402MOL0     H54205   0.463   4.329   7.778 -1.3399 -1.7611 -2.0329
  402MOL0     H54206   0.444   4.494   7.821 -1.4273 -0.3628 -2.2975
  402MOL0     H54207   0.484   4.559   7.567 -2.0644  0.9702  0.9599
  402MOL0     H54208   0.519   4.395   7.533  1.5010 -0.5223  1.1089
  402MOL0     H54209   0.325   4.398   7.467  0.9556  2.0080 -0.6749
  402MOL0     H54210   0.276   4.335   7.624  0.0230  1.6663  3.5736
  402MOL0     H54211   0.209   4.548   7.712 -0.8949 -0.5846  0.1303
  402MOL0     H54212   0.264   4.635   7.564  1.1276 -0.7916  1.3969
  402MOL0     H54213   0.105   4.492   7.432  2.4426 -4.0977  1.3765
  402MOL0     H54214   0.048   4.425   7.585  0.8354  1.1258  1.1803
  402MOL0     H54215  -0.047   4.634   7.656  4.4540 -1.3671  1.6527
  402MOL0     H54216   0.021   4.727   7.530 -0.3811 -0.6269  0.9853
  402MOL0     H54217  -0.180   4.496   7.502 -4.2422  1.8486  0.3731
  402MOL0     H54218  -0.216   4.669   7.496 -0.2010  0.3880  0.2976
  402MOL0     H54219  -0.069   4.522   7.263  1.5675  0.9461 -1.3073
  402MOL0     H54220  -0.095   4.703   7.301  2.3922 -0.1428  1.3314
  402MOL0     H54221  -0.275   4.390   7.150  1.5782  0.1737  1.8151
  402MOL0     H54222  -0.505   4.378   7.033  0.9094  0.9221 -0.2752
  402MOL0     H54223  -0.596   4.362   7.177  3.8254 -1.9612  0.6736
  402MOL0     H54224  -0.596   4.598   6.983  0.6663  0.0553 -0.3932
  402MOL0     H54225  -0.717   4.585   7.112 -1.0938 -2.0395  1.0855
  402MOL0     H54226  -0.797   4.385   6.999  3.3953  0.0930  3.3104
  402MOL0     H54227  -0.684   4.388   6.867 -0.8729 -1.0316  1.3074
  402MOL0     H54228  -0.813   4.529   6.746 -0.3348 -3.2489 -0.6408
  402MOL0     H54229  -0.791   4.648   6.876  2.0527 -0.2006 -1.6960
  402MOL0     H54230  -0.924   4.745   6.722  0.4503 -0.9144  0.4958
  402MOL0     H54231  -1.055   4.989   6.645  0.3813 -2.4749  2.4335
  402MOL0     H54232  -0.968   4.865   6.549 -0.5532 -3.1816 -1.5586
  402MOL0     H54233  -1.121   4.911   6.489 -2.0690  1.6175  1.0672
  402MOL0     H54234  -1.553   5.023   6.495 -0.6455 -0.9597 -0.8859
  402MOL0     H54235  -1.764   5.132   6.455 -1.2804  0.3478  0.1854
  402MOL0     H54236  -2.116   4.948   6.579  2.1773 -1.2354  1.3122
  402MOL0     H54237  -2.110   5.024   6.735 -2.5242  2.5044  0.2249
  402MOL0     H54238  -2.222   5.220   6.664  4.2041 -0.5777  2.1637
  402MOL0     H54239  -2.248   5.159   6.490  0.6337 -2.3993 -0.2749
  402MOL0     H54240  -2.446   5.115   6.589 -0.0217 -0.8493  0.0852
  402MOL0     H54241  -2.380   5.065   6.745 -2.4786  0.1979 -0.3687
  402MOL0     H54242  -2.340   4.895   6.499 -2.3991  3.0957 -1.2002
  402MOL0     H54243  -2.336   4.854   6.678 -0.6492  0.3560  0.7601
  402MOL0     H54244  -2.567   4.908   6.486 -2.4347 -2.4149  0.4024
  402MOL0     H54245  -2.589   4.939   6.668  1.5832 -0.6782  1.9919
  402MOL0     H54246  -2.509   4.675   6.555  1.1291 -1.0913  1.8399
  402MOL0     H54247  -2.534   4.731   6.714  1.1080 -1.5717 -0.7384
  402MOL0     H54248  -2.761   4.723   6.501  0.9547  0.1037 -0.1016
  402MOL0     H54249  -2.788   4.789   6.665 -2.5728 -1.1666 -0.0200
  402MOL0     H54250  -2.731   4.508   6.604 -0.7005 -0.5498  1.0980
  402MOL0     H54251  -2.880   4.584   6.636  0.0660 -1.7700 -0.4761
  402MOL0     H54252  -1.932   4.960   6.811 -0.5056 -0.9818 -1.1452
  402MOL0     H54253  -1.727   4.830   6.845  0.6033  0.7957  1.1054
  402MOL0     H54254  -1.398   4.632   6.795  0.4392 -5.6255 -0.7588
  402MOL0     H54255  -1.234   4.484   6.881 -3.2731 -1.5431 -3.0633
  402MOL0     H54256   0.855   4.563   7.845  0.5549 -2.7971 -1.3544
  402MOL0     H54257   0.922   4.585   8.093  1.5003 -2.3196 -0.4008
  402MOL0     H54258   0.912   4.634   8.463  1.2263  0.3019 -2.9725
  402MOL0     H54259   1.052   4.712   8.626  1.4099  0.8547 -2.6934
  402MOL0     H54260   1.232   4.751   8.736  1.0978 -0.3758 -0.2962
  402MOL0     H54261   1.120   4.713   8.869  0.2011  0.3565  0.5837
  402MOL0     H54262   1.344   4.640   8.994  0.2333  2.1890  1.4974
  402MOL0     H54263   1.312   4.824   8.960  1.1360 -0.0867  1.0649
  402MOL0     H54264   1.460   4.823   8.788  2.5465  1.1708  0.2559
  402MOL0     H54265   1.469   4.640   8.795  1.0676 -0.4478  1.5549
  402MOL0     H54266   1.665   4.695   8.861 -0.9846  3.3479 -4.3365
  402MOL0     H54267   1.579   4.687   9.018  0.9936  0.1883  0.5828
  402MOL0     H54268   1.663   5.090   9.035 -1.7047  0.8310 -2.0372
  402MOL0     H54269   1.247   4.324   8.657 -1.2026 -1.4202  2.2272
  402MOL0     H54270   1.135   4.260   8.473 -5.4528 -1.1049  0.8745
  403MOL0     O54271  10.953  10.156   8.648 -0.0397  0.5610 -0.6424
  403MOL0     C54272  11.043  10.225   8.692 -0.5387  0.7404 -1.6514
  403MOL0     O54273  11.022  10.350   8.744  0.3554 -0.3383 -0.3739
  403MOL0     C54274  10.888  10.395   8.778 -0.7524  0.3130  0.7215
  403MOL0     C54275  10.797  10.319   8.849 -1.2635  0.0568  0.0111
  403MOL0     C54276  10.671  10.372   8.870  0.3410  0.1878 -0.1873
  403MOL0     C54277  10.635  10.499   8.829  0.1759 -0.0547 -0.3648
  403MOL0     O54278  10.507  10.532   8.856  0.2882 -0.1468 -0.3373
  403MOL0     C54279  10.494  10.671   8.887 -1.4666 -0.3211 -0.5608
  403MOL0     C54280  10.374  10.687   8.973  0.9570  0.7344 -0.0929
  403MOL0     C54281  10.239  10.662   8.890 -0.5910  0.0238 -0.8258
  403MOL0     C54282  10.171  10.783   8.835 -0.2613 -0.1153 -0.6543
  403MOL0     C54283  10.039  10.737   8.763 -0.6330 -0.2944  0.6012
  403MOL0     C54284   9.955  10.853   8.705 -0.4875 -0.2145  0.1926
  403MOL0     C54285   9.968  10.873   8.553  0.1946  0.8377 -0.3870
  403MOL0     C54286   9.969  11.026   8.507  0.1690 -0.9313  0.0497
  403MOL0     N54287  10.038  11.048   8.377 -0.5996 -0.0021  0.2822
  403MOL0     C54288  10.173  11.028   8.356  0.1355 -1.7707 -0.0322
  403MOL0     C54289  10.183  11.051   8.217  0.0294  0.1139 -0.4088
  403MOL0     C54290  10.304  11.051   8.137 -0.7815  1.2565  0.2836
  403MOL0     C54291  10.355  10.920   8.075 -0.8168  0.5946  0.9222
  403MOL0     C54292  10.412  10.830   8.191 -0.1107 -0.1111  0.0089
  403MOL0     C54293  10.504  10.714   8.147 -0.1316 -0.9557 -0.0739
  403MOL0     O54294  10.554  10.623   8.250  0.5255  0.0259 -0.3901
  403MOL0     C54295  10.622  10.514   8.207 -0.1634 -0.2220  0.0446
  403MOL0     C54296  10.663  10.419   8.309  0.0907 -0.1934 -0.5409
  403MOL0     C54297  10.738  10.304   8.271  0.0499 -0.2718  0.1889
  403MOL0     C54298  10.764  10.210   8.381  0.4077 -0.4354  0.4667
  403MOL0     C54299  10.756  10.272   8.133 -0.0152  0.0737 -0.2329
  403MOL0     C54300  10.791  10.147   8.085  0.1624 -0.1511  0.0106
  403MOL0     O54301  10.869  10.150   7.976  0.0434  0.1344  0.2242
  403MOL0     C54302  10.915  10.027   7.919 -0.2626 -0.4123  0.9336
  403MOL0     C54303  10.961   9.909   7.969  0.9374 -0.4042  0.6648
  403MOL0     C54304  11.016   9.810   7.879 -0.6352 -0.2032  0.2136
  403MOL0     C54305  11.034   9.836   7.743 -0.5658  0.1074  0.0281
  403MOL0     O54306  11.094   9.743   7.662  0.4506 -0.4399  0.5986
  403MOL0     C54307  11.205   9.681   7.719  0.3629  0.4992 -0.2568
  403MOL0     C54308  11.299   9.613   7.627  0.1167 -0.2438 -0.1004
  403MOL0     C54309  11.404   9.520   7.689 -0.3082 -0.0801  0.3262
  403MOL0     C54310  11.504   9.457   7.597  0.4914  1.0289  0.0290
  403MOL0     C54311  11.504   9.301   7.613 -0.0674  0.0018 -0.5146
  403MOL0     C54312  11.613   9.243   7.526  0.3855 -0.0742 -0.2505
  403MOL0     C54313  11.609   9.088   7.528  0.2170 -0.1387 -0.2551
  403MOL0     C54314  11.498   9.045   7.430 -0.0905 -0.9443  0.5148
  403MOL0    Cl54315  11.462   8.871   7.439  0.1748 -0.1971  0.7112
  403MOL0     C54316  10.980   9.950   7.690 -0.3291  0.5366 -1.0110
  403MOL0     C54317  10.924  10.044   7.775 -0.1700 -0.2910  0.5447
  403MOL0     O54318  10.760  10.052   8.146 -0.2681 -0.1878  0.4131
  403MOL0     C54319  10.725  10.369   8.045 -0.1552  0.6011 -0.5119
  403MOL0     C54320  10.652  10.487   8.080 -0.8893  0.4168 -0.1444
  403MOL0     N54321  10.058  11.080   8.164 -0.0387  0.9284  0.3431
  403MOL0     N54322   9.971  11.070   8.259  0.3782 -0.4404  0.2375
  403MOL0     C54323  10.727  10.571   8.761 -1.1726 -0.6462  0.4209
  403MOL0     C54324  10.854  10.519   8.737 -0.5147 -0.5278 -0.1584
  403MOL0     C54325  11.186  10.181   8.670 -0.0290 -0.1400  0.5740
  403MOL0     C54326  11.291  10.270   8.711  0.2480 -0.9279  0.6252
  403MOL0     C54327  11.426  10.225   8.689  0.8183  0.5064  0.1114
  403MOL0     C54328  11.463  10.099   8.638 -0.3921  0.8119  0.9224
  403MOL0     O54329  11.594  10.077   8.624 -0.1236  0.1254  0.2185
  403MOL0     C54330  11.637   9.945   8.593  0.1281 -0.0645 -0.7505
  403MOL0     C54331  11.591   9.834   8.695 -0.0784  0.1893 -0.8081
  403MOL0     C54332  11.670   9.858   8.828 -0.3593 -0.2943 -0.6222
  403MOL0     C54333  11.665   9.738   8.923  0.5094  0.6308  0.3686
  403MOL0     C54334  11.687   9.785   9.055 -1.0933  0.5467  0.4857
  403MOL0     C54335  11.730   9.826   9.160 -0.8582 -0.0573  0.4365
  403MOL0     C54336  11.359  10.019   8.590 -0.1710 -0.1135 -0.4431
  403MOL0     C54337  11.225  10.060   8.608  0.5471  0.3999 -0.1011
  403MOL0     H54338  10.830  10.217   8.868 -0.5552  0.3657  0.4666
  403MOL0     H54339  10.595  10.315   8.921  1.5933 -0.7209  0.7404
  403MOL0     H54340  10.569  10.720   8.949 -2.8380 -0.1985  1.0982
  403MOL0     H54341  10.488  10.721   8.790 -0.7493 -0.1451 -0.5153
  403MOL0     H54342  10.367  10.626   9.063 -0.3425  0.8748 -0.0785
  403MOL0     H54343  10.379  10.791   9.006  0.6110  1.6720 -2.6786
  403MOL0     H54344  10.252  10.588   8.811 -3.0453 -0.1212 -1.1759
  403MOL0     H54345  10.169  10.619   8.962  0.1312  0.0398 -0.0938
  403MOL0     H54346  10.144  10.847   8.920  0.8206 -0.5151  0.0027
  403MOL0     H54347  10.237  10.839   8.767  2.5998 -2.1936  0.2439
  403MOL0     H54348  10.062  10.663   8.687  1.3302  1.5468 -0.7086
  403MOL0     H54349   9.966  10.701   8.836 -3.2407 -0.6490 -2.0202
  403MOL0     H54350   9.848  10.838   8.717 -0.5990  1.3774  1.7538
  403MOL0     H54351   9.968  10.938   8.773 -1.0279  0.3557 -0.4079
  403MOL0     H54352  10.056  10.819   8.516 -1.0210 -0.8910 -0.8665
  403MOL0     H54353   9.884  10.827   8.500 -0.0586 -1.2789  1.6599
  403MOL0     H54354  10.032  11.072   8.583  1.1698 -1.9812 -0.1093
  403MOL0     H54355   9.867  11.064   8.502  0.6020  0.0831 -2.8726
  403MOL0     H54356  10.254  10.993   8.419 -0.6985 -0.5568  1.7884
  403MOL0     H54357  10.287  11.119   8.054 -2.0270  2.6896  1.6595
  403MOL0     H54358  10.383  11.100   8.194 -3.0690  2.0606  2.9668
  403MOL0     H54359  10.430  10.935   7.996 -0.3865  0.4095  1.2881
  403MOL0     H54360  10.265  10.878   8.031 -1.2887  0.5389  1.9124
  403MOL0     H54361  10.331  10.782   8.247  1.5477 -2.4934  0.5590
  403MOL0     H54362  10.470  10.902   8.249  0.3882  0.2380 -0.9144
  403MOL0     H54363  10.588  10.753   8.088  0.5963 -0.8926  0.9707
  403MOL0     H54364  10.442  10.652   8.082 -1.2061  0.4674 -0.4617
  403MOL0     H54365  10.626  10.432   8.411  0.4631 -1.4083 -0.2228
  403MOL0     H54366  10.858  10.158   8.358  0.3469 -0.5553  0.4891
  403MOL0     H54367  10.787  10.266   8.472  3.6906  0.1150 -0.5584
  403MOL0     H54368  10.677  10.144   8.384  0.1088 -0.0004  1.8601
  403MOL0     H54369  10.957   9.898   8.077 -1.0884 -0.4031  0.6284
  403MOL0     H54370  11.055   9.721   7.927  0.7081  1.1381  1.6975
  403MOL0     H54371  11.266   9.757   7.767  2.5379 -0.8360 -0.7661
  403MOL0     H54372  11.164   9.600   7.780  0.9921  0.6275  0.3469
  403MOL0     H54373  11.235   9.551   7.563  2.9336 -5.0610  1.2231
  403MOL0     H54374  11.342   9.692   7.565  0.2170  1.0496  1.5535
  403MOL0     H54375  11.344   9.436   7.726 -1.0046 -0.6967 -2.0098
  403MOL0     H54376  11.458   9.563   7.773  1.9905  0.1873 -1.2148
  403MOL0     H54377  11.483   9.482   7.493  0.7415  0.7245 -0.0965
  403MOL0     H54378  11.602   9.497   7.626 -0.3035  1.3539  2.5157
  403MOL0     H54379  11.400   9.272   7.596 -1.3552  2.7013  1.8461
  403MOL0     H54380  11.530   9.287   7.719  0.3508  2.9334 -0.1378
  403MOL0     H54381  11.591   9.272   7.423  0.8434 -1.9424 -0.9119
  403MOL0     H54382  11.710   9.281   7.560 -1.0428  0.6762  3.6272
  403MOL0     H54383  11.589   9.049   7.628  0.1120 -0.0017 -0.2227
  403MOL0     H54384  11.709   9.050   7.503  0.3055  0.7483 -1.3217
  403MOL0     H54385  11.535   9.066   7.329 -2.0015 -0.9516 -0.2282
  403MOL0     H54386  11.406   9.104   7.434  0.1198 -0.3959 -1.6566
  403MOL0     H54387  11.005   9.972   7.586  1.1753  0.0753 -0.7760
  403MOL0     H54388  10.900  10.143   7.738  2.8423  0.7744  1.1233
  403MOL0     H54389  10.745  10.369   7.938  2.3869  3.2924 -0.1850
  403MOL0     H54390  10.625  10.547   7.994  0.0433  0.1925 -0.6090
  403MOL0     H54391  10.696  10.666   8.719 -3.6191 -0.7448  1.8210
  403MOL0     H54392  10.920  10.572   8.669 -0.3361 -1.1746 -0.4937
  403MOL0     H54393  11.260  10.372   8.731 -0.4361 -1.1433  0.6639
  403MOL0     H54394  11.507  10.295   8.708 -0.4889  2.1642 -0.2109
  403MOL0     H54395  11.605   9.923   8.491 -0.5187  2.1199 -1.0616
  403MOL0     H54396  11.746   9.953   8.596  0.2517 -1.4735 -0.5352
  403MOL0     H54397  11.617   9.731   8.669 -0.4362 -0.3246  0.7378
  403MOL0     H54398  11.486   9.823   8.724 -0.6061  3.8000 -0.8405
  403MOL0     H54399  11.616   9.939   8.878  0.2405 -0.8159  0.9225
  403MOL0     H54400  11.776   9.876   8.812  0.8037 -3.5020  2.2417
  403MOL0     H54401  11.741   9.669   8.884 -0.2121  0.0531 -0.0511
  403MOL0     H54402  11.569   9.688   8.906 -1.1473  3.7936 -0.2989
  403MOL0     H54403  11.792   9.868   9.237 -1.3000  3.4376 -0.9113
  403MOL0     H54404  11.381   9.921   8.549  2.0200 -0.1134  0.6285
  403MOL0     H54405  11.142  10.000   8.573 -0.3081  1.6382 -0.2652
  404MOL0     O54406   8.281   0.129   3.465  0.1956  0.4620 -0.0322
  404MOL0     C54407   8.282   0.247   3.429  0.9404  1.2495 -0.0771
  404MOL0     O54408   8.312   0.285   3.304 -0.2621 -0.0263 -0.7550
  404MOL0     C54409   8.347   0.197   3.203 -0.3706  0.5464 -0.3478
  404MOL0     C54410   8.474   0.179   3.149 -0.1064  0.3086 -0.7614
  404MOL0     C54411   8.494   0.096   3.040  0.1259 -0.0244  0.1666
  404MOL0     C54412   8.391   0.020   2.975 -0.1194 -0.5103  0.4961
  404MOL0     O54413   8.406  -0.047   2.860  0.2381 -0.1286  0.3345
  404MOL0     C54414   8.530  -0.032   2.787 -0.0219  0.0075 -0.5164
  404MOL0     C54415   8.548   0.110   2.721 -0.4310 -0.0033 -1.2951
  404MOL0     C54416   8.650   0.114   2.605  0.0909  0.2597  0.2218
  404MOL0     C54417   8.642   0.256   2.540  0.2122  0.2230 -0.3156
  404MOL0     C54418   8.747   0.271   2.431  0.1844  0.0962  0.7100
  404MOL0     C54419   8.891   0.256   2.471  0.0122  0.1305 -0.3713
  404MOL0     C54420   8.993   0.316   2.364  0.2164  0.4836 -0.0355
  404MOL0     C54421   9.132   0.310   2.422 -0.7752  0.0765 -0.2890
  404MOL0     N54422   9.209   0.187   2.383 -0.9574  0.4953  0.1702
  404MOL0     C54423   9.250   0.159   2.259  0.1366  0.4329 -0.8768
  404MOL0     C54424   9.270   0.026   2.266  0.1142  0.3769  0.1915
  404MOL0     C54425   9.298  -0.048   2.140  0.1223 -0.2542  0.5128
  404MOL0     C54426   9.289  -0.196   2.158 -0.0011  0.0950 -0.5688
  404MOL0     C54427   9.406  -0.255   2.237  0.1448  0.5874  1.0824
  404MOL0     C54428   9.405  -0.406   2.206 -0.8938  0.2037  1.0558
  404MOL0     O54429   9.494  -0.427   2.093 -0.5209 -0.4246  0.4808
  404MOL0     C54430   9.493  -0.555   2.033 -0.6160 -0.1241  0.9587
  404MOL0     C54431   9.590  -0.580   1.943  0.2099 -0.0443 -0.2670
  404MOL0     C54432   9.599  -0.699   1.869 -0.3097  0.0651  0.5759
  404MOL0     C54433   9.722  -0.693   1.770  0.2188  0.9475  0.8896
  404MOL0     C54434   9.506  -0.802   1.887  0.3031 -0.1015 -0.3851
  404MOL0     C54435   9.515  -0.936   1.809 -0.3427  0.0406 -0.7170
  404MOL0     O54436   9.390  -0.971   1.768 -0.6134  0.1200  0.0765
  404MOL0     C54437   9.389  -1.086   1.689 -1.2173 -0.3166 -0.9982
  404MOL0     C54438   9.391  -1.072   1.550 -0.7597 -0.0504 -0.5476
  404MOL0     C54439   9.396  -1.183   1.471  0.4419 -0.8629  0.4405
  404MOL0     C54440   9.393  -1.309   1.531  0.2122  1.0490  0.9332
  404MOL0     O54441   9.397  -1.423   1.448  0.4673  0.2584  0.6190
  404MOL0     C54442   9.272  -1.459   1.391 -0.3056 -0.1244 -0.0824
  404MOL0     C54443   9.295  -1.475   1.237  0.8682 -0.1707 -0.2362
  404MOL0     C54444   9.160  -1.502   1.165  0.1851 -1.0401  0.6335
  404MOL0     C54445   9.166  -1.509   1.014 -0.5535  0.4514  0.0965
  404MOL0     C54446   9.025  -1.549   0.953  0.5147 -0.0742  0.1197
  404MOL0     C54447   9.025  -1.536   0.801  0.4207  0.1762 -0.6815
  404MOL0     C54448   9.145  -1.611   0.734 -0.0979 -0.2433 -0.8058
  404MOL0     C54449   9.127  -1.639   0.584  1.0698 -0.4663 -0.2936
  404MOL0    Cl54450   9.263  -1.735   0.520 -0.0427  0.0618  0.2563
  404MOL0     C54451   9.391  -1.329   1.667  0.5633 -0.5953 -0.1654
  404MOL0     C54452   9.392  -1.209   1.750  0.9469 -0.6216  0.2368
  404MOL0     O54453   9.627  -0.988   1.778 -0.3352  0.2458 -0.1326
  404MOL0     C54454   9.401  -0.773   1.979 -0.2093 -0.6702 -0.4360
  404MOL0     C54455   9.407  -0.652   2.059  0.0789  0.3298  0.2609
  404MOL0     N54456   9.258  -0.024   2.391  0.4633  0.2072 -0.2752
  404MOL0     N54457   9.218   0.078   2.461  0.6494 -0.3370 -0.8864
  404MOL0     C54458   8.278   0.020   3.040  0.7857 -0.4804  0.1705
  404MOL0     C54459   8.250   0.114   3.143  1.0590  0.6243  0.0769
  404MOL0     C54460   8.253   0.357   3.531  1.3910 -0.3273  0.3346
  404MOL0     C54461   8.250   0.336   3.669 -0.1170  1.0239  0.4562
  404MOL0     C54462   8.209   0.431   3.761 -0.7132 -0.5114  0.0318
  404MOL0     C54463   8.183   0.564   3.720 -0.6670 -0.6571  0.4498
  404MOL0     O54464   8.155   0.661   3.816 -0.1274  0.4281 -0.2400
  404MOL0     C54465   8.111   0.795   3.782  0.6347  0.2205  0.0610
  404MOL0     C54466   7.968   0.805   3.753 -0.0853 -0.2096 -0.1659
  404MOL0     C54467   7.878   0.757   3.865  0.4912  0.2242 -0.2301
  404MOL0     C54468   7.729   0.799   3.841  0.3953  0.1147  0.9453
  404MOL0     C54469   7.711   0.934   3.901 -0.4259 -0.4574 -0.2759
  404MOL0     C54470   7.707   1.052   3.933  0.8739  0.8665  0.5071
  404MOL0     C54471   8.195   0.588   3.584 -0.8027 -0.3732 -0.5286
  404MOL0     C54472   8.225   0.488   3.486 -0.1309  1.2500 -1.4003
  404MOL0     H54473   8.551   0.237   3.199 -0.1663  1.8597 -2.3608
  404MOL0     H54474   8.594   0.107   3.000  0.1855 -0.5488  0.1638
  404MOL0     H54475   8.617  -0.056   2.850  1.7943  0.8409 -2.5623
  404MOL0     H54476   8.531  -0.106   2.706 -3.3287  0.4175 -1.0656
  404MOL0     H54477   8.454   0.148   2.679  1.3538  1.9086 -3.8783
  404MOL0     H54478   8.581   0.185   2.794  2.6103 -2.0475 -0.4084
  404MOL0     H54479   8.750   0.081   2.635  0.5460  4.6218  4.7195
  404MOL0     H54480   8.616   0.037   2.534 -2.7234 -0.3275  2.0325
  404MOL0     H54481   8.550   0.274   2.484  0.6150 -0.0589 -1.0884
  404MOL0     H54482   8.654   0.327   2.622 -2.1216 -3.6591  3.7879
  404MOL0     H54483   8.729   0.195   2.355 -0.5857  1.1528 -0.2038
  404MOL0     H54484   8.728   0.370   2.388 -3.3681 -0.3062  1.0474
  404MOL0     H54485   8.893   0.315   2.563 -2.7648  2.5668 -1.7050
  404MOL0     H54486   8.925   0.155   2.492  2.6179  1.0001 -0.0586
  404MOL0     H54487   8.988   0.261   2.269 -2.4224  0.3893  0.0858
  404MOL0     H54488   8.974   0.423   2.349  0.8719  0.9550  2.1667
  404MOL0     H54489   9.124   0.315   2.531  0.1490  4.0757 -0.2692
  404MOL0     H54490   9.188   0.399   2.394  0.3192 -0.3738  0.3867
  404MOL0     H54491   9.256   0.244   2.192 -1.2682  2.3694  1.3115
  404MOL0     H54492   9.233  -0.021   2.055  2.1445 -1.8690 -1.6802
  404MOL0     H54493   9.397  -0.030   2.099  0.5678 -4.2249 -0.5182
  404MOL0     H54494   9.284  -0.242   2.059  0.2651 -2.3900  0.4734
  404MOL0     H54495   9.201  -0.238   2.207 -0.4669 -0.5587 -1.9146
  404MOL0     H54496   9.392  -0.242   2.345 -2.6407 -0.3894  0.9106
  404MOL0     H54497   9.497  -0.204   2.204 -1.8728  3.4206 -0.5692
  404MOL0     H54498   9.305  -0.430   2.169 -0.1357 -0.4841 -0.6621
  404MOL0     H54499   9.432  -0.467   2.292 -0.9936 -0.3141  0.7243
  404MOL0     H54500   9.661  -0.500   1.929  0.9368 -0.1647  2.3109
  404MOL0     H54501   9.796  -0.740   1.835  1.3086  0.5517 -0.5918
  404MOL0     H54502   9.702  -0.747   1.677  0.3378  0.1784  1.2988
  404MOL0     H54503   9.752  -0.595   1.733  0.0289 -0.3819 -3.2455
  404MOL0     H54504   9.403  -0.979   1.494  0.1923  0.1843  0.0165
  404MOL0     H54505   9.392  -1.183   1.363 -2.6130  0.1770  0.4580
  404MOL0     H54506   9.228  -1.555   1.419  0.3007 -0.9949 -1.9379
  404MOL0     H54507   9.198  -1.379   1.395  0.5488  1.1396 -4.3205
  404MOL0     H54508   9.336  -1.379   1.205 -1.6420  1.0856  0.0277
  404MOL0     H54509   9.360  -1.562   1.230  0.0226 -0.7911 -0.6519
  404MOL0     H54510   9.099  -1.417   1.200 -0.2135 -1.5332  1.1607
  404MOL0     H54511   9.114  -1.600   1.180  0.6634 -1.6965 -1.8091
  404MOL0     H54512   9.198  -1.414   0.970 -0.7191  1.2258  1.5467
  404MOL0     H54513   9.235  -1.586   0.981  1.9169  3.4091 -2.2410
  404MOL0     H54514   8.945  -1.482   0.986  2.5957  2.0276  1.1698
  404MOL0     H54515   9.000  -1.654   0.972 -0.0866  0.2756  1.4160
  404MOL0     H54516   8.929  -1.577   0.770  0.1237  0.0122  0.4122
  404MOL0     H54517   9.028  -1.429   0.777  0.4621  0.7224  1.5277
  404MOL0     H54518   9.166  -1.713   0.768  0.7582 -0.9006 -3.0688
  404MOL0     H54519   9.233  -1.548   0.753 -0.8439  1.6590 -3.1203
  404MOL0     H54520   9.130  -1.548   0.524  3.5928  0.5157  1.1459
  404MOL0     H54521   9.031  -1.688   0.568  0.5225  0.1321  1.0166
  404MOL0     H54522   9.396  -1.430   1.705  0.5275  0.0692  1.6761
  404MOL0     H54523   9.397  -1.240   1.854  3.3584 -1.2345 -0.0146
  404MOL0     H54524   9.324  -0.849   1.986 -0.4706 -0.3013  1.0365
  404MOL0     H54525   9.325  -0.652   2.130  0.5055  0.5402  0.7567
  404MOL0     H54526   8.192  -0.036   3.006  2.6122 -3.2167 -0.2498
  404MOL0     H54527   8.150   0.122   3.184  0.1094  2.1873 -2.3566
  404MOL0     H54528   8.284   0.235   3.692 -0.4310  1.1575  1.5398
  404MOL0     H54529   8.213   0.406   3.866 -1.2127 -1.6523 -0.2055
  404MOL0     H54530   8.146   0.851   3.869  0.1967 -2.2900  2.0006
  404MOL0     H54531   8.168   0.838   3.700 -0.3740  0.4697 -0.5255
  404MOL0     H54532   7.943   0.759   3.657  0.6128 -2.6682  0.7643
  404MOL0     H54533   7.950   0.912   3.738  0.8703 -0.1473 -1.0250
  404MOL0     H54534   7.915   0.800   3.959 -2.0145  1.5044  0.2570
  404MOL0     H54535   7.886   0.648   3.874  1.1879  0.2071 -0.9525
  404MOL0     H54536   7.665   0.727   3.893  1.3755 -0.2495  1.6914
  404MOL0     H54537   7.703   0.794   3.735 -1.3185 -0.1206  1.3488
  404MOL0     H54538   7.699   1.151   3.973  1.2616  1.0076  0.2489
  404MOL0     H54539   8.173   0.688   3.547 -1.3541  0.3015  1.5139
  404MOL0     H54540   8.228   0.506   3.379  2.2154  0.6371 -1.4980
  405MOL0     O54541   5.590   2.144   4.772  1.0741  0.3653  0.3642
  405MOL0     C54542   5.580   2.023   4.806  0.2656 -0.7055  1.0271
  405MOL0     O54543   5.669   1.958   4.883  0.2110 -0.4398  0.1053
  405MOL0     C54544   5.753   2.053   4.942  0.1982 -0.0812 -0.3303
  405MOL0     C54545   5.865   2.086   4.868 -0.5482 -0.7186 -0.0397
  405MOL0     C54546   5.970   2.150   4.933 -0.0597  0.1905  0.1665
  405MOL0     C54547   5.947   2.183   5.073 -0.7012 -1.1570  0.9126
  405MOL0     O54548   6.055   2.245   5.137  0.3235 -0.0366 -0.2886
  405MOL0     C54549   6.134   2.351   5.078  0.3842  0.2831  0.0198
  405MOL0     C54550   6.044   2.469   5.043 -0.9230 -0.0129  0.2639
  405MOL0     C54551   6.006   2.561   5.159  0.6908 -0.0944  0.0891
  405MOL0     C54552   5.915   2.664   5.096 -0.6030  0.5034 -1.0570
  405MOL0     C54553   5.860   2.738   5.214  0.0794 -0.8103  1.3528
  405MOL0     C54554   5.729   2.813   5.178  0.2882  0.6207 -0.4253
  405MOL0     C54555   5.663   2.853   5.312 -0.4773  0.8043 -0.3673
  405MOL0     C54556   5.575   2.983   5.314  0.2436  1.3566 -0.4841
  405MOL0     N54557   5.640   3.106   5.263 -0.2873 -0.5673  0.1642
  405MOL0     C54558   5.596   3.169   5.148 -0.1257 -1.2632 -0.3881
  405MOL0     C54559   5.654   3.293   5.153 -0.6813  0.0918 -0.8282
  405MOL0     C54560   5.623   3.401   5.049  0.5967 -1.2435 -0.7724
  405MOL0     C54561   5.738   3.470   4.999 -0.2436 -0.2911 -0.0388
  405MOL0     C54562   5.710   3.550   4.882 -0.2559 -0.7439  0.3338
  405MOL0     C54563   5.847   3.604   4.823  0.4394 -0.4292  1.0804
  405MOL0     O54564   5.805   3.682   4.711  0.4478 -0.2035 -0.0794
  405MOL0     C54565   5.786   3.614   4.591 -0.4922 -0.8350 -1.1562
  405MOL0     C54566   5.796   3.474   4.569  0.5019 -0.7462  0.3009
  405MOL0     C54567   5.804   3.414   4.441 -0.1043 -0.0895  0.1096
  405MOL0     C54568   5.786   3.268   4.439 -0.1477  0.4158  0.3630
  405MOL0     C54569   5.788   3.495   4.328  0.3696 -0.3723  0.3795
  405MOL0     C54570   5.749   3.455   4.193  0.0782 -0.0953 -0.9422
  405MOL0     O54571   5.674   3.539   4.132 -0.0770  0.4489  0.4869
  405MOL0     C54572   5.600   3.508   4.021  0.9399 -0.0527 -0.7837
  405MOL0     C54573   5.524   3.390   4.014 -0.7117  0.2867 -0.3705
  405MOL0     C54574   5.451   3.361   3.896  0.1550 -0.4359 -0.6314
  405MOL0     C54575   5.461   3.436   3.782  0.2273 -0.4294 -0.3504
  405MOL0     O54576   5.392   3.404   3.671  0.2310 -0.1602  0.8657
  405MOL0     C54577   5.369   3.261   3.645 -0.2754 -1.3727  0.3061
  405MOL0     C54578   5.499   3.182   3.657  0.2470  0.2815  0.4748
  405MOL0     C54579   5.623   3.209   3.573 -0.8296 -0.3477 -0.6344
  405MOL0     C54580   5.591   3.197   3.425 -0.7675 -0.5040  0.1815
  405MOL0     C54581   5.701   3.179   3.320  0.9160  0.1295 -0.0892
  405MOL0     C54582   5.637   3.190   3.180  0.1092 -0.1698 -0.3354
  405MOL0     C54583   5.740   3.220   3.070  0.0882  0.3741 -0.3491
  405MOL0     C54584   5.763   3.368   3.047  0.0549  0.3878  0.6174
  405MOL0    Cl54585   5.926   3.392   2.963  0.1438  0.1656 -0.1509
  405MOL0     C54586   5.549   3.548   3.788  0.2268  0.5307  0.4441
  405MOL0     C54587   5.611   3.585   3.906 -0.1833  0.2218 -0.5791
  405MOL0     O54588   5.786   3.349   4.150 -0.2422 -0.2564 -0.1444
  405MOL0     C54589   5.780   3.631   4.348  0.8921  0.4894 -0.2612
  405MOL0     C54590   5.779   3.687   4.476  0.4067  0.1268  0.3451
  405MOL0     N54591   5.718   3.305   5.276  0.2918  0.1517  0.0106
  405MOL0     N54592   5.711   3.192   5.344  0.0868 -0.4557 -0.1767
  405MOL0     C54593   5.828   2.152   5.133  0.0039 -0.1303 -0.5408
  405MOL0     C54594   5.725   2.083   5.070 -0.5482  0.9775 -0.4721
  405MOL0     C54595   5.460   1.948   4.762  0.2044  0.2323 -0.6242
  405MOL0     C54596   5.379   1.980   4.646  0.6315 -1.2304 -0.2028
  405MOL0     C54597   5.258   1.914   4.606 -0.2640  0.5436 -0.1012
  405MOL0     C54598   5.232   1.792   4.674  0.8102 -0.1216  0.1477
  405MOL0     O54599   5.122   1.725   4.622 -0.0868  0.5019 -0.1096
  405MOL0     C54600   5.105   1.586   4.663 -0.8216  0.2196 -0.1844
  405MOL0     C54601   4.998   1.507   4.576 -0.4008 -0.7239 -0.7001
  405MOL0     C54602   4.859   1.558   4.609 -0.5798  0.5472  0.0168
  405MOL0     C54603   4.742   1.455   4.601 -0.2854 -0.1519  0.1935
  405MOL0     C54604   4.616   1.535   4.591 -0.8949 -0.4706 -0.2114
  405MOL0     C54605   4.530   1.617   4.567  0.3417 -0.4916  0.0100
  405MOL0     C54606   5.316   1.748   4.776  0.2646  0.2359  0.0362
  405MOL0     C54607   5.424   1.832   4.826  0.6769  0.1681 -0.7001
  405MOL0     H54608   5.877   2.051   4.766 -0.5957 -0.1674 -0.2375
  405MOL0     H54609   6.063   2.170   4.880 -0.1055 -2.1989 -0.9366
  405MOL0     H54610   6.206   2.396   5.147 -1.5251 -0.5187  2.6994
  405MOL0     H54611   6.173   2.314   4.983 -2.0275 -0.8070 -0.6091
  405MOL0     H54612   6.097   2.528   4.967 -0.7740 -0.0659  0.3268
  405MOL0     H54613   5.949   2.448   4.994 -1.6541  3.1224  0.0828
  405MOL0     H54614   5.951   2.504   5.234 -0.8382  0.8272 -0.2895
  405MOL0     H54615   6.092   2.614   5.202  0.3894  0.1953  0.3388
  405MOL0     H54616   5.969   2.723   5.022  1.4765  1.0868  0.8270
  405MOL0     H54617   5.833   2.619   5.040 -2.9405  0.2448  2.2252
  405MOL0     H54618   5.842   2.669   5.297  2.9714 -3.9053 -0.3568
  405MOL0     H54619   5.929   2.818   5.243 -0.7382  0.9207 -1.1305
  405MOL0     H54620   5.752   2.888   5.102 -4.7868  0.1495 -2.8128
  405MOL0     H54621   5.651   2.759   5.124  1.1550 -0.4608 -0.6398
  405MOL0     H54622   5.607   2.764   5.343 -0.0433 -0.0934 -2.0355
  405MOL0     H54623   5.740   2.874   5.387 -1.4034  1.0287  0.5538
  405MOL0     H54624   5.545   2.993   5.419  1.4786  2.8261 -0.2315
  405MOL0     H54625   5.483   2.952   5.265 -1.0054 -3.2504  3.9316
  405MOL0     H54626   5.519   3.141   5.077 -1.7114 -0.8182  1.0713
  405MOL0     H54627   5.561   3.352   4.973 -0.0548  0.8128 -1.6400
  405MOL0     H54628   5.565   3.475   5.104 -0.5967 -2.8545  0.2452
  405MOL0     H54629   5.801   3.388   4.963 -0.4954 -0.9987  1.1032
  405MOL0     H54630   5.779   3.532   5.080  1.9117 -1.9079  0.1856
  405MOL0     H54631   5.658   3.641   4.914  1.3894  0.8046 -1.1840
  405MOL0     H54632   5.645   3.516   4.800 -1.1437  1.1211  0.2020
  405MOL0     H54633   5.914   3.531   4.777  0.0464  0.1401 -0.4651
  405MOL0     H54634   5.909   3.659   4.895  2.3969 -0.4000 -0.5102
  405MOL0     H54635   5.785   3.409   4.655 -1.0764 -0.2149  0.5409
  405MOL0     H54636   5.692   3.241   4.391 -1.4936  1.8550  2.0621
  405MOL0     H54637   5.864   3.224   4.377  0.6851 -0.3053  1.8546
  405MOL0     H54638   5.795   3.240   4.545  0.2277  1.8747  0.7488
  405MOL0     H54639   5.508   3.319   4.093 -0.2787  0.8770  0.2564
  405MOL0     H54640   5.400   3.264   3.896 -0.1639 -0.4719  3.6195
  405MOL0     H54641   5.289   3.219   3.707 -1.2925  1.5831  1.1620
  405MOL0     H54642   5.330   3.250   3.543  0.9918  0.7339 -0.4686
  405MOL0     H54643   5.541   3.185   3.758  1.2342  1.0623  0.0471
  405MOL0     H54644   5.472   3.076   3.646 -1.9612  0.6871  1.4546
  405MOL0     H54645   5.691   3.126   3.598 -0.8919 -0.2011  0.0402
  405MOL0     H54646   5.665   3.308   3.591 -2.8225  0.7034 -1.5392
  405MOL0     H54647   5.514   3.121   3.407 -1.0416  0.2310 -2.0882
  405MOL0     H54648   5.544   3.295   3.411 -1.8160 -0.8446  1.1142
  405MOL0     H54649   5.751   3.083   3.337  0.9484 -0.0289 -1.0341
  405MOL0     H54650   5.775   3.257   3.341  0.8988 -0.4851  2.7285
  405MOL0     H54651   5.590   3.095   3.152 -1.3491  0.4359 -0.0518
  405MOL0     H54652   5.565   3.272   3.172 -1.3964 -1.5774 -2.0245
  405MOL0     H54653   5.709   3.173   2.977 -2.9561 -3.3767  2.2250
  405MOL0     H54654   5.839   3.183   3.098  0.8218  1.8114 -0.9440
  405MOL0     H54655   5.764   3.425   3.140 -3.4073  2.1633 -0.2715
  405MOL0     H54656   5.682   3.406   2.985  1.0856  1.6955  0.0190
  405MOL0     H54657   5.567   3.601   3.694 -2.2440  1.3519  0.3675
  405MOL0     H54658   5.677   3.670   3.908 -0.2429  0.2554  1.3485
  405MOL0     H54659   5.805   3.691   4.261 -1.5472  0.5930 -0.9670
  405MOL0     H54660   5.765   3.793   4.494  2.7156  0.5360 -0.0399
  405MOL0     H54661   5.820   2.181   5.238  0.7982 -1.7577 -0.0051
  405MOL0     H54662   5.643   2.045   5.130  0.2575 -4.9131 -2.3812
  405MOL0     H54663   5.405   2.060   4.577 -0.8084 -1.3704 -0.9561
  405MOL0     H54664   5.201   1.948   4.520 -0.5479  0.1041 -0.0900
  405MOL0     H54665   5.193   1.527   4.637 -2.3528 -2.7547  0.7814
  405MOL0     H54666   5.087   1.571   4.770 -1.8718 -2.8296 -0.6808
  405MOL0     H54667   5.010   1.400   4.599  0.0677 -0.7691 -1.1250
  405MOL0     H54668   5.019   1.528   4.471  0.8676  3.4590  0.2313
  405MOL0     H54669   4.839   1.647   4.548  2.0372 -0.8967 -3.2529
  405MOL0     H54670   4.849   1.591   4.713  0.4245  0.8690  0.0248
  405MOL0     H54671   4.747   1.400   4.695 -4.8689  0.5465  1.0607
  405MOL0     H54672   4.736   1.393   4.511 -2.2679  0.6450 -0.2790
  405MOL0     H54673   4.461   1.697   4.551  2.2411  1.6931  1.8754
  405MOL0     H54674   5.290   1.662   4.837  1.0078  1.4336  2.1859
  405MOL0     H54675   5.486   1.785   4.902  0.7874  1.6332  0.1483
  406MOL0     O54676  11.158   0.390  10.875  0.2733  0.2739  0.4818
  406MOL0     C54677  11.268   0.373  10.914 -0.7836  0.1813  0.4110
  406MOL0     O54678  11.302   0.276  11.003 -0.1379  0.4838  0.3471
  406MOL0     C54679  11.213   0.175  11.040  0.8958 -0.2271 -0.6543
  406MOL0     C54680  11.253   0.044  11.008 -0.5816 -0.6489 -0.4686
  406MOL0     C54681  11.199  -0.067  11.065  0.2046  0.0596  0.3974
  406MOL0     C54682  11.089  -0.049  11.148 -0.3131 -1.1371  0.9081
  406MOL0     O54683  11.040  -0.154  11.203 -0.3532  0.6202 -0.0037
  406MOL0     C54684  11.091  -0.191  11.336  0.4134  0.6484  0.0586
  406MOL0     C54685  11.148  -0.333  11.313  0.6808  0.0107  1.0038
  406MOL0     C54686  11.218  -0.370  11.442 -0.5360  0.4140  0.0527
  406MOL0     C54687  11.256  -0.520  11.462 -0.1108  0.1272  0.0469
  406MOL0     C54688  11.348  -0.541  11.587 -0.4884  0.3435 -0.2621
  406MOL0     C54689  11.389  -0.690  11.595 -0.5698 -0.2008  0.0821
  406MOL0     C54690  11.507  -0.702  11.691 -0.3790 -0.3680  0.0133
  406MOL0     C54691  11.585  -0.833  11.684  0.1088  0.7965  0.1290
  406MOL0     N54692  11.713  -0.827  11.608 -0.2252 -0.3488 -0.1605
  406MOL0     C54693  11.824  -0.752  11.645  0.3745  0.5464 -0.8826
  406MOL0     C54694  11.910  -0.742  11.549 -0.2657  0.1337 -0.3090
  406MOL0     C54695  12.037  -0.662  11.549  0.1031 -0.5613  0.2427
  406MOL0     C54696  12.090  -0.602  11.415 -0.1543 -0.4681 -0.2504
  406MOL0     C54697  12.156  -0.712  11.335  0.1082 -0.7122 -0.8304
  406MOL0     C54698  12.178  -0.664  11.187  0.4920 -0.4362 -0.1505
  406MOL0     O54699  12.259  -0.547  11.179 -0.6489  0.7351  0.5602
  406MOL0     C54700  12.285  -0.507  11.052  0.0355 -0.3231 -0.5177
  406MOL0     C54701  12.199  -0.492  10.949 -0.1084  0.4995 -0.3823
  406MOL0     C54702  12.239  -0.458  10.819  0.0444  0.6186 -0.1081
  406MOL0     C54703  12.133  -0.463  10.707 -1.1649 -0.3038 -1.0545
  406MOL0     C54704  12.375  -0.421  10.801  0.5869  0.1790  0.6166
  406MOL0     C54705  12.427  -0.362  10.670 -0.1603  0.4371 -0.2869
  406MOL0     O54706  12.566  -0.345  10.661  0.0900  0.0741 -0.2076
  406MOL0     C54707  12.635  -0.297  10.547  0.5071 -0.4664 -0.6335
  406MOL0     C54708  12.582  -0.195  10.468  0.2640 -0.6873  0.3187
  406MOL0     C54709  12.649  -0.138  10.356  1.2571  0.2502  0.2329
  406MOL0     C54710  12.773  -0.176  10.316 -0.4722  0.7064  0.4331
  406MOL0     O54711  12.842  -0.094  10.226 -0.6147 -0.0726  0.0047
  406MOL0     C54712  12.982  -0.078  10.258  0.6086 -0.3478 -0.5544
  406MOL0     C54713  13.019  -0.040  10.405 -0.3630  0.5317 -0.0313
  406MOL0     C54714  12.943   0.070  10.472 -0.2320  0.4185  0.4734
  406MOL0     C54715  12.933   0.195  10.380 -0.5205  0.3205  0.0168
  406MOL0     C54716  12.848   0.294  10.460  0.3566  0.0232 -0.6749
  406MOL0     C54717  12.696   0.256  10.444 -0.0348  0.3744  0.0275
  406MOL0     C54718  12.635   0.312  10.313 -0.5400 -0.2809 -1.0959
  406MOL0     C54719  12.602   0.464  10.318 -0.1390  0.5026  0.2570
  406MOL0    Cl54720  12.737   0.581  10.318 -0.2756 -0.1827 -0.1394
  406MOL0     C54721  12.821  -0.286  10.390 -0.7927 -1.0850 -0.5080
  406MOL0     C54722  12.756  -0.347  10.501 -0.5736  0.3774 -0.9389
  406MOL0     O54723  12.345  -0.320  10.587  0.1594  0.3985  0.2665
  406MOL0     C54724  12.469  -0.429  10.907 -0.0923  0.4744 -0.0116
  406MOL0     C54725  12.418  -0.460  11.033 -0.9730  0.2235 -0.1756
  406MOL0     N54726  11.859  -0.830  11.444  0.4310 -0.2945 -0.1073
  406MOL0     N54727  11.738  -0.868  11.482 -0.3883 -0.8527 -0.3121
  406MOL0     C54728  11.039   0.079  11.176  0.1283  0.3225  0.6561
  406MOL0     C54729  11.098   0.191  11.119 -0.7291  0.1500  0.6961
  406MOL0     C54730  11.377   0.463  10.868  1.2700  0.7709  0.4244
  406MOL0     C54731  11.500   0.456  10.942  0.3412  0.5217 -0.0307
  406MOL0     C54732  11.618   0.533  10.918 -0.2844 -0.9026 -0.0103
  406MOL0     C54733  11.604   0.635  10.818  0.0433  0.1749 -0.0608
  406MOL0     O54734  11.714   0.714  10.784  0.4745  0.2120 -0.0077
  406MOL0     C54735  11.810   0.745  10.884 -0.4368  0.4695 -0.4121
  406MOL0     C54736  11.874   0.888  10.847 -0.5344 -0.7886 -0.7775
  406MOL0     C54737  11.942   0.892  10.708  0.2979  0.1008  0.7431
  406MOL0     C54738  11.864   0.968  10.596  1.0154  0.3481  0.1990
  406MOL0     C54739  11.849   1.105  10.605  0.0771 -1.0324 -0.1459
  406MOL0     C54740  11.842   1.225  10.606 -0.5979  0.0513  0.7217
  406MOL0     C54741  11.482   0.635  10.743 -0.4839  0.2401 -0.0004
  406MOL0     C54742  11.364   0.557  10.769 -0.1419  0.0086  0.2259
  406MOL0     H54743  11.339   0.026  10.943  0.7444  1.5670  0.5604
  406MOL0     H54744  11.245  -0.163  11.049 -1.8279 -1.2304  1.8198
  406MOL0     H54745  11.172  -0.122  11.361  1.2917 -0.9915  2.0018
  406MOL0     H54746  11.008  -0.180  11.406  1.7771  3.2312  1.4196
  406MOL0     H54747  11.068  -0.403  11.287 -0.3347  1.6224 -0.4958
  406MOL0     H54748  11.213  -0.322  11.226 -3.3562  0.7036 -2.2473
  406MOL0     H54749  11.316  -0.320  11.445 -1.5946  2.5508  1.0388
  406MOL0     H54750  11.165  -0.323  11.525  0.4880  4.3325 -1.2955
  406MOL0     H54751  11.164  -0.579  11.465  2.3413 -4.2195 -2.0090
  406MOL0     H54752  11.307  -0.546  11.369  2.1960  1.5975  0.8020
  406MOL0     H54753  11.442  -0.485  11.576 -0.8996  0.7325 -2.2773
  406MOL0     H54754  11.288  -0.511  11.673 -2.2306 -3.0438 -0.1479
  406MOL0     H54755  11.317  -0.758  11.641 -0.3148  0.6649  1.8502
  406MOL0     H54756  11.427  -0.713  11.496  0.2786 -1.0466  0.5900
  406MOL0     H54757  11.579  -0.621  11.678  0.6741 -0.5628  3.6956
  406MOL0     H54758  11.459  -0.686  11.788  2.0718  2.8351  0.8724
  406MOL0     H54759  11.519  -0.911  11.644 -0.5335  1.4820 -0.1583
  406MOL0     H54760  11.607  -0.867  11.786  0.4076  2.5576  0.6758
  406MOL0     H54761  11.830  -0.709  11.744  2.7543 -2.2844  0.3623
  406MOL0     H54762  12.018  -0.577  11.615 -4.2029  0.6418 -2.1686
  406MOL0     H54763  12.116  -0.720  11.598  1.0801  2.4295  2.4823
  406MOL0     H54764  12.161  -0.519  11.427 -1.0555  0.2326  0.3362
  406MOL0     H54765  12.010  -0.558  11.356  0.1036  1.7874  0.9506
  406MOL0     H54766  12.102  -0.807  11.334 -0.6380 -0.5028  2.8375
  406MOL0     H54767  12.242  -0.742  11.395 -2.0384  2.0219  4.2366
  406MOL0     H54768  12.078  -0.638  11.152  0.9062  1.8740  0.2144
  406MOL0     H54769  12.214  -0.740  11.117  1.6973  2.4451 -2.8961
  406MOL0     H54770  12.093  -0.498  10.968 -0.4457  0.1068 -2.2585
  406MOL0     H54771  12.176  -0.495  10.611 -1.9925 -0.0110 -1.5280
  406MOL0     H54772  12.049  -0.527  10.733 -1.9194  0.6975 -0.9582
  406MOL0     H54773  12.084  -0.369  10.682 -0.8287  0.8389  2.1383
  406MOL0     H54774  12.488  -0.150  10.498  0.1886 -0.0449 -0.8171
  406MOL0     H54775  12.595  -0.056  10.309 -0.0382 -0.6796  0.0353
  406MOL0     H54776  13.037  -0.166  10.223  0.4213 -1.4626  1.7532
  406MOL0     H54777  13.023  -0.005  10.188 -1.3755 -1.6833 -3.2803
  406MOL0     H54778  13.035  -0.133  10.461 -4.0188  1.0264  2.1220
  406MOL0     H54779  13.118   0.007  10.394 -0.8925  1.4796 -0.9032
  406MOL0     H54780  12.998   0.103  10.561  2.6847  1.9373 -1.7132
  406MOL0     H54781  12.846   0.031  10.503 -0.4398  0.5668  0.0184
  406MOL0     H54782  13.030   0.235  10.349 -1.3693  0.4648 -2.8099
  406MOL0     H54783  12.878   0.178  10.286 -2.9010  0.2807  1.3249
  406MOL0     H54784  12.867   0.396  10.425 -1.9834  1.2271  1.2337
  406MOL0     H54785  12.877   0.298  10.566 -0.4730  1.3969 -0.4718
  406MOL0     H54786  12.690   0.147  10.448  0.6130  0.2471 -1.6645
  406MOL0     H54787  12.640   0.291  10.532 -2.6978  1.1082 -1.8053
  406MOL0     H54788  12.545   0.252  10.293 -0.5356 -1.0324  0.8962
  406MOL0     H54789  12.702   0.305  10.227 -1.2744 -0.1941 -1.6963
  406MOL0     H54790  12.530   0.487  10.398  0.6740  1.0329  0.8478
  406MOL0     H54791  12.541   0.493  10.232 -0.9972 -1.0078  0.3185
  406MOL0     H54792  12.917  -0.336  10.376 -0.8576 -1.7281  1.1054
  406MOL0     H54793  12.812  -0.429  10.545 -2.1568 -2.0682 -3.1830
  406MOL0     H54794  12.571  -0.393  10.896  0.6374 -0.8891  1.8749
  406MOL0     H54795  12.491  -0.459  11.113 -0.7454 -0.1456 -0.3692
  406MOL0     H54796  10.961   0.085  11.251  0.5102  1.4430  0.9908
  406MOL0     H54797  11.062   0.291  11.140 -1.7240  0.1315 -0.7888
  406MOL0     H54798  11.515   0.387  11.025 -0.2540 -0.6261 -0.8505
  406MOL0     H54799  11.706   0.523  10.982  0.8390  0.4888 -1.2613
  406MOL0     H54800  11.762   0.744  10.982 -0.6777  1.9681 -0.4899
  406MOL0     H54801  11.882   0.665  10.864 -0.9006  0.3396 -1.6532
  406MOL0     H54802  11.954   0.916  10.916 -0.1455 -0.6004 -1.2940
  406MOL0     H54803  11.793   0.960  10.855  0.0104  0.3774 -4.1494
  406MOL0     H54804  11.961   0.788  10.679 -0.1773  0.8004 -2.5563
  406MOL0     H54805  12.031   0.955  10.719 -1.2975  3.1537 -2.0946
  406MOL0     H54806  11.758   0.943  10.603  0.8774  0.2288 -1.6654
  406MOL0     H54807  11.903   0.957  10.494  0.5043  4.3930 -0.5934
  406MOL0     H54808  11.853   1.332  10.600  2.7521 -0.2799 -1.3731
  406MOL0     H54809  11.483   0.706  10.661  0.5738 -0.3691 -0.5423
  406MOL0     H54810  11.276   0.551  10.706 -0.5099  2.2462  0.4732
  407MOL0     O54811   1.512   5.450   8.146 -1.3463  0.2553  0.0065
  407MOL0     C54812   1.597   5.362   8.133 -0.5215 -0.6455 -0.0255
  407MOL0     O54813   1.561   5.229   8.124 -0.1584  0.0972  0.1957
  407MOL0     C54814   1.435   5.180   8.132 -0.5782 -0.4784  0.3800
  407MOL0     C54815   1.330   5.237   8.052 -0.7685  0.7348 -0.3864
  407MOL0     C54816   1.210   5.164   8.036 -0.3810 -0.5572 -0.1728
  407MOL0     C54817   1.194   5.034   8.092 -0.3110 -0.3059 -0.0745
  407MOL0     O54818   1.094   4.950   8.061  0.2175 -1.0833  0.0961
  407MOL0     C54819   0.965   5.008   8.024 -1.0159 -0.4806 -0.0252
  407MOL0     C54820   0.861   4.902   8.025 -0.3969 -0.0656  0.2276
  407MOL0     C54821   0.727   4.969   8.032  1.0484 -0.1986  0.1359
  407MOL0     C54822   0.609   4.870   8.025  0.6126 -1.5518 -0.2629
  407MOL0     C54823   0.477   4.953   8.006  0.1869  0.0528  0.6660
  407MOL0     C54824   0.433   5.019   8.135  0.2366 -0.3050  0.0876
  407MOL0     C54825   0.331   5.124   8.098  0.2088 -0.7050 -0.6008
  407MOL0     C54826   0.188   5.083   8.076  0.3800 -0.3069  0.3803
  407MOL0     N54827   0.105   5.202   8.029 -0.5383  0.2877  0.5117
  407MOL0     C54828  -0.004   5.190   7.951  0.0673 -0.2743  0.0370
  407MOL0     C54829  -0.080   5.300   7.964 -0.6150 -0.2987 -0.9414
  407MOL0     C54830  -0.222   5.313   7.904 -0.6167 -0.2794 -0.3000
  407MOL0     C54831  -0.285   5.455   7.942 -0.5269  0.8304 -0.1295
  407MOL0     C54832  -0.414   5.493   7.876 -0.3322 -0.3803  1.2120
  407MOL0     C54833  -0.463   5.631   7.917 -0.0628  0.7962  0.0902
  407MOL0     O54834  -0.599   5.658   7.877 -0.5547 -0.2012  0.4569
  407MOL0     C54835  -0.635   5.786   7.861 -0.2025  0.1001  0.6573
  407MOL0     C54836  -0.546   5.893   7.808  1.0518  1.0133  0.2535
  407MOL0     C54837  -0.589   6.028   7.816 -0.2365 -0.4278 -0.2063
  407MOL0     C54838  -0.493   6.131   7.759 -0.5385 -0.3955  1.0222
  407MOL0     C54839  -0.715   6.060   7.872 -0.3945  0.0385  0.5575
  407MOL0     C54840  -0.774   6.194   7.888 -0.2869 -0.1022  0.4590
  407MOL0     O54841  -0.913   6.200   7.923  0.0440  0.3846  0.3691
  407MOL0     C54842  -0.997   6.306   7.920  0.5171  0.1171  0.8764
  407MOL0     C54843  -1.130   6.273   7.905  0.4260 -0.7270 -0.2210
  407MOL0     C54844  -1.230   6.380   7.888 -0.1342  0.2266 -0.3107
  407MOL0     C54845  -1.197   6.513   7.912  0.5488 -0.5983 -0.6923
  407MOL0     O54846  -1.298   6.602   7.911 -0.2601  0.9451 -0.0679
  407MOL0     C54847  -1.269   6.727   7.846  0.3687  0.5344 -1.0497
  407MOL0     C54848  -1.393   6.799   7.809 -1.3050 -0.5688  0.2153
  407MOL0     C54849  -1.455   6.751   7.673 -0.9670 -0.2533 -0.2471
  407MOL0     C54850  -1.401   6.824   7.553 -0.2924  0.7172  0.4792
  407MOL0     C54851  -1.281   6.738   7.490  0.3710 -0.1331  0.1991
  407MOL0     C54852  -1.184   6.827   7.410  0.2629 -0.1632  0.3199
  407MOL0     C54853  -1.255   6.913   7.305  0.4605  0.9232  0.4673
  407MOL0     C54854  -1.340   6.823   7.199  1.5304  0.0181  0.1614
  407MOL0    Cl54855  -1.240   6.682   7.139 -0.0016 -0.3079  0.2044
  407MOL0     C54856  -1.064   6.543   7.922 -0.0170  0.0229  0.5585
  407MOL0     C54857  -0.963   6.445   7.925  0.0255  0.7094  0.3416
  407MOL0     O54858  -0.708   6.289   7.847  0.1800 -0.3353  0.0614
  407MOL0     C54859  -0.800   5.953   7.901  0.4873  0.0463 -0.8318
  407MOL0     C54860  -0.763   5.823   7.898  0.3044  0.1245  0.4782
  407MOL0     N54861  -0.017   5.382   8.055  0.5262  0.6725 -0.1843
  407MOL0     N54862   0.093   5.328   8.098 -0.2716 -0.4956 -0.3874
  407MOL0     C54863   1.292   4.988   8.174 -0.7084  0.6456 -1.0300
  407MOL0     C54864   1.410   5.058   8.189  0.2816  0.0122 -0.6795
  407MOL0     C54865   1.739   5.403   8.123 -0.2194  0.2979 -0.4150
  407MOL0     C54866   1.772   5.538   8.098 -0.7433 -0.1028  0.9307
  407MOL0     C54867   1.911   5.569   8.091  0.2297 -0.5083  0.2178
  407MOL0     C54868   2.013   5.471   8.104 -0.2054 -0.6751 -0.7001
  407MOL0     O54869   2.146   5.501   8.108 -0.0178 -0.0895  0.3642
  407MOL0     C54870   2.206   5.628   8.088  0.3715  0.3077  0.0457
  407MOL0     C54871   2.354   5.619   8.068  0.2946  0.6963 -0.3331
  407MOL0     C54872   2.431   5.654   8.188  0.3206  0.8762 -0.4778
  407MOL0     C54873   2.583   5.623   8.175  0.5520 -1.1199  0.1369
  407MOL0     C54874   2.650   5.656   8.295 -0.3145 -1.2026  0.3981
  407MOL0     C54875   2.703   5.693   8.398 -0.4546  0.2292 -0.9259
  407MOL0     C54876   1.975   5.340   8.126 -0.3735 -0.2620 -0.3493
  407MOL0     C54877   1.841   5.305   8.138 -0.5200  1.2304  0.1926
  407MOL0     H54878   1.355   5.327   7.996  3.4313  0.1259  0.1896
  407MOL0     H54879   1.143   5.197   7.957  2.0779  2.3776 -1.2627
  407MOL0     H54880   0.943   5.083   8.101  0.7692  0.4868 -0.3863
  407MOL0     H54881   0.966   5.046   7.922  0.2252  5.2605  1.7528
  407MOL0     H54882   0.864   4.845   7.931  3.5717  1.1013 -0.5710
  407MOL0     H54883   0.881   4.843   8.115  4.7141  3.6613  2.0787
  407MOL0     H54884   0.717   5.021   8.128  1.4322 -1.1856  0.7341
  407MOL0     H54885   0.707   5.035   7.948 -1.1739 -0.8398  0.0900
  407MOL0     H54886   0.620   4.800   7.942  1.8784  0.1202 -1.5770
  407MOL0     H54887   0.612   4.813   8.118  2.8107  0.1291  0.7943
  407MOL0     H54888   0.491   5.036   7.936  2.2853  2.0823  3.3191
  407MOL0     H54889   0.405   4.883   7.962 -0.4259  1.3175 -0.4139
  407MOL0     H54890   0.386   4.939   8.194 -0.8425 -0.4788 -0.9592
  407MOL0     H54891   0.513   5.064   8.194 -0.6056  0.3986  0.7213
  407MOL0     H54892   0.330   5.186   8.188 -3.8347 -1.4287  0.0320
  407MOL0     H54893   0.362   5.200   8.026  1.3871  1.2552  1.8203
  407MOL0     H54894   0.144   5.043   8.168  1.2162 -2.5008 -0.1201
  407MOL0     H54895   0.181   4.995   8.011 -0.4073 -0.3930  0.5731
  407MOL0     H54896  -0.037   5.103   7.895 -1.6008 -0.4989  1.2688
  407MOL0     H54897  -0.226   5.284   7.799 -3.3881 -2.4531  0.2633
  407MOL0     H54898  -0.273   5.235   7.962  1.3760 -1.6815 -0.3212
  407MOL0     H54899  -0.218   5.535   7.909 -2.7445  1.2181 -4.5517
  407MOL0     H54900  -0.304   5.451   8.049 -1.4244 -0.8305 -0.3128
  407MOL0     H54901  -0.492   5.418   7.896 -0.1280 -0.5463  1.3840
  407MOL0     H54902  -0.406   5.489   7.767  0.0281 -2.9410  1.2575
  407MOL0     H54903  -0.389   5.692   7.865  0.2852  0.5414  0.2780
  407MOL0     H54904  -0.457   5.642   8.026  1.2757 -3.0418  0.5485
  407MOL0     H54905  -0.451   5.857   7.767  0.1293  1.2167 -2.2872
  407MOL0     H54906  -0.461   6.200   7.838  2.0084  0.1487 -0.4030
  407MOL0     H54907  -0.408   6.077   7.716 -0.7088 -0.3475  0.6272
  407MOL0     H54908  -0.539   6.192   7.681 -2.6287 -1.1807  1.5538
  407MOL0     H54909  -1.164   6.171   7.920 -0.5338 -0.4229 -0.2567
  407MOL0     H54910  -1.337   6.374   7.870 -0.8945  1.3229  3.0467
  407MOL0     H54911  -1.221   6.796   7.916 -2.5228 -0.8555  2.5873
  407MOL0     H54912  -1.197   6.706   7.766  2.8109 -2.9102  1.7913
  407MOL0     H54913  -1.467   6.797   7.890  0.1378 -0.7275  1.5677
  407MOL0     H54914  -1.353   6.900   7.804  2.9382 -2.0724 -0.2280
  407MOL0     H54915  -1.562   6.768   7.693 -0.6189  0.6112  0.9343
  407MOL0     H54916  -1.429   6.646   7.657  2.7956 -0.1093  3.4478
  407MOL0     H54917  -1.475   6.845   7.475 -0.8466 -0.9928  0.5075
  407MOL0     H54918  -1.370   6.926   7.577 -1.9008  1.4692 -0.4375
  407MOL0     H54919  -1.310   6.655   7.425 -2.0918 -0.1152  1.1665
  407MOL0     H54920  -1.223   6.697   7.573 -0.7217 -0.0332  1.0515
  407MOL0     H54921  -1.133   6.896   7.478  1.4902 -1.4834  0.7857
  407MOL0     H54922  -1.099   6.769   7.376  1.3778  0.7672  1.4263
  407MOL0     H54923  -1.180   6.966   7.245 -1.0397  2.2665 -0.2846
  407MOL0     H54924  -1.313   6.994   7.348  1.3306  0.8682  1.7959
  407MOL0     H54925  -1.376   6.888   7.120 -0.6992 -0.4678  0.7242
  407MOL0     H54926  -1.426   6.785   7.255 -0.1518  0.7522 -1.8287
  407MOL0     H54927  -1.044   6.648   7.940  0.8856  1.0548 -4.6896
  407MOL0     H54928  -0.856   6.460   7.928  0.2691 -0.5171 -0.9266
  407MOL0     H54929  -0.903   5.969   7.931  1.2416  0.4475  1.8480
  407MOL0     H54930  -0.838   5.747   7.916  0.1008 -0.1493 -1.3112
  407MOL0     H54931   1.272   4.895   8.226 -0.3661  0.2682 -1.5555
  407MOL0     H54932   1.488   5.022   8.256 -0.6009  1.1054  0.9988
  407MOL0     H54933   1.701   5.618   8.082 -0.7345 -0.5429 -1.7644
  407MOL0     H54934   1.948   5.670   8.077 -1.7642  0.4546  1.4482
  407MOL0     H54935   2.173   5.682   7.998  1.7779  2.4753  0.7433
  407MOL0     H54936   2.182   5.696   8.170  1.2789  1.7519 -0.8317
  407MOL0     H54937   2.392   5.686   7.991  1.7174 -0.3314 -0.5700
  407MOL0     H54938   2.379   5.518   8.032 -2.7302 -0.2363 -0.1339
  407MOL0     H54939   2.393   5.597   8.274  0.5633 -0.7610 -1.4271
  407MOL0     H54940   2.417   5.757   8.221 -0.6400  0.3641  0.8339
  407MOL0     H54941   2.629   5.681   8.094 -0.5302  1.6776  1.4164
  407MOL0     H54942   2.603   5.519   8.148 -1.0727 -1.7183  1.0741
  407MOL0     H54943   2.755   5.731   8.483 -2.3497 -1.0358  0.8937
  407MOL0     H54944   2.043   5.259   8.149  0.4765  1.0493  2.0298
  407MOL0     H54945   1.811   5.204   8.162 -0.0214  1.0213 -0.0479
  408MOL0     O54946   6.471   5.923   4.708  0.4643  0.2297 -0.1110
  408MOL0     C54947   6.537   5.998   4.635  0.9343  1.2227 -0.9621
  408MOL0     O54948   6.511   6.040   4.506 -0.1116 -0.1158  0.1640
  408MOL0     C54949   6.393   6.003   4.439 -0.8639  0.9303 -0.3516
  408MOL0     C54950   6.269   5.994   4.509  0.2956 -0.8476  0.5686
  408MOL0     C54951   6.155   5.964   4.434  0.1586  0.2646  0.3738
  408MOL0     C54952   6.154   5.961   4.287  0.3137 -0.1831  0.8863
  408MOL0     O54953   6.042   5.929   4.209 -0.9241 -0.0374 -0.4889
  408MOL0     C54954   5.955   5.830   4.258  0.3085  0.9975 -0.7073
  408MOL0     C54955   5.814   5.824   4.186  0.1887  0.3993  0.1565
  408MOL0     C54956   5.724   5.718   4.252  0.4921  0.8737 -0.9094
  408MOL0     C54957   5.587   5.697   4.181 -0.9317  1.1359 -0.5980
  408MOL0     C54958   5.522   5.821   4.147  0.2140 -0.5751 -0.3398
  408MOL0     C54959   5.369   5.812   4.121  0.5461 -0.7746 -0.0432
  408MOL0     C54960   5.297   5.955   4.101 -0.5667  0.2212 -0.1249
  408MOL0     C54961   5.148   5.941   4.119 -0.3016 -0.3441  0.1243
  408MOL0     N54962   5.076   6.067   4.143 -0.2180  0.5970  0.2377
  408MOL0     C54963   5.098   6.169   4.231  0.3398 -0.5433 -0.8278
  408MOL0     C54964   5.023   6.274   4.192 -0.4437  0.0895 -0.1220
  408MOL0     C54965   5.000   6.403   4.268  0.0978 -1.1230 -0.6869
  408MOL0     C54966   4.913   6.375   4.392  0.0828 -0.5948 -0.8273
  408MOL0     C54967   4.771   6.330   4.351  0.0106  0.1801 -0.7019
  408MOL0     C54968   4.687   6.458   4.321  1.7871 -0.6016 -1.2255
  408MOL0     O54969   4.570   6.406   4.255 -0.4131 -0.6345  0.2092
  408MOL0     C54970   4.457   6.489   4.255  0.0312  0.0327  0.1211
  408MOL0     C54971   4.464   6.632   4.263  0.1279 -0.7292  0.1612
  408MOL0     C54972   4.348   6.714   4.250 -0.2429  0.4993 -0.2238
  408MOL0     C54973   4.375   6.859   4.230  1.2190  0.0501  0.3601
  408MOL0     C54974   4.224   6.654   4.268  0.0650  0.4970 -0.5886
  408MOL0     C54975   4.096   6.736   4.282  0.4645  0.1928 -0.2778
  408MOL0     O54976   4.071   6.838   4.197  1.2063 -0.2511  0.1727
  408MOL0     C54977   3.972   6.930   4.215  0.1383 -0.3449  0.3734
  408MOL0     C54978   3.874   6.960   4.116  0.2167  0.1595  0.2415
  408MOL0     C54979   3.759   7.051   4.140 -0.8819  0.5798 -0.4922
  408MOL0     C54980   3.745   7.106   4.272 -0.0232  0.9632 -0.3582
  408MOL0     O54981   3.649   7.197   4.306 -0.2936  0.0388 -0.3508
  408MOL0     C54982   3.552   7.236   4.210 -0.1284  0.5347  0.5111
  408MOL0     C54983   3.453   7.335   4.269 -0.2767  0.2041  0.5096
  408MOL0     C54984   3.366   7.402   4.159  0.7686 -0.1903 -0.7512
  408MOL0     C54985   3.245   7.464   4.227  0.3731 -0.4542  0.1141
  408MOL0     C54986   3.152   7.521   4.120  0.0268 -0.2396  0.2466
  408MOL0     C54987   3.009   7.559   4.177  0.4064 -0.1194 -0.4024
  408MOL0     C54988   2.908   7.618   4.077 -0.1929  0.4674 -0.4079
  408MOL0     C54989   2.763   7.593   4.117  0.2017 -0.6970 -0.0217
  408MOL0    Cl54990   2.725   7.422   4.161  0.0554  0.1324 -0.2986
  408MOL0     C54991   3.849   7.083   4.365 -0.0339 -0.5799 -0.3450
  408MOL0     C54992   3.958   6.997   4.342 -1.0883  0.5524  0.7448
  408MOL0     O54993   4.020   6.700   4.377 -0.3025  0.5292  0.4349
  408MOL0     C54994   4.212   6.518   4.273 -0.4705  0.7240  0.3755
  408MOL0     C54995   4.324   6.433   4.262 -0.5438 -0.7171  0.0430
  408MOL0     N54996   4.951   6.241   4.072  0.5567 -0.2582  0.3660
  408MOL0     N54997   4.978   6.112   4.057  0.4419 -0.3326 -0.3550
  408MOL0     C54998   6.280   5.967   4.224 -0.3749 -1.1475  0.1922
  408MOL0     C54999   6.400   5.986   4.307  0.8056  0.2437  0.5562
  408MOL0     C55000   6.668   6.052   4.686  0.2058  0.0989 -0.4524
  408MOL0     C55001   6.689   6.045   4.828  0.4717 -0.9172  0.9958
  408MOL0     C55002   6.792   6.106   4.884 -0.4425 -0.1419 -0.1995
  408MOL0     C55003   6.883   6.184   4.804  0.1414 -0.7495  1.0597
  408MOL0     O55004   6.973   6.268   4.869  0.0041 -0.0163  0.3101
  408MOL0     C55005   7.092   6.317   4.803 -0.2448 -0.4265 -0.4876
  408MOL0     C55006   7.205   6.258   4.871 -0.4372 -0.6828  0.2034
  408MOL0     C55007   7.232   6.318   5.000 -0.0659 -0.5940 -0.2529
  408MOL0     C55008   7.366   6.285   5.061 -0.6265  0.1552  0.4791
  408MOL0     C55009   7.466   6.376   5.006 -0.4158  0.2961  0.0384
  408MOL0     C55010   7.550   6.461   4.977  0.1915  0.5239  0.0804
  408MOL0     C55011   6.865   6.187   4.662 -0.4662  0.3612  1.0705
  408MOL0     C55012   6.764   6.114   4.608 -0.7519  0.1882  0.4181
  408MOL0     H55013   6.253   6.021   4.613 -1.2319  0.8532 -0.0472
  408MOL0     H55014   6.058   5.958   4.482  0.7033  2.5963  1.9300
  408MOL0     H55015   6.024   5.745   4.254  1.0369  1.5543 -0.1800
  408MOL0     H55016   5.932   5.841   4.365 -2.7810 -1.8140 -0.9178
  408MOL0     H55017   5.766   5.922   4.185 -1.3546 -0.3145 -1.5779
  408MOL0     H55018   5.826   5.803   4.079  2.2997 -1.0940  0.6271
  408MOL0     H55019   5.775   5.622   4.241  0.4165  1.1658 -6.1522
  408MOL0     H55020   5.711   5.744   4.358  0.7273  2.2098 -1.1871
  408MOL0     H55021   5.611   5.632   4.096  2.4654  1.4366 -0.0039
  408MOL0     H55022   5.519   5.637   4.242  2.0362 -1.5837  0.3556
  408MOL0     H55023   5.545   5.898   4.221 -0.5680  0.2229 -0.9004
  408MOL0     H55024   5.556   5.853   4.048 -1.5470  2.2491 -0.1696
  408MOL0     H55025   5.332   5.745   4.043 -3.3025 -0.1122  1.0408
  408MOL0     H55026   5.322   5.766   4.208 -1.7691  0.2549 -0.6746
  408MOL0     H55027   5.341   6.034   4.164  0.1459 -0.3880  0.1483
  408MOL0     H55028   5.310   5.986   3.997  0.0226  1.2370  0.2240
  408MOL0     H55029   5.124   5.879   4.206 -2.1018  0.8861  0.5700
  408MOL0     H55030   5.112   5.887   4.031  0.6075  0.3010 -0.6649
  408MOL0     H55031   5.170   6.149   4.310 -0.4943 -0.3609  0.0103
  408MOL0     H55032   5.097   6.450   4.286 -0.4169 -0.5274  0.6490
  408MOL0     H55033   4.947   6.471   4.201  0.3929  3.5566  3.2822
  408MOL0     H55034   4.914   6.460   4.461  0.2283 -1.0987 -0.2081
  408MOL0     H55035   4.960   6.296   4.451  1.0670 -0.1415 -0.9751
  408MOL0     H55036   4.708   6.286   4.429  0.8748 -0.5612 -0.4138
  408MOL0     H55037   4.774   6.254   4.273 -0.2586 -0.7134  0.1396
  408MOL0     H55038   4.742   6.529   4.258 -0.7255 -0.2347 -3.1202
  408MOL0     H55039   4.657   6.509   4.413 -3.5478  1.7161 -3.8379
  408MOL0     H55040   4.564   6.666   4.237 -0.3053  1.0909  0.6958
  408MOL0     H55041   4.306   6.917   4.293 -0.8541 -3.0206  1.1303
  408MOL0     H55042   4.482   6.877   4.238  1.1602  0.7030 -0.2517
  408MOL0     H55043   4.342   6.879   4.128  3.0402 -1.3606 -0.5543
  408MOL0     H55044   3.861   6.909   4.021 -0.0565  0.6007  0.0363
  408MOL0     H55045   3.695   7.077   4.057  0.5137  0.4170 -1.6720
  408MOL0     H55046   3.600   7.289   4.127 -2.4420  0.0272 -1.2742
  408MOL0     H55047   3.504   7.150   4.163 -0.6805  0.8646  0.4623
  408MOL0     H55048   3.397   7.268   4.334 -2.0994 -1.1696 -2.3026
  408MOL0     H55049   3.514   7.418   4.307 -0.5350  0.1733  1.0007
  408MOL0     H55050   3.317   7.322   4.103 -0.7573  0.9467 -1.0908
  408MOL0     H55051   3.419   7.464   4.086 -0.2135 -2.8967 -4.0230
  408MOL0     H55052   3.194   7.402   4.300 -2.5180  0.3838 -1.0516
  408MOL0     H55053   3.277   7.549   4.288 -3.0431  1.0650  0.0173
  408MOL0     H55054   3.143   7.449   4.038 -1.2652  0.9851 -0.7641
  408MOL0     H55055   3.194   7.612   4.076  0.0583  0.6847  2.1057
  408MOL0     H55056   2.973   7.471   4.231  2.2981 -0.6991 -0.0150
  408MOL0     H55057   3.018   7.640   4.250  0.7736  1.8719 -2.5276
  408MOL0     H55058   2.922   7.572   3.979 -0.1656 -0.0650 -0.1615
  408MOL0     H55059   2.931   7.725   4.076  0.8400  0.5389  4.2495
  408MOL0     H55060   2.710   7.619   4.026  0.7701  1.9907  0.3409
  408MOL0     H55061   2.750   7.658   4.204  2.2420  1.0325 -0.9059
  408MOL0     H55062   3.837   7.137   4.458 -0.2124 -0.1974 -0.5864
  408MOL0     H55063   4.037   6.990   4.416  1.4095 -2.7573 -1.8785
  408MOL0     H55064   4.119   6.470   4.303 -0.0377 -0.2308  0.2244
  408MOL0     H55065   4.317   6.326   4.278 -1.4385 -0.4317  1.6708
  408MOL0     H55066   6.282   5.972   4.116  0.4316 -1.4817  0.1851
  408MOL0     H55067   6.492   5.985   4.249  0.2918 -0.3761 -0.2640
  408MOL0     H55068   6.613   6.006   4.895 -0.5538 -1.5187 -0.4669
  408MOL0     H55069   6.807   6.106   4.992 -2.4177 -1.4301  0.1195
  408MOL0     H55070   7.102   6.280   4.701 -0.4090  0.9203 -1.0142
  408MOL0     H55071   7.088   6.426   4.805 -1.8393 -0.4471 -1.0478
  408MOL0     H55072   7.292   6.265   4.804 -1.5241 -2.2127 -1.4832
  408MOL0     H55073   7.191   6.149   4.876 -3.5971 -0.4334 -1.1384
  408MOL0     H55074   7.163   6.281   5.077  0.6139 -0.0528  0.6503
  408MOL0     H55075   7.216   6.426   5.001 -2.7679 -0.8921  1.8003
  408MOL0     H55076   7.397   6.183   5.036  1.8261  1.4514 -2.3213
  408MOL0     H55077   7.358   6.287   5.170 -1.7853 -0.0698  0.4146
  408MOL0     H55078   7.623   6.532   4.942  1.1318 -1.6572 -2.8339
  408MOL0     H55079   6.925   6.231   4.583 -1.6383 -0.8222 -0.5587
  408MOL0     H55080   6.772   6.095   4.502 -1.1162  1.0506  0.2284
  409MOL0     O55081   8.167   6.675   4.060  0.3466  0.1943  0.1938
  409MOL0     C55082   8.153   6.719   4.172 -0.2199 -0.3735  0.7201
  409MOL0     O55083   8.061   6.808   4.210  0.0703 -0.0733  0.5103
  409MOL0     C55084   7.950   6.837   4.134 -0.8279 -0.7960 -0.2510
  409MOL0     C55085   7.882   6.955   4.167  0.1115  0.3460 -0.9353
  409MOL0     C55086   7.767   7.000   4.096  0.5755 -1.2389  0.3858
  409MOL0     C55087   7.727   6.930   3.984  0.2497 -0.2198  0.7487
  409MOL0     O55088   7.627   7.004   3.923  1.0970 -0.2740 -0.3648
  409MOL0     C55089   7.564   6.979   3.799 -0.7873 -0.5563 -0.1387
  409MOL0     C55090   7.458   7.091   3.772 -1.3499 -0.0479  0.0551
  409MOL0     C55091   7.358   7.050   3.663 -0.1963  0.0963  0.1631
  409MOL0     C55092   7.230   6.999   3.732 -0.1578  0.0546 -0.0363
  409MOL0     C55093   7.124   6.981   3.614  0.1220  0.1818 -1.0734
  409MOL0     C55094   6.994   6.905   3.660  0.5112  0.3789 -0.3637
  409MOL0     C55095   6.896   6.976   3.762  0.7192 -0.2885 -0.2703
  409MOL0     C55096   6.832   7.108   3.713 -0.0543  0.1767 -0.4650
  409MOL0     N55097   6.701   7.096   3.647  0.4140  0.4606  0.3087
  409MOL0     C55098   6.675   7.029   3.524 -0.1048 -1.2058  0.0415
  409MOL0     C55099   6.542   7.015   3.520 -0.8054  0.3851  0.0797
  409MOL0     C55100   6.480   6.935   3.407 -0.4078 -0.2508 -1.0409
  409MOL0     C55101   6.381   7.028   3.340 -0.2657  0.5895  0.1601
  409MOL0     C55102   6.317   6.950   3.226 -0.1977  0.7634  0.0018
  409MOL0     C55103   6.225   7.047   3.159  0.0866  0.5971 -0.5167
  409MOL0     O55104   6.157   6.977   3.048 -0.2729 -0.5338  0.2246
  409MOL0     C55105   6.045   6.906   3.074  0.2017  0.0492  0.3836
  409MOL0     C55106   6.045   6.775   3.024 -0.0712  0.4132 -0.0302
  409MOL0     C55107   5.938   6.690   3.057  0.2252 -1.5875 -0.4772
  409MOL0     C55108   5.955   6.542   3.029  0.0547  0.0421 -0.9325
  409MOL0     C55109   5.817   6.742   3.121  0.0522  0.4662  0.2366
  409MOL0     C55110   5.695   6.668   3.159  0.5261 -0.1319 -0.5983
  409MOL0     O55111   5.620   6.738   3.253  0.7633 -0.2076 -0.1694
  409MOL0     C55112   5.501   6.682   3.290  0.4584 -0.0747 -0.5487
  409MOL0     C55113   5.392   6.689   3.201 -0.2868  0.2419  0.0815
  409MOL0     C55114   5.265   6.630   3.231  0.0952 -0.6450 -0.0076
  409MOL0     C55115   5.255   6.553   3.345 -0.4792 -0.5883  0.1167
  409MOL0     O55116   5.141   6.498   3.400 -0.1474 -0.7529  0.1369
  409MOL0     C55117   5.025   6.491   3.317  0.9520  0.2594 -0.5847
  409MOL0     C55118   4.898   6.444   3.383 -0.3003  0.2501 -0.1346
  409MOL0     C55119   4.773   6.455   3.298  0.0142 -0.4506 -0.1715
  409MOL0     C55120   4.698   6.590   3.296  0.7932 -0.3103 -0.6843
  409MOL0     C55121   4.634   6.614   3.434 -0.0096 -0.2637  0.5259
  409MOL0     C55122   4.658   6.746   3.488 -0.5948  0.0749  0.7098
  409MOL0     C55123   4.581   6.772   3.615  0.1852  0.0199  0.7962
  409MOL0     C55124   4.472   6.874   3.587 -0.3809 -0.8642 -0.8624
  409MOL0    Cl55125   4.332   6.802   3.495  0.1929  0.1148 -0.2009
  409MOL0     C55126   5.360   6.544   3.436  0.1496 -0.3569  0.2633
  409MOL0     C55127   5.483   6.604   3.406  0.2195  0.4805 -0.4656
  409MOL0     O55128   5.686   6.541   3.136  0.2499  0.0959  0.0637
  409MOL0     C55129   5.818   6.877   3.147  0.4757 -0.5943 -0.8420
  409MOL0     C55130   5.931   6.957   3.133 -0.3610  0.1409  1.5554
  409MOL0     N55131   6.485   7.068   3.632  0.1527  0.5741 -1.3153
  409MOL0     N55132   6.579   7.129   3.700 -0.1298 -0.1492 -0.3831
  409MOL0     C55133   7.793   6.810   3.947 -0.0197  1.1780 -0.2426
  409MOL0     C55134   7.901   6.755   4.028 -0.1308 -0.1940 -0.5649
  409MOL0     C55135   8.222   6.658   4.289 -0.1514 -0.5843 -0.2832
  409MOL0     C55136   8.209   6.726   4.417 -0.9876  0.4237 -0.6853
  409MOL0     C55137   8.274   6.679   4.524  0.4002 -0.2860  0.6978
  409MOL0     C55138   8.361   6.563   4.513 -0.5692 -0.5380  0.3338
  409MOL0     O55139   8.429   6.503   4.607 -0.2974  0.9073 -0.6437
  409MOL0     C55140   8.427   6.552   4.746 -0.1503  0.5039 -0.2977
  409MOL0     C55141   8.519   6.482   4.840  0.2371  0.0786  0.1453
  409MOL0     C55142   8.456   6.350   4.887  0.6523 -0.3610 -0.3075
  409MOL0     C55143   8.357   6.376   5.006  0.5749  1.8764 -0.2450
  409MOL0     C55144   8.427   6.400   5.137 -0.6946 -0.5996 -0.3604
  409MOL0     C55145   8.490   6.401   5.242  0.4222 -0.1882  0.7420
  409MOL0     C55146   8.378   6.514   4.386 -0.0564 -0.3378  0.7681
  409MOL0     C55147   8.314   6.559   4.277  0.1008  0.1851 -0.3311
  409MOL0     H55148   7.919   7.032   4.233  3.0316 -0.0221 -1.9503
  409MOL0     H55149   7.711   7.088   4.128  2.7586 -0.4876  2.4189
  409MOL0     H55150   7.634   6.976   3.715  0.5743 -0.8286  0.9713
  409MOL0     H55151   7.516   6.880   3.798 -1.8536 -0.0577 -0.2632
  409MOL0     H55152   7.411   7.127   3.863 -0.1296 -0.3464  0.8317
  409MOL0     H55153   7.515   7.170   3.722 -0.6594  1.4451  2.9868
  409MOL0     H55154   7.336   7.134   3.597  0.6597  0.2742  0.0948
  409MOL0     H55155   7.395   6.968   3.600  2.6887  1.8623 -0.5827
  409MOL0     H55156   7.244   6.905   3.785  2.5062  0.4888  0.1725
  409MOL0     H55157   7.201   7.073   3.807 -2.2647 -2.2484  1.5506
  409MOL0     H55158   7.095   7.082   3.581 -1.7879  0.4419  1.1063
  409MOL0     H55159   7.168   6.919   3.536 -2.2227  0.2778 -2.5574
  409MOL0     H55160   6.941   6.859   3.576  3.4537  0.6900 -2.5942
  409MOL0     H55161   7.038   6.816   3.706  1.3990  0.7109 -0.5280
  409MOL0     H55162   6.813   6.912   3.791 -2.0480  2.9634 -0.4432
  409MOL0     H55163   6.946   7.002   3.855 -3.4019  5.0260  0.9215
  409MOL0     H55164   6.907   7.146   3.643  0.4164 -1.1939 -0.7239
  409MOL0     H55165   6.820   7.173   3.800  1.4243  0.4637 -0.4487
  409MOL0     H55166   6.748   6.992   3.453  0.2405 -1.4144  0.4982
  409MOL0     H55167   6.559   6.896   3.342  0.6683 -1.7997  1.0577
  409MOL0     H55168   6.442   6.841   3.449 -3.2147  1.3007  0.1586
  409MOL0     H55169   6.440   7.114   3.309  2.3296 -0.6141  1.4607
  409MOL0     H55170   6.308   7.058   3.416  1.4427 -1.5150  2.7989
  409MOL0     H55171   6.274   6.855   3.259  0.3324  1.0947  1.7807
  409MOL0     H55172   6.395   6.916   3.157 -0.5449 -1.9809  0.8520
  409MOL0     H55173   6.286   7.127   3.116 -1.3043 -0.6259 -5.4036
  409MOL0     H55174   6.152   7.083   3.233 -1.2223 -2.3595 -0.2195
  409MOL0     H55175   6.120   6.735   2.956  1.3517 -0.1242  1.7857
  409MOL0     H55176   6.048   6.526   2.974  0.8372  0.3164  0.2617
  409MOL0     H55177   5.963   6.481   3.120 -1.1759  1.2067  0.0139
  409MOL0     H55178   5.874   6.496   2.972  0.8449  0.9197 -2.8355
  409MOL0     H55179   5.410   6.734   3.104  0.6061 -0.7488 -0.2403
  409MOL0     H55180   5.183   6.628   3.160 -1.1704 -1.2792  1.4058
  409MOL0     H55181   5.004   6.593   3.284  0.3330  1.7983  3.8720
  409MOL0     H55182   5.047   6.423   3.235 -0.0810  1.2270 -1.7085
  409MOL0     H55183   4.918   6.339   3.407  1.0040  0.7087  0.8953
  409MOL0     H55184   4.875   6.494   3.478  0.8542 -3.7624  2.5202
  409MOL0     H55185   4.697   6.382   3.328 -3.2869  2.5685 -0.5368
  409MOL0     H55186   4.800   6.430   3.195  0.4768  2.3671 -0.8168
  409MOL0     H55187   4.767   6.669   3.264  1.2056 -0.7397 -0.8609
  409MOL0     H55188   4.615   6.579   3.227  0.2990 -2.5956  0.1970
  409MOL0     H55189   4.677   6.546   3.508  2.0417  1.7187  1.2658
  409MOL0     H55190   4.526   6.606   3.419  0.4794 -0.0295 -5.0764
  409MOL0     H55191   4.763   6.754   3.519 -0.3535  0.7097 -0.2545
  409MOL0     H55192   4.644   6.824   3.413  0.5503  0.2322  0.6298
  409MOL0     H55193   4.661   6.808   3.680  2.7138 -0.9448 -1.5704
  409MOL0     H55194   4.538   6.679   3.655  0.0893 -1.0301 -1.5904
  409MOL0     H55195   4.512   6.964   3.538  1.0647 -1.0878 -0.1314
  409MOL0     H55196   4.443   6.907   3.687  0.4415  1.2285 -1.2665
  409MOL0     H55197   5.341   6.488   3.527 -0.4703 -1.7360 -0.6717
  409MOL0     H55198   5.562   6.580   3.476 -0.0287 -1.6140 -0.8518
  409MOL0     H55199   5.732   6.927   3.192 -0.2271 -2.2991 -0.1937
  409MOL0     H55200   5.910   7.060   3.157  1.6626  1.1401 -0.6058
  409MOL0     H55201   7.781   6.756   3.853  2.8920 -0.5143  0.2335
  409MOL0     H55202   7.946   6.661   3.996 -0.6896 -0.8479  0.5476
  409MOL0     H55203   8.166   6.822   4.444  0.0199  0.4080  1.1142
  409MOL0     H55204   8.256   6.718   4.623 -0.5681 -1.8365  1.1618
  409MOL0     H55205   8.449   6.659   4.745 -0.5371  0.7504  3.7503
  409MOL0     H55206   8.323   6.536   4.777 -0.1519  0.7763 -0.1698
  409MOL0     H55207   8.536   6.552   4.922 -0.2169  1.9984 -1.3172
  409MOL0     H55208   8.617   6.457   4.798  1.9683 -0.2709  3.9744
  409MOL0     H55209   8.531   6.279   4.924 -1.5294 -2.1468  0.9135
  409MOL0     H55210   8.399   6.300   4.808 -0.1206 -1.2021  0.7557
  409MOL0     H55211   8.294   6.289   5.026  0.6025  1.6468 -1.1276
  409MOL0     H55212   8.291   6.462   4.995 -0.1295  1.5320  1.0897
  409MOL0     H55213   8.549   6.407   5.331  2.7035 -0.9990 -0.6235
  409MOL0     H55214   8.453   6.437   4.375  0.9475  0.6758  0.2088
  409MOL0     H55215   8.343   6.518   4.181 -0.5689  0.1262 -0.5173
  410MOL0     O55216   3.423   5.684   4.225 -0.3103 -0.2770 -0.7884
  410MOL0     C55217   3.408   5.763   4.313  1.0005  0.2256  1.0367
  410MOL0     O55218   3.483   5.779   4.427  0.1338  0.3008 -0.2642
  410MOL0     C55219   3.582   5.687   4.442  0.0624  0.2956  0.6792
  410MOL0     C55220   3.576   5.546   4.412 -0.3941  0.2444 -0.1444
  410MOL0     C55221   3.694   5.472   4.425  0.6140 -0.4520  0.6605
  410MOL0     C55222   3.811   5.535   4.479 -0.4425  0.2955  0.4111
  410MOL0     O55223   3.915   5.443   4.501 -0.9408 -1.0880 -0.5291
  410MOL0     C55224   4.029   5.480   4.581 -0.1753  0.7746 -0.7381
  410MOL0     C55225   4.141   5.375   4.583  0.1704  0.1621  0.0276
  410MOL0     C55226   4.089   5.230   4.611  1.0677  0.1639 -0.5882
  410MOL0     C55227   4.204   5.127   4.604  0.6094  0.2946  1.1479
  410MOL0     C55228   4.249   5.087   4.460 -0.2602 -0.3107  0.8483
  410MOL0     C55229   4.141   5.006   4.391  0.7524 -0.1888 -0.0425
  410MOL0     C55230   4.193   4.965   4.251 -0.5222  0.3573 -0.2389
  410MOL0     C55231   4.077   4.936   4.156  0.2438  0.2022  0.0089
  410MOL0     N55232   4.026   5.063   4.108  0.3445  0.4635  0.0780
  410MOL0     C55233   3.933   5.140   4.166 -0.5286  0.0987 -0.7040
  410MOL0     C55234   3.930   5.253   4.094 -0.0169  0.1791  0.2254
  410MOL0     C55235   3.838   5.364   4.145 -0.1901 -0.0503 -0.1873
  410MOL0     C55236   3.817   5.472   4.039 -0.4287  0.5898  0.9074
  410MOL0     C55237   3.730   5.589   4.095 -0.4596  0.5028  0.1017
  410MOL0     C55238   3.708   5.702   3.998  0.2144 -0.4583 -0.2954
  410MOL0     O55239   3.685   5.808   4.089  0.2653  0.3055 -0.4012
  410MOL0     C55240   3.646   5.931   4.040  0.4676 -0.7451  0.2748
  410MOL0     C55241   3.563   6.011   4.117  0.0613 -0.0536  0.6025
  410MOL0     C55242   3.507   6.123   4.065 -0.3245 -0.2266 -0.2355
  410MOL0     C55243   3.420   6.201   4.163 -0.0143  0.6761  0.6614
  410MOL0     C55244   3.532   6.170   3.931 -0.2921  0.3394 -0.7609
  410MOL0     C55245   3.478   6.299   3.875  0.0332  0.2315 -0.0238
  410MOL0     O55246   3.374   6.363   3.937 -0.7551  0.0685  0.3790
  410MOL0     C55247   3.305   6.481   3.899  0.1968 -0.1300  0.4454
  410MOL0     C55248   3.254   6.556   4.004  0.0645 -0.6844 -0.4686
  410MOL0     C55249   3.175   6.672   3.991  0.3226  0.3607  0.7752
  410MOL0     C55250   3.150   6.709   3.861  0.8259 -0.6547  0.4309
  410MOL0     O55251   3.075   6.824   3.851 -0.3964  0.1397  0.4831
  410MOL0     C55252   3.082   6.910   3.733 -0.0509  0.7855  0.1016
  410MOL0     C55253   2.973   6.878   3.625  0.5988  0.2305 -0.4158
  410MOL0     C55254   2.977   6.965   3.499  0.4649  0.0498 -0.1510
  410MOL0     C55255   2.959   7.107   3.506 -0.4120  0.0193  0.3368
  410MOL0     C55256   2.829   7.165   3.550 -0.9328 -0.3565 -0.1733
  410MOL0     C55257   2.824   7.317   3.553  0.0664 -0.0166  0.0066
  410MOL0     C55258   2.895   7.379   3.678 -0.7439  0.0842 -0.1809
  410MOL0     C55259   2.830   7.368   3.818 -0.4934  0.6464  0.4846
  410MOL0    Cl55260   2.677   7.476   3.800 -0.0603  0.1990  0.4441
  410MOL0     C55261   3.186   6.637   3.752 -0.0593  0.8486 -0.5771
  410MOL0     C55262   3.274   6.526   3.775  0.8283 -0.0920 -0.0711
  410MOL0     O55263   3.531   6.342   3.777  0.0289  1.0324 -0.1241
  410MOL0     C55264   3.610   6.088   3.847  0.2469  0.3152  0.0414
  410MOL0     C55265   3.671   5.974   3.906  0.3305 -0.1706 -0.9260
  410MOL0     N55266   4.027   5.256   3.997 -0.1538 -0.5147  0.8081
  410MOL0     N55267   4.073   5.136   4.001 -0.1536  0.4772  0.0594
  410MOL0     C55268   3.815   5.670   4.512  0.3854 -0.5008  0.1885
  410MOL0     C55269   3.703   5.743   4.492  1.3442 -0.0222  0.2079
  410MOL0     C55270   3.303   5.856   4.288 -0.6323 -0.3023  0.3221
  410MOL0     C55271   3.234   5.913   4.394  0.0781 -0.0022 -0.4586
  410MOL0     C55272   3.126   5.998   4.383 -0.2694  0.7035 -0.5835
  410MOL0     C55273   3.079   6.021   4.252  0.5126 -0.0039  0.7347
  410MOL0     O55274   2.972   6.101   4.225  0.0969  0.7692  0.0910
  410MOL0     C55275   2.906   6.178   4.324  0.5838  0.8588  0.8099
  410MOL0     C55276   2.870   6.311   4.272 -0.1851  0.8567  0.7966
  410MOL0     C55277   2.836   6.423   4.375 -0.4941 -0.1842 -0.8875
  410MOL0     C55278   2.739   6.520   4.329  0.9956 -0.4019  0.2053
  410MOL0     C55279   2.805   6.596   4.223  0.2204  0.5724 -0.6750
  410MOL0     C55280   2.867   6.648   4.132 -0.1344 -0.3151  0.2371
  410MOL0     C55281   3.147   5.972   4.147 -0.5377 -0.9949  0.7304
  410MOL0     C55282   3.264   5.893   4.159  0.5275 -0.3188 -0.2982
  410MOL0     H55283   3.496   5.492   4.363  0.5161 -1.8386  0.5752
  410MOL0     H55284   3.689   5.367   4.399 -1.2447  0.1697 -1.9097
  410MOL0     H55285   4.070   5.564   4.523  0.1162 -0.3279 -2.1823
  410MOL0     H55286   4.004   5.513   4.682  2.4058  1.7969 -0.3635
  410MOL0     H55287   4.172   5.382   4.478 -3.4953  4.0916 -1.1183
  410MOL0     H55288   4.228   5.401   4.643  2.3988 -0.7290 -2.6313
  410MOL0     H55289   4.050   5.231   4.713  1.3273  0.4281 -0.4924
  410MOL0     H55290   4.002   5.200   4.551  0.2543  0.5717  0.3478
  410MOL0     H55291   4.294   5.164   4.654  2.6916 -2.3474 -0.3648
  410MOL0     H55292   4.175   5.041   4.664  0.6271 -1.7693 -1.5861
  410MOL0     H55293   4.268   5.178   4.403  1.8706 -1.2466 -0.0302
  410MOL0     H55294   4.349   5.043   4.461 -0.6246 -1.2096 -0.1839
  410MOL0     H55295   4.120   4.917   4.452 -3.6503  0.5672 -0.1430
  410MOL0     H55296   4.050   5.066   4.380  1.0510  0.0693 -1.2725
  410MOL0     H55297   4.242   5.052   4.207 -3.2908  1.3492 -1.6243
  410MOL0     H55298   4.271   4.889   4.244  0.0752  0.8471  0.8150
  410MOL0     H55299   4.009   4.877   4.219 -1.5784  1.7687 -0.3908
  410MOL0     H55300   4.113   4.880   4.069 -0.7265  0.0327 -0.2996
  410MOL0     H55301   3.885   5.113   4.260  1.2853  2.5498  1.0696
  410MOL0     H55302   3.743   5.328   4.184  0.2339  1.4324  2.4883
  410MOL0     H55303   3.881   5.412   4.234 -1.3349 -0.4380  0.5944
  410MOL0     H55304   3.762   5.431   3.953 -0.3703 -1.6500  1.8795
  410MOL0     H55305   3.913   5.510   4.004 -0.3196  0.6612  1.2818
  410MOL0     H55306   3.775   5.625   4.188  0.9793  2.3942 -1.2402
  410MOL0     H55307   3.627   5.560   4.117 -1.5994  2.1305 -2.5740
  410MOL0     H55308   3.623   5.679   3.933 -1.2154 -0.7202  1.5912
  410MOL0     H55309   3.803   5.728   3.950 -0.6881  1.0266 -1.3497
  410MOL0     H55310   3.541   5.980   4.219  0.9775  0.8486  1.0967
  410MOL0     H55311   3.404   6.145   4.256 -0.2685  2.2726  1.6204
  410MOL0     H55312   3.464   6.298   4.189  1.2515  0.4285 -0.4601
  410MOL0     H55313   3.323   6.219   4.117 -0.5102 -2.0918  0.4471
  410MOL0     H55314   3.275   6.531   4.107 -2.5382  1.5139  0.7097
  410MOL0     H55315   3.125   6.727   4.070 -1.0086  3.7995 -2.2267
  410MOL0     H55316   3.067   7.016   3.756 -0.6017  0.6303  0.4577
  410MOL0     H55317   3.178   6.904   3.680 -0.5008  1.7243 -0.8487
  410MOL0     H55318   2.977   6.773   3.596 -0.5795  0.1194 -0.2141
  410MOL0     H55319   2.873   6.890   3.669  0.1962 -3.4572 -0.0122
  410MOL0     H55320   2.899   6.913   3.443  0.5880 -2.0833  1.4967
  410MOL0     H55321   3.070   6.964   3.443 -0.2173  0.7883 -1.3322
  410MOL0     H55322   3.032   7.145   3.578  0.6788 -3.8785  1.5327
  410MOL0     H55323   2.984   7.151   3.409 -0.2937  0.2087  0.4515
  410MOL0     H55324   2.797   7.124   3.646 -1.6038  1.5372  0.4524
  410MOL0     H55325   2.756   7.128   3.477 -0.1628 -2.2110 -0.0535
  410MOL0     H55326   2.871   7.346   3.459  1.8138 -0.0465  0.8377
  410MOL0     H55327   2.721   7.351   3.570 -0.6141 -2.3587  1.0761
  410MOL0     H55328   2.916   7.483   3.654  0.5315  0.3489  1.8502
  410MOL0     H55329   2.995   7.333   3.680  0.5843  2.8044  0.4297
  410MOL0     H55330   2.896   7.402   3.897  0.9064  1.0238 -0.8044
  410MOL0     H55331   2.804   7.263   3.838  0.0385  0.2346 -0.8796
  410MOL0     H55332   3.152   6.665   3.653 -0.7729  3.9696  0.4242
  410MOL0     H55333   3.310   6.472   3.688  1.0759  0.6527 -0.4331
  410MOL0     H55334   3.623   6.101   3.741  0.3058 -0.6515 -0.0829
  410MOL0     H55335   3.748   5.934   3.842  0.7680  0.6323 -0.9152
  410MOL0     H55336   3.896   5.729   4.555  2.4180 -0.7313 -2.9612
  410MOL0     H55337   3.700   5.848   4.517  1.8715 -0.3075  1.6040
  410MOL0     H55338   3.258   5.891   4.497  1.4141  1.4256 -0.4217
  410MOL0     H55339   3.070   6.032   4.470  2.5230  0.1543  1.6063
  410MOL0     H55340   2.814   6.125   4.347 -0.7617  2.7700  0.0757
  410MOL0     H55341   2.962   6.198   4.416 -0.1471  3.5368  0.7547
  410MOL0     H55342   2.778   6.293   4.216 -0.7671 -0.1512  2.0317
  410MOL0     H55343   2.949   6.355   4.211 -0.2067  0.3298  0.3797
  410MOL0     H55344   2.919   6.482   4.415 -0.4403  0.4360 -1.8960
  410MOL0     H55345   2.792   6.381   4.466  0.8373 -0.9352 -0.5571
  410MOL0     H55346   2.698   6.593   4.400  0.9166  2.9478 -2.9637
  410MOL0     H55347   2.648   6.468   4.294 -1.2716  3.1285  0.3480
  410MOL0     H55348   2.925   6.692   4.053  0.4274  1.7187  1.7055
  410MOL0     H55349   3.120   6.013   4.050 -0.2512  0.0431  1.0829
  410MOL0     H55350   3.312   5.847   4.073  0.4963  1.9654 -1.6381
  411MOL0     O55351  10.896   3.480   8.883 -0.2185  0.2536 -0.3416
  411MOL0     C55352  10.916   3.538   8.777 -0.2710  0.2520 -0.0690
  411MOL0     O55353  10.839   3.534   8.665  0.1863 -0.1825  0.3022
  411MOL0     C55354  10.710   3.474   8.661 -1.1933  0.0329 -0.2706
  411MOL0     C55355  10.613   3.456   8.760  0.9493 -0.4526 -0.4959
  411MOL0     C55356  10.487   3.413   8.727  0.0469  0.5402 -0.4380
  411MOL0     C55357  10.449   3.392   8.594 -0.6020 -0.4327 -1.3329
  411MOL0     O55358  10.316   3.365   8.551  0.5143  0.2151 -0.3385
  411MOL0     C55359  10.228   3.280   8.634 -0.2323  0.2084  1.0465
  411MOL0     C55360  10.091   3.335   8.592  0.2890 -0.6780  0.2385
  411MOL0     C55361   9.990   3.229   8.608  0.0974  0.3114  0.4861
  411MOL0     C55362   9.853   3.238   8.530 -0.0954 -0.1728  0.1225
  411MOL0     C55363   9.882   3.165   8.394  0.2268  0.3206  0.3259
  411MOL0     C55364   9.750   3.155   8.310  0.0081 -0.0266  0.3819
  411MOL0     C55365   9.661   3.036   8.348 -0.1949 -0.0524 -0.3941
  411MOL0     C55366   9.548   3.032   8.246 -0.8569 -0.8547  0.1742
  411MOL0     N55367   9.486   2.901   8.232  0.0863 -0.3057  0.6205
  411MOL0     C55368   9.524   2.807   8.138  1.2921 -0.6885 -0.5046
  411MOL0     C55369   9.420   2.727   8.133 -0.6749 -0.5330 -1.1148
  411MOL0     C55370   9.402   2.617   8.040 -0.6094  0.5270 -0.5819
  411MOL0     C55371   9.337   2.672   7.915 -0.4028 -0.6236 -0.5557
  411MOL0     C55372   9.283   2.569   7.821 -0.6925 -0.8943 -0.2682
  411MOL0     C55373   9.161   2.490   7.875  0.6474 -0.5026 -0.1156
  411MOL0     O55374   9.111   2.407   7.770  0.1390 -0.3287  0.6720
  411MOL0     C55375   8.986   2.356   7.762  1.1265 -0.9435 -0.5464
  411MOL0     C55376   8.874   2.446   7.758 -0.3266 -1.4813  0.0063
  411MOL0     C55377   8.747   2.404   7.726  0.8381 -0.2904 -0.1363
  411MOL0     C55378   8.647   2.517   7.698  0.0016  0.4287 -0.1375
  411MOL0     C55379   8.725   2.262   7.705 -0.4152 -0.0772 -0.2025
  411MOL0     C55380   8.594   2.209   7.682  0.7603  0.3909  0.6062
  411MOL0     O55381   8.572   2.072   7.659 -0.7317 -0.3038  0.2304
  411MOL0     C55382   8.451   2.019   7.623 -0.7961 -0.2421  0.6392
  411MOL0     C55383   8.421   1.895   7.671  1.2777  0.6394 -0.7606
  411MOL0     C55384   8.300   1.837   7.617 -0.0740  0.0017 -0.9613
  411MOL0     C55385   8.211   1.914   7.534 -0.5448 -0.4322 -0.9559
  411MOL0     O55386   8.104   1.862   7.476  0.1406 -0.7665 -0.8427
  411MOL0     C55387   8.059   1.732   7.523  0.9743  0.0079  0.4039
  411MOL0     C55388   7.924   1.698   7.463  0.0271  0.1180  1.1029
  411MOL0     C55389   7.822   1.799   7.490 -0.0428 -0.3257 -0.6223
  411MOL0     C55390   7.687   1.759   7.433  0.2897 -0.7605  0.1202
  411MOL0     C55391   7.604   1.691   7.536 -0.3288  0.3835  0.5150
  411MOL0     C55392   7.466   1.658   7.485 -0.2661  0.0501  0.2333
  411MOL0     C55393   7.372   1.614   7.598  1.1356 -0.1991 -0.1852
  411MOL0     C55394   7.274   1.503   7.542 -0.4165 -0.6204 -0.2126
  411MOL0    Cl55395   7.186   1.412   7.667 -0.3636  0.1613 -0.1983
  411MOL0     C55396   8.250   2.045   7.493  0.4298  1.2282 -0.2464
  411MOL0     C55397   8.375   2.086   7.529  0.0107  0.3105 -0.2851
  411MOL0     O55398   8.499   2.285   7.684 -0.6314  0.6044  0.1645
  411MOL0     C55399   8.837   2.172   7.708 -0.4056 -0.7728  0.0701
  411MOL0     C55400   8.961   2.230   7.735 -1.2524  0.8741 -0.3602
  411MOL0     N55401   9.317   2.775   8.205  0.1556 -0.3629 -0.6926
  411MOL0     N55402   9.355   2.878   8.264 -0.6548 -0.5169  0.1471
  411MOL0     C55403  10.536   3.419   8.494 -1.0962  0.1547  0.0336
  411MOL0     C55404  10.670   3.461   8.525 -0.3079  1.4932 -0.1502
  411MOL0     C55405  11.041   3.613   8.784  0.7058  0.0932 -0.5128
  411MOL0     C55406  11.144   3.568   8.861 -0.2010 -0.2986  0.9116
  411MOL0     C55407  11.262   3.647   8.861 -0.3309  0.7476 -0.2480
  411MOL0     C55408  11.274   3.759   8.774 -0.2673 -0.6137 -0.5338
  411MOL0     O55409  11.371   3.853   8.803  0.0315 -0.2077 -0.2135
  411MOL0     C55410  11.498   3.807   8.750 -0.2759 -0.2792 -0.1958
  411MOL0     C55411  11.600   3.829   8.869 -0.0770  0.0361 -0.4546
  411MOL0     C55412  11.620   3.982   8.897  0.0864 -0.6855 -0.2462
  411MOL0     C55413  11.641   4.078   8.774 -0.3398  0.2220  0.8381
  411MOL0     C55414  11.657   4.217   8.824  0.6761  0.2137  1.2626
  411MOL0     C55415  11.665   4.330   8.860  0.4592 -0.3409 -0.4935
  411MOL0     C55416  11.164   3.798   8.698 -0.1194  0.0628  0.1617
  411MOL0     C55417  11.049   3.727   8.698 -0.1683  0.8333 -0.7886
  411MOL0     H55418  10.624   3.495   8.860 -0.6227 -0.5605 -0.2543
  411MOL0     H55419  10.403   3.412   8.795  2.2470  1.3604  2.4760
  411MOL0     H55420  10.257   3.176   8.616 -0.3432  0.4308 -0.5646
  411MOL0     H55421  10.239   3.296   8.741  0.0285 -0.4889  1.1289
  411MOL0     H55422  10.039   3.418   8.641 -2.9866 -1.1890 -1.9814
  411MOL0     H55423  10.084   3.365   8.487  2.3692 -1.0019 -0.0241
  411MOL0     H55424  10.023   3.127   8.586 -2.7773 -0.5072 -0.3364
  411MOL0     H55425   9.960   3.229   8.713  2.0671  1.0974  1.0975
  411MOL0     H55426   9.778   3.180   8.584  1.8442 -2.6646  0.3107
  411MOL0     H55427   9.824   3.343   8.515 -3.2953 -0.6750  1.9321
  411MOL0     H55428   9.959   3.214   8.336  0.2122  0.7187  0.6420
  411MOL0     H55429   9.923   3.064   8.408  0.3176  0.3280  0.1055
  411MOL0     H55430   9.694   3.249   8.306  0.7043  0.5170  2.4007
  411MOL0     H55431   9.786   3.126   8.210  0.1129 -0.0416  0.4240
  411MOL0     H55432   9.724   2.947   8.357 -2.8057 -1.7746  2.5430
  411MOL0     H55433   9.625   3.051   8.450  2.1333  0.3273  0.4275
  411MOL0     H55434   9.581   3.051   8.143  2.9903  1.3558  1.6034
  411MOL0     H55435   9.481   3.113   8.277  0.6086 -0.2979  2.0951
  411MOL0     H55436   9.617   2.792   8.085  1.4527  1.0178 -0.7659
  411MOL0     H55437   9.504   2.581   8.021  0.5710  1.4104  3.2188
  411MOL0     H55438   9.348   2.535   8.089  0.8281  0.2746  0.6673
  411MOL0     H55439   9.414   2.736   7.872  0.4148 -0.9822  0.3609
  411MOL0     H55440   9.246   2.727   7.939 -2.0112 -2.9329 -0.9551
  411MOL0     H55441   9.370   2.510   7.788  0.0854 -0.4791  0.9367
  411MOL0     H55442   9.250   2.625   7.734  1.1685 -0.1706 -0.5512
  411MOL0     H55443   9.091   2.568   7.906  2.5167  2.4984 -2.7922
  411MOL0     H55444   9.189   2.430   7.961  1.4471 -0.2477 -0.1898
  411MOL0     H55445   8.886   2.553   7.768 -2.5829 -0.9073 -2.5899
  411MOL0     H55446   8.692   2.616   7.710 -0.9647  0.9030 -0.2898
  411MOL0     H55447   8.609   2.516   7.595 -0.1966  2.0763 -0.1041
  411MOL0     H55448   8.564   2.523   7.769  0.8894  3.4733  0.8159
  411MOL0     H55449   8.482   1.839   7.741  2.9563  1.0675 -1.8104
  411MOL0     H55450   8.277   1.735   7.647 -0.5107  0.3573 -0.0381
  411MOL0     H55451   8.135   1.659   7.495  1.3475 -1.1178  3.8797
  411MOL0     H55452   8.051   1.741   7.632  1.8460  3.1319  0.3014
  411MOL0     H55453   7.934   1.697   7.354 -3.1894 -1.4677  0.6837
  411MOL0     H55454   7.899   1.601   7.507  0.7752 -1.3417 -1.5208
  411MOL0     H55455   7.849   1.886   7.428  0.6806 -0.4445 -0.4778
  411MOL0     H55456   7.805   1.827   7.594 -0.3644  0.4482 -0.8760
  411MOL0     H55457   7.639   1.854   7.407  1.0839 -0.9787 -2.4045
  411MOL0     H55458   7.699   1.704   7.339 -1.2614 -1.2334  0.1703
  411MOL0     H55459   7.588   1.760   7.620  2.2831  3.3830 -1.2174
  411MOL0     H55460   7.655   1.599   7.566 -2.0247 -1.6626 -2.4026
  411MOL0     H55461   7.431   1.747   7.431 -2.5750 -0.7414  0.2921
  411MOL0     H55462   7.486   1.576   7.416 -1.0356  0.0848 -0.0406
  411MOL0     H55463   7.309   1.695   7.637  2.2664  0.4266  0.3985
  411MOL0     H55464   7.429   1.571   7.680 -0.1142 -1.2396  0.1665
  411MOL0     H55465   7.320   1.422   7.484  0.6333 -2.8514  3.4073
  411MOL0     H55466   7.215   1.555   7.466 -1.2483 -0.6009  0.4353
  411MOL0     H55467   8.184   2.091   7.420 -0.9469 -0.4343 -0.1130
  411MOL0     H55468   8.408   2.183   7.491  3.0090 -0.2447  0.6235
  411MOL0     H55469   8.824   2.068   7.681 -1.2941 -1.3880  2.6368
  411MOL0     H55470   9.045   2.162   7.728 -2.2380 -0.4997  0.5180
  411MOL0     H55471  10.499   3.397   8.394 -2.0078 -3.2776  0.9801
  411MOL0     H55472  10.733   3.484   8.440 -1.3988  0.4966 -1.2753
  411MOL0     H55473  11.147   3.479   8.923  0.4165 -0.4043  0.7346
  411MOL0     H55474  11.351   3.619   8.916 -0.3308 -0.5947 -0.8929
  411MOL0     H55475  11.505   3.699   8.731  1.6511 -0.1866 -0.2164
  411MOL0     H55476  11.522   3.856   8.655 -1.3743 -1.0329 -0.8874
  411MOL0     H55477  11.690   3.774   8.839 -0.2507  0.1339 -1.1705
  411MOL0     H55478  11.559   3.794   8.964  0.5547  0.9446  0.1698
  411MOL0     H55479  11.705   3.986   8.965  1.2480 -0.5659 -1.6488
  411MOL0     H55480  11.530   4.018   8.947  1.5533 -1.6611  3.3797
  411MOL0     H55481  11.558   4.075   8.703  1.3585  0.2388 -1.2570
  411MOL0     H55482  11.731   4.052   8.718 -0.9266  1.0913 -0.5451
  411MOL0     H55483  11.683   4.425   8.906  0.7703 -0.9680  0.7122
  411MOL0     H55484  11.164   3.891   8.642 -0.9671 -1.1020 -1.8795
  411MOL0     H55485  10.961   3.761   8.645  1.3791 -0.0118 -4.1695
  412MOL0     O55486   9.582   0.632   9.140 -0.6177 -0.2381 -0.3088
  412MOL0     C55487   9.495   0.687   9.214 -0.3143  0.7032 -0.0324
  412MOL0     O55488   9.369   0.716   9.162  0.8455 -0.0723 -0.2365
  412MOL0     C55489   9.327   0.687   9.034  0.1592  0.2454 -0.7092
  412MOL0     C55490   9.209   0.613   9.045  0.9275 -0.1382  0.0470
  412MOL0     C55491   9.151   0.561   8.928  0.7174  0.1052  0.9725
  412MOL0     C55492   9.207   0.596   8.802  0.3769 -0.4412  0.4384
  412MOL0     O55493   9.150   0.550   8.684 -0.2499 -0.3299 -0.2326
  412MOL0     C55494   9.137   0.633   8.562 -0.9575 -0.9540  0.4912
  412MOL0     C55495   9.053   0.572   8.445 -0.0396  0.6790 -0.2911
  412MOL0     C55496   9.019   0.665   8.334  0.2806 -1.0183 -0.6241
  412MOL0     C55497   8.887   0.643   8.275 -0.2799 -0.3245 -0.0109
  412MOL0     C55498   8.872   0.737   8.155  0.2285  0.7707 -0.1257
  412MOL0     C55499   8.919   0.693   8.018  0.0103 -0.0874  0.0856
  412MOL0     C55500   8.931   0.822   7.938 -0.7973  0.4103 -1.1323
  412MOL0     C55501   8.967   0.806   7.790 -0.1463  0.5250  1.2486
  412MOL0     N55502   9.089   0.722   7.748 -0.1717  0.4451  0.2206
  412MOL0     C55503   9.187   0.662   7.829  0.0275 -0.3659 -0.5599
  412MOL0     C55504   9.291   0.640   7.750 -1.1533 -0.1516  0.3354
  412MOL0     C55505   9.414   0.563   7.804 -0.9752  0.4223 -0.1244
  412MOL0     C55506   9.506   0.656   7.888 -0.2288 -0.1577 -0.5791
  412MOL0     C55507   9.608   0.732   7.797 -0.4967  0.3487  0.0951
  412MOL0     C55508   9.688   0.840   7.877  0.4257 -0.0118 -0.7863
  412MOL0     O55509   9.745   0.932   7.776  0.3059  0.2407  0.3282
  412MOL0     C55510   9.879   0.916   7.724 -0.5343 -0.6790 -0.1216
  412MOL0     C55511   9.912   0.991   7.606 -0.4092 -0.5429 -0.8976
  412MOL0     C55512  10.036   0.980   7.540  0.1127 -0.3822  0.0136
  412MOL0     C55513  10.053   1.084   7.436  0.3538 -0.5741  0.0204
  412MOL0     C55514  10.145   0.902   7.601  0.4879 -0.0882 -1.0127
  412MOL0     C55515  10.285   0.910   7.555 -0.5417 -0.9430 -0.0289
  412MOL0     O55516  10.378   0.838   7.623  0.1770  0.3377 -0.3538
  412MOL0     C55517  10.499   0.819   7.559 -1.4939  0.6632  0.5876
  412MOL0     C55518  10.618   0.847   7.625  0.2669  0.2335  0.4275
  412MOL0     C55519  10.748   0.819   7.569 -1.1648 -0.0681  0.4049
  412MOL0     C55520  10.752   0.752   7.446  0.4363 -0.2768  0.7074
  412MOL0     O55521  10.861   0.718   7.372  0.3384 -0.5587  0.3606
  412MOL0     C55522  10.962   0.824   7.374  0.7253  0.1058  0.0167
  412MOL0     C55523  11.062   0.790   7.259  0.0214 -0.7115  0.0743
  412MOL0     C55524  11.160   0.904   7.246 -0.5015 -0.1458  0.5425
  412MOL0     C55525  11.113   1.003   7.136  0.0334 -0.5003 -0.4927
  412MOL0     C55526  11.206   1.118   7.113  0.6625  0.2636 -0.3433
  412MOL0     C55527  11.337   1.072   7.052  0.6179  0.3227 -0.3205
  412MOL0     C55528  11.422   1.192   7.012  0.0248 -0.0700 -0.1968
  412MOL0     C55529  11.524   1.152   6.898  0.6416  0.5395  0.4161
  412MOL0    Cl55530  11.653   1.260   6.895  0.1066 -0.3206 -0.7312
  412MOL0     C55531  10.632   0.719   7.377 -0.0769 -0.1890  0.1851
  412MOL0     C55532  10.506   0.750   7.436 -0.2427  0.2279 -0.0983
  412MOL0     O55533  10.305   0.961   7.442 -0.3426  0.4669  0.8004
  412MOL0     C55534  10.111   0.818   7.716  0.8288 -0.5646  0.9432
  412MOL0     C55535   9.977   0.824   7.770 -0.6933 -0.2323 -0.0361
  412MOL0     N55536   9.257   0.682   7.622  0.0630  0.5970 -0.0686
  412MOL0     N55537   9.140   0.731   7.627  0.0668 -0.2594 -0.1894
  412MOL0     C55538   9.325   0.673   8.788 -0.0510  0.0828 -0.4465
  412MOL0     C55539   9.387   0.720   8.905 -0.2379  0.0158  0.2460
  412MOL0     C55540   9.538   0.745   9.350  0.5287 -0.3154 -0.1389
  412MOL0     C55541   9.439   0.798   9.436  0.0449  0.2342  0.0253
  412MOL0     C55542   9.469   0.839   9.567  0.5339  0.6825 -0.4721
  412MOL0     C55543   9.604   0.836   9.612  0.6168 -0.6243 -0.2640
  412MOL0     O55544   9.643   0.877   9.740  0.7937 -1.3179  0.7085
  412MOL0     C55545   9.621   1.019   9.756  0.3589 -0.1142 -0.5379
  412MOL0     C55546   9.740   1.110   9.756  0.6980 -0.5549 -0.0968
  412MOL0     C55547   9.694   1.252   9.711  0.3931 -0.8934  0.6129
  412MOL0     C55548   9.816   1.346   9.676 -0.1265 -0.4054  0.4930
  412MOL0     C55549   9.885   1.300   9.564 -0.0247 -0.9412  0.0889
  412MOL0     C55550   9.931   1.270   9.452  0.5491 -0.6577  0.3543
  412MOL0     C55551   9.698   0.797   9.525  0.4476 -0.4963  0.1242
  412MOL0     C55552   9.665   0.746   9.401  0.0842  0.6867  0.6503
  412MOL0     H55553   9.157   0.583   9.135  2.9694 -0.3305  1.2184
  412MOL0     H55554   9.061   0.501   8.938  0.6365 -0.1607 -0.9495
  412MOL0     H55555   9.085   0.724   8.594  1.8711  0.9237  0.1278
  412MOL0     H55556   9.232   0.662   8.514 -2.2607  1.8902 -0.6105
  412MOL0     H55557   9.118   0.498   8.398 -0.0299  0.7310 -0.3584
  412MOL0     H55558   8.961   0.528   8.484 -0.6601  1.9014 -0.3067
  412MOL0     H55559   9.018   0.760   8.388 -0.8720  0.1131 -2.5310
  412MOL0     H55560   9.098   0.657   8.258 -0.4303 -1.9117 -1.2917
  412MOL0     H55561   8.880   0.539   8.242  0.0118 -0.2146 -0.4348
  412MOL0     H55562   8.797   0.654   8.337 -1.5431  1.7482 -2.0283
  412MOL0     H55563   8.763   0.738   8.150  0.1680 -1.5986 -0.8196
  412MOL0     H55564   8.905   0.837   8.185 -0.5482  0.2178  2.8856
  412MOL0     H55565   9.007   0.628   8.028 -2.4268 -3.6515  0.6359
  412MOL0     H55566   8.851   0.622   7.971 -0.4778 -1.4332  2.5919
  412MOL0     H55567   8.843   0.884   7.953  0.0459  1.5404 -0.7038
  412MOL0     H55568   9.014   0.881   7.979 -2.5722  1.1150  1.7344
  412MOL0     H55569   8.976   0.905   7.746  1.1619 -0.6271 -1.2692
  412MOL0     H55570   8.881   0.760   7.741  2.0288 -3.9801  1.1086
  412MOL0     H55571   9.183   0.636   7.934 -2.8475  0.3539 -0.4113
  412MOL0     H55572   9.374   0.488   7.873  0.1057  2.3286  2.7664
  412MOL0     H55573   9.463   0.497   7.732  2.1762 -1.3304  3.2888
  412MOL0     H55574   9.559   0.595   7.962  1.2376  0.2907 -1.2077
  412MOL0     H55575   9.434   0.712   7.948 -1.9240 -1.5028 -1.2662
  412MOL0     H55576   9.543   0.780   7.725 -1.4688  0.7081  1.1874
  412MOL0     H55577   9.675   0.662   7.746  0.9220  1.3923  0.4755
  412MOL0     H55578   9.768   0.786   7.929 -0.1221  0.4382  0.5610
  412MOL0     H55579   9.639   0.893   7.959  2.6257  0.3878  0.3685
  412MOL0     H55580   9.829   1.038   7.555 -1.2793 -0.7926  0.2341
  412MOL0     H55581  10.152   1.129   7.449 -1.0688  1.8376  4.3022
  412MOL0     H55582  10.049   1.048   7.333 -1.9089 -0.3700 -0.0144
  412MOL0     H55583   9.978   1.162   7.454  1.7421  0.8064  0.0131
  412MOL0     H55584  10.609   0.897   7.721 -1.7222  0.5387  0.1368
  412MOL0     H55585  10.832   0.838   7.634 -0.0595 -3.5267  0.1934
  412MOL0     H55586  10.913   0.919   7.350  1.1170 -0.2175 -2.3261
  412MOL0     H55587  11.013   0.846   7.469  2.8439 -2.8919 -0.2890
  412MOL0     H55588  11.118   0.698   7.278  2.5132  0.3675 -1.4736
  412MOL0     H55589  10.999   0.777   7.171 -2.3396  2.4061  1.0888
  412MOL0     H55590  11.250   0.851   7.213 -0.8661  0.3392 -1.3561
  412MOL0     H55591  11.171   0.947   7.346  0.3864 -0.5202  0.6214
  412MOL0     H55592  11.100   0.940   7.048 -0.1671 -0.7516 -0.2852
  412MOL0     H55593  11.018   1.046   7.171  1.4999  0.4152  2.7869
  412MOL0     H55594  11.226   1.167   7.209  0.5365  1.1080 -0.7349
  412MOL0     H55595  11.163   1.190   7.043  2.4081  1.8703  0.1509
  412MOL0     H55596  11.391   0.993   7.106  1.6861 -1.0140 -3.0950
  412MOL0     H55597  11.305   1.019   6.962 -2.6389  1.3426  0.1022
  412MOL0     H55598  11.484   1.219   7.097  1.0859  1.0588 -1.2874
  412MOL0     H55599  11.367   1.280   6.977  1.0188  0.6349 -0.0293
  412MOL0     H55600  11.476   1.174   6.802 -1.5391  0.7636  1.4905
  412MOL0     H55601  11.557   1.049   6.915  2.3573  1.1082  0.7020
  412MOL0     H55602  10.626   0.664   7.284  1.3469 -3.0443  1.6361
  412MOL0     H55603  10.419   0.708   7.387 -1.9534  2.3926  0.9261
  412MOL0     H55604  10.182   0.745   7.754 -0.0788 -0.2323  3.5058
  412MOL0     H55605   9.957   0.751   7.848 -1.6790 -0.4522 -0.4684
  412MOL0     H55606   9.364   0.680   8.687 -0.0494  2.6944 -0.3304
  412MOL0     H55607   9.483   0.772   8.902  0.4922 -1.3079 -2.5576
  412MOL0     H55608   9.337   0.801   9.398 -0.5117 -4.0908  0.6733
  412MOL0     H55609   9.392   0.887   9.626 -0.3904 -0.9481 -0.3026
  412MOL0     H55610   9.553   1.054   9.678  0.3804 -1.3556 -1.1291
  412MOL0     H55611   9.569   1.012   9.852  2.4000  1.4433  0.7868
  412MOL0     H55612   9.804   1.065   9.679  0.1927 -0.4301 -0.6036
  412MOL0     H55613   9.793   1.111   9.852 -0.5133 -1.3614  0.6008
  412MOL0     H55614   9.615   1.289   9.778 -2.7864 -1.7406 -2.3672
  412MOL0     H55615   9.646   1.238   9.614  1.9667 -0.0595 -0.3256
  412MOL0     H55616   9.882   1.346   9.763 -0.9927  1.8229  1.2445
  412MOL0     H55617   9.785   1.451   9.676 -1.0961 -0.4290  5.4112
  412MOL0     H55618   9.970   1.246   9.356  0.9806  3.0532 -0.5451
  412MOL0     H55619   9.800   0.811   9.560  0.0441  3.5555  0.1822
  412MOL0     H55620   9.744   0.710   9.336 -1.2940  0.2420 -0.8391
  413MOL0     O55621   9.527  10.404  11.124  0.2922 -0.7147 -0.4869
  413MOL0     C55622   9.499  10.483  11.032 -0.8355  0.5871  0.2959
  413MOL0     O55623   9.369  10.506  10.970 -0.5584  0.2024  0.1065
  413MOL0     C55624   9.258  10.450  11.029  0.8050 -0.8513  0.1257
  413MOL0     C55625   9.236  10.459  11.174 -0.3909  1.2162  0.5393
  413MOL0     C55626   9.123  10.410  11.231  0.0393  0.1651 -0.1752
  413MOL0     C55627   9.017  10.359  11.145 -0.4171 -0.4003 -0.3915
  413MOL0     O55628   8.887  10.339  11.185 -0.6552 -0.9837  0.1029
  413MOL0     C55629   8.865  10.324  11.330 -0.0238 -0.3787  0.0450
  413MOL0     C55630   8.725  10.283  11.361  0.0834  0.1583  0.3177
  413MOL0     C55631   8.687  10.148  11.290  0.4083  0.3798  0.2533
  413MOL0     C55632   8.541  10.144  11.242 -0.7082 -0.0210  0.4686
  413MOL0     C55633   8.503  10.014  11.182 -0.2426 -0.6655 -0.4747
  413MOL0     C55634   8.365  10.023  11.109  0.1910 -0.7030  0.2309
  413MOL0     C55635   8.328   9.895  11.021 -0.0172  0.0758 -0.1329
  413MOL0     C55636   8.193   9.909  10.960  0.0291 -0.0766  0.0677
  413MOL0     N55637   8.078   9.894  11.050  0.2071  0.3350 -0.3303
  413MOL0     C55638   7.977   9.793  11.040 -0.6290 -0.2951 -0.1806
  413MOL0     C55639   7.881   9.835  11.133  0.0380 -1.0433 -0.8026
  413MOL0     C55640   7.745   9.766  11.160  0.4222 -0.0743  0.5840
  413MOL0     C55641   7.706   9.767  11.307 -0.5427 -0.0320 -0.3214
  413MOL0     C55642   7.650   9.908  11.358 -0.0939 -0.0259  0.5971
  413MOL0     C55643   7.522   9.946  11.298  0.9469 -0.3408 -0.5853
  413MOL0     O55644   7.525  10.072  11.235 -0.2478  0.3641 -0.0330
  413MOL0     C55645   7.415  10.109  11.161 -0.6070  0.0142  1.1180
  413MOL0     C55646   7.418  10.241  11.109  0.6284 -0.4461  0.1594
  413MOL0     C55647   7.316  10.289  11.032 -0.0996  0.6377  0.2551
  413MOL0     C55648   7.340  10.421  10.970  0.1764 -0.3580  0.7232
  413MOL0     C55649   7.198  10.208  11.011 -0.3083 -0.3271 -0.3532
  413MOL0     C55650   7.073  10.252  10.936 -0.9649  0.0983  0.0849
  413MOL0     O55651   6.979  10.152  10.917 -0.5613  0.2412  0.2059
  413MOL0     C55652   6.867  10.175  10.840  0.2019  0.6123  0.2494
  413MOL0     C55653   6.876  10.145  10.701  0.2563 -0.0845  0.4680
  413MOL0     C55654   6.758  10.165  10.624 -0.0170 -0.4535  0.5777
  413MOL0     C55655   6.635  10.214  10.679 -0.1380 -0.0092 -0.9020
  413MOL0     O55656   6.521  10.245  10.614 -0.1385  0.1269  1.3503
  413MOL0     C55657   6.530  10.237  10.472 -0.8587 -0.4213  0.3351
  413MOL0     C55658   6.406  10.316  10.424 -0.6544 -0.4567  0.6442
  413MOL0     C55659   6.433  10.472  10.438  0.1666 -0.1191 -0.2564
  413MOL0     C55660   6.303  10.550  10.402 -0.2852  0.1364 -0.5324
  413MOL0     C55661   6.318  10.707  10.428 -0.9071  0.0058  0.4738
  413MOL0     C55662   6.187  10.775  10.379 -0.4806 -0.6125  0.0070
  413MOL0     C55663   6.080  10.755  10.479 -0.4771  0.1166  0.6444
  413MOL0     C55664   5.953  10.840  10.453  0.2991  0.0304 -0.3752
  413MOL0    Cl55665   5.827  10.823  10.570 -0.3893  0.0258  0.2482
  413MOL0     C55666   6.636  10.232  10.813 -0.0809  0.7403 -0.4191
  413MOL0     C55667   6.748  10.223  10.894  0.3221  0.8871  0.2740
  413MOL0     O55668   7.061  10.366  10.891  0.0824  0.0399 -1.3269
  413MOL0     C55669   7.197  10.077  11.074  0.4497 -0.2266  0.0967
  413MOL0     C55670   7.304  10.030  11.149 -0.1484  0.0392  0.2984
  413MOL0     N55671   7.928   9.952  11.194 -1.1524 -0.2192  0.5768
  413MOL0     N55672   8.039   9.981  11.144 -0.1465  0.1798 -0.0211
  413MOL0     C55673   9.038  10.356  11.010 -0.0615 -1.3320  0.6306
  413MOL0     C55674   9.157  10.389  10.951  0.0706  0.4725 -0.1235
  413MOL0     C55675   9.609  10.559  10.981 -0.4863 -0.3538  0.0377
  413MOL0     C55676   9.725  10.602  11.055 -0.0001  0.2749  0.0573
  413MOL0     C55677   9.824  10.680  10.978  0.3136  0.6196 -0.0656
  413MOL0     C55678   9.813  10.714  10.843  0.4448 -0.4839 -0.0079
  413MOL0     O55679   9.914  10.785  10.786  0.9688 -0.2071  0.6536
  413MOL0     C55680   9.898  10.784  10.639  0.4454 -1.0206 -0.5303
  413MOL0     C55681  10.016  10.879  10.582  0.4151  0.2864  0.1461
  413MOL0     C55682  10.006  10.899  10.431  0.5754 -0.7096 -0.1598
  413MOL0     C55683  10.055  10.779  10.341 -0.8849 -0.2298  0.8005
  413MOL0     C55684  10.049  10.818  10.204 -0.1011  0.2474  0.4993
  413MOL0     C55685  10.015  10.851  10.096  0.4659 -0.2234  0.0429
  413MOL0     C55686   9.703  10.660  10.776 -0.3902 -0.1255 -0.2572
  413MOL0     C55687   9.611  10.585  10.842 -0.0348  0.6021 -0.1598
  413MOL0     H55688   9.325  10.486  11.230  1.4896  0.6344 -1.9956
  413MOL0     H55689   9.111  10.418  11.338  1.1705 -0.2824  0.0008
  413MOL0     H55690   8.936  10.252  11.370  1.3103  1.0526  0.3374
  413MOL0     H55691   8.884  10.423  11.372 -1.7145 -0.6894  1.6421
  413MOL0     H55692   8.709  10.263  11.467 -0.8411 -1.8251 -0.1428
  413MOL0     H55693   8.658  10.359  11.321 -0.4283 -1.8145 -2.9272
  413MOL0     H55694   8.752  10.127  11.204 -0.4130 -0.4705 -0.1821
  413MOL0     H55695   8.697  10.063  11.358  0.7349 -1.3289 -1.8188
  413MOL0     H55696   8.481  10.184  11.324 -1.4727 -1.7559  0.8030
  413MOL0     H55697   8.542  10.212  11.156  0.7967 -1.2545 -0.5466
  413MOL0     H55698   8.588  10.000  11.115 -0.2694  2.6929 -1.3738
  413MOL0     H55699   8.506   9.934  11.256  3.3327  0.0654  0.3685
  413MOL0     H55700   8.290  10.033  11.188  0.1800 -1.8792  0.3910
  413MOL0     H55701   8.363  10.112  11.046  2.0574 -1.7434 -1.4213
  413MOL0     H55702   8.401   9.890  10.940 -3.0944 -1.5865 -3.0778
  413MOL0     H55703   8.333   9.799  11.074 -0.4556 -1.4842 -2.7332
  413MOL0     H55704   8.187   9.837  10.878 -3.1495 -1.9358  1.7170
  413MOL0     H55705   8.178  10.011  10.923  1.4770 -1.0033 -3.4683
  413MOL0     H55706   7.979   9.711  10.969  2.0156 -0.2570 -0.2432
  413MOL0     H55707   7.663   9.806  11.099 -1.5091 -0.1666  2.9236
  413MOL0     H55708   7.767   9.666  11.122 -0.9526 -0.1256 -0.1521
  413MOL0     H55709   7.800   9.750  11.361 -0.5735 -3.3710 -1.0925
  413MOL0     H55710   7.643   9.687  11.346  1.2517  0.1660  3.4277
  413MOL0     H55711   7.720   9.988  11.333 -3.1865  2.9910  0.8724
  413MOL0     H55712   7.642   9.900  11.467  1.7625 -0.6964  0.7191
  413MOL0     H55713   7.450   9.955  11.380  2.2327 -1.3933  0.7348
  413MOL0     H55714   7.494   9.869  11.226  0.7279  0.5777 -1.5053
  413MOL0     H55715   7.499  10.308  11.134  0.8427 -0.3575 -0.7135
  413MOL0     H55716   7.255  10.488  10.982 -1.3746 -1.7157 -1.7424
  413MOL0     H55717   7.424  10.468  11.022 -0.8311  0.2703  1.8316
  413MOL0     H55718   7.358  10.401  10.863  1.2666  1.7530  0.4669
  413MOL0     H55719   6.965  10.111  10.649 -0.8655  1.3320 -2.6117
  413MOL0     H55720   6.774  10.156  10.517  0.6333 -0.3883  0.6625
  413MOL0     H55721   6.610  10.281  10.411 -0.2426 -3.8464 -1.6361
  413MOL0     H55722   6.522  10.131  10.444 -1.1170 -0.3602  0.1769
  413MOL0     H55723   6.374  10.286  10.324 -1.7854 -0.5881  1.0319
  413MOL0     H55724   6.323  10.286  10.489 -2.7110  3.1848 -0.0292
  413MOL0     H55725   6.511  10.496  10.366 -1.8908  0.6145 -2.3738
  413MOL0     H55726   6.468  10.473  10.542 -3.0172 -3.4855  1.0548
  413MOL0     H55727   6.266  10.529  10.301  1.7139 -0.4486 -1.1830
  413MOL0     H55728   6.231  10.512  10.475  3.3244 -2.1526  2.1330
  413MOL0     H55729   6.407  10.744  10.377 -0.9125 -1.0307 -0.3174
  413MOL0     H55730   6.338  10.727  10.534 -0.4938 -2.0443  0.8304
  413MOL0     H55731   6.218  10.880  10.368  0.2929 -0.7938  0.3740
  413MOL0     H55732   6.151  10.741  10.282 -2.2028  3.8031 -1.1701
  413MOL0     H55733   6.112  10.788  10.578  0.0410  0.5045  0.3511
  413MOL0     H55734   6.044  10.652  10.485 -1.1901  0.2806 -0.5298
  413MOL0     H55735   5.920  10.812  10.352 -0.2936  0.2278 -0.2400
  413MOL0     H55736   5.967  10.948  10.464  2.5635 -0.1266 -1.1289
  413MOL0     H55737   6.544  10.270  10.857  0.1359 -0.7550  1.4581
  413MOL0     H55738   6.742  10.245  11.000 -1.0579  0.4344  0.3081
  413MOL0     H55739   7.109  10.019  11.047 -0.1525  1.2269 -1.2877
  413MOL0     H55740   7.304   9.926  11.181 -0.9653 -0.5253 -1.4140
  413MOL0     H55741   8.957  10.335  10.939 -0.9755  1.0024  0.8880
  413MOL0     H55742   9.177  10.380  10.845  1.1466  0.7910  0.0319
  413MOL0     H55743   9.732  10.576  11.160 -0.9924  0.5071  0.1986
  413MOL0     H55744   9.917  10.710  11.023  0.2128  0.7086  0.0822
  413MOL0     H55745   9.904  10.690  10.582  0.4043  0.1302 -2.5201
  413MOL0     H55746   9.804  10.835  10.616  0.9058  1.2321  2.0331
  413MOL0     H55747  10.116  10.852  10.617  1.6101  1.2697 -2.2793
  413MOL0     H55748   9.995  10.978  10.624 -3.1878  0.0624 -0.7797
  413MOL0     H55749  10.052  10.997  10.415 -1.6888  1.1470  3.3213
  413MOL0     H55750   9.900  10.910  10.408 -0.2010 -3.3918  1.6526
  413MOL0     H55751   9.985  10.695  10.352 -1.6354  0.0930 -1.0913
  413MOL0     H55752  10.158  10.750  10.363 -1.0387 -1.9249 -0.4950
  413MOL0     H55753   9.965  10.885  10.007  0.8500 -0.1270 -0.1389
  413MOL0     H55754   9.688  10.676  10.670  0.1920 -0.4939 -0.3964
  413MOL0     H55755   9.533  10.540  10.781  1.2001 -1.4456 -0.3281
  414MOL0     O55756   3.740  10.525   3.741  0.2367 -0.2150 -0.0496
  414MOL0     C55757   3.684  10.514   3.631  0.0534  0.5695 -0.2286
  414MOL0     O55758   3.748  10.502   3.521  0.6527 -0.5354  0.0826
  414MOL0     C55759   3.880  10.516   3.517  0.1997 -0.2554  0.0838
  414MOL0     C55760   3.948  10.644   3.511 -0.0582 -0.1841 -0.0854
  414MOL0     C55761   4.086  10.654   3.498 -0.0950  0.0170 -0.6186
  414MOL0     C55762   4.157  10.538   3.484 -0.0872 -0.6971 -0.1759
  414MOL0     O55763   4.290  10.561   3.463  0.2024  0.0853 -0.9705
  414MOL0     C55764   4.388  10.456   3.499 -0.1427  0.8014 -0.6193
  414MOL0     C55765   4.529  10.500   3.468 -0.1700 -0.7646  0.0717
  414MOL0     C55766   4.586  10.595   3.568 -0.1358 -0.4934 -1.4584
  414MOL0     C55767   4.732  10.641   3.552  0.4178 -0.7360 -0.5736
  414MOL0     C55768   4.775  10.740   3.655  0.0124  0.4512  0.6026
  414MOL0     C55769   4.924  10.789   3.638  0.0470 -1.1244 -0.2619
  414MOL0     C55770   4.978  10.874   3.758  0.0218  0.3283 -0.0673
  414MOL0     C55771   5.113  10.917   3.730 -0.4082  0.3809 -0.6597
  414MOL0     N55772   5.210  10.799   3.727  0.3478 -0.5871 -0.2327
  414MOL0     C55773   5.192  10.688   3.802 -0.3443  0.3804  0.2543
  414MOL0     C55774   5.260  10.591   3.736  0.1274  1.0968  0.2512
  414MOL0     C55775   5.275  10.448   3.770  0.4780  0.3751 -0.1350
  414MOL0     C55776   5.420  10.395   3.769  0.1982  0.0133  0.2987
  414MOL0     C55777   5.497  10.385   3.631 -0.0388 -0.7068  0.2908
  414MOL0     C55778   5.425  10.302   3.533  0.6920 -1.1770  0.6773
  414MOL0     O55779   5.516  10.259   3.433 -0.3631 -0.2862 -0.3376
  414MOL0     C55780   5.474  10.243   3.301 -0.2710 -0.1275 -0.3114
  414MOL0     C55781   5.560  10.251   3.191 -0.1385  0.1432 -0.2945
  414MOL0     C55782   5.515  10.266   3.057 -0.8991 -0.1830  0.1658
  414MOL0     C55783   5.622  10.297   2.953  0.2123 -0.1156 -0.3467
  414MOL0     C55784   5.379  10.256   3.029 -0.0415 -0.2879  0.1516
  414MOL0     C55785   5.324  10.306   2.901 -1.1731  0.2161  0.1646
  414MOL0     O55786   5.371  10.432   2.855  0.4624 -0.4955 -0.3730
  414MOL0     C55787   5.335  10.475   2.728  0.5954  0.1272 -0.1249
  414MOL0     C55788   5.420  10.451   2.629  0.1309  0.1582  0.2440
  414MOL0     C55789   5.380  10.453   2.491 -0.5786 -1.0195 -0.1327
  414MOL0     C55790   5.251  10.510   2.456 -0.1225 -0.0827  0.5526
  414MOL0     O55791   5.208  10.514   2.328  0.5546 -0.0610  0.3017
  414MOL0     C55792   5.179  10.640   2.273 -0.6100  0.8690  0.5711
  414MOL0     C55793   5.102  10.620   2.142 -0.1612 -0.1157 -0.4684
  414MOL0     C55794   4.992  10.509   2.152 -0.1386 -0.4537  0.6656
  414MOL0     C55795   4.927  10.463   2.026  0.5657  0.1698  0.4814
  414MOL0     C55796   4.788  10.414   2.059 -0.2741 -0.9097  0.3333
  414MOL0     C55797   4.718  10.356   1.926 -0.1359  0.7440  0.3337
  414MOL0     C55798   4.557  10.344   1.960  0.6272 -0.3350 -0.2424
  414MOL0     C55799   4.462  10.307   1.848  0.5160 -0.3698  0.5894
  414MOL0    Cl55800   4.298  10.285   1.914  0.0599 -0.0457 -0.0601
  414MOL0     C55801   5.162  10.531   2.561 -0.4826  0.1697  0.9239
  414MOL0     C55802   5.209  10.520   2.695  1.0941 -0.1556  0.0685
  414MOL0     O55803   5.242  10.238   2.847  0.5458 -0.3655 -0.2176
  414MOL0     C55804   5.293  10.236   3.135 -0.3869  0.1006 -0.0519
  414MOL0     C55805   5.340  10.221   3.266 -0.8009  0.1904 -1.0754
  414MOL0     N55806   5.316  10.641   3.620 -0.0335  0.1697  0.2283
  414MOL0     N55807   5.291  10.768   3.624 -0.1730 -0.9929  0.2714
  414MOL0     C55808   4.099  10.412   3.494 -0.2154 -0.4049  0.6436
  414MOL0     C55809   3.960  10.402   3.515 -0.0870 -0.3782 -0.8041
  414MOL0     C55810   3.536  10.520   3.617 -0.9106  1.2094 -0.7633
  414MOL0     C55811   3.460  10.548   3.731  0.2703  0.0988  0.1521
  414MOL0     C55812   3.318  10.569   3.717 -0.0471  0.2665 -0.6148
  414MOL0     C55813   3.256  10.539   3.601 -0.0366 -0.2063 -0.3828
  414MOL0     O55814   3.121  10.552   3.606 -0.1358 -0.0518 -0.5396
  414MOL0     C55815   3.034  10.458   3.543  0.7941 -0.0773  0.8155
  414MOL0     C55816   3.025  10.331   3.619 -0.3529 -0.6062  0.0653
  414MOL0     C55817   3.061  10.350   3.766  0.4067  0.3756  0.2854
  414MOL0     C55818   3.011  10.222   3.849  0.0609 -0.0682 -0.8767
  414MOL0     C55819   2.936  10.238   3.972  0.8048  1.1416  0.3450
  414MOL0     C55820   2.881  10.266   4.075  1.1733  1.0483  0.7428
  414MOL0     C55821   3.330  10.508   3.489  0.1061 -0.1383  0.1726
  414MOL0     C55822   3.469  10.500   3.495  0.1345  0.0367 -0.6839
  414MOL0     H55823   3.896  10.739   3.521  0.2866  0.2160 -1.7112
  414MOL0     H55824   4.140  10.747   3.492  2.2621 -1.2609 -0.5857
  414MOL0     H55825   4.378  10.411   3.599  0.5845 -0.0662 -0.9196
  414MOL0     H55826   4.363  10.365   3.444 -0.3330  1.0783 -0.9915
  414MOL0     H55827   4.582  10.406   3.489 -2.0700 -1.1360  3.8318
  414MOL0     H55828   4.540  10.517   3.360 -0.1116 -3.2481 -0.3898
  414MOL0     H55829   4.524  10.683   3.552  0.7506  0.6144  0.7444
  414MOL0     H55830   4.577  10.557   3.670  0.2180 -3.1734 -2.3422
  414MOL0     H55831   4.807  10.561   3.550  1.1510 -0.2937  2.9873
  414MOL0     H55832   4.734  10.699   3.459  1.3082 -2.2217 -1.5176
  414MOL0     H55833   4.710  10.828   3.652  0.7451  0.9917 -1.7000
  414MOL0     H55834   4.765  10.696   3.754  2.4065  2.0813  1.6830
  414MOL0     H55835   4.980  10.695   3.639  0.0356 -1.3315  4.7105
  414MOL0     H55836   4.947  10.839   3.544  1.4001 -0.7689  0.2366
  414MOL0     H55837   4.921  10.966   3.775 -0.2914  0.8671 -3.2801
  414MOL0     H55838   4.986  10.813   3.849  3.5889  1.2103  0.3644
  414MOL0     H55839   5.146  10.980   3.814  1.5207  0.4004 -1.3713
  414MOL0     H55840   5.129  10.987   3.648  0.2172  0.6744 -0.2988
  414MOL0     H55841   5.141  10.684   3.898 -1.0647  2.6449  0.0153
  414MOL0     H55842   5.233  10.438   3.871  0.8554  0.5603  0.0400
  414MOL0     H55843   5.209  10.390   3.706  0.7523  1.7943 -1.7718
  414MOL0     H55844   5.412  10.294   3.812  0.5437  0.4008  1.3150
  414MOL0     H55845   5.483  10.454   3.836  2.9276 -1.1710 -1.0385
  414MOL0     H55846   5.596  10.341   3.650  0.6057  1.5088  2.7581
  414MOL0     H55847   5.519  10.483   3.588  0.0878  0.2209  2.3585
  414MOL0     H55848   5.354  10.366   3.481  1.0886 -3.5434 -3.2176
  414MOL0     H55849   5.381  10.213   3.579  1.5315 -1.5080  0.8596
  414MOL0     H55850   5.665  10.257   3.217 -0.6138 -0.1651  1.8916
  414MOL0     H55851   5.706  10.231   2.975 -0.6267 -0.5054  1.9458
  414MOL0     H55852   5.602  10.294   2.845  3.1874  1.6607 -1.0652
  414MOL0     H55853   5.656  10.401   2.961 -2.0468  0.6902 -0.3297
  414MOL0     H55854   5.523  10.424   2.651  1.4296  2.5741 -2.2247
  414MOL0     H55855   5.442  10.408   2.414  0.9174 -1.6750  1.3977
  414MOL0     H55856   5.129  10.704   2.346 -0.9850  2.0556 -0.6785
  414MOL0     H55857   5.271  10.692   2.244 -0.9797  0.6534 -1.0694
  414MOL0     H55858   5.071  10.720   2.111 -0.2016  0.0381  0.0576
  414MOL0     H55859   5.172  10.580   2.068 -2.8273  1.7374 -4.3446
  414MOL0     H55860   4.909  10.563   2.198 -1.7533 -0.8745 -1.5714
  414MOL0     H55861   5.028  10.431   2.220 -0.3809 -1.1746 -0.0179
  414MOL0     H55862   4.925  10.545   1.953  2.8993 -0.3688 -0.2983
  414MOL0     H55863   4.990  10.389   1.976  1.6920  1.8687 -0.7388
  414MOL0     H55864   4.737  10.501   2.103  0.9814 -0.1692  0.3641
  414MOL0     H55865   4.784  10.332   2.131  2.1915 -0.9205  0.5266
  414MOL0     H55866   4.749  10.410   1.835  1.7307 -0.9766 -0.1161
  414MOL0     H55867   4.767  10.260   1.909  0.3454  1.1310 -0.5485
  414MOL0     H55868   4.527  10.439   2.004 -1.1452 -0.7959 -0.3891
  414MOL0     H55869   4.556  10.265   2.035 -0.2861  1.1826  1.4102
  414MOL0     H55870   4.499  10.223   1.788  0.2002  1.1376 -1.8500
  414MOL0     H55871   4.454  10.392   1.780  0.8223  1.5890  2.8704
  414MOL0     H55872   5.063  10.566   2.535  0.2415 -0.2724 -3.3133
  414MOL0     H55873   5.160  10.544   2.788  0.3692 -1.1964 -0.0308
  414MOL0     H55874   5.187  10.236   3.110 -0.6023 -0.3004  0.7932
  414MOL0     H55875   5.275  10.219   3.353 -0.1284  2.2194 -0.4639
  414MOL0     H55876   4.163  10.325   3.492 -0.9317 -0.9329 -1.5322
  414MOL0     H55877   3.913  10.305   3.524  1.8224 -1.2390  0.8258
  414MOL0     H55878   3.506  10.585   3.823 -0.3330 -0.0545  0.5264
  414MOL0     H55879   3.261  10.616   3.796  0.5795 -0.8410  0.5337
  414MOL0     H55880   2.936  10.505   3.530  0.5617 -0.6945  0.2974
  414MOL0     H55881   3.068  10.435   3.442  0.4407  0.5840  0.5395
  414MOL0     H55882   3.094  10.260   3.574 -0.3552  0.3702 -1.5579
  414MOL0     H55883   2.927  10.285   3.605 -0.4207  0.0167 -1.8039
  414MOL0     H55884   2.989  10.426   3.796 -1.4883 -1.8377  1.7425
  414MOL0     H55885   3.163  10.381   3.790 -0.4570  4.0101 -0.2889
  414MOL0     H55886   3.104  10.173   3.879  0.7025  0.8620 -1.2770
  414MOL0     H55887   2.953  10.151   3.790  2.6209 -2.7576 -0.3911
  414MOL0     H55888   2.821  10.284   4.162 -2.2545  0.9860 -1.4583
  414MOL0     H55889   3.281  10.503   3.392 -2.3572  4.5615  0.8809
  414MOL0     H55890   3.535  10.490   3.409 -0.6309 -0.4211 -1.2306
  415MOL0     O55891   0.009   8.956   9.619  0.7788  0.7383 -1.2541
  415MOL0     C55892   0.028   8.946   9.501  0.1625 -0.0777  0.0883
  415MOL0     O55893   0.151   8.952   9.434 -0.0678 -0.3491  0.5282
  415MOL0     C55894   0.267   8.938   9.506 -0.4308  0.1844 -0.4866
  415MOL0     C55895   0.280   8.848   9.612 -0.4765  0.4492 -0.6063
  415MOL0     C55896   0.402   8.821   9.673 -0.5736  0.2169 -0.3735
  415MOL0     C55897   0.513   8.899   9.651 -0.6434  0.5468  0.1586
  415MOL0     O55898   0.636   8.877   9.712  0.7641  0.0290 -0.5853
  415MOL0     C55899   0.672   8.756   9.780  0.2201 -0.1819 -0.0781
  415MOL0     C55900   0.694   8.640   9.690  0.6493  0.4333 -0.7425
  415MOL0     C55901   0.736   8.511   9.765  0.5797  0.2728 -1.0374
  415MOL0     C55902   0.768   8.404   9.671  0.0496 -0.0859  0.7768
  415MOL0     C55903   0.792   8.268   9.736  0.2947 -0.0196  0.3354
  415MOL0     C55904   0.824   8.163   9.630  0.5628 -0.5161 -0.2074
  415MOL0     C55905   0.977   8.159   9.611 -0.2252 -0.2367 -0.5291
  415MOL0     C55906   1.035   8.047   9.524 -0.4671 -1.0247  0.0244
  415MOL0     N55907   0.968   7.919   9.548 -0.2468 -0.6395  0.5477
  415MOL0     C55908   0.992   7.839   9.655  0.0194 -0.6648 -0.2164
  415MOL0     C55909   0.887   7.748   9.645  0.6178  0.1786 -0.0959
  415MOL0     C55910   0.843   7.655   9.748  0.7487 -0.1476  0.4548
  415MOL0     C55911   0.737   7.701   9.852 -0.1040 -0.2088  0.0516
  415MOL0     C55912   0.609   7.762   9.792  0.0595  1.2418  0.7951
  415MOL0     C55913   0.550   7.680   9.674 -0.0420 -0.0675 -1.2718
  415MOL0     O55914   0.483   7.561   9.724  0.4003  0.3000  0.0304
  415MOL0     C55915   0.382   7.520   9.639 -0.2112 -0.7500  0.7760
  415MOL0     C55916   0.417   7.469   9.519  0.5509 -0.0939 -0.4183
  415MOL0     C55917   0.330   7.414   9.423  0.4454  0.8608 -1.3954
  415MOL0     C55918   0.386   7.354   9.305  0.0585  0.2616  0.3911
  415MOL0     C55919   0.189   7.416   9.457  1.4956  0.8017 -0.1898
  415MOL0     C55920   0.072   7.379   9.364  0.4527  0.0449 -0.7724
  415MOL0     O55921  -0.049   7.359   9.431 -0.0124  1.1106  0.2311
  415MOL0     C55922  -0.160   7.352   9.341  0.2679  0.1690 -0.1503
  415MOL0     C55923  -0.208   7.455   9.254  0.4323  0.2484 -0.0679
  415MOL0     C55924  -0.318   7.441   9.163 -0.2684  0.4219  1.0513
  415MOL0     C55925  -0.368   7.303   9.137 -0.7727  0.3348 -0.0623
  415MOL0     O55926  -0.469   7.279   9.044 -0.3264 -0.4037 -0.6796
  415MOL0     C55927  -0.554   7.392   9.008  0.7545  0.0360  0.0148
  415MOL0     C55928  -0.689   7.336   8.954 -0.0542  0.1806 -0.6526
  415MOL0     C55929  -0.681   7.282   8.814 -0.1554  0.2639  0.5361
  415MOL0     C55930  -0.681   7.385   8.707 -0.8357 -0.7242  0.1783
  415MOL0     C55931  -0.708   7.333   8.566  0.0910  0.0564 -0.1809
  415MOL0     C55932  -0.627   7.213   8.532 -0.3425  0.2062  1.1747
  415MOL0     C55933  -0.675   7.151   8.403 -0.3760 -0.0649 -0.2344
  415MOL0     C55934  -0.620   7.001   8.388 -0.8449 -0.9853  1.1433
  415MOL0    Cl55935  -0.439   6.994   8.414  0.0701 -0.3748  0.0115
  415MOL0     C55936  -0.323   7.203   9.225 -0.4571  0.0408 -1.5463
  415MOL0     C55937  -0.218   7.226   9.322 -0.0720  1.2193  0.0638
  415MOL0     O55938   0.093   7.359   9.244 -0.8448 -0.5443  0.4104
  415MOL0     C55939   0.152   7.470   9.582 -0.1135  0.1917  1.6101
  415MOL0     C55940   0.244   7.518   9.678 -0.8429  0.7915  0.3575
  415MOL0     N55941   0.817   7.777   9.528 -0.3755  1.1579 -0.6247
  415MOL0     N55942   0.855   7.883   9.480 -0.3078 -0.1021  0.1450
  415MOL0     C55943   0.501   8.994   9.545 -0.6903 -0.8558 -0.5737
  415MOL0     C55944   0.382   9.012   9.472  0.0441  0.2017 -0.1403
  415MOL0     C55945  -0.083   8.937   9.400 -0.8792  1.6284 -1.1447
  415MOL0     C55946  -0.210   8.958   9.446 -0.3056 -1.1730 -0.3137
  415MOL0     C55947  -0.314   8.957   9.354 -0.4334  0.6828 -0.5242
  415MOL0     C55948  -0.298   8.927   9.219 -1.2762 -0.6745 -0.0091
  415MOL0     O55949  -0.401   8.950   9.132 -0.6866  0.3411 -0.3160
  415MOL0     C55950  -0.388   8.875   9.007 -0.6601  0.9292  0.4158
  415MOL0     C55951  -0.525   8.873   8.928 -0.3140 -0.1260 -1.3217
  415MOL0     C55952  -0.503   8.862   8.780  0.2801  0.6918 -0.3730
  415MOL0     C55953  -0.410   8.747   8.748  0.0935  0.7284  0.2047
  415MOL0     C55954  -0.267   8.781   8.725 -0.3191 -0.4107  0.7557
  415MOL0     C55955  -0.154   8.822   8.704 -0.1984  0.5774  0.4115
  415MOL0     C55956  -0.164   8.899   9.169  0.0208 -0.8698 -0.2982
  415MOL0     C55957  -0.057   8.911   9.264  0.4725 -0.0471 -0.9220
  415MOL0     H55958   0.198   8.785   9.645  1.3149 -2.1375 -0.7251
  415MOL0     H55959   0.416   8.759   9.761  0.9473  1.7308  0.5121
  415MOL0     H55960   0.769   8.778   9.824  0.3844  0.4635 -0.7499
  415MOL0     H55961   0.598   8.733   9.858 -2.6665  2.2114 -1.9167
  415MOL0     H55962   0.601   8.612   9.639  0.5318 -1.9154  0.6194
  415MOL0     H55963   0.771   8.664   9.617 -0.7849  2.7963 -1.6213
  415MOL0     H55964   0.825   8.535   9.824 -1.0710 -1.0007  2.2709
  415MOL0     H55965   0.652   8.489   9.833  1.4455 -1.1436 -0.3779
  415MOL0     H55966   0.685   8.386   9.602  1.1983  0.2682 -0.7515
  415MOL0     H55967   0.853   8.444   9.614  0.9783 -0.0763  2.1147
  415MOL0     H55968   0.876   8.273   9.807 -0.2793  2.2071  0.9309
  415MOL0     H55969   0.703   8.227   9.786  0.6916 -1.6181 -0.2090
  415MOL0     H55970   0.798   8.067   9.677 -2.3793  1.0014  1.4854
  415MOL0     H55971   0.773   8.188   9.537 -1.2248 -1.8122  0.3750
  415MOL0     H55972   1.007   8.259   9.576  0.9417  0.4804  2.2290
  415MOL0     H55973   1.016   8.150   9.713 -0.3828  5.7527  0.4324
  415MOL0     H55974   1.143   8.040   9.539 -0.0995  0.8533 -1.3494
  415MOL0     H55975   1.016   8.087   9.424  1.9411  3.0417  0.9467
  415MOL0     H55976   1.070   7.846   9.730  1.1440  0.9552 -1.4962
  415MOL0     H55977   0.798   7.572   9.692  1.2374  0.8735 -1.5686
  415MOL0     H55978   0.930   7.614   9.800  1.6216  1.9515  0.7355
  415MOL0     H55979   0.790   7.778   9.909  2.3537 -0.3477 -1.9064
  415MOL0     H55980   0.713   7.619   9.920  0.7914 -1.2641 -0.8546
  415MOL0     H55981   0.636   7.864   9.760  1.3191  0.2174 -1.7140
  415MOL0     H55982   0.530   7.774   9.866 -1.3623  0.2041 -0.4926
  415MOL0     H55983   0.614   7.658   9.588  1.2829 -0.1973 -0.2856
  415MOL0     H55984   0.468   7.737   9.630 -2.0677 -3.2173 -1.9084
  415MOL0     H55985   0.523   7.460   9.496  1.0747  0.3941  1.5640
  415MOL0     H55986   0.344   7.253   9.299  0.4261  0.1867 -1.4628
  415MOL0     H55987   0.360   7.404   9.211  4.1527 -2.5973 -2.6336
  415MOL0     H55988   0.495   7.363   9.300 -0.0018  0.3918 -1.2023
  415MOL0     H55989  -0.166   7.555   9.256 -0.9400  0.8852 -1.2122
  415MOL0     H55990  -0.352   7.525   9.104  0.3089 -1.4361 -2.1923
  415MOL0     H55991  -0.580   7.452   9.095  1.5390  0.8545 -0.2932
  415MOL0     H55992  -0.507   7.454   8.931  1.0125  1.2257  1.1020
  415MOL0     H55993  -0.727   7.251   9.011 -1.2405 -1.1715 -3.3178
  415MOL0     H55994  -0.765   7.415   8.959 -2.8850 -2.3836 -0.7891
  415MOL0     H55995  -0.773   7.223   8.813 -0.8958  1.3301  1.5350
  415MOL0     H55996  -0.599   7.210   8.813  0.7607  1.2717  1.0560
  415MOL0     H55997  -0.765   7.450   8.731  0.5662  0.6116  1.7323
  415MOL0     H55998  -0.589   7.444   8.710  0.0796 -2.0039 -1.3306
  415MOL0     H55999  -0.685   7.411   8.493 -2.0954  0.8946 -0.0625
  415MOL0     H56000  -0.816   7.313   8.565 -0.4038  2.2864  1.4799
  415MOL0     H56001  -0.524   7.244   8.513  0.2018 -1.3071  1.5989
  415MOL0     H56002  -0.631   7.135   8.608 -1.1626  1.7156  2.7523
  415MOL0     H56003  -0.640   7.215   8.322  0.9569 -0.8132 -0.2789
  415MOL0     H56004  -0.784   7.141   8.404 -0.4196  0.1114  2.1179
  415MOL0     H56005  -0.635   6.980   8.282 -0.6310 -0.6752  1.0498
  415MOL0     H56006  -0.675   6.924   8.442 -2.8013 -1.0125 -0.7835
  415MOL0     H56007  -0.377   7.109   9.216 -0.3746 -0.5814  2.3772
  415MOL0     H56008  -0.197   7.133   9.375 -0.3403  0.5264 -1.0116
  415MOL0     H56009   0.047   7.490   9.605 -0.1984  0.8751  0.6729
  415MOL0     H56010   0.216   7.545   9.779  1.2895  0.4959  1.0763
  415MOL0     H56011   0.584   9.050   9.502 -2.0279  0.1173 -2.0137
  415MOL0     H56012   0.384   9.078   9.386  0.8626 -1.7213 -1.6692
  415MOL0     H56013  -0.225   8.991   9.549  2.2437 -0.4152 -0.1174
  415MOL0     H56014  -0.411   8.987   9.393 -0.8370 -0.0070 -0.9505
  415MOL0     H56015  -0.312   8.931   8.952  0.4328  0.2681  1.2146
  415MOL0     H56016  -0.357   8.772   9.027  0.0131  1.3824  1.8378
  415MOL0     H56017  -0.580   8.967   8.936 -1.5036 -0.9208  0.7040
  415MOL0     H56018  -0.605   8.810   8.968  0.3766 -1.2335 -1.6474
  415MOL0     H56019  -0.477   8.954   8.728 -1.6730  1.7833  0.4769
  415MOL0     H56020  -0.607   8.841   8.752  0.9169 -1.2474 -1.5099
  415MOL0     H56021  -0.442   8.694   8.658 -0.0405  1.6167 -0.2839
  415MOL0     H56022  -0.421   8.675   8.830 -1.0032  0.0858 -0.4855
  415MOL0     H56023  -0.049   8.843   8.699 -0.3830  1.2594 -1.7905
  415MOL0     H56024  -0.141   8.879   9.065 -0.8034  1.5084 -1.0025
  415MOL0     H56025   0.047   8.897   9.237  1.4881  0.0357  2.4802
  416MOL0     O56026   0.235   9.607   5.480 -0.7886  0.4179  0.8230
  416MOL0     C56027   0.317   9.559   5.554 -0.2271 -0.9605 -0.1666
  416MOL0     O56028   0.294   9.518   5.683 -0.7645 -0.1462  0.1979
  416MOL0     C56029   0.174   9.524   5.747 -0.6409 -0.5910  0.4667
  416MOL0     C56030   0.061   9.605   5.707 -0.2011  0.3811 -0.6992
  416MOL0     C56031  -0.061   9.602   5.774  0.0978 -0.0779  0.2819
  416MOL0     C56032  -0.074   9.517   5.885  0.0649 -0.4103 -0.3970
  416MOL0     O56033  -0.184   9.508   5.975  0.2913 -0.6356 -0.0030
  416MOL0     C56034  -0.290   9.589   5.940  0.0920  0.5319  0.4440
  416MOL0     C56035  -0.413   9.559   6.017  0.0964  0.5013  0.7054
  416MOL0     C56036  -0.467   9.413   5.988  0.4704 -0.3001 -0.1102
  416MOL0     C56037  -0.590   9.382   6.071 -0.5709 -0.3021 -0.2111
  416MOL0     C56038  -0.641   9.240   6.044 -0.6661 -0.7476 -0.8085
  416MOL0     C56039  -0.778   9.208   6.105  0.8799  0.5009  0.3281
  416MOL0     C56040  -0.898   9.298   6.068  0.2353 -0.8618  0.4226
  416MOL0     C56041  -1.037   9.261   6.123  0.7570  0.3750 -0.1231
  416MOL0     N56042  -1.150   9.326   6.060 -0.3216  0.9430  0.0609
  416MOL0     C56043  -1.188   9.450   6.040 -0.5287 -0.1670 -0.9668
  416MOL0     C56044  -1.315   9.449   5.992 -0.3582 -0.3453 -0.3437
  416MOL0     C56045  -1.409   9.562   5.972 -0.3324  0.1676 -0.0827
  416MOL0     C56046  -1.538   9.566   6.053 -0.3137  0.5238 -0.4383
  416MOL0     C56047  -1.588   9.707   6.085 -0.3779 -0.7873 -0.2415
  416MOL0     C56048  -1.737   9.697   6.120  0.1250 -0.4095 -0.1808
  416MOL0     O56049  -1.773   9.624   6.239 -0.8157  0.0423  0.9091
  416MOL0     C56050  -1.903   9.635   6.268  0.7784 -0.6717 -1.0916
  416MOL0     C56051  -1.949   9.598   6.392 -0.1851 -0.0515 -0.0074
  416MOL0     C56052  -2.079   9.608   6.431  0.9464  0.1438 -0.2613
  416MOL0     C56053  -2.107   9.575   6.572  0.2029 -0.1515  0.1423
  416MOL0     C56054  -2.182   9.657   6.341 -1.1627 -0.5815 -0.1910
  416MOL0     C56055  -2.329   9.668   6.360 -0.2796  0.2007  0.2034
  416MOL0     O56056  -2.382   9.644   6.481  0.1993 -0.2986 -0.3652
  416MOL0     C56057  -2.514   9.676   6.491 -0.0701 -0.4830 -0.5599
  416MOL0     C56058  -2.611   9.580   6.503  0.0362 -0.4563 -0.4632
  416MOL0     C56059  -2.743   9.613   6.530 -0.0182  0.7223 -0.0068
  416MOL0     C56060  -2.789   9.742   6.540 -0.4039  0.1196  0.2897
  416MOL0     O56061  -2.922   9.784   6.568  0.0238 -0.1123 -0.0584
  416MOL0     C56062  -3.016   9.684   6.541 -0.0822  0.8537  0.1562
  416MOL0     C56063  -3.151   9.749   6.516  0.1103  0.1432  0.3963
  416MOL0     C56064  -3.173   9.799   6.380  0.3685 -0.1162  0.8399
  416MOL0     C56065  -3.302   9.882   6.371  0.1299  0.1044 -0.1971
  416MOL0     C56066  -3.292   9.992   6.262  0.1664 -0.2402  0.2767
  416MOL0     C56067  -3.412  10.077   6.272  0.5440 -0.1656  0.3366
  416MOL0     C56068  -3.409  10.202   6.180  0.1456  1.1390  0.2017
  416MOL0     C56069  -3.526  10.295   6.217 -0.4138 -0.1326 -0.2797
  416MOL0    Cl56070  -3.487  10.469   6.180  0.1591 -0.2804  0.0589
  416MOL0     C56071  -2.698   9.845   6.514 -1.3448  0.3928  0.0366
  416MOL0     C56072  -2.559   9.810   6.498  0.6346  0.8351 -0.4726
  416MOL0     O56073  -2.398   9.664   6.255  0.7907 -0.1066 -0.2944
  416MOL0     C56074  -2.133   9.690   6.212  1.1887 -0.4205 -0.0089
  416MOL0     C56075  -2.004   9.683   6.176  0.7505  0.6813 -0.3965
  416MOL0     N56076  -1.350   9.323   5.987 -0.6881 -0.1373 -0.1954
  416MOL0     N56077  -1.251   9.244   6.024  0.0300 -0.5268  0.4230
  416MOL0     C56078   0.041   9.453   5.933  0.7544  0.0277 -0.7297
  416MOL0     C56079   0.167   9.463   5.876  0.8506 -1.3172  0.6077
  416MOL0     C56080   0.454   9.542   5.494  0.4694  0.0370 -0.4855
  416MOL0     C56081   0.491   9.588   5.357 -0.1444  0.4618  0.0080
  416MOL0     C56082   0.620   9.562   5.294  0.1752  0.2292 -1.1223
  416MOL0     C56083   0.715   9.489   5.373  0.2437  0.3173  0.3452
  416MOL0     O56084   0.842   9.449   5.332 -0.1680 -1.2975  0.1901
  416MOL0     C56085   0.873   9.447   5.194 -0.0738 -0.3245 -0.0811
  416MOL0     C56086   1.013   9.379   5.183  0.2836 -0.0205 -0.9259
  416MOL0     C56087   1.067   9.370   5.040  0.1879 -0.2947 -0.0638
  416MOL0     C56088   1.201   9.290   5.040 -0.9791 -0.5766 -0.7181
  416MOL0     C56089   1.249   9.311   4.903  0.2342 -1.1055  0.0604
  416MOL0     C56090   1.273   9.318   4.789  0.8797 -0.0135 -0.2512
  416MOL0     C56091   0.680   9.455   5.507 -0.2912 -0.1261  0.7406
  416MOL0     C56092   0.557   9.483   5.569 -0.5230 -0.6534  0.2049
  416MOL0     H56093   0.068   9.668   5.619  1.4690 -1.5612 -2.0509
  416MOL0     H56094  -0.152   9.656   5.750 -2.2209 -2.7705  2.3520
  416MOL0     H56095  -0.265   9.690   5.974 -5.7488  0.7936  5.7951
  416MOL0     H56096  -0.312   9.571   5.835  3.2318 -4.2427  0.2514
  416MOL0     H56097  -0.379   9.567   6.121  3.5415 -0.1169 -0.2487
  416MOL0     H56098  -0.494   9.629   5.993  0.4110  0.0541 -1.9687
  416MOL0     H56099  -0.497   9.404   5.883 -2.3686  0.1254  0.5806
  416MOL0     H56100  -0.386   9.346   6.019  0.1356 -0.7843 -0.2691
  416MOL0     H56101  -0.567   9.393   6.177 -0.1574  1.4540 -0.4646
  416MOL0     H56102  -0.669   9.452   6.042 -1.9624 -2.6175 -2.4238
  416MOL0     H56103  -0.648   9.240   5.935  0.8730 -0.6468 -0.9201
  416MOL0     H56104  -0.564   9.173   6.083 -0.3312  0.2403  0.2754
  416MOL0     H56105  -0.795   9.105   6.073  3.4812 -0.8784  2.9811
  416MOL0     H56106  -0.768   9.192   6.213  0.3063 -1.2402  0.1479
  416MOL0     H56107  -0.862   9.396   6.102  0.5150  0.1297 -2.4565
  416MOL0     H56108  -0.923   9.300   5.961 -1.6362  1.5284  0.8082
  416MOL0     H56109  -1.048   9.294   6.226 -0.4593  3.0292 -1.0055
  416MOL0     H56110  -1.050   9.153   6.124  2.9073  0.0845  0.3378
  416MOL0     H56111  -1.136   9.537   6.078  0.4511 -1.4069  0.6929
  416MOL0     H56112  -1.365   9.659   5.995  1.3340 -0.5378 -0.1903
  416MOL0     H56113  -1.438   9.562   5.866  2.4175  1.4084 -0.9266
  416MOL0     H56114  -1.518   9.515   6.148 -0.1486  0.2075 -0.6426
  416MOL0     H56115  -1.611   9.508   5.996 -1.1594  2.6444 -1.6178
  416MOL0     H56116  -1.592   9.775   5.999  1.1255  0.2581  0.4611
  416MOL0     H56117  -1.533   9.760   6.164 -1.2842 -1.4062  0.8402
  416MOL0     H56118  -1.784   9.648   6.034  1.2740 -0.1894 -0.9575
  416MOL0     H56119  -1.759   9.804   6.126  2.1923  0.1127 -0.8185
  416MOL0     H56120  -1.882   9.550   6.463  0.8493  1.5228  0.1389
  416MOL0     H56121  -2.106   9.673   6.620 -2.0228  0.9035 -1.7437
  416MOL0     H56122  -2.205   9.533   6.597 -0.5372 -0.3009 -2.7363
  416MOL0     H56123  -2.027   9.518   6.620 -0.6276 -1.1042  0.4550
  416MOL0     H56124  -2.574   9.478   6.512  0.8351 -0.2953 -1.6746
  416MOL0     H56125  -2.811   9.532   6.554  0.0612  0.4720 -0.6144
  416MOL0     H56126  -2.998   9.627   6.449 -1.2641  3.0331 -1.5251
  416MOL0     H56127  -3.025   9.613   6.624 -1.0690  1.1104  0.2829
  416MOL0     H56128  -3.231   9.683   6.549  0.6370 -0.8901 -0.3283
  416MOL0     H56129  -3.155   9.833   6.586  0.4287  0.0021  0.5859
  416MOL0     H56130  -3.196   9.714   6.315 -6.1490  1.4844  0.3638
  416MOL0     H56131  -3.093   9.866   6.347  1.1394 -0.2679  2.2958
  416MOL0     H56132  -3.379   9.807   6.346 -0.3245  0.4843  0.0451
  416MOL0     H56133  -3.329   9.934   6.463  3.3272  2.4689 -0.4338
  416MOL0     H56134  -3.279   9.959   6.158 -0.6037  1.5685 -0.4235
  416MOL0     H56135  -3.200  10.050   6.276  0.5794  0.1714 -3.2600
  416MOL0     H56136  -3.500  10.015   6.249  1.2886 -0.9874 -0.4189
  416MOL0     H56137  -3.434  10.101   6.376 -0.1014 -0.4711  0.2767
  416MOL0     H56138  -3.422  10.170   6.076 -2.7962 -0.9919  1.0823
  416MOL0     H56139  -3.305  10.233   6.191  0.4726 -0.3160  1.4552
  416MOL0     H56140  -3.545  10.281   6.324  2.7016  1.0871  0.5472
  416MOL0     H56141  -3.616  10.255   6.170 -1.8662 -1.4454  3.2497
  416MOL0     H56142  -2.723   9.950   6.512  0.3356  0.8192 -0.1714
  416MOL0     H56143  -2.492   9.886   6.461  0.7301  2.5000  2.7454
  416MOL0     H56144  -2.201   9.720   6.133 -1.9832  0.8302  2.9401
  416MOL0     H56145  -1.971   9.720   6.080  0.6322 -2.1683 -1.6204
  416MOL0     H56146   0.023   9.410   6.031  1.7387  3.7675  1.3112
  416MOL0     H56147   0.250   9.409   5.921 -0.4153 -1.5311  2.8007
  416MOL0     H56148   0.427   9.664   5.312 -1.3959 -0.5810 -0.0315
  416MOL0     H56149   0.631   9.598   5.192 -1.4704 -0.7337 -1.6752
  416MOL0     H56150   0.798   9.404   5.127 -0.3610  2.7769 -1.9017
  416MOL0     H56151   0.877   9.552   5.166 -0.2926  0.1093  1.4468
  416MOL0     H56152   1.000   9.278   5.223  1.1887  0.1742 -0.0898
  416MOL0     H56153   1.089   9.436   5.238 -0.0733  3.9355 -4.0602
  416MOL0     H56154   1.083   9.469   4.995  1.3669  0.1964  1.3674
  416MOL0     H56155   1.001   9.317   4.970 -0.8066 -0.1301  0.7165
  416MOL0     H56156   1.199   9.182   5.054 -1.2913 -0.3467  1.2950
  416MOL0     H56157   1.278   9.339   5.100  0.1082  0.3133 -2.7264
  416MOL0     H56158   1.315   9.337   4.692 -4.8959  4.0552 -2.5469
  416MOL0     H56159   0.741   9.381   5.558  1.2567  0.0311 -0.7851
  416MOL0     H56160   0.544   9.449   5.671  4.9422 -3.7843  0.2226
  417MOL0     O56161   6.285   2.218   1.957 -0.6460  0.0341 -0.5414
  417MOL0     C56162   6.377   2.138   1.939 -0.0031  1.0597 -0.0269
  417MOL0     O56163   6.369   2.001   1.964  0.7368  0.1754  1.2098
  417MOL0     C56164   6.247   1.942   2.010  0.6768 -0.1234  0.6263
  417MOL0     C56165   6.269   1.838   2.099 -0.3195  0.4021 -0.4039
  417MOL0     C56166   6.160   1.777   2.153 -0.8582 -0.3695 -0.4185
  417MOL0     C56167   6.034   1.803   2.108 -0.3724  0.7461  0.5796
  417MOL0     O56168   5.921   1.739   2.153  0.0895 -0.0599  0.2983
  417MOL0     C56169   5.909   1.728   2.299  0.2217  0.2334  0.0061
  417MOL0     C56170   5.769   1.716   2.347  1.5373  0.3080  0.6920
  417MOL0     C56171   5.699   1.593   2.304  0.1342 -0.1657  0.1627
  417MOL0     C56172   5.573   1.550   2.387 -0.2896 -0.7627  0.1178
  417MOL0     C56173   5.502   1.428   2.328  0.6194  0.2425 -1.1196
  417MOL0     C56174   5.596   1.319   2.311  0.6981  0.8972 -0.3075
  417MOL0     C56175   5.519   1.190   2.274 -0.5372 -0.3213  0.7929
  417MOL0     C56176   5.599   1.057   2.271  0.4913 -0.4364 -0.1157
  417MOL0     N56177   5.601   0.993   2.407  0.4454 -0.9292  0.6553
  417MOL0     C56178   5.500   0.923   2.462  0.1364 -0.3197 -0.5293
  417MOL0     C56179   5.557   0.876   2.573  0.9802  0.3305  0.7468
  417MOL0     C56180   5.500   0.791   2.692  0.3462 -0.1877  1.3741
  417MOL0     C56181   5.419   0.876   2.787 -0.2591  0.7581 -0.6350
  417MOL0     C56182   5.377   0.777   2.903 -1.1248  0.1317 -0.5236
  417MOL0     C56183   5.266   0.844   2.987  0.2642 -0.4950  0.8437
  417MOL0     O56184   5.159   0.851   2.886 -0.3699  0.2033 -0.3986
  417MOL0     C56185   5.045   0.905   2.929  0.4759  0.1651 -0.4746
  417MOL0     C56186   4.966   0.995   2.848  0.5710  0.2710  0.4052
  417MOL0     C56187   4.840   1.054   2.895 -0.3893 -0.2572  0.0458
  417MOL0     C56188   4.778   1.158   2.806 -0.5569 -0.5732 -0.4800
  417MOL0     C56189   4.787   1.019   3.019  0.7348 -0.2073 -0.3788
  417MOL0     C56190   4.660   1.061   3.075  0.4643 -0.7461 -0.4286
  417MOL0     O56191   4.639   1.191   3.088 -0.1197  0.3960  0.2108
  417MOL0     C56192   4.512   1.247   3.110 -0.3364 -0.4158  0.4675
  417MOL0     C56193   4.506   1.372   3.166 -0.7122  0.2289  0.0574
  417MOL0     C56194   4.383   1.442   3.184  0.1621  0.3005 -0.7946
  417MOL0     C56195   4.268   1.370   3.148 -0.2503  0.7269 -0.6029
  417MOL0     O56196   4.149   1.436   3.173  0.1749  0.5453 -0.8055
  417MOL0     C56197   4.025   1.373   3.137 -0.6130 -0.8275 -0.4776
  417MOL0     C56198   3.913   1.460   3.198 -0.6567  0.3342 -1.1829
  417MOL0     C56199   3.792   1.423   3.121  0.0137  0.1813  0.5823
  417MOL0     C56200   3.669   1.467   3.194 -0.4154  0.8026  0.2833
  417MOL0     C56201   3.552   1.406   3.121 -0.8643  0.3234  0.2201
  417MOL0     C56202   3.424   1.428   3.199 -0.7447  0.5353  0.8909
  417MOL0     C56203   3.309   1.361   3.123  0.4854 -0.1194  0.4411
  417MOL0     C56204   3.208   1.308   3.218 -1.3218  0.0267  0.3147
  417MOL0    Cl56205   3.118   1.447   3.276  0.5310 -0.3337  0.3948
  417MOL0     C56206   4.271   1.237   3.095  0.7004 -0.2111  0.8811
  417MOL0     C56207   4.397   1.182   3.068  0.0516  0.2528  0.7190
  417MOL0     O56208   4.595   0.977   3.130  0.3203 -0.3139  0.1893
  417MOL0     C56209   4.867   0.934   3.101 -0.8049 -0.1997  0.2537
  417MOL0     C56210   4.990   0.875   3.055 -0.0045  0.8492 -0.0378
  417MOL0     N56211   5.687   0.923   2.579 -0.3207 -0.3034 -0.2191
  417MOL0     N56212   5.716   0.991   2.478  0.0890 -0.4233  0.2846
  417MOL0     C56213   6.008   1.894   2.010 -0.4846 -0.7904  0.7288
  417MOL0     C56214   6.119   1.976   1.971  0.4732 -0.3015  0.5673
  417MOL0     C56215   6.508   2.186   1.904 -0.8100 -0.3607 -0.1747
  417MOL0     C56216   6.620   2.102   1.897 -0.2143  0.5967  0.0805
  417MOL0     C56217   6.740   2.148   1.863  0.1212 -0.0496 -0.0725
  417MOL0     C56218   6.755   2.286   1.838  0.1643  1.1663 -0.2298
  417MOL0     O56219   6.889   2.316   1.825  0.5004  0.5669  0.7315
  417MOL0     C56220   6.941   2.447   1.809 -0.4004 -0.6444 -0.1915
  417MOL0     C56221   6.969   2.471   1.664 -1.7269 -1.2058  0.2161
  417MOL0     C56222   6.857   2.472   1.570  1.0004 -0.8025  0.3795
  417MOL0     C56223   6.879   2.570   1.462  0.2818  0.2601  0.7395
  417MOL0     C56224   6.901   2.709   1.507 -0.5865 -0.3944  0.1438
  417MOL0     C56225   6.920   2.821   1.548  0.4680 -0.6175 -0.7546
  417MOL0     C56226   6.649   2.377   1.842  0.1884 -0.1002  0.0902
  417MOL0     C56227   6.523   2.320   1.863  0.2106  0.1289 -0.3280
  417MOL0     H56228   6.368   1.806   2.128 -0.8130 -2.2116 -1.3605
  417MOL0     H56229   6.171   1.692   2.220  1.2391  1.4500  1.6892
  417MOL0     H56230   5.960   1.639   2.336  0.0528 -0.5808 -1.6600
  417MOL0     H56231   5.959   1.810   2.352  3.1663 -1.0566 -0.5856
  417MOL0     H56232   5.770   1.719   2.457 -0.7096  1.5024  0.7328
  417MOL0     H56233   5.703   1.798   2.317 -2.3699 -2.6422  0.4187
  417MOL0     H56234   5.672   1.608   2.199 -0.5401 -2.6656 -0.0885
  417MOL0     H56235   5.777   1.517   2.310  0.2476 -0.2845 -2.1578
  417MOL0     H56236   5.598   1.527   2.491 -1.9890 -1.3657  0.4231
  417MOL0     H56237   5.510   1.639   2.391  2.9683  1.7156  1.9802
  417MOL0     H56238   5.413   1.403   2.386  1.6142  0.2329  0.4454
  417MOL0     H56239   5.463   1.448   2.228 -2.3714 -3.3467 -0.8859
  417MOL0     H56240   5.681   1.344   2.246  1.9709  0.2024  1.0200
  417MOL0     H56241   5.649   1.297   2.405 -1.0472  1.6174  0.8952
  417MOL0     H56242   5.432   1.173   2.338 -0.5747 -2.1518  0.3332
  417MOL0     H56243   5.486   1.193   2.170 -0.4280 -0.8709  0.7369
  417MOL0     H56244   5.702   1.071   2.238  0.5643 -2.3707 -0.8297
  417MOL0     H56245   5.557   0.986   2.199  2.8466  1.0705 -3.2205
  417MOL0     H56246   5.399   0.896   2.435  0.6619 -2.5815 -0.4450
  417MOL0     H56247   5.429   0.714   2.657  0.6775  0.8911 -2.0624
  417MOL0     H56248   5.586   0.749   2.745  3.4357  2.3720 -1.1691
  417MOL0     H56249   5.326   0.904   2.736 -0.5863 -0.3463 -0.6846
  417MOL0     H56250   5.464   0.962   2.837 -2.4259  2.0640 -0.7658
  417MOL0     H56251   5.467   0.747   2.956  0.9095  1.0123 -3.2400
  417MOL0     H56252   5.340   0.679   2.869  1.8707 -0.8759 -1.2131
  417MOL0     H56253   5.302   0.941   3.022  0.5827 -0.4832  0.4876
  417MOL0     H56254   5.239   0.780   3.072 -0.6777  1.9512  2.5057
  417MOL0     H56255   5.010   1.027   2.754  0.2855 -0.6038 -0.0298
  417MOL0     H56256   4.753   1.248   2.863 -0.3716  1.0152 -2.7405
  417MOL0     H56257   4.848   1.192   2.729  0.0865 -0.1257  0.2930
  417MOL0     H56258   4.688   1.125   2.752 -2.6722  2.8172  0.6326
  417MOL0     H56259   4.599   1.424   3.188  0.5142  1.0832 -5.6362
  417MOL0     H56260   4.383   1.539   3.231  1.1475 -1.0475  2.1911
  417MOL0     H56261   4.021   1.372   3.027 -1.8040 -1.1417 -0.4499
  417MOL0     H56262   4.018   1.271   3.176 -2.1459  0.1523  2.0229
  417MOL0     H56263   3.898   1.429   3.302 -1.0009  1.8738 -0.7417
  417MOL0     H56264   3.943   1.565   3.202  1.5299 -0.2442  2.3261
  417MOL0     H56265   3.784   1.315   3.106 -2.1156  0.3231  0.3191
  417MOL0     H56266   3.791   1.484   3.030  0.0480  4.6383  3.2534
  417MOL0     H56267   3.668   1.414   3.290  1.4083  0.0691 -0.0666
  417MOL0     H56268   3.665   1.576   3.193  1.2215  0.8849  0.7399
  417MOL0     H56269   3.558   1.297   3.111 -3.9360  0.1166 -0.2999
  417MOL0     H56270   3.553   1.454   3.023 -0.8540 -2.6080 -1.3462
  417MOL0     H56271   3.430   1.377   3.296 -2.2825 -0.6833  0.3974
  417MOL0     H56272   3.407   1.536   3.209  0.7014  0.9499 -0.6757
  417MOL0     H56273   3.358   1.285   3.062 -2.0181 -0.7571 -0.9067
  417MOL0     H56274   3.271   1.435   3.052  1.9036  0.0225 -0.1871
  417MOL0     H56275   3.237   1.241   3.299 -1.0856 -1.0591 -0.6280
  417MOL0     H56276   3.147   1.245   3.151  2.2353 -3.5141  0.0149
  417MOL0     H56277   4.178   1.189   3.067  1.8111 -1.7992 -0.2287
  417MOL0     H56278   4.385   1.096   3.002 -0.3026  0.0606  1.0320
  417MOL0     H56279   4.828   0.913   3.200 -1.5261 -0.4204 -0.0755
  417MOL0     H56280   5.041   0.797   3.111  0.0278 -1.0005 -2.5036
  417MOL0     H56281   5.911   1.934   1.981  0.3500  1.6887  1.1492
  417MOL0     H56282   6.105   2.071   1.920 -0.1690 -0.3134  0.7149
  417MOL0     H56283   6.605   1.995   1.903 -2.1455  0.8850  1.4183
  417MOL0     H56284   6.829   2.088   1.847  1.0336  1.1685  0.3401
  417MOL0     H56285   6.879   2.524   1.856 -0.5189  0.5349 -2.1557
  417MOL0     H56286   7.030   2.463   1.871 -1.0475 -0.4040  0.6920
  417MOL0     H56287   7.063   2.423   1.635 -0.1110  1.2860  1.0064
  417MOL0     H56288   7.000   2.574   1.683 -3.3026 -1.1818  3.4053
  417MOL0     H56289   6.770   2.510   1.624 -0.2644 -0.3424 -1.8272
  417MOL0     H56290   6.847   2.370   1.530 -3.3459 -0.1535 -0.7211
  417MOL0     H56291   6.792   2.570   1.395  0.3018  0.3684  0.7131
  417MOL0     H56292   6.963   2.535   1.402 -1.5033 -1.7604 -0.7593
  417MOL0     H56293   6.942   2.922   1.578 -0.3728 -0.5222 -0.4195
  417MOL0     H56294   6.661   2.482   1.819 -2.7048 -0.1636 -2.2124
  417MOL0     H56295   6.440   2.389   1.856 -1.0312 -0.5979  4.0770
  418MOL0     O56296   2.013   0.397   8.453 -0.0367  0.2025  0.6670
  418MOL0     C56297   2.110   0.467   8.483 -0.4576  0.0033  0.1491
  418MOL0     O56298   2.146   0.579   8.423  0.7610 -0.3921  0.5076
  418MOL0     C56299   2.066   0.622   8.312  0.8160 -0.3004 -0.1714
  418MOL0     C56300   1.964   0.713   8.345 -0.2240  0.3013 -0.5338
  418MOL0     C56301   1.856   0.731   8.250 -0.5070  0.5602 -0.2597
  418MOL0     C56302   1.867   0.679   8.118 -0.6255  0.0078  0.3584
  418MOL0     O56303   1.780   0.696   8.021 -0.5284  0.2795 -0.6389
  418MOL0     C56304   1.663   0.785   8.042 -0.0620  0.1797 -0.1456
  418MOL0     C56305   1.594   0.779   7.901  0.6875 -0.0620 -1.1722
  418MOL0     C56306   1.460   0.853   7.915  1.1647 -0.3964 -0.2167
  418MOL0     C56307   1.360   0.798   7.798 -0.0417  0.8232 -0.4212
  418MOL0     C56308   1.232   0.880   7.764  0.4898 -0.5218 -1.2599
  418MOL0     C56309   1.130   0.818   7.671  0.0030  0.0202 -0.0804
  418MOL0     C56310   1.014   0.911   7.629 -1.0812 -0.4371  0.0131
  418MOL0     C56311   1.056   1.021   7.531 -0.3117 -1.0223  0.8584
  418MOL0     N56312   0.936   1.088   7.471 -0.0450 -0.3674 -1.0512
  418MOL0     C56313   0.848   1.035   7.374  0.1506 -0.3774  0.1235
  418MOL0     C56314   0.740   1.121   7.371  0.2598  0.2520 -0.1396
  418MOL0     C56315   0.616   1.110   7.290 -0.1508 -0.4539 -0.3621
  418MOL0     C56316   0.483   1.113   7.373  0.5202  0.4538  0.2583
  418MOL0     C56317   0.374   1.074   7.285  0.5364 -0.1980 -0.4314
  418MOL0     C56318   0.229   1.108   7.329  0.8493 -0.6641 -0.6964
  418MOL0     O56319   0.196   1.043   7.451 -0.2204  0.3199  0.4602
  418MOL0     C56320   0.080   1.069   7.512  1.1308  0.0459  0.3899
  418MOL0     C56321   0.005   1.183   7.486  1.9291  0.2172  0.3827
  418MOL0     C56322  -0.122   1.203   7.540 -0.8912  0.5160  0.9206
  418MOL0     C56323  -0.191   1.340   7.510 -0.1209 -0.1995 -0.8233
  418MOL0     C56324  -0.183   1.091   7.618  0.6796  0.6020  0.4917
  418MOL0     C56325  -0.327   1.099   7.666 -0.2308 -0.0481 -0.5582
  418MOL0     O56326  -0.385   1.222   7.651  0.1511  1.0900 -0.1079
  418MOL0     C56327  -0.506   1.241   7.704  0.3690  0.1891 -0.8691
  418MOL0     C56328  -0.622   1.189   7.644 -1.2048  0.2214  1.0984
  418MOL0     C56329  -0.752   1.202   7.696  0.7427 -0.5048 -0.6572
  418MOL0     C56330  -0.774   1.292   7.806 -0.3240 -0.4498 -0.2894
  418MOL0     O56331  -0.897   1.301   7.873  0.4115 -0.1943 -0.1227
  418MOL0     C56332  -1.000   1.207   7.848 -1.2279  0.7704  0.2788
  418MOL0     C56333  -1.105   1.236   7.950  0.8813 -0.6760 -0.2347
  418MOL0     C56334  -1.243   1.178   7.916  0.9024  0.8761  0.5417
  418MOL0     C56335  -1.351   1.238   8.008 -0.1758  0.3012  0.0652
  418MOL0     C56336  -1.496   1.175   7.983 -0.5179  0.6031  1.0046
  418MOL0     C56337  -1.597   1.248   8.065 -0.6607  0.2705 -1.3919
  418MOL0     C56338  -1.743   1.205   8.040  0.3418 -0.6624 -0.2717
  418MOL0     C56339  -1.842   1.318   8.071 -0.9136  0.3352 -0.4810
  418MOL0    Cl56340  -1.812   1.378   8.227  0.2190 -0.1368  0.7357
  418MOL0     C56341  -0.657   1.346   7.862 -0.3211 -0.3602  0.2534
  418MOL0     C56342  -0.531   1.321   7.815 -0.5616  0.6515 -0.1774
  418MOL0     O56343  -0.375   0.998   7.712  0.1453  0.7252  0.3133
  418MOL0     C56344  -0.100   0.981   7.650 -0.0679  0.3906 -0.1279
  418MOL0     C56345   0.026   0.972   7.597 -0.2622  0.2192  0.5248
  418MOL0     N56346   0.770   1.216   7.461 -0.1013 -0.7140 -1.0248
  418MOL0     N56347   0.888   1.198   7.519  0.8822 -0.3161  0.8722
  418MOL0     C56348   1.977   0.610   8.081 -0.1962  0.1086  0.7811
  418MOL0     C56349   2.071   0.572   8.179 -0.2733 -0.4879 -0.1842
  418MOL0     C56350   2.189   0.411   8.592  0.5441 -1.3041  1.3097
  418MOL0     C56351   2.176   0.278   8.644 -0.0516 -1.2094 -0.2008
  418MOL0     C56352   2.265   0.229   8.735  0.6180 -0.2220  0.2335
  418MOL0     C56353   2.384   0.294   8.760 -0.9092 -0.1766  0.1083
  418MOL0     O56354   2.481   0.232   8.846  0.4403  0.3333  0.3772
  418MOL0     C56355   2.605   0.292   8.874  0.2349 -0.6076 -0.7731
  418MOL0     C56356   2.696   0.185   8.937 -0.5002  1.3226  0.5327
  418MOL0     C56357   2.822   0.246   8.985 -0.1665 -0.3787  0.9873
  418MOL0     C56358   2.895   0.147   9.069 -0.3765  0.4717  0.0238
  418MOL0     C56359   2.997   0.217   9.158 -1.3630 -0.2882 -0.1145
  418MOL0     C56360   3.082   0.265   9.231 -0.2952 -0.0604 -0.8130
  418MOL0     C56361   2.405   0.417   8.706  0.3565 -0.2955  0.9412
  418MOL0     C56362   2.301   0.484   8.630  0.2711  0.4264  0.4107
  418MOL0     H56363   1.964   0.752   8.447  3.3328  3.7549 -1.5954
  418MOL0     H56364   1.773   0.798   8.271  0.4979  2.8153 -2.8502
  418MOL0     H56365   1.589   0.749   8.114  0.2621  0.1299  0.1637
  418MOL0     H56366   1.693   0.890   8.048 -0.0878  0.3967 -2.7208
  418MOL0     H56367   1.651   0.824   7.819 -0.3446  3.3641 -0.1937
  418MOL0     H56368   1.576   0.671   7.897  0.1626 -0.2408  2.3089
  418MOL0     H56369   1.422   0.838   8.016 -0.8397  1.2210 -0.6655
  418MOL0     H56370   1.472   0.961   7.903 -0.0002 -0.3183 -0.7638
  418MOL0     H56371   1.415   0.793   7.704  0.4987 -0.2610 -0.0673
  418MOL0     H56372   1.333   0.701   7.842 -1.1210  0.1218 -2.5009
  418MOL0     H56373   1.186   0.898   7.862  1.5683 -1.9520 -0.4603
  418MOL0     H56374   1.254   0.978   7.721 -1.2435  0.6592  0.3863
  418MOL0     H56375   1.183   0.775   7.586 -2.0083 -0.2955 -1.2430
  418MOL0     H56376   1.082   0.735   7.725 -0.0492  0.1799  0.1195
  418MOL0     H56377   0.936   0.852   7.580 -1.1119 -0.9416  0.6491
  418MOL0     H56378   0.970   0.964   7.714  0.0967  2.2357 -0.9325
  418MOL0     H56379   1.109   0.976   7.447  2.2853  2.2956  0.5069
  418MOL0     H56380   1.121   1.095   7.579  0.0964  0.2120 -1.4500
  418MOL0     H56381   0.864   0.938   7.328  1.0534 -1.0913  1.8379
  418MOL0     H56382   0.614   1.192   7.218 -1.4902 -0.3123 -0.1877
  418MOL0     H56383   0.635   1.026   7.223 -0.8538 -2.9347  2.3363
  418MOL0     H56384   0.469   1.216   7.408 -0.7253 -0.8749  4.2382
  418MOL0     H56385   0.504   1.043   7.455  0.1262 -2.4360 -1.9605
  418MOL0     H56386   0.375   0.964   7.280  0.8256 -0.2351  0.2579
  418MOL0     H56387   0.385   1.103   7.181 -0.4262 -1.4884 -0.9171
  418MOL0     H56388   0.154   1.075   7.256 -1.4149  2.4528  0.0459
  418MOL0     H56389   0.225   1.217   7.338  1.1557 -0.6286 -0.9512
  418MOL0     H56390   0.036   1.262   7.419 -0.4592  1.2990  0.4596
  418MOL0     H56391  -0.277   1.320   7.447  0.0706 -0.3243 -1.0450
  418MOL0     H56392  -0.220   1.403   7.595  0.4841  0.1923 -0.9044
  418MOL0     H56393  -0.122   1.394   7.445  0.5579 -0.6571 -0.5059
  418MOL0     H56394  -0.601   1.115   7.567  2.6316  2.8120 -0.6884
  418MOL0     H56395  -0.832   1.153   7.641 -0.3586  0.8373 -0.3335
  418MOL0     H56396  -1.038   1.224   7.747  2.2519 -0.0575 -1.3326
  418MOL0     H56397  -0.982   1.101   7.870  0.9313  1.1535  0.6196
  418MOL0     H56398  -1.081   1.202   8.051 -1.6026 -1.8216  0.0518
  418MOL0     H56399  -1.115   1.345   7.955 -0.3273 -0.5795 -2.8589
  418MOL0     H56400  -1.243   1.069   7.925 -4.1036  0.8541  4.2757
  418MOL0     H56401  -1.271   1.201   7.813  0.9427 -2.9051 -0.4449
  418MOL0     H56402  -1.318   1.229   8.112 -3.6037  0.9314  1.3262
  418MOL0     H56403  -1.351   1.344   7.980  2.7607  0.0531 -1.2665
  418MOL0     H56404  -1.512   1.070   8.011 -6.0919  1.1560  0.9128
  418MOL0     H56405  -1.533   1.189   7.881  1.4994 -0.1730  0.1178
  418MOL0     H56406  -1.576   1.220   8.168  0.7985  1.5236 -1.3057
  418MOL0     H56407  -1.591   1.357   8.059 -1.5379  0.3903 -0.2396
  418MOL0     H56408  -1.775   1.123   8.105 -0.0811  1.6196  2.5593
  418MOL0     H56409  -1.761   1.184   7.934  0.1602 -0.1397 -0.3434
  418MOL0     H56410  -1.950   1.299   8.065 -0.7843 -1.0929  0.9630
  418MOL0     H56411  -1.827   1.398   7.999  2.4711  0.8270  0.6240
  418MOL0     H56412  -0.665   1.409   7.950 -0.1068 -2.4447  1.8500
  418MOL0     H56413  -0.448   1.350   7.879  0.9394 -0.6040 -1.4550
  418MOL0     H56414  -0.148   0.901   7.706 -0.4138  0.8152  0.1944
  418MOL0     H56415   0.093   0.897   7.638 -0.0218  0.2566  0.2024
  418MOL0     H56416   1.991   0.564   7.983 -2.4906  1.0963 -0.0910
  418MOL0     H56417   2.157   0.509   8.159 -1.0797 -0.9286 -2.6114
  418MOL0     H56418   2.099   0.213   8.605  0.1253 -0.3182 -2.1395
  418MOL0     H56419   2.244   0.133   8.780 -0.0304 -0.3495 -0.3294
  418MOL0     H56420   2.655   0.325   8.782 -0.2822  2.6827 -0.0121
  418MOL0     H56421   2.593   0.378   8.940 -2.1606 -1.3649 -0.1239
  418MOL0     H56422   2.724   0.116   8.857 -1.3865  2.1917 -0.5654
  418MOL0     H56423   2.652   0.137   9.025  0.6858  1.8573  1.4563
  418MOL0     H56424   2.815   0.342   9.038  2.4639  0.1019  0.6052
  418MOL0     H56425   2.888   0.260   8.899  0.9226 -1.0595  1.6744
  418MOL0     H56426   2.946   0.071   9.009  1.7836  0.0299  2.2513
  418MOL0     H56427   2.822   0.092   9.128 -0.1122  2.5471  2.4429
  418MOL0     H56428   3.161   0.308   9.289  0.0963  0.4815 -1.7274
  418MOL0     H56429   2.496   0.469   8.734  0.7549  1.2860 -2.6814
  418MOL0     H56430   2.325   0.585   8.598  0.7173 -0.8580 -3.9139
  419MOL0     O56431   5.913   5.088   8.992 -0.3152  0.1283 -0.5510
  419MOL0     C56432   6.025   5.129   9.012 -0.1434 -0.7765  0.7402
  419MOL0     O56433   6.140   5.054   9.005 -0.8115  0.4672 -0.9487
  419MOL0     C56434   6.128   4.923   8.957 -0.3752 -0.2980  0.4189
  419MOL0     C56435   6.194   4.829   9.022  0.6841  0.7742 -0.4040
  419MOL0     C56436   6.197   4.694   8.979  0.7926  0.2247 -0.5049
  419MOL0     C56437   6.143   4.667   8.852  0.1183 -0.5838  0.4589
  419MOL0     O56438   6.178   4.571   8.773 -0.5588  0.4671  0.5337
  419MOL0     C56439   6.222   4.437   8.816 -0.6175  0.2004 -0.7865
  419MOL0     C56440   6.138   4.336   8.738  0.4544  0.2218 -0.0668
  419MOL0     C56441   6.176   4.192   8.783  0.3942  0.5793  0.1254
  419MOL0     C56442   6.136   4.074   8.700  0.3691 -0.0654 -1.1089
  419MOL0     C56443   6.183   4.068   8.553  0.2592 -0.5662 -1.4987
  419MOL0     C56444   6.155   3.941   8.479 -0.4540  0.2222 -0.6074
  419MOL0     C56445   6.198   3.954   8.333  0.1245  0.8314  0.4840
  419MOL0     C56446   6.158   3.830   8.248 -0.5241 -0.1815 -0.5005
  419MOL0     N56447   6.210   3.846   8.113 -0.0768  0.1514  0.3751
  419MOL0     C56448   6.333   3.795   8.072  0.8700 -0.9490 -0.3676
  419MOL0     C56449   6.341   3.818   7.942 -0.4166  0.6969 -0.7800
  419MOL0     C56450   6.453   3.776   7.852 -0.1403  0.1874 -0.8568
  419MOL0     C56451   6.517   3.651   7.913  0.4673  0.4915  0.6643
  419MOL0     C56452   6.620   3.582   7.824 -0.0103  0.3621  0.7615
  419MOL0     C56453   6.757   3.539   7.902 -0.6605  0.1899 -0.0309
  419MOL0     O56454   6.863   3.481   7.814 -0.0228  0.0659 -0.2339
  419MOL0     C56455   6.958   3.561   7.761  0.3507 -0.2193  0.1114
  419MOL0     C56456   6.960   3.702   7.772 -0.3775 -0.2652 -0.4563
  419MOL0     C56457   7.063   3.786   7.724  0.4199  0.2892 -0.1042
  419MOL0     C56458   7.044   3.935   7.752 -0.5452  0.6467 -0.2121
  419MOL0     C56459   7.173   3.725   7.662 -0.1595  0.7411 -0.7300
  419MOL0     C56460   7.287   3.808   7.586  0.4657 -0.1540 -0.4253
  419MOL0     O56461   7.369   3.722   7.521  0.1668  0.8163  0.0357
  419MOL0     C56462   7.483   3.772   7.468  0.4273 -0.1155  0.0596
  419MOL0     C56463   7.587   3.800   7.562 -0.0875  0.0696 -0.0031
  419MOL0     C56464   7.717   3.826   7.518  0.2045  0.4403 -0.1026
  419MOL0     C56465   7.741   3.833   7.384  0.4163  0.6536 -0.9336
  419MOL0     O56466   7.866   3.872   7.340 -0.0911 -0.0308 -0.6394
  419MOL0     C56467   7.893   3.882   7.204 -0.0847  0.3918  0.2274
  419MOL0     C56468   8.032   3.944   7.204  0.0284 -0.2663 -0.1319
  419MOL0     C56469   8.080   3.955   7.061 -0.4150  0.4305  0.0443
  419MOL0     C56470   8.198   4.056   7.060 -0.0964 -0.2247  0.8903
  419MOL0     C56471   8.218   4.102   6.914  0.8820  0.1266 -0.3629
  419MOL0     C56472   8.348   4.183   6.897  1.2301  0.2110 -0.3474
  419MOL0     C56473   8.469   4.111   6.859 -0.7714  0.5054 -0.5732
  419MOL0     C56474   8.576   4.203   6.816  0.0697  0.2660  0.0930
  419MOL0    Cl56475   8.703   4.103   6.734 -0.3152 -0.0314 -0.1510
  419MOL0     C56476   7.633   3.814   7.293  0.0193 -0.3779  0.0655
  419MOL0     C56477   7.506   3.775   7.336 -0.0041  0.1712  0.3319
  419MOL0     O56478   7.311   3.919   7.616  0.2255 -0.4539  0.1830
  419MOL0     C56479   7.174   3.586   7.642  0.7546  0.8401 -0.9222
  419MOL0     C56480   7.069   3.508   7.693  0.3162 -0.0661  0.0283
  419MOL0     N56481   6.217   3.878   7.905 -0.5623  0.6093  0.3601
  419MOL0     N56482   6.149   3.905   8.011 -0.1898 -0.0001 -0.1203
  419MOL0     C56483   6.071   4.773   8.784  0.6308  0.0375  0.1150
  419MOL0     C56484   6.072   4.901   8.833 -0.2185  0.6203  1.3819
  419MOL0     C56485   6.041   5.275   9.043  0.9730 -0.0405  0.1329
  419MOL0     C56486   6.150   5.325   9.122 -0.2458  0.4933 -0.0863
  419MOL0     C56487   6.145   5.464   9.168 -0.3133  0.3001 -0.5314
  419MOL0     C56488   6.050   5.555   9.129  0.4131 -0.1235  0.2269
  419MOL0     O56489   6.053   5.689   9.159 -0.0295  0.6085  0.8668
  419MOL0     C56490   5.943   5.750   9.241 -0.2032 -0.1671  0.2126
  419MOL0     C56491   5.831   5.811   9.167 -0.0539  0.6277 -0.9565
  419MOL0     C56492   5.775   5.945   9.234  0.5319 -1.1257 -0.2150
  419MOL0     C56493   5.672   5.931   9.351  0.2051 -0.7265  1.0369
  419MOL0     C56494   5.737   5.853   9.458  0.1718  0.1415  0.4965
  419MOL0     C56495   5.795   5.790   9.555  1.3499 -0.0877 -0.0088
  419MOL0     C56496   5.943   5.505   9.053 -0.3145  0.6143 -0.6674
  419MOL0     C56497   5.941   5.368   9.006 -0.3290 -0.2569  0.3205
  419MOL0     H56498   6.244   4.872   9.109 -1.4511  1.1893  0.6855
  419MOL0     H56499   6.242   4.617   9.042 -1.4558 -0.1932  0.7052
  419MOL0     H56500   6.329   4.432   8.793 -0.7525 -0.2886 -1.3073
  419MOL0     H56501   6.212   4.421   8.924  1.3825  1.4676 -0.3562
  419MOL0     H56502   6.037   4.362   8.770 -0.1914 -0.2029 -1.6888
  419MOL0     H56503   6.147   4.345   8.630 -1.9473 -1.4442 -0.4867
  419MOL0     H56504   6.283   4.191   8.803  1.0701  0.3664 -3.0688
  419MOL0     H56505   6.124   4.193   8.880  0.0333  1.5397 -0.0672
  419MOL0     H56506   6.166   3.990   8.762  0.2678  0.9709  0.3920
  419MOL0     H56507   6.027   4.072   8.688  0.2841  1.2961 -0.7636
  419MOL0     H56508   6.122   4.146   8.505  0.7379 -0.1618 -1.4542
  419MOL0     H56509   6.289   4.091   8.545  0.2573  0.6322  0.8987
  419MOL0     H56510   6.211   3.860   8.527  0.1454 -0.4268 -2.3149
  419MOL0     H56511   6.047   3.928   8.486 -0.3701 -1.2564 -1.6436
  419MOL0     H56512   6.149   4.046   8.298  1.0641  0.8926 -0.7254
  419MOL0     H56513   6.305   3.976   8.335 -0.2276  2.9215 -0.5901
  419MOL0     H56514   6.049   3.821   8.248 -0.5129 -0.3244 -1.0691
  419MOL0     H56515   6.203   3.737   8.285  0.5715  0.0808 -1.1305
  419MOL0     H56516   6.401   3.749   8.143 -0.1885 -3.8535 -1.1144
  419MOL0     H56517   6.411   3.743   7.757 -3.3793  0.1079  0.4716
  419MOL0     H56518   6.522   3.861   7.843 -1.6771  1.5181 -0.5100
  419MOL0     H56519   6.438   3.581   7.944  0.8729  0.4359  1.6247
  419MOL0     H56520   6.575   3.684   8.000  0.1759  3.6463 -0.2220
  419MOL0     H56521   6.652   3.655   7.749  0.2491 -0.5553 -0.0525
  419MOL0     H56522   6.568   3.500   7.772  1.7507  0.6154 -1.5702
  419MOL0     H56523   6.743   3.461   7.977  0.6665 -0.3499 -0.3273
  419MOL0     H56524   6.780   3.625   7.965  1.0274 -0.5355  0.3957
  419MOL0     H56525   6.878   3.749   7.825 -2.6236 -2.7876 -1.4571
  419MOL0     H56526   6.935   3.938   7.746 -0.4458  2.4291 -2.6207
  419MOL0     H56527   7.071   3.953   7.856 -2.2671 -1.2156  0.6270
  419MOL0     H56528   7.081   4.003   7.674 -0.4823  0.7501 -0.0930
  419MOL0     H56529   7.578   3.803   7.670  0.3585  3.9515  0.0562
  419MOL0     H56530   7.790   3.858   7.592  0.2072 -1.4618  0.7877
  419MOL0     H56531   7.904   3.779   7.167  2.5828  0.3895  0.8595
  419MOL0     H56532   7.828   3.940   7.138  1.9534  1.0447 -1.3014
  419MOL0     H56533   8.031   4.044   7.248 -0.0617 -1.0348  1.7144
  419MOL0     H56534   8.097   3.875   7.259  1.1797 -2.0955 -3.5158
  419MOL0     H56535   8.003   3.977   6.986 -1.5078 -0.2322  0.9395
  419MOL0     H56536   8.123   3.861   7.024  0.3903  0.9878 -0.4694
  419MOL0     H56537   8.166   4.147   7.112  2.5719  1.4249 -0.1503
  419MOL0     H56538   8.290   4.016   7.103 -0.3212 -2.9987 -0.9450
  419MOL0     H56539   8.129   4.154   6.877  1.9240  2.0186 -0.3062
  419MOL0     H56540   8.232   4.011   6.855 -0.6276 -1.2277  1.2638
  419MOL0     H56541   8.325   4.255   6.818 -0.1080  2.6366  2.0307
  419MOL0     H56542   8.377   4.236   6.989  4.5566  1.6292 -2.0699
  419MOL0     H56543   8.443   4.042   6.779 -2.5028 -0.4264  0.7340
  419MOL0     H56544   8.499   4.041   6.938 -2.4351 -0.6719 -0.9303
  419MOL0     H56545   8.609   4.266   6.899  0.4592  0.7528 -0.4223
  419MOL0     H56546   8.545   4.267   6.733  0.3210 -1.4603 -1.3834
  419MOL0     H56547   7.640   3.836   7.187 -1.0612 -1.2461 -0.2040
  419MOL0     H56548   7.426   3.754   7.265  0.5663  0.1004 -0.3080
  419MOL0     H56549   7.257   3.537   7.591  2.2846  3.1133 -0.7528
  419MOL0     H56550   7.090   3.403   7.673 -2.8107 -0.8469  0.2690
  419MOL0     H56551   6.025   4.744   8.690  1.2100  1.1367 -0.5294
  419MOL0     H56552   6.023   4.981   8.778  1.6179  2.0153  1.6753
  419MOL0     H56553   6.235   5.265   9.155  0.3397 -0.2397 -2.6836
  419MOL0     H56554   6.220   5.501   9.237 -0.1490  2.7227 -1.8939
  419MOL0     H56555   5.893   5.678   9.307 -3.1402  1.4817 -0.0436
  419MOL0     H56556   5.993   5.824   9.305  0.0922  0.4827 -0.7596
  419MOL0     H56557   5.749   5.742   9.146  0.4029 -0.9770  1.8830
  419MOL0     H56558   5.876   5.834   9.070 -1.0860  0.4723 -1.4845
  419MOL0     H56559   5.735   6.013   9.158  2.9131  0.5828 -0.0441
  419MOL0     H56560   5.860   6.011   9.250  0.3034 -0.9188  0.1616
  419MOL0     H56561   5.580   5.897   9.304 -1.6155 -0.3211  4.0837
  419MOL0     H56562   5.660   6.031   9.393 -0.0284 -1.3171  2.3952
  419MOL0     H56563   5.845   5.732   9.630  0.6849 -3.5990 -2.0379
  419MOL0     H56564   5.860   5.565   9.015 -2.3311 -0.0593  2.2966
  419MOL0     H56565   5.866   5.319   8.945  1.3813 -1.0151 -1.2811
  420MOL0     O56566   2.555   9.265   4.293  0.2365 -0.0351 -0.3425
  420MOL0     C56567   2.603   9.304   4.399  0.8358 -0.9960 -0.1346
  420MOL0     O56568   2.530   9.374   4.496 -0.4336  0.3209  0.4546
  420MOL0     C56569   2.399   9.403   4.487  0.4783  0.7027 -0.0145
  420MOL0     C56570   2.337   9.454   4.378 -0.6252  0.0565  0.1997
  420MOL0     C56571   2.199   9.489   4.370  0.1128 -0.8239  0.1791
  420MOL0     C56572   2.119   9.462   4.471  0.6970  0.1028 -0.4954
  420MOL0     O56573   1.990   9.514   4.464  0.1578 -0.0429 -0.3291
  420MOL0     C56574   1.920   9.499   4.345  0.2135 -0.4448  0.0187
  420MOL0     C56575   1.773   9.481   4.371 -1.3144  0.4157  1.1650
  420MOL0     C56576   1.706   9.612   4.418 -0.6283 -0.4426  0.0790
  420MOL0     C56577   1.552   9.608   4.406 -0.2156  1.0832  0.8256
  420MOL0     C56578   1.501   9.761   4.415 -0.6575  0.4132  0.0107
  420MOL0     C56579   1.462   9.804   4.554  1.0948  0.3043 -0.0092
  420MOL0     C56580   1.381   9.934   4.557 -0.4672 -0.5316  0.2864
  420MOL0     C56581   1.381   9.999   4.696 -1.3610  0.2467 -0.8497
  420MOL0     N56582   1.323  10.129   4.700 -0.4394  0.3100  0.9085
  420MOL0     C56583   1.188  10.138   4.709 -1.1457  0.0197  0.5781
  420MOL0     C56584   1.171  10.271   4.712  0.6241 -0.4531  0.1380
  420MOL0     C56585   1.040  10.331   4.727  0.5030 -0.8885  0.4735
  420MOL0     C56586   1.034  10.397   4.866 -0.1467  0.6279 -0.1763
  420MOL0     C56587   0.916  10.487   4.874  0.6924  0.0953  0.1280
  420MOL0     C56588   0.766  10.432   4.883  0.2387 -0.7446  0.2426
  420MOL0     O56589   0.690  10.514   4.788  1.0395  0.1413  0.4443
  420MOL0     C56590   0.549  10.543   4.798 -0.4050  0.4541  0.7668
  420MOL0     C56591   0.456  10.502   4.900 -0.7055 -0.0060 -1.1035
  420MOL0     C56592   0.320  10.549   4.920 -1.6777  0.1203 -0.6325
  420MOL0     C56593   0.248  10.510   5.046 -1.0820  0.5192 -0.4111
  420MOL0     C56594   0.265  10.636   4.824 -0.4127  0.1241 -0.0158
  420MOL0     C56595   0.118  10.688   4.820 -0.0600 -0.4212 -0.1547
  420MOL0     O56596   0.095  10.802   4.753  0.4785 -0.3393  0.1450
  420MOL0     C56597  -0.026  10.866   4.791  0.0314 -0.4361  0.7459
  420MOL0     C56598  -0.057  10.904   4.923 -0.3138 -0.0157  0.3244
  420MOL0     C56599  -0.178  10.953   4.951  0.0273 -0.6255  0.2168
  420MOL0     C56600  -0.282  10.978   4.865  0.6947  0.8627  0.1729
  420MOL0     O56601  -0.400  11.045   4.899 -0.3643 -0.8849 -0.1540
  420MOL0     C56602  -0.475  10.989   5.015 -0.5118 -0.0171  0.5528
  420MOL0     C56603  -0.528  10.849   4.987  0.0638  0.1166  0.7813
  420MOL0     C56604  -0.610  10.791   5.099  0.0168 -0.1888 -0.5895
  420MOL0     C56605  -0.752  10.842   5.090  0.4419  0.9162 -0.4347
  420MOL0     C56606  -0.827  10.750   5.185  0.0520  0.0790 -0.1657
  420MOL0     C56607  -0.968  10.792   5.202  0.4167 -0.3943 -0.0700
  420MOL0     C56608  -1.042  10.716   5.314 -0.5563  0.2215 -0.2797
  420MOL0     C56609  -1.194  10.720   5.305  0.4171  0.3430  0.1887
  420MOL0    Cl56610  -1.259  10.654   5.453  0.1793 -0.0244 -0.1803
  420MOL0     C56611  -0.252  10.944   4.730  1.1251  0.0837 -0.1891
  420MOL0     C56612  -0.125  10.890   4.694 -0.3507 -0.1757  0.5654
  420MOL0     O56613   0.028  10.614   4.861  0.1693 -0.2570  0.6881
  420MOL0     C56614   0.348  10.668   4.711 -0.0066  0.5055 -0.0631
  420MOL0     C56615   0.485  10.621   4.694  0.0047 -0.4286 -0.3544
  420MOL0     N56616   1.291  10.345   4.706 -0.1198  0.5782  0.4096
  420MOL0     N56617   1.379  10.244   4.706 -0.7952 -0.7689 -0.6017
  420MOL0     C56618   2.174   9.398   4.592 -0.2971 -0.2387  0.0780
  420MOL0     C56619   2.313   9.364   4.599  0.2045  1.1834  0.3264
  420MOL0     C56620   2.746   9.273   4.434  1.2393  0.0997  0.1625
  420MOL0     C56621   2.809   9.297   4.560 -0.3709 -0.5478 -0.4036
  420MOL0     C56622   2.937   9.244   4.591 -0.5538  0.3818  0.1657
  420MOL0     C56623   3.008   9.180   4.499  0.5779 -0.0411 -0.2447
  420MOL0     O56624   3.134   9.149   4.541 -0.2427 -0.3821 -0.6579
  420MOL0     C56625   3.225   9.090   4.446  0.2591 -0.3109  0.3142
  420MOL0     C56626   3.355   9.078   4.520 -0.1891 -0.2511 -0.2379
  420MOL0     C56627   3.478   9.089   4.431 -0.6374  0.6710  0.3703
  420MOL0     C56628   3.586   9.183   4.480 -0.9119  0.5154  0.4127
  420MOL0     C56629   3.637   9.114   4.603 -0.4513  0.6535  0.0144
  420MOL0     C56630   3.668   9.071   4.712  0.3102  0.8660 -0.0656
  420MOL0     C56631   2.962   9.180   4.363  0.6065 -0.2121 -0.9438
  420MOL0     C56632   2.834   9.231   4.334 -0.4956 -0.0404  0.1202
  420MOL0     H56633   2.393   9.482   4.289 -3.4129  0.1886 -1.6302
  420MOL0     H56634   2.165   9.520   4.272  0.0669  1.4421  0.8683
  420MOL0     H56635   1.933   9.579   4.272  0.8480  0.1596  0.7661
  420MOL0     H56636   1.966   9.412   4.297  0.4247  0.3843 -1.3246
  420MOL0     H56637   1.734   9.452   4.273  2.8816 -1.0779 -0.2798
  420MOL0     H56638   1.756   9.396   4.438 -0.5702  0.6659  1.6852
  420MOL0     H56639   1.723   9.623   4.526  0.4493  0.1328 -0.1425
  420MOL0     H56640   1.755   9.695   4.368 -1.8262  0.3557  0.2082
  420MOL0     H56641   1.528   9.578   4.303 -2.1591  0.1086  1.5236
  420MOL0     H56642   1.499   9.546   4.478 -0.9619 -1.1300 -1.4681
  420MOL0     H56643   1.579   9.825   4.372  0.0407  1.3145  2.4103
  420MOL0     H56644   1.421   9.765   4.341 -2.0926  0.9089  1.5131
  420MOL0     H56645   1.410   9.715   4.591  0.1899  0.5980 -0.5270
  420MOL0     H56646   1.559   9.819   4.602  0.8702  0.7612  0.3135
  420MOL0     H56647   1.426  10.002   4.484  0.0584 -1.2387 -0.0625
  420MOL0     H56648   1.286   9.904   4.512 -1.0024 -0.0309  1.0517
  420MOL0     H56649   1.483  10.006   4.735 -1.9214  0.6155  0.6246
  420MOL0     H56650   1.325   9.940   4.768 -0.3639  0.6998  0.3324
  420MOL0     H56651   1.119  10.055   4.719 -0.3068 -0.9287 -1.0773
  420MOL0     H56652   1.021  10.401   4.645  1.2117  0.5284  1.4783
  420MOL0     H56653   0.966  10.252   4.711 -1.7757  1.5417 -2.1359
  420MOL0     H56654   1.120  10.462   4.849 -0.8086  1.1335 -1.7506
  420MOL0     H56655   1.046  10.329   4.951 -2.8190  1.8312  1.2765
  420MOL0     H56656   0.910  10.566   4.799 -0.8441 -0.6906 -0.6274
  420MOL0     H56657   0.930  10.546   4.965  0.1227  0.4486 -0.0045
  420MOL0     H56658   0.729  10.447   4.985 -1.2360 -0.9375 -0.2334
  420MOL0     H56659   0.751  10.326   4.859 -0.0752 -0.5722 -0.3423
  420MOL0     H56660   0.491  10.439   4.982  0.8969  1.1493 -0.8552
  420MOL0     H56661   0.180  10.591   5.074 -2.6063 -0.5950 -0.7415
  420MOL0     H56662   0.194  10.416   5.032 -0.8684  0.3539 -0.1104
  420MOL0     H56663   0.317  10.486   5.127 -2.3542 -0.1308  0.5170
  420MOL0     H56664   0.020  10.882   4.996  0.5988 -2.4651 -1.2573
  420MOL0     H56665  -0.191  10.973   5.057 -0.0321 -1.8442  0.4510
  420MOL0     H56666  -0.409  10.997   5.102 -1.9957  2.6555  1.5535
  420MOL0     H56667  -0.563  11.052   5.033 -0.0390  1.1031 -0.8716
  420MOL0     H56668  -0.586  10.861   4.894  1.0517 -0.9366  0.0102
  420MOL0     H56669  -0.447  10.780   4.962 -0.6290 -2.1594  4.2562
  420MOL0     H56670  -0.556  10.822   5.188  2.3558  0.2761 -2.0812
  420MOL0     H56671  -0.610  10.682   5.092 -1.1797 -0.1653 -1.4773
  420MOL0     H56672  -0.766  10.947   5.116 -0.8290  1.3044 -2.4832
  420MOL0     H56673  -0.803  10.819   4.997 -4.4260  3.1638  1.3446
  420MOL0     H56674  -0.775  10.743   5.281  0.4101 -3.4884 -0.4619
  420MOL0     H56675  -0.822  10.653   5.133  0.2651 -0.5909  1.0792
  420MOL0     H56676  -0.962  10.897   5.232  2.4446 -1.0052  2.0029
  420MOL0     H56677  -1.026  10.793   5.110  1.6663  1.3922 -0.9015
  420MOL0     H56678  -0.999  10.756   5.407  1.1879 -0.0004 -0.9482
  420MOL0     H56679  -1.016  10.610   5.312  0.7988  0.5498 -1.0870
  420MOL0     H56680  -1.242  10.674   5.218 -0.0820  0.0635  0.6065
  420MOL0     H56681  -1.233  10.822   5.299  3.3372  1.4721 -1.8049
  420MOL0     H56682  -0.320  10.966   4.649  1.9602 -0.5878 -1.0935
  420MOL0     H56683  -0.100  10.867   4.591 -1.9931 -2.0528  0.5321
  420MOL0     H56684   0.321  10.746   4.641  2.3968  1.3062 -0.1769
  420MOL0     H56685   0.543  10.676   4.621 -0.7737  3.3871  1.6145
  420MOL0     H56686   2.113   9.387   4.681 -1.1686  0.2771 -0.4395
  420MOL0     H56687   2.363   9.327   4.688  1.3416  0.3030 -0.6452
  420MOL0     H56688   2.745   9.341   4.636  3.0979  1.1492  1.7899
  420MOL0     H56689   2.977   9.265   4.690  3.6078  0.2483 -1.3119
  420MOL0     H56690   3.189   8.988   4.431  1.0476 -0.3847 -1.1917
  420MOL0     H56691   3.225   9.152   4.356  2.1023 -1.3547 -0.4499
  420MOL0     H56692   3.359   8.992   4.587 -0.6080 -1.0010 -1.1502
  420MOL0     H56693   3.360   9.157   4.595 -1.7423 -1.1132  0.8235
  420MOL0     H56694   3.450   9.134   4.335  1.0237 -0.0073 -0.4763
  420MOL0     H56695   3.521   8.991   4.408 -2.9031 -0.2374 -0.2648
  420MOL0     H56696   3.558   9.284   4.511 -0.7211  0.7312 -0.1196
  420MOL0     H56697   3.660   9.176   4.401 -0.7422 -2.0841  0.7207
  420MOL0     H56698   3.692   9.017   4.801  0.7942 -0.3553 -0.9077
  420MOL0     H56699   3.030   9.148   4.285  1.7382 -1.1551  0.3802
  420MOL0     H56700   2.794   9.227   4.233  1.1153  4.2612 -0.9327
  421MOL0     O56701   5.219   8.736   6.925 -0.4388 -0.0238  0.0869
  421MOL0     C56702   5.336   8.690   6.910  0.4780 -0.2514 -0.2814
  421MOL0     O56703   5.363   8.561   6.880 -0.0045  0.6312 -0.0779
  421MOL0     C56704   5.259   8.470   6.861  0.2408  0.4123  1.2131
  421MOL0     C56705   5.136   8.501   6.792 -0.4317 -0.1727 -0.0860
  421MOL0     C56706   5.030   8.407   6.783 -0.6591  0.9197  0.4870
  421MOL0     C56707   5.058   8.280   6.827  0.1836  0.2464  0.1508
  421MOL0     O56708   4.977   8.172   6.806 -0.3995  0.3171 -0.0601
  421MOL0     C56709   4.888   8.169   6.703  0.3605 -0.5225 -0.1654
  421MOL0     C56710   4.889   8.027   6.660 -0.1597  1.1527  0.4991
  421MOL0     C56711   4.788   7.998   6.537  0.4767  0.1708 -0.1075
  421MOL0     C56712   4.641   8.043   6.575  0.0218  0.8345  0.3587
  421MOL0     C56713   4.537   7.944   6.528  0.0325 -0.1123  0.2099
  421MOL0     C56714   4.396   8.004   6.535 -1.0624 -0.6194  0.5965
  421MOL0     C56715   4.284   7.900   6.550 -0.3348 -0.1757  1.1117
  421MOL0     C56716   4.218   7.865   6.416  0.1057 -0.7945  0.8000
  421MOL0     N56717   4.117   7.765   6.434  0.5615  0.7558  0.5374
  421MOL0     C56718   3.996   7.781   6.496 -0.2554 -0.5035  0.0347
  421MOL0     C56719   3.940   7.657   6.481 -0.0583  0.0497  0.6030
  421MOL0     C56720   3.804   7.637   6.542 -0.1520 -0.3810  0.0739
  421MOL0     C56721   3.805   7.529   6.649  0.5589  0.0951  0.5869
  421MOL0     C56722   3.676   7.534   6.735  0.3683 -0.5851  0.2337
  421MOL0     C56723   3.542   7.488   6.666  0.0848 -0.3152  0.0959
  421MOL0     O56724   3.492   7.605   6.592  0.2770 -0.1628 -0.0968
  421MOL0     C56725   3.357   7.602   6.570  0.2683 -0.2691  0.6063
  421MOL0     C56726   3.263   7.568   6.676  0.1942  0.3811  0.1379
  421MOL0     C56727   3.131   7.585   6.651 -0.0944  0.9805 -0.4357
  421MOL0     C56728   3.040   7.546   6.764  0.9115  0.1141  0.1158
  421MOL0     C56729   3.073   7.644   6.541  0.1264 -0.4906  0.2811
  421MOL0     C56730   2.923   7.661   6.512 -0.1877  0.9698 -0.1740
  421MOL0     O56731   2.851   7.716   6.615  0.6619  0.2293 -0.3861
  421MOL0     C56732   2.736   7.783   6.576 -0.1831  0.0145 -0.1517
  421MOL0     C56733   2.716   7.914   6.610  0.1650  0.2598  0.1524
  421MOL0     C56734   2.588   7.972   6.597 -0.3072  0.3757 -0.7646
  421MOL0     C56735   2.488   7.906   6.528  0.1107 -0.0422  0.3152
  421MOL0     O56736   2.374   7.979   6.507  0.5162 -0.6514 -0.3714
  421MOL0     C56737   2.247   7.911   6.532 -0.1237 -0.7557  0.1724
  421MOL0     C56738   2.136   8.014   6.505  0.0806  0.0301  0.3962
  421MOL0     C56739   2.001   7.972   6.570  0.5845 -0.4176 -0.4925
  421MOL0     C56740   1.996   7.992   6.720  0.0331 -0.3972  0.7648
  421MOL0     C56741   1.861   7.992   6.791  0.2065  0.5403  0.8239
  421MOL0     C56742   1.774   8.121   6.786 -0.0978  0.1177  0.0816
  421MOL0     C56743   1.636   8.087   6.840  0.6082 -0.2156  0.7688
  421MOL0     C56744   1.540   8.213   6.817  0.0802  0.0274  0.2229
  421MOL0    Cl56745   1.368   8.171   6.818  0.1982  0.2534 -0.1450
  421MOL0     C56746   2.513   7.771   6.486 -0.1421  0.8392  0.8838
  421MOL0     C56747   2.631   7.708   6.508 -0.2906  0.1392  0.9754
  421MOL0     O56748   2.882   7.641   6.393 -0.6336  0.5882 -0.3513
  421MOL0     C56749   3.162   7.676   6.440 -0.1699  0.6546 -0.4299
  421MOL0     C56750   3.299   7.657   6.456 -0.1953  0.7750  0.3611
  421MOL0     N56751   4.004   7.587   6.386  0.1946  0.7381  1.2790
  421MOL0     N56752   4.105   7.644   6.356  0.7021  0.0771 -1.1105
  421MOL0     C56753   5.179   8.243   6.887  0.5339 -0.0603 -0.5782
  421MOL0     C56754   5.274   8.340   6.903 -0.5790 -0.4119 -0.2056
  421MOL0     C56755   5.446   8.785   6.936 -0.0851 -0.3519 -0.5991
  421MOL0     C56756   5.583   8.744   6.924  0.0063  0.2533 -1.0002
  421MOL0     C56757   5.684   8.832   6.951  0.7678  0.4789  0.5076
  421MOL0     C56758   5.658   8.973   6.967  0.0020 -0.9994  0.1590
  421MOL0     O56759   5.772   9.047   6.988 -0.7095  0.6023 -0.1905
  421MOL0     C56760   5.763   9.194   6.994  0.3421 -0.1219 -0.2226
  421MOL0     C56761   5.747   9.241   6.842 -0.9761  0.0984  0.1304
  421MOL0     C56762   5.723   9.390   6.833  1.0525 -0.1454 -0.5121
  421MOL0     C56763   5.707   9.432   6.694  0.0907  0.0314 -0.9526
  421MOL0     C56764   5.834   9.440   6.622  0.1697  0.2978  0.5985
  421MOL0     C56765   5.935   9.453   6.557 -0.0815  0.1857 -0.5204
  421MOL0     C56766   5.525   9.019   6.959 -1.3250 -0.0048 -0.1004
  421MOL0     C56767   5.425   8.922   6.969  0.8669  0.6315  0.3019
  421MOL0     H56768   5.113   8.596   6.746 -1.6014 -0.5771 -0.3802
  421MOL0     H56769   4.935   8.426   6.734  0.7646  0.5547 -2.6690
  421MOL0     H56770   4.790   8.200   6.739  0.9546  0.8363  0.3647
  421MOL0     H56771   4.906   8.238   6.620  1.3264  0.8902  1.1647
  421MOL0     H56772   4.991   8.008   6.627  0.1282  3.2619  0.0388
  421MOL0     H56773   4.885   7.954   6.742  3.4744  0.1079 -0.0831
  421MOL0     H56774   4.816   8.057   6.450 -1.5879  1.2675 -0.0970
  421MOL0     H56775   4.783   7.891   6.515  0.8905  0.4546 -1.7165
  421MOL0     H56776   4.624   8.065   6.681 -3.3344  1.7448 -0.2638
  421MOL0     H56777   4.636   8.137   6.521 -1.4577  0.9069  0.5980
  421MOL0     H56778   4.556   7.930   6.421 -0.4494 -0.1421  0.1280
  421MOL0     H56779   4.543   7.849   6.582  0.0551 -0.8742 -1.0899
  421MOL0     H56780   4.386   8.063   6.626 -1.3418 -1.5286  1.1683
  421MOL0     H56781   4.386   8.076   6.453  4.1042 -0.5759 -0.3360
  421MOL0     H56782   4.334   7.817   6.600 -1.9514 -1.6281  0.3894
  421MOL0     H56783   4.195   7.940   6.600 -1.8966 -1.2596 -0.6500
  421MOL0     H56784   4.290   7.831   6.341 -0.0917  0.6034 -0.0652
  421MOL0     H56785   4.166   7.951   6.373 -1.9852 -2.5965 -0.4840
  421MOL0     H56786   3.961   7.860   6.562 -0.9715 -1.4735  0.8445
  421MOL0     H56787   3.784   7.732   6.591  1.8589  0.3780 -0.4972
  421MOL0     H56788   3.726   7.620   6.467  0.1821  2.4287 -1.0288
  421MOL0     H56789   3.897   7.536   6.707  0.3323  0.8932  0.8673
  421MOL0     H56790   3.803   7.436   6.591 -0.0458  0.0314  0.6992
  421MOL0     H56791   3.673   7.635   6.778  1.9070  0.5118 -1.9804
  421MOL0     H56792   3.692   7.467   6.820  0.5802 -0.6107  0.1749
  421MOL0     H56793   3.471   7.462   6.745  1.1901  0.6277  1.4505
  421MOL0     H56794   3.548   7.397   6.604  0.8081  0.0850 -0.4366
  421MOL0     H56795   3.292   7.529   6.773 -0.2411 -1.3402 -0.3954
  421MOL0     H56796   3.015   7.630   6.829  0.7808 -0.6412  1.0704
  421MOL0     H56797   2.947   7.501   6.729  2.3671 -1.7716 -1.5989
  421MOL0     H56798   3.091   7.474   6.829 -0.3957 -2.2170 -1.2990
  421MOL0     H56799   2.803   7.964   6.651 -0.5385  0.5178  1.4157
  421MOL0     H56800   2.568   8.072   6.634 -0.6290  0.1974 -0.4559
  421MOL0     H56801   2.217   7.829   6.466  0.3953 -1.6535  1.0241
  421MOL0     H56802   2.240   7.864   6.631 -1.0751 -1.6638 -0.3078
  421MOL0     H56803   2.173   8.106   6.552  1.2088 -1.2865  2.2076
  421MOL0     H56804   2.118   8.023   6.398 -0.0816 -0.3042  0.3968
  421MOL0     H56805   1.980   7.866   6.548 -2.4200 -0.3618  1.5966
  421MOL0     H56806   1.920   8.035   6.532  3.2468  3.0053 -0.9325
  421MOL0     H56807   2.061   7.910   6.753  0.7547 -0.2001 -0.1060
  421MOL0     H56808   2.048   8.081   6.755  0.0847 -0.3269  0.5149
  421MOL0     H56809   1.878   7.971   6.897 -0.9586  1.0548  1.1277
  421MOL0     H56810   1.798   7.907   6.760 -2.2782  1.3522  3.2783
  421MOL0     H56811   1.823   8.205   6.835 -1.9459  2.5789 -2.0149
  421MOL0     H56812   1.757   8.157   6.684 -0.0238 -0.4178 -0.1216
  421MOL0     H56813   1.633   8.060   6.946  0.2590  0.2863  0.8915
  421MOL0     H56814   1.595   8.009   6.776 -1.5877  0.4816  1.2179
  421MOL0     H56815   1.564   8.274   6.729  1.8915 -0.4573  0.3475
  421MOL0     H56816   1.558   8.273   6.907  0.2124  0.9360 -0.3947
  421MOL0     H56817   2.435   7.724   6.427  1.9195 -0.1233 -1.2850
  421MOL0     H56818   2.640   7.603   6.485 -0.2752  0.0850  1.2248
  421MOL0     H56819   3.119   7.715   6.348  2.4971 -2.2237 -3.1440
  421MOL0     H56820   3.362   7.707   6.384 -1.6574  3.9768  1.1403
  421MOL0     H56821   5.200   8.140   6.918  0.0007 -0.0338 -0.1102
  421MOL0     H56822   5.372   8.321   6.945  1.1327  3.4896 -1.9101
  421MOL0     H56823   5.612   8.641   6.905 -1.6051 -0.0523 -2.0752
  421MOL0     H56824   5.786   8.795   6.951 -0.3249 -2.8983 -0.5081
  421MOL0     H56825   5.678   9.211   7.061  2.2538 -0.5821  2.4684
  421MOL0     H56826   5.851   9.235   7.043  0.1192  0.7323 -0.5201
  421MOL0     H56827   5.661   9.185   6.805 -0.6759 -1.6647  1.9336
  421MOL0     H56828   5.838   9.219   6.785 -0.0923 -1.9382  2.1914
  421MOL0     H56829   5.795   9.446   6.894 -1.8364  2.6458  0.5760
  421MOL0     H56830   5.624   9.407   6.876  1.2778 -1.1376  0.4503
  421MOL0     H56831   5.646   9.522   6.691 -1.4134 -0.9665 -1.5158
  421MOL0     H56832   5.646   9.357   6.643 -1.1654 -0.3911  1.0475
  421MOL0     H56833   6.013   9.479   6.489  1.8946 -1.3465  1.0402
  421MOL0     H56834   5.499   9.125   6.965  2.7908  1.1013  1.7170
  421MOL0     H56835   5.322   8.953   6.984 -0.5377 -2.6743 -1.4620
  422MOL0     O56836  10.607   8.319  10.949 -0.0549  0.1722 -0.0250
  422MOL0     C56837  10.535   8.396  11.009 -0.1298  0.2315  0.5649
  422MOL0     O56838  10.430   8.357  11.089  0.5028 -0.2650  0.0057
  422MOL0     C56839  10.392   8.221  11.096  1.3344  1.4993 -0.8482
  422MOL0     C56840  10.463   8.105  11.071 -0.3300 -0.6843 -0.1815
  422MOL0     C56841  10.404   7.981  11.072 -0.0454  0.5491  1.0722
  422MOL0     C56842  10.272   7.953  11.104  0.0903  0.2384  0.2327
  422MOL0     O56843  10.224   7.822  11.116  0.7629  0.3995 -0.3623
  422MOL0     C56844  10.094   7.801  11.053 -0.4679  0.2048  0.9294
  422MOL0     C56845  10.024   7.675  11.113  0.2546 -0.8372  1.0338
  422MOL0     C56846  10.105   7.543  11.091  0.3923  0.9237 -0.0128
  422MOL0     C56847  10.028   7.404  11.138 -0.3267 -0.7085 -0.3252
  422MOL0     C56848  10.002   7.422  11.293  0.2769  0.6717  0.6030
  422MOL0     C56849  10.138   7.439  11.367 -0.9617 -0.5120 -0.9900
  422MOL0     C56850  10.120   7.437  11.523 -1.4708 -0.1821 -0.0396
  422MOL0     C56851  10.097   7.563  11.605  0.6859 -0.4467 -0.8916
  422MOL0     N56852   9.965   7.634  11.586 -1.5506 -0.1312  0.8420
  422MOL0     C56853   9.844   7.578  11.559 -0.2571  0.8571 -0.3208
  422MOL0     C56854   9.754   7.680  11.566 -0.0966 -0.1715 -0.1992
  422MOL0     C56855   9.609   7.667  11.544  0.2645  0.4592  0.5593
  422MOL0     C56856   9.588   7.574  11.417 -0.2518  0.3848  0.5248
  422MOL0     C56857   9.640   7.627  11.285  0.5419 -0.1478  0.2067
  422MOL0     C56858   9.609   7.535  11.161 -0.1126 -0.7444 -0.0351
  422MOL0     O56859   9.661   7.601  11.052  1.2160  0.0878 -0.0346
  422MOL0     C56860   9.565   7.659  10.971 -0.6749  0.1136 -0.0363
  422MOL0     C56861   9.603   7.770  10.903 -0.3744 -0.3382 -0.6515
  422MOL0     C56862   9.516   7.837  10.809  0.1693  1.3822 -0.2661
  422MOL0     C56863   9.563   7.963  10.731  0.4931  0.7080  0.2253
  422MOL0     C56864   9.400   7.766  10.771 -0.2389 -0.1573 -0.3577
  422MOL0     C56865   9.328   7.794  10.646 -0.4900 -0.5879  0.3653
  422MOL0     O56866   9.400   7.796  10.535  0.1840  0.4488 -0.0853
  422MOL0     C56867   9.340   7.749  10.419  0.8681 -0.7361 -0.4026
  422MOL0     C56868   9.288   7.618  10.412  0.4020  0.0698  0.0630
  422MOL0     C56869   9.230   7.572  10.291  0.0346 -0.0264 -0.0515
  422MOL0     C56870   9.239   7.647  10.174 -0.6303  0.2577  0.0197
  422MOL0     O56871   9.191   7.577  10.071 -0.2373  0.6679  0.2591
  422MOL0     C56872   9.198   7.628   9.934 -0.0828 -0.2677  0.8306
  422MOL0     C56873   9.124   7.526   9.857 -0.3390  0.1250 -0.1583
  422MOL0     C56874   9.192   7.407   9.805 -0.5201  0.6265  0.2897
  422MOL0     C56875   9.106   7.321   9.706  0.3728  0.2663 -0.1904
  422MOL0     C56876   9.029   7.221   9.793 -0.1303  0.1369  0.4036
  422MOL0     C56877   9.096   7.086   9.783  0.7998 -1.4666 -0.5182
  422MOL0     C56878   9.045   6.982   9.883  0.4173 -0.2576  0.1205
  422MOL0     C56879   9.150   6.961   9.991 -0.4622  0.4781  1.0556
  422MOL0    Cl56880   9.291   6.856   9.907 -0.0738  0.1095 -0.0991
  422MOL0     C56881   9.294   7.783  10.175  0.6913  0.7453 -0.5411
  422MOL0     C56882   9.331   7.835  10.307 -0.1123  0.4143  0.5310
  422MOL0     O56883   9.206   7.786  10.656 -0.2015  0.2971  0.3084
  422MOL0     C56884   9.358   7.650  10.839 -0.0483 -0.0200 -1.0260
  422MOL0     C56885   9.438   7.603  10.947  0.8215  0.2458 -0.3631
  422MOL0     N56886   9.822   7.789  11.606 -0.9813  0.0017 -0.3104
  422MOL0     N56887   9.948   7.763  11.625  0.0899 -0.5353  0.2684
  422MOL0     C56888  10.202   8.066  11.143  0.3593 -0.0994  0.9034
  422MOL0     C56889  10.255   8.198  11.136 -1.2705  0.1966  0.1585
  422MOL0     C56890  10.582   8.535  11.028 -0.1618  0.0627  0.1876
  422MOL0     C56891  10.691   8.588  10.955 -0.5253  0.5054  0.2455
  422MOL0     C56892  10.725   8.722  10.974  0.3170  0.3309  0.0496
  422MOL0     C56893  10.660   8.790  11.069  0.4335 -0.7189 -0.1990
  422MOL0     O56894  10.727   8.909  11.087  0.3588 -0.0010 -1.0717
  422MOL0     C56895  10.634   9.017  11.096 -1.5450  0.4273  0.2680
  422MOL0     C56896  10.677   9.136  11.017  0.8034  0.3371 -0.1805
  422MOL0     C56897  10.691   9.102  10.870  0.4494 -0.2171  0.0461
  422MOL0     C56898  10.737   9.213  10.777  0.1822  0.2702  1.0178
  422MOL0     C56899  10.757   9.159  10.637  0.4369 -0.0432  0.1020
  422MOL0     C56900  10.772   9.129  10.516 -0.0659 -0.3029 -0.0308
  422MOL0     C56901  10.550   8.744  11.140 -0.3909 -0.1980 -0.1348
  422MOL0     C56902  10.508   8.611  11.123  0.4707 -1.0084 -0.1098
  422MOL0     H56903  10.570   8.115  11.052 -0.3061 -0.0374  0.2507
  422MOL0     H56904  10.464   7.891  11.062 -1.4843 -0.4709  1.2713
  422MOL0     H56905  10.027   7.886  11.042  2.5068  2.4427 -1.9382
  422MOL0     H56906  10.111   7.771  10.950  0.6945  0.0352  1.1538
  422MOL0     H56907  10.010   7.692  11.220  0.3737 -0.9632  1.0702
  422MOL0     H56908   9.926   7.665  11.066 -0.0363  1.2102  1.1428
  422MOL0     H56909  10.126   7.538  10.984  1.2540  1.1013  0.1418
  422MOL0     H56910  10.201   7.552  11.143  0.1704  0.4852  0.4806
  422MOL0     H56911   9.937   7.373  11.084 -1.0013 -0.9865  0.9251
  422MOL0     H56912  10.102   7.325  11.124 -0.7295 -0.9125 -1.4136
  422MOL0     H56913   9.935   7.507  11.312  0.2287  1.4453 -2.5831
  422MOL0     H56914   9.942   7.334  11.319 -1.6241 -0.4104 -5.8045
  422MOL0     H56915  10.201   7.353  11.340 -1.7539 -0.9104 -1.6241
  422MOL0     H56916  10.187   7.533  11.338  0.4709 -0.4581  1.3589
  422MOL0     H56917  10.050   7.354  11.534  1.9118 -3.0542  2.1815
  422MOL0     H56918  10.215   7.393  11.556 -1.9261 -2.8639 -1.9859
  422MOL0     H56919  10.177   7.636  11.591  0.9815  0.1944  3.0315
  422MOL0     H56920  10.092   7.527  11.708 -0.1158 -2.7548 -1.6618
  422MOL0     H56921   9.834   7.475  11.526 -0.6862  0.6445  0.4589
  422MOL0     H56922   9.556   7.627  11.631  0.9265 -0.9121  0.3544
  422MOL0     H56923   9.569   7.768  11.526 -1.0664  0.3201  2.4801
  422MOL0     H56924   9.486   7.535  11.409 -0.5889  1.0596  1.3225
  422MOL0     H56925   9.654   7.489  11.439 -0.8663  0.0817  1.2523
  422MOL0     H56926   9.746   7.652  11.281  0.4801  0.0560 -0.2342
  422MOL0     H56927   9.592   7.724  11.273 -0.0620 -0.5158 -0.4738
  422MOL0     H56928   9.500   7.524  11.172  0.0346 -0.7412  1.6292
  422MOL0     H56929   9.649   7.433  11.159  2.1576  0.0922 -1.9663
  422MOL0     H56930   9.704   7.807  10.923 -0.2579 -1.6953  1.6080
  422MOL0     H56931   9.672   7.962  10.742  0.7898  0.8344 -2.2060
  422MOL0     H56932   9.543   7.965  10.624 -3.5582 -3.2344  0.5603
  422MOL0     H56933   9.509   8.049  10.772 -2.7456 -1.0734  0.0928
  422MOL0     H56934   9.296   7.566  10.507  0.3467  0.9510  0.5549
  422MOL0     H56935   9.182   7.475  10.303  1.5119 -0.8696 -0.5499
  422MOL0     H56936   9.149   7.726   9.935  1.0355  0.3020  0.9244
  422MOL0     H56937   9.300   7.638   9.895 -1.1239 -0.9349 -2.3655
  422MOL0     H56938   9.039   7.495   9.919  1.0533  1.0282  2.2966
  422MOL0     H56939   9.071   7.582   9.778 -0.3420  1.1653  0.5635
  422MOL0     H56940   9.212   7.350   9.896 -2.3574  1.5433  1.3263
  422MOL0     H56941   9.287   7.438   9.760 -0.3417 -0.1496  0.1289
  422MOL0     H56942   9.048   7.388   9.641 -0.3194  1.1964  1.3468
  422MOL0     H56943   9.170   7.260   9.640 -1.7951 -1.3409 -0.9336
  422MOL0     H56944   8.933   7.216   9.742  0.1817  2.1400 -0.4887
  422MOL0     H56945   9.015   7.264   9.893  0.1267 -0.7237  0.8133
  422MOL0     H56946   9.084   7.049   9.681 -0.8016  1.2081 -1.3812
  422MOL0     H56947   9.202   7.107   9.802  0.9647 -1.3030 -1.5510
  422MOL0     H56948   9.000   6.888   9.850 -0.4691  0.3085 -0.3381
  422MOL0     H56949   8.966   7.037   9.934  0.8724 -0.0140  0.5775
  422MOL0     H56950   9.116   6.895  10.071 -0.4300  1.0307  1.5287
  422MOL0     H56951   9.193   7.052  10.033  0.2535  0.8484 -0.3943
  422MOL0     H56952   9.301   7.846  10.087 -0.8964  0.3960 -0.9368
  422MOL0     H56953   9.370   7.935  10.321  0.7860  0.0216  0.9746
  422MOL0     H56954   9.265   7.598  10.822 -0.9724 -0.1305  3.1800
  422MOL0     H56955   9.391   7.521  11.000  0.9204  2.1811  2.9569
  422MOL0     H56956  10.105   8.058  11.190  0.1457  3.8306  1.3968
  422MOL0     H56957  10.193   8.285  11.157  1.2815  2.6605 -1.6867
  422MOL0     H56958  10.747   8.537  10.877 -0.6695  1.7693 -0.7102
  422MOL0     H56959  10.806   8.765  10.916  1.3219 -2.7682 -1.0764
  422MOL0     H56960  10.541   8.992  11.045  0.5291 -1.0930 -3.1068
  422MOL0     H56961  10.606   9.029  11.201 -0.6519 -2.6044  0.9435
  422MOL0     H56962  10.772   9.173  11.055  0.6363 -0.5669  1.1957
  422MOL0     H56963  10.603   9.215  11.032  0.3019 -0.1120 -0.2356
  422MOL0     H56964  10.598   9.053  10.839 -0.2669  1.3238 -0.3085
  422MOL0     H56965  10.760   9.017  10.866  1.7206  0.5556  2.9637
  422MOL0     H56966  10.829   9.252  10.822  0.3894 -1.4926  2.2501
  422MOL0     H56967  10.660   9.290  10.779  0.6671  1.0254 -2.5015
  422MOL0     H56968  10.792   9.102  10.414 -0.7272 -2.8417  0.4419
  422MOL0     H56969  10.499   8.815  11.205  1.0752 -0.2009  1.0746
  422MOL0     H56970  10.415   8.587  11.173  1.0609 -1.0502  1.0046
  423MOL0     O56971   0.535   0.056   2.316  0.4770 -0.4796  0.4496
  423MOL0     C56972   0.528   0.077   2.435 -0.0725 -0.6465  0.2796
  423MOL0     O56973   0.633   0.091   2.515  0.0646  0.3298  0.0738
  423MOL0     C56974   0.751   0.110   2.455 -0.0964  0.2398 -0.4136
  423MOL0     C56975   0.777   0.235   2.398 -0.1049  0.2472 -0.4494
  423MOL0     C56976   0.907   0.246   2.348  0.7832 -0.0835  0.5417
  423MOL0     C56977   1.002   0.143   2.344  0.3046  1.0154  0.1585
  423MOL0     O56978   1.122   0.158   2.283 -0.0730 -0.7460  0.2348
  423MOL0     C56979   1.148   0.224   2.165  0.5465  0.1802  0.6614
  423MOL0     C56980   1.085   0.150   2.037  0.2139 -0.0426  0.3755
  423MOL0     C56981   1.151   0.205   1.916 -0.6091 -0.8926  0.5885
  423MOL0     C56982   1.160   0.363   1.906 -1.0913 -0.5949  0.2009
  423MOL0     C56983   1.025   0.435   1.907 -0.4329  0.4471  0.2356
  423MOL0     C56984   0.939   0.377   1.794  0.7792  0.3509 -0.3802
  423MOL0     C56985   0.834   0.477   1.746  0.3086 -0.6671 -0.5003
  423MOL0     C56986   0.738   0.436   1.631  0.2434 -0.8645 -1.0724
  423MOL0     N56987   0.813   0.396   1.509  0.2083  0.5787 -0.4328
  423MOL0     C56988   0.854   0.273   1.492 -0.2103 -0.0785 -0.6589
  423MOL0     C56989   0.897   0.257   1.373  0.8668 -0.3482  0.0011
  423MOL0     C56990   0.962   0.137   1.324 -0.3104 -0.0735  0.7983
  423MOL0     C56991   0.865   0.056   1.233 -0.6984  0.9415  0.2295
  423MOL0     C56992   0.823  -0.067   1.314  0.4487  0.1697 -0.0606
  423MOL0     C56993   0.728  -0.159   1.240  0.4457 -0.3216 -0.2786
  423MOL0     O56994   0.775  -0.202   1.118 -1.0351 -0.1312  1.1086
  423MOL0     C56995   0.883  -0.293   1.111  1.0908  0.0425 -0.1935
  423MOL0     C56996   0.958  -0.295   0.995  0.1294 -0.2504 -0.3348
  423MOL0     C56997   1.071  -0.377   0.977 -0.1991 -0.4953  0.7929
  423MOL0     C56998   1.160  -0.355   0.856 -0.3831 -1.5058 -0.2584
  423MOL0     C56999   1.102  -0.473   1.082 -0.2685 -0.4282  0.6541
  423MOL0     C57000   1.210  -0.577   1.064 -0.4092  0.4245 -0.1155
  423MOL0     O57001   1.219  -0.665   0.956 -0.3038 -0.2241 -0.0098
  423MOL0     C57002   1.281  -0.784   0.993  0.2562  0.2439 -1.0056
  423MOL0     C57003   1.214  -0.863   1.086 -0.8339  0.6053  0.0914
  423MOL0     C57004   1.282  -0.977   1.142  0.5275 -1.0199 -1.2617
  423MOL0     C57005   1.412  -1.012   1.094  1.0155 -0.8127  0.1881
  423MOL0     O57006   1.470  -1.133   1.136 -0.3124  0.0834 -0.2877
  423MOL0     C57007   1.613  -1.158   1.146  0.7357 -0.6193 -0.6883
  423MOL0     C57008   1.642  -1.254   1.257  0.2807  0.5849 -0.2530
  423MOL0     C57009   1.580  -1.388   1.211  0.1950 -0.0807 -0.6502
  423MOL0     C57010   1.588  -1.493   1.323 -0.7109  0.2234  0.3070
  423MOL0     C57011   1.478  -1.464   1.428 -0.0402  0.1086 -0.8998
  423MOL0     C57012   1.327  -1.477   1.386 -1.7602 -0.5310 -1.1372
  423MOL0     C57013   1.321  -1.598   1.296  0.3822  0.1445 -0.0314
  423MOL0     C57014   1.186  -1.672   1.327  0.0127  0.4549 -0.2677
  423MOL0    Cl57015   1.148  -1.781   1.195 -0.2752 -0.1172  0.1516
  423MOL0     C57016   1.478  -0.921   1.015  0.0628 -0.7278 -0.0272
  423MOL0     C57017   1.417  -0.804   0.967  0.1863  1.0892  1.3172
  423MOL0     O57018   1.286  -0.570   1.164  0.3579 -0.9052  0.4353
  423MOL0     C57019   1.021  -0.484   1.196 -0.3230 -0.6852  0.0801
  423MOL0     C57020   0.914  -0.394   1.213 -0.1954 -0.1841  1.0361
  423MOL0     N57021   0.881   0.379   1.311  0.1831  0.3743  0.5127
  423MOL0     N57022   0.820   0.458   1.389  0.1039 -0.6190  0.9170
  423MOL0     C57023   0.968   0.023   2.397  0.2203  0.4459  1.0328
  423MOL0     C57024   0.846   0.006   2.461 -0.4603  0.0491  0.4459
  423MOL0     C57025   0.386   0.078   2.486 -0.5750 -0.0187  1.0537
  423MOL0     C57026   0.271   0.049   2.409  0.0660  0.0902 -0.0633
  423MOL0     C57027   0.143   0.057   2.463 -0.0177 -0.7607  0.9565
  423MOL0     C57028   0.137   0.106   2.596  0.4212 -1.0693  0.0273
  423MOL0     O57029   0.007   0.136   2.626  0.0635  0.7237  0.0811
  423MOL0     C57030  -0.014   0.193   2.759  0.0867 -0.5948  0.8532
  423MOL0     C57031  -0.154   0.234   2.791 -0.1859 -0.5470  0.4375
  423MOL0     C57032  -0.216   0.358   2.718  0.2596 -0.6297  0.1480
  423MOL0     C57033  -0.292   0.326   2.584 -0.0633  0.1905 -0.8224
  423MOL0     C57034  -0.422   0.261   2.619 -0.6664  0.4660  0.5396
  423MOL0     C57035  -0.517   0.197   2.650  0.1393  0.0298 -0.2951
  423MOL0     C57036   0.246   0.127   2.674 -0.9365  0.0010  0.4516
  423MOL0     C57037   0.368   0.115   2.618  0.0286  0.2751  0.6931
  423MOL0     H57038   0.705   0.316   2.395 -0.7901 -0.3771 -1.6406
  423MOL0     H57039   0.948   0.343   2.318 -1.6560  0.9732  0.4002
  423MOL0     H57040   1.096   0.320   2.169 -1.8919 -0.9506 -1.1406
  423MOL0     H57041   1.256   0.237   2.174  1.0750 -3.8795  2.7029
  423MOL0     H57042   1.106   0.042   2.043  3.2978  0.4990  1.3251
  423MOL0     H57043   0.976   0.155   2.029  0.2052 -0.9649 -0.2144
  423MOL0     H57044   1.253   0.165   1.911  0.0774  0.8970 -1.3741
  423MOL0     H57045   1.095   0.169   1.830  0.6489 -0.8325 -0.2841
  423MOL0     H57046   1.216   0.397   1.994 -2.1113 -0.9959  1.0154
  423MOL0     H57047   1.222   0.394   1.821 -0.4631  2.7222  1.7170
  423MOL0     H57048   0.972   0.422   2.002 -2.8708  1.8072 -0.8525
  423MOL0     H57049   1.032   0.544   1.905 -1.5256  0.5379  0.7515
  423MOL0     H57050   0.998   0.355   1.704  2.9237 -0.2856  1.1032
  423MOL0     H57051   0.887   0.282   1.811 -1.8623  1.1450 -3.1457
  423MOL0     H57052   0.784   0.513   1.836  1.6553  3.0654 -1.0461
  423MOL0     H57053   0.895   0.560   1.709  2.6154 -1.0584  2.1007
  423MOL0     H57054   0.675   0.521   1.606 -0.1887 -1.2650 -1.3519
  423MOL0     H57055   0.672   0.358   1.671 -1.5593  2.1692  2.4875
  423MOL0     H57056   0.856   0.201   1.573  3.9836 -0.2478 -0.6788
  423MOL0     H57057   1.050   0.158   1.262  1.5344 -2.4766  2.4013
  423MOL0     H57058   1.015   0.077   1.399  0.0527 -0.8834 -0.0866
  423MOL0     H57059   0.923   0.017   1.148 -1.3833 -0.3582  0.3392
  423MOL0     H57060   0.767   0.093   1.202 -2.2073 -1.1609  2.1517
  423MOL0     H57061   0.785  -0.041   1.414  0.5456  1.1213 -0.2604
  423MOL0     H57062   0.912  -0.130   1.322  0.2769 -0.2956 -1.4979
  423MOL0     H57063   0.636  -0.100   1.228  1.5102  1.1649 -1.4611
  423MOL0     H57064   0.694  -0.249   1.293 -1.3864  1.0904  1.1035
  423MOL0     H57065   0.922  -0.226   0.920  2.8860 -0.8170 -2.3480
  423MOL0     H57066   1.259  -0.395   0.878 -0.0596 -1.2882 -1.2801
  423MOL0     H57067   1.120  -0.404   0.766  0.5042  2.3355 -3.0113
  423MOL0     H57068   1.160  -0.248   0.833 -1.0986 -1.8121 -1.8820
  423MOL0     H57069   1.111  -0.831   1.103 -0.4854  0.5030  2.7885
  423MOL0     H57070   1.233  -1.030   1.222  1.9478  0.5651  0.7706
  423MOL0     H57071   1.651  -1.193   1.050  1.6184  1.5758 -1.1904
  423MOL0     H57072   1.660  -1.062   1.171  1.9322 -0.7855 -2.1583
  423MOL0     H57073   1.749  -1.263   1.275  0.1265  0.2819  0.5611
  423MOL0     H57074   1.601  -1.218   1.352  1.3400 -2.3878  1.4393
  423MOL0     H57075   1.647  -1.429   1.135 -0.4820 -2.8498  0.1464
  423MOL0     H57076   1.479  -1.368   1.174 -0.8269 -2.4440  0.6754
  423MOL0     H57077   1.592  -1.594   1.280  0.2522  0.0341  0.8272
  423MOL0     H57078   1.684  -1.487   1.374 -0.0403  0.9559 -1.0160
  423MOL0     H57079   1.492  -1.367   1.476 -0.6530 -0.7752  1.1850
  423MOL0     H57080   1.492  -1.544   1.502  0.4260  0.9152 -0.0939
  423MOL0     H57081   1.270  -1.480   1.479 -1.5386  0.4326 -0.9586
  423MOL0     H57082   1.299  -1.391   1.324 -1.5379 -1.6953 -2.9125
  423MOL0     H57083   1.394  -1.679   1.307 -0.1976 -0.2865  0.7927
  423MOL0     H57084   1.330  -1.558   1.195  1.4513 -0.7696 -0.3327
  423MOL0     H57085   1.107  -1.597   1.338  0.3713  0.7994 -0.0023
  423MOL0     H57086   1.173  -1.734   1.417 -4.6032 -0.4032 -1.2423
  423MOL0     H57087   1.579  -0.941   0.980 -0.2018  0.3610 -1.4913
  423MOL0     H57088   1.478  -0.732   0.913  2.5091  1.6333  4.3627
  423MOL0     H57089   1.045  -0.560   1.271 -0.8129  1.5227  2.6070
  423MOL0     H57090   0.839  -0.419   1.287 -1.0778  0.1287  0.2572
  423MOL0     H57091   1.039  -0.059   2.388 -1.6773 -1.2668  0.7445
  423MOL0     H57092   0.815  -0.086   2.509  1.3337  0.0421  1.7223
  423MOL0     H57093   0.292   0.017   2.307 -0.0542 -1.4141  0.3612
  423MOL0     H57094   0.060   0.049   2.394 -0.2938 -0.3546  1.2339
  423MOL0     H57095   0.020   0.118   2.831 -2.2955 -2.1083  0.5055
  423MOL0     H57096   0.055   0.278   2.763 -2.3960  1.4855  2.6582
  423MOL0     H57097  -0.161   0.247   2.899 -1.7528  0.0846  0.2783
  423MOL0     H57098  -0.222   0.150   2.775 -1.5222  0.5374  0.2703
  423MOL0     H57099  -0.129   0.420   2.694  1.4052 -2.6272 -1.2167
  423MOL0     H57100  -0.281   0.408   2.790  0.4770 -1.5214  0.9729
  423MOL0     H57101  -0.235   0.255   2.523  0.5101 -0.8138  0.8008
  423MOL0     H57102  -0.314   0.420   2.533  0.8172  1.3918  0.9088
  423MOL0     H57103  -0.607   0.148   2.681 -0.7063  0.2570 -2.2731
  423MOL0     H57104   0.237   0.163   2.777 -0.9679  3.4018 -0.6068
  423MOL0     H57105   0.453   0.128   2.684  0.3251 -1.4039  0.6922
  424MOL0     O57106   7.198   9.761   9.397 -0.0199  0.6684  0.3111
  424MOL0     C57107   7.311   9.795   9.385 -0.7443  0.7047 -0.2823
  424MOL0     O57108   7.364   9.867   9.286 -0.4605 -0.2262  0.1802
  424MOL0     C57109   7.284   9.913   9.184  0.4979  0.1414  0.6265
  424MOL0     C57110   7.155   9.970   9.214  0.4696 -0.2962  0.8242
  424MOL0     C57111   7.070  10.019   9.110  0.2300 -0.6378  0.3532
  424MOL0     C57112   7.113  10.022   8.978 -0.6347  0.5142  0.7064
  424MOL0     O57113   7.039  10.062   8.872 -1.1646 -0.3769 -0.1303
  424MOL0     C57114   6.902  10.098   8.902  0.6543 -0.0282 -0.2737
  424MOL0     C57115   6.808  10.119   8.785  0.1241  0.4029 -0.9569
  424MOL0     C57116   6.742   9.989   8.740 -0.1895  0.2592  0.4345
  424MOL0     C57117   6.661  10.006   8.606  0.5730  0.0068 -0.9403
  424MOL0     C57118   6.572   9.888   8.581  0.0294  0.3606  0.0190
  424MOL0     C57119   6.512   9.883   8.438  0.1785 -0.1880  0.4105
  424MOL0     C57120   6.462   9.742   8.426 -0.1527 -0.2664  0.7116
  424MOL0     C57121   6.407   9.706   8.292  0.4845 -0.7414 -0.1015
  424MOL0     N57122   6.294   9.788   8.244 -0.3772  0.7888  0.2501
  424MOL0     C57123   6.162   9.757   8.261  0.1584  0.2114 -0.5683
  424MOL0     C57124   6.092   9.843   8.177 -1.0444  0.0797  0.3463
  424MOL0     C57125   5.942   9.859   8.159  0.2853 -0.5886  0.2156
  424MOL0     C57126   5.878   9.835   8.296  0.1743 -0.6972 -0.1083
  424MOL0     C57127   5.731   9.870   8.287  0.8694 -0.0910  0.5526
  424MOL0     C57128   5.663   9.823   8.422 -0.5926 -0.0345 -0.0332
  424MOL0     O57129   5.727   9.879   8.530 -0.2897  0.3928 -1.1115
  424MOL0     C57130   5.710  10.013   8.565  0.0138 -0.6535  0.1076
  424MOL0     C57131   5.776  10.063   8.674  1.7938  0.5588 -0.0664
  424MOL0     C57132   5.767  10.195   8.716  0.9591  0.3170  0.3760
  424MOL0     C57133   5.836  10.238   8.843  0.2913 -0.6336  0.2167
  424MOL0     C57134   5.676  10.287   8.652 -0.3147 -0.4216  1.1973
  424MOL0     C57135   5.659  10.424   8.677 -0.5196  0.5028 -0.5187
  424MOL0     O57136   5.652  10.461   8.812 -0.7480 -0.6523 -0.5136
  424MOL0     C57137   5.602  10.586   8.828 -1.0983  0.0716 -0.0218
  424MOL0     C57138   5.462  10.598   8.800  0.2423  0.5450 -0.8777
  424MOL0     C57139   5.405  10.733   8.821  0.2337  0.2560 -0.9559
  424MOL0     C57140   5.489  10.830   8.865  0.2537  0.8725  0.5790
  424MOL0     O57141   5.427  10.945   8.888  0.3973 -0.3983  0.0363
  424MOL0     C57142   5.478  11.061   8.825 -0.8147  0.2169  0.3044
  424MOL0     C57143   5.570  11.133   8.926  0.8478 -0.2667  0.3469
  424MOL0     C57144   5.543  11.288   8.919 -0.7284  0.4417 -0.1308
  424MOL0     C57145   5.609  11.356   9.041 -0.3077  0.9191 -0.7379
  424MOL0     C57146   5.521  11.336   9.165  0.5760 -0.0440 -0.2887
  424MOL0     C57147   5.609  11.382   9.291 -1.2242 -0.1507  0.6954
  424MOL0     C57148   5.523  11.352   9.420 -0.2191 -0.1244  0.2009
  424MOL0     C57149   5.553  11.445   9.537  0.0338 -1.0671  0.6485
  424MOL0    Cl57150   5.727  11.444   9.605 -0.4123 -0.3422  0.1976
  424MOL0     C57151   5.626  10.809   8.891 -0.0929  0.6705 -0.0202
  424MOL0     C57152   5.680  10.685   8.868 -0.2658 -0.2637 -1.0367
  424MOL0     O57153   5.648  10.503   8.583 -0.6011 -0.3534  0.9440
  424MOL0     C57154   5.603  10.239   8.541 -1.0154  1.1305  1.1927
  424MOL0     C57155   5.616  10.102   8.501 -0.0701 -0.5457 -0.7648
  424MOL0     N57156   6.185   9.916   8.104 -0.8040 -0.6144 -0.7188
  424MOL0     N57157   6.303   9.882   8.147  0.3510 -0.0900  0.5508
  424MOL0     C57158   7.244   9.986   8.948 -0.3855  0.0569  0.3306
  424MOL0     C57159   7.331   9.930   9.052 -0.0247 -0.9596  0.6165
  424MOL0     C57160   7.405   9.759   9.493 -0.0180 -0.2238 -0.2065
  424MOL0     C57161   7.369   9.719   9.617 -0.1139 -0.1044  0.2564
  424MOL0     C57162   7.464   9.682   9.719  1.0314  0.3064  0.2690
  424MOL0     C57163   7.604   9.679   9.681  0.4337 -1.2896  0.5094
  424MOL0     O57164   7.705   9.666   9.767 -1.3570  0.0756  0.0252
  424MOL0     C57165   7.679   9.590   9.883 -0.3747  1.0309  0.6039
  424MOL0     C57166   7.812   9.513   9.918 -0.2199 -0.0643  0.2264
  424MOL0     C57167   7.919   9.598   9.992 -0.3160 -0.0892  0.4567
  424MOL0     C57168   7.877   9.645  10.127  0.0981 -0.6815 -0.3106
  424MOL0     C57169   7.901   9.542  10.227 -0.1484 -0.0088 -0.1054
  424MOL0     C57170   7.914   9.438  10.296 -0.8398  0.6476  1.2909
  424MOL0     C57171   7.634   9.726   9.556 -0.9555  0.4701  0.2222
  424MOL0     C57172   7.542   9.773   9.458  0.5201  0.5375  0.6210
  424MOL0     H57173   7.112   9.978   9.313 -3.6191 -1.1995 -0.7102
  424MOL0     H57174   6.984  10.069   9.153  1.1631  1.6453 -0.2740
  424MOL0     H57175   6.847  10.032   8.971 -0.1493  0.0680 -0.8171
  424MOL0     H57176   6.909  10.190   8.961 -0.0788  0.4861 -0.9907
  424MOL0     H57177   6.723  10.176   8.824  1.3522  3.4917 -2.3885
  424MOL0     H57178   6.869  10.181   8.718  2.4366 -2.2602 -1.4965
  424MOL0     H57179   6.821   9.917   8.719 -0.1911  0.7595 -1.4784
  424MOL0     H57180   6.673   9.959   8.819  0.5695  1.0848  1.4439
  424MOL0     H57181   6.603  10.099   8.611 -2.7888 -1.9648  1.6922
  424MOL0     H57182   6.730  10.013   8.521 -0.5773 -0.9424 -1.9843
  424MOL0     H57183   6.644   9.806   8.592  1.1323  1.0389 -1.7208
  424MOL0     H57184   6.492   9.888   8.655  2.1059  0.7512  2.4063
  424MOL0     H57185   6.430   9.954   8.420 -1.9576 -2.6815 -0.3844
  424MOL0     H57186   6.589   9.900   8.362 -0.8577 -1.1227 -0.9088
  424MOL0     H57187   6.546   9.678   8.456  1.1689 -0.2244 -2.5055
  424MOL0     H57188   6.387   9.737   8.505 -1.7301 -1.6039 -0.8067
  424MOL0     H57189   6.375   9.601   8.284  1.9067 -1.2356  0.3452
  424MOL0     H57190   6.481   9.730   8.216 -0.2431  0.5797 -0.4114
  424MOL0     H57191   6.126   9.681   8.331  0.5225 -0.1691 -0.7869
  424MOL0     H57192   5.921   9.962   8.130  0.8331 -0.0691  1.5504
  424MOL0     H57193   5.909   9.792   8.079  0.0457  2.1026 -2.0877
  424MOL0     H57194   5.941   9.896   8.361  2.1928 -2.5607 -0.1876
  424MOL0     H57195   5.897   9.731   8.326  2.2061 -0.8486 -1.6610
  424MOL0     H57196   5.678   9.818   8.207  1.5028  0.4801 -0.2574
  424MOL0     H57197   5.723   9.976   8.261 -3.4486 -0.4785 -0.3699
  424MOL0     H57198   5.689   9.717   8.430 -2.0305 -0.3937  0.0499
  424MOL0     H57199   5.555   9.837   8.428 -1.0264 -2.4470 -1.1161
  424MOL0     H57200   5.834   9.994   8.735 -1.9892 -2.1240  0.8689
  424MOL0     H57201   5.886  10.334   8.829  1.3431 -1.1497  0.2926
  424MOL0     H57202   5.760  10.239   8.922 -0.8182 -1.6545 -0.7904
  424MOL0     H57203   5.913  10.164   8.864  4.3214  2.4240 -2.3529
  424MOL0     H57204   5.405  10.508   8.775 -1.5498  1.2892  0.2954
  424MOL0     H57205   5.299  10.751   8.804  0.0417 -1.3370 -1.7232
  424MOL0     H57206   5.540  11.026   8.742  0.5591 -1.2780  1.8807
  424MOL0     H57207   5.403  11.136   8.800 -0.8438  0.4669  1.1255
  424MOL0     H57208   5.540  11.112   9.029 -1.3682  1.1919  0.0719
  424MOL0     H57209   5.676  11.109   8.912  0.9655 -0.9236  2.1338
  424MOL0     H57210   5.437  11.312   8.904 -0.4788  0.9732 -1.0944
  424MOL0     H57211   5.588  11.336   8.832 -1.8730  0.3096 -0.8230
  424MOL0     H57212   5.704  11.308   9.066 -0.4634 -0.6206 -2.8198
  424MOL0     H57213   5.634  11.461   9.020 -0.3271  0.6657 -2.0669
  424MOL0     H57214   5.477  11.239   9.186 -0.9151  0.2896 -1.6236
  424MOL0     H57215   5.436  11.403   9.151  0.1180 -0.5268  0.1577
  424MOL0     H57216   5.708  11.336   9.291 -0.4210  1.3849 -1.9039
  424MOL0     H57217   5.625  11.489   9.277 -1.4738 -0.4169 -2.0771
  424MOL0     H57218   5.542  11.252   9.460  1.8601  0.0276 -0.2667
  424MOL0     H57219   5.417  11.351   9.392 -0.5212 -3.1307  1.1575
  424MOL0     H57220   5.479  11.428   9.616 -2.1774 -0.9159 -1.2735
  424MOL0     H57221   5.534  11.548   9.506 -0.8792 -0.5326  2.7537
  424MOL0     H57222   5.679  10.886   8.945 -1.0066 -1.0132  3.6138
  424MOL0     H57223   5.784  10.663   8.891  0.0324 -0.3237 -2.3515
  424MOL0     H57224   5.523  10.288   8.487 -1.4411 -1.4964 -0.7757
  424MOL0     H57225   5.549  10.069   8.422 -2.2261 -0.5583  0.9572
  424MOL0     H57226   7.269  10.011   8.845 -0.5462 -1.9406 -0.2348
  424MOL0     H57227   7.427   9.899   9.013 -0.9775 -1.4543 -1.4607
  424MOL0     H57228   7.266   9.723   9.652 -0.9439 -0.3282 -1.9955
  424MOL0     H57229   7.422   9.663   9.817  0.0447  0.4995 -0.1088
  424MOL0     H57230   7.644   9.650   9.967  1.1741  0.8746  1.3907
  424MOL0     H57231   7.606   9.513   9.855 -0.6288  1.4093  0.1960
  424MOL0     H57232   7.853   9.457   9.833  1.9582  1.3925  0.2652
  424MOL0     H57233   7.791   9.436   9.993  1.3418 -0.9276 -0.1841
  424MOL0     H57234   7.930   9.689   9.934 -1.9940 -0.3432 -0.3304
  424MOL0     H57235   8.013   9.542   9.995 -0.8553 -1.0532  0.0523
  424MOL0     H57236   7.773   9.680  10.132  0.0447 -0.9777  3.3694
  424MOL0     H57237   7.943   9.732  10.137  1.6868 -1.3609 -3.7377
  424MOL0     H57238   7.910   9.342  10.344 -2.9203  0.1328  0.2336
  424MOL0     H57239   7.737   9.727   9.521 -0.4333 -1.0574  1.5909
  424MOL0     H57240   7.576   9.814   9.363  1.3151  0.7378  0.9928
  425MOL0     O57241   7.182  10.109   6.654  0.6954  0.0032  0.9097
  425MOL0     C57242   7.151  10.209   6.717 -0.0691 -0.1509  0.2876
  425MOL0     O57243   7.242  10.299   6.769 -0.3324  0.2245  0.2004
  425MOL0     C57244   7.374  10.297   6.713  0.4302 -0.8131  0.2904
  425MOL0     C57245   7.459  10.196   6.749  0.2169  0.2061  0.7650
  425MOL0     C57246   7.598  10.213   6.714  0.3772 -0.7468  0.4600
  425MOL0     C57247   7.647  10.337   6.674 -0.5610 -0.4891  0.8217
  425MOL0     O57248   7.782  10.369   6.665  0.5091 -0.4191 -0.0747
  425MOL0     C57249   7.853  10.341   6.783  0.4613 -0.1355 -0.4603
  425MOL0     C57250   7.999  10.375   6.766  0.0486 -0.3886  0.5102
  425MOL0     C57251   8.078  10.287   6.670 -1.0420 -0.4777  0.9315
  425MOL0     C57252   8.207  10.258   6.734  0.3182 -0.0582  0.0155
  425MOL0     C57253   8.293  10.164   6.648  0.3124  0.0884  0.2406
  425MOL0     C57254   8.430  10.116   6.708  0.5895 -0.2345 -0.1954
  425MOL0     C57255   8.534  10.225   6.726 -0.7974 -0.3819  0.3709
  425MOL0     C57256   8.674  10.172   6.738 -0.9026  0.8625 -0.1020
  425MOL0     N57257   8.679  10.074   6.849 -0.1689  0.2937  0.2645
  425MOL0     C57258   8.600  10.054   6.957 -0.5280  0.9365  0.1919
  425MOL0     C57259   8.643   9.934   7.014  0.3158 -0.1136 -0.6258
  425MOL0     C57260   8.578   9.878   7.137  0.8305  0.2712  0.6702
  425MOL0     C57261   8.591   9.732   7.129 -0.0126  0.0170 -0.7164
  425MOL0     C57262   8.535   9.656   7.003  0.4925 -0.5515 -0.2185
  425MOL0     C57263   8.387   9.668   6.992  0.0131  0.4245  0.7774
  425MOL0     O57264   8.353   9.790   6.919  0.6880  0.2050  0.2198
  425MOL0     C57265   8.223   9.815   6.921  0.3527  0.6133 -1.1597
  425MOL0     C57266   8.142   9.742   6.830 -0.3107  0.3057  0.5438
  425MOL0     C57267   8.003   9.751   6.832  1.0922  0.2712 -0.2492
  425MOL0     C57268   7.928   9.672   6.726 -0.5879 -0.4314 -0.4191
  425MOL0     C57269   7.939   9.822   6.945  0.4759 -0.7314  0.5501
  425MOL0     C57270   7.794   9.827   6.976  0.3305 -0.3470  0.2212
  425MOL0     O57271   7.753   9.928   7.065  0.0310 -0.0047 -0.2720
  425MOL0     C57272   7.618   9.940   7.091  0.5111 -0.0061  0.2493
  425MOL0     C57273   7.536   9.834   7.132 -0.2303  0.1471 -0.3838
  425MOL0     C57274   7.403   9.846   7.149  0.3701  0.5748  0.6246
  425MOL0     C57275   7.340   9.967   7.122  1.0484 -0.0383  0.0270
  425MOL0     O57276   7.202   9.961   7.125  0.5023  0.4186  0.3259
  425MOL0     C57277   7.147   9.977   6.987 -0.2626 -0.5529  0.0006
  425MOL0     C57278   7.012   9.906   6.972  1.1885 -0.0428 -0.0930
  425MOL0     C57279   6.905   9.980   7.066  0.8116 -0.2861  0.0949
  425MOL0     C57280   6.765   9.915   7.030 -0.2550 -0.0453  0.5116
  425MOL0     C57281   6.669   9.913   7.149  0.2877  0.4832  0.5428
  425MOL0     C57282   6.516   9.911   7.110 -0.1544  0.4881 -0.5339
  425MOL0     C57283   6.438   9.908   7.238  0.0022  0.5439  0.4786
  425MOL0     C57284   6.288   9.955   7.221 -0.2769  0.7860  0.5145
  425MOL0    Cl57285   6.278  10.129   7.260 -0.0231 -0.4672  0.4531
  425MOL0     C57286   7.416  10.074   7.089 -0.4513 -0.4537  0.4925
  425MOL0     C57287   7.554  10.062   7.074  0.3022 -0.2323 -0.8853
  425MOL0     O57288   7.710   9.760   6.913 -0.6038  0.0568 -0.0053
  425MOL0     C57289   8.023   9.896   7.032 -0.0256  0.3819  0.0225
  425MOL0     C57290   8.159   9.891   7.029 -0.3366  0.4590 -0.3465
  425MOL0     N57291   8.754   9.890   6.942  0.8360 -0.2786 -0.0967
  425MOL0     N57292   8.774   9.972   6.848 -0.9408 -0.9261  0.2563
  425MOL0     C57293   7.553  10.441   6.646 -0.0494 -0.2107 -0.8416
  425MOL0     C57294   7.419  10.419   6.657 -1.1369 -0.2464 -0.0539
  425MOL0     C57295   7.010  10.224   6.754 -0.7167  0.2010  0.4838
  425MOL0     C57296   6.973  10.304   6.871 -0.8776  0.8497 -0.4529
  425MOL0     C57297   6.847  10.314   6.915  0.1734 -0.3188 -0.7751
  425MOL0     C57298   6.751  10.235   6.848  0.3107 -0.2380  0.1577
  425MOL0     O57299   6.621  10.251   6.882 -0.0516 -0.1258  0.4854
  425MOL0     C57300   6.534  10.309   6.791 -0.2639 -0.0151 -0.6098
  425MOL0     C57301   6.391  10.320   6.859  1.0178  0.1635  0.1964
  425MOL0     C57302   6.401  10.403   6.987  0.4242  0.2664  0.0190
  425MOL0     C57303   6.420  10.554   6.964  0.1490 -0.1183 -0.5117
  425MOL0     C57304   6.310  10.619   6.892 -0.3810  0.9682  0.1565
  425MOL0     C57305   6.211  10.679   6.858 -0.4237  0.6449  0.5044
  425MOL0     C57306   6.776  10.174   6.724 -1.0366 -0.2803 -0.7946
  425MOL0     C57307   6.905  10.153   6.690  0.0861  0.5512 -0.6824
  425MOL0     H57308   7.432  10.098   6.786  0.0336  0.0700  0.2667
  425MOL0     H57309   7.664  10.132   6.740  2.9112  1.3590  1.0557
  425MOL0     H57310   7.812  10.390   6.871  0.2120  0.7704 -1.0610
  425MOL0     H57311   7.849  10.235   6.809  1.2228 -0.2746 -0.8539
  425MOL0     H57312   8.010  10.478   6.730 -2.5713 -0.4395 -0.7179
  425MOL0     H57313   8.049  10.371   6.863  0.6845 -2.4082  0.1421
  425MOL0     H57314   8.022  10.194   6.654 -0.6185 -0.3807 -1.4087
  425MOL0     H57315   8.084  10.322   6.567  4.2315 -0.2149  1.0618
  425MOL0     H57316   8.263  10.351   6.738  2.7321 -1.4448  1.2793
  425MOL0     H57317   8.187  10.222   6.836 -0.6205  0.9156  0.1866
  425MOL0     H57318   8.241  10.073   6.619  1.3866 -0.7204  0.7748
  425MOL0     H57319   8.315  10.212   6.552 -1.4887  1.2023  0.3460
  425MOL0     H57320   8.402  10.061   6.798  1.0375  1.1118  0.7890
  425MOL0     H57321   8.472  10.040   6.641  1.5196  1.3207 -1.4506
  425MOL0     H57322   8.538  10.291   6.639  2.6819 -0.0267  0.6602
  425MOL0     H57323   8.510  10.280   6.817 -1.4103  1.8394 -1.0688
  425MOL0     H57324   8.751  10.248   6.753 -0.3660  0.6497 -1.5547
  425MOL0     H57325   8.702  10.124   6.643  0.6812 -2.0332  1.6941
  425MOL0     H57326   8.513  10.115   6.981  0.1112  1.4809  1.1790
  425MOL0     H57327   8.619   9.910   7.233 -0.1439 -0.2789  1.2910
  425MOL0     H57328   8.470   9.896   7.141  0.5086 -1.3329  0.1377
  425MOL0     H57329   8.549   9.697   7.224  1.1305 -0.3609 -0.3262
  425MOL0     H57330   8.699   9.711   7.127  0.6509  0.0529  6.5785
  425MOL0     H57331   8.564   9.550   7.002 -1.2090 -1.0764 -2.1487
  425MOL0     H57332   8.585   9.695   6.915  2.1378 -1.1810  0.4046
  425MOL0     H57333   8.347   9.676   7.093 -1.1863  0.9534  0.2817
  425MOL0     H57334   8.353   9.579   6.939 -0.9133  1.2872 -0.1313
  425MOL0     H57335   8.196   9.687   6.754 -2.8317 -1.0840 -0.3458
  425MOL0     H57336   7.866   9.744   6.671  0.9118  3.9833  3.0050
  425MOL0     H57337   7.999   9.616   6.664 -0.4134 -0.6728 -0.0039
  425MOL0     H57338   7.855   9.601   6.767 -2.1033 -0.2689 -2.6392
  425MOL0     H57339   7.584   9.737   7.121 -0.3703  0.0415 -0.0688
  425MOL0     H57340   7.353   9.752   7.167  2.6602 -0.9892 -0.6268
  425MOL0     H57341   7.153  10.083   6.961  2.8475 -1.3069 -3.2168
  425MOL0     H57342   7.212   9.930   6.913 -1.3745 -0.0969 -1.3258
  425MOL0     H57343   6.985   9.898   6.867  2.2756  1.4883 -0.5261
  425MOL0     H57344   7.031   9.801   6.996 -1.8923 -0.6010  0.2616
  425MOL0     H57345   6.885  10.083   7.036 -1.9835 -0.6630  0.3738
  425MOL0     H57346   6.926   9.978   7.174  2.3903  0.2916 -0.1822
  425MOL0     H57347   6.731   9.968   6.941  2.0723  2.4415  0.9630
  425MOL0     H57348   6.776   9.806   7.020  2.8642  0.3950 -2.9842
  425MOL0     H57349   6.684  10.006   7.204  0.3142  0.7858  0.0208
  425MOL0     H57350   6.688   9.834   7.223  2.5914  2.2954  2.0392
  425MOL0     H57351   6.484  10.003   7.059 -1.0324 -0.8717 -2.5348
  425MOL0     H57352   6.491   9.830   7.041 -1.8609  0.4536  0.0852
  425MOL0     H57353   6.489   9.969   7.313  1.3534  1.8713 -1.4478
  425MOL0     H57354   6.427   9.804   7.270  1.1394 -0.5698 -2.4600
  425MOL0     H57355   6.220   9.897   7.284  0.5925  0.1987  0.9254
  425MOL0     H57356   6.250   9.948   7.118  0.3950 -0.4129  0.3323
  425MOL0     H57357   7.377  10.172   7.067 -1.4729  0.2070  4.5571
  425MOL0     H57358   7.607  10.153   7.050  0.6468  0.2366  1.3929
  425MOL0     H57359   7.982   9.948   7.118 -1.5846  0.6716 -0.8683
  425MOL0     H57360   8.216   9.930   7.113 -0.7354 -0.0928  0.1878
  425MOL0     H57361   7.584  10.543   6.630  4.2314 -1.5985 -2.8234
  425MOL0     H57362   7.353  10.502   6.633 -0.0409  0.5080 -0.5473
  425MOL0     H57363   7.049  10.335   6.942 -1.0164 -0.8985  0.5058
  425MOL0     H57364   6.829  10.357   7.013  0.2134 -5.1239  1.6328
  425MOL0     H57365   6.579  10.406   6.768 -1.6111  0.9391  0.5990
  425MOL0     H57366   6.541  10.249   6.700  3.3556 -1.3188  0.3494
  425MOL0     H57367   6.353  10.219   6.881  0.5248  0.3540  0.2328
  425MOL0     H57368   6.314  10.362   6.793  1.9966  1.5769 -0.0755
  425MOL0     H57369   6.484  10.376   7.053  0.3105  1.8216  0.8542
  425MOL0     H57370   6.317  10.384   7.056 -0.8225  2.9007 -0.6306
  425MOL0     H57371   6.517  10.573   6.917  0.9156 -3.2366 -0.4185
  425MOL0     H57372   6.419  10.593   7.066 -1.1607 -2.6172  0.5117
  425MOL0     H57373   6.119  10.730   6.838  0.0494  1.6381  0.8169
  425MOL0     H57374   6.696  10.130   6.666 -0.2968 -0.4134 -1.7372
  425MOL0     H57375   6.941  10.090   6.609  3.4524  2.3139 -0.7443
  426MOL0     O57376   5.762   5.849   2.974 -0.2673 -1.3515  0.4749
  426MOL0     C57377   5.717   5.736   3.003 -0.1855 -0.6409 -0.3057
  426MOL0     O57378   5.747   5.625   2.952 -0.7503 -0.3910 -0.4241
  426MOL0     C57379   5.855   5.621   2.868  0.2519 -0.4377 -0.0740
  426MOL0     C57380   5.963   5.548   2.904 -0.1592  1.0418 -0.0744
  426MOL0     C57381   6.078   5.541   2.829  0.1655 -0.1993  1.0206
  426MOL0     C57382   6.068   5.586   2.692 -0.6835  0.3726  0.3148
  426MOL0     O57383   6.178   5.576   2.615 -0.7601  0.4204 -0.3401
  426MOL0     C57384   6.178   5.622   2.478 -0.2847 -0.2633 -0.8173
  426MOL0     C57385   6.310   5.613   2.421 -1.2265  1.1469  0.1927
  426MOL0     C57386   6.352   5.466   2.414 -0.1774  0.1348  0.0791
  426MOL0     C57387   6.496   5.474   2.358  0.0114  1.1917  0.3609
  426MOL0     C57388   6.527   5.331   2.325  0.2393 -0.0848 -0.0229
  426MOL0     C57389   6.679   5.321   2.295  0.6308 -0.2882  0.0524
  426MOL0     C57390   6.702   5.194   2.216 -0.2280  0.1281 -0.6518
  426MOL0     C57391   6.836   5.184   2.154 -0.4493 -0.1761 -0.3795
  426MOL0     N57392   6.828   5.069   2.062 -0.1246  0.4105  0.0064
  426MOL0     C57393   6.768   5.059   1.940  0.1192 -1.0441 -0.2068
  426MOL0     C57394   6.801   4.943   1.880  0.1121  0.8959 -0.0571
  426MOL0     C57395   6.750   4.897   1.742 -0.1888 -0.0179  0.7469
  426MOL0     C57396   6.593   4.854   1.755 -0.5903 -0.5279 -0.0222
  426MOL0     C57397   6.497   4.970   1.814 -0.5012  0.7779 -0.8304
  426MOL0     C57398   6.344   4.952   1.807  0.6428  0.9347  0.4984
  426MOL0     O57399   6.305   4.842   1.892  0.1772  0.7587 -0.2847
  426MOL0     C57400   6.182   4.791   1.886  0.4758 -1.3548 -0.1131
  426MOL0     C57401   6.151   4.675   1.809 -0.2042  0.4442  0.2295
  426MOL0     C57402   6.024   4.630   1.783  0.2197 -0.1614  0.1365
  426MOL0     C57403   6.011   4.503   1.704 -0.5256 -0.3496  0.7464
  426MOL0     C57404   5.912   4.695   1.843 -0.3788  0.2829  0.3255
  426MOL0     C57405   5.773   4.636   1.835 -0.2170  0.4821 -0.5000
  426MOL0     O57406   5.674   4.717   1.878  0.5433 -0.5763  0.1072
  426MOL0     C57407   5.542   4.693   1.842  0.7312 -0.4294 -1.2614
  426MOL0     C57408   5.498   4.611   1.735 -0.2545 -0.0970  0.1445
  426MOL0     C57409   5.366   4.584   1.704  0.0450 -0.1961  0.0320
  426MOL0     C57410   5.267   4.651   1.773  0.0722 -0.0871 -0.5797
  426MOL0     O57411   5.131   4.643   1.761  0.2315  0.3161  0.0647
  426MOL0     C57412   5.080   4.542   1.679  0.2594  0.2550  0.0712
  426MOL0     C57413   4.929   4.543   1.672  0.6735 -0.9748 -0.9607
  426MOL0     C57414   4.870   4.684   1.650  0.3746  0.6140  0.0791
  426MOL0     C57415   4.717   4.675   1.633  0.3501 -0.6541 -0.4632
  426MOL0     C57416   4.687   4.638   1.486  0.2608  1.1924 -0.0936
  426MOL0     C57417   4.548   4.663   1.427  0.1652 -0.5417  0.2732
  426MOL0     C57418   4.440   4.577   1.505  0.1451 -0.7394 -0.0440
  426MOL0     C57419   4.313   4.615   1.429 -0.5160 -0.6341 -0.1363
  426MOL0    Cl57420   4.182   4.499   1.444  0.0477 -0.1180 -0.0969
  426MOL0     C57421   5.306   4.743   1.870 -0.3806 -0.4161 -0.0178
  426MOL0     C57422   5.444   4.764   1.908 -0.0932  0.1721 -0.1768
  426MOL0     O57423   5.770   4.517   1.815  1.2168  1.1017 -0.9268
  426MOL0     C57424   5.937   4.810   1.918  0.5429  0.4280  1.1783
  426MOL0     C57425   6.064   4.854   1.935 -0.2769 -0.5923  1.0670
  426MOL0     N57426   6.862   4.876   1.981 -0.6537  1.0911 -0.1794
  426MOL0     N57427   6.878   4.943   2.084 -0.2609 -0.0858  0.0845
  426MOL0     C57428   5.947   5.650   2.655  0.9331 -0.4463 -0.4028
  426MOL0     C57429   5.839   5.664   2.737  0.0189  1.3128 -0.9922
  426MOL0     C57430   5.646   5.728   3.136 -0.3295  0.7135 -0.1877
  426MOL0     C57431   5.570   5.840   3.182 -0.6909  0.3282 -0.6068
  426MOL0     C57432   5.529   5.846   3.316  0.2261 -0.4159 -0.3563
  426MOL0     C57433   5.545   5.728   3.400 -0.6141 -1.0201 -0.8524
  426MOL0     O57434   5.509   5.703   3.538 -0.4841 -0.3005  0.2198
  426MOL0     C57435   5.452   5.814   3.613 -0.5412 -0.0777 -0.7896
  426MOL0     C57436   5.319   5.794   3.672 -0.1513 -0.3749 -0.9343
  426MOL0     C57437   5.195   5.761   3.583 -0.1210  0.5625  0.1276
  426MOL0     C57438   5.085   5.694   3.668 -0.3149  0.3152 -0.0954
  426MOL0     C57439   4.967   5.665   3.584 -0.6299  0.4891  1.0353
  426MOL0     C57440   4.865   5.630   3.522 -0.1726 -0.1370 -0.8390
  426MOL0     C57441   5.608   5.612   3.345  0.8975  0.3251 -0.3222
  426MOL0     C57442   5.667   5.621   3.224 -0.0634 -0.1263 -0.8142
  426MOL0     H57443   5.970   5.503   3.002  1.4267 -2.7905 -1.7383
  426MOL0     H57444   6.169   5.497   2.869  0.8091  1.2367  1.1965
  426MOL0     H57445   6.115   5.549   2.426 -1.0764  0.6899 -1.2098
  426MOL0     H57446   6.154   5.728   2.468  3.4780  0.8662  0.5141
  426MOL0     H57447   6.312   5.653   2.320 -0.4977 -1.6072 -0.9772
  426MOL0     H57448   6.381   5.679   2.471 -1.5773 -0.1894  2.6487
  426MOL0     H57449   6.334   5.419   2.512 -0.9884  3.3775  1.6377
  426MOL0     H57450   6.297   5.408   2.339 -0.1855 -1.6512  1.4084
  426MOL0     H57451   6.512   5.544   2.276  1.8751  1.4953  0.9392
  426MOL0     H57452   6.558   5.521   2.435  0.5774  0.2801  0.4823
  426MOL0     H57453   6.498   5.270   2.412  1.0319 -0.8939 -0.3029
  426MOL0     H57454   6.466   5.293   2.243 -0.9488 -1.3776  1.3929
  426MOL0     H57455   6.724   5.416   2.263  0.7954 -0.3877 -0.0153
  426MOL0     H57456   6.730   5.308   2.391  0.3518  0.8435  0.3768
  426MOL0     H57457   6.690   5.102   2.274 -1.7109 -1.1909 -2.9175
  426MOL0     H57458   6.629   5.188   2.135 -1.1755  2.2849 -0.0088
  426MOL0     H57459   6.917   5.157   2.222 -1.0875 -0.6672  0.1976
  426MOL0     H57460   6.856   5.273   2.094  2.3541 -0.3581  0.1486
  426MOL0     H57461   6.708   5.137   1.895  2.3577  2.7573  2.7838
  426MOL0     H57462   6.755   4.978   1.669  0.5961 -0.5993  0.1341
  426MOL0     H57463   6.818   4.817   1.713 -0.0601  0.1844  0.4867
  426MOL0     H57464   6.588   4.776   1.832  3.1850 -0.7591  0.1793
  426MOL0     H57465   6.570   4.811   1.657  2.3753 -0.0372 -1.0284
  426MOL0     H57466   6.520   5.066   1.768  1.7298  0.2392 -0.9413
  426MOL0     H57467   6.522   4.979   1.920 -2.8726  0.5058 -0.1838
  426MOL0     H57468   6.316   4.925   1.705 -0.6171  3.2714  0.1742
  426MOL0     H57469   6.293   5.045   1.834 -1.3412  1.0117 -3.0018
  426MOL0     H57470   6.234   4.617   1.771  0.2917  2.5774 -2.2281
  426MOL0     H57471   5.982   4.420   1.769 -0.8558 -3.6203 -3.1606
  426MOL0     H57472   5.938   4.509   1.623 -0.4284 -2.8367  0.4054
  426MOL0     H57473   6.097   4.458   1.653 -1.6933 -2.0514  0.2181
  426MOL0     H57474   5.567   4.556   1.672 -1.7103 -1.1849 -0.5798
  426MOL0     H57475   5.346   4.498   1.641  4.6878 -1.8471  0.4551
  426MOL0     H57476   5.129   4.553   1.582  2.5635 -1.4068  0.9502
  426MOL0     H57477   5.100   4.437   1.703 -1.6650 -0.9059 -2.7987
  426MOL0     H57478   4.894   4.480   1.589  1.3634 -0.5110 -1.6157
  426MOL0     H57479   4.888   4.498   1.763  2.3701 -0.8346 -0.1038
  426MOL0     H57480   4.928   4.729   1.569  4.9674  1.0147  3.2026
  426MOL0     H57481   4.894   4.749   1.735 -0.3792 -1.3116  1.8570
  426MOL0     H57482   4.659   4.609   1.698 -2.0758 -1.5004 -3.2357
  426MOL0     H57483   4.684   4.780   1.638  1.1925 -0.4374  2.0120
  426MOL0     H57484   4.709   4.533   1.466  3.2197  1.8238 -0.5275
  426MOL0     H57485   4.743   4.705   1.421  1.9966  0.3030  0.4361
  426MOL0     H57486   4.518   4.768   1.424 -1.8093 -1.0545  0.1373
  426MOL0     H57487   4.545   4.628   1.324 -1.0256  1.8917 -0.5986
  426MOL0     H57488   4.431   4.606   1.611  1.1347  2.1485 -0.6476
  426MOL0     H57489   4.456   4.470   1.487 -4.1316 -1.4391 -0.5227
  426MOL0     H57490   4.343   4.643   1.327  1.3876  1.9786  1.0259
  426MOL0     H57491   4.280   4.715   1.459  1.7220  0.2214 -0.3191
  426MOL0     H57492   5.227   4.794   1.924 -0.3830  2.0336 -2.1835
  426MOL0     H57493   5.469   4.844   1.976 -0.0399 -1.3687  1.7045
  426MOL0     H57494   5.860   4.865   1.972 -0.4157  1.2574 -0.9287
  426MOL0     H57495   6.069   4.952   1.983 -3.3315  0.2309 -0.0536
  426MOL0     H57496   5.951   5.702   2.560 -0.6805 -2.8410 -1.9122
  426MOL0     H57497   5.741   5.697   2.705  0.7002  2.5579 -1.8768
  426MOL0     H57498   5.548   5.912   3.104 -0.2191 -0.5007 -1.5337
  426MOL0     H57499   5.468   5.932   3.340  1.3025  1.0462 -2.5411
  426MOL0     H57500   5.525   5.835   3.692  3.2567 -1.6290 -3.5880
  426MOL0     H57501   5.441   5.906   3.556 -1.9001  0.6772  0.6197
  426MOL0     H57502   5.288   5.884   3.726 -0.9163 -0.0261 -1.9133
  426MOL0     H57503   5.330   5.714   3.745  0.5373 -1.5962 -2.3130
  426MOL0     H57504   5.232   5.695   3.504 -0.9693  0.8181 -0.5095
  426MOL0     H57505   5.152   5.842   3.523 -0.7345  0.4181  0.3645
  426MOL0     H57506   5.062   5.750   3.760  0.8034  1.0123 -0.2227
  426MOL0     H57507   5.136   5.601   3.691 -1.8500 -0.6461 -0.4351
  426MOL0     H57508   4.779   5.614   3.461 -0.3058 -1.0346 -0.4370
  426MOL0     H57509   5.616   5.517   3.398  0.0214  0.6428  0.4060
  426MOL0     H57510   5.736   5.543   3.196  0.8271  0.8856 -1.5321
  427MOL0     O57511   5.680   8.859   5.169 -0.0269 -0.1900 -0.2638
  427MOL0     C57512   5.745   8.863   5.272 -0.0337 -0.6905  0.3245
  427MOL0     O57513   5.696   8.885   5.397  0.0072  0.0314 -0.7727
  427MOL0     C57514   5.566   8.862   5.431 -0.1160  0.2312 -0.1850
  427MOL0     C57515   5.533   8.804   5.553  0.5187  0.2845  0.8425
  427MOL0     C57516   5.404   8.761   5.582  0.6135 -0.0816 -0.2173
  427MOL0     C57517   5.294   8.802   5.504 -0.3754  0.2129  0.3049
  427MOL0     O57518   5.165   8.777   5.536  0.4899 -0.2956 -0.2868
  427MOL0     C57519   5.129   8.669   5.636 -0.2683 -0.4788  0.2050
  427MOL0     C57520   4.991   8.605   5.597  0.7205 -0.4425 -0.2148
  427MOL0     C57521   4.953   8.477   5.680 -0.4819 -0.2961 -0.2066
  427MOL0     C57522   4.900   8.515   5.816 -0.6579 -0.7274  0.2497
  427MOL0     C57523   4.747   8.559   5.823 -0.2819 -0.3077  0.5428
  427MOL0     C57524   4.675   8.461   5.899  0.5962 -0.4112 -0.1539
  427MOL0     C57525   4.520   8.492   5.901 -0.7969 -0.4445  0.0945
  427MOL0     C57526   4.476   8.633   5.952  0.3201  0.0742  0.0600
  427MOL0     N57527   4.328   8.633   5.959  0.5487  0.7911 -0.0346
  427MOL0     C57528   4.253   8.564   6.057  0.6335  0.1919  0.8635
  427MOL0     C57529   4.126   8.568   6.010  0.2944 -0.3645 -0.5038
  427MOL0     C57530   4.012   8.495   6.063 -0.5512  0.6470  0.1858
  427MOL0     C57531   3.924   8.590   6.140  0.3259  0.5981 -0.7259
  427MOL0     C57532   3.827   8.510   6.224  0.4615 -0.1731 -0.0801
  427MOL0     C57533   3.710   8.595   6.276 -0.4885 -0.2164  0.5870
  427MOL0     O57534   3.646   8.529   6.385 -0.0445 -0.7288  0.2301
  427MOL0     C57535   3.520   8.587   6.426 -0.2416 -0.9098 -1.0850
  427MOL0     C57536   3.482   8.721   6.414 -0.0773 -0.0857 -0.0547
  427MOL0     C57537   3.371   8.787   6.464 -0.4269  0.2661 -0.3784
  427MOL0     C57538   3.368   8.934   6.440 -0.5019  0.1079 -0.1984
  427MOL0     C57539   3.279   8.710   6.540  0.6271  0.1486 -0.2526
  427MOL0     C57540   3.156   8.769   6.590  1.4646 -0.0783 -1.1206
  427MOL0     O57541   3.041   8.697   6.602  1.0185 -0.8789 -0.4147
  427MOL0     C57542   2.931   8.758   6.668 -0.0854 -0.3316  0.7200
  427MOL0     C57543   2.822   8.808   6.596  0.4468 -0.4462  0.1769
  427MOL0     C57544   2.705   8.843   6.662  0.6228  0.3649 -0.4104
  427MOL0     C57545   2.692   8.845   6.802  0.3840  0.5085  0.0753
  427MOL0     O57546   2.570   8.884   6.852 -0.0351 -0.2149  0.1177
  427MOL0     C57547   2.551   8.891   6.997 -0.1856 -0.1016  0.3493
  427MOL0     C57548   2.552   8.757   7.082  0.9548  0.5319 -0.4376
  427MOL0     C57549   2.483   8.627   7.012  0.3965  0.1716 -0.1205
  427MOL0     C57550   2.359   8.650   6.935  0.2224 -0.3660 -0.4040
  427MOL0     C57551   2.268   8.525   6.925  0.8692 -0.1724  0.1872
  427MOL0     C57552   2.150   8.558   6.844  1.2350  0.0161  0.0340
  427MOL0     C57553   2.058   8.431   6.800 -0.1024 -0.1835 -0.2186
  427MOL0     C57554   1.927   8.474   6.727  0.2142 -0.7912  0.0822
  427MOL0    Cl57555   1.809   8.515   6.852  0.1157  0.0665 -0.0389
  427MOL0     C57556   2.809   8.816   6.871 -0.0057  0.6829  0.7997
  427MOL0     C57557   2.923   8.762   6.808 -0.5778  0.5721  0.6129
  427MOL0     O57558   3.170   8.891   6.616 -0.4136  0.4336  0.4352
  427MOL0     C57559   3.309   8.567   6.551 -0.0983 -0.2752 -1.5055
  427MOL0     C57560   3.420   8.517   6.496 -0.0174  0.3963 -0.2063
  427MOL0     N57561   4.121   8.642   5.897  0.1169  0.1251  1.0006
  427MOL0     N57562   4.241   8.671   5.865 -0.2932 -0.5125 -1.0129
  427MOL0     C57563   5.323   8.860   5.385 -0.0237  0.9913  0.6290
  427MOL0     C57564   5.458   8.889   5.344 -0.0659  0.3466 -0.1639
  427MOL0     C57565   5.896   8.870   5.248 -0.5609 -0.1153 -0.2554
  427MOL0     C57566   5.978   8.859   5.364 -0.1863  0.3260 -0.0547
  427MOL0     C57567   6.112   8.885   5.345  0.2415  0.1130  0.8692
  427MOL0     C57568   6.167   8.918   5.219 -0.0024 -0.1762 -0.6025
  427MOL0     O57569   6.302   8.942   5.208  0.8225 -1.0156  0.0848
  427MOL0     C57570   6.352   9.044   5.293  0.1692  0.5961  0.6538
  427MOL0     C57571   6.494   9.101   5.262 -0.5619 -0.0077 -0.4269
  427MOL0     C57572   6.527   9.143   5.114 -0.4075 -0.7401  0.4035
  427MOL0     C57573   6.415   9.212   5.053 -0.5568  0.1007  0.4998
  427MOL0     C57574   6.460   9.313   4.958  0.2193  1.5188  0.1729
  427MOL0     C57575   6.494   9.372   4.862  0.1429 -0.7206  0.8560
  427MOL0     C57576   6.089   8.908   5.100 -0.9056 -0.0979 -0.4162
  427MOL0     C57577   5.960   8.889   5.120  0.9664  0.4082 -0.5469
  427MOL0     H57578   5.615   8.779   5.619 -0.0674 -0.6828  1.2276
  427MOL0     H57579   5.373   8.706   5.670 -1.4122 -2.3254 -2.1781
  427MOL0     H57580   5.201   8.588   5.621 -1.0856 -0.9750 -1.1349
  427MOL0     H57581   5.128   8.702   5.741 -2.5453  0.7428 -0.1478
  427MOL0     H57582   4.924   8.690   5.616  0.0986 -1.2982  1.6724
  427MOL0     H57583   4.980   8.591   5.489  0.0189 -0.7372 -0.1052
  427MOL0     H57584   4.873   8.418   5.634  1.4608 -0.9404 -2.9993
  427MOL0     H57585   5.043   8.415   5.678 -0.8529 -0.8249 -0.8882
  427MOL0     H57586   4.932   8.429   5.876  1.5780  0.5319  0.9728
  427MOL0     H57587   4.955   8.600   5.857  1.2421 -1.0350 -1.4488
  427MOL0     H57588   4.745   8.659   5.868  4.3028 -1.2506  3.5031
  427MOL0     H57589   4.714   8.567   5.719  0.6864 -0.5353  0.2099
  427MOL0     H57590   4.683   8.360   5.858  3.6343  0.0158 -0.8179
  427MOL0     H57591   4.712   8.461   6.002 -1.5649  0.3872  0.6966
  427MOL0     H57592   4.488   8.472   5.798  2.5106 -2.2360 -0.7300
  427MOL0     H57593   4.469   8.418   5.963 -2.4030  0.3537 -0.2276
  427MOL0     H57594   4.519   8.718   5.898  2.7451  0.2925  2.1206
  427MOL0     H57595   4.519   8.656   6.050 -0.4263  0.4083  0.3174
  427MOL0     H57596   4.281   8.496   6.137 -0.9021  0.5313  1.7329
  427MOL0     H57597   3.959   8.443   5.983 -3.5927  0.7517  1.9769
  427MOL0     H57598   4.060   8.423   6.130 -0.2786  0.1975 -0.4916
  427MOL0     H57599   3.864   8.652   6.073 -2.6522  0.2620  1.4515
  427MOL0     H57600   3.990   8.666   6.183 -1.0893  1.9351 -0.8264
  427MOL0     H57601   3.890   8.468   6.303  1.0648  0.7343 -0.0678
  427MOL0     H57602   3.781   8.430   6.165  1.3908 -0.1942 -0.7998
  427MOL0     H57603   3.637   8.611   6.196  1.3314  0.9168 -0.9218
  427MOL0     H57604   3.741   8.695   6.309  1.0985 -0.9920  1.5837
  427MOL0     H57605   3.562   8.784   6.377 -0.4996  2.0199  2.3339
  427MOL0     H57606   3.262   8.953   6.416 -0.8832 -2.5623 -0.9297
  427MOL0     H57607   3.402   8.995   6.524 -4.1247 -1.8833  3.0287
  427MOL0     H57608   3.422   8.963   6.349 -1.0977  0.5466 -0.4194
  427MOL0     H57609   2.826   8.807   6.488  0.4261  1.8325  0.1100
  427MOL0     H57610   2.613   8.860   6.606 -1.3591 -1.6452  1.9729
  427MOL0     H57611   2.625   8.962   7.033 -0.5484  0.7938 -0.5949
  427MOL0     H57612   2.458   8.947   7.015  1.0626  2.9155 -1.7312
  427MOL0     H57613   2.657   8.736   7.104  1.1209 -1.3355 -2.6071
  427MOL0     H57614   2.513   8.769   7.183 -2.3252 -2.4016 -1.1739
  427MOL0     H57615   2.463   8.553   7.090  1.1194  0.4555  0.3482
  427MOL0     H57616   2.554   8.589   6.939 -1.4278 -0.2498 -1.7594
  427MOL0     H57617   2.289   8.710   6.993 -4.0968 -4.4418 -0.7763
  427MOL0     H57618   2.388   8.693   6.839 -0.7865  1.9325  0.2621
  427MOL0     H57619   2.241   8.489   7.025  2.0799 -0.3623  0.4669
  427MOL0     H57620   2.320   8.444   6.872  0.9222 -0.1877  0.2635
  427MOL0     H57621   2.085   8.631   6.894  2.7338  1.8701 -0.6224
  427MOL0     H57622   2.166   8.613   6.751  1.3967 -2.6005 -1.5903
  427MOL0     H57623   2.026   8.383   6.893 -2.8620  0.1339 -0.9199
  427MOL0     H57624   2.114   8.368   6.731 -0.9097  1.3854 -2.4348
  427MOL0     H57625   1.879   8.396   6.666 -1.6373  0.3919 -0.0431
  427MOL0     H57626   1.931   8.573   6.682 -2.3150  1.1011  3.5886
  427MOL0     H57627   2.817   8.815   6.979  0.5992  1.2430  0.7647
  427MOL0     H57628   3.018   8.742   6.857  0.5482 -0.8884 -1.9469
  427MOL0     H57629   3.236   8.503   6.601  2.0326 -1.2004  0.6124
  427MOL0     H57630   3.439   8.413   6.520 -1.1483  0.3153  0.4069
  427MOL0     H57631   5.247   8.903   5.321 -0.8906  0.5144  1.3275
  427MOL0     H57632   5.469   8.934   5.246 -1.0548  0.5539 -0.1901
  427MOL0     H57633   5.928   8.853   5.460 -1.9667  0.0353 -0.9505
  427MOL0     H57634   6.165   8.881   5.440  0.6219  0.0609  0.6554
  427MOL0     H57635   6.272   9.118   5.304 -0.2745  0.0475  1.1691
  427MOL0     H57636   6.356   9.000   5.394 -1.3444  0.7305  0.7910
  427MOL0     H57637   6.566   9.028   5.302 -1.3748 -1.3139 -1.2907
  427MOL0     H57638   6.510   9.182   5.334  0.7198 -1.5509  1.0992
  427MOL0     H57639   6.557   9.064   5.045 -0.5756 -0.3499 -0.1289
  427MOL0     H57640   6.612   9.209   5.132 -1.7874  0.3547  3.7174
  427MOL0     H57641   6.357   9.263   5.130 -1.0323 -1.4973  1.2381
  427MOL0     H57642   6.353   9.134   5.008 -0.5110  0.7962 -0.8448
  427MOL0     H57643   6.510   9.421   4.768 -0.7674 -1.0795  0.5041
  427MOL0     H57644   6.126   8.918   4.998 -3.5052 -0.2157 -1.4282
  427MOL0     H57645   5.892   8.875   5.037 -2.4484  2.1757  1.6902
  428MOL0     O57646   3.744   8.095   3.600 -0.5649 -0.3145 -1.2719
  428MOL0     C57647   3.859   8.075   3.561  0.6087 -0.3750 -0.0340
  428MOL0     O57648   3.931   8.164   3.487 -0.2496  1.1401  0.4748
  428MOL0     C57649   3.878   8.286   3.455 -0.2690 -0.3146  0.0738
  428MOL0     C57650   3.746   8.319   3.434  0.2474  0.0163  0.8418
  428MOL0     C57651   3.706   8.450   3.409  0.4403 -0.8207  0.8241
  428MOL0     C57652   3.805   8.549   3.400  1.0135  0.1977 -0.4728
  428MOL0     O57653   3.789   8.683   3.378  0.2607  0.4995 -0.8129
  428MOL0     C57654   3.679   8.733   3.311  0.1137 -1.3115  0.1454
  428MOL0     C57655   3.600   8.814   3.416 -0.0952 -0.6156 -0.4264
  428MOL0     C57656   3.453   8.797   3.395 -0.0539  0.4982 -0.5103
  428MOL0     C57657   3.370   8.882   3.489  0.0629 -0.3386 -0.0022
  428MOL0     C57658   3.230   8.907   3.441  0.4381  0.5138 -0.1579
  428MOL0     C57659   3.155   8.996   3.531 -0.5196  0.2618 -1.1853
  428MOL0     C57660   3.015   9.001   3.483 -0.0099  0.4820  0.0246
  428MOL0     C57661   2.917   9.062   3.579 -1.1540  0.0893  0.5001
  428MOL0     N57662   2.786   9.081   3.510  0.4680  0.0899  0.1088
  428MOL0     C57663   2.720   9.195   3.459  0.0259  1.5516 -0.3909
  428MOL0     C57664   2.605   9.149   3.412  0.3936  0.1350  0.3109
  428MOL0     C57665   2.494   9.228   3.334  0.2398 -0.3235 -0.3085
  428MOL0     C57666   2.404   9.324   3.421 -0.4113  0.2481  0.1808
  428MOL0     C57667   2.338   9.238   3.541 -0.4038 -0.3859  0.3066
  428MOL0     C57668   2.217   9.302   3.621 -0.2068  0.1807 -0.3716
  428MOL0     O57669   2.117   9.354   3.532  0.7614 -0.0587 -0.2239
  428MOL0     C57670   2.064   9.483   3.548 -0.7111  0.5023 -0.1486
  428MOL0     C57671   2.144   9.593   3.591 -0.7453  0.1014  0.1094
  428MOL0     C57672   2.094   9.724   3.605  0.1131  0.4254 -0.0193
  428MOL0     C57673   2.184   9.834   3.660  0.0274 -0.0951 -1.3166
  428MOL0     C57674   1.961   9.754   3.573 -0.5349  0.6500  1.1384
  428MOL0     C57675   1.891   9.880   3.595  0.0802 -0.0758 -0.1943
  428MOL0     O57676   1.762   9.877   3.563  0.2717  0.2891  0.1152
  428MOL0     C57677   1.673   9.979   3.545  0.2866 -0.8173  0.2828
  428MOL0     C57678   1.693  10.112   3.557  0.4692  0.0065 -0.1966
  428MOL0     C57679   1.587  10.203   3.529  0.1718 -0.0897 -0.0827
  428MOL0     C57680   1.465  10.155   3.488 -0.3277  0.3704  0.5170
  428MOL0     O57681   1.373  10.236   3.434  0.2967  0.4871  1.0398
  428MOL0     C57682   1.389  10.378   3.408 -0.8191 -0.2939  1.0838
  428MOL0     C57683   1.270  10.433   3.347 -0.1312 -0.2950  0.2474
  428MOL0     C57684   1.143  10.443   3.446 -1.4348 -0.8406  0.3230
  428MOL0     C57685   1.150  10.531   3.579  0.3126  0.5194  0.6008
  428MOL0     C57686   1.017  10.514   3.642 -0.3591  0.3343  0.1138
  428MOL0     C57687   0.979  10.371   3.686  0.3732 -0.7411  0.1441
  428MOL0     C57688   0.850  10.378   3.764 -0.0270 -0.2967 -0.9746
  428MOL0     C57689   0.853  10.408   3.914  0.4825  0.0529  0.4388
  428MOL0    Cl57690   0.942  10.280   3.988  0.3956 -0.4010  0.6983
  428MOL0     C57691   1.446  10.023   3.486  0.4043 -0.6206 -0.1017
  428MOL0     C57692   1.543   9.927   3.521 -0.1900 -0.3523  0.5748
  428MOL0     O57693   1.956   9.983   3.630  0.6784  0.3133 -0.2364
  428MOL0     C57694   1.893   9.650   3.516  0.1494 -0.2199  0.9651
  428MOL0     C57695   1.940   9.518   3.500  0.3510 -1.0954 -0.4968
  428MOL0     N57696   2.601   9.015   3.431 -0.1155 -0.0701  0.3694
  428MOL0     N57697   2.710   8.974   3.489  1.2860 -0.0907 -0.0753
  428MOL0     C57698   3.937   8.503   3.413 -0.2038 -1.4484  0.8771
  428MOL0     C57699   3.974   8.377   3.433 -0.1331  0.7989 -0.1186
  428MOL0     C57700   3.921   7.957   3.624  0.9129  0.3679  0.6429
  428MOL0     C57701   3.858   7.837   3.637  0.3267 -1.2177 -0.8187
  428MOL0     C57702   3.923   7.727   3.693 -0.0834  0.0308  0.0157
  428MOL0     C57703   4.058   7.729   3.729  0.4348  0.1732 -0.3882
  428MOL0     O57704   4.116   7.608   3.760 -0.0501 -0.0785  0.2556
  428MOL0     C57705   4.186   7.603   3.889  0.4725  0.3893 -0.1706
  428MOL0     C57706   4.080   7.562   3.992  0.2041  0.9278 -0.1587
  428MOL0     C57707   4.020   7.428   3.967 -0.2135  0.6841  0.5057
  428MOL0     C57708   3.913   7.404   4.069  1.2539 -1.0140  0.3297
  428MOL0     C57709   3.785   7.466   4.031  0.0345  0.0318  0.3368
  428MOL0     C57710   3.692   7.534   3.998 -0.3515 -0.1177  0.4450
  428MOL0     C57711   4.114   7.856   3.723  0.0804  0.8128  0.4340
  428MOL0     C57712   4.056   7.962   3.662  0.7026  0.0578  0.0877
  428MOL0     H57713   3.666   8.247   3.444 -0.0453  0.1595 -0.3150
  428MOL0     H57714   3.605   8.490   3.398 -0.0590 -2.3608 -0.4837
  428MOL0     H57715   3.720   8.797   3.234 -1.6998  0.2459  0.3916
  428MOL0     H57716   3.617   8.658   3.260 -2.0940  1.0147 -0.7994
  428MOL0     H57717   3.614   8.773   3.516 -0.5048  1.1170  0.3819
  428MOL0     H57718   3.627   8.920   3.417 -0.3380 -0.4583 -2.9144
  428MOL0     H57719   3.410   8.806   3.295 -0.0621  0.3543 -0.5199
  428MOL0     H57720   3.436   8.693   3.426  3.4667  0.1355  0.7163
  428MOL0     H57721   3.364   8.829   3.584 -4.3425 -3.0220 -1.4623
  428MOL0     H57722   3.423   8.978   3.492  0.7241 -0.6729 -0.7659
  428MOL0     H57723   3.229   8.951   3.341 -0.6424 -0.2247 -0.4937
  428MOL0     H57724   3.180   8.811   3.424  0.5750  0.4594 -0.2518
  428MOL0     H57725   3.147   8.960   3.634 -3.3701  0.4156 -1.2543
  428MOL0     H57726   3.205   9.093   3.539 -1.8926  0.8897  0.4202
  428MOL0     H57727   3.010   9.052   3.386 -0.3148 -0.2294 -0.3467
  428MOL0     H57728   2.977   8.901   3.458  1.4333 -0.6323  2.0199
  428MOL0     H57729   2.957   9.141   3.643  0.3880 -1.3118  1.3609
  428MOL0     H57730   2.895   8.980   3.649 -0.8992  0.1637  0.6710
  428MOL0     H57731   2.749   9.299   3.454  0.7964  1.3280 -0.8035
  428MOL0     H57732   2.550   9.277   3.254 -1.0387  0.4752 -0.7463
  428MOL0     H57733   2.425   9.162   3.280 -0.2644  1.5361 -2.0099
  428MOL0     H57734   2.329   9.370   3.357  0.6929  1.0622 -0.5758
  428MOL0     H57735   2.455   9.411   3.466  0.8374 -0.3038 -0.1268
  428MOL0     H57736   2.417   9.209   3.612 -0.6669  0.0760  0.8000
  428MOL0     H57737   2.279   9.152   3.510 -3.9553  0.0202  4.8621
  428MOL0     H57738   2.240   9.381   3.694 -0.1311 -0.9278  0.8417
  428MOL0     H57739   2.162   9.228   3.680 -1.1268  2.2679  1.5772
  428MOL0     H57740   2.249   9.584   3.617 -1.0392 -0.4943  1.1247
  428MOL0     H57741   2.291   9.808   3.661  0.1842  0.5295 -0.2229
  428MOL0     H57742   2.174   9.921   3.595 -1.3138 -0.5774 -1.7909
  428MOL0     H57743   2.163   9.870   3.761  1.0894  0.6828 -1.3477
  428MOL0     H57744   1.787  10.158   3.584  0.2288 -0.5030  1.6045
  428MOL0     H57745   1.592  10.311   3.528  0.5381 -0.0853  1.1381
  428MOL0     H57746   1.409  10.428   3.503  1.2906 -1.1819  1.1609
  428MOL0     H57747   1.477  10.386   3.344 -2.0679 -0.4416 -0.7146
  428MOL0     H57748   1.291  10.533   3.307 -2.7015 -0.3701 -1.5026
  428MOL0     H57749   1.228  10.377   3.264 -1.1011  2.7056 -1.4268
  428MOL0     H57750   1.141  10.338   3.476  3.3149 -1.0883  0.5276
  428MOL0     H57751   1.055  10.466   3.386 -1.6211 -0.1439  0.8464
  428MOL0     H57752   1.233  10.496   3.641  0.7803 -1.3783 -1.0023
  428MOL0     H57753   1.161  10.637   3.552  1.7857  0.2767  0.1517
  428MOL0     H57754   0.938  10.549   3.575 -2.2421  0.2612  2.1641
  428MOL0     H57755   1.000  10.565   3.737  1.6120  0.8530  0.2228
  428MOL0     H57756   0.957  10.316   3.594  0.8518  1.4118 -1.3124
  428MOL0     H57757   1.068  10.328   3.734  2.1154  1.0595 -1.3275
  428MOL0     H57758   0.819  10.273   3.754  2.3347 -1.1075 -0.3513
  428MOL0     H57759   0.787  10.454   3.717 -2.1628 -0.3768  1.4714
  428MOL0     H57760   0.748  10.400   3.941  0.7361  1.6369  2.0874
  428MOL0     H57761   0.884  10.508   3.945 -2.4705  1.0191  0.5397
  428MOL0     H57762   1.343   9.992   3.471  0.9298 -2.2928 -0.4836
  428MOL0     H57763   1.515   9.823   3.508 -1.3083  0.0333 -0.1994
  428MOL0     H57764   1.804   9.671   3.458  1.4916  2.8019 -0.2170
  428MOL0     H57765   1.899   9.451   3.425  1.8971  1.6695 -4.1293
  428MOL0     H57766   3.995   8.592   3.393 -3.0933 -0.2705 -3.8695
  428MOL0     H57767   4.079   8.360   3.456 -0.8179  0.4102  3.3734
  428MOL0     H57768   3.750   7.832   3.625 -0.0766  0.5153  1.4140
  428MOL0     H57769   3.866   7.634   3.690 -2.7683  1.5594 -0.2927
  428MOL0     H57770   4.274   7.538   3.886 -0.2633 -0.7398 -4.3751
  428MOL0     H57771   4.211   7.707   3.912  0.3378  0.2689  0.5116
  428MOL0     H57772   4.004   7.641   3.999  1.7660  2.3773  1.0790
  428MOL0     H57773   4.116   7.549   4.095 -1.2813 -2.6617  0.0689
  428MOL0     H57774   4.090   7.346   3.987 -0.8410  0.8978  4.3251
  428MOL0     H57775   3.990   7.416   3.863  0.7989 -2.0121  0.4407
  428MOL0     H57776   3.935   7.446   4.168 -4.1163  1.8727  0.6643
  428MOL0     H57777   3.893   7.297   4.078 -1.8068 -0.4950  0.5950
  428MOL0     H57778   3.621   7.610   3.975 -0.5293 -0.2093  0.6874
  428MOL0     H57779   4.218   7.882   3.740  0.4519 -0.2628 -0.0728
  428MOL0     H57780   4.120   8.048   3.645 -0.5051  1.4304  2.0150
  429MOL0     O57781  11.292   6.617   6.058 -1.0586 -0.2385 -0.0376
  429MOL0     C57782  11.271   6.725   6.106 -0.3798  0.6099 -1.0187
  429MOL0     O57783  11.168   6.806   6.090 -0.5237  0.3353  0.1903
  429MOL0     C57784  11.045   6.784   6.029 -0.2390 -0.2299  0.6739
  429MOL0     C57785  10.982   6.660   6.035  0.6466 -0.4302  0.6683
  429MOL0     C57786  10.859   6.630   5.983 -0.2122  0.7694 -0.3523
  429MOL0     C57787  10.772   6.730   5.937 -0.2900 -0.1549 -0.3104
  429MOL0     O57788  10.636   6.718   5.898 -0.1495 -0.4432  0.1121
  429MOL0     C57789  10.593   6.583   5.869 -0.5216 -0.5968  0.3254
  429MOL0     C57790  10.542   6.520   5.999  0.1561  0.7147  0.4594
  429MOL0     C57791  10.457   6.627   6.072 -0.5878  0.0956 -0.1789
  429MOL0     C57792  10.443   6.589   6.223 -1.4840 -0.1845 -0.0164
  429MOL0     C57793  10.339   6.661   6.296 -0.0019  0.2865 -0.3572
  429MOL0     C57794  10.342   6.641   6.447 -0.5962  0.2834  0.1621
  429MOL0     C57795  10.275   6.759   6.521 -0.3471 -0.2509  1.1856
  429MOL0     C57796  10.123   6.751   6.506  0.1088  1.4657 -0.0155
  429MOL0     N57797  10.053   6.673   6.615  0.3537 -0.5864  0.1217
  429MOL0     C57798  10.020   6.722   6.743  0.8531  0.4163 -0.3814
  429MOL0     C57799   9.918   6.635   6.792 -0.0489  0.2641  0.5664
  429MOL0     C57800   9.842   6.646   6.919  0.1370 -0.5110 -0.5492
  429MOL0     C57801   9.739   6.753   6.898  1.3230 -1.5128 -0.2855
  429MOL0     C57802   9.781   6.905   6.925 -0.0736 -0.2681 -0.3601
  429MOL0     C57803   9.789   6.945   7.077 -1.4089 -0.2210 -0.3057
  429MOL0     O57804   9.843   7.077   7.079 -0.3457  0.8576 -0.4265
  429MOL0     C57805   9.863   7.131   7.203 -0.4281  0.6298 -0.1056
  429MOL0     C57806   9.815   7.077   7.328  0.9562 -0.9583  0.1480
  429MOL0     C57807   9.839   7.134   7.454 -0.2041  0.3540 -0.9106
  429MOL0     C57808   9.789   7.067   7.583  0.3228 -0.5103  0.0756
  429MOL0     C57809   9.929   7.243   7.460  0.6597 -0.4592  0.5011
  429MOL0     C57810   9.963   7.313   7.586  0.3252  0.3455 -0.3484
  429MOL0     O57811  10.083   7.384   7.570  0.7231 -0.6399  0.3365
  429MOL0     C57812  10.108   7.492   7.652 -0.0034 -0.3459  0.7904
  429MOL0     C57813  10.237   7.534   7.682  0.0853  0.0743  0.1458
  429MOL0     C57814  10.266   7.651   7.763 -0.1079  0.6904  0.1691
  429MOL0     C57815  10.156   7.737   7.785 -0.7987  0.8270 -0.0968
  429MOL0     O57816  10.173   7.840   7.866  0.0171 -0.2807 -0.3234
  429MOL0     C57817  10.195   7.954   7.786 -0.0701 -0.4894 -1.7466
  429MOL0     C57818  10.270   8.037   7.891 -0.4457 -0.2610  0.1574
  429MOL0     C57819  10.351   8.146   7.808  0.6609 -0.5492  0.0049
  429MOL0     C57820  10.428   8.243   7.899  0.1483 -0.0044 -1.0463
  429MOL0     C57821  10.528   8.334   7.822  1.0431  0.0592 -0.1571
  429MOL0     C57822  10.603   8.429   7.902  0.4189 -0.2865 -0.2985
  429MOL0     C57823  10.678   8.541   7.827 -0.2106 -0.4540  0.0310
  429MOL0     C57824  10.690   8.667   7.916 -0.0325 -0.6742 -0.2493
  429MOL0    Cl57825  10.783   8.792   7.830  0.2848  0.0290  0.1468
  429MOL0     C57826  10.032   7.714   7.732  0.2004 -0.8029  1.3971
  429MOL0     C57827  10.011   7.592   7.666  0.3728  0.1860 -0.2239
  429MOL0     O57828   9.898   7.311   7.685  0.2572  0.0773 -0.9933
  429MOL0     C57829   9.984   7.290   7.336 -0.1183 -0.4471 -0.1409
  429MOL0     C57830   9.950   7.235   7.207  0.0506  0.5541  0.1968
  429MOL0     N57831   9.894   6.546   6.692 -0.1046 -0.2247 -0.2129
  429MOL0     N57832   9.974   6.563   6.594 -0.0226 -0.2219  0.4431
  429MOL0     C57833  10.835   6.857   5.923 -0.0689 -0.5684  1.3855
  429MOL0     C57834  10.966   6.882   5.969 -0.3300 -0.4536  1.0462
  429MOL0     C57835  11.389   6.760   6.196 -0.3051 -0.6394  0.2603
  429MOL0     C57836  11.362   6.865   6.284 -0.1555  0.4620 -0.3999
  429MOL0     C57837  11.475   6.929   6.352  0.8072  0.1058 -0.1498
  429MOL0     C57838  11.598   6.882   6.340  0.3110  0.6169  0.5719
  429MOL0     O57839  11.695   6.914   6.428  0.0652  0.7114 -0.3439
  429MOL0     C57840  11.708   7.038   6.504  0.1150 -0.1576 -0.9254
  429MOL0     C57841  11.844   7.044   6.573 -0.1482 -0.0193 -0.5463
  429MOL0     C57842  11.962   7.072   6.485 -0.9130  0.2275  0.2517
  429MOL0     C57843  11.974   7.216   6.445  0.4034 -0.9312  0.0079
  429MOL0     C57844  12.093   7.235   6.369  1.0294 -0.2429 -0.6509
  429MOL0     C57845  12.195   7.249   6.307 -0.0121  0.1453  0.3312
  429MOL0     C57846  11.620   6.776   6.258  0.4736  0.6096 -0.3743
  429MOL0     C57847  11.521   6.710   6.183  0.2920 -0.9094 -0.6481
  429MOL0     H57848  11.040   6.577   6.074  1.4277 -1.7445 -2.8939
  429MOL0     H57849  10.835   6.524   5.980  1.3661  0.3142  1.0415
  429MOL0     H57850  10.517   6.602   5.792  1.1320 -3.6295 -2.2971
  429MOL0     H57851  10.668   6.523   5.817 -1.3078 -0.7241 -0.6848
  429MOL0     H57852  10.485   6.428   5.985  1.8564 -0.5154  1.1555
  429MOL0     H57853  10.629   6.498   6.062  2.1660  2.9995 -1.3303
  429MOL0     H57854  10.489   6.731   6.064 -0.8239  0.0635 -1.7252
  429MOL0     H57855  10.358   6.623   6.026 -0.0300 -1.8358 -1.3141
  429MOL0     H57856  10.433   6.481   6.233  6.0857 -1.2989  1.5190
  429MOL0     H57857  10.539   6.612   6.271 -1.1400 -1.3056 -0.1492
  429MOL0     H57858  10.352   6.768   6.278 -3.3165  0.6669 -1.0827
  429MOL0     H57859  10.242   6.641   6.251 -1.1996 -0.2185  2.2350
  429MOL0     H57860  10.296   6.546   6.477 -1.3755  0.3901 -0.6544
  429MOL0     H57861  10.448   6.633   6.473 -0.2694 -1.5802 -1.4884
  429MOL0     H57862  10.307   6.760   6.626 -1.8354 -2.1577  1.7215
  429MOL0     H57863  10.325   6.850   6.487 -0.2974 -0.8678 -0.4959
  429MOL0     H57864  10.094   6.691   6.420 -0.2464 -2.4582  2.5767
  429MOL0     H57865  10.089   6.855   6.502  1.6085  2.1169  2.0817
  429MOL0     H57866  10.057   6.818   6.776  0.0931 -0.4475  3.4249
  429MOL0     H57867   9.781   6.557   6.935 -1.8171  0.7389 -0.6109
  429MOL0     H57868   9.898   6.667   7.011 -3.1053 -0.4843  1.5744
  429MOL0     H57869   9.653   6.721   6.957 -1.0990 -0.7312 -3.1623
  429MOL0     H57870   9.711   6.760   6.793  0.9996  1.0547 -0.0830
  429MOL0     H57871   9.704   6.968   6.879  0.1335 -1.4637 -2.4713
  429MOL0     H57872   9.880   6.919   6.882  1.1090  0.1221  2.2924
  429MOL0     H57873   9.849   6.879   7.140  2.3387  2.1025 -1.1136
  429MOL0     H57874   9.690   6.952   7.122 -0.2510  2.0953  2.1056
  429MOL0     H57875   9.752   6.989   7.332  0.0461 -0.3082  0.5956
  429MOL0     H57876   9.870   7.044   7.654  0.5886 -1.6011 -0.5662
  429MOL0     H57877   9.735   7.137   7.648 -0.1016  0.5321 -1.3346
  429MOL0     H57878   9.732   6.976   7.568  0.6893 -0.8065  0.4542
  429MOL0     H57879  10.326   7.479   7.654  0.1428  0.8087 -1.1430
  429MOL0     H57880  10.369   7.661   7.794  0.9707 -1.4076 -2.3394
  429MOL0     H57881  10.258   7.938   7.698 -0.7230  2.3925 -2.8353
  429MOL0     H57882  10.105   8.005   7.750 -1.2949 -0.8300  0.6375
  429MOL0     H57883  10.194   8.092   7.949 -0.3917  1.8670 -1.6456
  429MOL0     H57884  10.330   7.979   7.962 -1.8425 -1.1309  0.6819
  429MOL0     H57885  10.280   8.200   7.744  2.1693  1.9863  0.3128
  429MOL0     H57886  10.428   8.099   7.747  2.8093  3.0655 -0.4135
  429MOL0     H57887  10.359   8.300   7.961 -0.1185 -0.2276 -1.1363
  429MOL0     H57888  10.483   8.175   7.965 -2.2193 -0.3512  0.7049
  429MOL0     H57889  10.463   8.381   7.748  1.5340 -1.0441 -1.3179
  429MOL0     H57890  10.596   8.271   7.764 -0.1824 -1.7944  0.3341
  429MOL0     H57891  10.529   8.472   7.970  0.2276 -1.1676  0.0649
  429MOL0     H57892  10.677   8.372   7.958  0.6056  1.6446  1.5461
  429MOL0     H57893  10.640   8.565   7.728  0.3625  1.9223  0.3207
  429MOL0     H57894  10.778   8.500   7.808 -1.6161 -3.7192 -1.0723
  429MOL0     H57895  10.719   8.642   8.019 -0.1214 -1.2463 -0.3621
  429MOL0     H57896  10.588   8.706   7.918 -0.4066 -1.4636 -2.0307
  429MOL0     H57897   9.959   7.794   7.731 -0.0867 -1.0684  0.4143
  429MOL0     H57898   9.914   7.562   7.627 -0.7322  0.7230  1.9533
  429MOL0     H57899  10.067   7.360   7.332 -0.4401 -0.1111 -1.5016
  429MOL0     H57900   9.998   7.274   7.117  0.0619  0.5305  0.1923
  429MOL0     H57901  10.785   6.945   5.882  1.8246 -0.0880 -0.0526
  429MOL0     H57902  11.001   6.984   5.956  0.6986 -1.0312 -1.3391
  429MOL0     H57903  11.262   6.907   6.289  0.6639  2.6415 -0.9962
  429MOL0     H57904  11.453   7.008   6.424  0.8054 -0.2726  0.2704
  429MOL0     H57905  11.688   7.124   6.441  1.7382  0.7644 -0.2513
  429MOL0     H57906  11.641   7.033   6.591  0.6349 -0.7132 -0.5479
  429MOL0     H57907  11.872   6.946   6.614 -1.3411 -0.4479 -0.7057
  429MOL0     H57908  11.834   7.115   6.656 -1.8874 -0.8886  0.0390
  429MOL0     H57909  11.964   7.015   6.392 -0.2058  2.6144 -1.2718
  429MOL0     H57910  12.059   7.039   6.525 -1.5308 -3.7538 -1.0578
  429MOL0     H57911  11.973   7.283   6.531  0.2266  0.7726 -1.2835
  429MOL0     H57912  11.897   7.250   6.375 -0.2924  0.0753  1.2166
  429MOL0     H57913  12.289   7.245   6.257 -0.5326 -2.3862 -0.5997
  429MOL0     H57914  11.720   6.734   6.252  0.7809  1.1601  0.6754
  429MOL0     H57915  11.547   6.650   6.097 -0.0509  0.3324 -1.6465
  430MOL0     O57916   2.201   0.227   0.362  0.1059 -0.1600 -0.7264
  430MOL0     C57917   2.210   0.106   0.365  0.3117 -0.4408  0.6525
  430MOL0     O57918   2.262   0.026   0.470 -0.6173  0.1563  0.3174
  430MOL0     C57919   2.363   0.084   0.547 -0.6564  0.6842 -1.6773
  430MOL0     C57920   2.499   0.039   0.557  0.2609 -1.1536 -0.3525
  430MOL0     C57921   2.602   0.099   0.636 -0.0517 -1.0978 -0.1025
  430MOL0     C57922   2.565   0.211   0.715 -0.1579  0.2012 -0.1705
  430MOL0     O57923   2.653   0.290   0.791  0.2155 -0.1676 -0.3179
  430MOL0     C57924   2.795   0.275   0.767 -0.9573  0.9412 -0.3833
  430MOL0     C57925   2.853   0.373   0.870 -0.5227 -0.5571  0.0618
  430MOL0     C57926   2.778   0.504   0.895 -0.3799 -0.2402 -0.3009
  430MOL0     C57927   2.856   0.604   0.975 -0.2612  0.0532 -0.2171
  430MOL0     C57928   2.798   0.735   1.021  0.2621  0.0920  0.0530
  430MOL0     C57929   2.903   0.806   1.110  0.3598 -0.5380 -0.5245
  430MOL0     C57930   2.848   0.936   1.151 -0.1090 -0.9293 -0.6735
  430MOL0     C57931   2.952   1.013   1.231 -0.2353  0.6362  0.0690
  430MOL0     N57932   3.083   1.026   1.175 -0.5931 -1.2980 -0.0396
  430MOL0     C57933   3.113   1.094   1.058  0.1599  0.0666  0.2298
  430MOL0     C57934   3.248   1.094   1.047  0.8659  0.1590  1.2175
  430MOL0     C57935   3.329   1.159   0.935  0.0909  0.1828 -0.0453
  430MOL0     C57936   3.446   1.228   0.992  0.3151  0.0703  0.2061
  430MOL0     C57937   3.534   1.287   0.880  0.5092 -0.1142 -0.2843
  430MOL0     C57938   3.680   1.299   0.926 -0.3547 -0.0550 -0.3103
  430MOL0     O57939   3.738   1.355   0.816  0.0738  0.2691 -0.0180
  430MOL0     C57940   3.869   1.385   0.817 -0.1128 -0.7858 -0.6757
  430MOL0     C57941   3.944   1.324   0.916  0.7288  0.0518 -0.6622
  430MOL0     C57942   4.084   1.334   0.917 -0.1392 -0.7566 -0.6777
  430MOL0     C57943   4.163   1.268   1.031  0.5717 -1.2688 -0.2538
  430MOL0     C57944   4.138   1.401   0.803  0.2151 -0.0433  0.8831
  430MOL0     C57945   4.279   1.396   0.771 -0.1273 -0.1464 -0.6508
  430MOL0     O57946   4.315   1.503   0.693  0.7035 -0.6480  0.5076
  430MOL0     C57947   4.443   1.502   0.648 -0.4171  0.8109  0.1588
  430MOL0     C57948   4.461   1.464   0.516 -0.5253  1.0482 -0.2137
  430MOL0     C57949   4.593   1.457   0.466 -0.0437  0.4450 -0.0588
  430MOL0     C57950   4.706   1.479   0.546 -0.0541 -0.0915  0.8832
  430MOL0     O57951   4.832   1.485   0.495  0.0734  0.0906  0.4637
  430MOL0     C57952   4.865   1.430   0.365  1.1324  0.7899 -0.3454
  430MOL0     C57953   5.018   1.434   0.349  0.7879 -0.0634 -0.2110
  430MOL0     C57954   5.090   1.327   0.426  0.2829 -0.1710 -0.7382
  430MOL0     C57955   5.068   1.186   0.350  0.0530 -0.1886 -0.3813
  430MOL0     C57956   5.105   1.075   0.439  0.1142  0.2525  0.0606
  430MOL0     C57957   5.125   0.931   0.375 -0.3058 -0.5783 -0.0421
  430MOL0     C57958   5.243   0.922   0.286 -0.5341 -0.0419 -0.9363
  430MOL0     C57959   5.256   0.787   0.227 -0.6268 -0.3713  0.1943
  430MOL0    Cl57960   5.387   0.798   0.096  0.0958 -0.2386  0.2371
  430MOL0     C57961   4.680   1.495   0.681 -0.3508 -0.2282  0.6342
  430MOL0     C57962   4.557   1.513   0.734  0.5688  0.0183  0.0734
  430MOL0     O57963   4.353   1.304   0.815 -0.5181  0.2008  0.7429
  430MOL0     C57964   4.058   1.466   0.711 -0.8462  0.1571  0.7980
  430MOL0     C57965   3.923   1.457   0.718  0.4378  0.3413  0.2254
  430MOL0     N57966   3.295   1.028   1.163  0.0370 -0.5294  0.4847
  430MOL0     N57967   3.202   0.996   1.240  0.8307 -0.0355 -0.7549
  430MOL0     C57968   2.433   0.256   0.704 -1.1188 -0.3633 -0.8710
  430MOL0     C57969   2.334   0.188   0.635 -0.9545 -0.4864  0.0745
  430MOL0     C57970   2.203   0.030   0.235  0.3905  0.9865  0.5689
  430MOL0     C57971   2.246   0.093   0.117 -1.1228 -0.5896 -0.4651
  430MOL0     C57972   2.266   0.029   0.001 -0.1635  0.3640  0.1812
  430MOL0     C57973   2.220  -0.102  -0.024 -0.3768  0.4008  0.0314
  430MOL0     O57974   2.232  -0.163  -0.147  0.7497  0.3574  0.9579
  430MOL0     C57975   2.190  -0.304  -0.152 -0.3491 -0.4457  0.4258
  430MOL0     C57976   2.253  -0.363  -0.281 -0.2782 -0.5024 -0.5594
  430MOL0     C57977   2.226  -0.511  -0.282  0.5052  0.4364  0.7391
  430MOL0     C57978   2.258  -0.579  -0.413  0.0826 -0.8585 -0.0634
  430MOL0     C57979   2.207  -0.714  -0.407  0.1101  0.2914  0.2195
  430MOL0     C57980   2.153  -0.819  -0.415  0.8043  0.2281 -0.5161
  430MOL0     C57981   2.173  -0.177   0.097  0.0689 -0.2212 -0.0728
  430MOL0     C57982   2.157  -0.109   0.224  0.1144 -0.0847 -0.2611
  430MOL0     H57983   2.515  -0.058   0.509  0.6607 -1.1011 -0.3256
  430MOL0     H57984   2.702   0.062   0.654 -0.1659 -1.3273  0.0705
  430MOL0     H57985   2.819   0.171   0.793 -0.8461  0.8873 -0.6947
  430MOL0     H57986   2.834   0.293   0.666  2.1936  0.2863  0.5963
  430MOL0     H57987   2.848   0.311   0.960 -2.2975  0.3179  0.6058
  430MOL0     H57988   2.959   0.391   0.849 -0.0665 -3.7969 -1.0080
  430MOL0     H57989   2.771   0.550   0.796  1.1437  1.9674  0.5303
  430MOL0     H57990   2.672   0.494   0.923 -0.2645  1.7922  1.1084
  430MOL0     H57991   2.889   0.548   1.063 -2.2173  0.2714  0.7049
  430MOL0     H57992   2.950   0.619   0.922 -0.2956 -1.7698 -0.8661
  430MOL0     H57993   2.768   0.795   0.935 -0.9693  2.9866  2.3492
  430MOL0     H57994   2.715   0.714   1.089  1.0750  0.5852  1.2405
  430MOL0     H57995   2.932   0.745   1.195  1.3088 -0.4167 -0.7495
  430MOL0     H57996   2.985   0.823   1.039 -0.5689 -1.3726 -1.8595
  430MOL0     H57997   2.827   0.999   1.063  1.4773  2.7494  1.3134
  430MOL0     H57998   2.761   0.926   1.215  1.0946  0.3043  1.2647
  430MOL0     H57999   2.957   0.955   1.324 -2.4688 -0.7143 -0.5809
  430MOL0     H58000   2.923   1.117   1.250 -0.9621  0.6894 -1.2359
  430MOL0     H58001   3.041   1.144   0.994 -3.3377  0.9823  4.4129
  430MOL0     H58002   3.352   1.072   0.873 -0.9830 -1.5462  1.8606
  430MOL0     H58003   3.265   1.229   0.881  1.3025  0.6234 -0.9752
  430MOL0     H58004   3.504   1.165   1.060  1.7194 -0.1713 -1.1538
  430MOL0     H58005   3.409   1.310   1.055  1.5127  2.9144 -2.5262
  430MOL0     H58006   3.504   1.377   0.824  1.6982 -0.1363 -0.9897
  430MOL0     H58007   3.535   1.208   0.804  0.4288  1.6221 -2.1833
  430MOL0     H58008   3.717   1.200   0.954  1.9722  0.9511  0.4485
  430MOL0     H58009   3.691   1.366   1.012 -0.1641 -0.4732 -0.0069
  430MOL0     H58010   3.902   1.267   0.998  0.8214 -1.0994 -1.3798
  430MOL0     H58011   4.142   1.161   1.027 -3.6965 -0.6078 -4.2252
  430MOL0     H58012   4.270   1.284   1.044  0.2767 -0.6664  1.9938
  430MOL0     H58013   4.118   1.301   1.125  1.1562 -1.9859  0.2934
  430MOL0     H58014   4.369   1.440   0.465 -0.5863 -1.3924  0.8873
  430MOL0     H58015   4.597   1.449   0.358 -1.1077 -1.9482  0.0184
  430MOL0     H58016   4.828   1.329   0.346  0.5516  1.0911 -0.8655
  430MOL0     H58017   4.809   1.490   0.293 -2.1597  1.2691  2.3416
  430MOL0     H58018   5.045   1.439   0.243 -2.8281  1.2159 -1.2424
  430MOL0     H58019   5.052   1.532   0.385 -0.6763  0.5023 -0.2743
  430MOL0     H58020   5.044   1.314   0.524  0.1420 -0.3092 -0.8233
  430MOL0     H58021   5.193   1.364   0.428  1.0601 -2.0355 -2.6075
  430MOL0     H58022   4.963   1.184   0.317  0.1727  2.7341 -1.2445
  430MOL0     H58023   5.130   1.199   0.261 -0.7641  2.0804 -0.7000
  430MOL0     H58024   5.030   1.062   0.517 -2.4059  3.7183 -1.5261
  430MOL0     H58025   5.196   1.099   0.495 -1.3966  1.2021  2.2531
  430MOL0     H58026   5.136   0.863   0.460  1.7407  0.9652  1.0056
  430MOL0     H58027   5.041   0.892   0.317  1.0882 -2.0287 -1.1825
  430MOL0     H58028   5.335   0.946   0.341 -0.8744  0.8308 -0.7277
  430MOL0     H58029   5.240   0.995   0.205 -0.2182  0.7792 -0.2273
  430MOL0     H58030   5.163   0.769   0.172 -1.6458  0.4340  1.6007
  430MOL0     H58031   5.270   0.713   0.306 -1.0364  2.1937  2.8201
  430MOL0     H58032   4.775   1.516   0.729 -1.4973  2.2956  1.9841
  430MOL0     H58033   4.546   1.523   0.842  0.5844  0.2800  0.0508
  430MOL0     H58034   4.089   1.518   0.621 -1.5001 -0.0122  0.4602
  430MOL0     H58035   3.857   1.500   0.643 -0.5454 -0.5946  0.5394
  430MOL0     H58036   2.414   0.346   0.761  3.3102  1.1488 -1.3870
  430MOL0     H58037   2.232   0.227   0.633 -0.5383  0.6199 -0.5072
  430MOL0     H58038   2.271   0.198   0.116 -5.5370  0.6537 -0.1441
  430MOL0     H58039   2.308   0.078  -0.086  1.5507 -1.7767 -0.3002
  430MOL0     H58040   2.230  -0.362  -0.068 -0.5395 -2.5691 -0.8620
  430MOL0     H58041   2.082  -0.323  -0.147  0.0215 -2.7648  0.8961
  430MOL0     H58042   2.358  -0.338  -0.299  0.2083 -0.6940  1.6853
  430MOL0     H58043   2.191  -0.313  -0.356 -0.2540 -0.2254 -0.3966
  430MOL0     H58044   2.119  -0.520  -0.265  0.5050 -1.1742  0.0575
  430MOL0     H58045   2.271  -0.560  -0.195  0.9988  1.1902  0.9139
  430MOL0     H58046   2.365  -0.571  -0.432 -0.3444  1.5970 -1.9455
  430MOL0     H58047   2.201  -0.509  -0.474 -0.0542  0.0738  1.0859
  430MOL0     H58048   2.112  -0.918  -0.405 -1.8194  1.2891 -0.2562
  430MOL0     H58049   2.132  -0.278   0.099 -1.8627  0.5346  0.6723
  430MOL0     H58050   2.114  -0.153   0.313  3.0484 -0.6555  0.9517
  431MOL0     O58051   5.412   1.243   0.282 -0.8504 -0.1006 -0.1691
  431MOL0     C58052   5.451   1.318   0.192 -0.5065  0.6524  0.3583
  431MOL0     O58053   5.458   1.456   0.194 -1.0063 -0.6542  0.3278
  431MOL0     C58054   5.418   1.521   0.308  0.0484  0.2673  0.1573
  431MOL0     C58055   5.318   1.617   0.309 -0.4288  0.2923  0.2378
  431MOL0     C58056   5.279   1.687   0.419  0.2931 -0.2057 -0.9445
  431MOL0     C58057   5.339   1.664   0.544  0.5825 -0.4013 -0.8756
  431MOL0     O58058   5.286   1.728   0.654 -0.3897  0.6599  0.8207
  431MOL0     C58059   5.185   1.652   0.715  0.2996 -0.5626 -0.2282
  431MOL0     C58060   5.089   1.750   0.786 -0.4729 -1.3943 -0.6896
  431MOL0     C58061   5.157   1.865   0.869 -0.5261 -0.2868 -0.7025
  431MOL0     C58062   5.052   1.958   0.934 -0.3245 -0.1896  0.4762
  431MOL0     C58063   5.099   2.058   1.041  0.2250  0.5320 -1.5449
  431MOL0     C58064   4.980   2.132   1.094  0.1752 -0.6182  0.3833
  431MOL0     C58065   5.002   2.194   1.239 -0.0432  0.8177 -0.1701
  431MOL0     C58066   5.097   2.307   1.244  0.0745  0.0197  0.1280
  431MOL0     N58067   5.058   2.417   1.145 -0.2234  0.0020  0.2483
  431MOL0     C58068   4.944   2.491   1.155 -0.7619 -0.4934  0.4961
  431MOL0     C58069   4.947   2.577   1.050  0.8624  0.2262 -0.2211
  431MOL0     C58070   4.825   2.659   1.011  0.2053 -0.6525 -0.0684
  431MOL0     C58071   4.859   2.804   1.044  0.6548  0.7722  0.3903
  431MOL0     C58072   4.733   2.896   1.021  0.0589  0.4254 -0.8217
  431MOL0     C58073   4.631   2.903   1.141 -0.1596 -0.0088 -0.1356
  431MOL0     O58074   4.555   2.779   1.170 -0.0961 -0.6299  0.5689
  431MOL0     C58075   4.454   2.785   1.263  0.4372 -0.6478 -0.4488
  431MOL0     C58076   4.468   2.852   1.388 -0.0672 -0.2645 -0.1675
  431MOL0     C58077   4.359   2.881   1.473  0.8550 -0.1611 -0.3954
  431MOL0     C58078   4.375   2.957   1.597  0.3706 -0.0712  0.7512
  431MOL0     C58079   4.231   2.842   1.434 -0.1914  0.3318 -1.2064
  431MOL0     C58080   4.107   2.868   1.520 -1.0522  0.0741 -1.4941
  431MOL0     O58081   4.072   2.997   1.538  0.9867  0.3425 -0.5168
  431MOL0     C58082   3.968   3.016   1.629  0.4871  1.0651  0.7034
  431MOL0     C58083   3.978   3.037   1.770 -0.0097 -0.4810  1.3440
  431MOL0     C58084   3.867   3.058   1.845  0.3231  0.5514 -1.0722
  431MOL0     C58085   3.743   3.062   1.792  0.6460 -0.6755 -0.3377
  431MOL0     O58086   3.629   3.057   1.864  0.7319  0.4381 -1.2296
  431MOL0     C58087   3.511   3.141   1.838  0.2373 -0.0520 -1.0103
  431MOL0     C58088   3.560   3.282   1.814 -0.9700  0.3305  0.3181
  431MOL0     C58089   3.446   3.384   1.790  0.1685  0.4355 -0.9251
  431MOL0     C58090   3.512   3.519   1.767 -0.6591  0.5380  0.0489
  431MOL0     C58091   3.409   3.620   1.711 -0.2313  1.2618 -0.7154
  431MOL0     C58092   3.333   3.672   1.834 -0.7020 -0.2399  0.6156
  431MOL0     C58093   3.222   3.776   1.807  0.0742 -0.0636  0.0207
  431MOL0     C58094   3.136   3.843   1.924 -0.4464 -0.0973 -0.1489
  431MOL0    Cl58095   3.047   3.705   1.994 -0.3669  0.4727 -0.4221
  431MOL0     C58096   3.729   3.034   1.654  0.3560  0.0643 -0.4050
  431MOL0     C58097   3.836   3.024   1.575 -1.2769  0.3499 -0.4538
  431MOL0     O58098   4.055   2.763   1.561  0.6015  0.3922  0.1526
  431MOL0     C58099   4.210   2.769   1.323  0.4133  0.3959 -0.4929
  431MOL0     C58100   4.322   2.749   1.235 -0.3549 -0.5110  0.3663
  431MOL0     N58101   5.060   2.551   0.976  0.6863 -0.3447  0.5632
  431MOL0     N58102   5.125   2.449   1.030  0.9932  0.0968 -0.6896
  431MOL0     C58103   5.443   1.570   0.544 -0.2755 -0.7898  0.3026
  431MOL0     C58104   5.493   1.498   0.428  0.3947  0.4869 -0.7562
  431MOL0     C58105   5.498   1.262   0.064 -0.5583  0.6832 -0.2241
  431MOL0     C58106   5.534   1.128   0.062 -0.2586 -0.3857 -0.1983
  431MOL0     C58107   5.585   1.074  -0.053  0.1618 -0.2764 -0.8378
  431MOL0     C58108   5.587   1.143  -0.175  0.3710 -0.2937  0.0675
  431MOL0     O58109   5.649   1.081  -0.280  0.1254 -0.8530 -0.0249
  431MOL0     C58110   5.650   1.148  -0.417  0.8472 -0.4240 -0.8747
  431MOL0     C58111   5.751   1.066  -0.492 -0.0727 -0.3961  0.2276
  431MOL0     C58112   5.768   1.121  -0.634 -0.9800  0.8207  0.1202
  431MOL0     C58113   5.647   1.103  -0.723 -0.7499 -0.7844 -0.9028
  431MOL0     C58114   5.610   0.963  -0.742  0.0303  0.4637 -0.0157
  431MOL0     C58115   5.574   0.856  -0.786  0.2284  0.9064  0.2078
  431MOL0     C58116   5.549   1.274  -0.173  0.1782 -0.3505 -0.1202
  431MOL0     C58117   5.501   1.332  -0.057 -0.0899 -0.2462 -0.1961
  431MOL0     H58118   5.266   1.635   0.215  0.0764 -0.9035 -0.2983
  431MOL0     H58119   5.202   1.762   0.400  1.1107  0.6270 -1.0482
  431MOL0     H58120   5.134   1.582   0.648  1.4016 -1.4580 -0.1568
  431MOL0     H58121   5.239   1.601   0.795  3.2380  3.1306  0.4223
  431MOL0     H58122   5.016   1.797   0.719 -0.9814 -1.3253 -0.0920
  431MOL0     H58123   5.036   1.685   0.856  2.3752 -0.4842  2.6185
  431MOL0     H58124   5.212   1.814   0.948 -1.8175 -2.1726 -0.9510
  431MOL0     H58125   5.222   1.925   0.805 -2.2855  3.0851  0.4447
  431MOL0     H58126   5.002   2.014   0.854  0.1540  0.7402  0.8030
  431MOL0     H58127   4.990   1.888   0.990  0.1272 -0.2384  0.9316
  431MOL0     H58128   5.149   1.993   1.113  2.5584  4.3443  0.6245
  431MOL0     H58129   5.167   2.133   1.000  2.1924  0.1484  0.7977
  431MOL0     H58130   4.968   2.215   1.024  0.7004 -1.0989 -0.2806
  431MOL0     H58131   4.889   2.072   1.089  0.5324 -1.3180  1.7977
  431MOL0     H58132   4.915   2.241   1.287  1.1575  2.3190  0.6201
  431MOL0     H58133   5.030   2.109   1.303 -2.2538  0.7204  0.7613
  431MOL0     H58134   5.196   2.268   1.217 -0.4554 -1.0246 -0.3658
  431MOL0     H58135   5.104   2.352   1.343 -0.4018  0.1408  0.1075
  431MOL0     H58136   4.867   2.472   1.228 -0.3971 -0.7321  0.8256
  431MOL0     H58137   4.789   2.658   0.908 -2.9566  1.6893  0.8816
  431MOL0     H58138   4.740   2.628   1.073  0.7670 -0.2538  0.9400
  431MOL0     H58139   4.940   2.834   0.977  0.4975  1.7904  0.6365
  431MOL0     H58140   4.902   2.814   1.144  1.4051 -0.8231  0.2457
  431MOL0     H58141   4.682   2.870   0.928 -2.0039 -3.3422  1.1438
  431MOL0     H58142   4.779   2.995   1.017 -0.0089  0.6698  1.9708
  431MOL0     H58143   4.559   2.978   1.105  0.2256  0.1988 -0.4778
  431MOL0     H58144   4.673   2.930   1.238  1.7831 -1.2665 -0.5808
  431MOL0     H58145   4.564   2.892   1.418 -1.4388  3.7889 -0.6558
  431MOL0     H58146   4.300   2.936   1.673 -0.4467  0.3777  0.0884
  431MOL0     H58147   4.472   2.938   1.644 -0.2341 -0.8922  1.7184
  431MOL0     H58148   4.375   3.063   1.571 -1.6946  0.3509  2.2166
  431MOL0     H58149   4.074   3.042   1.820  0.5186  1.2209  0.2257
  431MOL0     H58150   3.885   3.073   1.951 -1.0746  1.7501 -0.9710
  431MOL0     H58151   3.454   3.103   1.752 -2.2488 -0.5732  0.7344
  431MOL0     H58152   3.443   3.137   1.924  0.8129 -0.6655 -0.5803
  431MOL0     H58153   3.622   3.316   1.897 -1.6932 -4.4476  3.1591
  431MOL0     H58154   3.619   3.278   1.722  1.8050 -0.3158  2.0108
  431MOL0     H58155   3.379   3.384   1.877  0.2127  2.3725 -0.8491
  431MOL0     H58156   3.392   3.366   1.697  1.3539  2.4054 -2.0602
  431MOL0     H58157   3.566   3.552   1.857  2.2637  1.8640 -2.0193
  431MOL0     H58158   3.581   3.502   1.684 -0.3824  1.4255  0.0800
  431MOL0     H58159   3.338   3.568   1.646 -0.1203  0.4480 -0.1925
  431MOL0     H58160   3.449   3.703   1.652 -1.4013  2.6208  0.3409
  431MOL0     H58161   3.288   3.585   1.882 -2.9864  1.3103  1.5117
  431MOL0     H58162   3.395   3.722   1.910 -2.8934  0.8983  1.7459
  431MOL0     H58163   3.146   3.728   1.745 -0.7789 -0.4381  1.3284
  431MOL0     H58164   3.263   3.858   1.747 -0.8422  0.1994 -0.2588
  431MOL0     H58165   3.066   3.920   1.890  0.2767  0.8858  0.5137
  431MOL0     H58166   3.200   3.894   1.996  0.2101  1.8031 -1.9795
  431MOL0     H58167   3.633   3.025   1.605 -0.0827 -1.5543  0.6766
  431MOL0     H58168   3.815   3.012   1.469  2.2879  2.2440 -1.5299
  431MOL0     H58169   4.107   2.750   1.294  1.1379  1.0496 -3.8719
  431MOL0     H58170   4.302   2.696   1.143 -2.4701  1.0752 -0.1599
  431MOL0     H58171   5.494   1.549   0.637  1.1301  0.9077 -0.0131
  431MOL0     H58172   5.585   1.441   0.426  1.3791  2.0356 -1.9306
  431MOL0     H58173   5.539   1.072   0.155  0.4257  3.0312  1.9748
  431MOL0     H58174   5.612   0.969  -0.049 -2.0604 -0.8933 -0.5700
  431MOL0     H58175   5.549   1.149  -0.460  0.8140 -0.0378 -0.7892
  431MOL0     H58176   5.670   1.252  -0.392 -5.8480  0.5671  3.1693
  431MOL0     H58177   5.731   0.958  -0.489 -1.4796 -0.1409  0.4341
  431MOL0     H58178   5.847   1.067  -0.440  1.3918  0.5013 -2.3381
  431MOL0     H58179   5.843   1.056  -0.679 -2.5211  0.4877 -2.1644
  431MOL0     H58180   5.799   1.226  -0.637  1.4235  0.1762  0.2797
  431MOL0     H58181   5.673   1.142  -0.822  1.4866  0.8933  0.2549
  431MOL0     H58182   5.569   1.174  -0.692 -1.4585 -1.1713 -1.7544
  431MOL0     H58183   5.545   0.766  -0.837 -2.9772  1.3304  1.0349
  431MOL0     H58184   5.547   1.335  -0.263 -4.8213 -1.7156 -1.2797
  431MOL0     H58185   5.479   1.438  -0.056  0.4885 -0.1073 -0.8596
  432MOL0     O58186   4.726   8.350  10.224  0.0379 -0.1435 -0.1563
  432MOL0     C58187   4.783   8.459  10.219  1.0221  0.2544  0.1407
  432MOL0     O58188   4.757   8.556  10.132  0.6676 -0.4558 -0.1868
  432MOL0     C58189   4.677   8.549  10.024 -1.1892  1.1488 -0.3696
  432MOL0     C58190   4.647   8.672   9.968  1.0724  1.5393  0.0831
  432MOL0     C58191   4.567   8.671   9.850 -0.4861 -0.1488 -0.9912
  432MOL0     C58192   4.530   8.552   9.782 -0.6873 -0.1402 -1.3919
  432MOL0     O58193   4.479   8.548   9.657 -0.3206  0.1065  0.4368
  432MOL0     C58194   4.396   8.657   9.609  1.1434  0.4366 -1.1400
  432MOL0     C58195   4.252   8.679   9.675 -0.4398 -0.2529  0.0950
  432MOL0     C58196   4.172   8.554   9.633 -0.2112 -0.4307 -0.3603
  432MOL0     C58197   4.068   8.527   9.740  0.3672  0.3144  0.0009
  432MOL0     C58198   4.100   8.424   9.858  0.0930 -0.6743  0.1048
  432MOL0     C58199   4.229   8.439   9.941 -0.0469  0.5046 -0.2473
  432MOL0     C58200   4.223   8.369  10.074 -0.0858  0.2986 -0.7360
  432MOL0     C58201   4.370   8.340  10.116 -0.3914  0.6982 -0.2890
  432MOL0     N58202   4.364   8.241  10.227  0.6016 -0.4362  0.2208
  432MOL0     C58203   4.462   8.240  10.328  1.0871 -1.0051  0.4110
  432MOL0     C58204   4.445   8.124  10.385 -0.2373 -0.1503  0.0541
  432MOL0     C58205   4.542   8.086  10.495 -0.2184  0.2440  0.4834
  432MOL0     C58206   4.666   8.037  10.431  0.3088  0.0634 -0.6371
  432MOL0     C58207   4.781   7.992  10.517 -0.2146 -0.3766 -0.9110
  432MOL0     C58208   4.752   7.861  10.592 -0.7010 -0.4102 -0.9438
  432MOL0     O58209   4.880   7.831  10.658  0.7398 -0.1487  0.1294
  432MOL0     C58210   4.876   7.731  10.753 -0.5488 -0.1041  0.3731
  432MOL0     C58211   4.771   7.649  10.782  1.0954 -0.1801 -0.2375
  432MOL0     C58212   4.784   7.535  10.866  0.2977 -1.0297 -0.0489
  432MOL0     C58213   4.654   7.463  10.890 -0.2526  0.4433 -0.2143
  432MOL0     C58214   4.911   7.507  10.925 -0.7944  1.0019 -0.7846
  432MOL0     C58215   4.940   7.396  11.023 -0.3923 -0.1129 -0.4515
  432MOL0     O58216   4.868   7.282  11.010  0.8108  0.0309  0.6284
  432MOL0     C58217   4.919   7.170  11.072 -0.6404  0.1444  0.1946
  432MOL0     C58218   4.943   7.058  10.999  0.4210  0.9551  0.6366
  432MOL0     C58219   5.002   6.943  11.048 -1.2958  0.3993 -1.0619
  432MOL0     C58220   5.030   6.939  11.183  0.2580  0.1137  0.4692
  432MOL0     O58221   5.056   6.814  11.229  0.1055  0.2342 -1.5450
  432MOL0     C58222   5.115   6.803  11.360  0.2401 -0.0567 -0.1067
  432MOL0     C58223   5.094   6.663  11.414 -0.4081 -0.4557 -0.7046
  432MOL0     C58224   4.986   6.639  11.519 -0.2642  0.1397  0.0682
  432MOL0     C58225   4.847   6.636  11.454 -0.5353  0.5395  0.4818
  432MOL0     C58226   4.764   6.569  11.556 -0.4051  0.3243  0.8512
  432MOL0     C58227   4.619   6.549  11.518  0.6685 -0.4371  0.0163
  432MOL0     C58228   4.549   6.426  11.585 -0.1869  0.5189 -0.5835
  432MOL0     C58229   4.508   6.441  11.729  0.3171  0.4301 -0.1954
  432MOL0    Cl58230   4.419   6.291  11.782  0.1670 -0.0111  0.3136
  432MOL0     C58231   4.994   7.045  11.263 -0.5424 -0.9249  0.4352
  432MOL0     C58232   4.942   7.160  11.208 -0.1265  0.4239 -0.6959
  432MOL0     O58233   5.042   7.405  11.089 -0.2794 -0.3570 -0.2483
  432MOL0     C58234   5.020   7.587  10.893  0.5477 -0.3749 -0.8547
  432MOL0     C58235   5.003   7.701  10.812 -0.0527  0.8488 -0.2372
  432MOL0     N58236   4.349   8.049  10.322  0.0823 -0.1415 -0.3376
  432MOL0     N58237   4.291   8.122  10.232 -0.2452 -0.4800 -0.1999
  432MOL0     C58238   4.571   8.436   9.833 -0.4160  0.0466  0.2679
  432MOL0     C58239   4.641   8.430   9.956 -0.6066  1.2985  0.7909
  432MOL0     C58240   4.865   8.494  10.342  0.2233  0.0431 -0.2151
  432MOL0     C58241   4.884   8.386  10.433  0.9223 -0.5399 -0.3221
  432MOL0     C58242   4.957   8.409  10.548 -0.3124  0.2729 -0.3339
  432MOL0     C58243   4.996   8.544  10.577 -0.6691 -0.3832  0.1944
  432MOL0     O58244   5.068   8.555  10.700  0.0315  0.2020  0.8576
  432MOL0     C58245   5.092   8.683  10.755 -0.1998 -0.4788  0.9146
  432MOL0     C58246   5.141   8.663  10.903 -0.2977  0.1049  1.2854
  432MOL0     C58247   5.279   8.584  10.910  0.2478  0.2414 -0.4725
  432MOL0     C58248   5.342   8.582  11.052 -0.7709 -1.6943 -0.1252
  432MOL0     C58249   5.267   8.507  11.150 -0.1780 -0.1987  0.0004
  432MOL0     C58250   5.197   8.452  11.233  0.2313 -0.4338  0.5162
  432MOL0     C58251   4.972   8.651  10.490  0.0382  0.0296 -0.0394
  432MOL0     C58252   4.911   8.623  10.365 -0.3295 -0.0332  0.1972
  432MOL0     H58253   4.684   8.765  10.009  2.6342  1.7388 -1.6188
  432MOL0     H58254   4.546   8.764   9.799  0.8287  0.0876 -1.1414
  432MOL0     H58255   4.449   8.752   9.622 -1.0397  1.4825  0.8301
  432MOL0     H58256   4.395   8.653   9.500  0.1255 -0.3247 -1.1148
  432MOL0     H58257   4.262   8.689   9.784  0.8040  1.1473 -0.1059
  432MOL0     H58258   4.201   8.762   9.626  1.1425 -0.4671 -2.0653
  432MOL0     H58259   4.142   8.578   9.530  3.1778 -0.5309 -1.5014
  432MOL0     H58260   4.240   8.470   9.622 -1.5135 -1.8187  1.6298
  432MOL0     H58261   4.024   8.620   9.778 -0.5678 -0.1245  0.0210
  432MOL0     H58262   3.978   8.480   9.700  0.1990 -0.4904  1.2565
  432MOL0     H58263   4.021   8.417   9.933  0.3122  1.9763  0.6720
  432MOL0     H58264   4.102   8.325   9.811 -0.4702 -0.0672 -1.2527
  432MOL0     H58265   4.306   8.391   9.881 -0.5727  0.2269 -0.7065
  432MOL0     H58266   4.261   8.542   9.961 -0.7871  0.3553  1.9544
  432MOL0     H58267   4.171   8.437  10.141 -1.1442  0.1060 -1.3453
  432MOL0     H58268   4.168   8.277  10.051 -1.3607  1.1507 -1.1544
  432MOL0     H58269   4.430   8.430  10.135 -0.9461  0.3597  4.2827
  432MOL0     H58270   4.433   8.285  10.045  2.5812  3.3608  0.0451
  432MOL0     H58271   4.536   8.317  10.346 -0.1658  0.3622 -0.0549
  432MOL0     H58272   4.564   8.177  10.553  1.2725  0.0166  0.3277
  432MOL0     H58273   4.497   8.008  10.557  0.0179 -1.1235 -1.0136
  432MOL0     H58274   4.705   8.114  10.364 -1.0297  0.6746 -0.7415
  432MOL0     H58275   4.644   7.959  10.357 -0.4510 -0.6963  0.3628
  432MOL0     H58276   4.807   8.077  10.581  3.1424 -2.7121  1.2259
  432MOL0     H58277   4.869   7.975  10.455  0.0492  0.9830 -0.9417
  432MOL0     H58278   4.717   7.781  10.526 -0.1774 -2.4761  1.1619
  432MOL0     H58279   4.674   7.881  10.666 -0.3032 -2.9573  0.2724
  432MOL0     H58280   4.672   7.673  10.742  0.9639  1.0972  0.7992
  432MOL0     H58281   4.571   7.484  10.822 -1.5722  0.7919  1.4166
  432MOL0     H58282   4.669   7.355  10.892  1.7791  0.6896  0.1429
  432MOL0     H58283   4.625   7.488  10.993  0.5897 -0.2771  0.2106
  432MOL0     H58284   4.925   7.063  10.892  3.1861  0.8778  0.0980
  432MOL0     H58285   5.028   6.861  10.982  2.3401  0.3840  0.1703
  432MOL0     H58286   5.222   6.822  11.362  0.4256 -0.9236 -1.0139
  432MOL0     H58287   5.076   6.871  11.436 -0.7204  2.1127 -2.3969
  432MOL0     H58288   5.055   6.598  11.335 -3.0846  2.3182 -1.9096
  432MOL0     H58289   5.189   6.630  11.455 -0.4917  1.8105  1.5932
  432MOL0     H58290   4.997   6.721  11.590  1.3005 -1.0800  1.2973
  432MOL0     H58291   5.008   6.540  11.562 -0.8400  1.0365  2.6336
  432MOL0     H58292   4.819   6.740  11.437  0.2986  0.5757 -0.7739
  432MOL0     H58293   4.852   6.578  11.361 -1.9075  1.5869 -0.2851
  432MOL0     H58294   4.760   6.612  11.657 -1.3289 -2.0412  1.9054
  432MOL0     H58295   4.814   6.473  11.569 -0.1709  0.5177  1.4368
  432MOL0     H58296   4.561   6.641  11.527  0.0361 -0.8623  0.4352
  432MOL0     H58297   4.623   6.533  11.410 -2.0922  2.5184 -0.6471
  432MOL0     H58298   4.612   6.337  11.579 -0.2140  0.5323 -1.1207
  432MOL0     H58299   4.459   6.410  11.524  0.3282 -3.0274 -0.6744
  432MOL0     H58300   4.449   6.532  11.743 -0.3187  0.0895 -0.5978
  432MOL0     H58301   4.600   6.463  11.784  1.0870  1.1131 -1.6948
  432MOL0     H58302   5.004   7.041  11.371  0.4011 -1.3243  0.3404
  432MOL0     H58303   4.893   7.240  11.263  0.8397 -0.1425  1.0735
  432MOL0     H58304   5.118   7.558  10.929  0.7722  0.0406 -1.1206
  432MOL0     H58305   5.089   7.762  10.787  2.3967 -1.6820  1.3165
  432MOL0     H58306   4.558   8.345   9.775 -0.1897  0.3330 -0.2405
  432MOL0     H58307   4.656   8.330   9.994 -2.2806  0.3974 -0.8080
  432MOL0     H58308   4.854   8.282  10.426  0.8370 -0.4698 -1.0022
  432MOL0     H58309   4.992   8.335  10.619 -0.2498  1.1255  0.5657
  432MOL0     H58310   5.163   8.743  10.697 -0.7957 -0.6250  0.0127
  432MOL0     H58311   4.994   8.731  10.760  0.3966  0.8762  0.0941
  432MOL0     H58312   5.065   8.600  10.952 -1.2412 -0.4924 -0.8400
  432MOL0     H58313   5.143   8.759  10.955  0.7044  1.3161 -0.8829
  432MOL0     H58314   5.346   8.619  10.832 -0.1862  1.7018 -0.2209
  432MOL0     H58315   5.250   8.482  10.885 -1.6859  0.1205  1.8502
  432MOL0     H58316   5.344   8.685  11.087 -3.3236 -1.2039 -1.2564
  432MOL0     H58317   5.448   8.554  11.043  0.3113  2.2802 -1.3640
  432MOL0     H58318   5.136   8.408  11.309 -0.8721 -1.9260 -1.1453
  432MOL0     H58319   5.006   8.750  10.519  3.7819 -1.3892  0.8895
  432MOL0     H58320   4.876   8.696  10.293 -3.4914 -3.9150 -2.5680
  433MOL0     O58321   3.740   9.931   3.269  0.3669 -0.7690 -0.2964
  433MOL0     C58322   3.820   9.984   3.186  0.7289 -0.2317 -0.1486
  433MOL0     O58323   3.791  10.031   3.060  0.9020 -0.4163 -0.2337
  433MOL0     C58324   3.666  10.004   2.993  0.1906 -0.4972 -0.0673
  433MOL0     C58325   3.673   9.978   2.859  0.3156  1.0459 -0.5258
  433MOL0     C58326   3.563   9.926   2.796  0.6633 -0.7265  0.2395
  433MOL0     C58327   3.437   9.938   2.855 -0.0109 -0.0660 -0.1931
  433MOL0     O58328   3.316   9.902   2.791 -0.0679  0.1605  0.2753
  433MOL0     C58329   3.332   9.829   2.676 -0.0278  0.1661 -0.0161
  433MOL0     C58330   3.206   9.780   2.609  0.2727 -0.5881  0.5809
  433MOL0     C58331   3.089   9.881   2.578  0.0935 -0.3893 -0.6773
  433MOL0     C58332   2.956   9.805   2.570  0.4825 -0.1213  0.8065
  433MOL0     C58333   2.890   9.769   2.707  0.3547 -0.0505  0.3405
  433MOL0     C58334   2.831   9.891   2.779  0.2665  0.2335 -0.3778
  433MOL0     C58335   2.797   9.855   2.920  0.4740 -0.5379  0.6601
  433MOL0     C58336   2.775   9.987   3.004  0.1370  0.5316 -0.1423
  433MOL0     N58337   2.630  10.018   3.020  0.3458 -0.0931 -0.0696
  433MOL0     C58338   2.541   9.970   3.115 -0.2068 -0.1942 -0.5112
  433MOL0     C58339   2.432  10.046   3.093 -0.2952 -0.1424 -0.2093
  433MOL0     C58340   2.316  10.035   3.189 -0.2566  0.5400  0.2333
  433MOL0     C58341   2.216  10.145   3.144 -0.2194  0.6281 -0.8810
  433MOL0     C58342   2.091  10.153   3.250 -0.6653  0.1082  0.4624
  433MOL0     C58343   2.015  10.020   3.259  0.6704  1.3438 -0.3037
  433MOL0     O58344   1.949   9.981   3.137  0.0731 -0.0753  0.1852
  433MOL0     C58345   1.839  10.051   3.107 -0.3719 -0.7271  0.3894
  433MOL0     C58346   1.833  10.133   2.991 -0.6338  0.3344 -0.7376
  433MOL0     C58347   1.717  10.200   2.961  0.3902  0.2059 -0.4849
  433MOL0     C58348   1.720  10.287   2.846 -0.6745 -0.5772  0.1210
  433MOL0     C58349   1.604  10.198   3.054 -0.2338  0.3582 -0.0632
  433MOL0     C58350   1.482  10.278   3.031  0.0797 -0.4053 -0.0414
  433MOL0     O58351   1.407  10.243   2.926  0.9186 -0.4659 -0.0999
  433MOL0     C58352   1.278  10.290   2.919 -0.1749  0.6352  1.0054
  433MOL0     C58353   1.265  10.425   2.879  0.2439 -0.2893  0.3617
  433MOL0     C58354   1.137  10.476   2.883  0.3456 -0.4858  0.2268
  433MOL0     C58355   1.035  10.403   2.935 -0.5073 -1.6948  1.0568
  433MOL0     O58356   0.909  10.468   2.956 -0.9220 -0.2031  0.3093
  433MOL0     C58357   0.832  10.403   3.055 -0.7620  0.2542  0.7659
  433MOL0     C58358   0.692  10.479   3.064 -0.5019  0.2034  0.4132
  433MOL0     C58359   0.614  10.457   2.937 -0.4602 -0.2987 -0.3772
  433MOL0     C58360   0.504  10.565   2.915  0.5031  0.5272  0.5927
  433MOL0     C58361   0.416  10.542   2.788  0.9916 -0.6170 -0.1346
  433MOL0     C58362   0.496  10.589   2.665  0.0078 -0.6635  0.2621
  433MOL0     C58363   0.433  10.589   2.527  0.2180  0.2280  0.2346
  433MOL0     C58364   0.531  10.647   2.425 -0.4975  0.2211 -1.2048
  433MOL0    Cl58365   0.471  10.646   2.255 -0.4901 -0.3292  0.0077
  433MOL0     C58366   1.047  10.259   2.949 -0.0000 -0.1179 -0.9430
  433MOL0     C58367   1.174  10.206   2.946 -0.4321 -0.3718 -0.1694
  433MOL0     O58368   1.473  10.378   3.092 -0.0815 -0.5050 -0.5676
  433MOL0     C58369   1.608  10.117   3.167 -1.0777 -0.1415 -0.3763
  433MOL0     C58370   1.725  10.040   3.194 -0.9947 -0.8097 -0.6301
  433MOL0     N58371   2.461  10.139   2.991 -0.1482  0.4653 -0.1911
  433MOL0     N58372   2.580  10.113   2.942  0.8596 -0.3161  0.4278
  433MOL0     C58373   3.427   9.986   2.982 -0.0221  0.4696 -0.0546
  433MOL0     C58374   3.542  10.015   3.058  0.0438  0.0070  0.3646
  433MOL0     C58375   3.961  10.004   3.230  0.1346 -0.8013  0.4670
  433MOL0     C58376   4.012   9.950   3.355 -0.0393  0.1903  0.8291
  433MOL0     C58377   4.147   9.981   3.386  0.2336 -0.6571 -1.0765
  433MOL0     C58378   4.228  10.053   3.302  0.3333  0.0754 -0.0907
  433MOL0     O58379   4.359  10.088   3.335 -0.4511  0.1389  0.4132
  433MOL0     C58380   4.438   9.986   3.391  0.4423 -0.4368 -0.2632
  433MOL0     C58381   4.556  10.061   3.458 -0.2507  0.4535  0.0392
  433MOL0     C58382   4.661  10.114   3.352 -0.0735  0.9235 -0.2783
  433MOL0     C58383   4.783  10.174   3.424  0.3848  0.6824 -0.5430
  433MOL0     C58384   4.856  10.261   3.333  0.0398 -0.1318 -0.1990
  433MOL0     C58385   4.904  10.348   3.260  0.2989  0.4273 -0.0133
  433MOL0     C58386   4.172  10.100   3.181  0.3129  0.2717 -0.3701
  433MOL0     C58387   4.039  10.076   3.146  0.2136  0.2493 -0.2185
  433MOL0     H58388   3.771   9.987   2.812  1.1852 -0.9549  0.7747
  433MOL0     H58389   3.571   9.905   2.690  0.8945  1.9543 -0.3278
  433MOL0     H58390   3.371   9.902   2.604 -0.3315 -0.2958 -0.6535
  433MOL0     H58391   3.399   9.743   2.688 -0.6053 -1.1215 -4.3312
  433MOL0     H58392   3.228   9.729   2.515  2.0133 -2.0704  1.7374
  433MOL0     H58393   3.167   9.703   2.676 -1.3752 -0.6880 -0.4422
  433MOL0     H58394   3.080   9.955   2.659 -0.3277 -3.2354  2.0526
  433MOL0     H58395   3.103   9.937   2.485 -1.5179  2.0033  0.3957
  433MOL0     H58396   2.883   9.860   2.510  0.7801 -0.7398 -0.1517
  433MOL0     H58397   2.971   9.712   2.514 -0.8415  0.4946 -0.6282
  433MOL0     H58398   2.803   9.705   2.688 -0.4945  1.4489 -1.1048
  433MOL0     H58399   2.965   9.710   2.760  0.3596 -0.4762 -0.1347
  433MOL0     H58400   2.901   9.974   2.784 -1.2623  1.4965  2.1692
  433MOL0     H58401   2.747   9.933   2.723  0.7510  2.4906  0.5017
  433MOL0     H58402   2.707   9.793   2.923 -0.2879  0.5660  3.4739
  433MOL0     H58403   2.877   9.797   2.967  1.7876  1.6993  1.2882
  433MOL0     H58404   2.830  10.075   2.968 -0.5156 -0.1152 -3.0043
  433MOL0     H58405   2.818   9.975   3.104  1.1306 -1.5549 -0.7741
  433MOL0     H58406   2.559   9.897   3.194  2.4804 -0.9916 -1.7373
  433MOL0     H58407   2.269   9.938   3.168  2.3723 -0.5667 -1.0551
  433MOL0     H58408   2.353  10.052   3.291 -1.8363 -1.5334  1.2305
  433MOL0     H58409   2.192  10.134   3.038 -2.2898  2.4896 -0.6948
  433MOL0     H58410   2.271  10.240   3.141  1.1542 -0.1713 -2.3668
  433MOL0     H58411   2.027  10.231   3.207  0.0898  0.0467 -0.8503
  433MOL0     H58412   2.128  10.191   3.346 -1.5470  1.4200  0.3074
  433MOL0     H58413   1.941  10.031   3.339  0.3967 -3.2823  0.3592
  433MOL0     H58414   2.077   9.938   3.296  2.4873  1.9884 -1.7768
  433MOL0     H58415   1.916  10.146   2.922  0.3492 -1.6891 -0.0151
  433MOL0     H58416   1.734  10.390   2.879 -2.5724 -0.8481  1.9413
  433MOL0     H58417   1.794  10.252   2.773  2.1050  5.7517 -0.7822
  433MOL0     H58418   1.624  10.291   2.793  1.1016  0.8346 -3.3311
  433MOL0     H58419   1.349  10.486   2.845 -0.7036  0.8394 -0.0148
  433MOL0     H58420   1.134  10.577   2.842 -2.8486 -0.3179  0.6006
  433MOL0     H58421   0.799  10.304   3.022 -2.8340  1.5868 -1.4137
  433MOL0     H58422   0.878  10.394   3.154 -0.3226 -1.1646  0.4599
  433MOL0     H58423   0.631  10.441   3.146 -1.3861 -2.9627 -1.5543
  433MOL0     H58424   0.721  10.584   3.081  0.6184 -0.1509  0.7937
  433MOL0     H58425   0.580  10.353   2.932 -0.9312 -0.1648 -0.0317
  433MOL0     H58426   0.684  10.477   2.855 -0.6315 -1.1093 -0.7330
  433MOL0     H58427   0.437  10.555   3.001 -3.6839 -0.1853 -2.3931
  433MOL0     H58428   0.546  10.666   2.914 -1.1380  1.3231  2.8380
  433MOL0     H58429   0.316  10.587   2.793  2.8164  4.0895 -1.2168
  433MOL0     H58430   0.393  10.435   2.792 -0.7939 -0.2433  1.1201
  433MOL0     H58431   0.534  10.688   2.691  1.1743 -0.6607 -1.3022
  433MOL0     H58432   0.585  10.526   2.656 -1.8409 -3.3641 -0.4164
  433MOL0     H58433   0.351  10.661   2.528  0.2955  0.3518  2.6359
  433MOL0     H58434   0.408  10.487   2.495 -0.0828 -0.1051  1.4726
  433MOL0     H58435   0.632  10.607   2.434  0.0175  1.8840  1.3535
  433MOL0     H58436   0.550  10.752   2.448 -2.9054  0.2758  0.9898
  433MOL0     H58437   0.976  10.186   2.989  1.5624 -2.0848 -1.5962
  433MOL0     H58438   1.194  10.102   2.971 -1.9166  0.0158  3.2403
  433MOL0     H58439   1.517  10.121   3.225 -1.2899 -2.7576 -0.3988
  433MOL0     H58440   1.729   9.968   3.275 -0.0401 -1.5698 -1.3293
  433MOL0     H58441   3.333  10.000   3.034 -0.1288  1.1269 -0.4116
  433MOL0     H58442   3.545  10.044   3.162  0.0873 -0.9038  0.6229
  433MOL0     H58443   3.958   9.890   3.427  3.6824 -3.5773  0.8920
  433MOL0     H58444   4.174   9.951   3.487  0.3668  0.6152 -0.7076
  433MOL0     H58445   4.390   9.921   3.464  1.5882  0.1046  1.0121
  433MOL0     H58446   4.474   9.927   3.306  0.1672 -0.8059 -0.1276
  433MOL0     H58447   4.593   9.983   3.525  1.0233  1.8104  0.9973
  433MOL0     H58448   4.522  10.142   3.523 -1.8173  0.5865 -0.9029
  433MOL0     H58449   4.606  10.191   3.296 -0.6542  0.4599 -0.3627
  433MOL0     H58450   4.690  10.033   3.284 -3.4564  1.4613 -2.6102
  433MOL0     H58451   4.858  10.105   3.467 -0.8630 -0.2477  0.2230
  433MOL0     H58452   4.752  10.238   3.507 -0.6914 -1.3651  0.7256
  433MOL0     H58453   4.946  10.432   3.208  0.2688  0.0856 -0.5951
  433MOL0     H58454   4.238  10.160   3.118  1.8883 -0.6648  0.3294
  433MOL0     H58455   4.001  10.120   3.054 -0.4053  1.6981  0.6822
  434MOL0     O58456   2.451   9.405   3.754 -0.4359 -0.4567 -1.1093
  434MOL0     C58457   2.496   9.406   3.871 -0.5738  0.1551 -0.2227
  434MOL0     O58458   2.423   9.414   3.986  0.1459  0.3993 -0.8362
  434MOL0     C58459   2.291   9.429   3.967  0.5672  1.3821  0.0730
  434MOL0     C58460   2.238   9.555   3.934  0.3026  0.2728  0.4310
  434MOL0     C58461   2.100   9.577   3.931 -0.0069  0.2179  0.4818
  434MOL0     C58462   2.011   9.481   3.982 -0.4620  0.5563  0.1484
  434MOL0     O58463   1.880   9.485   3.995 -0.3282 -0.7974 -0.8357
  434MOL0     C58464   1.800   9.502   3.880 -0.5207  0.5119 -0.5848
  434MOL0     C58465   1.658   9.480   3.912  0.5159  0.5424 -0.0895
  434MOL0     C58466   1.575   9.439   3.794  0.9713 -0.4910  0.3075
  434MOL0     C58467   1.620   9.315   3.717  0.4182 -0.5519 -0.6468
  434MOL0     C58468   1.519   9.269   3.618  1.2608 -0.1954  0.0754
  434MOL0     C58469   1.573   9.155   3.532  0.6585  0.4004 -0.4682
  434MOL0     C58470   1.448   9.078   3.462 -2.4894 -0.9135 -0.3048
  434MOL0     C58471   1.477   9.068   3.314 -0.5185 -0.0881  0.0429
  434MOL0     N58472   1.359   9.004   3.248 -1.1226 -0.5707 -0.6884
  434MOL0     C58473   1.320   8.868   3.263  1.0389 -0.4493  0.1069
  434MOL0     C58474   1.228   8.846   3.173  0.8536 -0.2937  0.4930
  434MOL0     C58475   1.160   8.718   3.123  0.5478  0.1076 -0.0605
  434MOL0     C58476   1.004   8.729   3.136  0.8158  0.4940 -0.1633
  434MOL0     C58477   0.930   8.600   3.141 -0.0312 -0.0971  0.3373
  434MOL0     C58478   0.903   8.545   3.002 -0.5333 -0.8196  0.2523
  434MOL0     O58479   0.865   8.406   3.007  0.7275 -0.2660 -0.6643
  434MOL0     C58480   0.733   8.374   2.984 -0.1072  0.1262  0.2134
  434MOL0     C58481   0.709   8.248   2.927  0.0572 -0.2546 -0.4698
  434MOL0     C58482   0.579   8.209   2.882 -0.0061  0.2162  0.5428
  434MOL0     C58483   0.557   8.069   2.834  0.3607  0.0116 -0.7418
  434MOL0     C58484   0.480   8.305   2.886  0.1397 -0.1438  1.0595
  434MOL0     C58485   0.337   8.278   2.845  0.0003 -0.3973 -0.2911
  434MOL0     O58486   0.310   8.257   2.714  0.5581 -1.0214 -0.2722
  434MOL0     C58487   0.182   8.239   2.673 -0.4983 -0.4700  0.7194
  434MOL0     C58488   0.148   8.106   2.640  1.2494  0.3618  0.6143
  434MOL0     C58489   0.025   8.088   2.581  0.5878 -0.5264 -0.3785
  434MOL0     C58490  -0.066   8.192   2.551 -0.2494  0.1247 -0.2369
  434MOL0     O58491  -0.193   8.172   2.501  0.0453 -0.3102 -0.8531
  434MOL0     C58492  -0.257   8.045   2.514  0.7381 -0.0826  0.0347
  434MOL0     C58493  -0.417   8.057   2.499 -0.2199  1.1480 -0.1360
  434MOL0     C58494  -0.480   8.159   2.590 -1.0104  0.1416 -1.1150
  434MOL0     C58495  -0.563   8.080   2.692  0.8051 -0.9315 -0.0886
  434MOL0     C58496  -0.634   8.186   2.771  0.3767 -0.6730  0.5145
  434MOL0     C58497  -0.713   8.128   2.890  0.1013  0.2933 -0.1061
  434MOL0     C58498  -0.655   8.175   3.017 -1.6476 -0.5289 -0.0592
  434MOL0     C58499  -0.713   8.093   3.130 -0.3929  0.2269 -0.5211
  434MOL0    Cl58500  -0.890   8.123   3.143 -0.0811  1.1325 -0.4374
  434MOL0     C58501  -0.036   8.324   2.583  1.0223  0.0450 -0.6511
  434MOL0     C58502   0.091   8.344   2.644 -0.0457 -0.1880  0.9300
  434MOL0     O58503   0.252   8.277   2.933 -0.2374  0.2490  0.7616
  434MOL0     C58504   0.502   8.431   2.942 -0.4754  0.8190  1.0094
  434MOL0     C58505   0.625   8.463   2.993 -0.5339  0.4059 -0.0562
  434MOL0     N58506   1.202   8.963   3.105  0.3916 -0.1425 -0.7691
  434MOL0     N58507   1.272   9.060   3.156 -0.0551  1.0736 -0.2999
  434MOL0     C58508   2.064   9.357   4.022 -0.2416 -0.4044  0.7785
  434MOL0     C58509   2.203   9.328   4.020 -0.3527  0.2770  1.1097
  434MOL0     C58510   2.644   9.418   3.883 -0.4938 -0.6444  0.5338
  434MOL0     C58511   2.710   9.399   4.004 -0.1140  0.1873  0.1058
  434MOL0     C58512   2.849   9.426   4.015 -0.1902 -0.8074 -0.2161
  434MOL0     C58513   2.921   9.466   3.907 -0.2649  0.1865  0.4482
  434MOL0     O58514   3.055   9.492   3.897 -0.3605 -0.1903 -0.3099
  434MOL0     C58515   3.127   9.463   4.019 -0.3527 -0.1364  1.3323
  434MOL0     C58516   3.272   9.431   3.961 -0.2872  0.2637  0.1768
  434MOL0     C58517   3.367   9.413   4.080 -0.0213  0.6890 -0.5416
  434MOL0     C58518   3.506   9.356   4.040  0.4139 -0.3027 -1.2589
  434MOL0     C58519   3.588   9.385   4.156 -0.2919  0.4409  0.4771
  434MOL0     C58520   3.658   9.397   4.250  0.0764 -0.8541  0.4360
  434MOL0     C58521   2.853   9.456   3.777 -0.9620  0.4617 -0.1623
  434MOL0     C58522   2.715   9.438   3.765 -1.1646  1.0557  1.0762
  434MOL0     H58523   2.285   9.642   3.889 -0.6386  1.3153  1.4002
  434MOL0     H58524   2.049   9.668   3.902 -3.3283 -2.2029 -2.2469
  434MOL0     H58525   1.813   9.601   3.834 -1.7857 -0.2763 -2.8113
  434MOL0     H58526   1.836   9.425   3.811 -0.9400 -2.0027  1.8277
  434MOL0     H58527   1.655   9.396   3.982 -2.5114 -0.2672 -1.0683
  434MOL0     H58528   1.614   9.561   3.971 -0.0709 -1.6364  2.6518
  434MOL0     H58529   1.475   9.430   3.838  0.5571 -0.7811 -0.6826
  434MOL0     H58530   1.563   9.522   3.725  0.8486 -1.2518 -0.6026
  434MOL0     H58531   1.714   9.328   3.663  0.4610 -0.0876 -0.4631
  434MOL0     H58532   1.631   9.228   3.783 -2.1638  0.8284  1.8035
  434MOL0     H58533   1.427   9.241   3.671  1.0324  0.8093  0.2372
  434MOL0     H58534   1.492   9.357   3.559  0.1090  0.5673  1.6749
  434MOL0     H58535   1.651   9.194   3.466 -0.0322  1.1463 -0.8643
  434MOL0     H58536   1.617   9.080   3.598 -1.6823 -0.8836 -0.2601
  434MOL0     H58537   1.425   8.982   3.509 -2.3485 -0.2244  1.2155
  434MOL0     H58538   1.358   9.138   3.479 -2.8443 -2.0288  2.1219
  434MOL0     H58539   1.564   9.011   3.282 -0.5778  1.4279 -3.3457
  434MOL0     H58540   1.490   9.167   3.269 -1.2779  0.8498  1.7867
  434MOL0     H58541   1.370   8.788   3.317 -1.0127 -2.5606 -0.9642
  434MOL0     H58542   1.183   8.682   3.023  0.6595 -1.6242  0.5555
  434MOL0     H58543   1.180   8.640   3.197 -0.9681 -0.9982 -0.7879
  434MOL0     H58544   0.972   8.797   3.057  0.9673 -0.0241 -0.6754
  434MOL0     H58545   0.987   8.769   3.236  2.8880 -0.0995  0.4931
  434MOL0     H58546   0.834   8.613   3.191  0.4218 -0.5028  1.3463
  434MOL0     H58547   0.990   8.536   3.206  0.2256  1.8984  2.1791
  434MOL0     H58548   0.995   8.549   2.943 -0.9679  3.1746 -0.4405
  434MOL0     H58549   0.826   8.607   2.956 -0.7948 -0.5435  1.0490
  434MOL0     H58550   0.791   8.177   2.929  2.1397  2.0177 -1.2648
  434MOL0     H58551   0.645   8.028   2.784  0.0659 -3.2162  1.1238
  434MOL0     H58552   0.546   8.000   2.918  2.2395 -0.7518 -1.0627
  434MOL0     H58553   0.467   8.065   2.771 -1.5539  2.1145  1.6435
  434MOL0     H58554   0.219   8.025   2.649  2.9414  1.4268 -2.0483
  434MOL0     H58555  -0.011   7.989   2.555  1.8521 -0.3506 -3.1760
  434MOL0     H58556  -0.214   7.981   2.436  1.0023  0.4393 -0.2562
  434MOL0     H58557  -0.238   8.001   2.612 -3.6462 -1.0138  0.6578
  434MOL0     H58558  -0.446   8.064   2.394  1.5480  0.4475 -0.7182
  434MOL0     H58559  -0.448   7.954   2.521 -2.3191  1.9573  0.9108
  434MOL0     H58560  -0.543   8.223   2.529  0.1887  1.6901 -0.8037
  434MOL0     H58561  -0.408   8.226   2.637 -3.2512  1.6312  0.3795
  434MOL0     H58562  -0.636   8.009   2.650  0.1754  0.0357 -0.6594
  434MOL0     H58563  -0.495   8.025   2.758  3.3722  2.3344  0.2558
  434MOL0     H58564  -0.702   8.248   2.711  0.0305  1.0665  2.5807
  434MOL0     H58565  -0.560   8.260   2.805  0.6742 -0.0874 -1.2803
  434MOL0     H58566  -0.815   8.166   2.877 -0.0973  0.2522  1.1977
  434MOL0     H58567  -0.726   8.019   2.890  0.7035  0.2102 -1.5806
  434MOL0     H58568  -0.664   8.284   3.014 -0.4417 -0.4236 -2.4927
  434MOL0     H58569  -0.551   8.145   3.001 -1.4288 -0.5186  1.2150
  434MOL0     H58570  -0.662   8.126   3.221  2.3589  1.3288 -2.3247
  434MOL0     H58571  -0.682   7.989   3.114 -0.7173 -0.6344  3.4740
  434MOL0     H58572  -0.109   8.403   2.571 -0.3895 -0.7625  1.8782
  434MOL0     H58573   0.118   8.446   2.669 -0.0704  0.2376 -0.6526
  434MOL0     H58574   0.430   8.512   2.928  1.7450  2.7875  0.3741
  434MOL0     H58575   0.639   8.566   3.026  2.4877 -0.2278  1.0024
  434MOL0     H58576   1.991   9.291   4.066 -1.8276  1.5242  1.1679
  434MOL0     H58577   2.250   9.243   4.068 -0.8957 -0.0245  1.1122
  434MOL0     H58578   2.645   9.387   4.090  0.0818  3.3064  0.8232
  434MOL0     H58579   2.891   9.402   4.113  0.7917 -0.0081 -0.4261
  434MOL0     H58580   3.133   9.550   4.087  0.1809 -1.3782  2.9444
  434MOL0     H58581   3.095   9.375   4.075  2.7398 -2.9932 -0.9949
  434MOL0     H58582   3.304   9.514   3.897  1.4657 -0.0552  0.5816
  434MOL0     H58583   3.279   9.342   3.898 -1.8271 -0.2467  0.6884
  434MOL0     H58584   3.332   9.343   4.155 -0.1971  0.6470 -0.6613
  434MOL0     H58585   3.372   9.508   4.134  0.3723 -0.1248  0.8808
  434MOL0     H58586   3.555   9.408   3.957  1.4339 -0.0509 -0.5089
  434MOL0     H58587   3.516   9.247   4.029  3.0060 -0.1144 -1.3703
  434MOL0     H58588   3.710   9.392   4.344  1.6785 -1.4919 -0.4479
  434MOL0     H58589   2.910   9.456   3.685 -0.6536 -1.6667 -0.0248
  434MOL0     H58590   2.678   9.425   3.664 -0.9412 -1.1651  1.2203
  435MOL0     O58591   1.508   7.911   5.301 -0.4600 -0.7716  0.5417
  435MOL0     C58592   1.572   7.812   5.333 -1.0318 -0.0486 -0.1940
  435MOL0     O58593   1.523   7.691   5.355 -0.0334 -0.0641  0.2330
  435MOL0     C58594   1.395   7.664   5.334  0.7183 -1.1220 -0.4345
  435MOL0     C58595   1.312   7.650   5.452  0.0402  1.0032  0.5471
  435MOL0     C58596   1.183   7.611   5.429  0.2977  0.4042  0.3161
  435MOL0     C58597   1.132   7.597   5.302  0.5142  0.2564 -0.4080
  435MOL0     O58598   1.002   7.560   5.278 -0.0236  0.5728 -0.0621
  435MOL0     C58599   0.905   7.653   5.216 -0.6235 -0.2321  0.2490
  435MOL0     C58600   0.760   7.616   5.274 -0.5948 -0.3706  0.3866
  435MOL0     C58601   0.644   7.703   5.210 -0.3110 -0.0017  0.5315
  435MOL0     C58602   0.497   7.656   5.247  0.3562 -0.4416 -0.1333
  435MOL0     C58603   0.473   7.690   5.397 -0.6907  0.2361  1.1160
  435MOL0     C58604   0.334   7.655   5.462 -0.3517  0.5666 -0.1051
  435MOL0     C58605   0.270   7.516   5.414 -1.2914 -0.0177 -0.3588
  435MOL0     C58606   0.160   7.464   5.504  0.1750 -0.1264  1.3216
  435MOL0     N58607   0.195   7.436   5.641  0.9088 -0.5301 -0.6289
  435MOL0     C58608   0.164   7.513   5.750  0.0386 -1.1486  0.3549
  435MOL0     C58609   0.240   7.453   5.845  0.0408 -0.6566 -0.4013
  435MOL0     C58610   0.242   7.484   5.990  0.1687  0.4433  0.2824
  435MOL0     C58611   0.102   7.457   6.055 -0.5422 -0.0595  0.2212
  435MOL0     C58612   0.102   7.442   6.207  0.4482 -0.1414 -0.3499
  435MOL0     C58613  -0.040   7.398   6.250 -0.1676  0.4916  0.6557
  435MOL0     O58614  -0.039   7.375   6.396  0.1449 -0.4925  0.5598
  435MOL0     C58615  -0.127   7.454   6.472  0.2253 -0.0191 -0.4194
  435MOL0     C58616  -0.153   7.591   6.441  0.6619 -0.8762  0.3371
  435MOL0     C58617  -0.232   7.672   6.520 -0.3789  0.0611  0.2987
  435MOL0     C58618  -0.249   7.814   6.473  0.3834  0.7907 -0.4634
  435MOL0     C58619  -0.287   7.623   6.640 -0.4483  0.3614 -0.1702
  435MOL0     C58620  -0.346   7.711   6.747 -0.1805  0.1270 -0.4029
  435MOL0     O58621  -0.262   7.729   6.859  1.0409 -0.0873  0.3753
  435MOL0     C58622  -0.297   7.840   6.930 -0.6308  0.9244 -0.0663
  435MOL0     C58623  -0.216   7.952   6.917 -0.8936  0.1769 -0.0061
  435MOL0     C58624  -0.243   8.064   6.991  0.2518 -0.9437 -0.4448
  435MOL0     C58625  -0.350   8.080   7.079  0.4057  0.0413  0.8499
  435MOL0     O58626  -0.376   8.196   7.146  0.4923 -0.8789  0.2657
  435MOL0     C58627  -0.488   8.262   7.086  0.4660 -0.7260  0.4965
  435MOL0     C58628  -0.517   8.386   7.175 -0.7468 -0.7496  0.5306
  435MOL0     C58629  -0.603   8.353   7.304 -0.2029 -0.5217 -0.0303
  435MOL0     C58630  -0.743   8.300   7.266 -0.2723  1.0865  0.4670
  435MOL0     C58631  -0.833   8.288   7.393 -0.8444  0.5249  0.0656
  435MOL0     C58632  -0.986   8.291   7.358 -0.6175 -0.4254 -0.1740
  435MOL0     C58633  -1.050   8.211   7.473  0.4096  0.3349  0.3554
  435MOL0     C58634  -1.194   8.204   7.472  0.4161  0.3441  0.0562
  435MOL0    Cl58635  -1.237   8.099   7.329  0.0709  0.4610 -0.1523
  435MOL0     C58636  -0.425   7.964   7.097  0.2486  0.1033 -0.1144
  435MOL0     C58637  -0.399   7.847   7.024 -0.2017  0.2664 -0.4764
  435MOL0     O58638  -0.456   7.761   6.735 -0.1363  0.5450 -0.2559
  435MOL0     C58639  -0.269   7.484   6.668 -0.2045 -0.1641  0.6265
  435MOL0     C58640  -0.189   7.405   6.582 -0.2633  0.2283 -0.3024
  435MOL0     N58641   0.288   7.329   5.802  0.1913 -1.0877  0.0738
  435MOL0     N58642   0.264   7.325   5.676 -0.0741 -1.0130  0.0655
  435MOL0     C58643   1.202   7.625   5.192  0.4030  0.5027  0.5246
  435MOL0     C58644   1.343   7.652   5.200  0.0857 -0.5257 -0.3824
  435MOL0     C58645   1.723   7.833   5.345  0.0936 -0.1512 -0.0152
  435MOL0     C58646   1.803   7.734   5.393  0.1204  1.2958 -0.2177
  435MOL0     C58647   1.942   7.761   5.422 -0.0851 -0.0323  0.0256
  435MOL0     C58648   1.997   7.883   5.375  0.0657  0.2981  0.4592
  435MOL0     O58649   2.134   7.915   5.363 -0.4526 -0.0093  0.3245
  435MOL0     C58650   2.236   7.838   5.424  0.6976  0.6325 -0.5262
  435MOL0     C58651   2.368   7.909   5.389 -0.3729 -1.1570 -0.4173
  435MOL0     C58652   2.372   8.054   5.438 -0.3816 -0.4842 -0.4476
  435MOL0     C58653   2.440   8.067   5.581  0.6928 -0.0325 -0.0821
  435MOL0     C58654   2.583   8.037   5.587  0.6950  0.9018  0.1958
  435MOL0     C58655   2.702   8.005   5.568  0.0572 -0.0186  0.0330
  435MOL0     C58656   1.914   7.980   5.324  0.0766  0.1282 -0.3382
  435MOL0     C58657   1.776   7.957   5.312 -0.5167  0.0538  0.0239
  435MOL0     H58658   1.359   7.673   5.547  3.8085 -3.2249  0.0635
  435MOL0     H58659   1.109   7.603   5.508  1.0125  0.5616  1.0174
  435MOL0     H58660   0.932   7.757   5.236 -0.3562 -0.2480 -0.0317
  435MOL0     H58661   0.907   7.638   5.108  1.0067  1.0603  0.0617
  435MOL0     H58662   0.734   7.511   5.260 -1.8619  0.0123 -0.2630
  435MOL0     H58663   0.757   7.634   5.382  1.3161 -0.1798  0.4416
  435MOL0     H58664   0.654   7.809   5.235 -0.8617  0.4805 -1.1133
  435MOL0     H58665   0.658   7.698   5.101  5.9175 -2.5414  1.0495
  435MOL0     H58666   0.424   7.704   5.181  0.5332  0.1158  0.0665
  435MOL0     H58667   0.486   7.549   5.231 -1.4232 -0.2304 -0.4868
  435MOL0     H58668   0.555   7.646   5.454 -0.1982  0.4694  0.5902
  435MOL0     H58669   0.479   7.799   5.401 -1.6320  0.2936  1.2041
  435MOL0     H58670   0.348   7.645   5.570 -0.8914 -3.1562 -0.2409
  435MOL0     H58671   0.264   7.738   5.447  0.7998  1.4734 -0.5778
  435MOL0     H58672   0.245   7.512   5.308 -0.4547 -0.7062 -0.5448
  435MOL0     H58673   0.351   7.443   5.419 -0.7634  0.4942 -1.1567
  435MOL0     H58674   0.109   7.376   5.465  2.6450 -2.3784  2.8798
  435MOL0     H58675   0.085   7.544   5.515 -0.4057 -0.3633 -0.5033
  435MOL0     H58676   0.096   7.597   5.741  0.4031 -0.6136  2.1509
  435MOL0     H58677   0.311   7.416   6.040 -0.0741  0.1112  0.1623
  435MOL0     H58678   0.275   7.589   5.991 -0.5431  0.8323 -3.4338
  435MOL0     H58679   0.060   7.369   6.005 -0.5041  0.8887 -1.5427
  435MOL0     H58680   0.031   7.538   6.035 -2.0809 -1.8413 -2.0816
  435MOL0     H58681   0.116   7.542   6.248 -2.7137 -0.5939  2.2471
  435MOL0     H58682   0.174   7.368   6.243  1.9204  0.8040 -1.2510
  435MOL0     H58683  -0.078   7.312   6.195  2.7082 -0.4847 -0.0035
  435MOL0     H58684  -0.104   7.481   6.219  0.6110  1.5918  1.8781
  435MOL0     H58685  -0.102   7.629   6.353  3.4181 -3.3072  0.7354
  435MOL0     H58686  -0.354   7.836   6.453 -0.4883  0.2485  2.9752
  435MOL0     H58687  -0.210   7.879   6.551  3.6116  2.2480 -3.0345
  435MOL0     H58688  -0.181   7.830   6.389  3.5451  0.5874  1.8770
  435MOL0     H58689  -0.135   7.944   6.846  1.5597 -1.2869  2.7183
  435MOL0     H58690  -0.167   8.140   6.983  0.2587 -1.0384 -1.3496
  435MOL0     H58691  -0.468   8.288   6.982  0.9898  2.4183  1.2871
  435MOL0     H58692  -0.579   8.201   7.091 -1.9885  2.7655  2.2048
  435MOL0     H58693  -0.420   8.431   7.197 -1.0699 -0.6557  1.8508
  435MOL0     H58694  -0.563   8.464   7.115  0.3873  2.2405  3.2636
  435MOL0     H58695  -0.606   8.431   7.381 -0.8506 -2.5043  2.0544
  435MOL0     H58696  -0.567   8.268   7.363 -4.0926 -2.6852 -0.3871
  435MOL0     H58697  -0.794   8.371   7.200  0.7070  1.6856  0.3410
  435MOL0     H58698  -0.737   8.204   7.214  1.8253  0.0682  2.3914
  435MOL0     H58699  -0.814   8.374   7.458  1.8285 -0.6589  0.9908
  435MOL0     H58700  -0.804   8.197   7.447 -0.3862 -0.1522 -1.2710
  435MOL0     H58701  -1.015   8.395   7.370 -0.8379 -0.3492 -1.3329
  435MOL0     H58702  -1.020   8.253   7.262 -1.8651 -0.4835  0.2761
  435MOL0     H58703  -1.027   8.258   7.569 -0.0354  0.8887  0.1939
  435MOL0     H58704  -1.004   8.112   7.477 -1.4106 -0.7290 -2.0300
  435MOL0     H58705  -1.237   8.304   7.458 -0.0477  0.1270 -0.0771
  435MOL0     H58706  -1.230   8.156   7.564 -2.1386 -0.8783 -1.4506
  435MOL0     H58707  -0.495   7.942   7.177  1.3264 -1.9093  0.3697
  435MOL0     H58708  -0.455   7.754   7.028 -2.4561  1.5074 -1.3319
  435MOL0     H58709  -0.311   7.437   6.757 -1.6754  0.0153  0.0525
  435MOL0     H58710  -0.176   7.306   6.625 -3.4174  0.8923  2.7075
  435MOL0     H58711   1.156   7.598   5.097  1.8340 -3.1880  0.7185
  435MOL0     H58712   1.402   7.670   5.111 -0.0701 -1.3546 -0.6559
  435MOL0     H58713   1.767   7.635   5.418  1.5307  0.3036 -1.8852
  435MOL0     H58714   2.002   7.673   5.441 -0.6203 -0.3071  0.4644
  435MOL0     H58715   2.222   7.819   5.530 -4.4628 -0.0354 -1.0910
  435MOL0     H58716   2.232   7.738   5.380  2.1669  0.7781 -1.0641
  435MOL0     H58717   2.381   7.914   5.280  3.2297 -0.2658 -0.0874
  435MOL0     H58718   2.453   7.853   5.429  1.1092  0.4741 -1.1390
  435MOL0     H58719   2.275   8.100   5.455 -1.1664 -1.8542 -1.0824
  435MOL0     H58720   2.414   8.124   5.365  0.3417  1.6239  1.8562
  435MOL0     H58721   2.390   8.000   5.651  0.2823  1.5417  1.1952
  435MOL0     H58722   2.408   8.162   5.624 -1.9200 -0.2652 -1.3307
  435MOL0     H58723   2.807   7.993   5.556  0.1185  0.7273 -0.2047
  435MOL0     H58724   1.940   8.079   5.290 -0.9400  1.1505  1.6908
  435MOL0     H58725   1.707   8.030   5.272 -1.9023 -1.1834  0.0840
  436MOL0     O58726   8.471   8.245   1.802 -0.2379  0.0780 -0.6606
  436MOL0     C58727   8.389   8.236   1.708 -0.0250 -0.4951  1.1954
  436MOL0     O58728   8.357   8.122   1.632  0.5626 -0.2446  0.2676
  436MOL0     C58729   8.406   7.997   1.669 -0.8457 -0.0244 -0.3411
  436MOL0     C58730   8.541   7.961   1.657  0.7817  0.9491 -0.4059
  436MOL0     C58731   8.587   7.845   1.716 -0.5445  0.1814 -0.6859
  436MOL0     C58732   8.493   7.757   1.766 -0.3980  0.7196  0.1343
  436MOL0     O58733   8.534   7.637   1.817  0.5145  0.1891 -0.4502
  436MOL0     C58734   8.627   7.570   1.729 -0.7118  0.2406 -0.4441
  436MOL0     C58735   8.622   7.417   1.769  0.0380  0.5868 -0.1093
  436MOL0     C58736   8.659   7.398   1.925  1.9986  1.2345 -0.3941
  436MOL0     C58737   8.685   7.253   1.964 -0.4287 -0.1879  0.4537
  436MOL0     C58738   8.704   7.257   2.116 -0.1984  0.0769 -0.4323
  436MOL0     C58739   8.781   7.130   2.156 -0.3798  0.4995 -0.1981
  436MOL0     C58740   8.796   7.098   2.304  0.8219  0.2145  0.1692
  436MOL0     C58741   8.863   7.190   2.390  0.5685  0.0930 -0.4242
  436MOL0     N58742   9.003   7.184   2.356 -0.1843 -1.0051 -0.5243
  436MOL0     C58743   9.066   7.293   2.299 -1.0166 -0.3383  0.9422
  436MOL0     C58744   9.200   7.252   2.293  0.5983  0.3770 -0.0830
  436MOL0     C58745   9.308   7.339   2.244  0.8212 -0.2232  1.0446
  436MOL0     C58746   9.313   7.353   2.088 -0.2902  0.1393 -0.5169
  436MOL0     C58747   9.187   7.389   2.003  0.1992  0.6150 -0.0093
  436MOL0     C58748   9.209   7.393   1.851 -1.8488  0.6707 -0.4462
  436MOL0     O58749   9.095   7.362   1.780 -0.7662  0.2665 -0.7796
  436MOL0     C58750   9.030   7.468   1.729 -0.9659 -0.0833 -0.3058
  436MOL0     C58751   8.968   7.441   1.611  0.9277 -0.2959  0.1073
  436MOL0     C58752   8.910   7.540   1.536  0.4180 -0.3438 -0.6127
  436MOL0     C58753   8.826   7.502   1.422  0.1620 -0.5385  0.9905
  436MOL0     C58754   8.923   7.673   1.578  0.1325  0.4474 -0.1471
  436MOL0     C58755   8.867   7.784   1.497  0.7310  0.1572  0.5732
  436MOL0     O58756   8.940   7.906   1.502  0.5600  0.5201  0.4460
  436MOL0     C58757   8.873   8.019   1.474  0.5504 -0.7914 -0.1541
  436MOL0     C58758   8.873   8.112   1.578  0.3640  0.4521  0.6102
  436MOL0     C58759   8.819   8.237   1.570 -0.2215 -0.9466 -0.5423
  436MOL0     C58760   8.764   8.280   1.447 -0.2441  1.6586 -0.4557
  436MOL0     O58761   8.710   8.400   1.417  0.0792  0.1283  0.4953
  436MOL0     C58762   8.744   8.509   1.499  0.1367 -1.0250  0.6445
  436MOL0     C58763   8.703   8.647   1.425 -0.2420  0.2154 -0.0564
  436MOL0     C58764   8.812   8.686   1.319 -0.7715 -0.6221  0.1561
  436MOL0     C58765   8.775   8.818   1.249  0.3787  0.0498  0.1737
  436MOL0     C58766   8.816   8.935   1.338  0.1587 -0.1844 -1.2864
  436MOL0     C58767   8.834   9.072   1.270 -0.3505 -0.5073  0.3267
  436MOL0     C58768   8.697   9.108   1.209  0.6444 -0.1671  0.1399
  436MOL0     C58769   8.679   9.255   1.193  0.1673 -0.2653  0.2388
  436MOL0    Cl58770   8.832   9.350   1.133  0.4901  0.4787 -0.1695
  436MOL0     C58771   8.747   8.183   1.349  0.4862 -0.2164 -0.1677
  436MOL0     C58772   8.805   8.051   1.353  0.5465 -0.2616 -0.1421
  436MOL0     O58773   8.749   7.775   1.462  0.2527  0.0863  0.0581
  436MOL0     C58774   8.978   7.705   1.703  0.1936  0.2065  0.2114
  436MOL0     C58775   9.032   7.603   1.775 -1.2052 -0.6099 -0.2999
  436MOL0     N58776   9.209   7.125   2.338 -0.1997 -0.5526  0.2663
  436MOL0     N58777   9.092   7.078   2.369 -0.3886 -0.5238 -0.1516
  436MOL0     C58778   8.358   7.784   1.770  0.3412 -0.4228 -0.4036
  436MOL0     C58779   8.318   7.905   1.720 -0.1675 -0.2528 -0.3777
  436MOL0     C58780   8.332   8.365   1.663 -0.6374  0.0649  0.8104
  436MOL0     C58781   8.204   8.383   1.597 -0.9865  0.1153 -0.2872
  436MOL0     C58782   8.154   8.505   1.567 -0.2796  0.7242 -0.3754
  436MOL0     C58783   8.218   8.624   1.604 -0.8696  0.2521  0.3325
  436MOL0     O58784   8.174   8.753   1.567  0.0370 -0.0507  0.5162
  436MOL0     C58785   8.050   8.773   1.507 -0.1332  0.0711 -0.1795
  436MOL0     C58786   8.029   8.730   1.367 -0.1017 -0.1264 -0.4448
  436MOL0     C58787   8.078   8.829   1.273  0.3814 -0.3272 -0.0883
  436MOL0     C58788   8.021   8.807   1.135 -0.5423 -0.8616  0.8152
  436MOL0     C58789   8.080   8.700   1.061  0.3098  0.7634 -0.2310
  436MOL0     C58790   8.125   8.594   1.015 -0.7451  0.0509 -1.1681
  436MOL0     C58791   8.338   8.615   1.665  0.1331 -1.3269  0.0068
  436MOL0     C58792   8.393   8.493   1.695  0.2919 -0.0327 -0.5176
  436MOL0     H58793   8.613   8.040   1.640  1.1696  0.9365  1.0513
  436MOL0     H58794   8.694   7.830   1.707 -0.4652 -0.2250  0.6926
  436MOL0     H58795   8.603   7.588   1.624 -1.5922  0.1869 -0.2633
  436MOL0     H58796   8.725   7.612   1.751 -0.4054 -0.5849 -0.1991
  436MOL0     H58797   8.528   7.364   1.750  1.0496 -0.3496 -3.0509
  436MOL0     H58798   8.693   7.365   1.705 -1.6667 -1.9416 -0.0800
  436MOL0     H58799   8.737   7.470   1.954  1.8677  0.5866  1.7702
  436MOL0     H58800   8.570   7.427   1.982 -0.5852 -3.8327 -1.2918
  436MOL0     H58801   8.595   7.195   1.941 -0.9416 -0.0925  2.0661
  436MOL0     H58802   8.766   7.212   1.903  1.0306  0.7699  1.6568
  436MOL0     H58803   8.759   7.346   2.149  1.4098 -1.2293  0.5993
  436MOL0     H58804   8.606   7.251   2.164 -0.2870  0.5483 -0.5423
  436MOL0     H58805   8.724   7.044   2.121 -0.8869  1.2782 -1.3404
  436MOL0     H58806   8.879   7.138   2.108  1.8095  0.2100  3.7770
  436MOL0     H58807   8.693   7.095   2.343  1.7086  0.8820  2.7686
  436MOL0     H58808   8.836   6.997   2.317 -1.4050 -1.0955 -2.1928
  436MOL0     H58809   8.854   7.154   2.493  1.5382 -1.1718 -0.7525
  436MOL0     H58810   8.836   7.296   2.393 -1.4582 -0.3575 -0.9385
  436MOL0     H58811   9.026   7.390   2.274 -1.8557 -0.8343  0.2772
  436MOL0     H58812   9.306   7.436   2.295 -2.7225 -0.5346  1.7107
  436MOL0     H58813   9.404   7.303   2.281  0.4950 -0.9673  1.1832
  436MOL0     H58814   9.365   7.272   2.036  0.0969  1.6738 -2.6865
  436MOL0     H58815   9.383   7.435   2.070  0.7505 -0.8392 -1.0522
  436MOL0     H58816   9.154   7.482   2.050  0.7374 -0.0668  1.8504
  436MOL0     H58817   9.106   7.317   2.020  1.0308 -0.5959 -1.0106
  436MOL0     H58818   9.281   7.315   1.825 -0.3272  1.6556  0.6676
  436MOL0     H58819   9.258   7.487   1.822 -1.3259  0.5674  0.0871
  436MOL0     H58820   8.946   7.342   1.573 -0.2764 -0.4441  1.1394
  436MOL0     H58821   8.836   7.399   1.386 -1.3555  0.4719 -2.7067
  436MOL0     H58822   8.721   7.524   1.443 -0.7670 -1.2084 -2.4495
  436MOL0     H58823   8.856   7.576   1.348  2.1788 -0.6358  1.6393
  436MOL0     H58824   8.928   8.106   1.672  0.5716  4.7490  0.9704
  436MOL0     H58825   8.836   8.307   1.651 -2.6357 -1.0157  0.1271
  436MOL0     H58826   8.681   8.500   1.588 -1.1714  1.1843  0.0402
  436MOL0     H58827   8.852   8.514   1.515  0.0139 -0.6781  1.4204
  436MOL0     H58828   8.609   8.635   1.371  0.7576  1.9985 -2.3683
  436MOL0     H58829   8.692   8.717   1.508  1.0982  0.7372 -0.2794
  436MOL0     H58830   8.819   8.612   1.239 -1.2595  0.8251 -1.2701
  436MOL0     H58831   8.906   8.700   1.373  0.1494  1.7038 -1.8612
  436MOL0     H58832   8.828   8.830   1.154 -0.8484  0.9317 -0.4248
  436MOL0     H58833   8.668   8.813   1.227  0.4519  1.2836 -0.5826
  436MOL0     H58834   8.910   8.924   1.393 -0.2142  0.6557 -0.4604
  436MOL0     H58835   8.740   8.944   1.417  1.0873  1.4870 -0.5246
  436MOL0     H58836   8.869   9.147   1.342  4.3581  0.5456 -2.5857
  436MOL0     H58837   8.909   9.065   1.191 -0.3928  1.1134  0.1178
  436MOL0     H58838   8.619   9.075   1.277 -0.2917  1.0512 -0.3107
  436MOL0     H58839   8.679   9.060   1.112  0.9238  1.2527 -0.6418
  436MOL0     H58840   8.667   9.294   1.294 -0.6942  0.0614  0.0136
  436MOL0     H58841   8.596   9.286   1.129  1.1899  3.2227  0.4443
  436MOL0     H58842   8.695   8.213   1.258  3.1083 -1.3995 -2.1859
  436MOL0     H58843   8.807   7.976   1.275 -0.3768 -0.7736  0.3057
  436MOL0     H58844   8.983   7.808   1.734  2.2030  0.8112 -1.8658
  436MOL0     H58845   9.088   7.615   1.867 -1.1004 -1.8399 -0.1855
  436MOL0     H58846   8.284   7.713   1.804  1.3120 -0.1785  2.5056
  436MOL0     H58847   8.213   7.930   1.728  0.1630  0.6450  1.8887
  436MOL0     H58848   8.133   8.307   1.567  0.3935 -1.4908  0.3812
  436MOL0     H58849   8.053   8.517   1.528 -0.3076 -1.9800 -1.3247
  436MOL0     H58850   7.986   8.711   1.571  3.0965  0.2284  3.5318
  436MOL0     H58851   8.028   8.878   1.527 -1.0903  0.0275 -0.9092
  436MOL0     H58852   7.919   8.733   1.366 -0.0769  1.4701 -1.3970
  436MOL0     H58853   8.059   8.629   1.337  0.8588 -0.3161  1.0724
  436MOL0     H58854   8.187   8.822   1.265  0.3550 -0.5072 -0.3008
  436MOL0     H58855   8.046   8.925   1.315  0.4657 -0.6911  0.8230
  436MOL0     H58856   8.041   8.892   1.070  0.3609  0.4445  2.7012
  436MOL0     H58857   7.912   8.798   1.140 -0.4319 -2.1860  1.3208
  436MOL0     H58858   8.165   8.502   0.979  0.5205  0.5345 -1.0251
  436MOL0     H58859   8.390   8.709   1.686 -3.2818  1.0350 -1.1511
  436MOL0     H58860   8.488   8.490   1.746 -0.8724  0.4303  1.8376
  437MOL0     O58861   0.937   4.225   7.151  0.4929 -0.6323  0.5552
  437MOL0     C58862   0.902   4.114   7.184  0.2622 -0.0130 -0.3329
  437MOL0     O58863   0.907   4.065   7.308 -0.1540  1.0757 -0.5047
  437MOL0     C58864   0.948   4.149   7.417  0.1091  0.4216  0.6159
  437MOL0     C58865   1.061   4.104   7.487  0.9874  0.3411 -0.5098
  437MOL0     C58866   1.090   4.170   7.611 -0.8207 -0.7595  0.2730
  437MOL0     C58867   1.014   4.276   7.654 -0.4317  0.3060 -0.0450
  437MOL0     O58868   1.038   4.353   7.762 -0.6447  0.1212  0.4400
  437MOL0     C58869   1.151   4.439   7.764 -0.1975 -0.4415 -0.5821
  437MOL0     C58870   1.269   4.393   7.853  0.3946  0.0916 -0.4111
  437MOL0     C58871   1.230   4.404   8.002 -0.0090 -0.4918 -0.4455
  437MOL0     C58872   1.354   4.446   8.088 -0.8760  0.8588  1.1315
  437MOL0     C58873   1.319   4.432   8.237 -0.0511 -0.5131  0.7221
  437MOL0     C58874   1.418   4.494   8.329 -0.3262  0.4360  0.5721
  437MOL0     C58875   1.397   4.643   8.349 -0.0390  0.3964 -0.0936
  437MOL0     C58876   1.489   4.700   8.462 -0.5872 -0.3579 -0.3054
  437MOL0     N58877   1.454   4.839   8.491 -0.5754 -0.1617  0.4866
  437MOL0     C58878   1.334   4.885   8.536 -0.3111 -0.3409  0.4273
  437MOL0     C58879   1.357   5.014   8.576 -0.4395  0.2044  0.4759
  437MOL0     C58880   1.256   5.106   8.634  0.0185 -0.4592 -0.4325
  437MOL0     C58881   1.183   5.188   8.528 -0.5435 -0.4888 -0.1764
  437MOL0     C58882   1.054   5.125   8.462  0.4908  0.2366  0.4055
  437MOL0     C58883   0.951   5.069   8.554  0.0767 -0.0023  0.0362
  437MOL0     O58884   0.848   5.019   8.468  0.0796  0.8367 -0.6554
  437MOL0     C58885   0.727   4.968   8.520 -0.8452  1.2592  0.0371
  437MOL0     C58886   0.661   4.865   8.447 -1.4547 -0.4368 -1.4082
  437MOL0     C58887   0.546   4.811   8.501 -0.3368  0.9552  0.4224
  437MOL0     C58888   0.489   4.697   8.413 -0.9928  0.1492  0.4133
  437MOL0     C58889   0.495   4.853   8.627 -0.3682  0.3698  0.1715
  437MOL0     C58890   0.367   4.793   8.677  0.7178 -0.1279  0.5075
  437MOL0     O58891   0.312   4.846   8.792  0.3214  0.7433 -0.1111
  437MOL0     C58892   0.235   4.768   8.870 -0.7389 -0.0164  0.4447
  437MOL0     C58893   0.293   4.751   9.002  0.4009  0.2604  0.2717
  437MOL0     C58894   0.218   4.671   9.088 -0.1136 -0.6614  0.1329
  437MOL0     C58895   0.091   4.619   9.050 -0.1512  1.0778 -0.2304
  437MOL0     O58896   0.007   4.542   9.129 -0.4079 -0.4400  0.7660
  437MOL0     C58897   0.044   4.517   9.265 -0.1724  0.2054  0.1776
  437MOL0     C58898   0.149   4.412   9.275 -0.3654  0.1976 -0.9060
  437MOL0     C58899   0.104   4.268   9.231 -0.2400 -0.6261 -0.1065
  437MOL0     C58900   0.031   4.185   9.337  0.2153  0.8344  0.6006
  437MOL0     C58901   0.062   4.033   9.294  0.8218  0.1195  0.1459
  437MOL0     C58902   0.026   3.939   9.415 -0.1162 -0.7406  0.5925
  437MOL0     C58903  -0.128   3.910   9.416  0.9317 -0.4956  0.0122
  437MOL0     C58904  -0.179   3.867   9.554 -0.3532 -0.4095 -0.4140
  437MOL0    Cl58905  -0.088   3.736   9.634 -0.3680 -0.2572  0.5433
  437MOL0     C58906   0.031   4.647   8.924  0.2040 -0.4003 -0.1548
  437MOL0     C58907   0.104   4.726   8.833 -0.8497  1.2429  0.0342
  437MOL0     O58908   0.312   4.693   8.626  0.5239 -0.5213 -0.1991
  437MOL0     C58909   0.562   4.955   8.695  1.5316 -1.3208  0.2663
  437MOL0     C58910   0.679   5.016   8.640 -0.0859  0.0700 -0.0674
  437MOL0     N58911   1.488   5.058   8.550 -0.2212  0.0186 -0.1039
  437MOL0     N58912   1.537   4.944   8.502 -0.4966  0.7438  0.2286
  437MOL0     C58913   0.893   4.305   7.590  0.8191 -0.0418  0.0826
  437MOL0     C58914   0.857   4.240   7.475 -0.3476 -0.3999  0.5985
  437MOL0     C58915   0.861   4.009   7.087 -0.1646  0.5529 -0.1644
  437MOL0     C58916   0.922   3.881   7.095  1.1373 -1.2879 -0.3722
  437MOL0     C58917   0.887   3.787   7.002 -0.1342  0.3687  1.1124
  437MOL0     C58918   0.800   3.822   6.892  0.3568 -0.3255  0.1371
  437MOL0     O58919   0.787   3.719   6.810  0.2437  0.1932  0.3066
  437MOL0     C58920   0.660   3.708   6.747  0.1475  0.1345  0.8142
  437MOL0     C58921   0.554   3.675   6.852 -0.2799  0.4487 -0.2874
  437MOL0     C58922   0.579   3.535   6.926  0.8281  1.1703  0.1598
  437MOL0     C58923   0.556   3.424   6.822 -0.8165  1.0522  0.1779
  437MOL0     C58924   0.413   3.420   6.788  0.1998 -1.1319 -0.0270
  437MOL0     C58925   0.303   3.401   6.732  0.4702 -0.3471  0.1805
  437MOL0     C58926   0.744   3.946   6.884 -0.0266  0.6216 -0.0817
  437MOL0     C58927   0.769   4.035   6.987  0.6931 -0.3369 -0.4560
  437MOL0     H58928   1.127   4.024   7.454 -0.2559 -1.7562  1.7051
  437MOL0     H58929   1.183   4.134   7.653 -1.4320  0.7219  3.1411
  437MOL0     H58930   1.186   4.454   7.661 -1.0919 -0.0498 -0.8390
  437MOL0     H58931   1.113   4.536   7.797  0.6233 -0.1075 -0.5751
  437MOL0     H58932   1.303   4.295   7.820 -0.0186  0.1932 -1.1483
  437MOL0     H58933   1.355   4.460   7.839 -0.8088  1.9039  0.5024
  437MOL0     H58934   1.154   4.477   8.029  0.5125 -0.9539  2.7111
  437MOL0     H58935   1.197   4.305   8.036  3.6662 -2.1017 -1.0279
  437MOL0     H58936   1.433   4.373   8.068 -2.6522 -0.7938 -0.2026
  437MOL0     H58937   1.392   4.545   8.062 -1.0483  0.5355 -0.4783
  437MOL0     H58938   1.218   4.474   8.246 -0.4820 -1.5810  1.0201
  437MOL0     H58939   1.318   4.325   8.257  2.4441 -0.3460  2.1606
  437MOL0     H58940   1.407   4.449   8.428  0.8185 -2.7333 -0.6269
  437MOL0     H58941   1.523   4.474   8.307 -0.0206  1.7198  0.7548
  437MOL0     H58942   1.415   4.698   8.255  1.1869  0.3080  0.0705
  437MOL0     H58943   1.292   4.658   8.374  0.1978  1.4082  0.3697
  437MOL0     H58944   1.595   4.691   8.436  0.4128  1.3453  2.7397
  437MOL0     H58945   1.472   4.632   8.546 -1.3659 -2.3004 -1.9311
  437MOL0     H58946   1.244   4.825   8.533 -0.8035  0.1873 -5.1732
  437MOL0     H58947   1.173   5.052   8.680 -1.5650  3.4935  1.7655
  437MOL0     H58948   1.303   5.174   8.705  2.3709  0.5622 -2.7703
  437MOL0     H58949   1.249   5.195   8.441 -0.0727  1.4597  0.2930
  437MOL0     H58950   1.158   5.285   8.571 -0.3889 -0.5290  0.0054
  437MOL0     H58951   1.086   5.052   8.388 -0.2159 -0.4359  0.7543
  437MOL0     H58952   1.010   5.196   8.392  2.8122  0.0165 -1.3711
  437MOL0     H58953   0.909   5.149   8.616  2.4280  0.4286  1.1859
  437MOL0     H58954   0.989   4.995   8.625  0.3234  3.2529  3.6537
  437MOL0     H58955   0.713   4.841   8.355 -0.9503  0.0913 -1.2710
  437MOL0     H58956   0.388   4.705   8.373  0.1803  1.8665 -2.4882
  437MOL0     H58957   0.539   4.684   8.317  0.0252 -1.2047  1.0960
  437MOL0     H58958   0.496   4.607   8.476 -0.3812  1.0448  1.6694
  437MOL0     H58959   0.388   4.796   9.027  1.1883 -1.4816  0.5683
  437MOL0     H58960   0.247   4.656   9.191 -1.3472  0.0604  0.6061
  437MOL0     H58961   0.046   4.602   9.333 -2.5984  1.1246 -0.8119
  437MOL0     H58962  -0.047   4.463   9.292 -2.0764  1.8684 -2.4828
  437MOL0     H58963   0.238   4.445   9.221 -0.2625 -3.6754 -3.5458
  437MOL0     H58964   0.169   4.403   9.382 -1.4781  0.3501 -0.6752
  437MOL0     H58965   0.200   4.224   9.203  0.3220  1.2991 -1.3842
  437MOL0     H58966   0.032   4.267   9.149 -2.0290 -3.0312  1.3403
  437MOL0     H58967   0.074   4.203   9.436 -1.6958 -3.8653  2.5836
  437MOL0     H58968  -0.074   4.204   9.361 -0.1346 -0.3932  0.1412
  437MOL0     H58969   0.167   4.017   9.270  1.3559 -0.0352  2.3460
  437MOL0     H58970  -0.009   4.004   9.216 -0.5618  2.3172  0.4990
  437MOL0     H58971   0.067   3.841   9.390 -0.0065 -0.5872  0.1507
  437MOL0     H58972   0.069   3.965   9.512 -1.5764 -2.0550  1.6301
  437MOL0     H58973  -0.142   3.830   9.342  0.5789  0.3452 -0.8572
  437MOL0     H58974  -0.181   3.994   9.371  0.8968  0.4621  1.7860
  437MOL0     H58975  -0.285   3.841   9.547 -0.1700 -0.9548 -1.3367
  437MOL0     H58976  -0.179   3.954   9.620 -0.6873  0.5293 -1.6091
  437MOL0     H58977  -0.066   4.603   8.906  0.9834 -1.1125 -3.1994
  437MOL0     H58978   0.069   4.732   8.730 -1.3182  0.8285  0.1651
  437MOL0     H58979   0.514   4.989   8.786 -3.2684 -0.9165 -2.1068
  437MOL0     H58980   0.721   5.105   8.686 -1.0110 -0.3395  1.6235
  437MOL0     H58981   0.819   4.374   7.631 -1.7092 -1.5102 -1.6931
  437MOL0     H58982   0.767   4.259   7.417 -0.3273 -1.4970  0.1719
  437MOL0     H58983   0.986   3.858   7.180  3.5556  0.3392 -1.6327
  437MOL0     H58984   0.914   3.683   7.012  2.0993  1.0935  3.7816
  437MOL0     H58985   0.637   3.794   6.685 -1.3460  0.4680  1.7632
  437MOL0     H58986   0.659   3.625   6.675  0.7081  2.1030 -1.5910
  437MOL0     H58987   0.458   3.670   6.801 -0.5722  0.2695  0.2673
  437MOL0     H58988   0.544   3.760   6.921 -2.7861  1.8739 -2.2665
  437MOL0     H58989   0.518   3.518   7.015 -2.1705 -1.5853 -2.1553
  437MOL0     H58990   0.681   3.538   6.965 -0.3563  0.2975  3.6729
  437MOL0     H58991   0.571   3.322   6.858 -1.6171  0.2677 -1.5691
  437MOL0     H58992   0.609   3.433   6.726 -1.7061  1.3344 -0.3007
  437MOL0     H58993   0.208   3.362   6.702 -0.1468 -1.0331  2.7744
  437MOL0     H58994   0.678   3.978   6.804 -0.8621 -2.2681 -0.6554
  437MOL0     H58995   0.716   4.130   6.994 -1.3270 -1.4561  0.2534
  438MOL0     O58996   5.303   1.816   6.962  0.3740 -0.7272  0.3452
  438MOL0     C58997   5.367   1.865   7.050 -1.1174  0.2209  1.1656
  438MOL0     O58998   5.323   1.958   7.144 -0.0159  0.0999  0.3408
  438MOL0     C58999   5.188   1.985   7.146  0.4505  0.1768 -0.0771
  438MOL0     C59000   5.161   2.122   7.134 -0.0831  0.1893 -0.3250
  438MOL0     C59001   5.032   2.165   7.135  0.5004 -0.6853  0.2812
  438MOL0     C59002   4.924   2.076   7.137 -0.3791 -0.2180 -1.4164
  438MOL0     O59003   4.795   2.128   7.139  0.6399 -0.6284 -0.7241
  438MOL0     C59004   4.750   2.163   7.273 -0.2033  0.2838  0.1019
  438MOL0     C59005   4.612   2.235   7.273 -0.4624 -0.1583  0.1102
  438MOL0     C59006   4.518   2.128   7.212  0.4105 -1.0491 -0.3024
  438MOL0     C59007   4.375   2.180   7.216 -0.9428  0.1167  0.1999
  438MOL0     C59008   4.264   2.093   7.144  0.1963  0.2138  0.8652
  438MOL0     C59009   4.121   2.136   7.195  0.5591  0.2544  0.8133
  438MOL0     C59010   4.010   2.069   7.114 -0.4615 -0.9725  0.6505
  438MOL0     C59011   3.982   1.918   7.137 -0.2566  0.3004  0.5901
  438MOL0     N59012   3.854   1.881   7.072  0.0941  0.5656 -0.0251
  438MOL0     C59013   3.728   1.896   7.125 -1.2120  0.9753  0.2471
  438MOL0     C59014   3.646   1.846   7.031  0.0328  0.1610  0.5822
  438MOL0     C59015   3.498   1.847   7.034 -0.5028  0.1877  0.2316
  438MOL0     C59016   3.436   1.955   6.954 -0.4742 -0.2405  0.9020
  438MOL0     C59017   3.300   1.984   7.024  0.3719  0.3037 -0.1542
  438MOL0     C59018   3.212   1.868   6.980 -0.7695  0.4721 -0.0997
  438MOL0     O59019   3.098   1.872   7.064  0.3864 -0.2862 -0.0251
  438MOL0     C59020   2.997   1.784   7.059  0.3122 -0.4473  0.7038
  438MOL0     C59021   2.872   1.820   7.117  0.3340 -0.1646  0.1315
  438MOL0     C59022   2.764   1.739   7.121 -0.0153  0.1006 -0.0323
  438MOL0     C59023   2.640   1.794   7.192 -0.0026  0.4952 -0.4306
  438MOL0     C59024   2.769   1.618   7.046  0.5529 -0.2371  0.5400
  438MOL0     C59025   2.650   1.526   7.035  0.2263  0.7474 -0.4099
  438MOL0     O59026   2.658   1.420   6.957 -0.4447 -0.1343 -0.0807
  438MOL0     C59027   2.542   1.376   6.894  0.8863 -0.1413 -0.0791
  438MOL0     C59028   2.526   1.238   6.893 -0.0769 -0.0958  0.3000
  438MOL0     C59029   2.420   1.176   6.819  1.0428 -0.4294 -0.5267
  438MOL0     C59030   2.324   1.259   6.752  0.2749  0.8106  0.0704
  438MOL0     O59031   2.225   1.198   6.678 -0.3426 -0.8468 -0.6553
  438MOL0     C59032   2.104   1.155   6.737 -0.4346  0.5081 -0.4178
  438MOL0     C59033   1.998   1.168   6.634  0.4870  0.2277 -0.5377
  438MOL0     C59034   2.006   1.086   6.511  0.0048  0.1642  0.1811
  438MOL0     C59035   2.015   0.933   6.537  0.4855  0.6806 -0.0827
  438MOL0     C59036   2.155   0.877   6.556  0.4585  0.6288  0.0492
  438MOL0     C59037   2.157   0.732   6.590  0.0250  0.5958 -0.7720
  438MOL0     C59038   2.297   0.679   6.566  0.4591 -0.3631 -0.9361
  438MOL0     C59039   2.405   0.754   6.645  0.0425  1.0062  0.7474
  438MOL0    Cl59040   2.343   0.789   6.815  0.0697 -0.3949 -0.3961
  438MOL0     C59041   2.331   1.400   6.768 -0.4613 -0.0059  0.8191
  438MOL0     C59042   2.451   1.459   6.827 -0.2353  1.2012  0.9302
  438MOL0     O59043   2.551   1.556   7.093 -0.6518  0.6080  0.0610
  438MOL0     C59044   2.894   1.575   6.996 -0.6529  0.0077 -1.2411
  438MOL0     C59045   3.003   1.660   6.995  0.0640 -0.3211  0.3020
  438MOL0     N59046   3.724   1.822   6.918  0.2268 -0.1063  0.2349
  438MOL0     N59047   3.850   1.836   6.942  0.5191 -0.1460  0.0012
  438MOL0     C59048   4.954   1.942   7.155  0.5982  0.0579  0.0627
  438MOL0     C59049   5.086   1.893   7.153 -0.0120 -0.4610 -0.9326
  438MOL0     C59050   5.513   1.826   7.080  0.8376  0.8468 -0.8547
  438MOL0     C59051   5.590   1.754   6.979  0.8451 -0.6133  0.4102
  438MOL0     C59052   5.718   1.710   7.003  0.0256 -0.4802 -0.3740
  438MOL0     C59053   5.780   1.736   7.122  0.1849 -0.3552  0.0738
  438MOL0     O59054   5.912   1.686   7.128  0.0580  0.4747 -0.5171
  438MOL0     C59055   6.001   1.759   7.218 -0.5897  0.1985  0.0177
  438MOL0     C59056   6.001   1.700   7.362  0.3883  0.5922 -0.2568
  438MOL0     C59057   6.071   1.566   7.371  0.2822  0.3129 -0.1358
  438MOL0     C59058   6.054   1.488   7.500 -0.7515  0.1539  0.0929
  438MOL0     C59059   6.155   1.383   7.503 -0.9903  0.3093 -0.3560
  438MOL0     C59060   6.248   1.296   7.493  0.8773 -0.5997  0.0238
  438MOL0     C59061   5.718   1.822   7.227 -0.3137 -0.1653  0.6619
  438MOL0     C59062   5.588   1.860   7.199 -0.0693  0.1764 -0.4558
  438MOL0     H59063   5.243   2.191   7.150 -1.3242  1.8098 -0.7581
  438MOL0     H59064   5.015   2.272   7.128 -0.1619 -0.8467 -0.7324
  438MOL0     H59065   4.750   2.070   7.329  0.2536 -0.9188 -1.7947
  438MOL0     H59066   4.825   2.232   7.312  1.0229 -2.0448  2.0614
  438MOL0     H59067   4.597   2.258   7.379  1.4826  2.3281 -0.0585
  438MOL0     H59068   4.608   2.326   7.214 -1.3219 -0.3614 -0.1602
  438MOL0     H59069   4.542   2.121   7.105 -3.2042 -1.8060 -1.2015
  438MOL0     H59070   4.526   2.036   7.271 -0.7135 -1.1114 -0.2316
  438MOL0     H59071   4.345   2.203   7.318 -1.5479  3.4056 -0.6065
  438MOL0     H59072   4.371   2.280   7.172  0.8874  1.7299  3.3898
  438MOL0     H59073   4.269   2.118   7.038  0.6307  0.8988  1.0356
  438MOL0     H59074   4.280   1.985   7.144  0.1396  0.1965 -0.3802
  438MOL0     H59075   4.114   2.120   7.303  4.2351 -0.5098  1.0765
  438MOL0     H59076   4.128   2.243   7.177  4.0326 -0.2606 -2.1410
  438MOL0     H59077   3.929   2.137   7.141  1.4769  0.5269  3.2005
  438MOL0     H59078   4.036   2.091   7.010 -2.3978 -0.9384  0.1410
  438MOL0     H59079   3.957   1.893   7.241 -1.4574 -1.8663 -0.1480
  438MOL0     H59080   4.065   1.855   7.100 -1.2591 -1.3967  1.1097
  438MOL0     H59081   3.694   1.936   7.220  0.7972  1.9323  0.6027
  438MOL0     H59082   3.462   1.749   7.002  1.0224 -0.3806  0.1451
  438MOL0     H59083   3.467   1.845   7.139 -0.4922  1.1449  0.2600
  438MOL0     H59084   3.431   1.928   6.848 -0.0466 -1.2508  1.1306
  438MOL0     H59085   3.495   2.047   6.962 -0.2357 -0.5463  3.1208
  438MOL0     H59086   3.252   2.073   6.983  0.1833 -0.9297 -2.8495
  438MOL0     H59087   3.313   1.986   7.132 -0.4283 -2.2710  0.0619
  438MOL0     H59088   3.251   1.766   6.983 -0.9205  0.3929 -0.7096
  438MOL0     H59089   3.182   1.880   6.876 -0.3694  0.9043 -0.1687
  438MOL0     H59090   2.857   1.906   7.182 -0.6289 -0.4163  0.2597
  438MOL0     H59091   2.665   1.869   7.268 -0.6441  0.3414 -0.0650
  438MOL0     H59092   2.563   1.819   7.119 -2.4502  0.8534  2.1046
  438MOL0     H59093   2.607   1.714   7.260  1.4144  1.4062  1.4084
  438MOL0     H59094   2.595   1.175   6.950 -1.1460 -2.5596 -0.9778
  438MOL0     H59095   2.414   1.068   6.811  0.9973 -0.4062 -0.7992
  438MOL0     H59096   2.097   1.052   6.772 -5.3652  0.0192 -2.0064
  438MOL0     H59097   2.076   1.224   6.817 -1.5221 -1.7134  1.2103
  438MOL0     H59098   1.905   1.136   6.680 -0.5798 -1.9233 -3.8697
  438MOL0     H59099   1.995   1.277   6.621 -0.5050  0.1908 -0.6797
  438MOL0     H59100   2.087   1.113   6.442  0.3073 -0.7754  0.1562
  438MOL0     H59101   1.914   1.097   6.452  1.3933  0.8858 -1.9599
  438MOL0     H59102   1.965   0.913   6.632 -0.1330  0.1046 -0.5181
  438MOL0     H59103   1.969   0.881   6.452  0.0827  1.6150 -0.4621
  438MOL0     H59104   2.211   0.928   6.636  1.6984 -2.1794  1.0842
  438MOL0     H59105   2.216   0.895   6.467  1.2294  1.9534  0.8130
  438MOL0     H59106   2.122   0.721   6.693  1.8297  1.5433 -0.0186
  438MOL0     H59107   2.084   0.678   6.528 -2.3558  2.8605 -0.1266
  438MOL0     H59108   2.333   0.683   6.463  1.9538  0.7632 -0.4018
  438MOL0     H59109   2.295   0.583   6.619  0.4775  1.2915  2.3103
  438MOL0     H59110   2.408   0.847   6.588 -0.0377  0.0548 -0.8567
  438MOL0     H59111   2.501   0.702   6.643  0.5032  1.7375  2.2703
  438MOL0     H59112   2.254   1.460   6.721 -1.4207 -1.5516  0.3777
  438MOL0     H59113   2.474   1.564   6.838  0.1479  1.0393  1.7761
  438MOL0     H59114   2.898   1.484   6.936  0.9426 -0.0723 -1.0462
  438MOL0     H59115   3.096   1.626   6.951 -1.3643 -0.9768 -2.4864
  438MOL0     H59116   4.864   1.882   7.149 -0.2396  1.0779  1.6634
  438MOL0     H59117   5.090   1.785   7.161  0.9383 -0.3687  0.0989
  438MOL0     H59118   5.533   1.730   6.890 -0.7098 -1.6705  1.6283
  438MOL0     H59119   5.770   1.654   6.926 -0.9051 -1.3117 -0.4254
  438MOL0     H59120   6.102   1.749   7.177 -1.8204  0.1214 -3.2687
  438MOL0     H59121   5.974   1.864   7.223 -1.8555 -0.1635  2.5406
  438MOL0     H59122   5.901   1.685   7.402  0.4095 -0.1678 -0.4768
  438MOL0     H59123   6.052   1.770   7.429  1.1171  1.4198 -1.6333
  438MOL0     H59124   6.178   1.590   7.373  0.8634 -2.0270  1.3389
  438MOL0     H59125   6.038   1.497   7.293 -0.6565  0.8660 -0.2422
  438MOL0     H59126   5.954   1.445   7.509 -0.9364  0.9170  2.4467
  438MOL0     H59127   6.079   1.553   7.584 -0.0723  0.0568 -0.0301
  438MOL0     H59128   6.324   1.220   7.493 -0.0362 -1.5448  0.4065
  438MOL0     H59129   5.777   1.851   7.314  4.1462 -0.9362 -1.7904
  438MOL0     H59130   5.550   1.933   7.269 -0.8227  0.0617 -0.7411
  439MOL0     O59131   4.323   5.186   3.270 -0.4329 -0.1692  0.2139
  439MOL0     C59132   4.294   5.149   3.385 -0.3857  0.8615 -0.0639
  439MOL0     O59133   4.197   5.209   3.472 -0.5312 -0.0381 -0.5802
  439MOL0     C59134   4.124   5.315   3.442  0.0590  0.5761  0.4352
  439MOL0     C59135   4.009   5.302   3.356 -0.3659  0.2780  0.3067
  439MOL0     C59136   3.934   5.411   3.328 -0.1011  0.7635  0.0845
  439MOL0     C59137   3.982   5.540   3.362  0.5996 -0.2984 -0.4367
  439MOL0     O59138   3.924   5.659   3.326 -0.2503 -0.3024 -0.1241
  439MOL0     C59139   3.856   5.660   3.198 -0.3275 -0.2086 -0.4505
  439MOL0     C59140   3.706   5.642   3.215  0.1303  0.1202  0.3900
  439MOL0     C59141   3.629   5.643   3.081 -0.3982  0.3915  0.0152
  439MOL0     C59142   3.481   5.672   3.076 -0.5254  0.1143 -0.8435
  439MOL0     C59143   3.414   5.641   2.941  0.1492  0.0182 -0.6906
  439MOL0     C59144   3.273   5.701   2.946  0.6928 -0.8194  0.0930
  439MOL0     C59145   3.207   5.684   2.818 -0.5307  0.6676 -0.8415
  439MOL0     C59146   3.062   5.738   2.813  0.0180 -1.5602  0.8506
  439MOL0     N59147   2.993   5.659   2.708 -0.0939  0.0421 -0.6056
  439MOL0     C59148   2.948   5.530   2.710 -0.2045  1.1070 -0.1990
  439MOL0     C59149   2.857   5.522   2.606  0.7088 -0.6624  0.7384
  439MOL0     C59150   2.776   5.413   2.540  0.1727  0.1071 -0.1536
  439MOL0     C59151   2.868   5.288   2.529  0.0117 -0.3151  0.2712
  439MOL0     C59152   2.778   5.173   2.465  0.7395  0.0155 -0.4498
  439MOL0     C59153   2.855   5.041   2.442 -0.2858  0.2852  0.8126
  439MOL0     O59154   2.933   5.049   2.323 -1.0152  0.3489 -0.1704
  439MOL0     C59155   2.874   5.017   2.208 -0.6671  0.2657 -0.5682
  439MOL0     C59156   2.737   4.994   2.193 -0.2471  0.5943  0.2511
  439MOL0     C59157   2.683   4.962   2.071  0.2077 -0.5760  0.5447
  439MOL0     C59158   2.534   4.953   2.060  0.3288 -0.0060 -0.6268
  439MOL0     C59159   2.769   4.978   1.951  1.0250  0.2883  0.1221
  439MOL0     C59160   2.719   4.983   1.813  0.4808  0.5203 -0.6864
  439MOL0     O59161   2.804   5.045   1.723 -0.4938 -0.1368 -0.1172
  439MOL0     C59162   2.776   5.073   1.595 -0.1532 -0.1439 -0.3512
  439MOL0     C59163   2.648   5.113   1.550 -0.9250  0.3435  0.4923
  439MOL0     C59164   2.628   5.161   1.418  0.4456  0.4384  0.1053
  439MOL0     C59165   2.737   5.179   1.329  0.0682 -0.4860  0.2526
  439MOL0     O59166   2.721   5.244   1.205  0.2357 -1.0346 -0.5190
  439MOL0     C59167   2.795   5.216   1.091 -0.3378  0.0290  0.4811
  439MOL0     C59168   2.926   5.302   1.091 -0.4116  0.1552  0.7068
  439MOL0     C59169   3.010   5.231   0.982  0.0590 -0.0991 -0.0992
  439MOL0     C59170   3.141   5.310   0.948 -0.5961  0.4603  0.1220
  439MOL0     C59171   3.256   5.210   0.936 -0.5589  0.8560 -0.3883
  439MOL0     C59172   3.386   5.277   0.898  0.4608 -0.4492 -0.3717
  439MOL0     C59173   3.477   5.174   0.817 -0.1743 -0.4554 -0.7394
  439MOL0     C59174   3.591   5.254   0.777  0.2992 -0.3181  0.3990
  439MOL0    Cl59175   3.548   5.363   0.645 -0.2294 -0.0960  0.3212
  439MOL0     C59176   2.864   5.120   1.370 -0.4814  0.1122  1.0378
  439MOL0     C59177   2.885   5.083   1.502  0.4753  0.3037 -0.4064
  439MOL0     O59178   2.619   4.928   1.776 -0.3197 -0.1157  1.1588
  439MOL0     C59179   2.909   4.999   1.970  0.4745 -0.6863 -0.0693
  439MOL0     C59180   2.958   5.016   2.097  1.3143 -0.5824  0.0681
  439MOL0     N59181   2.867   5.645   2.544 -0.9346 -0.1788  0.5210
  439MOL0     N59182   2.955   5.720   2.598  0.0439 -0.2080 -0.0269
  439MOL0     C59183   4.084   5.558   3.449 -0.9051  0.5154  0.8246
  439MOL0     C59184   4.158   5.440   3.494 -0.3926  0.4610  0.4490
  439MOL0     C59185   4.358   5.032   3.451  0.4744  0.0601 -0.1226
  439MOL0     C59186   4.470   4.982   3.400  0.0715 -0.0945 -0.2208
  439MOL0     C59187   4.536   4.870   3.461 -0.9503  0.1754  0.1381
  439MOL0     C59188   4.490   4.813   3.582 -0.7875 -0.2353  0.0552
  439MOL0     O59189   4.546   4.701   3.632 -0.1650  0.2676 -0.3626
  439MOL0     C59190   4.691   4.677   3.625  0.3289  0.2994  0.0218
  439MOL0     C59191   4.735   4.553   3.701  0.8230 -0.2620 -0.3421
  439MOL0     C59192   4.883   4.569   3.735  0.0187  0.4893 -0.0856
  439MOL0     C59193   4.915   4.661   3.858 -0.1222 -0.0669  0.8280
  439MOL0     C59194   4.880   4.599   3.988 -0.6786 -0.5474 -0.1062
  439MOL0     C59195   4.848   4.544   4.090  0.1208  0.4568 -0.2167
  439MOL0     C59196   4.380   4.871   3.632  0.0130  0.5509  0.5840
  439MOL0     C59197   4.317   4.979   3.570 -0.0822  0.4902 -0.2141
  439MOL0     H59198   3.971   5.205   3.323  0.8838  0.7993 -3.1267
  439MOL0     H59199   3.842   5.399   3.272  0.0879  2.2534 -0.6023
  439MOL0     H59200   3.881   5.759   3.159  3.4226 -0.4743  0.9409
  439MOL0     H59201   3.891   5.591   3.120 -1.4056  1.0287 -2.0985
  439MOL0     H59202   3.693   5.549   3.271  0.3978 -0.9583 -1.2886
  439MOL0     H59203   3.673   5.728   3.274 -1.7422  1.0624 -1.8911
  439MOL0     H59204   3.668   5.720   3.013 -4.0857  0.2494 -2.5644
  439MOL0     H59205   3.645   5.542   3.043 -0.8595 -0.0794  1.0447
  439MOL0     H59206   3.436   5.609   3.152 -0.7484  0.4523 -0.6935
  439MOL0     H59207   3.468   5.774   3.114  0.7830 -0.8494  2.5834
  439MOL0     H59208   3.469   5.692   2.861  2.5620 -1.0586  0.1986
  439MOL0     H59209   3.429   5.534   2.930  0.7198 -0.2516  1.9565
  439MOL0     H59210   3.218   5.640   3.019 -1.7694 -2.7183 -3.1040
  439MOL0     H59211   3.278   5.806   2.976  2.2345 -1.1649  1.1588
  439MOL0     H59212   3.272   5.733   2.745  0.0209  2.2301  0.6122
  439MOL0     H59213   3.213   5.581   2.782 -1.3500  0.9472 -1.8239
  439MOL0     H59214   3.050   5.844   2.788 -0.7157 -2.0251 -0.9670
  439MOL0     H59215   3.011   5.716   2.907 -2.2174  2.0964  0.6619
  439MOL0     H59216   2.990   5.454   2.776 -0.1799  1.5835  0.3440
  439MOL0     H59217   2.692   5.410   2.611 -0.0557  1.5000 -0.3312
  439MOL0     H59218   2.732   5.435   2.442 -0.3861 -1.1487 -0.2043
  439MOL0     H59219   2.898   5.254   2.628 -0.0976  0.0381  0.4257
  439MOL0     H59220   2.949   5.319   2.463 -0.6461 -0.5585 -0.6736
  439MOL0     H59221   2.742   5.212   2.369  0.0183 -2.2002 -1.1398
  439MOL0     H59222   2.692   5.160   2.531 -0.2020  1.4162 -1.3388
  439MOL0     H59223   2.785   4.957   2.447 -0.7822  0.7026  1.0559
  439MOL0     H59224   2.932   5.042   2.520  1.2977  2.1810 -0.6768
  439MOL0     H59225   2.664   5.005   2.273 -0.1789 -2.4005  0.8612
  439MOL0     H59226   2.489   4.942   2.159 -0.0920  1.5835 -0.6235
  439MOL0     H59227   2.497   5.042   2.008  3.1738  1.0431 -1.0250
  439MOL0     H59228   2.498   4.864   2.006  0.3990 -2.0505  2.4144
  439MOL0     H59229   2.562   5.099   1.616  0.6181 -3.4815  1.9567
  439MOL0     H59230   2.531   5.193   1.380 -0.3952 -1.5502  0.4841
  439MOL0     H59231   2.818   5.110   1.074 -3.9024 -0.8035  0.0539
  439MOL0     H59232   2.736   5.252   1.006  1.4140 -0.1182 -0.8491
  439MOL0     H59233   2.897   5.400   1.052  0.0466 -0.8901 -2.5530
  439MOL0     H59234   2.979   5.322   1.185  1.6900  0.5056 -0.4841
  439MOL0     H59235   2.949   5.201   0.896 -0.7997  0.9404  0.1305
  439MOL0     H59236   3.041   5.139   1.032 -0.2974 -0.2946 -0.2338
  439MOL0     H59237   3.129   5.368   0.856 -1.8663 -0.8396 -0.5892
  439MOL0     H59238   3.164   5.375   1.032 -1.7565  1.8410 -0.5904
  439MOL0     H59239   3.230   5.156   0.845 -1.5294 -1.8006  1.3401
  439MOL0     H59240   3.275   5.148   1.024 -0.0057 -0.5718 -1.4819
  439MOL0     H59241   3.362   5.369   0.844  3.1635  0.2079 -0.6260
  439MOL0     H59242   3.446   5.308   0.984 -2.0856 -1.6340  1.9387
  439MOL0     H59243   3.421   5.146   0.728 -1.5299  0.2060 -0.1313
  439MOL0     H59244   3.511   5.086   0.873  0.6700 -0.9756 -2.0314
  439MOL0     H59245   3.669   5.189   0.736 -0.0373 -0.7309  0.4186
  439MOL0     H59246   3.639   5.308   0.860  1.8729 -2.3077  0.8781
  439MOL0     H59247   2.945   5.109   1.298 -2.0148  0.8447 -0.8864
  439MOL0     H59248   2.984   5.045   1.525  0.6020 -1.2893 -3.1058
  439MOL0     H59249   2.971   5.007   1.881 -1.5140 -1.9868 -1.6506
  439MOL0     H59250   3.063   5.031   2.121  1.0756  2.4250 -0.2889
  439MOL0     H59251   4.110   5.657   3.488 -0.7709  0.3569  1.1440
  439MOL0     H59252   4.236   5.446   3.569 -2.3613 -2.0370  2.9163
  439MOL0     H59253   4.502   5.021   3.304 -0.1320 -3.7440 -1.9452
  439MOL0     H59254   4.607   4.813   3.402 -0.6714  1.2026 -0.5458
  439MOL0     H59255   4.731   4.664   3.525 -2.5673 -0.8102 -1.0923
  439MOL0     H59256   4.733   4.775   3.653 -2.4550  1.2995  1.0851
  439MOL0     H59257   4.724   4.464   3.638 -0.0702  0.5861 -1.4225
  439MOL0     H59258   4.666   4.538   3.785 -1.2380  3.8547 -1.0527
  439MOL0     H59259   4.941   4.625   3.661  0.4637  0.2111  0.0499
  439MOL0     H59260   4.915   4.470   3.766  0.3271  0.0735 -1.6365
  439MOL0     H59261   4.855   4.752   3.848  0.1680  0.2962  2.2420
  439MOL0     H59262   5.020   4.690   3.856  0.3150 -1.5657 -0.1855
  439MOL0     H59263   4.818   4.512   4.187  0.0465  1.0816 -0.0274
  439MOL0     H59264   4.333   4.817   3.713  1.9722 -2.6850 -0.2347
  439MOL0     H59265   4.224   4.995   3.624 -1.8523 -3.8092 -1.4874
  440MOL0     O59266   7.246   4.753   7.124  0.3587  0.9593 -0.4870
  440MOL0     C59267   7.363   4.728   7.094 -1.3507 -0.3105 -0.4677
  440MOL0     O59268   7.458   4.680   7.171 -0.8713 -1.6646 -0.3568
  440MOL0     C59269   7.416   4.635   7.291 -0.2302  0.6967  0.7201
  440MOL0     C59270   7.468   4.692   7.404 -0.7854  0.1619  0.3163
  440MOL0     C59271   7.425   4.645   7.531  0.8840  0.4921 -0.4542
  440MOL0     C59272   7.344   4.529   7.546 -0.4578 -0.5356 -0.3827
  440MOL0     O59273   7.302   4.462   7.658 -0.5367 -0.2278  0.0615
  440MOL0     C59274   7.393   4.439   7.766  0.4958  0.2483 -0.4601
  440MOL0     C59275   7.328   4.345   7.868  0.8297  0.5944 -0.8997
  440MOL0     C59276   7.214   4.435   7.933  0.0891 -0.3499  0.4133
  440MOL0     C59277   7.121   4.361   8.034  0.0335 -0.4726 -0.1372
  440MOL0     C59278   7.193   4.302   8.153 -0.4034  0.8965 -0.1975
  440MOL0     C59279   7.111   4.207   8.246 -0.2623  0.6451 -0.2801
  440MOL0     C59280   6.987   4.270   8.297 -0.6066  0.6575 -0.3254
  440MOL0     C59281   6.871   4.228   8.212 -0.0002 -0.4869  0.7561
  440MOL0     N59282   6.751   4.293   8.256  0.5653 -1.1278  0.3057
  440MOL0     C59283   6.698   4.289   8.390  0.4162 -0.7027 -0.0971
  440MOL0     C59284   6.608   4.385   8.389 -0.5362  0.0983  0.0361
  440MOL0     C59285   6.529   4.442   8.508 -0.1789 -0.6019  0.4705
  440MOL0     C59286   6.513   4.592   8.490  0.2723 -0.9909  0.7550
  440MOL0     C59287   6.438   4.665   8.595  0.8284 -0.0686 -0.3751
  440MOL0     C59288   6.491   4.651   8.738 -0.2416 -1.4064 -0.9277
  440MOL0     O59289   6.619   4.729   8.744  0.4408  0.5305  0.5005
  440MOL0     C59290   6.618   4.861   8.777  0.0648  1.0972 -0.5023
  440MOL0     C59291   6.520   4.948   8.816 -0.2352 -0.4633  0.2820
  440MOL0     C59292   6.554   5.085   8.840  0.1706 -0.0377  0.1331
  440MOL0     C59293   6.437   5.174   8.863 -0.9104  0.7898 -0.3911
  440MOL0     C59294   6.685   5.136   8.830 -0.9105 -0.0840 -0.9990
  440MOL0     C59295   6.731   5.277   8.877 -0.3084 -0.1830  0.0967
  440MOL0     O59296   6.856   5.298   8.831  0.6209 -0.0980  0.5807
  440MOL0     C59297   6.911   5.410   8.894 -0.9724  0.1392  0.1534
  440MOL0     C59298   6.939   5.518   8.807  0.2462  0.6006  0.2359
  440MOL0     C59299   7.014   5.621   8.867 -0.5693  1.1550 -0.1459
  440MOL0     C59300   7.080   5.611   8.998  0.8764 -0.2688  0.4823
  440MOL0     O59301   7.156   5.715   9.054  0.2529  0.2459  0.3404
  440MOL0     C59302   7.254   5.771   8.965 -0.5867 -0.9490 -0.0629
  440MOL0     C59303   7.324   5.884   9.049  0.2219 -0.1186  0.6789
  440MOL0     C59304   7.430   5.955   8.962 -0.9981 -0.9474  0.5268
  440MOL0     C59305   7.504   6.056   9.035  0.2580  0.1672 -0.3164
  440MOL0     C59306   7.631   6.112   8.973 -0.1757  0.3124 -0.0157
  440MOL0     C59307   7.684   6.239   9.044  0.7706  0.5847  0.7380
  440MOL0     C59308   7.838   6.248   9.019  0.4388  0.1822  0.1130
  440MOL0     C59309   7.895   6.386   9.061  0.7879  0.9512  0.2107
  440MOL0    Cl59310   8.072   6.393   9.048 -0.2274  0.3534 -0.2590
  440MOL0     C59311   7.041   5.501   9.074 -0.5738 -0.4764 -0.4790
  440MOL0     C59312   6.961   5.400   9.026 -0.4229 -0.2911  1.2598
  440MOL0     O59313   6.664   5.352   8.946  0.0289 -0.2265  0.3465
  440MOL0     C59314   6.785   5.042   8.789 -0.6405  0.7312 -0.4674
  440MOL0     C59315   6.750   4.910   8.757 -0.2837  0.3550 -0.0319
  440MOL0     N59316   6.600   4.438   8.262  0.2732  0.1340  0.2187
  440MOL0     N59317   6.686   4.382   8.186  0.4491 -0.7738 -0.2256
  440MOL0     C59318   7.303   4.467   7.429 -0.1497  0.7915  0.0984
  440MOL0     C59319   7.329   4.523   7.303 -0.8860  0.0987 -0.0564
  440MOL0     C59320   7.403   4.768   6.962 -0.9274  0.0445 -0.3773
  440MOL0     C59321   7.537   4.745   6.919  0.4451  0.2643 -0.2749
  440MOL0     C59322   7.579   4.773   6.790  0.5840 -0.9822  0.5769
  440MOL0     C59323   7.484   4.829   6.702 -0.0328 -0.8041 -0.1332
  440MOL0     O59324   7.507   4.864   6.566 -0.2510  0.6097 -0.7057
  440MOL0     C59325   7.615   4.781   6.503 -0.6918 -0.7737  0.9644
  440MOL0     C59326   7.626   4.841   6.366  0.5803 -0.1963  0.5706
  440MOL0     C59327   7.724   4.771   6.271  0.4163 -0.0968 -0.0528
  440MOL0     C59328   7.844   4.705   6.336  0.2531  0.7690 -0.1742
  440MOL0     C59329   7.916   4.808   6.416 -0.1846  0.3824  0.5624
  440MOL0     C59330   7.969   4.887   6.488 -0.5838  0.1239  0.1878
  440MOL0     C59331   7.354   4.867   6.746  0.0561  0.4547 -0.2802
  440MOL0     C59332   7.315   4.835   6.875  0.5268 -0.8194  0.2705
  440MOL0     H59333   7.538   4.774   7.417  1.0977 -1.8129  4.2973
  440MOL0     H59334   7.464   4.683   7.625  0.3584  1.0078 -0.4428
  440MOL0     H59335   7.478   4.392   7.717  0.0380 -0.8563 -0.2263
  440MOL0     H59336   7.430   4.529   7.816  2.1212 -1.3689  1.4155
  440MOL0     H59337   7.280   4.264   7.813  0.2054  1.1053 -1.1156
  440MOL0     H59338   7.393   4.313   7.950 -1.1425  1.9685  1.2979
  440MOL0     H59339   7.254   4.527   7.976 -4.2361  3.6038 -3.0769
  440MOL0     H59340   7.150   4.488   7.863  0.2722  1.9477  1.8819
  440MOL0     H59341   7.050   4.437   8.067  0.4899  0.9291 -2.2325
  440MOL0     H59342   7.067   4.286   7.976  0.0317 -0.3652 -0.2729
  440MOL0     H59343   7.277   4.236   8.126 -1.7507 -0.3108 -1.5796
  440MOL0     H59344   7.224   4.380   8.223  3.6962 -0.3554 -0.3514
  440MOL0     H59345   7.081   4.117   8.190 -2.6369  2.5384 -2.2569
  440MOL0     H59346   7.157   4.181   8.342 -0.6744 -0.3466 -0.3414
  440MOL0     H59347   6.968   4.226   8.395 -0.2775 -1.9941 -1.3666
  440MOL0     H59348   6.986   4.378   8.312 -0.6810  0.5198  0.7935
  440MOL0     H59349   6.863   4.120   8.201 -0.5623 -0.2499 -2.1815
  440MOL0     H59350   6.889   4.253   8.107  0.7869  0.2605  1.0606
  440MOL0     H59351   6.738   4.227   8.470  0.1820 -1.5290 -0.6121
  440MOL0     H59352   6.430   4.396   8.518 -1.5460  2.3872  2.5152
  440MOL0     H59353   6.587   4.418   8.598  0.0406 -1.9549 -0.0222
  440MOL0     H59354   6.460   4.596   8.395  0.1069  2.2722  0.8733
  440MOL0     H59355   6.611   4.641   8.483 -0.2343  0.1077  1.1534
  440MOL0     H59356   6.336   4.626   8.589 -0.2367  2.5228 -0.6335
  440MOL0     H59357   6.424   4.771   8.570  4.7782 -0.0902 -3.8091
  440MOL0     H59358   6.519   4.549   8.768  0.7724 -0.5740  1.1173
  440MOL0     H59359   6.414   4.686   8.807 -1.2183 -2.1376 -1.6088
  440MOL0     H59360   6.421   4.905   8.830 -0.3532 -0.9886 -1.8085
  440MOL0     H59361   6.450   5.281   8.848  1.3274  0.4296 -1.4091
  440MOL0     H59362   6.359   5.152   8.788 -0.1762 -1.4102 -0.5838
  440MOL0     H59363   6.399   5.158   8.964  0.5132  0.9196  0.1743
  440MOL0     H59364   6.904   5.526   8.705 -2.3622 -0.1001  1.0175
  440MOL0     H59365   7.041   5.702   8.801  2.9124 -0.1616 -0.5471
  440MOL0     H59366   7.322   5.690   8.939 -1.8902 -2.0849 -0.0218
  440MOL0     H59367   7.210   5.816   8.875 -0.1271  1.5026  0.8515
  440MOL0     H59368   7.256   5.966   9.071 -0.4189 -0.5590  0.3618
  440MOL0     H59369   7.367   5.848   9.143  1.2725  1.2636  0.7489
  440MOL0     H59370   7.395   6.006   8.872 -0.8200  2.4397  2.2441
  440MOL0     H59371   7.505   5.886   8.922  2.0414  1.6187  1.4587
  440MOL0     H59372   7.443   6.147   9.039  2.8331  1.9970  0.1900
  440MOL0     H59373   7.532   6.024   9.136 -2.2043  0.7391  0.6034
  440MOL0     H59374   7.612   6.134   8.868  0.2656  1.0338  0.0489
  440MOL0     H59375   7.710   6.037   8.977  1.1509  1.6259  3.7922
  440MOL0     H59376   7.629   6.323   9.001  1.9301  0.6772 -0.6377
  440MOL0     H59377   7.659   6.230   9.150  0.7854  0.2535  0.7164
  440MOL0     H59378   7.858   6.227   8.913  1.4710 -0.9782  0.5211
  440MOL0     H59379   7.889   6.172   9.079  2.1746  0.9914 -0.2660
  440MOL0     H59380   7.861   6.389   9.165  0.0832 -0.6694  0.0658
  440MOL0     H59381   7.848   6.467   9.005 -0.6062 -0.1765 -0.2942
  440MOL0     H59382   7.069   5.511   9.178 -2.5659 -1.3611  0.1998
  440MOL0     H59383   6.931   5.324   9.098  2.4698  0.0026  2.9159
  440MOL0     H59384   6.888   5.074   8.782  0.7343 -2.5502  1.8421
  440MOL0     H59385   6.837   4.849   8.733 -0.4461 -1.1142  2.6883
  440MOL0     H59386   7.256   4.369   7.429  1.2808  0.0736  0.3107
  440MOL0     H59387   7.304   4.469   7.212  0.0165  1.2183 -1.0139
  440MOL0     H59388   7.613   4.695   6.978  1.5702 -2.6329 -3.8341
  440MOL0     H59389   7.675   4.734   6.757  0.9768 -0.0517  0.5872
  440MOL0     H59390   7.707   4.779   6.561 -0.9453  0.1877  1.4210
  440MOL0     H59391   7.581   4.677   6.505  0.6496 -1.4048 -2.4047
  440MOL0     H59392   7.637   4.950   6.368 -1.3962  0.1133 -1.2506
  440MOL0     H59393   7.530   4.842   6.313  1.1820 -0.2422 -0.5654
  440MOL0     H59394   7.741   4.839   6.187 -0.4680  1.7465  1.1918
  440MOL0     H59395   7.659   4.693   6.230  0.9760 -2.1558  2.6706
  440MOL0     H59396   7.908   4.655   6.264  0.5332  1.5640 -0.4842
  440MOL0     H59397   7.807   4.629   6.407  0.7826 -3.4470 -3.9742
  440MOL0     H59398   8.008   4.968   6.546 -0.1770  3.3448 -4.1133
  440MOL0     H59399   7.292   4.912   6.668  0.6044 -0.3177 -1.1833
  440MOL0     H59400   7.215   4.871   6.899  1.4355  0.3364  2.4921
  441MOL0     O59401   2.711   6.504  10.196 -0.0940 -0.3056 -0.1509
  441MOL0     C59402   2.725   6.480  10.315 -0.3494  0.3024  0.4441
  441MOL0     O59403   2.626   6.453  10.401 -0.8546  0.1525  0.4285
  441MOL0     C59404   2.514   6.389  10.359  0.1074  0.0312  0.1889
  441MOL0     C59405   2.401   6.403  10.435  0.9321  0.2797  0.3211
  441MOL0     C59406   2.281   6.328  10.410  0.8518 -0.7684  0.9996
  441MOL0     C59407   2.263   6.242  10.292  0.1580 -0.2823  0.5685
  441MOL0     O59408   2.134   6.198  10.266 -0.0363 -0.3627 -0.6697
  441MOL0     C59409   2.105   6.104  10.163  0.3833 -0.1081  0.2484
  441MOL0     C59410   1.958   6.064  10.179 -1.3436 -0.5091  0.2783
  441MOL0     C59411   1.876   6.190  10.138  0.2752  0.3007 -0.1676
  441MOL0     C59412   1.735   6.151  10.117  0.0253  0.9170 -1.2686
  441MOL0     C59413   1.641   6.274  10.117 -1.3308  0.9095  0.0170
  441MOL0     C59414   1.503   6.222  10.135 -0.0208 -0.0276  0.5730
  441MOL0     C59415   1.415   6.345  10.106 -0.0359 -0.5243 -0.1313
  441MOL0     C59416   1.268   6.302  10.093  0.2068 -0.3469  0.5594
  441MOL0     N59417   1.176   6.420  10.093  0.0733  0.3662  0.4645
  441MOL0     C59418   1.185   6.533  10.017 -0.3711  1.2990 -0.0130
  441MOL0     C59419   1.097   6.617  10.071 -0.2826 -0.6567 -1.1734
  441MOL0     C59420   1.063   6.749  10.015  0.1260  0.1523 -0.5701
  441MOL0     C59421   1.023   6.734   9.867  0.5900  0.1800  0.5981
  441MOL0     C59422   0.926   6.617   9.831  0.6647 -0.0577  0.5564
  441MOL0     C59423   0.868   6.645   9.696  0.4679 -0.4116  0.3296
  441MOL0     O59424   0.779   6.757   9.717  0.3767  0.4395 -0.7942
  441MOL0     C59425   0.755   6.833   9.606 -0.6545  0.3949 -0.0561
  441MOL0     C59426   0.718   6.967   9.607  0.2776  0.0081  0.3455
  441MOL0     C59427   0.678   7.039   9.493 -0.1671  0.6072 -0.3321
  441MOL0     C59428   0.614   7.171   9.514 -0.8429  0.4579 -0.1434
  441MOL0     C59429   0.686   6.978   9.368 -0.4772 -0.7745  0.5096
  441MOL0     C59430   0.649   7.033   9.237 -0.3259  0.3142  0.6525
  441MOL0     O59431   0.684   6.968   9.120  0.4718 -0.4741 -0.2884
  441MOL0     C59432   0.651   7.020   8.996 -0.5444  0.7015  0.2675
  441MOL0     C59433   0.765   7.021   8.912  0.2875 -0.3200 -0.6042
  441MOL0     C59434   0.748   7.053   8.773 -0.3470  0.2769 -0.7772
  441MOL0     C59435   0.624   7.082   8.716 -0.6380 -0.5786 -0.3673
  441MOL0     O59436   0.611   7.104   8.580 -0.3481  0.5358 -0.5332
  441MOL0     C59437   0.491   7.131   8.510  0.7420 -0.2516 -0.7009
  441MOL0     C59438   0.389   7.010   8.488  0.0013 -0.4087  1.2408
  441MOL0     C59439   0.277   7.045   8.380 -0.6680 -0.5304 -0.8591
  441MOL0     C59440   0.190   6.918   8.353 -1.0041 -0.8625  0.6217
  441MOL0     C59441   0.047   6.956   8.310 -0.0611 -1.1715 -0.2033
  441MOL0     C59442   0.050   7.054   8.186 -0.0662  1.0217  0.2214
  441MOL0     C59443  -0.075   7.149   8.200  0.0041  0.4644 -0.1806
  441MOL0     C59444  -0.129   7.189   8.065  0.1674  0.0838  0.8710
  441MOL0    Cl59445  -0.221   7.046   7.998  0.0487  0.2198  0.3919
  441MOL0     C59446   0.516   7.089   8.809 -0.2713  0.5507  0.2653
  441MOL0     C59447   0.529   7.059   8.941  0.9206  0.9240 -0.2246
  441MOL0     O59448   0.575   7.134   9.236 -0.4839  0.3021  0.3659
  441MOL0     C59449   0.739   6.844   9.363  1.4234 -0.1099 -0.3443
  441MOL0     C59450   0.777   6.780   9.475  0.0213  0.7168 -0.5268
  441MOL0     N59451   1.031   6.561  10.176 -0.1206 -0.0708 -0.0149
  441MOL0     N59452   1.086   6.445  10.194  0.8908 -0.1587 -0.1857
  441MOL0     C59453   2.384   6.217  10.220  0.3675 -0.5037  0.4677
  441MOL0     C59454   2.504   6.287  10.248 -0.1671 -0.6853 -1.3523
  441MOL0     C59455   2.860   6.494  10.372  0.4090  1.0209  0.0494
  441MOL0     C59456   2.978   6.496  10.284  0.1432 -0.4733 -0.1436
  441MOL0     C59457   3.107   6.500  10.325  0.7219  0.6149 -0.8025
  441MOL0     C59458   3.133   6.501  10.462  0.6867 -0.4682 -1.1618
  441MOL0     O59459   3.257   6.509  10.514 -0.7233 -0.1185  0.2176
  441MOL0     C59460   3.337   6.395  10.490 -0.1850  0.2663 -0.0079
  441MOL0     C59461   3.469   6.425  10.576  1.3222 -0.6826  0.3783
  441MOL0     C59462   3.571   6.518  10.506 -0.3337  0.3468 -0.4853
  441MOL0     C59463   3.687   6.528  10.592 -0.2380 -0.4137  0.1846
  441MOL0     C59464   3.761   6.635  10.534  0.2403 -0.4224  0.7155
  441MOL0     C59465   3.833   6.724  10.504 -0.0567  0.4526  0.2914
  441MOL0     C59466   3.022   6.492  10.555 -0.1918  0.2905 -0.4587
  441MOL0     C59467   2.892   6.502  10.510  0.5856 -0.0930  0.4547
  441MOL0     H59468   2.378   6.475  10.512 -3.9426  0.4292 -0.9248
  441MOL0     H59469   2.195   6.360  10.467  0.3643 -0.8208  0.3077
  441MOL0     H59470   2.108   6.150  10.064 -0.9835 -1.2394 -0.3476
  441MOL0     H59471   2.164   6.012  10.170  0.2176 -0.2297  0.0696
  441MOL0     H59472   1.934   5.977  10.117 -2.6119  1.2327 -1.8518
  441MOL0     H59473   1.946   6.044  10.286 -4.2870  0.6117  0.2484
  441MOL0     H59474   1.863   6.247  10.230 -0.1534  0.8174 -0.5443
  441MOL0     H59475   1.902   6.251  10.052 -2.7508  2.2626  0.1742
  441MOL0     H59476   1.731   6.092  10.026  0.9086 -1.0547 -0.0876
  441MOL0     H59477   1.708   6.084  10.199 -2.3151  1.6478 -1.3624
  441MOL0     H59478   1.663   6.345  10.197  0.8335  0.2252  0.0792
  441MOL0     H59479   1.662   6.325  10.023 -0.1721  0.6420  0.1146
  441MOL0     H59480   1.489   6.152  10.052 -1.3175 -1.3442  1.8485
  441MOL0     H59481   1.499   6.185  10.238  3.4034 -2.3561  0.0616
  441MOL0     H59482   1.427   6.420  10.185 -0.5436  1.5804 -1.9253
  441MOL0     H59483   1.440   6.387  10.008 -4.2052  1.3518 -0.6245
  441MOL0     H59484   1.237   6.217  10.154  0.4641 -0.7362  0.1534
  441MOL0     H59485   1.252   6.271   9.989 -1.6430 -1.4677  1.1440
  441MOL0     H59486   1.239   6.536   9.923 -3.7774  2.3938 -2.1527
  441MOL0     H59487   0.969   6.786  10.058  0.0042  0.4513 -1.0866
  441MOL0     H59488   1.141   6.825  10.029 -0.0769  0.4097 -0.8289
  441MOL0     H59489   1.119   6.731   9.815  1.3320  2.7478  1.6475
  441MOL0     H59490   0.976   6.829   9.841 -3.1869 -1.6580  0.0898
  441MOL0     H59491   0.842   6.614   9.900  1.1451  0.2859  1.1669
  441MOL0     H59492   0.979   6.522   9.840  0.9649  0.0188 -0.3138
  441MOL0     H59493   0.806   6.567   9.650 -0.7081 -0.8270  2.4788
  441MOL0     H59494   0.947   6.677   9.628 -0.8818  1.2992 -0.5075
  441MOL0     H59495   0.716   7.005   9.709  1.4776 -0.2834  0.4863
  441MOL0     H59496   0.642   7.214   9.610  2.7690 -0.3770 -0.6799
  441MOL0     H59497   0.651   7.241   9.438 -0.4228 -2.1335 -2.4852
  441MOL0     H59498   0.504   7.166   9.508 -0.7394 -1.1527 -1.5647
  441MOL0     H59499   0.867   6.999   8.941  1.0160  1.7999 -1.4040
  441MOL0     H59500   0.840   7.039   8.717 -0.1344 -0.2058 -0.3197
  441MOL0     H59501   0.429   7.202   8.566  1.9868 -1.7693  2.9360
  441MOL0     H59502   0.507   7.171   8.410  2.5537  0.4496 -0.1547
  441MOL0     H59503   0.438   6.920   8.448 -2.6491 -1.1295 -0.6285
  441MOL0     H59504   0.326   7.000   8.576 -2.2315  1.3298 -0.0529
  441MOL0     H59505   0.327   7.086   8.292 -2.3548  2.7563 -0.4261
  441MOL0     H59506   0.220   7.132   8.413  0.5488  0.0372 -0.1991
  441MOL0     H59507   0.236   6.860   8.272 -1.9598  0.8811 -1.2316
  441MOL0     H59508   0.172   6.850   8.437 -0.0319 -4.9871 -2.1499
  441MOL0     H59509  -0.009   7.007   8.388  0.4918  2.0492 -1.7529
  441MOL0     H59510  -0.008   6.862   8.300 -1.1486 -0.6327  0.5043
  441MOL0     H59511   0.130   7.128   8.180 -1.1718  2.3478  1.1504
  441MOL0     H59512   0.044   7.000   8.091  1.0774 -0.4789  0.9705
  441MOL0     H59513  -0.046   7.241   8.251  1.4506  0.1003 -0.3001
  441MOL0     H59514  -0.152   7.100   8.261 -2.4928  0.7569 -2.8678
  441MOL0     H59515  -0.044   7.219   8.002 -1.9125  1.1428 -1.5817
  441MOL0     H59516  -0.195   7.275   8.079  0.8637  0.5179  1.5502
  441MOL0     H59517   0.415   7.116   8.780 -0.8066 -2.1290 -0.7024
  441MOL0     H59518   0.442   7.064   9.006  0.7527 -1.1199 -0.2427
  441MOL0     H59519   0.759   6.788   9.272 -0.0919 -0.5949 -0.4098
  441MOL0     H59520   0.824   6.685   9.453  3.2116  2.2140 -0.7368
  441MOL0     H59521   2.389   6.156  10.130  3.6360 -0.0879  0.2530
  441MOL0     H59522   2.584   6.275  10.175  1.3243  1.5348 -0.1849
  441MOL0     H59523   2.973   6.501  10.176  1.0818  0.2440 -0.1605
  441MOL0     H59524   3.185   6.523  10.254  0.2678  0.7965 -1.2461
  441MOL0     H59525   3.283   6.306  10.522 -2.8471  0.8047 -2.6184
  441MOL0     H59526   3.357   6.393  10.383  3.2851  2.3675  0.4449
  441MOL0     H59527   3.515   6.327  10.591 -1.8660 -2.6575 -1.4786
  441MOL0     H59528   3.448   6.478  10.669  2.7578  0.2806  0.1908
  441MOL0     H59529   3.532   6.619  10.493 -0.6482  0.5798  1.8530
  441MOL0     H59530   3.596   6.468  10.412 -2.5964 -1.7420 -0.0879
  441MOL0     H59531   3.751   6.439  10.591 -0.5885 -0.6834 -1.3215
  441MOL0     H59532   3.664   6.566  10.692  1.0041  3.5054 -0.8402
  441MOL0     H59533   3.883   6.811  10.469 -3.2176  2.0477 -0.5935
  441MOL0     H59534   3.042   6.507  10.661  2.3242  0.3268 -0.8714
  441MOL0     H59535   2.803   6.512  10.571 -0.8683  1.9630 -1.8113
  442MOL0     O59536  10.950   3.749   9.240  0.1166 -0.3552 -0.0323
  442MOL0     C59537  10.970   3.859   9.295  0.5909 -0.2190 -0.1239
  442MOL0     O59538  10.926   3.894   9.416 -0.7725 -1.0332 -0.0776
  442MOL0     C59539  10.875   3.807   9.507 -0.8758  0.4027 -0.6253
  442MOL0     C59540  10.810   3.861   9.622  0.0808 -0.6572  1.1042
  442MOL0     C59541  10.748   3.787   9.723 -1.0253 -0.9111  0.3800
  442MOL0     C59542  10.763   3.648   9.715 -0.8102 -0.1789 -0.9430
  442MOL0     O59543  10.718   3.563   9.808  0.1249  0.2190 -0.1868
  442MOL0     C59544  10.605   3.604   9.892  0.6119  0.7821  0.1796
  442MOL0     C59545  10.480   3.592   9.798 -0.6973 -0.8438  0.0145
  442MOL0     C59546  10.466   3.454   9.730  0.6637 -0.7599 -0.7696
  442MOL0     C59547  10.346   3.463   9.629  1.1048 -0.1636 -0.1196
  442MOL0     C59548  10.307   3.340   9.544 -0.5050 -0.5038  1.0016
  442MOL0     C59549  10.319   3.205   9.622 -0.2647 -0.3800  0.2576
  442MOL0     C59550  10.314   3.088   9.518 -0.3001 -0.4855 -0.5522
  442MOL0     C59551  10.181   3.028   9.493  0.6438 -0.5321  0.1543
  442MOL0     N59552  10.097   3.101   9.397  0.2000 -0.1339 -0.0213
  442MOL0     C59553  10.140   3.159   9.277  0.3991  0.1628  0.5985
  442MOL0     C59554  10.037   3.239   9.236 -0.0586  0.2594 -0.7955
  442MOL0     C59555  10.019   3.325   9.124 -0.1464  0.2972  0.8700
  442MOL0     C59556  10.145   3.406   9.090 -0.0850 -0.7958  0.2298
  442MOL0     C59557  10.113   3.517   8.987  0.3473  0.5586  0.1186
  442MOL0     C59558  10.236   3.612   8.951  0.1081 -0.2661 -0.8732
  442MOL0     O59559  10.235   3.636   8.813  0.0272  0.3868  0.2805
  442MOL0     C59560  10.336   3.705   8.752 -0.4664  0.0763  1.0066
  442MOL0     C59561  10.350   3.708   8.610 -0.3120  0.5123  0.0186
  442MOL0     C59562  10.458   3.773   8.548 -0.5615 -0.2163  0.0469
  442MOL0     C59563  10.458   3.770   8.396  0.5650  0.3449  0.2226
  442MOL0     C59564  10.560   3.829   8.626 -0.9045 -0.2070  0.6628
  442MOL0     C59565  10.698   3.861   8.565 -0.8617 -0.4042  0.2617
  442MOL0     O59566  10.730   3.814   8.439  0.0664 -0.7763  0.5799
  442MOL0     C59567  10.858   3.817   8.387  0.1993  0.4711  0.5027
  442MOL0     C59568  10.944   3.928   8.407 -0.9905  0.2524 -0.5200
  442MOL0     C59569  11.073   3.932   8.348 -0.5980 -0.6453  1.1322
  442MOL0     C59570  11.112   3.838   8.254  0.7017  0.6157 -0.0036
  442MOL0     O59571  11.228   3.846   8.189  0.0735 -0.3040  1.0063
  442MOL0     C59572  11.341   3.769   8.242  0.2715  0.3436 -0.2621
  442MOL0     C59573  11.469   3.842   8.202 -1.0317  0.6124 -0.2122
  442MOL0     C59574  11.595   3.763   8.236 -0.1328  0.4201  0.2173
  442MOL0     C59575  11.626   3.768   8.379  0.0387 -0.2512 -0.1537
  442MOL0     C59576  11.742   3.673   8.417 -0.7305 -0.2415 -0.0958
  442MOL0     C59577  11.739   3.604   8.554 -0.1910  0.1248 -1.1955
  442MOL0     C59578  11.870   3.534   8.593  0.3226  0.2308 -0.5602
  442MOL0     C59579  11.843   3.420   8.694  0.4302  0.6447 -0.3990
  442MOL0    Cl59580  11.767   3.489   8.848 -0.1756 -0.0321 -0.0349
  442MOL0     C59581  11.034   3.728   8.237  0.0631 -0.3508 -0.1394
  442MOL0     C59582  10.908   3.715   8.304 -0.4205 -0.1287  0.1581
  442MOL0     O59583  10.769   3.933   8.636  0.2584 -0.9640 -0.8089
  442MOL0     C59584  10.548   3.820   8.770  0.2297 -0.3410 -0.4151
  442MOL0     C59585  10.438   3.768   8.826  0.1866  0.0844 -0.3660
  442MOL0     N59586   9.937   3.217   9.333 -0.5984  0.1944 -0.5316
  442MOL0     N59587   9.970   3.132   9.425  0.0844 -0.2853 -0.6715
  442MOL0     C59588  10.831   3.592   9.602  0.1192 -0.6170 -0.3278
  442MOL0     C59589  10.885   3.666   9.503  0.1150  0.4242  0.2205
  442MOL0     C59590  11.022   3.966   9.204  0.1116 -0.8358 -1.0065
  442MOL0     C59591  11.025   4.102   9.237  0.8553 -0.3450  0.2874
  442MOL0     C59592  11.074   4.190   9.135  0.4081  0.4680  0.3848
  442MOL0     C59593  11.138   4.147   9.023  0.3401 -0.5784  0.0331
  442MOL0     O59594  11.178   4.246   8.932 -0.2358  0.8172  0.3625
  442MOL0     C59595  11.246   4.198   8.809  0.3813  0.2736 -1.0092
  442MOL0     C59596  11.242   4.315   8.713 -0.2111 -0.9609  0.5106
  442MOL0     C59597  11.106   4.331   8.637 -0.5039  0.0353  0.1993
  442MOL0     C59598  11.118   4.405   8.506 -0.8963 -0.9761  1.5609
  442MOL0     C59599  11.183   4.322   8.409 -0.2157  0.1571 -0.3300
  442MOL0     C59600  11.224   4.244   8.322 -0.6643  0.1678 -0.6718
  442MOL0     C59601  11.135   4.010   8.997  0.1539 -0.2233  0.0497
  442MOL0     C59602  11.078   3.925   9.086 -0.9341 -0.2041 -0.3170
  442MOL0     H59603  10.809   3.969   9.628 -0.8335 -0.4637 -1.3062
  442MOL0     H59604  10.692   3.824   9.809  0.8353 -0.9179  1.6512
  442MOL0     H59605  10.597   3.538   9.978 -0.0809  2.6761  1.6604
  442MOL0     H59606  10.613   3.705   9.935 -0.4342  0.3577  1.4525
  442MOL0     H59607  10.396   3.619   9.862 -0.0279  3.2334 -0.5227
  442MOL0     H59608  10.487   3.675   9.727 -2.7120 -1.3756 -0.8501
  442MOL0     H59609  10.561   3.427   9.684  1.6207 -0.9817  1.2224
  442MOL0     H59610  10.451   3.385   9.814  0.4213 -0.6662 -0.7342
  442MOL0     H59611  10.261   3.473   9.697  1.7493 -3.1338  1.2861
  442MOL0     H59612  10.350   3.549   9.561 -2.1240 -1.1300 -1.7150
  442MOL0     H59613  10.210   3.345   9.493  1.5708  0.6874 -3.3229
  442MOL0     H59614  10.370   3.342   9.454 -1.8144  0.1349  0.0773
  442MOL0     H59615  10.414   3.197   9.676  0.0705 -2.2623 -0.5590
  442MOL0     H59616  10.238   3.194   9.696 -1.4596 -0.4838 -1.0177
  442MOL0     H59617  10.356   3.119   9.422 -3.2901  1.3038 -1.4408
  442MOL0     H59618  10.388   3.015   9.550  3.4346  2.3690 -1.8974
  442MOL0     H59619  10.131   3.010   9.588 -2.2260  4.6464 -0.0105
  442MOL0     H59620  10.202   2.927   9.458  0.9478 -0.2691 -0.4343
  442MOL0     H59621  10.238   3.155   9.232 -0.0303  1.4325 -0.5005
  442MOL0     H59622  10.009   3.252   9.043 -1.4214 -1.2558  2.3531
  442MOL0     H59623   9.925   3.382   9.126 -1.0315 -1.1164  1.4905
  442MOL0     H59624  10.226   3.340   9.057  1.6047  1.2373  0.0907
  442MOL0     H59625  10.177   3.451   9.184  0.1489 -0.4047 -0.0302
  442MOL0     H59626  10.041   3.580   9.041 -0.1955 -0.7295  0.9514
  442MOL0     H59627  10.060   3.477   8.900 -0.4708  0.9198  0.4343
  442MOL0     H59628  10.323   3.549   8.974 -0.4321 -1.9484 -3.0704
  442MOL0     H59629  10.236   3.700   9.016 -4.4624 -1.0858  0.6107
  442MOL0     H59630  10.276   3.650   8.555 -1.3489 -0.5297  2.4005
  442MOL0     H59631  10.514   3.687   8.353  0.2505 -1.7689  3.5219
  442MOL0     H59632  10.353   3.767   8.365 -0.0576  2.1714  1.9480
  442MOL0     H59633  10.500   3.857   8.346  0.8224 -0.3951 -0.8879
  442MOL0     H59634  10.926   4.020   8.462  2.5557  1.4895 -1.1653
  442MOL0     H59635  11.132   4.021   8.371 -0.6706 -0.1190 -0.5635
  442MOL0     H59636  11.346   3.747   8.349  0.7250 -2.5397 -0.7910
  442MOL0     H59637  11.349   3.667   8.203  0.8416 -1.0035  3.0638
  442MOL0     H59638  11.470   3.848   8.093 -1.3578  0.7513 -0.2078
  442MOL0     H59639  11.481   3.941   8.247  2.2438  0.0980  0.2987
  442MOL0     H59640  11.686   3.788   8.180 -0.5750 -0.2234 -0.8297
  442MOL0     H59641  11.566   3.660   8.214  1.9459 -0.0299 -0.6736
  442MOL0     H59642  11.664   3.870   8.394  4.4388 -1.8587  1.2176
  442MOL0     H59643  11.541   3.743   8.442 -0.0762 -1.5703 -0.8103
  442MOL0     H59644  11.831   3.737   8.419 -2.2032  1.9225 -0.0095
  442MOL0     H59645  11.765   3.599   8.341 -1.0241  0.1654 -0.5869
  442MOL0     H59646  11.725   3.677   8.634  1.2954  2.7404 -3.1673
  442MOL0     H59647  11.661   3.528   8.547  1.6443 -1.9281 -0.5276
  442MOL0     H59648  11.938   3.602   8.646 -0.3137 -1.5556  2.8667
  442MOL0     H59649  11.917   3.490   8.505  2.6284  1.1189  0.1533
  442MOL0     H59650  11.941   3.374   8.710 -0.9167 -1.6821  1.9350
  442MOL0     H59651  11.769   3.348   8.656  1.3321 -0.1182 -0.7626
  442MOL0     H59652  11.056   3.657   8.158 -0.5662  0.6010 -1.2019
  442MOL0     H59653  10.857   3.624   8.276  1.8926 -1.3342 -0.4286
  442MOL0     H59654  10.614   3.872   8.839 -1.1929  2.7127 -1.1625
  442MOL0     H59655  10.415   3.784   8.931 -1.1541 -2.3473 -0.1941
  442MOL0     H59656  10.821   3.484   9.594 -2.3310 -0.3817 -1.5412
  442MOL0     H59657  10.930   3.607   9.424  1.4326  0.3459  0.9992
  442MOL0     H59658  10.971   4.137   9.324 -1.2210  0.1269 -1.1425
  442MOL0     H59659  11.067   4.295   9.163  2.0270  0.6071  0.3664
  442MOL0     H59660  11.348   4.161   8.817  0.5541  0.7360 -1.0429
  442MOL0     H59661  11.188   4.116   8.765  0.5281  1.3611 -3.3607
  442MOL0     H59662  11.327   4.298   8.646  0.7772 -2.1209  1.9995
  442MOL0     H59663  11.257   4.404   8.774 -0.7726 -1.3606  1.2445
  442MOL0     H59664  11.032   4.385   8.697  0.4675  1.6472  0.0158
  442MOL0     H59665  11.066   4.231   8.620  0.3538 -0.7659  2.5246
  442MOL0     H59666  11.183   4.493   8.510 -1.6051 -0.3219 -0.2562
  442MOL0     H59667  11.023   4.437   8.464 -0.3806  0.2990  1.3360
  442MOL0     H59668  11.260   4.189   8.237 -0.4514  1.0335 -1.1480
  442MOL0     H59669  11.192   3.975   8.912  1.3986  2.2988 -0.2618
  442MOL0     H59670  11.081   3.818   9.064  0.9670 -0.3689  0.5552
  443MOL0     O59671   3.718   0.191   0.880 -0.3053  0.8640  0.0523
  443MOL0     C59672   3.790   0.253   0.799 -0.5555 -0.3807  0.0703
  443MOL0     O59673   3.755   0.370   0.732  0.4355 -0.6640 -0.1497
  443MOL0     C59674   3.637   0.435   0.782 -0.8536  0.5294  0.0988
  443MOL0     C59675   3.542   0.485   0.693  0.0591  0.1168  0.8566
  443MOL0     C59676   3.426   0.549   0.738  0.1271  0.1476 -0.1941
  443MOL0     C59677   3.416   0.593   0.867  0.0013  0.8512 -0.7439
  443MOL0     O59678   3.302   0.656   0.910  0.6637 -0.4300  0.1260
  443MOL0     C59679   3.286   0.718   1.045  0.5063 -0.5953 -0.7919
  443MOL0     C59680   3.210   0.609   1.131 -0.0463 -0.2209 -0.0783
  443MOL0     C59681   3.221   0.648   1.280 -0.4362 -0.1473  0.0600
  443MOL0     C59682   3.172   0.536   1.354 -0.4292 -0.9456 -0.6594
  443MOL0     C59683   3.156   0.558   1.507  0.2797  0.2886 -0.0212
  443MOL0     C59684   3.078   0.686   1.548 -0.6158  0.7076 -1.5326
  443MOL0     C59685   3.074   0.708   1.703 -0.6195 -0.1204 -0.1603
  443MOL0     C59686   2.996   0.832   1.734  0.2104  0.0449  0.5384
  443MOL0     N59687   2.868   0.836   1.666 -0.3031  0.6744 -0.1246
  443MOL0     C59688   2.767   0.750   1.695 -0.1028 -0.1963 -0.1925
  443MOL0     C59689   2.676   0.764   1.591 -0.6072  0.3018 -0.8055
  443MOL0     C59690   2.546   0.683   1.574 -0.3147 -0.8954 -0.2608
  443MOL0     C59691   2.443   0.708   1.680  0.0144 -0.0849  0.5274
  443MOL0     C59692   2.475   0.643   1.816  0.1666  0.3298 -0.1826
  443MOL0     C59693   2.341   0.599   1.885 -0.4076  0.1481  0.2498
  443MOL0     O59694   2.382   0.572   2.017 -0.0931 -0.4397  0.3929
  443MOL0     C59695   2.280   0.542   2.105  0.1470 -0.7649 -1.4470
  443MOL0     C59696   2.321   0.542   2.236  0.3381  0.7581 -0.3842
  443MOL0     C59697   2.229   0.502   2.335 -0.1412 -0.2546 -0.7479
  443MOL0     C59698   2.288   0.483   2.473 -0.5067 -0.6300  0.0767
  443MOL0     C59699   2.092   0.474   2.304  0.4737 -0.0076  1.0108
  443MOL0     C59700   1.988   0.416   2.388  0.4252 -0.6968 -0.5885
  443MOL0     O59701   1.865   0.394   2.335  0.4284  0.0893 -0.3167
  443MOL0     C59702   1.756   0.402   2.414  1.2733 -0.2424 -0.2853
  443MOL0     C59703   1.740   0.492   2.517 -0.2859  0.1348 -0.6113
  443MOL0     C59704   1.620   0.487   2.603 -0.0397 -0.2972 -0.1576
  443MOL0     C59705   1.523   0.393   2.584 -0.2036  0.0033  1.0234
  443MOL0     O59706   1.413   0.387   2.677  0.5114  0.5219  0.4423
  443MOL0     C59707   1.303   0.288   2.654 -1.3368 -0.8858  0.1937
  443MOL0     C59708   1.192   0.331   2.754 -0.3236  0.2860 -0.7697
  443MOL0     C59709   1.046   0.288   2.725 -0.0514 -0.6419  0.3917
  443MOL0     C59710   0.947   0.382   2.791 -0.2154 -0.3004 -0.4158
  443MOL0     C59711   0.805   0.350   2.752 -0.6609 -0.2988 -0.0250
  443MOL0     C59712   0.700   0.421   2.841  0.7244  0.1893 -0.5672
  443MOL0     C59713   0.545   0.373   2.830  0.0515  0.4740 -0.4907
  443MOL0     C59714   0.455   0.464   2.921  0.5974  0.2393  1.3087
  443MOL0    Cl59715   0.302   0.420   2.829 -0.0742 -0.1836  0.0263
  443MOL0     C59716   1.540   0.304   2.474 -0.0590 -0.0136  0.8887
  443MOL0     C59717   1.653   0.313   2.388 -0.8114  1.0503 -0.7874
  443MOL0     O59718   2.021   0.384   2.503 -0.5255  0.0789 -0.3407
  443MOL0     C59719   2.055   0.476   2.163 -1.1005  0.0120 -0.5901
  443MOL0     C59720   2.152   0.501   2.066 -0.1317 -0.0082 -1.2824
  443MOL0     N59721   2.729   0.850   1.498  0.5170 -0.7922  0.2700
  443MOL0     N59722   2.838   0.904   1.555 -0.5470  0.4662  1.0018
  443MOL0     C59723   3.514   0.554   0.966 -0.4072  0.4847 -0.0182
  443MOL0     C59724   3.620   0.474   0.919  0.2991 -0.2311  1.3123
  443MOL0     C59725   3.928   0.199   0.777  0.3302 -0.3925  0.5636
  443MOL0     C59726   3.989   0.119   0.873  0.4996  0.7924  0.6852
  443MOL0     C59727   4.122   0.074   0.854 -0.2821 -0.1015  0.0570
  443MOL0     C59728   4.195   0.115   0.739 -0.4962 -0.8853 -0.1542
  443MOL0     O59729   4.326   0.075   0.724  0.0097  0.4449  0.6313
  443MOL0     C59730   4.384   0.090   0.596 -0.1011 -0.1108  0.3225
  443MOL0     C59731   4.521   0.008   0.597 -0.2106 -0.3245 -0.0683
  443MOL0     C59732   4.499  -0.136   0.622 -0.6387  0.4078  1.1143
  443MOL0     C59733   4.624  -0.223   0.638 -0.4726 -0.2009 -0.2273
  443MOL0     C59734   4.713  -0.232   0.529 -0.1439  0.2750  0.1096
  443MOL0     C59735   4.799  -0.236   0.439 -0.0845  0.4059  0.6091
  443MOL0     C59736   4.136   0.201   0.648 -0.6272 -0.8242 -0.5940
  443MOL0     C59737   4.002   0.248   0.665  0.1919  0.7786 -0.8300
  443MOL0     H59738   3.546   0.469   0.586 -2.8758  0.2418  0.6628
  443MOL0     H59739   3.339   0.577   0.680  0.4279 -0.3697 -0.9067
  443MOL0     H59740   3.374   0.762   1.094 -0.2360 -2.2054  2.2442
  443MOL0     H59741   3.217   0.803   1.041  0.1327 -0.5300  3.0795
  443MOL0     H59742   3.106   0.601   1.098  0.0667  1.4952 -0.9591
  443MOL0     H59743   3.262   0.514   1.113  1.5270  0.4745  0.6326
  443MOL0     H59744   3.325   0.663   1.309 -0.3131  0.2920 -0.5942
  443MOL0     H59745   3.160   0.737   1.295 -2.4435 -1.5632  0.8424
  443MOL0     H59746   3.067   0.536   1.324 -0.1257 -0.3493 -1.8081
  443MOL0     H59747   3.225   0.441   1.343 -1.0559 -1.1869 -1.7292
  443MOL0     H59748   3.104   0.475   1.555 -1.6976  2.3269  1.6093
  443MOL0     H59749   3.259   0.567   1.543  0.0384  0.5813  0.6051
  443MOL0     H59750   3.132   0.772   1.507  3.2389 -0.6642  0.1560
  443MOL0     H59751   2.978   0.674   1.506  0.0263 -2.0282 -2.4993
  443MOL0     H59752   3.023   0.626   1.755 -1.2292  0.8815  0.8743
  443MOL0     H59753   3.178   0.716   1.735 -1.0422  1.2438  0.9724
  443MOL0     H59754   3.054   0.917   1.699 -2.5882  1.9858  0.3346
  443MOL0     H59755   2.982   0.863   1.838  1.6478  1.4930  0.3347
  443MOL0     H59756   2.748   0.680   1.775 -1.7033  0.9900  0.5372
  443MOL0     H59757   2.493   0.712   1.482 -2.0021 -1.0143  0.6290
  443MOL0     H59758   2.564   0.576   1.561  0.5396 -0.5528 -2.3834
  443MOL0     H59759   2.355   0.659   1.638 -0.9270  1.7124  0.3123
  443MOL0     H59760   2.417   0.814   1.688 -0.9408 -0.0328 -2.2755
  443MOL0     H59761   2.528   0.708   1.886  1.7634 -2.2992  1.2203
  443MOL0     H59762   2.531   0.550   1.803 -1.4543 -0.6155 -0.7582
  443MOL0     H59763   2.306   0.513   1.827  0.0207  0.5521 -0.6218
  443MOL0     H59764   2.256   0.667   1.876 -2.7013 -2.4221  1.1394
  443MOL0     H59765   2.425   0.564   2.258  0.2298  0.3545  0.6082
  443MOL0     H59766   2.223   0.514   2.555  1.6203 -1.7722  2.3126
  443MOL0     H59767   2.315   0.381   2.503  3.0304  1.1670  4.0348
  443MOL0     H59768   2.384   0.533   2.491  0.8764 -2.8026 -0.8339
  443MOL0     H59769   1.818   0.565   2.536 -1.7773  2.0303 -1.4501
  443MOL0     H59770   1.617   0.566   2.677 -1.7099  1.0942 -1.6393
  443MOL0     H59771   1.266   0.303   2.552 -1.7248 -0.3242  0.4070
  443MOL0     H59772   1.335   0.185   2.670  0.5746 -0.2965  0.4677
  443MOL0     H59773   1.223   0.298   2.854  0.2808  0.7648 -0.7941
  443MOL0     H59774   1.199   0.440   2.760  6.4211  0.2419 -0.0074
  443MOL0     H59775   1.017   0.184   2.741 -2.8083  0.2824  2.0774
  443MOL0     H59776   1.032   0.293   2.617  2.3369  1.9724  0.0806
  443MOL0     H59777   0.967   0.382   2.899  0.5160  1.8670 -0.5065
  443MOL0     H59778   0.965   0.485   2.760  0.9018  0.3948  2.2425
  443MOL0     H59779   0.795   0.241   2.762  0.6489 -0.2910  1.9487
  443MOL0     H59780   0.795   0.359   2.644 -0.7428 -0.5562 -0.0412
  443MOL0     H59781   0.724   0.404   2.946 -0.4020  0.5504 -0.2369
  443MOL0     H59782   0.697   0.529   2.827 -0.9225  0.4467  1.3864
  443MOL0     H59783   0.528   0.267   2.850  1.2091  0.3001 -0.3573
  443MOL0     H59784   0.522   0.400   2.726  3.8693  5.1644 -0.4572
  443MOL0     H59785   0.471   0.571   2.906  1.0420  0.5103  3.3727
  443MOL0     H59786   0.454   0.422   3.022  0.9865 -0.6803  0.9429
  443MOL0     H59787   1.480   0.220   2.441  2.2120 -0.2520 -3.2755
  443MOL0     H59788   1.662   0.234   2.315  0.3507 -2.4274  2.8103
  443MOL0     H59789   1.957   0.448   2.126 -0.7930 -2.6287  0.3473
  443MOL0     H59790   2.114   0.495   1.965 -2.1101  0.7737 -0.6232
  443MOL0     H59791   3.508   0.583   1.071 -0.1262  1.9019 -0.3672
  443MOL0     H59792   3.700   0.468   0.992  1.7722  2.6015  0.1066
  443MOL0     H59793   3.928   0.089   0.958  0.0087 -3.2915 -0.9011
  443MOL0     H59794   4.175   0.009   0.923 -4.0148 -0.2816  3.1038
  443MOL0     H59795   4.318   0.049   0.519 -0.1447 -0.6432  0.6366
  443MOL0     H59796   4.409   0.193   0.570  0.1029 -0.4645 -0.9710
  443MOL0     H59797   4.588   0.039   0.678  0.4989  2.2477 -1.5393
  443MOL0     H59798   4.562   0.021   0.497 -3.0796 -0.8452 -1.4256
  443MOL0     H59799   4.433  -0.184   0.550 -1.1608 -0.8184  2.3740
  443MOL0     H59800   4.449  -0.153   0.717  0.6051 -2.1338  1.4101
  443MOL0     H59801   4.595  -0.324   0.669  1.0986 -0.1689  1.5549
  443MOL0     H59802   4.680  -0.182   0.723 -2.7359  0.7401  0.9131
  443MOL0     H59803   4.876  -0.251   0.366 -0.2046 -0.4237  0.6370
  443MOL0     H59804   4.176   0.231   0.552 -0.2770 -1.0887 -0.5305
  443MOL0     H59805   3.964   0.319   0.592 -1.3679  0.1495 -0.6740
  444MOL0     O59806   8.998   4.065  10.407  0.1543 -0.0317 -0.0831
  444MOL0     C59807   8.949   4.003  10.309 -0.7341 -0.8469  0.6724
  444MOL0     O59808   8.811   4.000  10.272 -0.0341 -0.2280 -0.0764
  444MOL0     C59809   8.725   4.070  10.346  0.9119  0.0379  0.2278
  444MOL0     C59810   8.646   4.179  10.293  0.2132 -0.8145 -0.1248
  444MOL0     C59811   8.545   4.238  10.370 -0.3785 -0.3874 -0.5425
  444MOL0     C59812   8.514   4.187  10.496  0.1198 -1.1798  0.2597
  444MOL0     O59813   8.415   4.245  10.580 -0.3255 -0.0586  0.0693
  444MOL0     C59814   8.412   4.210  10.720  0.8341  0.3878  0.0118
  444MOL0     C59815   8.313   4.304  10.787 -0.0275  0.3796 -0.4759
  444MOL0     C59816   8.184   4.316  10.714  0.7090 -0.3067  0.3079
  444MOL0     C59817   8.074   4.385  10.806  0.0512 -0.1769  0.5222
  444MOL0     C59818   7.939   4.396  10.753  0.1980 -0.8859 -0.7314
  444MOL0     C59819   7.845   4.442  10.865 -0.1772  0.2070  0.6844
  444MOL0     C59820   7.708   4.485  10.811  0.7419  0.1210 -0.2071
  444MOL0     C59821   7.613   4.367  10.789 -0.0218 -0.5359 -0.3463
  444MOL0     N59822   7.496   4.400  10.711  0.5438  0.3674 -0.6962
  444MOL0     C59823   7.377   4.432  10.775 -0.5925  0.3240  0.3429
  444MOL0     C59824   7.284   4.391  10.678 -0.0745 -0.8350 -0.4080
  444MOL0     C59825   7.131   4.411  10.695  0.1902  0.2483 -0.5921
  444MOL0     C59826   7.080   4.328  10.820 -0.8819 -0.2406  0.5862
  444MOL0     C59827   7.084   4.172  10.773  0.1967 -0.4975 -0.4259
  444MOL0     C59828   7.079   4.065  10.877  0.3722  0.9581  0.5050
  444MOL0     O59829   7.198   4.086  10.956  0.4581 -0.1129 -0.8591
  444MOL0     C59830   7.309   4.015  10.932  0.2684  1.2823 -0.7491
  444MOL0     C59831   7.428   4.068  10.966  0.4341 -0.5330  0.5431
  444MOL0     C59832   7.553   4.022  10.929 -0.9346  0.6143  0.0308
  444MOL0     C59833   7.673   4.097  10.980  0.9828 -0.0471 -0.4407
  444MOL0     C59834   7.562   3.900  10.859  0.4413 -0.6051 -0.5172
  444MOL0     C59835   7.691   3.835  10.810 -0.5354 -0.2579  0.0957
  444MOL0     O59836   7.690   3.699  10.781 -0.1317  0.3626 -0.1205
  444MOL0     C59837   7.804   3.620  10.767 -0.8798 -0.3716  0.1567
  444MOL0     C59838   7.946   3.645  10.787 -0.5829 -0.9462 -1.1765
  444MOL0     C59839   8.043   3.551  10.779 -0.8224  0.1221  0.7952
  444MOL0     C59840   8.002   3.430  10.725  0.7300  0.7262 -0.2562
  444MOL0     O59841   8.084   3.322  10.703 -0.1941  0.2255  0.1438
  444MOL0     C59842   8.224   3.342  10.705 -0.1035  0.7042 -0.1772
  444MOL0     C59843   8.296   3.217  10.654 -0.2701 -0.6875  0.0880
  444MOL0     C59844   8.265   3.076  10.715 -0.0930  0.3043 -0.0294
  444MOL0     C59845   8.325   3.066  10.860 -0.2201 -0.3081  0.4565
  444MOL0     C59846   8.237   3.087  10.985 -0.8472  0.4402 -0.0532
  444MOL0     C59847   8.327   3.073  11.112 -0.2652 -0.2289  0.9259
  444MOL0     C59848   8.254   3.057  11.248  0.4032 -0.1857 -0.2821
  444MOL0     C59849   8.153   3.164  11.274  0.1727  1.2743 -0.6586
  444MOL0    Cl59850   8.100   3.139  11.444  0.2171 -0.0984 -0.2264
  444MOL0     C59851   7.868   3.406  10.700 -0.0580  0.6395 -0.0666
  444MOL0     C59852   7.769   3.500  10.720  0.1366  0.1763  0.4729
  444MOL0     O59853   7.790   3.910  10.797  0.2606 -0.5987 -0.4652
  444MOL0     C59854   7.440   3.832  10.826 -0.6177 -0.1291 -0.0346
  444MOL0     C59855   7.312   3.889  10.851  0.5691 -0.2508 -0.8926
  444MOL0     N59856   7.347   4.367  10.560 -0.6631  0.1151 -0.2531
  444MOL0     N59857   7.477   4.373  10.578  0.6122  0.1415  0.0260
  444MOL0     C59858   8.584   4.075  10.548  0.0630 -0.4604 -0.0882
  444MOL0     C59859   8.688   4.014  10.472  0.9341 -0.4046  0.0739
  444MOL0     C59860   9.038   3.922  10.233 -0.5708  0.0739  0.1712
  444MOL0     C59861   9.177   3.949  10.237 -0.0190  1.0960 -0.6258
  444MOL0     C59862   9.266   3.879  10.157  0.1905 -0.3880  0.3877
  444MOL0     C59863   9.218   3.770  10.077 -0.9453 -0.1016 -0.6340
  444MOL0     O59864   9.309   3.685  10.018  0.0068  0.3315  0.4883
  444MOL0     C59865   9.314   3.541  10.036  0.2011 -1.0502 -0.0200
  444MOL0     C59866   9.289   3.465   9.907  0.2156 -0.5432 -0.0100
  444MOL0     C59867   9.148   3.476   9.829 -0.4884 -0.6101  0.3311
  444MOL0     C59868   9.026   3.420   9.901 -0.4152 -1.2124  0.1655
  444MOL0     C59869   8.907   3.461   9.826  0.0942  0.6222 -0.5722
  444MOL0     C59870   8.816   3.498   9.761  0.3498  0.3922  0.1538
  444MOL0     C59871   9.082   3.752  10.068  0.1963 -0.3800  0.4891
  444MOL0     C59872   8.989   3.824  10.144 -0.0993  0.7000 -0.3437
  444MOL0     H59873   8.672   4.210  10.192 -0.1076  2.1300  0.5896
  444MOL0     H59874   8.497   4.329  10.335  2.5424  1.0054 -1.1537
  444MOL0     H59875   8.381   4.105  10.722  0.2019  0.5130 -1.5942
  444MOL0     H59876   8.499   4.225  10.783 -1.0905  0.8277  2.7552
  444MOL0     H59877   8.301   4.254  10.884  2.1388  1.0308  0.1753
  444MOL0     H59878   8.360   4.401  10.804 -1.0673  1.3228 -2.6114
  444MOL0     H59879   8.185   4.373  10.621 -0.2357  0.0079  0.4800
  444MOL0     H59880   8.145   4.214  10.702 -2.3859  0.9942 -2.0433
  444MOL0     H59881   8.062   4.330  10.900 -5.0453  1.1523  0.9136
  444MOL0     H59882   8.108   4.486  10.831 -0.8508  0.6807 -1.5113
  444MOL0     H59883   7.937   4.479  10.681 -1.6606  1.9273  2.2658
  444MOL0     H59884   7.905   4.302  10.709 -0.1662 -0.6252 -1.0198
  444MOL0     H59885   7.826   4.357  10.932 -0.6612 -1.1413 -1.0568
  444MOL0     H59886   7.879   4.522  10.931 -0.9986 -0.5127  2.0476
  444MOL0     H59887   7.667   4.552  10.887  1.7118 -3.6420  4.1121
  444MOL0     H59888   7.712   4.542  10.718 -1.5625 -0.0669 -0.4791
  444MOL0     H59889   7.588   4.335  10.890 -0.1761  0.2811 -0.1218
  444MOL0     H59890   7.664   4.291  10.728  2.4851  0.1056  0.8444
  444MOL0     H59891   7.367   4.471  10.876 -0.6826  3.0513 -0.6489
  444MOL0     H59892   7.101   4.516  10.694  1.7659  0.7190 -0.6134
  444MOL0     H59893   7.083   4.378  10.603  0.2730  0.6389 -0.7777
  444MOL0     H59894   6.976   4.360  10.837 -3.4963 -4.5823 -4.1521
  444MOL0     H59895   7.138   4.338  10.912  1.1136 -0.3447 -0.6071
  444MOL0     H59896   7.177   4.162  10.716 -0.8020 -4.8956 -1.6908
  444MOL0     H59897   6.998   4.146  10.710 -1.6443  2.1465  0.7717
  444MOL0     H59898   7.060   3.966  10.834 -1.1406  1.0383  0.9122
  444MOL0     H59899   7.000   4.072  10.952 -2.4712 -0.6932 -2.0725
  444MOL0     H59900   7.439   4.159  11.024  2.0775 -0.2256 -0.1841
  444MOL0     H59901   7.737   4.029  11.037  0.1576 -2.5788 -2.3167
  444MOL0     H59902   7.741   4.137  10.905  0.6051 -0.4538 -1.0099
  444MOL0     H59903   7.653   4.184  11.044  1.5424 -0.2609  0.0317
  444MOL0     H59904   7.985   3.744  10.810  2.6188 -1.7420 -2.6105
  444MOL0     H59905   8.149   3.565  10.793  0.1764 -1.7867 -3.4519
  444MOL0     H59906   8.266   3.413  10.632  0.9765 -0.9225 -1.2344
  444MOL0     H59907   8.252   3.364  10.808  0.3711  0.0732 -0.1615
  444MOL0     H59908   8.265   3.220  10.549  1.3474  0.5559 -0.3903
  444MOL0     H59909   8.402   3.225  10.678 -0.4171 -0.0958  0.5539
  444MOL0     H59910   8.291   2.998  10.643  0.2888 -1.1905  1.6551
  444MOL0     H59911   8.157   3.066  10.731 -0.6143  3.2108 -1.0524
  444MOL0     H59912   8.362   2.964  10.864 -3.2587 -1.7345 -2.4763
  444MOL0     H59913   8.404   3.141  10.867 -1.8130  1.3366  2.3129
  444MOL0     H59914   8.165   3.005  10.993 -0.3431  0.0504  0.5007
  444MOL0     H59915   8.177   3.179  10.987 -1.4221  0.2177 -2.8262
  444MOL0     H59916   8.386   2.981  11.106 -0.3096 -0.1643 -1.0663
  444MOL0     H59917   8.402   3.153  11.118 -0.0119 -0.0776 -2.3741
  444MOL0     H59918   8.329   3.060  11.326 -0.3636 -0.2640  0.4708
  444MOL0     H59919   8.206   2.959  11.255  0.4626 -0.3248 -1.5244
  444MOL0     H59920   8.072   3.165  11.201 -0.9831 -1.0805  0.4863
  444MOL0     H59921   8.207   3.258  11.264  0.9977  0.7218 -1.6722
  444MOL0     H59922   7.839   3.310  10.659  0.0991 -0.5897  2.5095
  444MOL0     H59923   7.670   3.473  10.687  1.1139 -1.6162 -1.2630
  444MOL0     H59924   7.451   3.732  10.787 -0.3784  0.1156 -0.6108
  444MOL0     H59925   7.220   3.847  10.809  1.4074 -1.8173 -1.2507
  444MOL0     H59926   8.575   4.046  10.652 -2.3771 -0.5267 -0.2705
  444MOL0     H59927   8.747   3.933  10.514 -0.1542 -1.1347  0.2157
  444MOL0     H59928   9.225   4.036  10.282  0.1625  1.2538 -1.1173
  444MOL0     H59929   9.369   3.909  10.142  0.2882 -1.2755 -0.8466
  444MOL0     H59930   9.414   3.516  10.072  0.1252 -0.6476  0.4725
  444MOL0     H59931   9.239   3.522  10.113  0.4851  3.6084  1.7382
  444MOL0     H59932   9.311   3.359   9.920 -0.4035 -0.5107  1.4758
  444MOL0     H59933   9.365   3.505   9.839 -1.1166 -0.2696 -1.4170
  444MOL0     H59934   9.160   3.421   9.735  0.8715 -1.0616  0.7421
  444MOL0     H59935   9.126   3.578   9.794 -1.8280 -1.0285 -0.1188
  444MOL0     H59936   9.014   3.458  10.002  1.0158 -0.5816  0.1263
  444MOL0     H59937   9.030   3.311   9.902  0.7571 -1.2425 -1.6924
  444MOL0     H59938   8.753   3.535   9.683  1.4825  4.1356  0.8162
  444MOL0     H59939   9.042   3.696   9.984  0.7995  1.2422 -0.9539
  444MOL0     H59940   8.884   3.814  10.120 -0.2969 -0.5835  0.9064
  445MOL0     O59941   7.771   1.625   8.002  0.2638  0.5047 -0.4549
  445MOL0     C59942   7.716   1.732   7.970 -1.1998  0.1047 -0.0452
  445MOL0     O59943   7.773   1.848   7.951  0.9327  0.2865  0.2387
  445MOL0     C59944   7.907   1.862   7.972  0.5296  0.2684  0.5294
  445MOL0     C59945   7.971   1.827   8.087  0.4486 -0.2153  0.0267
  445MOL0     C59946   8.108   1.852   8.114 -0.5321 -0.9241  0.4090
  445MOL0     C59947   8.183   1.922   8.014 -0.3090  0.8129 -0.7565
  445MOL0     O59948   8.314   1.956   8.037  0.2740 -0.8600  0.7737
  445MOL0     C59949   8.390   1.863   8.113  0.6152  0.7172  0.5408
  445MOL0     C59950   8.538   1.898   8.092  0.2910 -0.6556 -0.5991
  445MOL0     C59951   8.562   2.038   8.159  0.5412  0.5675 -0.4029
  445MOL0     C59952   8.679   2.106   8.100  1.2663  0.4267  0.1514
  445MOL0     C59953   8.718   2.237   8.175  0.1029 -0.6695  0.8612
  445MOL0     C59954   8.835   2.296   8.097  0.3981 -0.1509  0.5810
  445MOL0     C59955   8.871   2.440   8.146  0.4743 -0.0022 -0.6654
  445MOL0     C59956   8.939   2.427   8.280  0.3155  0.0030  0.1692
  445MOL0     N59957   8.929   2.560   8.352  0.3238 -0.0580 -0.1314
  445MOL0     C59958   9.039   2.630   8.407 -0.4902 -0.6684 -0.6341
  445MOL0     C59959   8.984   2.733   8.482 -0.2889  0.6210 -0.1287
  445MOL0     C59960   9.074   2.841   8.538 -0.1387 -0.0312  0.1853
  445MOL0     C59961   9.016   2.922   8.646 -0.5449  0.7287  0.1516
  445MOL0     C59962   8.987   2.836   8.767  0.4650  0.6547  0.5762
  445MOL0     C59963   8.962   2.917   8.889  0.4863 -1.1154 -0.4950
  445MOL0     O59964   8.852   3.019   8.880  0.7498  0.1707 -1.0714
  445MOL0     C59965   8.729   2.981   8.922 -0.6719 -0.2372  0.6769
  445MOL0     C59966   8.664   3.062   9.026 -0.1125  0.0050 -0.4279
  445MOL0     C59967   8.547   3.025   9.089  0.2648  0.9684  0.4547
  445MOL0     C59968   8.477   3.123   9.191  0.3003  0.5772 -0.8455
  445MOL0     C59969   8.485   2.901   9.047 -0.0988  0.5173 -0.2053
  445MOL0     C59970   8.359   2.847   9.112  0.1130 -0.5370  1.6185
  445MOL0     O59971   8.270   2.786   9.019 -0.7788  0.0555  0.3285
  445MOL0     C59972   8.166   2.728   9.076  0.5153  0.0256  0.0280
  445MOL0     C59973   8.035   2.778   9.039 -0.2536  0.6674 -0.0164
  445MOL0     C59974   7.922   2.714   9.092 -0.8112 -0.5261 -0.0716
  445MOL0     C59975   7.937   2.606   9.178  0.9697  0.5518 -0.0030
  445MOL0     O59976   7.837   2.529   9.230 -0.0308 -0.3086 -0.1747
  445MOL0     C59977   7.720   2.594   9.279  0.6677 -0.3974  0.4480
  445MOL0     C59978   7.622   2.503   9.348  0.7020 -0.7540  0.9093
  445MOL0     C59979   7.528   2.439   9.242  0.1940  0.5272  0.2185
  445MOL0     C59980   7.401   2.519   9.223  0.1125  0.1722 -0.2397
  445MOL0     C59981   7.313   2.438   9.136 -1.0153 -0.0669 -1.3280
  445MOL0     C59982   7.192   2.524   9.093  0.0382  0.0906  0.0324
  445MOL0     C59983   7.063   2.448   9.047  0.1544 -0.5299 -0.6124
  445MOL0     C59984   6.963   2.366   9.147 -0.8328  0.5598 -0.3342
  445MOL0    Cl59985   6.804   2.339   9.058 -0.0664  0.3417 -0.2834
  445MOL0     C59986   8.065   2.559   9.203 -0.1135 -0.8722  0.8319
  445MOL0     C59987   8.180   2.614   9.158  0.1281 -0.8847  0.3887
  445MOL0     O59988   8.349   2.837   9.232  0.8935  0.6411  0.3013
  445MOL0     C59989   8.542   2.817   8.942 -0.4625  0.0098  1.2375
  445MOL0     C59990   8.660   2.864   8.874 -1.0748  0.2440 -0.9716
  445MOL0     N59991   8.850   2.721   8.480 -0.1677 -0.2925 -0.2238
  445MOL0     N59992   8.811   2.613   8.412 -0.3977 -0.2602  0.6853
  445MOL0     C59993   8.116   1.957   7.899  0.3395  0.4877  1.1418
  445MOL0     C59994   7.983   1.937   7.880  0.1930  0.0575 -0.5966
  445MOL0     C59995   7.571   1.724   7.951  0.0378 -0.2780  0.2751
  445MOL0     C59996   7.498   1.601   7.948  0.5206  0.3330 -0.0189
  445MOL0     C59997   7.358   1.602   7.917  0.1338 -0.5536 -0.5660
  445MOL0     C59998   7.288   1.725   7.891 -1.0781 -0.4369 -0.3089
  445MOL0     O59999   7.161   1.705   7.848 -0.1872 -0.2263 -0.7564
  445MOL0     C60000   7.072   1.808   7.849  0.3746 -0.0055  0.5281
  445MOL0     C60001   6.983   1.806   7.980 -0.3550 -0.1635  0.2336
  445MOL0     C60002   6.916   1.670   7.997  0.6487 -0.3680 -0.6341
  445MOL0     C60003   6.857   1.601   7.874 -0.4144  0.7826 -0.0539
  445MOL0     C60004   6.738   1.668   7.823  0.3637 -0.3356 -0.3667
  445MOL0     C60005   6.636   1.727   7.783 -0.1229  0.6845  0.5802
  445MOL0     C60006   7.359   1.848   7.900 -1.3586  0.5238  0.3858
  445MOL0     C60007   7.495   1.835   7.935 -0.3223 -0.2076 -0.5631
  445MOL0     H60008   7.909   1.773   8.158 -0.7992 -1.1550 -1.6902
  445MOL0     H60009   8.148   1.842   8.214  0.5705  4.8680  0.9208
  445MOL0     H60010   8.373   1.885   8.219  1.8011 -1.1262  1.1733
  445MOL0     H60011   8.377   1.758   8.085 -2.0837  1.6981 -2.3996
  445MOL0     H60012   8.608   1.835   8.148  2.1679  3.0430  1.6334
  445MOL0     H60013   8.567   1.897   7.987  3.6246 -4.6967  0.1170
  445MOL0     H60014   8.475   2.100   8.135 -2.0353 -1.7669  2.0979
  445MOL0     H60015   8.561   2.036   8.268  0.7105  0.5019 -0.4012
  445MOL0     H60016   8.766   2.041   8.111  0.4882 -0.3831  1.7520
  445MOL0     H60017   8.669   2.116   7.991  0.0191 -2.0004 -0.0194
  445MOL0     H60018   8.625   2.292   8.197  0.3895  0.2855 -0.2387
  445MOL0     H60019   8.746   2.222   8.280 -3.3338  0.7557  2.1383
  445MOL0     H60020   8.925   2.235   8.100 -1.6820 -3.4348  1.1715
  445MOL0     H60021   8.813   2.302   7.990  0.5125  1.0530  0.6131
  445MOL0     H60022   8.930   2.487   8.067 -1.0667  0.1943 -1.7488
  445MOL0     H60023   8.771   2.485   8.145 -0.7871 -2.6250 -0.9766
  445MOL0     H60024   9.041   2.391   8.263 -0.5314 -1.8599 -1.3821
  445MOL0     H60025   8.902   2.350   8.349  0.7348  1.2826  1.8827
  445MOL0     H60026   9.140   2.604   8.377  0.3115 -1.1443  2.2303
  445MOL0     H60027   9.168   2.797   8.571  0.7414  0.1441 -1.9364
  445MOL0     H60028   9.096   2.902   8.449 -1.3182  0.2168  0.0476
  445MOL0     H60029   8.924   2.973   8.616 -1.0296  0.1423  0.6218
  445MOL0     H60030   9.086   3.001   8.674 -0.1523 -0.6426  3.5112
  445MOL0     H60031   9.072   2.772   8.795 -1.9291 -2.7794  0.6259
  445MOL0     H60032   8.901   2.770   8.753  1.7164 -0.4760 -2.9702
  445MOL0     H60033   9.045   2.986   8.911 -2.0308  3.4158 -3.6553
  445MOL0     H60034   8.940   2.852   8.975  1.8929 -2.2105 -0.9148
  445MOL0     H60035   8.703   3.160   9.053  1.1733 -0.2703 -1.2017
  445MOL0     H60036   8.514   3.225   9.185  1.3128  0.2836  0.0510
  445MOL0     H60037   8.372   3.121   9.161  0.6018 -1.4520 -1.9992
  445MOL0     H60038   8.478   3.071   9.287  2.2093 -2.0143 -2.1432
  445MOL0     H60039   8.019   2.864   8.975 -0.0521  1.6738  1.2698
  445MOL0     H60040   7.830   2.754   9.051  0.2196 -2.8838 -5.5875
  445MOL0     H60041   7.756   2.668   9.351 -0.0476 -2.4868  3.1010
  445MOL0     H60042   7.660   2.649   9.205 -1.7038 -0.1018  2.4709
  445MOL0     H60043   7.672   2.425   9.405 -2.7669 -2.3332  2.0270
  445MOL0     H60044   7.559   2.565   9.412 -1.1381 -0.8542 -0.6994
  445MOL0     H60045   7.492   2.342   9.278  1.9285 -0.4608 -0.5908
  445MOL0     H60046   7.575   2.423   9.145 -1.3547 -0.4065 -0.4151
  445MOL0     H60047   7.356   2.526   9.322 -0.1054 -2.7142 -0.0419
  445MOL0     H60048   7.421   2.619   9.185  4.2057 -0.0427  0.8605
  445MOL0     H60049   7.274   2.348   9.184  1.4054 -0.1528  0.7233
  445MOL0     H60050   7.363   2.399   9.047  0.7185 -0.9042 -0.0454
  445MOL0     H60051   7.166   2.595   9.172  1.5991  0.4247  0.2950
  445MOL0     H60052   7.218   2.589   9.009 -1.8941  2.1329  0.9054
  445MOL0     H60053   7.082   2.396   8.953  0.8165 -0.7462 -0.3681
  445MOL0     H60054   7.009   2.535   9.011  1.1557 -0.7295 -2.7311
  445MOL0     H60055   6.944   2.422   9.240 -0.1432 -1.0120  0.7972
  445MOL0     H60056   7.011   2.273   9.179 -2.8228  0.3455  2.4407
  445MOL0     H60057   8.087   2.457   9.235  4.5082 -0.0400  1.1172
  445MOL0     H60058   8.280   2.575   9.172  0.9528  1.4740  1.5303
  445MOL0     H60059   8.482   2.737   8.900  1.8067 -2.8065  2.9604
  445MOL0     H60060   8.709   2.808   8.795  3.0731 -0.6126  1.8770
  445MOL0     H60061   8.180   1.996   7.820 -0.4525 -0.1382  0.1628
  445MOL0     H60062   7.933   1.990   7.800 -0.9822  2.5936  1.6255
  445MOL0     H60063   7.545   1.508   7.976  1.8080  1.6758  2.6406
  445MOL0     H60064   7.313   1.503   7.919 -1.3882 -0.0199 -3.2028
  445MOL0     H60065   7.119   1.905   7.861  2.4261 -1.2697  4.1568
  445MOL0     H60066   7.016   1.811   7.755 -0.9735  2.5904  1.3309
  445MOL0     H60067   6.910   1.886   7.989  2.0924  2.1153  1.3460
  445MOL0     H60068   7.054   1.830   8.060  1.8668  1.5273 -2.0722
  445MOL0     H60069   6.831   1.677   8.066  0.6607  0.1269 -0.6687
  445MOL0     H60070   6.986   1.600   8.043 -0.4424 -0.6490  0.6686
  445MOL0     H60071   6.821   1.502   7.903 -1.2025  1.1823  0.3548
  445MOL0     H60072   6.933   1.583   7.797 -0.4896  0.2266  0.0012
  445MOL0     H60073   6.538   1.765   7.762 -0.0852  0.0158 -0.9292
  445MOL0     H60074   7.320   1.947   7.880  1.4356  1.9771  1.5287
  445MOL0     H60075   7.543   1.932   7.920  2.7867 -1.4503  0.3879
  446MOL0     O60076   8.703   0.630   2.781 -0.4229 -0.0825  1.0377
  446MOL0     C60077   8.804   0.579   2.730  0.2897  0.3866  0.0771
  446MOL0     O60078   8.855   0.457   2.767 -0.4007  0.3289  0.2587
  446MOL0     C60079   8.861   0.417   2.895 -0.3588  0.7584  0.4594
  446MOL0     C60080   8.875   0.508   2.994 -0.3433  0.3908 -0.2919
  446MOL0     C60081   8.899   0.461   3.127  0.0663  0.0248 -0.5371
  446MOL0     C60082   8.899   0.326   3.146  0.4025 -1.4184 -0.2716
  446MOL0     O60083   8.911   0.293   3.283  0.0346  0.9946 -0.2186
  446MOL0     C60084   8.909   0.167   3.334  0.2371  1.0685 -0.1375
  446MOL0     C60085   8.967   0.168   3.471 -0.1993 -0.1362  0.9800
  446MOL0     C60086   8.960   0.037   3.553  0.2284  0.1841 -0.7699
  446MOL0     C60087   9.032  -0.075   3.480  0.3597 -0.2127  0.1481
  446MOL0     C60088   9.006  -0.214   3.538 -0.3982  1.1834 -0.0227
  446MOL0     C60089   8.866  -0.271   3.501  0.6189  0.8315  0.0972
  446MOL0     C60090   8.845  -0.414   3.552  0.9762 -0.2481 -0.8706
  446MOL0     C60091   8.763  -0.443   3.683 -0.7493 -0.8787  0.2359
  446MOL0     N60092   8.620  -0.473   3.658  0.7836  0.2572 -0.7385
  446MOL0     C60093   8.526  -0.376   3.655  0.0751 -0.1373  0.4589
  446MOL0     C60094   8.407  -0.437   3.638 -0.6731  0.5044  0.5925
  446MOL0     C60095   8.272  -0.370   3.642 -0.4088  0.4878 -0.4672
  446MOL0     C60096   8.223  -0.346   3.506  0.3672  0.0661  0.8221
  446MOL0     C60097   8.090  -0.269   3.503  0.1468  1.4001 -0.4873
  446MOL0     C60098   8.077  -0.170   3.382 -0.5061  0.5731 -0.0538
  446MOL0     O60099   7.934  -0.154   3.352  0.6291 -0.7523 -0.0559
  446MOL0     C60100   7.886  -0.249   3.265 -0.2852  0.9884  0.7128
  446MOL0     C60101   7.877  -0.218   3.129 -0.7308  0.3203  0.7298
  446MOL0     C60102   7.832  -0.312   3.034 -0.5292 -0.7762  0.1505
  446MOL0     C60103   7.821  -0.259   2.891  0.1743  0.2792  0.3352
  446MOL0     C60104   7.791  -0.440   3.077  0.4684 -0.1944 -0.3138
  446MOL0     C60105   7.750  -0.553   2.981 -0.2307 -0.5531 -0.0721
  446MOL0     O60106   7.659  -0.641   3.030  0.4794 -1.0318 -0.0630
  446MOL0     C60107   7.650  -0.757   2.961  0.0060  0.0706 -0.7392
  446MOL0     C60108   7.742  -0.855   3.000  0.3741  0.4616 -0.2141
  446MOL0     C60109   7.733  -0.971   2.932 -1.0460  0.4690 -0.0590
  446MOL0     C60110   7.642  -0.995   2.824 -0.1953  0.1219 -0.1734
  446MOL0     O60111   7.647  -1.119   2.774 -0.1533  1.2130  0.4200
  446MOL0     C60112   7.673  -1.125   2.627 -0.4846  0.2025 -0.1996
  446MOL0     C60113   7.736  -1.259   2.583  0.1575 -0.3990  0.7501
  446MOL0     C60114   7.709  -1.307   2.433  1.6266 -0.2359  0.4350
  446MOL0     C60115   7.777  -1.435   2.393  0.2516 -0.0211  1.0378
  446MOL0     C60116   7.731  -1.501   2.255 -0.0366 -1.5834  0.2405
  446MOL0     C60117   7.745  -1.403   2.137  0.4984 -0.0033  0.6855
  446MOL0     C60118   7.729  -1.485   2.017  0.0804 -0.4058  0.6077
  446MOL0     C60119   7.598  -1.557   1.989  0.1808  0.0798  0.3929
  446MOL0    Cl60120   7.460  -1.453   1.957 -0.1625 -0.8302 -0.9982
  446MOL0     C60121   7.541  -0.901   2.795  0.4941 -0.9511 -0.4528
  446MOL0     C60122   7.555  -0.777   2.862  0.0698  0.1998  0.1805
  446MOL0     O60123   7.799  -0.556   2.868 -0.0701 -0.4781 -0.7895
  446MOL0     C60124   7.785  -0.463   3.222  0.6903  1.2912  0.3870
  446MOL0     C60125   7.829  -0.366   3.312  1.5303 -0.2392  0.4107
  446MOL0     N60126   8.436  -0.570   3.612 -0.2189 -0.4388  0.1207
  446MOL0     N60127   8.560  -0.595   3.629 -0.0819 -0.7934  0.7304
  446MOL0     C60128   8.890   0.236   3.047  0.2528 -1.1983 -0.6796
  446MOL0     C60129   8.874   0.284   2.912  0.2603  0.4714  0.2861
  446MOL0     C60130   8.865   0.646   2.618  0.2317  0.5542 -0.4049
  446MOL0     C60131   8.987   0.601   2.573 -0.3619  0.0153 -0.3503
  446MOL0     C60132   9.045   0.672   2.466 -0.2214 -0.4198  0.3231
  446MOL0     C60133   8.987   0.782   2.404 -0.3154 -0.2171  0.1365
  446MOL0     O60134   9.072   0.854   2.316  0.0984 -0.5359  0.0834
  446MOL0     C60135   9.046   0.994   2.303 -1.0170 -0.6390 -0.5831
  446MOL0     C60136   9.160   1.041   2.225  0.7579  1.1086 -0.0142
  446MOL0     C60137   9.161   1.190   2.194 -0.2462 -0.2198 -0.3543
  446MOL0     C60138   9.292   1.245   2.136 -0.3929  0.2897 -0.1605
  446MOL0     C60139   9.310   1.174   2.011  0.6593 -0.2308 -0.8270
  446MOL0     C60140   9.338   1.106   1.913  0.2116 -0.3073  0.8820
  446MOL0     C60141   8.859   0.818   2.442  0.3277  0.9946 -0.2008
  446MOL0     C60142   8.798   0.753   2.557  0.1156 -0.1516  0.3091
  446MOL0     H60143   8.881   0.615   2.979 -0.9245  0.4676  0.0057
  446MOL0     H60144   8.921   0.525   3.212  1.4690 -0.6678 -0.3396
  446MOL0     H60145   8.807   0.128   3.342  1.9289 -3.7860  0.9285
  446MOL0     H60146   8.965   0.107   3.262  1.4978  1.1716  0.7384
  446MOL0     H60147   9.072   0.192   3.449 -0.2159 -1.2637 -0.5119
  446MOL0     H60148   8.926   0.258   3.518  0.7739  0.3652  0.9098
  446MOL0     H60149   9.001   0.060   3.652 -0.7658  2.3076 -0.7939
  446MOL0     H60150   8.859   0.005   3.582  0.2903 -0.5305 -1.3208
  446MOL0     H60151   8.999  -0.080   3.376 -1.3340  1.7857  0.5344
  446MOL0     H60152   9.137  -0.051   3.494 -0.3067  0.6178  6.2580
  446MOL0     H60153   9.075  -0.282   3.487 -2.1927  0.8086 -2.0900
  446MOL0     H60154   9.013  -0.195   3.645 -0.1570 -2.0965  0.6460
  446MOL0     H60155   8.791  -0.210   3.553  1.6465  2.0152  0.2503
  446MOL0     H60156   8.832  -0.267   3.397  0.9345 -0.1685 -0.0600
  446MOL0     H60157   8.791  -0.470   3.476  2.0356 -1.0503 -1.0502
  446MOL0     H60158   8.945  -0.456   3.565  2.1640  1.5067 -3.5238
  446MOL0     H60159   8.791  -0.374   3.763 -0.9587  0.3626 -0.7179
  446MOL0     H60160   8.804  -0.541   3.709  0.9229 -1.2145 -3.1496
  446MOL0     H60161   8.536  -0.268   3.660 -0.0384  0.3654 -4.6465
  446MOL0     H60162   8.206  -0.443   3.690  2.2146 -0.8463  1.2991
  446MOL0     H60163   8.257  -0.277   3.698  0.5708  1.6559 -2.0514
  446MOL0     H60164   8.226  -0.433   3.439 -0.8667  1.9118 -1.7941
  446MOL0     H60165   8.298  -0.272   3.475 -0.3081  1.4203  2.3288
  446MOL0     H60166   8.067  -0.222   3.599  0.0393 -0.8343  0.6558
  446MOL0     H60167   8.005  -0.337   3.501  1.0064  0.3027 -0.8012
  446MOL0     H60168   8.123  -0.215   3.293 -0.9970  1.9489 -1.0385
  446MOL0     H60169   8.130  -0.078   3.405  0.1183  0.1926  0.0520
  446MOL0     H60170   7.918  -0.121   3.100  1.0750  0.0396  2.1389
  446MOL0     H60171   7.756  -0.309   2.819 -1.2623  1.4660  0.7659
  446MOL0     H60172   7.771  -0.161   2.892 -0.9127 -0.2418 -0.9194
  446MOL0     H60173   7.918  -0.253   2.841  1.2981 -2.1661  2.0143
  446MOL0     H60174   7.831  -0.833   3.059  0.7732 -2.4658  0.4551
  446MOL0     H60175   7.793  -1.058   2.958 -1.6030  0.0864 -0.0331
  446MOL0     H60176   7.578  -1.099   2.578 -0.4906 -2.0398 -1.4932
  446MOL0     H60177   7.748  -1.047   2.611  1.5626 -0.6412  3.8556
  446MOL0     H60178   7.843  -1.259   2.604  0.3262 -1.3193 -0.0787
  446MOL0     H60179   7.693  -1.336   2.647  1.2620 -2.5691 -0.9833
  446MOL0     H60180   7.735  -1.232   2.358 -0.5084 -2.2064 -2.5160
  446MOL0     H60181   7.603  -1.330   2.419  2.3295 -4.0483  0.2740
  446MOL0     H60182   7.885  -1.417   2.400  0.5290 -1.0940 -0.1166
  446MOL0     H60183   7.761  -1.516   2.465 -0.0197 -1.9648 -1.0882
  446MOL0     H60184   7.630  -1.542   2.259  0.7584 -4.1194 -2.4076
  446MOL0     H60185   7.802  -1.585   2.247  0.4661 -1.0689 -0.9100
  446MOL0     H60186   7.669  -1.326   2.156  1.5241  0.7694  1.8867
  446MOL0     H60187   7.841  -1.352   2.144  1.0060 -0.3836 -2.3997
  446MOL0     H60188   7.808  -1.560   2.018  0.7122  0.2118 -0.5760
  446MOL0     H60189   7.746  -1.428   1.925 -1.3593 -2.1515 -0.8514
  446MOL0     H60190   7.574  -1.626   2.070  0.9836 -1.7010 -0.8161
  446MOL0     H60191   7.608  -1.616   1.898  0.4815 -1.9880  1.7019
  446MOL0     H60192   7.455  -0.906   2.729 -0.3456  2.3466  0.1593
  446MOL0     H60193   7.480  -0.701   2.844 -1.5989 -1.5583 -0.5841
  446MOL0     H60194   7.744  -0.554   3.263  2.2993 -0.4311 -1.6126
  446MOL0     H60195   7.827  -0.382   3.419  2.6151 -0.7855  0.3594
  446MOL0     H60196   8.900   0.130   3.067  1.0503 -0.5452  2.8995
  446MOL0     H60197   8.898   0.223   2.825  1.1404 -2.1351  2.2352
  446MOL0     H60198   9.046   0.519   2.614  0.2875  0.4098 -0.4813
  446MOL0     H60199   9.147   0.663   2.430 -1.2294  0.2883 -3.0702
  446MOL0     H60200   8.957   1.016   2.243 -1.3708  1.2232  0.5311
  446MOL0     H60201   9.031   1.038   2.402 -1.5855  0.2852 -1.0703
  446MOL0     H60202   9.161   0.979   2.135  0.7208 -0.7750  1.2386
  446MOL0     H60203   9.247   1.013   2.285  0.5757 -0.8656 -0.6149
  446MOL0     H60204   9.149   1.231   2.294 -1.7841 -3.3121  0.8474
  446MOL0     H60205   9.082   1.235   2.133 -0.1346  0.7438  0.1918
  446MOL0     H60206   9.378   1.239   2.203  2.6981 -1.3658 -3.9078
  446MOL0     H60207   9.288   1.353   2.125 -0.5580  0.2689 -0.3172
  446MOL0     H60208   9.367   1.042   1.832 -2.1868  1.9234 -1.9695
  446MOL0     H60209   8.804   0.896   2.392 -0.2616 -0.5598 -2.1077
  446MOL0     H60210   8.704   0.784   2.603  1.4460  0.7128  2.6056
  447MOL0     O60211   7.666  10.309   5.509 -0.0457  0.5100 -0.2843
  447MOL0     C60212   7.563  10.252   5.475  0.3133  0.6304 -0.8330
  447MOL0     O60213   7.442  10.274   5.532  0.1434 -0.2331 -0.9118
  447MOL0     C60214   7.422  10.388   5.610  0.4023  0.2852  0.2456
  447MOL0     C60215   7.330  10.379   5.715  0.6157 -0.0066  0.1989
  447MOL0     C60216   7.318  10.490   5.809  0.5583 -0.5513  0.2993
  447MOL0     C60217   7.388  10.605   5.791  1.4175  0.2519  0.3570
  447MOL0     O60218   7.371  10.698   5.886 -0.2266 -0.3649  0.2213
  447MOL0     C60219   7.323  10.832   5.855  1.0258  0.1799  0.1124
  447MOL0     C60220   7.327  10.902   5.987  0.1056  0.6829 -0.8109
  447MOL0     C60221   7.214  10.853   6.080  0.1748  0.7216  0.4514
  447MOL0     C60222   7.202  10.960   6.181  0.9904  0.2142 -1.5882
  447MOL0     C60223   7.108  10.915   6.292 -1.0961  0.0549  0.0976
  447MOL0     C60224   6.962  10.889   6.263 -0.1795 -0.9689  0.6461
  447MOL0     C60225   6.884  11.026   6.266 -0.0000  0.0453  0.6727
  447MOL0     C60226   6.732  11.003   6.241  0.3685 -0.7225  0.6198
  447MOL0     N60227   6.655  11.109   6.176 -0.4398 -0.5473  0.0970
  447MOL0     C60228   6.645  11.238   6.226 -0.1306 -0.2401 -0.2674
  447MOL0     C60229   6.590  11.318   6.124  0.5266 -0.2466  0.5938
  447MOL0     C60230   6.565  11.468   6.122  0.2319  0.7507 -0.3718
  447MOL0     C60231   6.694  11.533   6.079 -0.6950 -0.4577  0.1640
  447MOL0     C60232   6.719  11.504   5.935 -0.3990  0.4397 -0.3476
  447MOL0     C60233   6.858  11.538   5.879  0.3511 -0.1539 -0.4920
  447MOL0     O60234   6.877  11.684   5.868  0.1662 -0.5624  0.1798
  447MOL0     C60235   7.009  11.725   5.866 -0.4291 -0.2086  0.2145
  447MOL0     C60236   7.033  11.863   5.884 -0.2560 -0.0663 -0.2336
  447MOL0     C60237   7.164  11.918   5.879 -0.4817 -1.2114 -0.2111
  447MOL0     C60238   7.170  12.064   5.873  0.6918 -0.3642 -0.3178
  447MOL0     C60239   7.283  11.837   5.857  0.5666 -0.0714 -0.7396
  447MOL0     C60240   7.416  11.885   5.837  0.4047 -0.6401  0.4008
  447MOL0     O60241   7.448  12.008   5.883  0.9667  0.8400  0.2690
  447MOL0     C60242   7.561  12.073   5.831 -0.2266  0.3249 -0.3542
  447MOL0     C60243   7.692  12.045   5.870 -0.4244  0.9618  0.5208
  447MOL0     C60244   7.793  12.129   5.835 -0.0811  0.4542  0.8053
  447MOL0     C60245   7.769  12.230   5.737 -0.0660  0.6672  0.4707
  447MOL0     O60246   7.864  12.327   5.692  0.7139  0.5252  0.0786
  447MOL0     C60247   8.001  12.281   5.655  0.6285  0.1861 -0.5273
  447MOL0     C60248   8.059  12.363   5.540  0.7728 -0.1001 -0.6667
  447MOL0     C60249   8.219  12.331   5.515  0.3738  0.6210  0.2008
  447MOL0     C60250   8.264  12.428   5.421 -1.1515 -0.6016 -0.1271
  447MOL0     C60251   8.419  12.412   5.417  0.6230 -0.1289 -0.2673
  447MOL0     C60252   8.483  12.464   5.550 -0.1559 -0.1158  1.2435
  447MOL0     C60253   8.633  12.502   5.547 -0.3774  0.9121 -0.2093
  447MOL0     C60254   8.718  12.390   5.486  0.7174 -1.2188  0.2084
  447MOL0    Cl60255   8.692  12.242   5.577  0.3793 -0.1324  0.0266
  447MOL0     C60256   7.642  12.260   5.697  0.7196  0.4426 -0.1962
  447MOL0     C60257   7.538  12.177   5.736 -0.0367 -0.9211  0.0135
  447MOL0     O60258   7.495  11.806   5.786 -0.0333 -0.0243  0.3727
  447MOL0     C60259   7.245  11.702   5.850 -0.5856  0.3136 -0.3303
  447MOL0     C60260   7.125  11.648   5.850  0.0898  0.4769  0.4328
  447MOL0     N60261   6.561  11.229   6.024  0.5318 -0.6782  0.1469
  447MOL0     N60262   6.594  11.107   6.057  0.1451  0.8844  0.4963
  447MOL0     C60263   7.472  10.619   5.680 -0.2602  0.1599  0.5471
  447MOL0     C60264   7.487  10.510   5.591 -0.3294 -0.0549  0.3977
  447MOL0     C60265   7.554  10.137   5.387  0.1666 -0.2187 -0.1045
  447MOL0     C60266   7.666  10.103   5.322 -0.5845  0.0976  0.4017
  447MOL0     C60267   7.662  10.018   5.214  0.2298  0.9874  0.8130
  447MOL0     C60268   7.543   9.952   5.168 -0.0851 -0.3686 -0.0814
  447MOL0     O60269   7.543   9.878   5.055 -0.4624  0.4316  1.1140
  447MOL0     C60270   7.434   9.870   4.966 -0.1294 -0.6412 -0.5016
  447MOL0     C60271   7.417   9.728   4.918  0.6467 -0.4995  0.9253
  447MOL0     C60272   7.453   9.614   5.018 -0.6914 -0.7679 -0.2564
  447MOL0     C60273   7.377   9.482   4.983 -0.0421 -1.0861  0.6406
  447MOL0     C60274   7.387   9.364   5.070 -0.0376  0.2724  0.6475
  447MOL0     C60275   7.401   9.266   5.141  0.8283  0.1589 -0.2338
  447MOL0     C60276   7.434   9.978   5.245  0.7612  0.0547  0.3260
  447MOL0     C60277   7.432  10.073   5.348 -0.4233  0.5611  0.1350
  447MOL0     H60278   7.273  10.288   5.735  0.3879  0.4364  1.7026
  447MOL0     H60279   7.242  10.482   5.886  0.4720 -1.6439  0.1141
  447MOL0     H60280   7.382  10.876   5.775 -0.2486  2.2763  0.2630
  447MOL0     H60281   7.229  10.820   5.801  1.1489 -2.0719  0.3049
  447MOL0     H60282   7.421  10.902   6.044  0.3097  4.5464 -0.8954
  447MOL0     H60283   7.308  11.008   5.966 -2.2074 -0.2075 -3.7398
  447MOL0     H60284   7.125  10.835   6.019  1.8966 -1.2088 -1.6476
  447MOL0     H60285   7.231  10.755   6.126 -4.2890 -0.4133  0.1911
  447MOL0     H60286   7.298  10.980   6.231  0.0982  0.9390 -0.1103
  447MOL0     H60287   7.161  11.053   6.140  0.3432  1.8383  2.3249
  447MOL0     H60288   7.141  10.823   6.341  1.5562  1.4178  1.0755
  447MOL0     H60289   7.114  10.992   6.370 -3.6931 -0.8014  1.2643
  447MOL0     H60290   6.960  10.836   6.167  1.1323  1.3008 -0.7390
  447MOL0     H60291   6.917  10.831   6.343  0.2349 -1.0554  0.8150
  447MOL0     H60292   6.885  11.070   6.366 -1.6078 -3.1877  2.2467
  447MOL0     H60293   6.923  11.110   6.207  1.9462  0.0816  1.9156
  447MOL0     H60294   6.689  10.984   6.340  0.9092  0.5897  1.1181
  447MOL0     H60295   6.719  10.911   6.182  0.4823  1.4315 -3.0373
  447MOL0     H60296   6.686  11.286   6.315 -0.0832  1.2108 -1.0509
  447MOL0     H60297   6.478  11.489   6.058 -0.2828 -3.7853 -1.5565
  447MOL0     H60298   6.539  11.499   6.224  3.6182 -2.0277  1.5476
  447MOL0     H60299   6.769  11.501   6.151 -2.6911 -0.9694  2.1264
  447MOL0     H60300   6.686  11.642   6.074  1.2650 -0.2683  0.3066
  447MOL0     H60301   6.635  11.548   5.880  1.6061  5.8057  0.2963
  447MOL0     H60302   6.717  11.395   5.926  0.1386  0.3440  0.5248
  447MOL0     H60303   6.869  11.507   5.774  2.9975 -0.1173 -0.3102
  447MOL0     H60304   6.946  11.486   5.917  2.1786 -0.8287 -5.0112
  447MOL0     H60305   6.943  11.923   5.896 -1.8730 -2.4202  0.1338
  447MOL0     H60306   7.227  12.095   5.786 -0.0772 -1.7434 -1.3455
  447MOL0     H60307   7.069  12.107   5.868  0.5028 -0.8837 -1.1356
  447MOL0     H60308   7.200  12.102   5.971 -0.9055  0.5503 -0.1352
  447MOL0     H60309   7.705  11.954   5.928  2.7267  1.8087  1.3283
  447MOL0     H60310   7.896  12.104   5.858 -0.6419 -4.2845 -0.8274
  447MOL0     H60311   8.068  12.288   5.742 -1.1773 -0.3974  0.9951
  447MOL0     H60312   8.010  12.176   5.625  2.5975  0.2834 -0.4291
  447MOL0     H60313   7.997  12.340   5.453 -3.2357  0.8082  1.6606
  447MOL0     H60314   8.050  12.468   5.571 -1.4435 -0.5367  0.4017
  447MOL0     H60315   8.244  12.235   5.469  1.1243  1.7311 -1.8323
  447MOL0     H60316   8.260  12.340   5.616 -0.3986  2.5143  0.3838
  447MOL0     H60317   8.222  12.418   5.320  1.8193  4.7000 -2.3179
  447MOL0     H60318   8.249  12.532   5.453  2.5980 -0.2085  0.8001
  447MOL0     H60319   8.470  12.471   5.341 -0.1432  0.7910 -0.0852
  447MOL0     H60320   8.454  12.311   5.393 -3.0085 -1.1868 -1.7130
  447MOL0     H60321   8.429  12.558   5.565  3.5634  2.2818  0.6593
  447MOL0     H60322   8.473  12.398   5.637  2.3423  0.2591  1.8906
  447MOL0     H60323   8.664  12.516   5.650 -4.2610  0.9936  1.0995
  447MOL0     H60324   8.656  12.592   5.490  3.4827  0.2484  0.0580
  447MOL0     H60325   8.824  12.405   5.507  0.3276 -0.5750  1.9210
  447MOL0     H60326   8.697  12.361   5.383  1.9662 -2.7265  0.3537
  447MOL0     H60327   7.627  12.352   5.641 -2.7892  0.9389  1.2872
  447MOL0     H60328   7.438  12.200   5.701  0.0901  0.1661  0.3194
  447MOL0     H60329   7.314  11.623   5.822 -0.6374  0.2139 -0.1787
  447MOL0     H60330   7.119  11.540   5.837 -2.5332  0.7179 -0.9463
  447MOL0     H60331   7.534  10.705   5.657 -0.7763 -0.3568 -3.4729
  447MOL0     H60332   7.551  10.522   5.505  1.7016 -0.9128  1.7074
  447MOL0     H60333   7.753  10.168   5.337 -1.1573  1.2010 -0.8628
  447MOL0     H60334   7.743  10.017   5.142 -1.9444  0.5120 -1.8192
  447MOL0     H60335   7.341   9.906   5.013  0.9953 -0.2620  1.5468
  447MOL0     H60336   7.442   9.942   4.884 -2.1851 -0.3811 -0.5283
  447MOL0     H60337   7.480   9.725   4.828 -1.7455  3.3182 -1.1789
  447MOL0     H60338   7.313   9.709   4.889  0.5546  1.8501 -0.6378
  447MOL0     H60339   7.425   9.661   5.113  0.0183  1.0014 -0.8862
  447MOL0     H60340   7.560   9.595   5.028 -1.1005 -2.8880  0.6470
  447MOL0     H60341   7.397   9.462   4.877  1.3149 -2.9461  1.2091
  447MOL0     H60342   7.268   9.494   4.987  0.0320  0.5630 -0.7504
  447MOL0     H60343   7.408   9.177   5.201  1.4680 -0.7313 -1.5792
  447MOL0     H60344   7.343   9.919   5.241  1.9103 -1.7025 -1.5763
  447MOL0     H60345   7.337  10.101   5.392 -0.0502  1.5597  0.3368
  448MOL0     O60346   8.330   3.814  10.777 -1.1553  0.0910 -0.2126
  448MOL0     C60347   8.378   3.791  10.889  0.3901 -0.1101 -0.1023
  448MOL0     O60348   8.494   3.717  10.911 -0.7025 -0.2826 -0.0362
  448MOL0     C60349   8.555   3.672  10.803 -0.3547  0.4157 -0.0635
  448MOL0     C60350   8.696   3.661  10.800 -0.7110 -0.1118  0.1886
  448MOL0     C60351   8.758   3.602  10.696  0.0161  0.2243 -0.4550
  448MOL0     C60352   8.685   3.537  10.597  0.0248  0.7178 -1.1596
  448MOL0     O60353   8.736   3.477  10.490 -0.4262  0.7303 -0.4453
  448MOL0     C60354   8.863   3.504  10.422 -0.6063  0.0481 -0.4414
  448MOL0     C60355   8.894   3.406  10.305 -1.7394  0.0993 -0.6602
  448MOL0     C60356   8.781   3.360  10.221 -0.2906 -0.0975 -0.3045
  448MOL0     C60357   8.693   3.466  10.155 -0.1169 -0.2700 -0.0049
  448MOL0     C60358   8.584   3.406  10.072 -0.0742 -1.1327  0.8733
  448MOL0     C60359   8.487   3.528  10.040  0.5680 -0.2615 -0.1908
  448MOL0     C60360   8.369   3.504   9.946  0.5076 -0.2628  0.3262
  448MOL0     C60361   8.280   3.410  10.014  0.8506  0.9218  0.0881
  448MOL0     N60362   8.200   3.462  10.123 -0.4270  0.5228 -0.6919
  448MOL0     C60363   8.102   3.566  10.137  0.0483  0.3040 -0.7128
  448MOL0     C60364   8.061   3.555  10.272  0.2409 -0.0586  0.9886
  448MOL0     C60365   7.947   3.633  10.334  0.1734 -0.4776  0.0927
  448MOL0     C60366   7.992   3.773  10.362  0.6453  0.8888 -1.2955
  448MOL0     C60367   8.130   3.783  10.446  0.6427  0.0338  0.4955
  448MOL0     C60368   8.182   3.930  10.476 -0.6091 -0.0656 -0.5280
  448MOL0     O60369   8.158   4.006  10.354 -1.1635 -0.9638  0.0782
  448MOL0     C60370   8.263   4.011  10.263 -0.2940  0.1169 -0.4794
  448MOL0     C60371   8.246   4.106  10.166 -0.0606 -0.4645  0.5983
  448MOL0     C60372   8.341   4.130  10.070 -0.7806 -0.0132  0.4131
  448MOL0     C60373   8.295   4.247   9.973 -0.2544 -0.6453 -0.3211
  448MOL0     C60374   8.449   4.047  10.050 -0.0151 -0.4593 -0.5703
  448MOL0     C60375   8.562   4.059   9.949  1.2144 -0.0573 -0.0760
  448MOL0     O60376   8.659   3.967   9.970 -0.6499 -0.1468 -0.3142
  448MOL0     C60377   8.759   3.962   9.880  0.3424  0.2825  0.7218
  448MOL0     C60378   8.748   3.892   9.759  0.8481  0.1209  0.2173
  448MOL0     C60379   8.853   3.881   9.663 -0.6689 -0.7113  0.2030
  448MOL0     C60380   8.976   3.955   9.684 -0.4850  0.1114 -0.8426
  448MOL0     O60381   9.065   3.942   9.577 -0.1812  0.0971  0.2486
  448MOL0     C60382   9.194   4.016   9.580  0.9947 -0.2876 -0.3050
  448MOL0     C60383   9.281   3.935   9.668 -0.2578  0.0281  0.4121
  448MOL0     C60384   9.424   3.961   9.668 -0.3580  0.0941  1.0312
  448MOL0     C60385   9.518   3.855   9.735 -0.1141  0.2757 -0.1325
  448MOL0     C60386   9.661   3.908   9.737  0.2493 -0.2566 -0.3426
  448MOL0     C60387   9.758   3.802   9.802 -0.2952  0.8773  0.3909
  448MOL0     C60388   9.908   3.845   9.802 -0.1908 -1.1917  0.2773
  448MOL0     C60389   9.999   3.736   9.831 -0.0938  0.4350 -1.3007
  448MOL0    Cl60390  10.059   3.664   9.675 -0.0707 -0.1995 -0.1623
  448MOL0     C60391   8.988   4.033   9.799 -0.7328 -1.1258  0.0450
  448MOL0     C60392   8.871   4.037   9.890 -0.5497 -0.4108  0.9391
  448MOL0     O60393   8.556   4.140   9.856  0.7815 -0.2424  0.2494
  448MOL0     C60394   8.466   3.947  10.147  1.1333 -0.8351 -0.2665
  448MOL0     C60395   8.376   3.927  10.253  0.3397 -0.2706  0.2686
  448MOL0     N60396   8.129   3.457  10.340  0.2494 -0.9373 -0.0231
  448MOL0     N60397   8.200   3.400  10.251 -1.1065 -0.0635 -0.7123
  448MOL0     C60398   8.548   3.531  10.603 -0.5270 -0.3138 -0.1975
  448MOL0     C60399   8.484   3.595  10.710 -0.4495  0.1245  0.5129
  448MOL0     C60400   8.308   3.852  11.013  0.2635 -0.1977  0.3798
  448MOL0     C60401   8.176   3.894  11.009 -0.1118  0.6853  0.1879
  448MOL0     C60402   8.123   3.948  11.123  0.1811  0.4907  0.0893
  448MOL0     C60403   8.200   3.963  11.240  0.2903  0.0992 -0.1272
  448MOL0     O60404   8.132   4.007  11.350 -0.3726 -0.1623 -0.2814
  448MOL0     C60405   8.193   4.006  11.479 -0.9821 -0.7254  0.2276
  448MOL0     C60406   8.213   3.868  11.549 -0.5565  0.6178 -0.0171
  448MOL0     C60407   8.090   3.784  11.543  0.2406 -0.1069 -0.0422
  448MOL0     C60408   8.099   3.661  11.639 -0.3842  0.4691 -0.5796
  448MOL0     C60409   8.203   3.570  11.596  0.6112 -0.0678  0.0267
  448MOL0     C60410   8.280   3.485  11.562 -0.6382  0.5020 -0.2542
  448MOL0     C60411   8.334   3.924  11.241  0.0405  0.8364  0.6756
  448MOL0     C60412   8.380   3.857  11.137  0.3480  0.4091  0.7240
  448MOL0     H60413   8.738   3.719  10.882 -0.0755  0.7933 -0.7648
  448MOL0     H60414   8.865   3.592  10.683 -0.1852 -0.0147 -2.1705
  448MOL0     H60415   8.861   3.607  10.384  1.4753 -0.0351 -0.9188
  448MOL0     H60416   8.947   3.498  10.493 -0.1257  0.3728 -0.9676
  448MOL0     H60417   8.949   3.460  10.227  1.0613 -0.9346  0.4739
  448MOL0     H60418   8.948   3.321  10.348 -2.2403 -0.6476 -1.4871
  448MOL0     H60419   8.816   3.291  10.144  0.4442  1.5635 -1.5354
  448MOL0     H60420   8.714   3.306  10.288 -2.1496  1.0654 -1.1518
  448MOL0     H60421   8.653   3.516  10.244 -0.0408  0.3956 -0.3389
  448MOL0     H60422   8.749   3.541  10.099  1.1542 -2.4590 -1.8451
  448MOL0     H60423   8.619   3.371   9.974  2.3674  3.3639 -0.1296
  448MOL0     H60424   8.538   3.326  10.131  1.3374 -2.9912 -0.4206
  448MOL0     H60425   8.445   3.560  10.136 -0.4591 -2.5076  0.1623
  448MOL0     H60426   8.541   3.610   9.991 -0.8492 -0.8063 -2.8820
  448MOL0     H60427   8.322   3.601   9.928  0.8706 -0.1207  0.1354
  448MOL0     H60428   8.408   3.471   9.850  1.5504 -2.1820  1.3569
  448MOL0     H60429   8.341   3.325  10.046 -0.0957  0.7156  1.4648
  448MOL0     H60430   8.203   3.367   9.949  2.7140  2.5459 -3.4732
  448MOL0     H60431   8.052   3.634  10.069  2.3625  3.5465  0.5709
  448MOL0     H60432   7.859   3.636  10.269 -1.2818 -1.6172  1.9082
  448MOL0     H60433   7.917   3.584  10.427  0.6678  0.1311  0.5741
  448MOL0     H60434   7.924   3.839  10.417  2.2868  1.5808 -0.0157
  448MOL0     H60435   8.002   3.820  10.264  1.5089  0.1250 -1.5904
  448MOL0     H60436   8.205   3.741  10.378 -0.5335  1.5204 -1.8633
  448MOL0     H60437   8.120   3.730  10.541  1.0877 -2.4308 -0.7548
  448MOL0     H60438   8.278   3.922  10.528 -0.7886 -4.0795 -0.4928
  448MOL0     H60439   8.122   3.970  10.559  0.9758 -1.1151  1.2035
  448MOL0     H60440   8.160   4.171  10.166  1.7268  2.0993 -0.9410
  448MOL0     H60441   8.380   4.313   9.951  0.3767 -0.4585  2.2976
  448MOL0     H60442   8.253   4.214   9.878 -0.9134  1.0935 -0.6861
  448MOL0     H60443   8.218   4.310  10.019  0.0076 -0.5283 -0.0376
  448MOL0     H60444   8.653   3.844   9.737  2.1520 -1.7483 -1.8519
  448MOL0     H60445   8.828   3.840   9.566  1.2630 -0.0790 -0.6147
  448MOL0     H60446   9.238   4.020   9.480  0.8729 -1.9240 -0.4625
  448MOL0     H60447   9.190   4.118   9.618  1.3306 -0.0768 -0.8323
  448MOL0     H60448   9.264   3.954   9.774 -2.0266  0.6183  0.0496
  448MOL0     H60449   9.270   3.832   9.633 -1.3081  1.4355 -4.0368
  448MOL0     H60450   9.460   4.054   9.714  1.3258 -0.5322  1.0672
  448MOL0     H60451   9.465   3.977   9.568  0.4663 -0.2250  1.3098
  448MOL0     H60452   9.482   3.829   9.835  1.0323 -2.0502 -0.2571
  448MOL0     H60453   9.511   3.765   9.673  0.9347 -0.1596  0.3637
  448MOL0     H60454   9.669   3.997   9.800  1.8397 -0.8020  0.3004
  448MOL0     H60455   9.684   3.932   9.633 -0.1646 -1.4526 -0.7220
  448MOL0     H60456   9.735   3.786   9.908  5.6675 -1.1469  1.7576
  448MOL0     H60457   9.739   3.703   9.760  1.3135  0.4165  0.6875
  448MOL0     H60458   9.929   3.924   9.875 -1.9980  2.3753 -2.7063
  448MOL0     H60459   9.937   3.888   9.705  1.8524 -2.7200  0.1263
  448MOL0     H60460   9.944   3.667   9.896  2.3601 -0.1310  0.3505
  448MOL0     H60461  10.090   3.762   9.886 -0.7876  0.6298 -0.2164
  448MOL0     H60462   9.077   4.095   9.804 -0.6463 -1.0717 -1.5226
  448MOL0     H60463   8.891   4.108   9.970  3.2379 -1.0864  0.7474
  448MOL0     H60464   8.550   3.879  10.145  2.0508  0.2544  0.0928
  448MOL0     H60465   8.408   3.865  10.335  0.5519  0.6565  0.9105
  448MOL0     H60466   8.497   3.460  10.539  0.3623 -0.3445 -0.8911
  448MOL0     H60467   8.379   3.569  10.718 -1.1421  2.5031  0.0094
  448MOL0     H60468   8.116   3.887  10.919 -2.3675  1.4773  1.5684
  448MOL0     H60469   8.022   3.984  11.135  0.4897  0.6934  2.4917
  448MOL0     H60470   8.287   4.061  11.475 -2.3632  2.2427  3.5942
  448MOL0     H60471   8.142   4.080  11.542 -0.0752  0.8527 -0.8284
  448MOL0     H60472   8.227   3.883  11.656  2.9002 -0.2018 -0.2102
  448MOL0     H60473   8.298   3.815  11.504 -0.8216  1.9595 -2.2835
  448MOL0     H60474   8.070   3.760  11.439  2.1769  0.2194 -0.5397
  448MOL0     H60475   8.006   3.848  11.573  0.2235 -0.1347 -0.0318
  448MOL0     H60476   8.002   3.613  11.655 -0.2817  0.3689 -0.2436
  448MOL0     H60477   8.140   3.688  11.737  0.0563 -2.4102  0.1422
  448MOL0     H60478   8.343   3.406  11.527 -2.0951 -0.1686 -1.4543
  448MOL0     H60479   8.390   3.950  11.329  1.2711  2.2049 -0.4592
  448MOL0     H60480   8.481   3.818  11.149  0.1379 -0.2139  0.4605
  449MOL0     O60481   1.232   0.041   0.868 -0.7446  0.6833  0.0209
  449MOL0     C60482   1.183   0.149   0.901 -0.4459 -0.6100 -0.0397
  449MOL0     O60483   1.251   0.257   0.930  0.2135 -0.5666 -0.1721
  449MOL0     C60484   1.386   0.256   0.914 -0.5735 -0.8532  0.4480
  449MOL0     C60485   1.443   0.335   1.015 -1.1397 -1.4608 -0.0501
  449MOL0     C60486   1.577   0.356   1.023 -0.8403 -0.3878 -0.2326
  449MOL0     C60487   1.670   0.284   0.935  0.1837 -0.1823 -0.0148
  449MOL0     O60488   1.806   0.303   0.956 -0.2065  0.5616  0.1706
  449MOL0     C60489   1.896   0.246   0.857 -0.1011 -0.1876 -0.7014
  449MOL0     C60490   2.040   0.278   0.898 -0.6260  0.5456 -0.1294
  449MOL0     C60491   2.061   0.420   0.949  1.1026  1.0579 -0.8402
  449MOL0     C60492   2.196   0.474   0.993 -0.1923 -0.0182 -0.5373
  449MOL0     C60493   2.284   0.374   1.067 -0.1931  0.6130  0.8542
  449MOL0     C60494   2.413   0.433   1.134 -0.0866  0.1982 -0.3671
  449MOL0     C60495   2.514   0.330   1.178 -0.0831 -0.0344 -0.2434
  449MOL0     C60496   2.457   0.203   1.247 -0.1317 -0.5864  0.1579
  449MOL0     N60497   2.394   0.235   1.367  0.2672  0.5768 -1.0339
  449MOL0     C60498   2.269   0.204   1.428  0.5145 -0.5146  0.5933
  449MOL0     C60499   2.270   0.256   1.555 -0.3497  0.1028  0.3077
  449MOL0     C60500   2.168   0.258   1.671  0.1507  1.3720  0.4296
  449MOL0     C60501   2.027   0.202   1.632 -1.2133  0.1587 -0.0788
  449MOL0     C60502   2.030   0.048   1.614 -0.2752 -0.1491 -0.5705
  449MOL0     C60503   1.892  -0.004   1.588  0.3526  0.5978  0.8312
  449MOL0     O60504   1.801   0.036   1.694  0.3909 -0.2441  0.2450
  449MOL0     C60505   1.760  -0.075   1.759 -0.1464 -0.0123  1.0703
  449MOL0     C60506   1.825  -0.116   1.878  0.4268 -0.8319 -0.1378
  449MOL0     C60507   1.787  -0.235   1.940 -0.6004  0.2213  0.2631
  449MOL0     C60508   1.859  -0.279   2.067  0.0052  0.4888 -0.2669
  449MOL0     C60509   1.680  -0.311   1.882  0.7866  0.6287 -0.1142
  449MOL0     C60510   1.620  -0.439   1.939  0.7206  1.0463 -0.0688
  449MOL0     O60511   1.492  -0.467   1.946  0.7239  0.1237  0.5659
  449MOL0     C60512   1.470  -0.595   1.974 -0.0123 -0.0869  0.7800
  449MOL0     C60513   1.418  -0.677   1.875 -0.0470  0.9755 -0.2929
  449MOL0     C60514   1.394  -0.814   1.899  0.3171  0.5610 -0.9770
  449MOL0     C60515   1.418  -0.869   2.024  1.1030  0.1976 -0.3575
  449MOL0     O60516   1.372  -0.996   2.038  0.5700  0.3647  0.1823
  449MOL0     C60517   1.381  -1.043   2.172  0.5801  0.8776  0.2365
  449MOL0     C60518   1.330  -1.176   2.178 -0.2397 -0.1814 -0.6497
  449MOL0     C60519   1.326  -1.247   2.311  0.1860 -0.3024 -0.1511
  449MOL0     C60520   1.458  -1.295   2.354 -0.5581 -0.3116 -0.3065
  449MOL0     C60521   1.453  -1.336   2.512  0.4944 -0.2735 -0.2196
  449MOL0     C60522   1.353  -1.444   2.553 -1.1162 -0.3501  0.0903
  449MOL0     C60523   1.369  -1.483   2.702  0.2872 -0.0368 -0.3501
  449MOL0     C60524   1.296  -1.613   2.733  0.8534 -0.4906 -0.1292
  449MOL0    Cl60525   1.115  -1.581   2.770  0.2393 -0.4692 -0.0504
  449MOL0     C60526   1.459  -0.788   2.127 -0.2366 -0.1400 -1.0355
  449MOL0     C60527   1.478  -0.655   2.103 -0.3364  0.2088  0.2305
  449MOL0     O60528   1.708  -0.522   1.969  0.3523 -0.9047  0.0095
  449MOL0     C60529   1.615  -0.268   1.764  0.0083  0.5167 -0.4959
  449MOL0     C60530   1.659  -0.154   1.703 -0.9135 -0.2961 -0.4576
  449MOL0     N60531   2.397   0.308   1.577  0.2261  0.0262 -0.3052
  449MOL0     N60532   2.466   0.305   1.460 -0.3959 -0.0695 -0.1318
  449MOL0     C60533   1.604   0.195   0.839 -0.5780  0.8946  0.4685
  449MOL0     C60534   1.469   0.181   0.824 -0.0813 -0.5200 -0.2820
  449MOL0     C60535   1.036   0.163   0.892  0.3563 -0.3524  0.1160
  449MOL0     C60536   0.962   0.045   0.854 -0.4992 -0.9877  0.5589
  449MOL0     C60537   0.819   0.051   0.869  0.2537  0.3200  0.0168
  449MOL0     C60538   0.755   0.165   0.934 -0.2795 -0.0919 -0.8964
  449MOL0     O60539   0.619   0.186   0.946 -0.5246 -0.6254  0.3829
  449MOL0     C60540   0.531   0.073   0.975  0.2213 -0.1449 -0.0417
  449MOL0     C60541   0.402   0.104   1.052 -0.3507 -0.2892 -0.0322
  449MOL0     C60542   0.328  -0.016   1.095  0.6721 -0.1287 -0.7971
  449MOL0     C60543   0.199   0.014   1.175 -0.0377 -0.3715  0.1794
  449MOL0     C60544   0.090   0.033   1.079  0.1640  0.7984  0.4757
  449MOL0     C60545  -0.005   0.071   1.004 -0.0747 -0.6304 -0.5648
  449MOL0     C60546   0.836   0.272   0.962  0.6193 -0.3697 -0.2945
  449MOL0     C60547   0.975   0.274   0.935 -0.8460  0.6742 -0.6139
  449MOL0     H60548   1.374   0.381   1.084 -5.1999 -5.4618 -0.9379
  449MOL0     H60549   1.615   0.427   1.096 -2.3691 -0.6829  0.9024
  449MOL0     H60550   1.889   0.136   0.852 -1.9404 -0.4465  3.4556
  449MOL0     H60551   1.873   0.289   0.759  1.1439 -0.0322 -0.9375
  449MOL0     H60552   2.063   0.214   0.983  0.0865  0.5053 -0.3438
  449MOL0     H60553   2.107   0.271   0.812  1.5229  0.5648  1.4455
  449MOL0     H60554   2.016   0.492   0.879 -0.9540 -0.3388 -1.0140
  449MOL0     H60555   2.004   0.429   1.041 -0.8660 -1.3905 -1.7006
  449MOL0     H60556   2.247   0.505   0.901  0.5106 -3.0021 -1.2702
  449MOL0     H60557   2.188   0.565   1.053 -0.5275  1.8692 -3.2686
  449MOL0     H60558   2.235   0.313   1.144 -0.9070 -2.8191 -2.0552
  449MOL0     H60559   2.319   0.308   0.988 -0.7818  2.3407 -0.9312
  449MOL0     H60560   2.469   0.497   1.066  1.6310 -3.2124 -2.4706
  449MOL0     H60561   2.393   0.484   1.229  3.4413 -1.3300  1.3736
  449MOL0     H60562   2.575   0.291   1.096 -0.6233 -0.2854 -0.5299
  449MOL0     H60563   2.589   0.381   1.240  0.1153  1.0307 -1.3145
  449MOL0     H60564   2.536   0.135   1.280 -0.8853 -1.6870 -0.2621
  449MOL0     H60565   2.389   0.154   1.176 -1.3772  1.3977 -0.0967
  449MOL0     H60566   2.189   0.160   1.369  1.2222  1.2066 -1.7956
  449MOL0     H60567   2.198   0.190   1.751 -0.7867 -1.3693 -1.4213
  449MOL0     H60568   2.167   0.356   1.719 -0.2465  1.2327  0.7114
  449MOL0     H60569   1.993   0.244   1.536  1.7801  0.7752 -0.9830
  449MOL0     H60570   1.955   0.227   1.710 -1.0789 -1.0129  0.4377
  449MOL0     H60571   2.063  -0.001   1.706  0.7861 -0.9079 -1.3284
  449MOL0     H60572   2.103   0.029   1.535  4.2380  3.6017  2.1357
  449MOL0     H60573   1.894  -0.113   1.578  1.0663  0.4491  2.3398
  449MOL0     H60574   1.857   0.034   1.491  1.5413 -3.2289 -1.3291
  449MOL0     H60575   1.902  -0.055   1.923 -2.0325  1.3987  1.2901
  449MOL0     H60576   1.780  -0.266   2.142 -0.6464  0.5153 -0.9456
  449MOL0     H60577   1.891  -0.382   2.082  0.2890  0.6404  0.1904
  449MOL0     H60578   1.936  -0.207   2.097 -2.6592  2.8455  1.4338
  449MOL0     H60579   1.394  -0.641   1.776 -2.2304 -0.0554 -0.1993
  449MOL0     H60580   1.345  -0.879   1.827  0.6621 -0.2547 -0.4819
  449MOL0     H60581   1.489  -1.054   2.179  0.9106  1.1570 -2.9466
  449MOL0     H60582   1.336  -0.984   2.252 -0.5690  1.9989 -1.1535
  449MOL0     H60583   1.224  -1.164   2.153 -0.7909  0.9223  1.8964
  449MOL0     H60584   1.390  -1.231   2.106  1.2393  0.3154  0.1656
  449MOL0     H60585   1.271  -1.341   2.306  0.7547 -0.7445  1.3300
  449MOL0     H60586   1.276  -1.173   2.375  1.8840  0.2649  0.5864
  449MOL0     H60587   1.485  -1.371   2.280 -3.3349 -1.7830  0.0415
  449MOL0     H60588   1.533  -1.215   2.346 -0.1343 -0.8229 -1.6852
  449MOL0     H60589   1.435  -1.247   2.572 -0.5021 -0.7408  0.2117
  449MOL0     H60590   1.555  -1.352   2.548  0.8117  1.0829 -0.4648
  449MOL0     H60591   1.249  -1.414   2.539 -0.4049  2.0021 -0.5967
  449MOL0     H60592   1.357  -1.531   2.486 -2.4229 -0.5752  0.2742
  449MOL0     H60593   1.330  -1.401   2.764  0.4781 -1.4080  1.6741
  449MOL0     H60594   1.473  -1.494   2.733 -0.0011  0.5377  0.8909
  449MOL0     H60595   1.342  -1.667   2.817 -1.4034 -2.5602 -0.0943
  449MOL0     H60596   1.298  -1.685   2.651  2.1211 -2.7587  1.7533
  449MOL0     H60597   1.474  -0.818   2.230 -3.2086  0.5186 -0.3205
  449MOL0     H60598   1.499  -0.589   2.187  0.1168 -2.7213  2.5748
  449MOL0     H60599   1.531  -0.317   1.715 -1.6601  3.4442 -0.7988
  449MOL0     H60600   1.620  -0.124   1.607  0.1423  2.1428 -0.2089
  449MOL0     H60601   1.668   0.121   0.792 -1.9348 -0.9494  1.4279
  449MOL0     H60602   1.433   0.105   0.756  1.6454 -1.6534 -0.0087
  449MOL0     H60603   1.009  -0.046   0.819  1.6072  0.3221 -0.2351
  449MOL0     H60604   0.773  -0.043   0.843  1.1900 -0.7179  1.8980
  449MOL0     H60605   0.493   0.032   0.881 -3.1084 -0.0331  1.1285
  449MOL0     H60606   0.582  -0.005   1.033  1.1138 -0.7458 -1.5732
  449MOL0     H60607   0.350   0.177   0.989 -1.7385  0.0235  1.4162
  449MOL0     H60608   0.448   0.159   1.135 -0.8011 -0.8999  0.6272
  449MOL0     H60609   0.392  -0.076   1.161 -1.6150 -1.7357  0.1454
  449MOL0     H60610   0.298  -0.078   1.010 -1.3765 -0.3122 -0.0156
  449MOL0     H60611   0.217   0.104   1.234 -0.0365 -0.1552 -0.1531
  449MOL0     H60612   0.172  -0.071   1.239 -0.0882  0.8439  1.8337
  449MOL0     H60613  -0.087   0.110   0.947 -1.1652 -1.7071  0.1984
  449MOL0     H60614   0.789   0.358   1.009  1.5075 -0.6905  1.2708
  449MOL0     H60615   1.035   0.362   0.955  2.2728 -1.1720 -1.1901
  450MOL0     O60616   2.988   7.924   2.134 -0.3573 -1.3492 -0.0792
  450MOL0     C60617   2.992   8.014   2.227  0.7725  0.0488  0.1857
  450MOL0     O60618   2.882   8.086   2.283 -0.7983 -0.2085  0.5267
  450MOL0     C60619   2.751   8.071   2.258 -0.0288 -0.7880  0.1624
  450MOL0     C60620   2.699   7.988   2.147 -0.7577 -0.5394  0.3018
  450MOL0     C60621   2.567   7.997   2.119  0.0599  0.1220  0.3643
  450MOL0     C60622   2.482   8.075   2.191  0.0348 -0.2391 -0.1860
  450MOL0     O60623   2.349   8.070   2.157 -0.9157 -0.2116 -0.6211
  450MOL0     C60624   2.256   8.054   2.261 -0.4555  0.6192 -0.7824
  450MOL0     C60625   2.110   8.042   2.217 -0.6554  0.8419  0.3572
  450MOL0     C60626   2.054   8.179   2.242  0.6797  0.2430  0.2117
  450MOL0     C60627   1.901   8.165   2.238 -0.5030 -0.0350  0.0069
  450MOL0     C60628   1.816   8.302   2.228  0.4166 -0.0519 -0.4360
  450MOL0     C60629   1.666   8.264   2.239 -0.0964 -0.5170 -0.2369
  450MOL0     C60630   1.580   8.375   2.295  0.2307 -0.4494 -0.2032
  450MOL0     C60631   1.427   8.362   2.250 -0.5812 -0.2188  0.4149
  450MOL0     N60632   1.364   8.242   2.304  0.0449  0.0038 -0.3406
  450MOL0     C60633   1.304   8.240   2.425  0.2255 -1.1769  0.4002
  450MOL0     C60634   1.272   8.114   2.448  1.2681  0.3942 -0.1673
  450MOL0     C60635   1.186   8.067   2.570  0.0530 -0.2106 -0.6268
  450MOL0     C60636   1.043   8.035   2.514  1.0017 -0.0537 -0.2754
  450MOL0     C60637   0.919   8.020   2.613 -0.2285  0.2593 -0.4081
  450MOL0     C60638   0.977   7.963   2.748  0.6761 -0.3367  0.5350
  450MOL0     O60639   0.885   7.915   2.836  0.5337  0.2919 -0.2584
  450MOL0     C60640   0.931   7.872   2.964  0.9132  0.3545  0.4173
  450MOL0     C60641   1.062   7.876   3.008  0.8325 -0.1185 -0.7252
  450MOL0     C60642   1.095   7.829   3.140 -0.5749 -0.6728  0.7409
  450MOL0     C60643   1.243   7.838   3.180  0.2483 -0.9277  0.5729
  450MOL0     C60644   0.986   7.767   3.211 -0.7333  0.2301  0.9506
  450MOL0     C60645   1.010   7.698   3.331 -0.2124  0.1228  0.2507
  450MOL0     O60646   0.906   7.637   3.385  0.2076  0.2514 -1.0496
  450MOL0     C60647   0.908   7.570   3.508  0.1876 -0.0581  0.1319
  450MOL0     C60648   0.785   7.546   3.569 -0.0433  0.1237 -0.4980
  450MOL0     C60649   0.770   7.489   3.689 -0.0994  0.4042 -0.3055
  450MOL0     C60650   0.881   7.442   3.760 -0.5917  0.4749 -0.1533
  450MOL0     O60651   0.865   7.380   3.879  0.0652 -0.8076 -0.8069
  450MOL0     C60652   0.788   7.251   3.899 -0.4584 -0.0797  0.5364
  450MOL0     C60653   0.803   7.192   4.035 -0.1299  0.6834  0.4585
  450MOL0     C60654   0.932   7.106   4.036 -0.5098 -0.8404  0.5604
  450MOL0     C60655   0.960   7.055   4.176 -0.2865  0.2312  0.4009
  450MOL0     C60656   1.083   6.962   4.181 -1.4321 -0.5683  0.2757
  450MOL0     C60657   1.225   7.025   4.165 -0.0995  0.5351  0.1145
  450MOL0     C60658   1.263   7.115   4.288 -0.2569  0.0038 -0.4983
  450MOL0     C60659   1.412   7.140   4.285  0.6865 -1.1747 -1.0231
  450MOL0    Cl60660   1.484   7.170   4.445 -0.5451 -0.1762  0.0071
  450MOL0     C60661   1.001   7.433   3.685  0.0701  0.2138  0.2105
  450MOL0     C60662   1.019   7.503   3.566  0.0011  0.2709  0.5882
  450MOL0     O60663   1.127   7.696   3.378  0.1185  0.6142  0.4249
  450MOL0     C60664   0.857   7.775   3.164  1.0889 -0.9068 -0.0962
  450MOL0     C60665   0.833   7.824   3.043 -0.6585  0.6041  0.6705
  450MOL0     N60666   1.307   8.038   2.340  1.0121 -0.2544 -0.2360
  450MOL0     N60667   1.355   8.118   2.244 -0.1369 -0.3111 -0.5047
  450MOL0     C60668   2.526   8.156   2.291  0.0344 -0.5145  0.0751
  450MOL0     C60669   2.663   8.154   2.327  0.5195 -0.5917  0.5637
  450MOL0     C60670   3.127   8.035   2.281 -0.5928  0.0162 -0.5069
  450MOL0     C60671   3.240   7.950   2.271  0.3428 -0.3286  0.7601
  450MOL0     C60672   3.364   7.981   2.325 -0.1352 -1.0622  0.0579
  450MOL0     C60673   3.388   8.098   2.399  0.5321  1.1677  0.5741
  450MOL0     O60674   3.512   8.147   2.430 -0.2629  1.3394 -0.0149
  450MOL0     C60675   3.547   8.198   2.563  0.2500 -1.3593 -0.8436
  450MOL0     C60676   3.514   8.097   2.674  0.1319  0.0386  0.2418
  450MOL0     C60677   3.611   7.970   2.658 -0.2985  0.8316 -0.0601
  450MOL0     C60678   3.739   7.984   2.728 -0.0571  0.4242  0.6090
  450MOL0     C60679   3.732   8.032   2.869 -0.0642 -0.3108 -0.1613
  450MOL0     C60680   3.733   8.069   2.986 -0.2743  0.6312 -0.3463
  450MOL0     C60681   3.278   8.179   2.420 -0.3633 -0.1126 -0.2536
  450MOL0     C60682   3.150   8.153   2.361  1.2383 -0.3638 -0.5622
  450MOL0     H60683   2.762   7.917   2.094 -0.7141  0.7102 -1.4280
  450MOL0     H60684   2.520   7.926   2.052 -0.8207 -0.9918  2.0989
  450MOL0     H60685   2.277   7.957   2.308 -1.5472 -0.2820 -2.1096
  450MOL0     H60686   2.269   8.128   2.341 -1.1227 -0.1062  0.0203
  450MOL0     H60687   2.111   8.014   2.111  0.3121 -3.1251  1.2620
  450MOL0     H60688   2.063   7.962   2.275  4.1278 -3.9050 -1.4913
  450MOL0     H60689   2.077   8.213   2.343  2.7242  0.7833 -0.3855
  450MOL0     H60690   2.091   8.254   2.172  1.6342  3.5418  3.9042
  450MOL0     H60691   1.875   8.096   2.157 -0.5460 -0.5406  0.4506
  450MOL0     H60692   1.865   8.114   2.328  0.4336 -2.0345 -0.6848
  450MOL0     H60693   1.837   8.375   2.306 -0.2646 -0.2971 -0.0113
  450MOL0     H60694   1.843   8.354   2.136 -0.4823  5.0795  1.8667
  450MOL0     H60695   1.649   8.238   2.134 -0.0155  1.7980 -0.8954
  450MOL0     H60696   1.649   8.176   2.302  0.3525  0.6506  1.6122
  450MOL0     H60697   1.590   8.376   2.404  0.8256 -0.6809 -0.2529
  450MOL0     H60698   1.630   8.467   2.264  1.6548  0.0002  2.9707
  450MOL0     H60699   1.425   8.329   2.145  0.9962 -0.8584  0.5534
  450MOL0     H60700   1.370   8.455   2.260  1.1363  0.9315 -0.1313
  450MOL0     H60701   1.295   8.325   2.492  0.6828 -1.3638  0.7046
  450MOL0     H60702   1.239   7.982   2.615 -0.6845 -0.2908  0.1247
  450MOL0     H60703   1.178   8.145   2.646 -4.4032 -1.2169  0.2077
  450MOL0     H60704   1.049   7.942   2.455 -2.2502  0.4993 -1.6502
  450MOL0     H60705   1.013   8.101   2.433  2.6368 -0.6746 -1.4657
  450MOL0     H60706   0.845   7.959   2.561 -0.0662  1.3048 -1.9124
  450MOL0     H60707   0.872   8.118   2.625 -0.2356  0.3883 -1.3997
  450MOL0     H60708   1.044   8.034   2.797  0.0051  0.9365 -0.3423
  450MOL0     H60709   1.042   7.882   2.714  0.6584  0.9237 -2.9260
  450MOL0     H60710   1.139   7.923   2.947  0.1985  3.0636  0.7265
  450MOL0     H60711   1.284   7.737   3.168 -2.5909 -2.1577  0.5613
  450MOL0     H60712   1.297   7.912   3.120 -0.9554  1.2191  1.9890
  450MOL0     H60713   1.265   7.863   3.285 -0.5760  1.0235  0.3261
  450MOL0     H60714   0.698   7.591   3.522  0.1309 -0.9077 -1.8646
  450MOL0     H60715   0.670   7.487   3.731  0.1308  2.2333  0.4145
  450MOL0     H60716   0.682   7.276   3.885 -0.4345 -0.4363 -0.3909
  450MOL0     H60717   0.790   7.178   3.817  0.3925 -0.0683  0.5367
  450MOL0     H60718   0.822   7.266   4.114  1.7298 -1.1164  1.7948
  450MOL0     H60719   0.710   7.137   4.051 -0.5518  1.3234  0.2642
  450MOL0     H60720   1.016   7.172   4.012 -1.2226  0.5846  1.7806
  450MOL0     H60721   0.932   7.024   3.963  4.3565 -2.6551  2.1710
  450MOL0     H60722   0.982   7.146   4.234  0.0008 -0.2182  1.0112
  450MOL0     H60723   0.876   6.998   4.217 -2.7810  0.6379 -3.5611
  450MOL0     H60724   1.065   6.879   4.112  1.2350 -1.5775  0.6914
  450MOL0     H60725   1.091   6.926   4.284  0.6974 -0.2607  0.2567
  450MOL0     H60726   1.301   6.946   4.154  0.1412  0.6757  0.6808
  450MOL0     H60727   1.211   7.069   4.066 -2.1988 -0.0862  0.0793
  450MOL0     H60728   1.229   7.066   4.380  3.7571 -2.3998 -0.0391
  450MOL0     H60729   1.213   7.212   4.284  1.9061  1.1689 -4.2336
  450MOL0     H60730   1.427   7.235   4.233 -0.6325  1.0721  2.3635
  450MOL0     H60731   1.456   7.057   4.229 -3.0476 -3.0467 -1.5237
  450MOL0     H60732   1.079   7.379   3.738  2.5683 -0.2779 -3.6093
  450MOL0     H60733   1.115   7.508   3.515 -0.3710 -0.5997 -0.2426
  450MOL0     H60734   0.773   7.733   3.219 -0.5711 -0.1851 -1.9452
  450MOL0     H60735   0.733   7.826   2.999 -0.6197  0.6845  0.5852
  450MOL0     H60736   2.460   8.222   2.347  1.4460  0.7313  0.3525
  450MOL0     H60737   2.693   8.219   2.408  0.0490  1.7442 -1.0313
  450MOL0     H60738   3.244   7.868   2.200  1.3205  2.0003 -2.0596
  450MOL0     H60739   3.443   7.910   2.306 -0.8317 -1.7782 -0.2028
  450MOL0     H60740   3.650   8.233   2.571  0.2867 -1.6302 -0.0393
  450MOL0     H60741   3.490   8.289   2.588 -0.0898 -1.8413  0.2092
  450MOL0     H60742   3.412   8.062   2.654  0.3481 -2.6410  3.0438
  450MOL0     H60743   3.520   8.145   2.772 -2.3398 -0.5893  0.7547
  450MOL0     H60744   3.633   7.942   2.554  1.9521 -1.7682  1.0181
  450MOL0     H60745   3.562   7.882   2.700 -2.7335  2.6070  1.0877
  450MOL0     H60746   3.810   8.045   2.672 -2.1713  0.3811 -2.3519
  450MOL0     H60747   3.788   7.886   2.724 -0.8931 -0.0596 -4.0688
  450MOL0     H60748   3.729   8.096   3.089 -3.5995 -0.7267  0.0234
  450MOL0     H60749   3.289   8.278   2.463  0.6426 -0.2606 -0.1340
  450MOL0     H60750   3.072   8.228   2.367 -0.5355 -2.2405  1.8414
  451MOL0     O60751   0.842   1.414   3.385 -0.1543 -0.6240 -0.0576
  451MOL0     C60752   0.810   1.522   3.332 -0.1385 -0.4503  0.0572
  451MOL0     O60753   0.685   1.566   3.307  0.9946  0.4860  0.6859
  451MOL0     C60754   0.575   1.478   3.330  0.0510 -0.4916  1.3717
  451MOL0     C60755   0.497   1.496   3.450 -1.1091  0.2664 -0.2592
  451MOL0     C60756   0.395   1.402   3.473 -0.0530 -0.7100 -0.6578
  451MOL0     C60757   0.354   1.304   3.376 -0.3567  0.3737 -0.6132
  451MOL0     O60758   0.237   1.225   3.386  0.1479 -0.0169 -0.5346
  451MOL0     C60759   0.129   1.280   3.454  0.0489 -0.1657 -0.3510
  451MOL0     C60760   0.010   1.191   3.420  0.4141 -0.2171 -0.0882
  451MOL0     C60761  -0.020   1.200   3.264  1.0358 -0.3368  0.2174
  451MOL0     C60762  -0.143   1.121   3.206 -0.7500 -0.4440  0.1131
  451MOL0     C60763  -0.276   1.164   3.283 -0.2105  0.7999 -0.0867
  451MOL0     C60764  -0.391   1.090   3.217  0.3269  0.5707  0.2758
  451MOL0     C60765  -0.523   1.127   3.267  0.1674 -0.2697 -0.3316
  451MOL0     C60766  -0.579   1.257   3.202  0.4160 -0.8482 -0.1013
  451MOL0     N60767  -0.705   1.300   3.265  0.0185  0.6028  0.1930
  451MOL0     C60768  -0.729   1.320   3.397  0.2493 -0.2348 -0.2983
  451MOL0     C60769  -0.850   1.381   3.403  0.2849  0.1613 -0.4849
  451MOL0     C60770  -0.923   1.418   3.531  0.3238  1.1597  0.4539
  451MOL0     C60771  -0.837   1.489   3.636  0.3143  0.7144  0.0048
  451MOL0     C60772  -0.910   1.496   3.775 -0.2841 -0.2716 -1.0684
  451MOL0     C60773  -0.841   1.572   3.892  0.5486  0.4612 -0.2484
  451MOL0     O60774  -0.871   1.527   4.028 -0.6045  0.0909 -0.7234
  451MOL0     C60775  -0.997   1.489   4.066 -0.2884 -0.3795  0.7769
  451MOL0     C60776  -0.997   1.369   4.136  0.1896 -0.6349  0.8744
  451MOL0     C60777  -1.113   1.324   4.195 -0.2757  0.3444  0.5173
  451MOL0     C60778  -1.092   1.213   4.292 -0.7887  1.1377 -1.0929
  451MOL0     C60779  -1.239   1.385   4.151 -0.3040  0.1721  0.8076
  451MOL0     C60780  -1.374   1.320   4.193  0.4868  0.1041  0.3736
  451MOL0     O60781  -1.482   1.397   4.191 -0.3617  0.4464  0.3342
  451MOL0     C60782  -1.606   1.360   4.215  0.2349 -1.0249 -0.3616
  451MOL0     C60783  -1.670   1.236   4.191 -0.5472 -0.1279  0.5245
  451MOL0     C60784  -1.805   1.213   4.215 -0.1646  0.1620 -0.5824
  451MOL0     C60785  -1.881   1.325   4.250  0.1397  0.3268  0.1004
  451MOL0     O60786  -2.018   1.336   4.282 -0.3376  0.4853  0.6362
  451MOL0     C60787  -2.107   1.234   4.258  0.2940  0.1808 -0.3266
  451MOL0     C60788  -2.254   1.249   4.289 -0.0759 -0.3595 -0.3903
  451MOL0     C60789  -2.296   1.254   4.438  0.5534 -0.4594 -0.8488
  451MOL0     C60790  -2.454   1.271   4.462 -0.8829  0.6899 -0.1533
  451MOL0     C60791  -2.536   1.150   4.427  0.7648  0.0247  0.9395
  451MOL0     C60792  -2.686   1.174   4.457  0.5682  0.1311 -0.6044
  451MOL0     C60793  -2.768   1.043   4.438 -1.4086  0.3081 -0.9522
  451MOL0     C60794  -2.912   1.037   4.481 -0.0544  0.0645 -0.0386
  451MOL0    Cl60795  -2.945   0.868   4.435 -0.2003 -0.5673  0.5937
  451MOL0     C60796  -1.825   1.448   4.276 -0.1000  0.0378  0.0934
  451MOL0     C60797  -1.689   1.466   4.251  0.8101 -0.5782 -0.4614
  451MOL0     O60798  -1.375   1.209   4.236  0.4541 -0.2785  0.5761
  451MOL0     C60799  -1.235   1.504   4.078 -0.1397 -0.2624  0.4176
  451MOL0     C60800  -1.113   1.562   4.042 -0.2021 -0.7573  0.0239
  451MOL0     N60801  -0.896   1.411   3.281 -0.3809  0.1247 -0.5080
  451MOL0     N60802  -0.807   1.366   3.196 -0.2871 -0.7818 -0.4845
  451MOL0     C60803   0.433   1.291   3.259 -0.7025  0.5832  0.1795
  451MOL0     C60804   0.547   1.369   3.254 -0.3260 -0.0545  0.0205
  451MOL0     C60805   0.920   1.625   3.312 -0.1209  0.0179 -0.2470
  451MOL0     C60806   1.048   1.601   3.354 -0.4638 -1.0114  0.0532
  451MOL0     C60807   1.154   1.691   3.343  1.3740  0.0657 -0.8644
  451MOL0     C60808   1.122   1.826   3.304  0.4447 -1.0810  0.2657
  451MOL0     O60809   1.216   1.925   3.301  0.0238 -1.4796 -0.4853
  451MOL0     C60810   1.302   1.898   3.193 -0.5869  0.4347 -0.1852
  451MOL0     C60811   1.442   1.953   3.219 -0.8593  0.6399  0.2167
  451MOL0     C60812   1.490   1.924   3.365 -0.0411  0.1405  0.5311
  451MOL0     C60813   1.640   1.961   3.390  0.4337  0.1397 -0.7041
  451MOL0     C60814   1.693   1.924   3.525  0.1115 -0.2508  0.8672
  451MOL0     C60815   1.740   1.886   3.631  0.5434  0.5775 -0.4185
  451MOL0     C60816   0.999   1.853   3.240  1.0258 -0.2088  0.2106
  451MOL0     C60817   0.905   1.748   3.248 -0.5988  0.2501  0.2501
  451MOL0     H60818   0.529   1.565   3.528 -1.2047 -0.3795  0.3716
  451MOL0     H60819   0.326   1.406   3.557 -0.1820 -0.5008 -0.7727
  451MOL0     H60820   0.139   1.280   3.563  0.8141  1.3481 -0.3952
  451MOL0     H60821   0.107   1.385   3.429 -0.0115  1.2003  4.3119
  451MOL0     H60822   0.022   1.088   3.455  0.7106 -0.3654 -0.6189
  451MOL0     H60823  -0.072   1.234   3.477  1.1454  2.7780 -1.1219
  451MOL0     H60824  -0.028   1.306   3.238  1.1644 -0.3924 -0.0576
  451MOL0     H60825   0.070   1.162   3.213  2.5814  1.2916  1.5632
  451MOL0     H60826  -0.161   1.150   3.102 -1.8726  2.7481  1.0862
  451MOL0     H60827  -0.139   1.012   3.212  3.1634 -0.3806  0.8350
  451MOL0     H60828  -0.273   1.137   3.389 -1.0429 -1.2124 -0.5162
  451MOL0     H60829  -0.290   1.272   3.275  3.6184  1.3656 -1.2416
  451MOL0     H60830  -0.394   1.103   3.109 -2.3694 -0.3699  0.1591
  451MOL0     H60831  -0.378   0.983   3.234 -2.8514  0.4350  2.8645
  451MOL0     H60832  -0.581   1.040   3.233 -0.5590 -1.2119  2.9596
  451MOL0     H60833  -0.525   1.137   3.376  1.0702  2.4552 -0.4767
  451MOL0     H60834  -0.610   1.231   3.101 -1.7897 -0.8476  0.5311
  451MOL0     H60835  -0.507   1.339   3.194 -1.6485  0.9252 -1.4456
  451MOL0     H60836  -0.675   1.283   3.483  1.1184  2.6391  0.4822
  451MOL0     H60837  -1.010   1.473   3.492  0.2402  0.3001 -0.6294
  451MOL0     H60838  -0.953   1.325   3.580  2.8568  0.4454  0.7909
  451MOL0     H60839  -0.819   1.592   3.604 -2.3926  1.9545  2.0490
  451MOL0     H60840  -0.737   1.448   3.653  0.2760  0.9254  0.8010
  451MOL0     H60841  -0.921   1.395   3.816 -1.6496  1.1463  2.5264
  451MOL0     H60842  -1.015   1.526   3.772 -0.1059  0.7237  0.8587
  451MOL0     H60843  -0.862   1.680   3.888  1.0073  0.5243 -1.1445
  451MOL0     H60844  -0.733   1.562   3.879  0.6201  1.1973 -0.2881
  451MOL0     H60845  -0.896   1.344   4.167  0.6660  2.3872  2.0517
  451MOL0     H60846  -1.152   1.231   4.382 -0.5969 -0.6665 -0.5638
  451MOL0     H60847  -1.126   1.124   4.237 -3.5640  1.2754  0.2150
  451MOL0     H60848  -0.990   1.199   4.329 -1.1416 -0.5404 -0.6560
  451MOL0     H60849  -1.619   1.150   4.148 -1.4035  0.9897 -3.1067
  451MOL0     H60850  -1.846   1.113   4.222 -1.5178  0.8186  2.1548
  451MOL0     H60851  -2.086   1.223   4.151 -1.5934 -0.4291 -0.6730
  451MOL0     H60852  -2.071   1.139   4.299  2.4069  0.2204 -1.9248
  451MOL0     H60853  -2.286   1.343   4.244 -2.6588 -1.2834 -0.6063
  451MOL0     H60854  -2.302   1.168   4.234 -3.0137  0.7033  0.4082
  451MOL0     H60855  -2.240   1.340   4.475 -0.2721 -0.0916 -0.4031
  451MOL0     H60856  -2.273   1.156   4.481  0.0945  0.5875  2.0799
  451MOL0     H60857  -2.466   1.293   4.569 -0.9004 -1.9665  0.4711
  451MOL0     H60858  -2.485   1.362   4.410 -3.4221 -0.4418 -0.7514
  451MOL0     H60859  -2.503   1.052   4.464  1.6530 -1.2382 -2.7394
  451MOL0     H60860  -2.535   1.142   4.318  1.1338  2.7048  0.6988
  451MOL0     H60861  -2.709   1.209   4.558 -0.6377 -3.8642  0.6840
  451MOL0     H60862  -2.726   1.240   4.380 -2.3837 -1.7143 -0.7961
  451MOL0     H60863  -2.720   0.965   4.498 -2.3422  1.5526  1.5462
  451MOL0     H60864  -2.765   1.018   4.332 -0.0705  0.6014 -1.0061
  451MOL0     H60865  -2.974   1.113   4.432  1.1994  2.2470  1.5736
  451MOL0     H60866  -2.942   1.058   4.584 -0.5217  1.3492 -0.4117
  451MOL0     H60867  -1.895   1.519   4.318 -0.6160 -1.2190  1.4322
  451MOL0     H60868  -1.639   1.560   4.271  1.5171 -1.2793  1.2884
  451MOL0     H60869  -1.324   1.563   4.058 -0.5282 -0.1534  2.2291
  451MOL0     H60870  -1.116   1.663   4.003 -2.1427 -1.5076 -1.9517
  451MOL0     H60871   0.415   1.212   3.188  0.4794 -0.2047  0.7262
  451MOL0     H60872   0.610   1.344   3.169 -2.6825  0.7577 -2.0560
  451MOL0     H60873   1.070   1.500   3.387  0.8958 -1.6155 -2.4633
  451MOL0     H60874   1.241   1.661   3.400  0.0260  2.6733  2.9588
  451MOL0     H60875   1.319   1.793   3.164  1.0317  0.2348  1.3725
  451MOL0     H60876   1.254   1.946   3.107  1.4257  0.8641 -1.1304
  451MOL0     H60877   1.443   2.059   3.190 -0.9012  1.2540  2.3243
  451MOL0     H60878   1.511   1.909   3.146  2.5223  0.7232  3.1029
  451MOL0     H60879   1.477   1.818   3.392 -0.8868  1.1059  4.5815
  451MOL0     H60880   1.422   1.970   3.437 -1.1322  0.6405 -0.7763
  451MOL0     H60881   1.635   2.069   3.372  0.3999  0.4038  0.7534
  451MOL0     H60882   1.714   1.909   3.328 -1.2345 -3.7836  0.2970
  451MOL0     H60883   1.786   1.864   3.725  0.6381 -0.0996 -0.6169
  451MOL0     H60884   0.965   1.949   3.202 -1.6487 -1.2634 -0.2819
  451MOL0     H60885   0.808   1.762   3.203 -2.4797  0.7099  4.0024
  452MOL0     O60886   6.512   5.689   5.275 -0.2047 -0.3221 -0.0042
  452MOL0     C60887   6.586   5.739   5.365  0.6661  0.6832  1.2860
  452MOL0     O60888   6.574   5.712   5.495 -0.0356  0.2333 -0.0807
  452MOL0     C60889   6.475   5.625   5.528  0.1491 -0.8518 -0.8032
  452MOL0     C60890   6.500   5.484   5.530 -0.1754 -0.5216  0.5579
  452MOL0     C60891   6.392   5.406   5.581 -0.9002  0.7552 -0.2449
  452MOL0     C60892   6.274   5.460   5.636 -0.1958  0.1268  0.0444
  452MOL0     O60893   6.166   5.394   5.692 -0.5793  0.0440  1.0941
  452MOL0     C60894   6.222   5.314   5.803  0.3040  0.8398  0.4114
  452MOL0     C60895   6.097   5.299   5.900 -0.2288 -0.4015  0.9259
  452MOL0     C60896   5.984   5.216   5.844 -0.1241  0.8743  0.2558
  452MOL0     C60897   5.862   5.220   5.937 -0.2408  0.2659  0.0438
  452MOL0     C60898   5.758   5.129   5.887  0.0562 -0.7639 -0.1016
  452MOL0     C60899   5.634   5.131   5.974  0.4064  0.5605  0.2995
  452MOL0     C60900   5.547   5.006   5.923  0.0734 -0.0245 -0.5145
  452MOL0     C60901   5.425   4.998   6.005  0.0771 -0.5359 -0.1673
  452MOL0     N60902   5.445   4.980   6.149 -0.0156  0.5609  0.0646
  452MOL0     C60903   5.420   4.857   6.218  0.6181  0.0481  0.3540
  452MOL0     C60904   5.421   4.891   6.345  0.6761 -0.3954 -0.1425
  452MOL0     C60905   5.393   4.792   6.460  0.2990 -0.9131  0.0202
  452MOL0     C60906   5.511   4.694   6.483  0.7818 -1.0606  0.1768
  452MOL0     C60907   5.640   4.761   6.534 -1.2003  0.0142  0.2582
  452MOL0     C60908   5.730   4.825   6.432  0.2940  1.2492 -0.8187
  452MOL0     O60909   5.787   4.723   6.358 -0.0792 -0.1115 -0.6099
  452MOL0     C60910   5.895   4.771   6.287 -0.6662 -0.4097  1.1102
  452MOL0     C60911   5.999   4.675   6.263  0.2840  0.7394  0.1478
  452MOL0     C60912   6.113   4.704   6.188 -0.1280  0.3016  0.3243
  452MOL0     C60913   6.216   4.598   6.179  0.4607  0.7635 -0.4168
  452MOL0     C60914   6.130   4.840   6.146  0.5031  0.8529  0.3231
  452MOL0     C60915   6.253   4.888   6.068 -0.1280 -0.0474  0.0689
  452MOL0     O60916   6.276   5.013   6.081  0.4749 -0.2389 -0.5243
  452MOL0     C60917   6.374   5.081   6.012 -0.3255 -0.7804  0.7558
  452MOL0     C60918   6.458   5.181   6.071  0.0012 -0.4939 -0.9139
  452MOL0     C60919   6.569   5.239   6.008 -1.6144 -0.2070  0.8943
  452MOL0     C60920   6.594   5.212   5.873 -0.0098  0.2151  0.8485
  452MOL0     O60921   6.692   5.283   5.799  0.5520 -0.8329  0.3754
  452MOL0     C60922   6.812   5.212   5.766  0.4051 -0.6805 -0.1523
  452MOL0     C60923   6.863   5.248   5.627 -0.5910  0.0662 -0.1698
  452MOL0     C60924   6.861   5.403   5.621 -0.4515  0.8062 -0.9934
  452MOL0     C60925   6.915   5.470   5.492 -0.2970  0.3021 -0.7032
  452MOL0     C60926   6.839   5.436   5.361 -0.3979 -0.0978  0.6656
  452MOL0     C60927   6.941   5.397   5.249  0.8424  1.0072  0.1166
  452MOL0     C60928   6.873   5.384   5.111 -0.1518 -0.1034  0.1819
  452MOL0     C60929   6.990   5.365   5.015 -0.2608 -0.4381  0.5335
  452MOL0    Cl60930   7.074   5.213   5.026 -0.0079  0.2681 -0.6562
  452MOL0     C60931   6.514   5.111   5.810  0.0382  0.2081  0.3990
  452MOL0     C60932   6.407   5.057   5.871 -0.8438  0.3528 -0.0275
  452MOL0     O60933   6.315   4.809   5.992  0.0573 -0.9793 -0.2321
  452MOL0     C60934   6.026   4.931   6.166  0.4720  0.5280  0.2962
  452MOL0     C60935   5.907   4.898   6.235 -0.4405  0.2672  0.4724
  452MOL0     N60936   5.442   5.035   6.353  0.8896  0.8091  0.4856
  452MOL0     N60937   5.469   5.085   6.237  0.5007  0.3076 -0.1629
  452MOL0     C60938   6.262   5.599   5.620  0.2554  0.3311  0.1926
  452MOL0     C60939   6.355   5.680   5.563  0.6088  0.9816  0.4914
  452MOL0     C60940   6.712   5.802   5.318  0.4678 -0.1521 -1.1725
  452MOL0     C60941   6.807   5.830   5.415 -0.0370  0.1207 -0.3146
  452MOL0     C60942   6.937   5.869   5.377  0.0571  0.8033 -0.6743
  452MOL0     C60943   6.960   5.895   5.240 -0.7287  0.2483  0.3813
  452MOL0     O60944   7.072   5.936   5.178 -0.4451  0.1664 -0.0056
  452MOL0     C60945   7.194   5.870   5.217 -0.8926 -0.3223 -0.3257
  452MOL0     C60946   7.209   5.728   5.171  0.6829 -0.9839  0.0439
  452MOL0     C60947   7.222   5.724   5.014  0.1757 -0.0836 -0.3125
  452MOL0     C60948   7.350   5.798   4.960  0.1332 -0.7780 -0.0696
  452MOL0     C60949   7.480   5.745   4.999 -0.1534 -0.4506 -1.0568
  452MOL0     C60950   7.582   5.691   5.040 -0.0630 -0.1739  0.6296
  452MOL0     C60951   6.860   5.872   5.151  0.3559  0.5108 -0.2003
  452MOL0     C60952   6.740   5.820   5.183  0.1775 -0.9168 -0.5046
  452MOL0     H60953   6.593   5.439   5.498  0.7805  1.0574  1.0363
  452MOL0     H60954   6.413   5.300   5.588 -1.0326  0.8347  2.0126
  452MOL0     H60955   6.261   5.224   5.755 -2.3828  0.0864 -0.5144
  452MOL0     H60956   6.304   5.358   5.860  1.0159 -0.1177  0.1521
  452MOL0     H60957   6.121   5.249   5.995  1.0678 -1.8989 -0.1448
  452MOL0     H60958   6.060   5.399   5.924 -1.4846 -0.7756  0.5858
  452MOL0     H60959   5.980   5.246   5.739  1.5307  1.8461  0.4345
  452MOL0     H60960   6.018   5.112   5.846 -1.2961  0.4782  0.6277
  452MOL0     H60961   5.886   5.188   6.039  3.5078  1.4212 -0.3218
  452MOL0     H60962   5.819   5.321   5.938  0.6864  0.6836 -0.5801
  452MOL0     H60963   5.729   5.150   5.784 -0.5992 -0.7053  0.0904
  452MOL0     H60964   5.796   5.027   5.876 -0.7067 -0.9372 -1.3007
  452MOL0     H60965   5.668   5.106   6.075 -0.8319  0.0104  0.5990
  452MOL0     H60966   5.567   5.217   5.974 -1.0197 -0.4466  2.7456
  452MOL0     H60967   5.526   5.029   5.818  2.1289 -2.2384 -1.5069
  452MOL0     H60968   5.607   4.915   5.921 -0.4598 -0.3737 -2.0484
  452MOL0     H60969   5.364   4.915   5.969  1.9544 -2.7209  1.3709
  452MOL0     H60970   5.369   5.090   5.987  2.4324  0.7589 -1.4509
  452MOL0     H60971   5.424   4.758   6.174  1.0964  1.7344 -3.7795
  452MOL0     H60972   5.379   4.853   6.550  0.8648  3.0649 -2.3289
  452MOL0     H60973   5.307   4.729   6.437  1.0243 -3.1544  2.9221
  452MOL0     H60974   5.525   4.616   6.407  1.6576 -0.1087 -0.6728
  452MOL0     H60975   5.465   4.645   6.569 -0.2855  3.2480  2.3635
  452MOL0     H60976   5.701   4.681   6.576  0.9504  0.3598 -1.9427
  452MOL0     H60977   5.623   4.840   6.607  2.9716  1.6348 -0.2056
  452MOL0     H60978   5.809   4.884   6.480  0.3355  0.9925 -0.5687
  452MOL0     H60979   5.674   4.893   6.367  1.5028  2.5149 -0.5931
  452MOL0     H60980   5.986   4.580   6.315 -1.5548  1.1284  0.4830
  452MOL0     H60981   6.245   4.572   6.077  1.5097 -2.7966  0.6485
  452MOL0     H60982   6.309   4.620   6.232  0.0172  1.7420 -0.0184
  452MOL0     H60983   6.177   4.504   6.219  1.4439  1.4532  2.4143
  452MOL0     H60984   6.431   5.203   6.174 -1.6241 -0.7696 -1.2557
  452MOL0     H60985   6.622   5.320   6.057  1.4144 -1.5703  0.1233
  452MOL0     H60986   6.892   5.250   5.831 -0.8276  1.9516 -0.0350
  452MOL0     H60987   6.807   5.104   5.780  1.3912 -0.4702  2.4271
  452MOL0     H60988   6.968   5.231   5.600 -0.9965 -2.7190 -0.2955
  452MOL0     H60989   6.796   5.196   5.558 -1.6469  3.4672 -1.9145
  452MOL0     H60990   6.920   5.434   5.708 -1.7766 -1.2168  0.7070
  452MOL0     H60991   6.764   5.451   5.633 -0.8028 -0.2129  0.3702
  452MOL0     H60992   6.902   5.573   5.525 -3.1889 -0.9056  2.5426
  452MOL0     H60993   7.024   5.457   5.485 -0.3762 -2.2239  1.2609
  452MOL0     H60994   6.776   5.518   5.327 -0.3618 -0.2015  0.3381
  452MOL0     H60995   6.777   5.349   5.386  3.3375 -3.9353 -2.0005
  452MOL0     H60996   7.008   5.483   5.240  2.0064  0.1136 -0.0347
  452MOL0     H60997   6.991   5.304   5.276 -0.3268  0.7242  1.4227
  452MOL0     H60998   6.809   5.468   5.083 -2.7536 -2.0073  0.0789
  452MOL0     H60999   6.807   5.297   5.116 -0.1956 -0.0154  1.3822
  452MOL0     H61000   7.066   5.444   5.022  1.2682 -1.3912 -2.8741
  452MOL0     H61001   6.951   5.372   4.913  0.4869 -1.1590  0.1897
  452MOL0     H61002   6.545   5.103   5.707  2.1526 -1.2692  1.0742
  452MOL0     H61003   6.347   4.989   5.812  0.6316 -0.6640 -0.4204
  452MOL0     H61004   6.039   5.032   6.129 -0.1908  1.6806  3.0175
  452MOL0     H61005   5.828   4.972   6.241  0.6467  1.7667 -2.0606
  452MOL0     H61006   6.169   5.649   5.648 -0.0896 -1.1588  1.8808
  452MOL0     H61007   6.340   5.787   5.556  0.2107  0.8669 -4.4962
  452MOL0     H61008   6.802   5.803   5.520  3.2105  0.2860 -0.0159
  452MOL0     H61009   7.019   5.890   5.444  2.2484  2.8092 -3.7191
  452MOL0     H61010   7.274   5.930   5.174 -2.3862  1.7936 -0.3213
  452MOL0     H61011   7.204   5.859   5.325 -3.8689 -0.5003  0.0240
  452MOL0     H61012   7.118   5.679   5.206 -1.0230  1.5268 -0.6440
  452MOL0     H61013   7.298   5.681   5.214 -0.6221 -2.7538  0.9249
  452MOL0     H61014   7.128   5.762   4.971 -1.0266 -1.6732  0.7964
  452MOL0     H61015   7.227   5.623   4.972  1.0180  0.2205 -0.9627
  452MOL0     H61016   7.339   5.902   4.992 -1.2181 -1.0245  0.3513
  452MOL0     H61017   7.355   5.802   4.851 -1.1631  2.3696 -0.1335
  452MOL0     H61018   7.674   5.645   5.069  0.9879  1.0766 -0.6037
  452MOL0     H61019   6.880   5.892   5.046  5.4493  1.0150  0.5739
  452MOL0     H61020   6.674   5.806   5.098  1.1516 -1.0455 -1.2602
  453MOL0     O61021   9.233   7.164   3.815 -0.6392  0.1862 -0.7138
  453MOL0     C61022   9.264   7.059   3.871  0.0512 -0.9222 -1.4361
  453MOL0     O61023   9.185   6.950   3.876  0.1389 -0.4805 -0.1809
  453MOL0     C61024   9.053   6.959   3.831  0.4840  0.1499 -1.2566
  453MOL0     C61025   9.010   6.878   3.727  0.5381  0.0992 -0.7382
  453MOL0     C61026   8.877   6.875   3.693  1.3212 -0.3541  1.0132
  453MOL0     C61027   8.779   6.969   3.747  0.3973 -1.0216  0.3321
  453MOL0     O61028   8.643   6.945   3.720  0.3993 -0.8642 -0.1085
  453MOL0     C61029   8.556   7.059   3.718 -0.0753  0.4478 -0.3707
  453MOL0     C61030   8.435   7.034   3.623  0.4301 -0.1694 -0.4749
  453MOL0     C61031   8.337   6.942   3.701 -0.1048  0.0086  0.1118
  453MOL0     C61032   8.215   6.907   3.611 -0.0209  0.2153 -0.4407
  453MOL0     C61033   8.124   6.810   3.678  0.4202 -0.0341 -0.5802
  453MOL0     C61034   7.995   6.752   3.594 -0.5459 -0.7236 -0.3534
  453MOL0     C61035   8.042   6.672   3.482  0.3532 -0.8999 -0.6382
  453MOL0     C61036   7.934   6.593   3.393  0.0455 -0.6175  0.4017
  453MOL0     N61037   7.823   6.679   3.375  0.1369  0.3743  0.7811
  453MOL0     C61038   7.830   6.794   3.292  0.4286  0.0832  0.6990
  453MOL0     C61039   7.708   6.854   3.304  0.4169  0.4660  0.2664
  453MOL0     C61040   7.671   6.980   3.236  0.9020 -0.1478  0.4328
  453MOL0     C61041   7.565   7.049   3.320 -0.9906  0.0086 -0.1251
  453MOL0     C61042   7.513   7.169   3.260 -0.2699  0.2340  0.3856
  453MOL0     C61043   7.425   7.254   3.353 -0.1165  1.2979  0.1302
  453MOL0     O61044   7.306   7.178   3.342 -0.5455 -0.7748  0.6764
  453MOL0     C61045   7.225   7.204   3.234 -0.1483  0.0491  0.8590
  453MOL0     C61046   7.233   7.319   3.151  0.2673  0.5535 -0.1729
  453MOL0     C61047   7.161   7.323   3.035 -0.0408  0.2821  0.2797
  453MOL0     C61048   7.203   7.446   2.937  0.0411 -0.3517 -0.6251
  453MOL0     C61049   7.069   7.220   3.000  0.2433  0.3108  0.0972
  453MOL0     C61050   7.010   7.210   2.863 -0.4657  0.2839  0.4699
  453MOL0     O61051   6.968   7.330   2.806 -0.7284  0.5556  0.3438
  453MOL0     C61052   6.942   7.339   2.672  0.2414  0.7281  0.1484
  453MOL0     C61053   6.848   7.269   2.608  0.4849 -0.2215 -0.7274
  453MOL0     C61054   6.814   7.279   2.469  0.6664 -0.5306  0.3556
  453MOL0     C61055   6.887   7.365   2.395  0.4362  0.0492  0.5291
  453MOL0     O61056   6.857   7.379   2.257  0.3737  0.3660  0.3635
  453MOL0     C61057   6.839   7.516   2.214 -0.8932 -0.4235 -0.2835
  453MOL0     C61058   6.721   7.596   2.266 -0.0403  0.3658 -0.3130
  453MOL0     C61059   6.598   7.548   2.206  0.9315  0.4949  0.3684
  453MOL0     C61060   6.473   7.618   2.266  0.0481 -0.0209  0.5981
  453MOL0     C61061   6.348   7.570   2.200 -0.4347  0.7597 -0.0746
  453MOL0     C61062   6.231   7.664   2.237 -0.6964  0.4481 -0.7536
  453MOL0     C61063   6.110   7.609   2.154  0.1970 -0.2473 -0.2127
  453MOL0     C61064   5.990   7.704   2.143 -0.2542  0.0755 -0.9803
  453MOL0    Cl61065   5.921   7.741   2.303  0.1767 -0.5695  0.6642
  453MOL0     C61066   6.984   7.444   2.455 -0.0730 -0.0159 -0.5676
  453MOL0     C61067   7.011   7.438   2.596  0.1011 -0.5051 -0.0598
  453MOL0     O61068   7.000   7.097   2.811 -0.2809 -0.4865 -0.8446
  453MOL0     C61069   7.059   7.116   3.091  0.3015 -0.3415  0.4847
  453MOL0     C61070   7.128   7.106   3.212  0.2942 -0.8317 -0.2877
  453MOL0     N61071   7.625   6.777   3.384  0.0880  0.2089 -0.9401
  453MOL0     N61072   7.696   6.670   3.425  0.1873  0.1230  0.0748
  453MOL0     C61073   8.824   7.050   3.855 -0.8196  0.1521 -0.3025
  453MOL0     C61074   8.959   7.042   3.890 -0.4152  0.6443  0.4800
  453MOL0     C61075   9.396   7.052   3.936 -0.6591  0.1348  0.0594
  453MOL0     C61076   9.439   6.941   4.006  0.4660  0.3753 -0.6242
  453MOL0     C61077   9.569   6.926   4.058 -0.5212 -0.4606  0.9378
  453MOL0     C61078   9.660   7.031   4.032 -0.1490  0.3928 -0.6979
  453MOL0     O61079   9.787   7.022   4.088 -0.0909  0.3032  0.2104
  453MOL0     C61080   9.827   7.122   4.184  0.1045  1.3511 -0.2860
  453MOL0     C61081   9.959   7.080   4.258  0.1955 -0.0503  1.2662
  453MOL0     C61082   9.945   6.939   4.318 -0.2227 -0.0079 -0.8583
  453MOL0     C61083   9.969   6.830   4.215 -0.5348 -0.5787 -0.1694
  453MOL0     C61084  10.111   6.816   4.163 -0.1108  1.0163  0.3950
  453MOL0     C61085  10.227   6.809   4.119  0.0497  0.6745 -0.2574
  453MOL0     C61086   9.631   7.139   3.949 -0.3072 -0.3440  0.0426
  453MOL0     C61087   9.499   7.150   3.908  0.4089  0.2092  0.8445
  453MOL0     H61088   9.080   6.818   3.669  1.0789  0.5935 -0.6064
  453MOL0     H61089   8.829   6.820   3.613  0.8084 -0.1393  1.1754
  453MOL0     H61090   8.529   7.074   3.823  1.9731 -3.6231  0.9575
  453MOL0     H61091   8.615   7.145   3.685  2.3967 -0.4118  1.5193
  453MOL0     H61092   8.389   7.128   3.589  1.5496  0.0675 -1.3680
  453MOL0     H61093   8.467   6.973   3.539  3.8125 -2.3199  2.1105
  453MOL0     H61094   8.376   6.847   3.741 -1.7158 -1.6117 -1.9130
  453MOL0     H61095   8.298   6.990   3.791 -2.8732  0.4986 -1.2591
  453MOL0     H61096   8.166   7.004   3.596 -0.7767 -0.3739 -2.0980
  453MOL0     H61097   8.253   6.871   3.515 -0.5647 -1.2795 -0.1185
  453MOL0     H61098   8.186   6.729   3.719  1.8221  0.8102 -1.0002
  453MOL0     H61099   8.092   6.863   3.769  3.3872  0.1682  0.4637
  453MOL0     H61100   7.931   6.693   3.661  2.1759 -2.1996  1.1689
  453MOL0     H61101   7.941   6.837   3.552  0.7490 -0.2929 -1.2068
  453MOL0     H61102   8.096   6.740   3.414 -3.1117  2.3594 -0.4504
  453MOL0     H61103   8.113   6.597   3.516  1.7879  0.5687 -0.2475
  453MOL0     H61104   7.908   6.509   3.459  2.8599 -1.0363  1.1187
  453MOL0     H61105   7.985   6.570   3.299 -2.9324  4.1328 -2.8249
  453MOL0     H61106   7.910   6.836   3.233  1.0160 -1.9383 -0.0501
  453MOL0     H61107   7.762   7.040   3.226  0.2701  0.9081  0.8008
  453MOL0     H61108   7.628   6.969   3.136 -0.0199 -1.0770  0.9068
  453MOL0     H61109   7.603   7.067   3.421  2.4742 -3.9749 -0.4471
  453MOL0     H61110   7.481   6.980   3.339 -2.3310  1.5941 -0.0906
  453MOL0     H61111   7.470   7.167   3.159 -1.2210  1.0486  0.7595
  453MOL0     H61112   7.594   7.241   3.250 -1.4588  1.6522  0.5986
  453MOL0     H61113   7.429   7.358   3.320 -1.0829  1.3010 -0.0090
  453MOL0     H61114   7.474   7.247   3.450  1.4829  1.4934 -0.6314
  453MOL0     H61115   7.287   7.406   3.187 -0.4542  0.0427  2.3998
  453MOL0     H61116   7.191   7.426   2.830  0.3189 -0.3977 -0.6486
  453MOL0     H61117   7.140   7.534   2.953 -2.4795 -2.2049  0.1588
  453MOL0     H61118   7.306   7.477   2.956 -0.0796  0.2272 -0.8844
  453MOL0     H61119   6.800   7.199   2.676  3.8321 -2.4068 -0.3411
  453MOL0     H61120   6.737   7.215   2.427 -0.1354  0.8812 -0.3621
  453MOL0     H61121   6.930   7.569   2.242 -1.7425 -0.5417  3.2691
  453MOL0     H61122   6.831   7.509   2.105 -2.8597  1.7485 -0.3747
  453MOL0     H61123   6.728   7.582   2.374 -0.0172  0.2654 -0.3273
  453MOL0     H61124   6.746   7.701   2.250  1.6838  0.0556  0.1979
  453MOL0     H61125   6.574   7.446   2.241  3.3588 -0.1083  0.4054
  453MOL0     H61126   6.612   7.547   2.098  2.2705 -1.8169  0.4951
  453MOL0     H61127   6.460   7.589   2.371 -2.7608  1.0418  0.6263
  453MOL0     H61128   6.489   7.726   2.267 -1.1575  0.1738  0.2909
  453MOL0     H61129   6.340   7.464   2.225 -2.8497  0.5609 -1.4006
  453MOL0     H61130   6.362   7.570   2.091 -1.1677  3.0691 -0.2419
  453MOL0     H61131   6.217   7.669   2.346  2.0338 -1.1698 -0.2279
  453MOL0     H61132   6.256   7.764   2.200 -1.5541  0.7419 -0.5567
  453MOL0     H61133   6.083   7.506   2.179 -0.5178 -0.5898 -2.2240
  453MOL0     H61134   6.147   7.603   2.052  1.6068 -1.6636  0.3350
  453MOL0     H61135   5.913   7.651   2.086  0.4851  0.3207 -2.2332
  453MOL0     H61136   6.022   7.795   2.093  0.1065  0.4208 -0.1455
  453MOL0     H61137   7.056   7.504   2.400  1.0373 -1.9505 -1.3000
  453MOL0     H61138   7.078   7.506   2.647 -2.3499  1.0765  1.3072
  453MOL0     H61139   6.986   7.037   3.077 -0.4470  0.5739 -1.0712
  453MOL0     H61140   7.104   7.027   3.282  1.2449 -1.0311 -0.1768
  453MOL0     H61141   8.759   7.100   3.925  0.2259 -2.1002  2.5127
  453MOL0     H61142   8.989   7.105   3.973  0.4007 -1.6107  2.0025
  453MOL0     H61143   9.369   6.858   4.016 -0.8418  1.4250 -0.6833
  453MOL0     H61144   9.598   6.835   4.110  0.8419 -0.3475  0.4293
  453MOL0     H61145   9.842   7.214   4.126  1.5546  1.3208  0.0001
  453MOL0     H61146   9.748   7.136   4.259 -0.0053 -2.1110  0.4007
  453MOL0     H61147   9.996   7.157   4.326  3.1726  1.7900 -2.1330
  453MOL0     H61148  10.035   7.078   4.180 -0.8062 -2.1705  0.2410
  453MOL0     H61149   9.848   6.922   4.365  0.3116 -0.1124  0.2330
  453MOL0     H61150  10.021   6.916   4.393 -0.9928 -0.6564 -0.2700
  453MOL0     H61151   9.899   6.834   4.131  1.0574  2.4398 -1.5150
  453MOL0     H61152   9.951   6.739   4.272 -0.8651  0.3099  1.1905
  453MOL0     H61153  10.324   6.825   4.075 -1.1139  2.2666 -2.3924
  453MOL0     H61154   9.699   7.220   3.927 -2.4806  1.4617 -0.2903
  453MOL0     H61155   9.484   7.237   3.845  0.8833  0.6818  1.3693
  454MOL0     O61156   8.605   7.343   3.854  0.4969 -0.1440  0.8140
  454MOL0     C61157   8.542   7.402   3.940  0.0413 -0.1580 -0.4021
  454MOL0     O61158   8.554   7.382   4.074 -0.4149 -0.2440  0.1612
  454MOL0     C61159   8.649   7.298   4.118  0.4558 -0.4419 -0.4258
  454MOL0     C61160   8.604   7.172   4.126 -0.2189  0.3062 -0.2702
  454MOL0     C61161   8.681   7.065   4.175 -0.2337  0.8505  0.7514
  454MOL0     C61162   8.815   7.080   4.211 -0.3094  1.0240 -0.0985
  454MOL0     O61163   8.894   6.963   4.230 -0.5690  0.2620  1.1298
  454MOL0     C61164   9.037   6.973   4.228 -0.5177 -0.3802  0.4883
  454MOL0     C61165   9.105   6.864   4.315 -0.3857  0.8980  0.1290
  454MOL0     C61166   9.061   6.720   4.288  0.3980  0.6076  0.0223
  454MOL0     C61167   9.101   6.669   4.146 -0.4050  0.5438 -0.1559
  454MOL0     C61168   9.042   6.539   4.119  0.4497 -0.8764  0.6841
  454MOL0     C61169   9.086   6.440   4.224 -0.3661 -0.2982 -0.2253
  454MOL0     C61170   9.041   6.295   4.179 -0.3877  0.5752 -0.3626
  454MOL0     C61171   9.108   6.197   4.282  0.1136 -0.7013 -0.0336
  454MOL0     N61172   9.088   6.051   4.247  0.2256 -0.6580 -0.5920
  454MOL0     C61173   9.039   5.959   4.331 -0.5850  0.6003 -0.6606
  454MOL0     C61174   9.030   5.846   4.244  0.4909 -0.5321 -0.5923
  454MOL0     C61175   8.982   5.709   4.270  0.4349  0.0982 -0.5991
  454MOL0     C61176   8.833   5.703   4.303 -0.3132 -0.2769 -0.0445
  454MOL0     C61177   8.743   5.741   4.189 -0.8725 -0.3789  0.3790
  454MOL0     C61178   8.604   5.752   4.241 -0.1037  0.1126 -0.4234
  454MOL0     O61179   8.554   5.613   4.260 -0.1938 -0.3256  0.6996
  454MOL0     C61180   8.453   5.610   4.352 -0.5123 -0.6597  0.8236
  454MOL0     C61181   8.325   5.657   4.328 -0.0881  1.0597  0.2952
  454MOL0     C61182   8.209   5.652   4.412 -1.4428 -0.1132  0.5418
  454MOL0     C61183   8.076   5.698   4.364 -0.0549 -0.7219  0.1749
  454MOL0     C61184   8.229   5.585   4.536 -0.1365 -0.8037 -0.3387
  454MOL0     C61185   8.124   5.573   4.636 -0.7993  0.1475  0.3059
  454MOL0     O61186   8.123   5.462   4.715  0.2241  0.5846 -0.1098
  454MOL0     C61187   8.010   5.438   4.788 -0.3661 -0.2819 -0.1895
  454MOL0     C61188   7.979   5.498   4.914 -0.7777  0.2890 -0.8041
  454MOL0     C61189   7.873   5.448   4.985 -0.5816  0.4008 -0.6469
  454MOL0     C61190   7.799   5.339   4.939  0.9436 -0.4781  0.0007
  454MOL0     O61191   7.689   5.283   5.004  0.1802  0.3170  0.0576
  454MOL0     C61192   7.680   5.311   5.148 -0.1349 -0.2953  0.2622
  454MOL0     C61193   7.554   5.241   5.208 -0.5920 -0.2244  0.1948
  454MOL0     C61194   7.430   5.310   5.166 -0.5672 -0.4910  0.6248
  454MOL0     C61195   7.347   5.334   5.281  0.2121 -0.5817  0.5196
  454MOL0     C61196   7.415   5.449   5.363  0.1953  0.6210  0.1709
  454MOL0     C61197   7.334   5.498   5.474  0.1603 -0.0582 -1.1454
  454MOL0     C61198   7.287   5.395   5.575 -0.8917  0.2763  0.3928
  454MOL0     C61199   7.250   5.448   5.718  0.0418 -0.5912 -1.0148
  454MOL0    Cl61200   7.164   5.317   5.807 -0.1718  0.0781  0.0748
  454MOL0     C61201   7.818   5.295   4.813 -1.1283 -0.0802 -0.1015
  454MOL0     C61202   7.926   5.332   4.741 -0.4356  0.5577  0.0332
  454MOL0     O61203   8.052   5.674   4.649  0.2342 -1.3609  0.0293
  454MOL0     C61204   8.356   5.519   4.559 -0.2592 -0.2321 -0.6800
  454MOL0     C61205   8.470   5.535   4.471  0.1310 -0.3556  0.0913
  454MOL0     N61206   9.040   5.886   4.114  0.4725 -0.2450 -0.0794
  454MOL0     N61207   9.087   6.005   4.116 -0.3782 -0.2635 -0.5705
  454MOL0     C61208   8.859   7.217   4.203 -0.7205  0.4173  0.6063
  454MOL0     C61209   8.778   7.324   4.163 -0.1503 -0.2139  0.5635
  454MOL0     C61210   8.424   7.495   3.914  0.2962 -0.2109  0.0515
  454MOL0     C61211   8.367   7.577   4.017  0.4852 -0.3815  0.4562
  454MOL0     C61212   8.249   7.652   3.985 -0.6106  0.1980  0.7995
  454MOL0     C61213   8.199   7.646   3.853  0.2327 -1.0895 -0.3428
  454MOL0     O61214   8.084   7.730   3.833 -0.0605  0.0726 -0.1469
  454MOL0     C61215   7.973   7.660   3.764 -0.7413 -0.8701  0.0228
  454MOL0     C61216   7.920   7.549   3.848 -0.0530  0.2378 -1.3512
  454MOL0     C61217   7.830   7.458   3.760 -0.3112  0.1847 -0.0555
  454MOL0     C61218   7.777   7.329   3.827 -0.0596  0.4737  0.3437
  454MOL0     C61219   7.677   7.355   3.927  0.0932  0.1333 -0.8996
  454MOL0     C61220   7.585   7.380   3.996  0.7808 -0.0707  0.0872
  454MOL0     C61221   8.261   7.566   3.749 -0.4964  0.7815 -0.8455
  454MOL0     C61222   8.371   7.492   3.790  0.2531 -0.5379  0.3640
  454MOL0     H61223   8.502   7.152   4.095 -0.3495 -2.5652  1.6148
  454MOL0     H61224   8.642   6.964   4.185 -0.7396  1.0729  1.0593
  454MOL0     H61225   9.075   6.965   4.126  0.6893  1.3560  0.7491
  454MOL0     H61226   9.073   7.066   4.273 -1.4572  0.3751 -0.2898
  454MOL0     H61227   9.212   6.860   4.292 -0.9723 -0.9369 -2.6912
  454MOL0     H61228   9.102   6.896   4.420  0.4061  2.7433 -0.3650
  454MOL0     H61229   9.114   6.665   4.366 -2.7247  0.4461  2.2277
  454MOL0     H61230   8.953   6.710   4.303  0.9057 -0.4292  4.1687
  454MOL0     H61231   9.042   6.738   4.085 -0.5093 -0.7316 -1.5352
  454MOL0     H61232   9.209   6.683   4.137 -0.5515  1.6068 -0.4651
  454MOL0     H61233   8.935   6.558   4.110  0.2862 -1.6817  0.8982
  454MOL0     H61234   9.088   6.508   4.024  1.0699  0.3336  0.5693
  454MOL0     H61235   9.195   6.446   4.234 -0.2175 -2.4908 -0.0851
  454MOL0     H61236   9.046   6.466   4.323 -0.6628 -1.7368  0.0565
  454MOL0     H61237   8.932   6.287   4.181 -0.5097  1.9279  2.2064
  454MOL0     H61238   9.079   6.272   4.078  0.2522 -2.6847  0.5004
  454MOL0     H61239   9.062   6.208   4.380  0.6377  4.8009 -0.1220
  454MOL0     H61240   9.213   6.230   4.283 -0.9168  2.9371 -0.2732
  454MOL0     H61241   9.032   5.954   4.439 -0.6477 -0.9953 -0.7079
  454MOL0     H61242   9.001   5.635   4.192 -2.7213  0.1777 -1.5868
  454MOL0     H61243   9.048   5.680   4.352  1.6299 -1.0774 -1.9333
  454MOL0     H61244   8.814   5.774   4.384 -0.4014 -1.6799  1.2162
  454MOL0     H61245   8.811   5.599   4.330 -1.3785 -0.3079 -0.9522
  454MOL0     H61246   8.747   5.672   4.104  0.6131  0.1230  0.0138
  454MOL0     H61247   8.771   5.842   4.159 -0.5228 -0.7572 -0.6050
  454MOL0     H61248   8.547   5.816   4.173 -1.0516 -0.8222 -0.5311
  454MOL0     H61249   8.598   5.800   4.339 -0.8024  0.4605 -0.6303
  454MOL0     H61250   8.307   5.711   4.235 -1.7003  0.1183  0.0202
  454MOL0     H61251   8.069   5.684   4.256  1.8796 -0.8060  0.0154
  454MOL0     H61252   7.992   5.642   4.406 -1.3812 -0.5528 -2.1283
  454MOL0     H61253   8.061   5.805   4.383 -0.8212 -0.6609 -0.7265
  454MOL0     H61254   8.049   5.575   4.946  0.6458 -0.6529 -1.5308
  454MOL0     H61255   7.841   5.500   5.076 -2.0967  0.0776 -0.9648
  454MOL0     H61256   7.774   5.264   5.180 -0.8485 -2.2691 -0.4080
  454MOL0     H61257   7.680   5.418   5.170 -1.7345 -0.2585  0.2140
  454MOL0     H61258   7.563   5.136   5.179  1.6691  0.2818 -1.1598
  454MOL0     H61259   7.553   5.236   5.318 -3.2484  0.7942  0.2913
  454MOL0     H61260   7.374   5.243   5.101  1.1102 -1.4050  0.0423
  454MOL0     H61261   7.457   5.405   5.119  0.3069 -1.4388 -0.8638
  454MOL0     H61262   7.245   5.347   5.242  0.9243 -1.5289 -1.8545
  454MOL0     H61263   7.335   5.244   5.341  0.7397  0.0057  1.5160
  454MOL0     H61264   7.440   5.535   5.300  1.4479  0.8842  0.9907
  454MOL0     H61265   7.510   5.412   5.402  1.4731  2.8631 -0.6572
  454MOL0     H61266   7.383   5.580   5.528  0.4786  1.0696 -3.0441
  454MOL0     H61267   7.238   5.536   5.437  0.5696  0.8410 -1.3103
  454MOL0     H61268   7.368   5.322   5.576 -1.6205 -0.9195 -4.4705
  454MOL0     H61269   7.211   5.327   5.535  0.3989 -1.5705  0.9342
  454MOL0     H61270   7.189   5.538   5.707 -0.7418 -0.7575  1.4178
  454MOL0     H61271   7.337   5.478   5.778  0.4474 -2.1473 -0.7805
  454MOL0     H61272   7.746   5.228   4.766  1.4364 -1.1688 -2.7837
  454MOL0     H61273   7.947   5.277   4.650  0.2850 -2.9165  2.0982
  454MOL0     H61274   8.377   5.473   4.655 -1.3891  0.7454  0.0597
  454MOL0     H61275   8.568   5.492   4.490  0.4747  0.5719  0.5091
  454MOL0     H61276   8.963   7.241   4.225 -0.2910 -1.6529  0.9772
  454MOL0     H61277   8.818   7.424   4.159  2.0342 -1.0680 -2.4520
  454MOL0     H61278   8.396   7.600   4.119  1.1897  0.8377  0.0038
  454MOL0     H61279   8.218   7.736   4.046 -2.4972  1.5225 -1.7476
  454MOL0     H61280   7.889   7.724   3.735 -1.5018 -0.9981  1.8365
  454MOL0     H61281   8.026   7.628   3.673  1.0413  1.5074  0.1093
  454MOL0     H61282   7.860   7.590   3.930 -0.1584 -2.9530  0.3327
  454MOL0     H61283   7.999   7.487   3.890 -2.7894 -1.0663  2.4811
  454MOL0     H61284   7.879   7.425   3.668  0.5947  0.4246  0.3341
  454MOL0     H61285   7.736   7.508   3.735 -1.4704  0.1552  3.6347
  454MOL0     H61286   7.860   7.281   3.880  0.1887  1.9862  1.4147
  454MOL0     H61287   7.732   7.260   3.756  1.8148 -2.9269  2.2008
  454MOL0     H61288   7.498   7.401   4.055 -0.6443 -1.5613 -1.3710
  454MOL0     H61289   8.236   7.569   3.643  0.8774  1.3699 -1.1742
  454MOL0     H61290   8.417   7.440   3.706 -1.6538 -0.6821 -0.6645
  455MOL0     O61291   3.264   6.532   1.999 -0.0131  0.3479 -0.6196
  455MOL0     C61292   3.243   6.653   2.015 -0.2560  0.0805 -0.0305
  455MOL0     O61293   3.191   6.740   1.920 -0.0146  1.0984  0.7627
  455MOL0     C61294   3.117   6.677   1.823  0.1828 -0.0409  0.4883
  455MOL0     C61295   3.015   6.583   1.842  0.6366 -0.2358  0.5137
  455MOL0     C61296   2.929   6.551   1.735 -0.5924 -0.2672 -0.4081
  455MOL0     C61297   2.947   6.599   1.604 -0.5427  0.5388 -0.6866
  455MOL0     O61298   2.861   6.582   1.499  0.6271 -0.1411 -0.2342
  455MOL0     C61299   2.773   6.475   1.508  0.1672 -0.3002  0.3798
  455MOL0     C61300   2.703   6.449   1.373  0.5664  0.5468  0.6712
  455MOL0     C61301   2.607   6.558   1.353  0.2197 -0.2155  0.9470
  455MOL0     C61302   2.534   6.555   1.227  0.1608  0.5813  0.2131
  455MOL0     C61303   2.425   6.644   1.220 -0.0222  0.2100 -0.0981
  455MOL0     C61304   2.355   6.622   1.084  0.7725 -0.0364 -0.4015
  455MOL0     C61305   2.225   6.706   1.089 -0.4131  0.0928  0.5249
  455MOL0     C61306   2.130   6.652   0.977 -0.5686  0.8066  0.4472
  455MOL0     N61307   2.055   6.765   0.921 -0.8506  0.8290  0.5868
  455MOL0     C61308   2.100   6.854   0.839 -0.1919 -0.6791 -0.3042
  455MOL0     C61309   2.001   6.941   0.803 -0.3386  0.8845  0.8658
  455MOL0     C61310   2.011   7.061   0.719  0.5036 -1.7669 -0.3020
  455MOL0     C61311   2.156   7.104   0.690  0.6193  0.8422 -0.0517
  455MOL0     C61312   2.156   7.196   0.569 -0.4069 -0.1185 -0.4155
  455MOL0     C61313   2.304   7.251   0.556  0.1989  0.1753  0.1650
  455MOL0     O61314   2.404   7.142   0.534  0.0311 -0.0946 -0.0066
  455MOL0     C61315   2.521   7.168   0.585  0.1435 -1.0583 -0.3051
  455MOL0     C61316   2.602   7.274   0.529 -0.0346  0.7335 -1.0743
  455MOL0     C61317   2.732   7.304   0.566 -1.4538 -0.5745  0.6631
  455MOL0     C61318   2.791   7.424   0.486  0.2748 -0.3136  1.3467
  455MOL0     C61319   2.803   7.226   0.665  0.2282 -0.1994  0.0717
  455MOL0     C61320   2.935   7.244   0.714  0.1484  0.1892  0.0305
  455MOL0     O61321   3.005   7.136   0.762 -0.3284 -0.0121 -1.6541
  455MOL0     C61322   3.138   7.169   0.785  0.4219  0.8305 -0.2907
  455MOL0     C61323   3.226   7.253   0.709 -0.9232 -0.5775  0.2687
  455MOL0     C61324   3.366   7.262   0.734 -0.1302 -0.4482 -0.5291
  455MOL0     C61325   3.414   7.188   0.849  0.8194  0.8110 -0.8762
  455MOL0     O61326   3.546   7.164   0.875 -0.9529  0.5671 -0.1155
  455MOL0     C61327   3.647   7.257   0.827  0.3735  0.0090 -0.2057
  455MOL0     C61328   3.781   7.187   0.834  0.1125  0.0591 -0.3923
  455MOL0     C61329   3.802   7.111   0.968  0.9224 -0.6519 -0.4357
  455MOL0     C61330   3.948   7.105   0.996 -0.1941  0.0451  0.7746
  455MOL0     C61331   3.973   7.076   1.146 -0.0288  0.6800  0.5872
  455MOL0     C61332   3.943   6.933   1.198  0.1634  0.1167 -0.1326
  455MOL0     C61333   3.988   6.816   1.123  0.1619  0.2315  0.3424
  455MOL0     C61334   3.991   6.684   1.198  0.8124 -0.6679 -0.7211
  455MOL0    Cl61335   3.817   6.627   1.233 -0.0915  0.5576  0.7668
  455MOL0     C61336   3.324   7.132   0.939  0.1055  0.7130  0.6999
  455MOL0     C61337   3.192   7.125   0.905 -0.6849 -0.3450  0.1107
  455MOL0     O61338   2.971   7.362   0.734 -0.2461  0.3041 -0.5383
  455MOL0     C61339   2.722   7.131   0.726 -0.1030  0.6993 -1.2145
  455MOL0     C61340   2.583   7.101   0.691  0.6306 -0.4327  1.0043
  455MOL0     N61341   1.899   6.894   0.883 -0.1669  0.5330  0.0854
  455MOL0     N61342   1.927   6.789   0.949  0.8161 -0.4460  0.8844
  455MOL0     C61343   3.055   6.688   1.587 -0.0508 -0.5108  0.0811
  455MOL0     C61344   3.139   6.723   1.692 -0.5566 -0.7858  0.1009
  455MOL0     C61345   3.316   6.709   2.128  0.2226 -0.4997  0.7508
  455MOL0     C61346   3.355   6.841   2.139  0.7393 -0.1934 -0.0591
  455MOL0     C61347   3.412   6.885   2.255 -0.5257  0.0657  0.4321
  455MOL0     C61348   3.435   6.800   2.364 -0.4741 -0.8758 -0.7506
  455MOL0     O61349   3.497   6.846   2.477 -0.4981  0.4989 -0.1127
  455MOL0     C61350   3.573   6.750   2.565  0.7419 -0.1617 -0.3135
  455MOL0     C61351   3.626   6.837   2.685  0.2336  0.3326  1.0628
  455MOL0     C61352   3.739   6.932   2.635 -0.7157  0.0242 -0.0550
  455MOL0     C61353   3.870   6.847   2.620  0.7230 -0.6756  0.5871
  455MOL0     C61354   3.936   6.812   2.744 -0.2073  0.6840  0.1329
  455MOL0     C61355   3.987   6.786   2.855  0.0683 -0.9000 -0.1902
  455MOL0     C61356   3.413   6.662   2.348  0.6073  0.4194  0.5627
  455MOL0     C61357   3.356   6.615   2.227 -0.7011 -0.1486 -0.3259
  455MOL0     H61358   3.013   6.538   1.941 -1.3327  2.9760  2.0752
  455MOL0     H61359   2.845   6.486   1.755 -0.0605 -0.4034  1.5996
  455MOL0     H61360   2.823   6.383   1.539 -1.9931 -1.4792  0.5691
  455MOL0     H61361   2.703   6.497   1.588 -0.2218  3.9974 -0.8938
  455MOL0     H61362   2.767   6.432   1.286 -0.5429  2.2803 -0.5325
  455MOL0     H61363   2.650   6.354   1.386  1.6967 -0.3548 -0.9370
  455MOL0     H61364   2.528   6.537   1.426 -3.2103  1.9417 -1.8370
  455MOL0     H61365   2.643   6.659   1.370 -1.7139  0.5076  0.9427
  455MOL0     H61366   2.607   6.590   1.153  2.2672  1.1997  2.4557
  455MOL0     H61367   2.493   6.456   1.208 -1.0759  1.0861  0.2025
  455MOL0     H61368   2.355   6.622   1.301  0.4791  0.4041  0.3894
  455MOL0     H61369   2.462   6.746   1.225  1.0042 -0.2052  1.8062
  455MOL0     H61370   2.426   6.649   1.005  1.6807 -1.2406 -0.0266
  455MOL0     H61371   2.337   6.516   1.066 -1.0713  0.1189  0.3616
  455MOL0     H61372   2.169   6.702   1.183 -0.1490 -3.9518  0.6963
  455MOL0     H61373   2.255   6.810   1.073  2.2237 -0.5160  1.0397
  455MOL0     H61374   2.053   6.588   1.020  1.7351 -0.2323  3.4605
  455MOL0     H61375   2.185   6.609   0.892 -1.2090  2.8376 -1.0680
  455MOL0     H61376   2.204   6.867   0.810 -0.4475  0.0741 -0.9105
  455MOL0     H61377   1.948   7.049   0.631  0.3677 -2.1824 -0.1525
  455MOL0     H61378   1.965   7.140   0.779 -1.0686 -2.2041 -0.8815
  455MOL0     H61379   2.228   7.023   0.681  0.0893 -0.1035  2.9753
  455MOL0     H61380   2.199   7.161   0.773  3.7605 -0.6217 -0.5666
  455MOL0     H61381   2.094   7.282   0.596 -1.7765 -0.3436 -2.6245
  455MOL0     H61382   2.125   7.143   0.480 -1.0758 -0.7460  0.1814
  455MOL0     H61383   2.333   7.303   0.648  3.5968 -4.0671  1.8664
  455MOL0     H61384   2.312   7.316   0.468  0.6458  0.1608  0.1901
  455MOL0     H61385   2.554   7.343   0.460  0.2728  0.9646 -1.0549
  455MOL0     H61386   2.732   7.462   0.402 -0.4856  0.8135  2.3695
  455MOL0     H61387   2.803   7.512   0.550 -0.4215  2.3317 -1.8524
  455MOL0     H61388   2.891   7.392   0.453  1.6458  2.9927  1.8438
  455MOL0     H61389   3.181   7.309   0.628  0.1539  0.2829  0.2447
  455MOL0     H61390   3.427   7.314   0.661 -0.5122 -1.2847 -1.4643
  455MOL0     H61391   3.619   7.284   0.724 -3.0596  0.4264  0.7143
  455MOL0     H61392   3.637   7.351   0.882  4.1732  1.1062 -1.1045
  455MOL0     H61393   3.815   7.126   0.750  2.9694  0.2999  0.4641
  455MOL0     H61394   3.854   7.269   0.824  1.0607 -0.7853 -0.5534
  455MOL0     H61395   3.767   7.008   0.975  1.6276 -0.8449  0.4529
  455MOL0     H61396   3.760   7.177   1.045  2.9835  2.6046 -1.8878
  455MOL0     H61397   4.003   7.046   0.921 -1.0311  2.3729 -1.8618
  455MOL0     H61398   3.975   7.210   0.986  3.9098 -0.8088  1.0132
  455MOL0     H61399   3.911   7.130   1.218 -2.2617 -1.6776  0.6008
  455MOL0     H61400   4.079   7.096   1.164  1.3223 -2.8328 -2.2031
  455MOL0     H61401   4.000   6.932   1.291  0.6532  3.4358 -0.2917
  455MOL0     H61402   3.836   6.922   1.218 -0.0713 -0.3371 -1.5069
  455MOL0     H61403   4.093   6.820   1.095  0.6527 -0.3404  2.0079
  455MOL0     H61404   3.922   6.792   1.039 -1.3781 -0.7552  1.7631
  455MOL0     H61405   4.061   6.694   1.281  1.6623  2.0867 -1.6304
  455MOL0     H61406   4.021   6.606   1.127 -1.1020 -0.8370 -1.3884
  455MOL0     H61407   3.354   7.066   1.020 -1.1296 -0.9171 -0.1234
  455MOL0     H61408   3.121   7.068   0.964 -0.7498  0.7508  1.1285
  455MOL0     H61409   2.764   7.069   0.805  0.8808  2.4612 -0.3045
  455MOL0     H61410   2.518   7.031   0.742 -0.2794  0.0565  0.5373
  455MOL0     H61411   3.075   6.734   1.490  2.2539 -1.9230 -0.1676
  455MOL0     H61412   3.215   6.800   1.688  2.2146 -3.3059  0.8896
  455MOL0     H61413   3.332   6.910   2.058  1.0532  0.3027  0.2685
  455MOL0     H61414   3.452   6.985   2.270  2.2250 -1.0492  1.1900
  455MOL0     H61415   3.505   6.677   2.611  3.5944 -3.1122 -0.4444
  455MOL0     H61416   3.652   6.695   2.514 -1.1559 -2.1999 -1.2388
  455MOL0     H61417   3.660   6.784   2.775 -1.2773 -1.0219  0.8781
  455MOL0     H61418   3.553   6.896   2.741  1.5463  0.3428  2.8631
  455MOL0     H61419   3.752   6.998   2.721 -0.7539 -0.4393  0.3111
  455MOL0     H61420   3.710   6.988   2.545 -2.8230 -0.2415  0.3925
  455MOL0     H61421   3.941   6.910   2.566  0.4032  0.8981  1.9215
  455MOL0     H61422   3.841   6.765   2.554  1.2098  0.2267 -0.8022
  455MOL0     H61423   4.035   6.760   2.947  0.1942 -1.5672 -0.4373
  455MOL0     H61424   3.431   6.596   2.433  2.2494  1.5109  1.1213
  455MOL0     H61425   3.344   6.507   2.227 -0.0750 -0.4154  4.2453
  456MOL0     O61426   4.647   5.033   6.327 -0.4823  0.1762  0.3516
  456MOL0     C61427   4.667   5.025   6.207 -0.4891 -0.1276  0.4793
  456MOL0     O61428   4.768   5.086   6.142 -0.3206  0.2656  0.6916
  456MOL0     C61429   4.864   5.155   6.223  0.2144 -0.3753 -0.1103
  456MOL0     C61430   4.846   5.286   6.272 -0.5433  0.6030 -0.4974
  456MOL0     C61431   4.949   5.357   6.337  0.2359 -0.0592  0.4223
  456MOL0     C61432   5.086   5.318   6.356  1.1389  1.0536 -0.1444
  456MOL0     O61433   5.174   5.398   6.425  0.3508 -0.3395  0.3666
  456MOL0     C61434   5.302   5.341   6.462  0.2241  0.0368  0.7617
  456MOL0     C61435   5.293   5.233   6.573  0.6498 -0.1610  0.2391
  456MOL0     C61436   5.297   5.293   6.712 -0.3899  0.2643 -0.0049
  456MOL0     C61437   5.191   5.400   6.753  0.0032  0.0955 -0.1398
  456MOL0     C61438   5.165   5.417   6.909  1.4640 -0.1192  0.0116
  456MOL0     C61439   5.293   5.418   6.990  0.0827  0.4932 -1.0954
  456MOL0     C61440   5.275   5.436   7.141  1.1690 -0.0294 -0.7268
  456MOL0     C61441   5.210   5.312   7.200  0.6515 -1.0893  0.0850
  456MOL0     N61442   5.059   5.324   7.198 -0.1805  0.4048  0.1237
  456MOL0     C61443   4.980   5.431   7.182  0.2417 -0.4448 -0.7971
  456MOL0     C61444   4.857   5.382   7.158  0.0565 -1.6097  0.3012
  456MOL0     C61445   4.742   5.470   7.123 -0.4400 -0.2466 -0.6945
  456MOL0     C61446   4.764   5.508   6.978  0.1956  0.5357 -0.0306
  456MOL0     C61447   4.641   5.590   6.930  0.0732  0.1279 -1.3145
  456MOL0     C61448   4.628   5.732   6.991  0.7926  0.5549 -0.6722
  456MOL0     O61449   4.749   5.798   7.011 -0.3590 -0.2282 -0.7539
  456MOL0     C61450   4.781   5.848   7.136  0.4770 -0.1826 -0.3090
  456MOL0     C61451   4.912   5.875   7.160 -0.1270  0.2787 -0.1287
  456MOL0     C61452   4.959   5.938   7.280 -0.8315  0.6950 -0.1869
  456MOL0     C61453   5.108   5.970   7.287 -0.1854  0.2753  0.0351
  456MOL0     C61454   4.862   5.973   7.380 -0.0825 -0.3380  0.0959
  456MOL0     C61455   4.907   6.026   7.507  0.0514 -0.5930  0.9879
  456MOL0     O61456   5.006   5.975   7.586  0.5503  0.5050 -0.8664
  456MOL0     C61457   5.047   6.053   7.691  0.1080 -0.0626  0.2201
  456MOL0     C61458   5.159   6.137   7.681 -0.6363  0.2508  0.9568
  456MOL0     C61459   5.197   6.204   7.796 -0.4621 -0.4911 -0.7254
  456MOL0     C61460   5.135   6.180   7.918  0.1232 -0.1493 -0.2982
  456MOL0     O61461   5.174   6.238   8.032 -0.2711 -0.7241 -1.0469
  456MOL0     C61462   5.245   6.157   8.126 -0.0756 -0.8310  0.1115
  456MOL0     C61463   5.378   6.235   8.156  0.3934 -0.0913 -0.0610
  456MOL0     C61464   5.449   6.158   8.270  0.2164  0.1613 -0.0018
  456MOL0     C61465   5.528   6.244   8.367 -0.0928 -0.6870  0.4113
  456MOL0     C61466   5.596   6.157   8.480  0.0887  0.4878 -0.2365
  456MOL0     C61467   5.505   6.122   8.597 -0.7274 -0.1387 -0.1805
  456MOL0     C61468   5.586   6.054   8.705 -0.1789  0.5527  0.4320
  456MOL0     C61469   5.503   6.014   8.822 -0.1437  0.1461  0.0051
  456MOL0    Cl61470   5.567   5.887   8.938  0.1369 -0.4271 -0.1117
  456MOL0     C61471   5.010   6.111   7.929 -1.3075  0.3243  0.0954
  456MOL0     C61472   4.971   6.044   7.812  0.2254  0.5262  0.0603
  456MOL0     O61473   4.832   6.113   7.540  0.5699  0.3859 -0.8651
  456MOL0     C61474   4.728   5.945   7.352  1.0989  0.3108 -0.0668
  456MOL0     C61475   4.691   5.883   7.230  0.3292 -0.4730 -0.5515
  456MOL0     N61476   4.858   5.246   7.167  0.4786 -0.0002 -0.3001
  456MOL0     N61477   4.983   5.208   7.205 -0.1023 -0.2251  0.3049
  456MOL0     C61478   5.107   5.183   6.306 -0.4367  0.5145 -0.5383
  456MOL0     C61479   4.994   5.105   6.244 -0.7232  0.6823 -0.3367
  456MOL0     C61480   4.566   4.948   6.121 -0.5253 -0.8645  0.2218
  456MOL0     C61481   4.431   4.949   6.165  0.4384  0.7152 -0.1496
  456MOL0     C61482   4.342   4.865   6.092  0.4411  0.1559  0.0149
  456MOL0     C61483   4.373   4.790   5.985 -0.1970 -0.6445 -0.1899
  456MOL0     O61484   4.279   4.707   5.930  0.0986 -0.4448  0.4084
  456MOL0     C61485   4.162   4.781   5.884  0.2758  0.2380  0.1782
  456MOL0     C61486   4.173   4.895   5.782 -0.7146 -0.0026 -0.7479
  456MOL0     C61487   4.253   4.869   5.664 -0.7959 -0.0701 -0.6714
  456MOL0     C61488   4.295   4.995   5.583  0.6600  1.2778  0.1538
  456MOL0     C61489   4.192   5.098   5.548  0.4717 -0.0911  0.1467
  456MOL0     C61490   4.121   5.177   5.491  0.4108 -0.4330 -0.8890
  456MOL0     C61491   4.510   4.796   5.942 -0.6248  0.0165 -0.3029
  456MOL0     C61492   4.611   4.872   6.011 -0.0379 -0.3542  0.1518
  456MOL0     H61493   4.757   5.342   6.246  0.0322  1.7403 -0.0488
  456MOL0     H61494   4.924   5.457   6.370  3.4911  0.6493  1.0942
  456MOL0     H61495   5.344   5.297   6.371  0.5088 -0.0142  0.9161
  456MOL0     H61496   5.362   5.424   6.501 -0.4693 -0.0285  2.0224
  456MOL0     H61497   5.199   5.178   6.564  0.9317 -0.7485  0.8505
  456MOL0     H61498   5.373   5.160   6.557  0.6642 -0.6588  2.3090
  456MOL0     H61499   5.299   5.217   6.791  1.1295  1.3629  1.0829
  456MOL0     H61500   5.399   5.332   6.709  0.1158 -0.9461  0.5848
  456MOL0     H61501   5.221   5.501   6.723 -0.1878  0.2212  0.0954
  456MOL0     H61502   5.095   5.376   6.707  0.3030 -0.5320 -0.4515
  456MOL0     H61503   5.115   5.513   6.918  1.6987 -0.1421  1.9300
  456MOL0     H61504   5.090   5.341   6.933 -0.3884  1.2094 -1.3196
  456MOL0     H61505   5.341   5.321   6.976 -0.2472 -0.0464  1.1934
  456MOL0     H61506   5.362   5.499   6.963  0.6887 -0.6762 -3.2259
  456MOL0     H61507   5.368   5.446   7.198 -0.6074  1.4196  2.1674
  456MOL0     H61508   5.220   5.529   7.154 -0.4571 -1.0676  0.2039
  456MOL0     H61509   5.236   5.297   7.305  1.2225 -3.3556 -0.3393
  456MOL0     H61510   5.248   5.223   7.150 -1.2764 -2.1044  0.3467
  456MOL0     H61511   4.999   5.538   7.187  1.1231 -0.4925 -2.4572
  456MOL0     H61512   4.644   5.420   7.131 -1.3544  1.3838 -1.3192
  456MOL0     H61513   4.744   5.558   7.187  0.0245 -1.1944  0.6316
  456MOL0     H61514   4.778   5.420   6.915  1.5096 -0.2550  1.2961
  456MOL0     H61515   4.855   5.569   6.971 -1.0184  3.0097  3.0306
  456MOL0     H61516   4.546   5.536   6.941 -1.7387  2.9193 -2.2081
  456MOL0     H61517   4.660   5.602   6.823  0.8945 -0.3821 -1.2372
  456MOL0     H61518   4.583   5.712   7.089  2.1414  0.9379  0.0571
  456MOL0     H61519   4.559   5.796   6.936 -0.3567  2.5972  2.8252
  456MOL0     H61520   4.986   5.854   7.084 -1.2595 -1.0148 -0.9081
  456MOL0     H61521   5.137   6.007   7.187 -0.5053 -1.1116 -0.5947
  456MOL0     H61522   5.127   6.050   7.359 -2.8670 -1.1946  2.5569
  456MOL0     H61523   5.170   5.883   7.310 -0.7174  0.0381  0.5927
  456MOL0     H61524   5.199   6.157   7.582 -1.6359  0.1493  0.5190
  456MOL0     H61525   5.285   6.267   7.804 -0.4916 -0.1543 -2.5950
  456MOL0     H61526   5.183   6.142   8.215 -5.0751  1.1858 -2.6186
  456MOL0     H61527   5.274   6.060   8.084 -1.2819 -0.3277 -2.0151
  456MOL0     H61528   5.439   6.240   8.066 -1.6306  0.3518 -1.4691
  456MOL0     H61529   5.358   6.337   8.191  3.9318 -0.0681  2.5102
  456MOL0     H61530   5.524   6.104   8.212  0.6559  0.5411  0.2046
  456MOL0     H61531   5.379   6.083   8.311  0.5784 -0.1477  0.0563
  456MOL0     H61532   5.615   6.281   8.313 -0.3048 -1.6079 -0.6161
  456MOL0     H61533   5.465   6.323   8.409 -0.8880 -1.4190  0.6430
  456MOL0     H61534   5.679   6.220   8.514 -0.6046  3.1740 -3.0474
  456MOL0     H61535   5.638   6.070   8.429  2.2894  1.2460  0.1355
  456MOL0     H61536   5.450   6.206   8.640  1.0301  1.3002 -0.6342
  456MOL0     H61537   5.431   6.054   8.553 -1.2794  1.8328 -2.4783
  456MOL0     H61538   5.660   6.125   8.741 -1.8811  2.0927  1.0567
  456MOL0     H61539   5.635   5.974   8.648  0.1216 -0.2974  1.8311
  456MOL0     H61540   5.403   5.980   8.792  0.2193 -2.6632  1.6321
  456MOL0     H61541   5.491   6.106   8.880  0.3202 -0.2685  0.7733
  456MOL0     H61542   4.946   6.096   8.015 -2.0819  0.0543 -0.5240
  456MOL0     H61543   4.884   5.980   7.812  1.0390 -0.6086 -0.7478
  456MOL0     H61544   4.653   5.962   7.428 -0.7914  0.2510 -1.8444
  456MOL0     H61545   4.585   5.867   7.212  0.2799 -0.2951 -0.4140
  456MOL0     H61546   5.207   5.141   6.307 -0.3659  0.7004  0.4131
  456MOL0     H61547   5.001   5.003   6.207 -0.3866  0.7393 -0.4280
  456MOL0     H61548   4.391   5.011   6.245  2.1561  2.5353 -0.6124
  456MOL0     H61549   4.240   4.858   6.128 -1.1710  1.0921 -3.8135
  456MOL0     H61550   4.110   4.705   5.826 -1.6811  1.0260  0.8247
  456MOL0     H61551   4.090   4.796   5.965  2.0750  1.4894  1.6400
  456MOL0     H61552   4.209   4.985   5.833 -2.9396  0.2260  0.5500
  456MOL0     H61553   4.074   4.922   5.744  0.9499  3.0520 -3.4584
  456MOL0     H61554   4.190   4.806   5.601 -1.0581  0.1857 -0.6739
  456MOL0     H61555   4.337   4.800   5.669 -0.4077  0.2753 -1.9679
  456MOL0     H61556   4.333   4.962   5.485  0.3325  0.8000  0.1828
  456MOL0     H61557   4.380   5.044   5.630  1.6105  0.6115 -0.8131
  456MOL0     H61558   4.077   5.266   5.451  1.0734  0.8375  1.0651
  456MOL0     H61559   4.549   4.747   5.854  2.3033  1.9271 -0.2169
  456MOL0     H61560   4.710   4.877   5.969 -0.9623  1.3045 -1.9874
  457MOL0     O61561   6.233   3.462   3.516 -0.8442 -0.1436  0.1904
  457MOL0     C61562   6.158   3.380   3.461  1.4308 -0.2228 -0.8000
  457MOL0     O61563   6.146   3.355   3.328  0.4232  0.2216 -0.3293
  457MOL0     C61564   6.249   3.394   3.251 -0.0354  0.1564 -0.0007
  457MOL0     C61565   6.389   3.355   3.253 -0.5259  0.1471 -0.7666
  457MOL0     C61566   6.491   3.428   3.182 -0.2433 -0.1982  1.2285
  457MOL0     C61567   6.451   3.546   3.112  0.3715  0.3187 -0.1841
  457MOL0     O61568   6.555   3.623   3.055  0.2968 -0.6533  0.7326
  457MOL0     C61569   6.521   3.741   2.975  0.9443 -0.8390 -0.1252
  457MOL0     C61570   6.545   3.880   3.036  0.0713  0.8024 -0.0494
  457MOL0     C61571   6.670   3.879   3.121  0.0488 -0.2885 -0.7423
  457MOL0     C61572   6.723   4.008   3.175 -0.4712  0.0531 -0.7186
  457MOL0     C61573   6.852   3.993   3.257 -0.1429  0.5536  0.3519
  457MOL0     C61574   6.976   3.946   3.167 -0.0328 -0.9148 -0.3295
  457MOL0     C61575   7.106   3.938   3.249 -0.2157  0.3551  0.4456
  457MOL0     C61576   7.165   4.074   3.268  0.0445 -0.9145 -0.1797
  457MOL0     N61577   7.229   4.119   3.145 -0.3440 -0.0482 -0.0500
  457MOL0     C61578   7.175   4.196   3.046 -0.4516 -0.4579  0.1733
  457MOL0     C61579   7.276   4.223   2.960  0.7558 -0.7774  0.9156
  457MOL0     C61580   7.261   4.322   2.847 -0.6522  1.0435  1.4811
  457MOL0     C61581   7.267   4.461   2.896 -0.7357  0.5549 -0.1796
  457MOL0     C61582   7.258   4.558   2.775  0.6794  0.5479  0.5701
  457MOL0     C61583   7.118   4.602   2.759 -0.6130  0.0925 -0.6251
  457MOL0     O61584   7.095   4.695   2.652 -1.1906 -0.7092  0.0390
  457MOL0     C61585   6.968   4.745   2.621 -0.2194 -0.9991  0.8450
  457MOL0     C61586   6.870   4.760   2.722 -0.8421  0.4757 -0.4967
  457MOL0     C61587   6.742   4.803   2.692 -0.5499  0.1797  0.7185
  457MOL0     C61588   6.640   4.796   2.795  0.0679  0.5091 -0.2127
  457MOL0     C61589   6.722   4.864   2.557  0.5643 -0.0654  0.3194
  457MOL0     C61590   6.600   4.933   2.528  0.9284 -0.7174  0.1534
  457MOL0     O61591   6.552   4.915   2.411 -0.9962  0.6185  0.5726
  457MOL0     C61592   6.420   4.920   2.384 -0.0309  0.5111  0.0639
  457MOL0     C61593   6.318   4.862   2.468 -0.7179  0.3919 -0.5727
  457MOL0     C61594   6.190   4.878   2.421  0.0407 -0.2133 -0.0677
  457MOL0     C61595   6.156   4.935   2.300 -0.6113 -0.0241  0.2919
  457MOL0     O61596   6.028   4.946   2.248 -0.3925 -0.5485  0.0529
  457MOL0     C61597   5.927   5.008   2.334  0.3466 -0.2963 -0.3991
  457MOL0     C61598   5.804   5.028   2.257  0.3445  0.4040 -0.4600
  457MOL0     C61599   5.686   5.080   2.354  0.3664  0.8041  0.5978
  457MOL0     C61600   5.564   5.137   2.278 -0.4301  1.0154  0.3784
  457MOL0     C61601   5.462   5.157   2.385 -0.2615 -0.7734  0.7208
  457MOL0     C61602   5.333   5.209   2.320 -0.0226 -1.0227 -0.1290
  457MOL0     C61603   5.229   5.251   2.418 -0.6097  0.2757 -0.1819
  457MOL0     C61604   5.091   5.263   2.356 -0.5845  0.0625 -0.0404
  457MOL0    Cl61605   5.084   5.405   2.236 -0.0468 -0.2418 -0.0662
  457MOL0     C61606   6.256   4.980   2.219  0.2907 -0.2977  0.1874
  457MOL0     C61607   6.389   4.967   2.258 -0.3615 -0.3247 -0.8763
  457MOL0     O61608   6.536   4.985   2.622 -0.1880  0.2131  0.4664
  457MOL0     C61609   6.817   4.840   2.459  1.1021  0.2478 -0.3324
  457MOL0     C61610   6.946   4.791   2.495 -0.6201 -0.5791  0.2569
  457MOL0     N61611   7.387   4.161   2.996 -0.1616  0.5845 -0.8848
  457MOL0     N61612   7.357   4.080   3.098 -0.5144  1.3239  0.2893
  457MOL0     C61613   6.314   3.582   3.111 -0.6544 -0.1618 -1.0532
  457MOL0     C61614   6.217   3.507   3.181  0.0148 -0.2361 -0.6503
  457MOL0     C61615   6.079   3.293   3.552  0.3286 -0.1881 -0.6539
  457MOL0     C61616   6.052   3.325   3.688 -1.2493  0.7382  0.2221
  457MOL0     C61617   5.974   3.248   3.770 -0.3137 -0.2965 -0.3442
  457MOL0     C61618   5.923   3.122   3.720 -0.7607 -0.4477 -0.4389
  457MOL0     O61619   5.852   3.037   3.808  0.2147 -0.1513 -0.0975
  457MOL0     C61620   5.845   3.078   3.945  0.0272  0.2351 -0.7850
  457MOL0     C61621   5.795   2.962   4.030 -0.0661  0.2397  0.2958
  457MOL0     C61622   5.757   3.018   4.173 -0.6429  0.0948  0.0399
  457MOL0     C61623   5.681   2.922   4.262 -0.3091 -0.2212  0.2408
  457MOL0     C61624   5.769   2.813   4.299 -0.1581 -0.1219 -0.1856
  457MOL0     C61625   5.841   2.719   4.319  0.0091  0.2828 -0.7416
  457MOL0     C61626   5.940   3.091   3.584  0.0521 -0.0744  0.2629
  457MOL0     C61627   6.007   3.182   3.501 -0.1556  0.1446 -0.6994
  457MOL0     H61628   6.412   3.275   3.323 -1.9351 -0.4025 -0.9069
  457MOL0     H61629   6.593   3.397   3.200 -0.1383 -0.8681 -0.3571
  457MOL0     H61630   6.589   3.734   2.889 -0.1799  2.8162 -1.4920
  457MOL0     H61631   6.421   3.732   2.932 -0.1292  3.6264  0.9856
  457MOL0     H61632   6.557   3.955   2.957 -2.1349  3.9550  2.3115
  457MOL0     H61633   6.457   3.909   3.094 -0.4679  2.5161 -1.6400
  457MOL0     H61634   6.658   3.813   3.208  1.1261  1.5381  0.8873
  457MOL0     H61635   6.753   3.843   3.060  0.5972 -0.7424  0.2479
  457MOL0     H61636   6.746   4.080   3.096 -0.7025 -0.2210 -1.0407
  457MOL0     H61637   6.650   4.056   3.240 -1.8865 -0.8690 -1.5857
  457MOL0     H61638   6.879   4.087   3.304 -0.8906  0.1485  1.6205
  457MOL0     H61639   6.841   3.917   3.335 -0.9609  0.6719  0.3544
  457MOL0     H61640   6.960   3.845   3.127 -0.4843 -1.0534  0.1934
  457MOL0     H61641   6.977   4.017   3.085 -0.7125  1.6278  1.7208
  457MOL0     H61642   7.084   3.886   3.342 -1.9102  0.7041  0.2705
  457MOL0     H61643   7.177   3.870   3.199 -0.6905 -0.5352  0.9454
  457MOL0     H61644   7.245   4.059   3.341  1.1393 -2.0795 -1.5559
  457MOL0     H61645   7.089   4.147   3.297  0.5349 -0.6985  0.6213
  457MOL0     H61646   7.081   4.250   3.054  1.3055  2.8702  0.3986
  457MOL0     H61647   7.347   4.301   2.783 -1.0711  1.8857  0.6253
  457MOL0     H61648   7.170   4.297   2.791  0.7943  1.4828 -1.1690
  457MOL0     H61649   7.359   4.486   2.949 -0.7180  1.4233 -0.5887
  457MOL0     H61650   7.189   4.487   2.967 -0.8763  2.6061 -1.0220
  457MOL0     H61651   7.274   4.519   2.674  0.6308  2.5472 -0.2504
  457MOL0     H61652   7.318   4.647   2.794  1.5208 -0.1757  1.4197
  457MOL0     H61653   7.103   4.652   2.854 -0.0148 -1.6016  0.4026
  457MOL0     H61654   7.051   4.516   2.740 -1.1043  0.3234  0.0208
  457MOL0     H61655   6.901   4.721   2.818  0.2078 -1.5349 -1.5870
  457MOL0     H61656   6.640   4.884   2.861 -1.0635 -0.0542  0.5762
  457MOL0     H61657   6.538   4.790   2.756 -0.0352  1.5181 -0.1360
  457MOL0     H61658   6.649   4.707   2.858  1.9920  2.2942  2.2331
  457MOL0     H61659   6.327   4.808   2.562 -0.9227  0.6111 -0.4241
  457MOL0     H61660   6.102   4.833   2.466 -2.1698  1.2883 -2.5435
  457MOL0     H61661   5.896   4.942   2.415  1.6262  1.7921  1.8984
  457MOL0     H61662   5.971   5.100   2.375  0.4494 -0.5356  0.0260
  457MOL0     H61663   5.824   5.100   2.177 -1.6385  1.1846 -0.2983
  457MOL0     H61664   5.762   4.936   2.216 -3.5033  1.9614 -0.4628
  457MOL0     H61665   5.723   5.163   2.416  2.2718  0.3957  0.0769
  457MOL0     H61666   5.654   4.995   2.415  0.7136 -0.2896 -0.6978
  457MOL0     H61667   5.583   5.231   2.225  0.0703  0.9658  0.4650
  457MOL0     H61668   5.533   5.058   2.209 -0.0641 -1.1329  2.5536
  457MOL0     H61669   5.501   5.223   2.462  0.2737 -1.0202  0.6635
  457MOL0     H61670   5.439   5.062   2.435 -1.3702 -2.5188 -2.7462
  457MOL0     H61671   5.354   5.287   2.246 -0.1459  1.0216  1.8774
  457MOL0     H61672   5.299   5.129   2.254  0.6344 -1.1642 -0.2963
  457MOL0     H61673   5.247   5.339   2.480 -3.1607  0.4755  0.3837
  457MOL0     H61674   5.218   5.174   2.494 -2.0880 -0.0450 -0.6870
  457MOL0     H61675   5.010   5.285   2.426 -1.4513 -0.8582 -0.7116
  457MOL0     H61676   5.074   5.173   2.297  1.3970  0.2462 -0.9855
  457MOL0     H61677   6.237   5.020   2.119 -0.0709  3.4458  1.5898
  457MOL0     H61678   6.473   5.010   2.205  2.2860 -1.2676  2.2125
  457MOL0     H61679   6.790   4.863   2.357 -1.8953 -0.2345  0.2594
  457MOL0     H61680   7.022   4.785   2.417 -0.2754 -4.7894  0.6661
  457MOL0     H61681   6.287   3.666   3.047  1.7163  1.6981  0.2229
  457MOL0     H61682   6.114   3.539   3.175  0.0794 -0.0400 -0.7390
  457MOL0     H61683   6.090   3.413   3.739  1.2747  0.3490 -0.8057
  457MOL0     H61684   5.949   3.292   3.866 -0.2270  0.2700 -0.5745
  457MOL0     H61685   5.939   3.102   3.996 -1.3239 -2.3312  3.4102
  457MOL0     H61686   5.776   3.163   3.940 -1.8582 -1.1649  0.1674
  457MOL0     H61687   5.877   2.889   4.041 -0.7757 -0.3432  2.2201
  457MOL0     H61688   5.706   2.918   3.984  0.4594 -0.1425 -0.3740
  457MOL0     H61689   5.699   3.110   4.168  1.7714  1.7029 -0.4748
  457MOL0     H61690   5.851   3.033   4.227 -0.2996 -0.3737 -0.4091
  457MOL0     H61691   5.595   2.894   4.199  2.0659 -0.7848 -3.0316
  457MOL0     H61692   5.638   2.975   4.347  3.9670  0.5947  2.1177
  457MOL0     H61693   5.907   2.650   4.367 -2.6017 -0.6864  1.7508
  457MOL0     H61694   5.895   3.000   3.547  2.2494 -1.8814  1.8134
  457MOL0     H61695   6.015   3.161   3.395  1.5164  4.4597 -1.6460
  458MOL0     O61696  11.175   4.891   9.216 -0.8015 -0.4812 -0.7710
  458MOL0     C61697  11.081   4.963   9.218 -0.0145 -0.5223  0.0541
  458MOL0     O61698  10.990   4.957   9.121 -0.0934  0.7765  0.7720
  458MOL0     C61699  11.028   4.908   9.003  0.1846  0.0137  0.3642
  458MOL0     C61700  10.922   4.910   8.915  1.1470 -0.1829 -0.4522
  458MOL0     C61701  10.927   4.871   8.792  1.0490  0.2796  0.1642
  458MOL0     C61702  11.038   4.802   8.734 -0.0067  0.4676  0.2695
  458MOL0     O61703  11.043   4.756   8.607 -0.0412  0.0079 -0.1694
  458MOL0     C61704  10.946   4.798   8.504  0.8162  0.0231 -0.1486
  458MOL0     C61705  10.968   4.747   8.358 -0.4286 -0.1999  0.4871
  458MOL0     C61706  10.849   4.784   8.265 -0.3258 -0.4999 -0.0893
  458MOL0     C61707  10.868   4.721   8.125  0.3714 -2.1178 -0.0780
  458MOL0     C61708  10.793   4.580   8.108  1.2725 -0.0139  0.6102
  458MOL0     C61709  10.793   4.537   7.960 -0.2509  1.0081  0.0893
  458MOL0     C61710  10.749   4.386   7.948  0.4446  1.0895 -0.2417
  458MOL0     C61711  10.864   4.294   7.956  0.1451  0.7245  0.4796
  458MOL0     N61712  10.821   4.160   7.928 -0.3528  0.6777 -0.7077
  458MOL0     C61713  10.759   4.078   8.024 -0.0868 -0.4156 -0.4234
  458MOL0     C61714  10.750   3.950   7.979 -0.3964 -0.4017  0.2745
  458MOL0     C61715  10.686   3.833   8.038  0.3905  0.8513  1.2927
  458MOL0     C61716  10.526   3.833   8.045 -0.3432 -0.2090 -0.8037
  458MOL0     C61717  10.437   3.839   7.923  0.1838  0.5569 -0.7655
  458MOL0     C61718  10.387   3.704   7.877 -0.0294  0.4696  1.0984
  458MOL0     O61719  10.313   3.631   7.971  0.5660  0.1481 -1.0710
  458MOL0     C61720  10.203   3.698   8.025 -0.7279  0.6052  0.2054
  458MOL0     C61721  10.169   3.676   8.159  0.1445  0.3868  0.3349
  458MOL0     C61722  10.054   3.741   8.213  0.8907 -0.6012 -0.2789
  458MOL0     C61723  10.004   3.712   8.352 -0.2564 -0.0421 -0.4414
  458MOL0     C61724   9.967   3.821   8.128 -0.0423 -0.6430 -1.0232
  458MOL0     C61725   9.840   3.888   8.175 -0.1219  0.4396  0.8566
  458MOL0     O61726   9.823   3.912   8.308 -1.1502 -0.3822  0.0161
  458MOL0     C61727   9.702   3.928   8.369 -0.2843 -0.9022  0.8987
  458MOL0     C61728   9.678   4.055   8.420 -0.3342 -0.4148 -0.2863
  458MOL0     C61729   9.561   4.080   8.484  0.2867 -0.9246 -0.0223
  458MOL0     C61730   9.469   3.980   8.518  0.1656  0.5556 -0.2010
  458MOL0     O61731   9.360   4.011   8.603 -0.1409  0.6902 -0.4897
  458MOL0     C61732   9.262   3.909   8.638  0.6303 -0.0504  0.6334
  458MOL0     C61733   9.159   3.966   8.729 -0.7351 -0.2531 -0.4530
  458MOL0     C61734   9.089   4.095   8.683  1.2059  0.4537 -0.6869
  458MOL0     C61735   8.973   4.143   8.773 -0.2387 -0.1990 -0.1671
  458MOL0     C61736   8.837   4.069   8.773  0.5410  0.0982  0.1702
  458MOL0     C61737   8.832   3.958   8.892  0.2705 -0.2510 -0.0221
  458MOL0     C61738   8.684   3.911   8.919  0.2623 -0.3578  0.4614
  458MOL0     C61739   8.681   3.799   9.030  0.0514  0.2335  0.7299
  458MOL0    Cl61740   8.512   3.763   9.071  0.7201 -0.4582 -0.1166
  458MOL0     C61741   9.491   3.850   8.463  0.1513 -0.2101  0.0529
  458MOL0     C61742   9.609   3.828   8.384 -0.1907 -0.7137 -0.1558
  458MOL0     O61743   9.750   3.911   8.089  0.0474 -0.1712 -0.0732
  458MOL0     C61744  10.004   3.834   7.994 -1.2881 -0.7109 -0.2444
  458MOL0     C61745  10.117   3.771   7.945 -0.0497 -2.2424 -0.1259
  458MOL0     N61746  10.801   3.953   7.853  0.8305  1.3715 -0.6273
  458MOL0     N61747  10.842   4.074   7.821  0.1726 -0.0736 -0.7732
  458MOL0     C61748  11.156   4.812   8.817 -0.4625 -0.4201  0.7465
  458MOL0     C61749  11.146   4.860   8.943  0.6247 -1.3523 -0.5104
  458MOL0     C61750  11.044   5.037   9.333  0.3879 -0.0323 -0.3316
  458MOL0     C61751  10.921   5.095   9.346  0.1923 -1.1221  0.3049
  458MOL0     C61752  10.894   5.172   9.457  0.6441  0.3107 -0.3403
  458MOL0     C61753  10.980   5.186   9.565  0.0350  0.9941 -0.9071
  458MOL0     O61754  10.947   5.236   9.683 -0.4003  0.3147  0.1141
  458MOL0     C61755  10.808   5.269   9.708  0.3021  0.4163  0.1376
  458MOL0     C61756  10.739   5.140   9.746 -0.0771  0.5116 -0.8602
  458MOL0     C61757  10.590   5.161   9.788 -0.5070 -0.0159 -0.0985
  458MOL0     C61758  10.566   5.226   9.916 -0.1371 -0.0120  0.0351
  458MOL0     C61759  10.433   5.221   9.968 -0.0749 -0.3704 -0.4716
  458MOL0     C61760  10.313   5.219   9.999 -0.1280  0.2290 -0.4213
  458MOL0     C61761  11.103   5.129   9.556 -0.6477  0.1517  1.3691
  458MOL0     C61762  11.136   5.053   9.444  0.5771 -1.0546  0.7334
  458MOL0     H61763  10.832   4.955   8.957  1.3439  0.6350 -0.8889
  458MOL0     H61764  10.836   4.862   8.733  1.3101  0.2088 -0.2383
  458MOL0     H61765  10.848   4.761   8.537  1.1396 -2.2913 -1.5473
  458MOL0     H61766  10.933   4.906   8.516 -1.6881 -0.2819  0.5924
  458MOL0     H61767  11.062   4.796   8.336 -1.3479  1.9024  1.0027
  458MOL0     H61768  10.974   4.638   8.365  0.2238 -0.1167  1.3434
  458MOL0     H61769  10.753   4.750   8.304 -0.8127 -0.1036 -0.9135
  458MOL0     H61770  10.833   4.890   8.243 -0.0807 -0.6148 -0.8531
  458MOL0     H61771  10.817   4.791   8.059 -2.3592 -2.8588  1.0656
  458MOL0     H61772  10.973   4.702   8.104  0.6088 -0.3492 -0.5855
  458MOL0     H61773  10.859   4.510   8.160  1.6969 -0.7183 -0.8190
  458MOL0     H61774  10.692   4.589   8.150  1.3272 -0.5588  0.8716
  458MOL0     H61775  10.728   4.614   7.916 -0.9672  0.8747  0.8850
  458MOL0     H61776  10.891   4.546   7.912  0.4451  0.6634  1.4114
  458MOL0     H61777  10.677   4.368   8.029 -0.8620 -1.1134 -1.7935
  458MOL0     H61778  10.709   4.381   7.846 -0.0814  2.0114 -0.0964
  458MOL0     H61779  10.914   4.295   8.053  3.9345  2.9692 -1.2294
  458MOL0     H61780  10.939   4.329   7.884 -0.4003  0.1804 -0.3738
  458MOL0     H61781  10.729   4.105   8.125  1.3079  1.8650 -0.5616
  458MOL0     H61782  10.705   3.749   7.971 -1.2708  3.4546 -2.8293
  458MOL0     H61783  10.724   3.821   8.140  0.5339 -1.0765  1.0556
  458MOL0     H61784  10.493   3.916   8.108 -1.6771 -0.1007 -1.6097
  458MOL0     H61785  10.502   3.744   8.104  1.8566 -0.6522 -0.4749
  458MOL0     H61786  10.472   3.889   7.832  0.2169 -0.3557 -1.2757
  458MOL0     H61787  10.351   3.898   7.954 -2.3760 -2.3988 -1.7353
  458MOL0     H61788  10.468   3.633   7.865  0.2820  0.5888  2.3742
  458MOL0     H61789  10.339   3.715   7.779  1.6852 -1.3603 -0.0058
  458MOL0     H61790  10.220   3.607   8.225 -2.6262 -1.5440  0.6457
  458MOL0     H61791   9.898   3.685   8.358  0.0898 -1.2187  0.9483
  458MOL0     H61792  10.058   3.630   8.400  1.7562  1.8773  0.7867
  458MOL0     H61793  10.027   3.793   8.423  1.4331 -0.7438 -0.1299
  458MOL0     H61794   9.749   4.135   8.402  0.6976 -1.1630  0.4038
  458MOL0     H61795   9.539   4.184   8.502 -2.2784 -1.4793  0.4689
  458MOL0     H61796   9.208   3.866   8.552  0.6835  0.8500  0.1386
  458MOL0     H61797   9.303   3.828   8.699  2.0989 -0.2070 -0.4910
  458MOL0     H61798   9.087   3.890   8.761 -0.0941 -1.2989 -1.4426
  458MOL0     H61799   9.211   4.005   8.817 -0.7516  0.6242 -0.8236
  458MOL0     H61800   9.050   4.086   8.581  0.3398 -2.8812 -0.1458
  458MOL0     H61801   9.165   4.174   8.674  3.1039 -1.2103  0.0116
  458MOL0     H61802   9.004   4.171   8.874  1.5928 -1.3398 -0.3670
  458MOL0     H61803   8.948   4.237   8.722 -3.5395 -1.9943 -2.2789
  458MOL0     H61804   8.830   4.013   8.679  0.5015 -0.2229  0.3610
  458MOL0     H61805   8.752   4.137   8.779  1.7052  1.5498  0.8925
  458MOL0     H61806   8.901   3.877   8.869  0.2216 -0.8537  1.7666
  458MOL0     H61807   8.865   3.993   8.990 -1.7131 -0.8078  0.9138
  458MOL0     H61808   8.640   3.886   8.822 -0.3886  2.9019 -0.1710
  458MOL0     H61809   8.618   3.990   8.954 -0.4030 -0.5451 -0.3274
  458MOL0     H61810   8.725   3.825   9.127 -2.6522  4.0109  1.1766
  458MOL0     H61811   8.710   3.703   8.985  0.1513  0.2542  0.7504
  458MOL0     H61812   9.427   3.770   8.499 -0.8006  0.9446  0.9479
  458MOL0     H61813   9.653   3.733   8.356 -2.8431 -1.9034 -0.5478
  458MOL0     H61814   9.932   3.889   7.934 -2.1631  0.5089  1.7788
  458MOL0     H61815  10.147   3.801   7.845  1.0126  0.3585  0.8830
  458MOL0     H61816  11.258   4.797   8.784 -1.0580 -0.1750 -1.3493
  458MOL0     H61817  11.236   4.879   9.001 -0.3624 -1.6607  1.1811
  458MOL0     H61818  10.843   5.101   9.271 -0.0043  0.4683  0.6011
  458MOL0     H61819  10.797   5.219   9.462  0.9255  0.8364  0.2411
  458MOL0     H61820  10.801   5.332   9.798 -2.6872 -0.0504  0.3358
  458MOL0     H61821  10.755   5.328   9.633 -0.0242 -1.3434 -1.0914
  458MOL0     H61822  10.796   5.105   9.834 -0.2105  3.9846  0.7488
  458MOL0     H61823  10.736   5.068   9.663 -1.8894  1.2450 -1.4694
  458MOL0     H61824  10.534   5.067   9.786 -3.6143  1.6405 -4.0077
  458MOL0     H61825  10.541   5.226   9.716  0.2978 -0.5369 -1.1477
  458MOL0     H61826  10.591   5.333   9.922 -0.3030  0.0582 -0.4785
  458MOL0     H61827  10.614   5.179  10.002 -0.3711  2.5740  1.7037
  458MOL0     H61828  10.216   5.222  10.043  0.2951  3.0894  0.5086
  458MOL0     H61829  11.178   5.139   9.634  1.9902 -1.5685 -0.7888
  458MOL0     H61830  11.226   4.995   9.428 -2.1515 -5.1731 -1.4936
  459MOL0     O61831   5.756   6.270   5.854 -0.1350  0.1199  0.2447
  459MOL0     C61832   5.691   6.213   5.765  0.2104 -0.4800 -1.1240
  459MOL0     O61833   5.581   6.265   5.701 -0.8716  0.9173  0.6600
  459MOL0     C61834   5.573   6.403   5.698  0.0527 -0.3474  0.3672
  459MOL0     C61835   5.658   6.482   5.620 -0.9157  0.4887  1.4196
  459MOL0     C61836   5.649   6.624   5.622  0.1850  0.4659 -0.4206
  459MOL0     C61837   5.567   6.684   5.718 -0.4393 -0.0244 -0.4619
  459MOL0     O61838   5.555   6.821   5.691 -0.0272 -0.0603 -0.5432
  459MOL0     C61839   5.428   6.878   5.688  0.3899 -0.6979 -0.0417
  459MOL0     C61840   5.439   7.029   5.659 -1.3269 -0.2767  0.6155
  459MOL0     C61841   5.525   7.099   5.767 -0.5987 -0.5102  0.4169
  459MOL0     C61842   5.483   7.242   5.795 -1.0810 -0.0635  0.2417
  459MOL0     C61843   5.352   7.223   5.873  0.5722  0.1500 -0.7232
  459MOL0     C61844   5.294   7.361   5.912  0.9090 -0.2959  0.4856
  459MOL0     C61845   5.168   7.346   5.997  0.4604 -0.4462  0.4673
  459MOL0     C61846   5.192   7.320   6.151 -0.3909 -0.4551  1.1915
  459MOL0     N61847   5.083   7.311   6.231  0.9119  0.3181  0.2505
  459MOL0     C61848   5.010   7.413   6.283  0.0730 -0.7926 -0.3618
  459MOL0     C61849   4.893   7.361   6.324 -0.6757  1.9662  0.4897
  459MOL0     C61850   4.777   7.441   6.382 -1.0330  0.8146  0.0700
  459MOL0     C61851   4.708   7.527   6.278  0.6406 -0.2261 -0.0463
  459MOL0     C61852   4.596   7.615   6.334 -0.2108  0.1368 -0.3469
  459MOL0     C61853   4.467   7.605   6.253  0.7070 -0.2608 -0.3643
  459MOL0     O61854   4.468   7.689   6.139 -0.0507 -0.4216  0.1949
  459MOL0     C61855   4.367   7.669   6.048 -0.1881  0.0857  0.4232
  459MOL0     C61856   4.257   7.582   6.062  0.5072  0.2521 -0.0382
  459MOL0     C61857   4.165   7.561   5.953  0.9518 -1.0231 -0.6500
  459MOL0     C61858   4.063   7.450   5.959  0.3337  0.8532 -0.8644
  459MOL0     C61859   4.171   7.644   5.836 -0.3128  0.6775 -0.8323
  459MOL0     C61860   4.060   7.643   5.732  0.1141  0.7190  0.4030
  459MOL0     O61861   3.933   7.607   5.763  0.1157 -0.2104 -0.2372
  459MOL0     C61862   3.853   7.546   5.664  0.8425  0.0830 -0.3350
  459MOL0     C61863   3.901   7.484   5.554 -0.5960  0.9915  0.8280
  459MOL0     C61864   3.806   7.430   5.458 -0.1357 -0.5264  0.1915
  459MOL0     C61865   3.669   7.419   5.486 -1.4054 -0.3450 -0.1662
  459MOL0     O61866   3.580   7.351   5.409  0.2758 -0.0946 -0.3554
  459MOL0     C61867   3.567   7.381   5.269  0.3798  0.5549  0.4664
  459MOL0     C61868   3.447   7.325   5.213  0.0134 -0.5393  0.3404
  459MOL0     C61869   3.325   7.343   5.307 -0.0904  0.7747 -0.3036
  459MOL0     C61870   3.197   7.272   5.262 -0.1580 -0.1044 -0.7704
  459MOL0     C61871   3.078   7.261   5.371  0.6182 -0.0381 -0.4538
  459MOL0     C61872   2.954   7.328   5.323  0.2104  0.6034  0.1456
  459MOL0     C61873   2.971   7.479   5.344 -0.3192 -0.1402  0.6246
  459MOL0     C61874   2.909   7.538   5.465 -0.5126 -0.1962 -0.6547
  459MOL0    Cl61875   2.941   7.715   5.462  0.6443  0.2312 -0.5249
  459MOL0     C61876   3.629   7.482   5.598  0.4865  0.2713 -0.8601
  459MOL0     C61877   3.714   7.544   5.688  0.5159  0.4437 -0.0472
  459MOL0     O61878   4.091   7.686   5.622  0.4414  0.0782 -0.2353
  459MOL0     C61879   4.279   7.737   5.834  0.1079 -0.4649 -0.0472
  459MOL0     C61880   4.373   7.744   5.935 -0.3723 -0.7628  0.1375
  459MOL0     N61881   4.891   7.227   6.298  0.8293 -0.2198  0.6729
  459MOL0     N61882   4.997   7.195   6.228  0.0245  0.4643 -0.5245
  459MOL0     C61883   5.488   6.603   5.802  0.6862  0.2433  0.5071
  459MOL0     C61884   5.491   6.460   5.790 -0.9406 -0.9489  0.7354
  459MOL0     C61885   5.718   6.064   5.748 -0.8211 -0.5928  0.5082
  459MOL0     C61886   5.663   5.995   5.642 -0.1495 -0.4236 -0.0882
  459MOL0     C61887   5.687   5.862   5.607 -1.1067 -0.2423 -1.0588
  459MOL0     C61888   5.796   5.808   5.682 -0.0559 -0.2743  0.6933
  459MOL0     O61889   5.839   5.681   5.649  0.0188 -0.4814 -0.5941
  459MOL0     C61890   5.823   5.580   5.754  0.0415  0.2446  0.4365
  459MOL0     C61891   5.683   5.523   5.777 -0.1428 -0.3632  0.6232
  459MOL0     C61892   5.621   5.445   5.661  0.0090  0.1736 -0.0974
  459MOL0     C61893   5.483   5.390   5.708 -0.3899  0.0523  0.8054
  459MOL0     C61894   5.429   5.313   5.603  0.4141  0.8998  0.1004
  459MOL0     C61895   5.376   5.244   5.523 -0.1473  1.1539  0.3364
  459MOL0     C61896   5.869   5.880   5.779  0.3139 -0.2084 -0.4161
  459MOL0     C61897   5.821   6.006   5.826 -0.8025 -0.0342  0.3397
  459MOL0     H61898   5.728   6.430   5.555 -0.9095 -1.9560  3.2380
  459MOL0     H61899   5.713   6.682   5.556 -0.6743  0.8331 -0.9466
  459MOL0     H61900   5.360   6.838   5.613  0.2847  1.0221 -0.9134
  459MOL0     H61901   5.377   6.876   5.784 -0.1975  0.5632 -0.3069
  459MOL0     H61902   5.491   7.042   5.564 -1.7095 -2.4841  0.0343
  459MOL0     H61903   5.343   7.080   5.643 -0.1294  0.9958 -3.8814
  459MOL0     H61904   5.527   7.039   5.859 -2.4455 -1.8496 -0.3485
  459MOL0     H61905   5.623   7.110   5.720 -1.4189 -1.8136 -1.7727
  459MOL0     H61906   5.556   7.292   5.859  0.1314 -1.6768  0.1713
  459MOL0     H61907   5.460   7.295   5.702  4.9379 -1.6829 -2.6556
  459MOL0     H61908   5.271   7.172   5.820  1.6241 -3.0385  0.5033
  459MOL0     H61909   5.367   7.172   5.968 -1.4849  1.2860  0.2689
  459MOL0     H61910   5.373   7.414   5.966  1.0191  0.2955 -0.2463
  459MOL0     H61911   5.273   7.421   5.824  2.1057  0.4625  0.6881
  459MOL0     H61912   5.096   7.429   5.996  1.9692  0.9250  1.0331
  459MOL0     H61913   5.108   7.276   5.938 -1.6414  1.4715  0.1801
  459MOL0     H61914   5.254   7.398   6.196  0.7751  0.6485 -2.0516
  459MOL0     H61915   5.241   7.222   6.156 -0.6070 -0.5461  1.5759
  459MOL0     H61916   5.039   7.517   6.290 -1.1520 -0.3157 -1.8016
  459MOL0     H61917   4.705   7.375   6.430 -1.0205 -0.6864 -1.8599
  459MOL0     H61918   4.807   7.523   6.449 -3.5307  2.1235 -0.3022
  459MOL0     H61919   4.668   7.459   6.203  0.9845 -1.1448  0.5849
  459MOL0     H61920   4.789   7.587   6.236  2.8436 -1.8925  1.5378
  459MOL0     H61921   4.633   7.717   6.345 -0.0446 -0.1113  1.8843
  459MOL0     H61922   4.568   7.582   6.434 -3.0427 -0.3572 -1.2233
  459MOL0     H61923   4.376   7.632   6.308  1.2139 -3.4466  2.3959
  459MOL0     H61924   4.453   7.498   6.237  0.2043 -0.2915  0.2191
  459MOL0     H61925   4.246   7.525   6.153 -0.0299 -1.8605 -1.3675
  459MOL0     H61926   4.079   7.382   5.875 -0.5640  1.7634 -1.8001
  459MOL0     H61927   4.071   7.394   6.053 -2.1091 -1.6116 -1.9947
  459MOL0     H61928   3.958   7.476   5.974  0.6503  1.8323 -0.1854
  459MOL0     H61929   4.006   7.472   5.529 -0.2656 -1.0567  2.8453
  459MOL0     H61930   3.839   7.393   5.361  1.7099  1.1917  0.0986
  459MOL0     H61931   3.571   7.490   5.262  1.4141  0.4652 -0.9079
  459MOL0     H61932   3.648   7.336   5.211  0.4700  0.1750  0.8862
  459MOL0     H61933   3.428   7.374   5.118 -2.0388 -3.2819 -0.7898
  459MOL0     H61934   3.457   7.217   5.198 -2.3865 -0.9218  1.0558
  459MOL0     H61935   3.303   7.448   5.324  0.6179  0.3349  4.9102
  459MOL0     H61936   3.361   7.300   5.401  1.3977  3.1770  0.2921
  459MOL0     H61937   3.152   7.333   5.184 -0.7593 -1.7622 -1.7810
  459MOL0     H61938   3.226   7.174   5.223 -1.8943 -0.8600 -0.2403
  459MOL0     H61939   3.110   7.284   5.473  2.1266 -1.7724 -0.4731
  459MOL0     H61940   3.056   7.154   5.377 -3.5001  0.4302 -2.8948
  459MOL0     H61941   2.924   7.285   5.227  0.9597 -2.3150  1.1192
  459MOL0     H61942   2.870   7.299   5.388  0.1835 -1.3091 -0.6699
  459MOL0     H61943   2.946   7.542   5.258  1.3677  1.4329  1.2014
  459MOL0     H61944   3.079   7.492   5.357 -0.4452 -0.8980  2.8500
  459MOL0     H61945   2.962   7.493   5.550  1.4849  1.8622 -0.7121
  459MOL0     H61946   2.802   7.521   5.472 -0.5459  0.6706  1.6084
  459MOL0     H61947   3.526   7.473   5.632  2.1798 -1.6211  5.0628
  459MOL0     H61948   3.681   7.583   5.784  0.3128  0.7298 -0.2308
  459MOL0     H61949   4.288   7.793   5.741  0.7861 -1.6339 -0.7140
  459MOL0     H61950   4.442   7.827   5.930  2.6791 -3.2080 -2.2903
  459MOL0     H61951   5.415   6.626   5.879 -0.9408 -2.3406 -0.1393
  459MOL0     H61952   5.440   6.392   5.857  0.1210 -2.7473 -0.2263
  459MOL0     H61953   5.583   6.052   5.595  2.0202  0.1483 -3.4133
  459MOL0     H61954   5.629   5.808   5.533 -0.0276 -0.0731 -2.0605
  459MOL0     H61955   5.894   5.499   5.735  0.7942  0.8640  0.5290
  459MOL0     H61956   5.854   5.618   5.852 -1.2566  2.3602  0.0996
  459MOL0     H61957   5.617   5.608   5.790 -0.2713  0.9984 -5.6541
  459MOL0     H61958   5.696   5.459   5.865 -0.2246 -3.3098 -1.3753
  459MOL0     H61959   5.688   5.367   5.623  1.0618 -0.9907  3.6621
  459MOL0     H61960   5.609   5.516   5.579 -3.2240 -0.0556  0.0645
  459MOL0     H61961   5.418   5.476   5.727 -3.1847 -1.9469  0.7825
  459MOL0     H61962   5.502   5.341   5.804 -2.4381 -0.6100  0.9169
  459MOL0     H61963   5.334   5.181   5.447  0.9200 -1.1156  1.5368
  459MOL0     H61964   5.957   5.824   5.811 -1.0609 -1.8854  0.6662
  459MOL0     H61965   5.879   6.051   5.906  0.8776  1.5176 -1.6625
  460MOL0     O61966   9.146   9.952  10.311  0.5765 -0.5536 -0.0972
  460MOL0     C61967   9.148  10.079  10.325  0.0459  0.6298 -0.5390
  460MOL0     O61968   9.183  10.139  10.446 -0.2144  0.0867 -0.6888
  460MOL0     C61969   9.233  10.055  10.545  0.3908  0.5114  0.1629
  460MOL0     C61970   9.366  10.010  10.539  1.0001  0.4431  0.0497
  460MOL0     C61971   9.415   9.942  10.650 -0.0827  1.3851 -0.2513
  460MOL0     C61972   9.325   9.888  10.739 -0.7156  0.6321  0.3637
  460MOL0     O61973   9.361   9.795  10.837 -0.0588 -0.1541 -0.4832
  460MOL0     C61974   9.493   9.738  10.859 -0.0595 -0.3395  0.0467
  460MOL0     C61975   9.489   9.616  10.951 -0.7184  0.4745  0.0979
  460MOL0     C61976   9.624   9.587  11.023  0.5897 -0.3454 -0.5097
  460MOL0     C61977   9.683   9.445  10.991  0.1497 -0.6067  0.1041
  460MOL0     C61978   9.825   9.456  11.047  0.0366 -0.2899 -0.4023
  460MOL0     C61979   9.893   9.329  11.010  0.4390 -1.3595 -0.2111
  460MOL0     C61980  10.040   9.325  11.054 -0.3369 -0.4274 -0.2402
  460MOL0     C61981  10.058   9.321  11.208 -0.7201 -0.5298  0.2552
  460MOL0     N61982  10.204   9.334  11.238  0.1082 -0.6904  0.0118
  460MOL0     C61983  10.289   9.444  11.234  0.5285  0.4276 -0.7533
  460MOL0     C61984  10.413   9.400  11.269 -0.2171  0.0389 -0.0286
  460MOL0     C61985  10.540   9.480  11.258  0.3935  0.6941 -0.5514
  460MOL0     C61986  10.506   9.625  11.262 -0.8313  0.5396  0.0837
  460MOL0     C61987  10.644   9.694  11.255 -0.4843  0.3296  0.2216
  460MOL0     C61988  10.633   9.841  11.217 -0.1228 -1.0981  0.4586
  460MOL0     O61989  10.523   9.898  11.286 -1.1208  0.0173 -0.3566
  460MOL0     C61990  10.556  10.025  11.333 -0.4948 -0.2880  0.0304
  460MOL0     C61991  10.604  10.122  11.244 -0.2404 -0.4325 -0.5550
  460MOL0     C61992  10.628  10.255  11.287 -0.1557  0.1543  1.3647
  460MOL0     C61993  10.686  10.356  11.197  0.6173 -0.5229 -0.1526
  460MOL0     C61994  10.625  10.285  11.425 -0.3193 -0.8502 -0.9882
  460MOL0     C61995  10.665  10.413  11.483 -0.5346 -0.0156 -0.6346
  460MOL0     O61996  10.804  10.426  11.503 -0.2060 -0.7614  0.1423
  460MOL0     C61997  10.854  10.502  11.604  0.1903  0.0482 -0.0971
  460MOL0     C61998  10.968  10.588  11.596 -0.0258  0.3562 -1.4763
  460MOL0     C61999  11.009  10.663  11.717 -0.6010  0.3802  0.4897
  460MOL0     C62000  10.950  10.641  11.840  0.1184  0.8883  0.0189
  460MOL0     O62001  10.988  10.723  11.936 -0.7626 -0.7241 -0.0985
  460MOL0     C62002  10.968  10.677  12.070 -0.9550 -0.1850  0.6757
  460MOL0     C62003  11.063  10.554  12.092  0.2510 -0.1559 -0.1944
  460MOL0     C62004  11.208  10.561  12.044  0.5918  0.3627 -0.4414
  460MOL0     C62005  11.299  10.461  12.119  0.1105 -0.2919  0.6188
  460MOL0     C62006  11.431  10.455  12.057 -0.1928  0.5411 -0.0621
  460MOL0     C62007  11.528  10.388  12.145  0.5162 -0.0267  0.4101
  460MOL0     C62008  11.670  10.365  12.092  0.8059  0.0239 -0.1437
  460MOL0     C62009  11.750  10.299  12.208 -0.0574 -0.2657 -0.0869
  460MOL0    Cl62010  11.798  10.421  12.325 -0.2103  0.0155  0.4906
  460MOL0     C62011  10.841  10.544  11.850 -0.3788  0.2054  0.7636
  460MOL0     C62012  10.797  10.483  11.733  1.0136 -0.3645  0.2270
  460MOL0     O62013  10.581  10.488  11.518  0.0971  0.5042  0.0749
  460MOL0     C62014  10.586  10.185  11.517 -0.7953 -0.4966 -0.4028
  460MOL0     C62015  10.548  10.064  11.473 -0.0113  0.4442 -0.6740
  460MOL0     N62016  10.408   9.265  11.277  0.0060  0.7621 -0.0854
  460MOL0     N62017  10.285   9.226  11.260  0.0484  0.8559 -0.1237
  460MOL0     C62018   9.195   9.935  10.744  0.7944  0.3700 -0.3100
  460MOL0     C62019   9.153  10.027  10.651 -0.1222  1.4041 -1.4426
  460MOL0     C62020   9.118  10.159  10.214 -0.0391  0.1138 -0.5711
  460MOL0     C62021   9.036  10.111  10.109 -0.4609  0.5831 -0.3833
  460MOL0     C62022   9.005  10.190  10.002  0.5585 -0.7995 -0.3932
  460MOL0     C62023   9.046  10.325   9.995 -0.7677 -0.2160  0.0021
  460MOL0     O62024   9.036  10.405   9.884  0.8483 -0.3084  0.3563
  460MOL0     C62025   8.963  10.343   9.773 -0.5588 -0.2433  1.1051
  460MOL0     C62026   8.975  10.426   9.644  0.3949 -0.4433  0.2957
  460MOL0     C62027   9.121  10.455   9.601  0.1228 -0.6976 -0.3480
  460MOL0     C62028   9.135  10.507   9.456 -0.4905 -0.1081  0.4468
  460MOL0     C62029   9.276  10.527   9.428  0.2932  0.9079  0.0374
  460MOL0     C62030   9.390  10.562   9.422  0.4890 -0.0137 -0.1025
  460MOL0     C62031   9.121  10.374  10.106 -0.0465 -0.2872 -0.0067
  460MOL0     C62032   9.149  10.295  10.218  0.6722  0.4444  0.4597
  460MOL0     H62033   9.433  10.034  10.457  2.8145  2.9408  2.0992
  460MOL0     H62034   9.520   9.914  10.648 -0.7583 -1.6246  1.0254
  460MOL0     H62035   9.534   9.708  10.762 -0.4370  0.3596 -0.3379
  460MOL0     H62036   9.551   9.822  10.900 -2.9012  0.2958  3.2130
  460MOL0     H62037   9.422   9.633  11.036 -0.3458 -1.4672  0.8334
  460MOL0     H62038   9.456   9.526  10.898 -3.6739  1.8144 -0.5844
  460MOL0     H62039   9.700   9.653  10.981 -0.7636 -0.8263 -4.1065
  460MOL0     H62040   9.608   9.599  11.131 -0.5417  2.6422 -0.9239
  460MOL0     H62041   9.632   9.368  11.049  0.5696  0.0133  1.3368
  460MOL0     H62042   9.666   9.422  10.886 -0.0503 -1.1311  0.2491
  460MOL0     H62043   9.885   9.541  11.014  2.9361 -0.2075  4.2444
  460MOL0     H62044   9.806   9.467  11.154 -2.3376 -3.4186 -0.3411
  460MOL0     H62045   9.835   9.242  11.041  1.1146 -0.8255  2.8487
  460MOL0     H62046   9.889   9.321  10.901 -0.7581 -2.6214 -0.1018
  460MOL0     H62047  10.079   9.236  11.004 -0.7274  0.6875 -2.7212
  460MOL0     H62048  10.087   9.411  11.004  0.2784 -1.3171 -1.2255
  460MOL0     H62049  10.029   9.223  11.246  0.0594 -0.2813  1.5447
  460MOL0     H62050   9.988   9.392  11.253 -1.4110 -1.5443  0.8241
  460MOL0     H62051  10.256   9.542  11.200  3.6944  1.3943 -1.3110
  460MOL0     H62052  10.602   9.442  11.340 -2.5918  0.6448  1.8879
  460MOL0     H62053  10.592   9.457  11.165  2.5752  0.3346  0.6721
  460MOL0     H62054  10.446   9.655  11.348  1.0981  0.7698  1.4206
  460MOL0     H62055  10.442   9.639  11.174 -0.9477  0.3540  0.1410
  460MOL0     H62056  10.715   9.637  11.195 -1.1149 -1.3672  1.0165
  460MOL0     H62057  10.677   9.692  11.359 -6.2082 -2.8243  2.4334
  460MOL0     H62058  10.621   9.858  11.110 -0.3627  1.8988  0.8955
  460MOL0     H62059  10.730   9.882  11.248  0.2352 -2.3962  1.1523
  460MOL0     H62060  10.622  10.101  11.139 -0.2623 -0.7188 -0.5029
  460MOL0     H62061  10.658  10.325  11.096  1.4564  1.7194 -1.1428
  460MOL0     H62062  10.636  10.453  11.208 -0.1836 -0.8574 -0.7138
  460MOL0     H62063  10.793  10.373  11.216  1.0250 -1.2391 -1.6575
  460MOL0     H62064  11.026  10.603  11.505  3.5742 -0.8957  0.3893
  460MOL0     H62065  11.083  10.741  11.707  0.4018 -0.2833  2.2873
  460MOL0     H62066  10.974  10.766  12.132 -4.8140  0.5950  0.1832
  460MOL0     H62067  10.865  10.649  12.094 -0.8273  0.2328  1.7689
  460MOL0     H62068  11.063  10.528  12.198 -1.0209  2.4274  0.5374
  460MOL0     H62069  11.022  10.468  12.037  1.2451  0.4983 -2.0313
  460MOL0     H62070  11.245  10.660  12.073  1.0241  0.2432 -0.5873
  460MOL0     H62071  11.208  10.561  11.934  0.4696  3.0678 -0.5206
  460MOL0     H62072  11.298  10.479  12.227 -1.9147 -0.8616  0.7466
  460MOL0     H62073  11.256  10.361  12.109 -0.1462  0.0164 -1.9102
  460MOL0     H62074  11.475  10.549  12.023 -1.0030  0.1071 -2.4796
  460MOL0     H62075  11.422  10.388  11.972  0.2071  0.0085  0.3062
  460MOL0     H62076  11.538  10.453  12.233  0.9422 -3.5287  3.1874
  460MOL0     H62077  11.476  10.293  12.162 -4.0789  1.6855 -2.2732
  460MOL0     H62078  11.719  10.459  12.063 -1.6339  2.5920  3.2477
  460MOL0     H62079  11.670  10.299  12.005  3.0622 -0.2452 -0.0204
  460MOL0     H62080  11.837  10.243  12.174 -0.3683 -0.1807 -1.0512
  460MOL0     H62081  11.694  10.222  12.262 -0.2708  1.0524  1.6470
  460MOL0     H62082  10.801  10.510  11.945 -0.8532 -1.4191  0.0212
  460MOL0     H62083  10.711  10.417  11.737 -1.4300  2.4859 -1.3070
  460MOL0     H62084  10.586  10.211  11.622 -1.9529  0.5310 -0.6361
  460MOL0     H62085  10.508   9.986  11.537  1.1391 -0.8119 -1.4161
  460MOL0     H62086   9.126   9.918  10.826 -3.5841 -0.9644 -3.8420
  460MOL0     H62087   9.050  10.062  10.657 -0.0216  1.4786  0.4571
  460MOL0     H62088   9.001  10.010  10.129  1.6880 -0.0320  0.6957
  460MOL0     H62089   8.934  10.151   9.930 -1.5002  0.5499  0.7756
  460MOL0     H62090   9.017  10.251   9.751 -1.3060 -0.1426 -1.4176
  460MOL0     H62091   8.859  10.320   9.796 -0.8961 -0.4224 -0.4777
  460MOL0     H62092   8.922  10.520   9.665 -2.3816 -2.0349  1.0041
  460MOL0     H62093   8.931  10.370   9.560 -0.3500  0.6234 -0.0541
  460MOL0     H62094   9.173  10.360   9.615 -2.0251 -1.6396  1.7849
  460MOL0     H62095   9.169  10.533   9.661 -3.3028 -0.6039  2.5684
  460MOL0     H62096   9.089  10.605   9.439 -2.0450 -0.5122  1.9752
  460MOL0     H62097   9.101  10.431   9.385 -1.1928 -1.5362  2.2224
  460MOL0     H62098   9.496  10.577   9.428  0.4106  0.1897  0.9703
  460MOL0     H62099   9.162  10.475  10.107 -0.7028 -0.0088  1.2448
  460MOL0     H62100   9.205  10.335  10.302  0.9284 -0.6922  0.8404
  461MOL0     O62101   7.296   7.706   2.709 -0.3489 -0.5210 -0.8645
  461MOL0     C62102   7.269   7.824   2.720 -0.3219  0.1657  0.3795
  461MOL0     O62103   7.349   7.921   2.779 -0.2217  0.7378  0.3918
  461MOL0     C62104   7.482   7.892   2.802 -0.2511 -0.4526  0.2884
  461MOL0     C62105   7.518   7.941   2.928  0.7583  0.0323  0.8565
  461MOL0     C62106   7.648   7.904   2.972  0.4574 -0.3796  0.2294
  461MOL0     C62107   7.742   7.847   2.887  0.3018  0.5694  1.1368
  461MOL0     O62108   7.879   7.829   2.917 -0.0274 -0.0243 -0.1860
  461MOL0     C62109   7.909   7.776   3.053 -0.5909  0.1139 -0.1175
  461MOL0     C62110   8.034   7.701   3.047 -0.8854  0.3691  0.3657
  461MOL0     C62111   8.154   7.797   3.060  0.1014 -0.4354 -0.3898
  461MOL0     C62112   8.290   7.736   3.083 -0.8036  0.1937  0.3803
  461MOL0     C62113   8.353   7.676   2.959 -0.5845  0.5735  0.6292
  461MOL0     C62114   8.475   7.580   2.996  0.3330 -0.0416 -0.2128
  461MOL0     C62115   8.537   7.537   2.869 -0.4581 -0.9981  0.6975
  461MOL0     C62116   8.645   7.643   2.819  0.0498  0.2239  0.0975
  461MOL0     N62117   8.714   7.620   2.689  0.5970 -0.0937 -0.4433
  461MOL0     C62118   8.761   7.722   2.626 -0.5635 -0.3673 -0.1851
  461MOL0     C62119   8.790   7.683   2.498  0.2218 -0.4469  0.4460
  461MOL0     C62120   8.881   7.751   2.397  0.6004 -1.0305  0.7827
  461MOL0     C62121   8.919   7.662   2.285  0.7992  0.1140  0.8885
  461MOL0     C62122   9.036   7.732   2.208 -0.2875  0.3749 -0.0359
  461MOL0     C62123   8.971   7.839   2.122  0.6893 -0.1449 -0.2288
  461MOL0     O62124   9.060   7.930   2.064  0.4348  0.5578 -0.1954
  461MOL0     C62125   9.012   8.049   2.013  0.3402  0.6166 -0.4085
  461MOL0     C62126   9.094   8.165   2.017 -0.7339 -0.1894 -0.2694
  461MOL0     C62127   9.058   8.291   1.975 -0.5288 -0.3503 -0.4168
  461MOL0     C62128   9.154   8.407   1.988  0.1400 -0.2624  0.1248
  461MOL0     C62129   8.924   8.305   1.934  0.6198 -0.3473 -0.4379
  461MOL0     C62130   8.857   8.444   1.922 -0.2655  0.1626  0.8291
  461MOL0     O62131   8.928   8.560   1.951  0.0545  0.0456 -0.0983
  461MOL0     C62132   8.896   8.680   1.896 -0.6842 -0.3365  0.4416
  461MOL0     C62133   8.810   8.763   1.968  0.0925 -0.5845  0.0615
  461MOL0     C62134   8.773   8.887   1.916 -0.7581  0.1533  0.1679
  461MOL0     C62135   8.815   8.920   1.783  0.4018 -0.0544 -1.4984
  461MOL0     O62136   8.781   9.035   1.717 -0.2034 -0.0414  0.9857
  461MOL0     C62137   8.771   9.160   1.801 -0.2557 -0.6107 -0.5399
  461MOL0     C62138   8.756   9.288   1.715  0.5255  0.1700 -0.4332
  461MOL0     C62139   8.637   9.279   1.624 -0.0776  0.2576 -0.7960
  461MOL0     C62140   8.609   9.409   1.550 -0.0923  0.2512 -0.4527
  461MOL0     C62141   8.469   9.398   1.492 -0.1006  1.1803 -0.5637
  461MOL0     C62142   8.416   9.532   1.426 -0.5053 -0.0818  0.0128
  461MOL0     C62143   8.410   9.657   1.510  0.4075  0.3143  0.6828
  461MOL0     C62144   8.333   9.628   1.643 -0.1990 -0.0267 -0.2410
  461MOL0    Cl62145   8.164   9.590   1.610 -0.1793  0.1436 -0.0633
  461MOL0     C62146   8.894   8.832   1.707  0.3391 -1.3431  0.9801
  461MOL0     C62147   8.935   8.715   1.763 -0.5230 -0.9547 -0.1226
  461MOL0     O62148   8.737   8.449   1.892 -0.6329  0.5518 -0.0187
  461MOL0     C62149   8.840   8.193   1.918 -0.0873 -0.3041  0.1687
  461MOL0     C62150   8.879   8.069   1.964 -0.8762 -0.0788  0.4537
  461MOL0     N62151   8.740   7.551   2.498  0.4321  0.5135 -0.0645
  461MOL0     N62152   8.703   7.511   2.617  0.2091  0.3186  0.6718
  461MOL0     C62153   7.700   7.814   2.756 -0.6992  0.0562  0.2203
  461MOL0     C62154   7.567   7.827   2.714  0.3234  0.5283 -0.0955
  461MOL0     C62155   7.138   7.870   2.673  0.2297  0.3737 -0.7109
  461MOL0     C62156   7.068   7.795   2.581  0.0881  0.3958 -0.3414
  461MOL0     C62157   6.944   7.846   2.525  0.3190 -0.4588 -0.2447
  461MOL0     C62158   6.895   7.966   2.574 -0.6128 -0.1359 -0.2331
  461MOL0     O62159   6.778   8.028   2.537 -0.1096 -0.3684 -0.0009
  461MOL0     C62160   6.692   7.969   2.434  0.4223 -0.1534 -0.5204
  461MOL0     C62161   6.551   7.917   2.499  0.0972 -1.2530  1.2595
  461MOL0     C62162   6.497   8.023   2.596 -0.0678 -0.5445  0.4651
  461MOL0     C62163   6.362   7.981   2.649 -0.2782  0.3235  0.1746
  461MOL0     C62164   6.262   7.965   2.542  0.4520 -0.2334 -0.3690
  461MOL0     C62165   6.183   7.940   2.453  0.5145  0.3827  0.2206
  461MOL0     C62166   6.968   8.039   2.665  0.3049 -0.4134  0.0284
  461MOL0     C62167   7.093   8.001   2.707  0.9416 -0.1284  0.6667
  461MOL0     H62168   7.454   7.997   2.995 -0.9292  0.2919 -0.8778
  461MOL0     H62169   7.688   7.925   3.071  2.6669 -1.2403 -0.4061
  461MOL0     H62170   7.917   7.855   3.127  3.3188  1.5940 -1.8477
  461MOL0     H62171   7.832   7.702   3.079 -1.2278  0.7653 -0.1148
  461MOL0     H62172   8.048   7.619   3.118 -0.5018 -0.1643 -0.3069
  461MOL0     H62173   8.043   7.649   2.951 -0.5605  1.3908 -0.1651
  461MOL0     H62174   8.159   7.853   2.967  1.0558 -1.8443 -1.2340
  461MOL0     H62175   8.134   7.869   3.140 -0.8015 -1.2646  0.1590
  461MOL0     H62176   8.359   7.813   3.118  1.8219 -0.3905 -2.9326
  461MOL0     H62177   8.286   7.663   3.165  0.7321  1.8204  1.9790
  461MOL0     H62178   8.275   7.617   2.911 -0.8014  0.7795  0.7254
  461MOL0     H62179   8.392   7.758   2.898  3.6171  0.0694  2.2651
  461MOL0     H62180   8.547   7.643   3.050  0.6794  1.3143 -2.1616
  461MOL0     H62181   8.440   7.506   3.069  0.9740  0.3922  0.5548
  461MOL0     H62182   8.588   7.444   2.892  1.6103  0.1566  1.0118
  461MOL0     H62183   8.462   7.518   2.792 -0.2300 -0.2581  0.2785
  461MOL0     H62184   8.716   7.659   2.901 -1.1472  3.3017  0.6807
  461MOL0     H62185   8.600   7.740   2.798  0.4235  0.0406 -1.7256
  461MOL0     H62186   8.792   7.822   2.657 -1.1514 -0.2463  0.0351
  461MOL0     H62187   8.824   7.836   2.356  2.1504 -0.0109  0.6640
  461MOL0     H62188   8.966   7.801   2.444  0.8778 -0.5956 -0.1572
  461MOL0     H62189   8.835   7.638   2.220  1.2918 -1.7571  0.8987
  461MOL0     H62190   8.960   7.570   2.327  2.6124  0.5332  0.1509
  461MOL0     H62191   9.085   7.660   2.141  0.1416  0.1376  0.5247
  461MOL0     H62192   9.117   7.777   2.265 -0.4875  2.3668 -1.2500
  461MOL0     H62193   8.901   7.890   2.189 -2.0374 -3.7173 -0.0430
  461MOL0     H62194   8.902   7.789   2.053  0.5355 -3.4442  2.0573
  461MOL0     H62195   9.196   8.158   2.056 -1.2640 -0.3087  1.1527
  461MOL0     H62196   9.135   8.462   1.895 -2.0494 -0.0200  0.6666
  461MOL0     H62197   9.111   8.476   2.061 -2.5460 -0.5647 -1.0376
  461MOL0     H62198   9.258   8.377   2.003  0.2939  0.5700  0.7340
  461MOL0     H62199   8.790   8.742   2.072  1.0312 -1.8175  0.0118
  461MOL0     H62200   8.710   8.955   1.972 -1.2216  0.5607 -0.8316
  461MOL0     H62201   8.678   9.160   1.858  0.6085 -1.4931  0.9152
  461MOL0     H62202   8.856   9.159   1.869 -3.1082 -0.8876  3.3680
  461MOL0     H62203   8.746   9.380   1.773 -0.0679 -0.1469 -0.0263
  461MOL0     H62204   8.846   9.303   1.655 -1.3861 -0.6024 -3.7512
  461MOL0     H62205   8.556   9.250   1.692  0.1187  1.0978 -0.1807
  461MOL0     H62206   8.657   9.200   1.551  0.3795 -0.5934  0.2204
  461MOL0     H62207   8.610   9.484   1.630  0.4425  0.5048 -0.6874
  461MOL0     H62208   8.675   9.427   1.465 -2.1424 -0.0684 -2.1834
  461MOL0     H62209   8.400   9.374   1.573 -0.8310  2.3171 -0.8215
  461MOL0     H62210   8.462   9.317   1.419  0.3848 -0.3928  1.0857
  461MOL0     H62211   8.489   9.558   1.349  0.0862  1.5667  1.0918
  461MOL0     H62212   8.313   9.510   1.395 -0.8292 -0.4283  1.2952
  461MOL0     H62213   8.348   9.727   1.453  0.7400  0.4770  0.5175
  461MOL0     H62214   8.509   9.698   1.531  0.4174 -0.1858  1.6901
  461MOL0     H62215   8.332   9.712   1.712 -4.8092 -0.3575  0.4018
  461MOL0     H62216   8.384   9.544   1.690 -3.5145 -1.5063  1.0310
  461MOL0     H62217   8.923   8.853   1.604  0.3437  1.7559  1.5262
  461MOL0     H62218   8.991   8.646   1.700 -1.7726  0.9674 -3.5841
  461MOL0     H62219   8.742   8.202   1.870  0.7821  1.2542 -1.4544
  461MOL0     H62220   8.813   7.983   1.950 -0.7177 -0.1177 -0.0576
  461MOL0     H62221   7.769   7.776   2.681  0.5203  2.7034 -0.1311
  461MOL0     H62222   7.535   7.796   2.615 -1.9889 -1.4406  1.1330
  461MOL0     H62223   7.102   7.697   2.547 -0.8270  0.0574 -0.3284
  461MOL0     H62224   6.888   7.794   2.448 -1.4636  0.5231  0.3364
  461MOL0     H62225   6.675   8.040   2.353  0.0695  1.2403  0.7226
  461MOL0     H62226   6.735   7.881   2.385 -0.5791  0.1653 -2.0270
  461MOL0     H62227   6.582   7.831   2.557  1.1817 -0.4804  1.8639
  461MOL0     H62228   6.479   7.886   2.422 -1.5047 -0.4789  2.3919
  461MOL0     H62229   6.487   8.126   2.562  0.9980 -0.6349 -0.1641
  461MOL0     H62230   6.570   8.031   2.678 -0.3704  0.5976  0.6386
  461MOL0     H62231   6.326   8.048   2.728  2.8788  0.6903  1.4184
  461MOL0     H62232   6.378   7.882   2.695 -0.7660  0.7729  1.3537
  461MOL0     H62233   6.123   7.928   2.365  2.7574 -0.9155 -1.2346
  461MOL0     H62234   6.942   8.138   2.701  0.1577 -0.5424  0.2791
  461MOL0     H62235   7.162   8.065   2.762 -2.2538  2.0831  2.4582
  462MOL0     O62236   9.515   9.889   8.486  0.0992 -0.4928 -0.3989
  462MOL0     C62237   9.493   9.794   8.412 -0.2250 -0.2775 -0.6428
  462MOL0     O62238   9.577   9.688   8.388 -0.3834 -0.5175  0.1874
  462MOL0     C62239   9.700   9.680   8.455 -0.6846  1.0117  0.3725
  462MOL0     C62240   9.712   9.696   8.594  0.1761 -0.1595  0.3274
  462MOL0     C62241   9.833   9.694   8.661 -0.3502 -0.6646  0.5996
  462MOL0     C62242   9.944   9.670   8.584  0.2641  0.1330  0.5245
  462MOL0     O62243  10.070   9.673   8.629  0.2226 -0.5219  0.2499
  462MOL0     C62244  10.090   9.683   8.772 -0.2535  0.1519  0.9945
  462MOL0     C62245  10.234   9.626   8.800 -0.3564 -0.8742  0.6179
  462MOL0     C62246  10.337   9.731   8.745  0.3284  0.2225 -1.3360
  462MOL0     C62247  10.482   9.697   8.782  0.6871 -1.0171 -1.0962
  462MOL0     C62248  10.570   9.810   8.735 -0.1505 -0.7001  0.4100
  462MOL0     C62249  10.722   9.770   8.764  0.3656  0.2883  0.0286
  462MOL0     C62250  10.817   9.864   8.706 -0.2146 -0.4647 -0.3190
  462MOL0     C62251  10.858   9.835   8.563  0.4667  1.5762 -0.4467
  462MOL0     N62252  10.951   9.720   8.548  0.1715 -0.2913  0.4001
  462MOL0     C62253  11.081   9.699   8.604  0.6476 -0.0464  0.4477
  462MOL0     C62254  11.118   9.575   8.558  0.7112 -0.4569  0.5437
  462MOL0     C62255  11.243   9.515   8.609  0.2795  0.0286 -1.1159
  462MOL0     C62256  11.326   9.453   8.499  0.1699 -0.9284 -0.2700
  462MOL0     C62257  11.454   9.371   8.535 -0.0581 -0.4667 -0.1312
  462MOL0     C62258  11.543   9.334   8.417  0.1946 -0.2852  0.4491
  462MOL0     O62259  11.622   9.441   8.380  0.6297 -0.6933  0.4763
  462MOL0     C62260  11.737   9.475   8.457  0.8371  1.2671 -0.3420
  462MOL0     C62261  11.780   9.415   8.574 -1.2645  0.0552 -1.1132
  462MOL0     C62262  11.886   9.475   8.654  0.0028 -0.0983 -0.1702
  462MOL0     C62263  11.933   9.409   8.780  0.9982 -0.3061 -0.0534
  462MOL0     C62264  11.954   9.585   8.602 -0.2222  0.0529 -0.0068
  462MOL0     C62265  12.070   9.644   8.668  0.2519 -0.3136  0.2952
  462MOL0     O62266  12.187   9.576   8.688  0.1976 -0.0541 -0.3940
  462MOL0     C62267  12.289   9.642   8.751  0.2761 -0.0114  0.4350
  462MOL0     C62268  12.269   9.675   8.881 -0.0186  0.0759  0.0885
  462MOL0     C62269  12.366   9.764   8.945  0.0507 -0.9257  0.7878
  462MOL0     C62270  12.494   9.792   8.887  1.5266 -0.4923 -0.4527
  462MOL0     O62271  12.582   9.876   8.940  0.1404  0.7571 -0.1056
  462MOL0     C62272  12.719   9.828   8.946 -0.1460 -0.0985 -0.2819
  462MOL0     C62273  12.798   9.923   9.043 -0.3531  1.0199 -0.0835
  462MOL0     C62274  12.949   9.936   9.029  0.6695  0.2984  0.2727
  462MOL0     C62275  13.010   9.791   9.035 -0.0332 -0.9142 -0.3675
  462MOL0     C62276  13.155   9.791   8.992 -0.8549 -0.0325 -0.8847
  462MOL0     C62277  13.226   9.653   9.009  0.3000 -0.1040 -0.5205
  462MOL0     C62278  13.192   9.552   8.899  0.2993 -1.2296  1.1477
  462MOL0     C62279  13.259   9.419   8.934  0.5573  0.7078 -0.1589
  462MOL0    Cl62280  13.437   9.420   8.981 -0.2727 -0.1706 -0.0200
  462MOL0     C62281  12.504   9.735   8.758  0.3365 -0.2752  1.0609
  462MOL0     C62282  12.404   9.667   8.683 -0.7800 -0.4917 -0.1651
  462MOL0     O62283  12.054   9.763   8.694  0.5802  0.3822  0.0703
  462MOL0     C62284  11.907   9.652   8.492 -0.2440  0.0203  0.3804
  462MOL0     C62285  11.806   9.590   8.421 -0.2118  0.2112 -0.7473
  462MOL0     N62286  11.009   9.520   8.498  1.1040 -0.1990 -0.1635
  462MOL0     N62287  10.908   9.604   8.482  0.0041 -0.4518  0.0540
  462MOL0     C62288   9.933   9.644   8.445 -0.6798  0.7914  0.1780
  462MOL0     C62289   9.810   9.638   8.382 -0.3437  1.2906 -0.3431
  462MOL0     C62290   9.358   9.791   8.353 -0.4115  0.2805 -1.0080
  462MOL0     C62291   9.291   9.672   8.342 -0.4638  0.3862 -0.0631
  462MOL0     C62292   9.161   9.667   8.296 -0.3878  0.1890 -0.8517
  462MOL0     C62293   9.093   9.777   8.259  0.9100  0.2425  0.7460
  462MOL0     O62294   8.963   9.765   8.212 -0.0467 -0.0930 -0.1588
  462MOL0     C62295   8.870   9.875   8.219  0.3046 -0.2336 -0.1106
  462MOL0     C62296   8.733   9.825   8.178 -0.4398  0.1566 -0.2028
  462MOL0     C62297   8.649   9.772   8.293 -0.2031 -0.1815 -1.0065
  462MOL0     C62298   8.668   9.633   8.340  0.1915  0.9235 -0.2255
  462MOL0     C62299   8.785   9.606   8.429 -0.5528 -0.2607  0.0223
  462MOL0     C62300   8.888   9.598   8.502  1.3724  0.2183  0.3352
  462MOL0     C62301   9.164   9.900   8.261 -0.2835 -0.2806 -0.3220
  462MOL0     C62302   9.297   9.907   8.316 -0.8139 -0.6457 -0.0493
  462MOL0     H62303   9.632   9.730   8.660 -1.0633 -0.7163 -0.8501
  462MOL0     H62304   9.829   9.730   8.763 -0.0022 -0.3676  0.5122
  462MOL0     H62305  10.076   9.786   8.804 -3.0993  0.5984 -1.3017
  462MOL0     H62306  10.014   9.617   8.813 -1.0082 -0.5729 -1.3829
  462MOL0     H62307  10.234   9.605   8.907 -2.4708 -0.3724  0.7582
  462MOL0     H62308  10.261   9.529   8.757 -1.2058 -0.5321 -0.7547
  462MOL0     H62309  10.319   9.741   8.637 -0.6603 -3.7589 -1.7147
  462MOL0     H62310  10.318   9.826   8.795 -1.3991  0.2197 -1.9306
  462MOL0     H62311  10.493   9.678   8.889  1.1074 -2.2585 -1.3424
  462MOL0     H62312  10.505   9.609   8.722  0.6245 -1.9995  0.2809
  462MOL0     H62313  10.552   9.836   8.630  1.8433  2.7490  0.7509
  462MOL0     H62314  10.548   9.902   8.790  5.9972  1.5569 -0.1204
  462MOL0     H62315  10.750   9.763   8.870 -0.3560 -3.5236  0.1123
  462MOL0     H62316  10.740   9.667   8.733 -3.1660 -0.9718  1.5689
  462MOL0     H62317  10.772   9.964   8.699 -0.0694 -0.4630 -1.4051
  462MOL0     H62318  10.910   9.877   8.762  0.1237 -1.1067 -0.7153
  462MOL0     H62319  10.920   9.917   8.528  3.7513  0.8916  3.0906
  462MOL0     H62320  10.770   9.814   8.501  0.9625 -1.2452 -0.3280
  462MOL0     H62321  11.132   9.771   8.668 -1.0284 -0.1596  1.9902
  462MOL0     H62322  11.306   9.592   8.655 -0.5240  0.7593 -1.2246
  462MOL0     H62323  11.219   9.453   8.696  2.4746  1.4617  0.6561
  462MOL0     H62324  11.353   9.531   8.427  0.9680 -0.4076  0.5800
  462MOL0     H62325  11.256   9.380   8.455 -1.3052 -1.6845  3.0197
  462MOL0     H62326  11.425   9.275   8.580  0.2913  0.1220  1.3990
  462MOL0     H62327  11.525   9.419   8.603  0.1317 -3.1876  1.7703
  462MOL0     H62328  11.476   9.304   8.335  0.8805  0.2926 -0.3360
  462MOL0     H62329  11.608   9.248   8.435 -0.1736 -1.1352 -1.9153
  462MOL0     H62330  11.734   9.333   8.628 -0.9854  0.6056 -0.0023
  462MOL0     H62331  11.885   9.311   8.794 -0.9128  0.7143  1.0575
  462MOL0     H62332  12.040   9.387   8.775  0.7053 -1.5071 -2.2310
  462MOL0     H62333  11.896   9.477   8.858  2.9184  0.1910  0.4735
  462MOL0     H62334  12.181   9.639   8.932 -0.7875  1.0822 -0.4937
  462MOL0     H62335  12.341   9.810   9.040  0.5912 -1.5898  1.2634
  462MOL0     H62336  12.734   9.725   8.977  0.5446  0.5666  1.7920
  462MOL0     H62337  12.759   9.836   8.845  0.2429  3.8764  0.0317
  462MOL0     H62338  12.752  10.022   9.041 -1.6274  0.4540 -2.1841
  462MOL0     H62339  12.781   9.884   9.143  0.7213  0.9000  0.0666
  462MOL0     H62340  12.986  10.002   9.107  0.0519  1.6734 -0.5714
  462MOL0     H62341  12.966   9.980   8.931 -1.3510  2.6191  0.8741
  462MOL0     H62342  12.996   9.749   9.134 -1.7124 -0.5573 -0.4267
  462MOL0     H62343  12.957   9.727   8.963 -2.0441  0.3668 -0.1000
  462MOL0     H62344  13.198   9.875   9.047  3.5660 -0.4074 -3.3385
  462MOL0     H62345  13.177   9.812   8.887  2.3784  1.0276 -0.1071
  462MOL0     H62346  13.334   9.668   9.009  0.6507 -2.3739 -0.8642
  462MOL0     H62347  13.193   9.618   9.108 -2.3363  1.9925 -0.5310
  462MOL0     H62348  13.231   9.585   8.803  1.1847 -2.1785  1.1523
  462MOL0     H62349  13.084   9.537   8.890  0.4728 -1.8429 -0.1069
  462MOL0     H62350  13.262   9.350   8.849  3.3039 -0.0376  0.4354
  462MOL0     H62351  13.201   9.384   9.019  2.0024 -1.5841 -0.0178
  462MOL0     H62352  12.590   9.778   8.709  0.2272 -2.0071 -0.8074
  462MOL0     H62353  12.421   9.652   8.577 -0.0891  1.1277 -0.3228
  462MOL0     H62354  11.947   9.748   8.462 -0.0744 -0.2204 -0.1756
  462MOL0     H62355  11.767   9.633   8.330 -0.5864  2.2838  0.3323
  462MOL0     H62356  10.015   9.613   8.381 -1.9706 -0.7995 -0.7786
  462MOL0     H62357   9.805   9.590   8.284 -0.7300 -0.3552  0.4443
  462MOL0     H62358   9.334   9.574   8.356 -2.3925 -0.5174 -0.0359
  462MOL0     H62359   9.106   9.573   8.292  0.2712 -0.1558 -2.7634
  462MOL0     H62360   8.885   9.922   8.317  0.8620 -3.0884  1.2723
  462MOL0     H62361   8.895   9.951   8.145 -0.3417  0.6106  0.5058
  462MOL0     H62362   8.740   9.751   8.098  0.0718  2.2430 -2.1966
  462MOL0     H62363   8.677   9.906   8.130  0.5405 -0.1952 -2.0228
  462MOL0     H62364   8.541   9.780   8.275 -0.2723 -3.1965 -2.6599
  462MOL0     H62365   8.683   9.846   8.366  2.6334  1.7397 -3.9852
  462MOL0     H62366   8.673   9.579   8.245 -0.5360  2.6870 -1.3098
  462MOL0     H62367   8.583   9.596   8.397  0.8097  1.3128  0.9937
  462MOL0     H62368   8.980   9.617   8.554  1.8195 -3.4388  1.1372
  462MOL0     H62369   9.122   9.992   8.224  3.5307  1.7867  0.0016
  462MOL0     H62370   9.354   9.999   8.328 -0.3041 -0.9110 -0.4244
  463MOL0     O62371   6.743   7.503   1.703  0.4258 -0.7440 -0.0981
  463MOL0     C62372   6.774   7.402   1.634 -0.6223 -1.4395 -0.1978
  463MOL0     O62373   6.736   7.273   1.668  0.0365 -0.8236  0.5296
  463MOL0     C62374   6.665   7.260   1.776  0.0884 -0.3983  0.3316
  463MOL0     C62375   6.525   7.258   1.764 -0.3192 -1.0099 -0.7058
  463MOL0     C62376   6.442   7.254   1.879  0.4251  0.0532 -0.2922
  463MOL0     C62377   6.494   7.249   2.011  0.4190 -0.1640  0.4380
  463MOL0     O62378   6.411   7.250   2.115 -0.1543  0.3194 -0.3604
  463MOL0     C62379   6.418   7.127   2.203  0.3681 -0.8268 -0.9792
  463MOL0     C62380   6.280   7.120   2.268  0.3488  0.1819  0.1498
  463MOL0     C62381   6.166   7.111   2.173 -0.4816  0.3212  0.0130
  463MOL0     C62382   6.036   7.168   2.238  0.5192  0.1496 -0.6069
  463MOL0     C62383   5.921   7.200   2.133  0.2164  0.1146 -0.0862
  463MOL0     C62384   5.880   7.079   2.042  0.4747  0.4197  0.0281
  463MOL0     C62385   5.851   6.943   2.113  0.8512 -0.6083 -0.0871
  463MOL0     C62386   5.722   6.970   2.191  0.2661  1.0404  0.4803
  463MOL0     N62387   5.710   6.864   2.293  0.6135  0.6702  0.3621
  463MOL0     C62388   5.616   6.849   2.393  0.4408 -0.1482 -0.7240
  463MOL0     C62389   5.630   6.723   2.444  0.1423 -0.6328 -0.3282
  463MOL0     C62390   5.559   6.661   2.549 -0.7016  0.5988 -0.7647
  463MOL0     C62391   5.492   6.754   2.642 -0.6255  0.3147 -0.1919
  463MOL0     C62392   5.466   6.699   2.781  0.0447 -0.0953  0.0033
  463MOL0     C62393   5.372   6.573   2.798  0.2617 -0.8997  0.1719
  463MOL0     O62394   5.242   6.592   2.751 -0.7898 -0.6657 -0.4963
  463MOL0     C62395   5.140   6.514   2.795  0.6345  0.5809 -0.1359
  463MOL0     C62396   5.011   6.559   2.752  0.5960 -0.3391 -1.0270
  463MOL0     C62397   4.900   6.491   2.796  0.1476  0.8342  0.4503
  463MOL0     C62398   4.766   6.529   2.745 -0.2713  0.5837 -1.2638
  463MOL0     C62399   4.914   6.374   2.876  0.2773 -0.4403 -0.1636
  463MOL0     C62400   4.793   6.290   2.928 -1.2209 -0.0519  0.8697
  463MOL0     O62401   4.825   6.160   2.962 -0.1760 -0.5388 -0.3324
  463MOL0     C62402   4.766   6.090   3.054  0.2160  0.2307  1.2287
  463MOL0     C62403   4.850   6.013   3.136 -0.7986  0.0810 -0.3070
  463MOL0     C62404   4.797   5.904   3.206 -0.3461 -0.6727  0.3511
  463MOL0     C62405   4.660   5.872   3.201 -0.3004  1.2230  0.0996
  463MOL0     O62406   4.618   5.760   3.272 -0.3112  0.6564  0.7065
  463MOL0     C62407   4.481   5.714   3.248  0.0829 -0.1424  0.5823
  463MOL0     C62408   4.469   5.595   3.339 -0.7776  0.3276 -0.7363
  463MOL0     C62409   4.549   5.476   3.292  0.3874 -0.5748 -0.2758
  463MOL0     C62410   4.604   5.385   3.408 -0.8040  0.0171  0.6446
  463MOL0     C62411   4.714   5.286   3.384  0.4328  0.4107 -0.5653
  463MOL0     C62412   4.778   5.261   3.519  0.2333  0.5739 -0.5857
  463MOL0     C62413   4.886   5.166   3.521  0.2284 -0.1656  0.4437
  463MOL0     C62414   4.893   5.081   3.645  0.1653  0.2746  0.5655
  463MOL0    Cl62415   4.969   5.164   3.787 -0.2548 -0.1763 -0.0909
  463MOL0     C62416   4.574   5.963   3.133  0.1004  0.7850 -0.1314
  463MOL0     C62417   4.629   6.071   3.059 -0.1198 -0.5912 -0.1952
  463MOL0     O62418   4.687   6.347   2.939  0.0174 -0.6574 -0.3203
  463MOL0     C62419   5.046   6.335   2.918  0.2709 -0.0624 -0.3909
  463MOL0     C62420   5.157   6.400   2.880 -0.6252 -0.4919  0.8877
  463MOL0     N62421   5.738   6.664   2.378 -0.5640 -0.0384  0.3484
  463MOL0     N62422   5.778   6.749   2.292 -0.1640  0.4215  0.3864
  463MOL0     C62423   6.635   7.241   2.019  0.0700 -0.5089 -0.8602
  463MOL0     C62424   6.714   7.240   1.905  0.2649 -0.2369  0.9473
  463MOL0     C62425   6.855   7.423   1.516 -0.3107 -0.0254  0.5338
  463MOL0     C62426   6.925   7.540   1.503 -0.3764 -1.0090  1.2687
  463MOL0     C62427   7.000   7.571   1.390 -0.8005  0.5761 -0.5630
  463MOL0     C62428   7.015   7.470   1.288 -0.2805 -0.3815  0.4479
  463MOL0     O62429   7.099   7.487   1.178  0.0308 -0.1637 -0.1266
  463MOL0     C62430   7.160   7.614   1.158  0.5872 -0.1921  0.9933
  463MOL0     C62431   7.258   7.600   1.042 -0.1433 -0.4552 -0.3545
  463MOL0     C62432   7.379   7.686   1.066  0.1310 -0.3914  0.4047
  463MOL0     C62433   7.340   7.829   1.055 -0.2396  0.2702 -0.3598
  463MOL0     C62434   7.451   7.921   1.042 -0.8532  0.2919 -0.1271
  463MOL0     C62435   7.557   7.987   1.061 -0.0465  0.6502  0.8543
  463MOL0     C62436   6.952   7.345   1.307  0.1800  0.1052  0.3746
  463MOL0     C62437   6.866   7.324   1.413  0.1267 -0.1365  0.2995
  463MOL0     H62438   6.473   7.263   1.669 -0.3721  1.3953 -0.6056
  463MOL0     H62439   6.336   7.267   1.856  0.2408  1.0782  1.0243
  463MOL0     H62440   6.442   7.034   2.151  1.0629 -0.9714 -0.4216
  463MOL0     H62441   6.480   7.146   2.291 -2.0440  1.4438  0.3909
  463MOL0     H62442   6.281   7.023   2.320  2.0888  0.2218  0.2555
  463MOL0     H62443   6.260   7.200   2.340 -1.3837  0.1915 -0.2902
  463MOL0     H62444   6.188   7.172   2.085  1.3704 -0.3528 -0.0365
  463MOL0     H62445   6.154   7.007   2.141 -3.9918  0.0699  1.6512
  463MOL0     H62446   6.004   7.087   2.304  0.1878 -0.4664 -1.5043
  463MOL0     H62447   6.055   7.261   2.292 -2.4776  0.7226 -0.3374
  463MOL0     H62448   5.831   7.235   2.184  0.1837 -2.3902  1.7272
  463MOL0     H62449   5.957   7.282   2.069  3.5657  1.5134  3.1601
  463MOL0     H62450   5.794   7.118   1.986  0.5436  0.5855  0.0350
  463MOL0     H62451   5.964   7.062   1.974 -1.1483 -0.8382 -1.7449
  463MOL0     H62452   5.835   6.861   2.043 -2.1507 -1.0868  1.0480
  463MOL0     H62453   5.941   6.917   2.170  1.7688  0.8640 -0.7764
  463MOL0     H62454   5.634   6.958   2.127  1.5849  0.5238 -1.3289
  463MOL0     H62455   5.719   7.072   2.231  2.3532 -0.3402  4.7859
  463MOL0     H62456   5.539   6.922   2.415 -1.3868 -2.1096 -0.2471
  463MOL0     H62457   5.480   6.602   2.501 -2.0790  0.3662  1.5765
  463MOL0     H62458   5.622   6.588   2.601 -1.7772  0.7590  0.8726
  463MOL0     H62459   5.399   6.790   2.597  0.3826 -0.0524 -2.7220
  463MOL0     H62460   5.551   6.844   2.663  0.8942 -1.1043  2.0546
  463MOL0     H62461   5.430   6.777   2.849 -2.1572  0.0340 -1.2069
  463MOL0     H62462   5.566   6.677   2.819 -0.4566 -0.4568  1.1435
  463MOL0     H62463   5.370   6.545   2.904  0.9277 -2.4597 -0.1887
  463MOL0     H62464   5.420   6.497   2.735  0.8900  1.6701 -2.6866
  463MOL0     H62465   5.001   6.649   2.692  0.0335 -1.3770 -2.5455
  463MOL0     H62466   4.695   6.558   2.823  1.3283 -1.7237  1.2445
  463MOL0     H62467   4.779   6.608   2.672  3.3423 -1.3316 -2.9542
  463MOL0     H62468   4.717   6.451   2.685 -2.3516  2.3362 -1.9756
  463MOL0     H62469   4.957   6.026   3.140 -1.0530  2.0896  1.2610
  463MOL0     H62470   4.867   5.842   3.261  0.7929  0.5852  0.3605
  463MOL0     H62471   4.422   5.802   3.272  0.8601  1.4753 -2.9069
  463MOL0     H62472   4.465   5.683   3.145 -2.3299  2.0411  0.2142
  463MOL0     H62473   4.508   5.623   3.437  0.4832 -0.4019 -1.0074
  463MOL0     H62474   4.364   5.565   3.339 -0.5171 -0.6661  0.5866
  463MOL0     H62475   4.636   5.512   3.236  0.0094  2.1436  0.7429
  463MOL0     H62476   4.482   5.424   3.222 -0.0472  0.4442 -0.6353
  463MOL0     H62477   4.645   5.448   3.487  4.3849  1.5413 -2.8222
  463MOL0     H62478   4.515   5.336   3.450  0.7698 -2.5789  1.1591
  463MOL0     H62479   4.782   5.343   3.320  1.9883 -2.0419 -1.2356
  463MOL0     H62480   4.680   5.192   3.339 -0.5293 -0.8158  2.4718
  463MOL0     H62481   4.816   5.354   3.561 -3.0871  1.8040 -0.0471
  463MOL0     H62482   4.705   5.223   3.590  0.1036  3.1481  0.7867
  463MOL0     H62483   4.981   5.219   3.507  0.2188 -0.4260 -0.7158
  463MOL0     H62484   4.869   5.102   3.434 -0.2728  1.6402 -0.8345
  463MOL0     H62485   4.950   4.989   3.627  0.3182  0.4144  0.3209
  463MOL0     H62486   4.793   5.047   3.671  0.2174 -0.6117 -0.3076
  463MOL0     H62487   4.467   5.946   3.141  0.8321 -4.3231  3.2547
  463MOL0     H62488   4.565   6.139   3.004  1.5532  2.4194  1.3459
  463MOL0     H62489   5.052   6.241   2.972  2.0591  0.1154 -0.2059
  463MOL0     H62490   5.253   6.351   2.888 -1.6173 -2.9714 -0.9024
  463MOL0     H62491   6.691   7.233   2.112 -0.1707 -3.1308 -0.8464
  463MOL0     H62492   6.822   7.229   1.908  0.3441  0.5041  0.9717
  463MOL0     H62493   6.918   7.625   1.571  0.1239  0.5570 -0.5432
  463MOL0     H62494   7.041   7.671   1.395 -2.4335  1.2362  1.4443
  463MOL0     H62495   7.085   7.687   1.126 -0.3052 -1.0030  1.2055
  463MOL0     H62496   7.204   7.661   1.247  2.6642  2.3122 -1.1565
  463MOL0     H62497   7.214   7.633   0.947  1.6960  0.4259 -0.9339
  463MOL0     H62498   7.298   7.501   1.016 -2.4021 -0.8903 -2.7143
  463MOL0     H62499   7.454   7.651   0.993 -0.9378  0.6010 -1.2432
  463MOL0     H62500   7.419   7.677   1.167 -1.1802  0.5020  1.0194
  463MOL0     H62501   7.291   7.852   1.150 -1.5834  1.1246 -1.2346
  463MOL0     H62502   7.277   7.847   0.967  0.9088 -3.0837 -2.0446
  463MOL0     H62503   7.656   8.022   1.082  0.0012  1.0422  0.0189
  463MOL0     H62504   6.946   7.268   1.230 -1.7184  2.8461 -2.4699
  463MOL0     H62505   6.819   7.226   1.421  0.7082 -0.3633  1.2362
  464MOL0     O62506   8.411   3.001   6.184 -0.2161 -0.2595 -0.3665
  464MOL0     C62507   8.426   3.053   6.078 -0.8105 -0.1386 -0.4315
  464MOL0     O62508   8.328   3.087   5.991  0.3697  0.0679  0.6950
  464MOL0     C62509   8.197   3.054   6.022  0.0581 -1.1480 -0.0206
  464MOL0     C62510   8.115   3.107   6.133  0.2649  0.2809 -0.0402
  464MOL0     C62511   7.979   3.063   6.150  0.3563  0.1323  0.9402
  464MOL0     C62512   7.923   2.991   6.038  0.2721 -0.7658  0.1142
  464MOL0     O62513   7.789   2.973   6.023 -0.7362  0.0710  0.4066
  464MOL0     C62514   7.696   3.056   6.103 -0.2873  0.1312  0.5993
  464MOL0     C62515   7.550   3.040   6.042  0.2529  0.7601  0.0178
  464MOL0     C62516   7.486   2.920   6.110  0.4478  0.5740  0.2168
  464MOL0     C62517   7.345   2.882   6.051  0.5705  0.3880 -0.2582
  464MOL0     C62518   7.310   2.752   6.133  0.5683  0.0284  0.1505
  464MOL0     C62519   7.190   2.689   6.076 -0.3404  0.0369 -0.8340
  464MOL0     C62520   7.140   2.561   6.152  0.1278  0.0933 -0.0264
  464MOL0     C62521   7.078   2.579   6.300 -0.5188 -0.3566  1.4563
  464MOL0     N62522   7.029   2.447   6.354 -0.1034 -0.2264  0.3274
  464MOL0     C62523   7.074   2.317   6.323  0.0393 -0.1413  0.2955
  464MOL0     C62524   6.992   2.238   6.410  0.1825 -0.5965 -0.3788
  464MOL0     C62525   7.000   2.081   6.438 -0.6544 -0.3461  0.9658
  464MOL0     C62526   6.896   2.041   6.539 -0.2897 -0.3154  1.1574
  464MOL0     C62527   6.755   2.040   6.493  0.6792 -0.5019 -0.6776
  464MOL0     C62528   6.652   2.011   6.599 -0.2675 -0.6561  0.5037
  464MOL0     O62529   6.535   1.979   6.527  0.6109 -0.1421 -0.6341
  464MOL0     C62530   6.443   2.086   6.508  0.2776 -1.3051  1.2629
  464MOL0     C62531   6.466   2.225   6.533 -0.6229  1.0313  0.3887
  464MOL0     C62532   6.363   2.321   6.502 -1.1429  0.0194 -0.1504
  464MOL0     C62533   6.408   2.464   6.507  0.0347  0.3362 -0.2166
  464MOL0     C62534   6.239   2.276   6.459  0.4613 -0.7156  0.3510
  464MOL0     C62535   6.124   2.364   6.453 -0.0338  0.3553  0.0919
  464MOL0     O62536   6.026   2.340   6.547  0.6259  0.0483 -0.0775
  464MOL0     C62537   5.921   2.432   6.550  0.5359  0.3187 -1.0634
  464MOL0     C62538   5.794   2.374   6.547  0.0180 -0.1699 -0.2503
  464MOL0     C62539   5.684   2.460   6.560  0.0539 -0.2282 -0.9484
  464MOL0     C62540   5.695   2.601   6.569  0.4742  0.5136 -0.9939
  464MOL0     O62541   5.580   2.673   6.588  1.0278 -0.0705 -0.2820
  464MOL0     C62542   5.576   2.820   6.596 -1.9041 -0.2876 -0.6583
  464MOL0     C62543   5.439   2.843   6.655  0.9677 -0.4429 -0.0662
  464MOL0     C62544   5.322   2.807   6.563  0.2633 -0.1290  0.0808
  464MOL0     C62545   5.189   2.818   6.641  0.1024  0.4944  0.0770
  464MOL0     C62546   5.079   2.789   6.539 -0.3123  0.4708  0.7795
  464MOL0     C62547   4.950   2.758   6.615  0.4802  1.0070 -0.5631
  464MOL0     C62548   4.847   2.727   6.509  0.5101  0.4272  0.3392
  464MOL0     C62549   4.739   2.627   6.575 -0.0294 -0.4384  0.8827
  464MOL0    Cl62550   4.659   2.727   6.692  0.2921  0.0179  0.2537
  464MOL0     C62551   5.825   2.660   6.562  0.0172 -0.0996  0.5221
  464MOL0     C62552   5.934   2.571   6.548 -0.0932 -0.0354  0.5564
  464MOL0     O62553   6.136   2.454   6.375 -0.0804  0.4035  0.2631
  464MOL0     C62554   6.217   2.141   6.431 -0.1651  0.5233  0.3262
  464MOL0     C62555   6.322   2.051   6.459 -0.4263 -0.6092 -0.0935
  464MOL0     N62556   6.910   2.323   6.475 -0.3967  0.2658 -0.2420
  464MOL0     N62557   6.923   2.444   6.436  0.6551  1.1010 -0.6025
  464MOL0     C62558   8.004   2.950   5.937 -0.5053 -0.4432  0.8028
  464MOL0     C62559   8.142   2.974   5.927  0.1851  0.8491 -0.6099
  464MOL0     C62560   8.562   3.099   6.053 -1.7905  0.4350  0.1694
  464MOL0     C62561   8.669   3.031   6.125 -0.6969  0.9999  0.1194
  464MOL0     C62562   8.800   3.082   6.124 -0.0519  0.0654  0.4432
  464MOL0     C62563   8.834   3.197   6.051  0.7457 -0.3709 -0.4582
  464MOL0     O62564   8.963   3.239   6.070 -0.2669 -0.0081  0.2890
  464MOL0     C62565   8.967   3.372   6.127 -0.0581 -0.7690  0.3390
  464MOL0     C62566   9.100   3.365   6.217 -0.2727  0.0132  0.0464
  464MOL0     C62567   9.237   3.353   6.141  0.3950 -0.0091  0.5688
  464MOL0     C62568   9.369   3.379   6.209  0.7436 -0.0392 -0.8042
  464MOL0     C62569   9.455   3.456   6.112 -0.6735 -0.1887  0.1280
  464MOL0     C62570   9.532   3.522   6.041  1.2283  0.0725 -0.6829
  464MOL0     C62571   8.731   3.258   5.971  0.4623  0.7132 -0.7133
  464MOL0     C62572   8.599   3.214   5.972 -0.6199  0.2961  0.5580
  464MOL0     H62573   8.166   3.160   6.212  3.5933 -1.8255 -0.5647
  464MOL0     H62574   7.934   3.093   6.244  1.7416 -2.5578  2.5913
  464MOL0     H62575   7.705   3.028   6.208  3.1661 -0.1766  0.3479
  464MOL0     H62576   7.731   3.159   6.090 -0.6351  0.2008  0.2007
  464MOL0     H62577   7.492   3.128   6.070 -0.6314  1.1286 -2.6403
  464MOL0     H62578   7.545   3.039   5.933 -1.1238 -1.0955  0.0394
  464MOL0     H62579   7.553   2.835   6.099  0.3429  0.6903 -1.6727
  464MOL0     H62580   7.465   2.949   6.213 -0.1585  0.6523  0.0768
  464MOL0     H62581   7.275   2.964   6.071  1.2979  0.8736  0.3952
  464MOL0     H62582   7.355   2.863   5.944  1.7765  0.5224 -0.1835
  464MOL0     H62583   7.387   2.674   6.143  1.6008  1.1547  1.2723
  464MOL0     H62584   7.289   2.787   6.234 -1.4439 -2.7228  0.8057
  464MOL0     H62585   7.118   2.772   6.083  0.0743  0.2651  3.1040
  464MOL0     H62586   7.199   2.662   5.971 -0.3453 -2.7845 -0.1784
  464MOL0     H62587   7.060   2.519   6.090 -0.0789  2.0927 -1.1953
  464MOL0     H62588   7.220   2.486   6.152  1.2822  1.2759  0.1036
  464MOL0     H62589   6.991   2.644   6.288 -0.4833 -0.6222 -0.4574
  464MOL0     H62590   7.144   2.629   6.371 -2.6630  2.5166  1.6117
  464MOL0     H62591   7.157   2.283   6.263  0.4782 -0.9732  1.3302
  464MOL0     H62592   6.993   2.026   6.344 -1.8934  1.4989 -0.0921
  464MOL0     H62593   7.103   2.072   6.474  0.5675  3.3352 -1.0342
  464MOL0     H62594   6.904   2.091   6.636 -0.7733 -2.0857  2.1541
  464MOL0     H62595   6.916   1.937   6.566 -2.6171 -1.1636 -0.1194
  464MOL0     H62596   6.744   1.973   6.407  0.6400  0.4124 -1.4022
  464MOL0     H62597   6.731   2.141   6.457 -1.3660 -0.3145  1.0138
  464MOL0     H62598   6.642   2.095   6.668  1.3174  0.8466 -1.0066
  464MOL0     H62599   6.676   1.926   6.664 -0.0638  0.7346  2.3107
  464MOL0     H62600   6.561   2.263   6.569 -0.2997 -0.5938  1.3402
  464MOL0     H62601   6.514   2.469   6.531 -0.2512 -0.2073  1.3165
  464MOL0     H62602   6.400   2.504   6.406 -3.2651  0.3635 -0.0598
  464MOL0     H62603   6.360   2.525   6.584  1.0808 -1.7781  2.2479
  464MOL0     H62604   5.784   2.266   6.544 -1.4998 -0.1150  1.2349
  464MOL0     H62605   5.595   2.398   6.561  0.5897 -1.0198  0.4950
  464MOL0     H62606   5.647   2.861   6.668 -2.3899  2.9827 -1.8632
  464MOL0     H62607   5.599   2.866   6.499 -1.3937  1.8295  0.4267
  464MOL0     H62608   5.433   2.778   6.743  0.1921 -1.0562 -0.5665
  464MOL0     H62609   5.435   2.948   6.686 -0.1999  0.1684 -2.1020
  464MOL0     H62610   5.327   2.713   6.508  3.1762  0.6879 -1.2115
  464MOL0     H62611   5.324   2.883   6.484  1.4537 -0.7207 -0.4720
  464MOL0     H62612   5.200   2.751   6.726 -0.3133  1.1376  0.6524
  464MOL0     H62613   5.182   2.917   6.688  3.7104  0.4586  0.9764
  464MOL0     H62614   5.090   2.707   6.468  0.9230  2.7180 -1.8253
  464MOL0     H62615   5.066   2.884   6.485 -1.7107  1.1474  2.2218
  464MOL0     H62616   4.962   2.672   6.681 -2.3128  1.3867  0.5737
  464MOL0     H62617   4.935   2.843   6.682  3.0921  1.0279  0.0969
  464MOL0     H62618   4.886   2.678   6.419 -1.4987 -3.3051  1.3004
  464MOL0     H62619   4.804   2.823   6.478  1.3581  1.0277  0.9717
  464MOL0     H62620   4.788   2.536   6.613  1.2266  0.6153  1.9030
  464MOL0     H62621   4.669   2.599   6.496  2.4472 -1.8893 -0.9409
  464MOL0     H62622   5.842   2.767   6.560 -0.6630  0.0051  0.0949
  464MOL0     H62623   6.037   2.601   6.532 -0.0814 -1.3413 -2.4565
  464MOL0     H62624   6.123   2.095   6.400 -0.1396 -0.7941  2.0174
  464MOL0     H62625   6.306   1.943   6.451 -0.0142 -0.6385 -0.5541
  464MOL0     H62626   7.950   2.904   5.855 -0.4611  4.1108 -2.1045
  464MOL0     H62627   8.196   2.935   5.841 -0.3165 -1.5100  0.0737
  464MOL0     H62628   8.654   2.941   6.183  2.7125  1.5120  2.1094
  464MOL0     H62629   8.875   3.030   6.182  1.6567  1.2422 -0.6325
  464MOL0     H62630   8.967   3.442   6.043  0.2217 -2.1232 -0.8183
  464MOL0     H62631   8.883   3.404   6.189  2.5476 -0.2768  3.9180
  464MOL0     H62632   9.079   3.288   6.291  0.2676 -1.0404 -0.8587
  464MOL0     H62633   9.105   3.464   6.262  1.6347  0.6286 -1.3689
  464MOL0     H62634   9.239   3.433   6.066  1.7067 -1.3665 -0.9112
  464MOL0     H62635   9.230   3.253   6.098  0.5858  0.0348  0.4326
  464MOL0     H62636   9.408   3.282   6.240 -2.1286 -0.7328  1.0055
  464MOL0     H62637   9.369   3.445   6.296 -0.4943  0.8122 -1.4130
  464MOL0     H62638   9.602   3.572   5.976 -0.9414  0.8183 -2.5692
  464MOL0     H62639   8.752   3.344   5.909 -0.8249 -0.3085 -2.6776
  464MOL0     H62640   8.523   3.274   5.923  2.3169  2.0556 -2.1822
  465MOL0     O62641   7.530   2.355   6.652  0.3226  0.8607 -0.5619
  465MOL0     C62642   7.405   2.368   6.649 -0.5180 -0.3159  0.1101
  465MOL0     O62643   7.315   2.292   6.581  0.2841 -0.0341  0.6015
  465MOL0     C62644   7.374   2.186   6.510 -1.6759 -0.9751 -0.7188
  465MOL0     C62645   7.413   2.212   6.380  0.1886 -0.6648  1.1387
  465MOL0     C62646   7.466   2.106   6.310 -0.2458 -0.5271 -0.3769
  465MOL0     C62647   7.493   1.981   6.366 -1.3242 -0.2279 -1.1839
  465MOL0     O62648   7.542   1.869   6.303 -0.6859 -0.1455 -0.3888
  465MOL0     C62649   7.544   1.877   6.168 -0.4345 -0.4896 -0.0532
  465MOL0     C62650   7.557   1.741   6.110 -0.0244  0.7403 -0.6845
  465MOL0     C62651   7.561   1.750   5.964  0.6357  0.9075  0.2360
  465MOL0     C62652   7.572   1.612   5.907  0.0181  0.3671 -0.3957
  465MOL0     C62653   7.634   1.615   5.767 -0.4724 -0.6454  0.2602
  465MOL0     C62654   7.653   1.474   5.704 -1.0135 -0.4332  0.2898
  465MOL0     C62655   7.755   1.386   5.793  0.2634  0.4148 -0.2589
  465MOL0     C62656   7.801   1.259   5.719  0.0135  0.4859  0.7210
  465MOL0     N62657   7.883   1.298   5.607 -0.6441  0.7196  0.6039
  465MOL0     C62658   7.868   1.238   5.483 -0.1284 -0.5162 -0.3188
  465MOL0     C62659   7.956   1.303   5.397  0.1687  0.0483  0.0451
  465MOL0     C62660   7.980   1.275   5.250  0.3905 -0.3211 -0.1623
  465MOL0     C62661   7.862   1.192   5.175  0.1680 -0.2751  0.7066
  465MOL0     C62662   7.898   1.153   5.025  0.0710 -0.7474 -0.7371
  465MOL0     C62663   8.037   1.078   5.009  0.0286  0.6196 -0.5850
  465MOL0     O62664   8.048   0.961   5.088  0.3379 -0.7596  0.7451
  465MOL0     C62665   8.143   0.877   5.041  0.5572 -0.8451 -0.5493
  465MOL0     C62666   8.112   0.772   4.967 -0.5710 -0.1557 -0.1363
  465MOL0     C62667   8.200   0.705   4.886  0.1977 -0.8934 -0.3272
  465MOL0     C62668   8.148   0.586   4.807  0.5506 -0.3395  0.3636
  465MOL0     C62669   8.335   0.748   4.885  0.2280  0.7221  0.2021
  465MOL0     C62670   8.436   0.686   4.804 -0.9152 -0.2868  0.0192
  465MOL0     O62671   8.413   0.572   4.741 -0.5860  0.1148 -0.1854
  465MOL0     C62672   8.506   0.508   4.666  0.4184 -1.2842 -0.3560
  465MOL0     C62673   8.446   0.441   4.557 -0.2435 -0.4891 -0.1354
  465MOL0     C62674   8.523   0.376   4.452 -0.1960 -0.1775 -0.6433
  465MOL0     C62675   8.661   0.384   4.461  0.1474 -0.7344 -0.2833
  465MOL0     O62676   8.739   0.315   4.367  0.1635  0.3092  0.2319
  465MOL0     C62677   8.879   0.341   4.357  1.1629 -0.4646 -0.0869
  465MOL0     C62678   8.956   0.218   4.418 -0.4113 -0.3420 -0.3107
  465MOL0     C62679   8.915   0.101   4.329 -0.4626  0.4810 -0.1720
  465MOL0     C62680   8.975  -0.032   4.391  0.2014 -0.1484 -0.6194
  465MOL0     C62681   8.953  -0.167   4.313  1.2186  0.1450 -0.3237
  465MOL0     C62682   8.997  -0.137   4.166 -0.7181  1.0559  0.2536
  465MOL0     C62683   8.992  -0.268   4.073  0.4049 -0.9804 -0.3296
  465MOL0     C62684   8.992  -0.229   3.924 -0.0489 -0.3296 -0.1507
  465MOL0    Cl62685   9.133  -0.130   3.898 -0.0310 -0.1769 -0.1674
  465MOL0     C62686   8.722   0.463   4.569 -0.0581  0.0009  0.1794
  465MOL0     C62687   8.644   0.516   4.674  0.8692 -0.3946 -0.5596
  465MOL0     O62688   8.545   0.747   4.790  0.4571  0.5134  0.4443
  465MOL0     C62689   8.374   0.855   4.965  0.3322 -0.0779 -0.5516
  465MOL0     C62690   8.275   0.919   5.039 -0.5221 -0.1832 -0.6490
  465MOL0     N62691   8.032   1.385   5.474 -0.6161  0.2847  0.1953
  465MOL0     N62692   7.988   1.387   5.602  0.1669 -0.0314 -0.0986
  465MOL0     C62693   7.478   1.965   6.506 -0.5033 -0.0250 -0.1893
  465MOL0     C62694   7.416   2.067   6.577  0.8362 -0.2747 -0.0597
  465MOL0     C62695   7.345   2.494   6.703  0.7843  0.3648  0.6268
  465MOL0     C62696   7.371   2.541   6.833  1.1423  0.3369 -0.7017
  465MOL0     C62697   7.307   2.664   6.878  0.2036  0.0951 -0.5030
  465MOL0     C62698   7.215   2.733   6.791 -0.1457  0.5692 -0.5357
  465MOL0     O62699   7.145   2.852   6.812  0.1535  1.5841 -0.3529
  465MOL0     C62700   7.139   2.917   6.936 -0.3277  0.0853 -0.6010
  465MOL0     C62701   7.137   3.063   6.897  0.2127  1.0350  0.1078
  465MOL0     C62702   6.994   3.097   6.833  0.0623 -0.4749 -0.7098
  465MOL0     C62703   6.983   3.233   6.767 -0.1120  0.3364  0.3253
  465MOL0     C62704   6.843   3.268   6.745  1.2250  0.6050  1.4621
  465MOL0     C62705   6.726   3.272   6.705  0.0705  0.3156 -0.7415
  465MOL0     C62706   7.198   2.679   6.661 -1.0747 -0.1047  0.0433
  465MOL0     C62707   7.270   2.569   6.619  0.9235  0.3472 -0.1110
  465MOL0     H62708   7.389   2.304   6.328 -0.4805 -0.8841  1.0575
  465MOL0     H62709   7.483   2.119   6.204 -1.2387 -0.0371 -0.4972
  465MOL0     H62710   7.440   1.896   6.139  0.2348 -1.6971 -3.6646
  465MOL0     H62711   7.609   1.955   6.128  1.7102 -2.0419  0.2414
  465MOL0     H62712   7.649   1.690   6.142 -1.1050  0.7979  2.8875
  465MOL0     H62713   7.466   1.690   6.144 -0.1427  1.7216  0.5473
  465MOL0     H62714   7.469   1.798   5.929  1.5387  2.3363 -0.2916
  465MOL0     H62715   7.653   1.807   5.946  0.6470  0.0786 -3.1182
  465MOL0     H62716   7.647   1.557   5.965 -1.0351  1.0861  1.7593
  465MOL0     H62717   7.471   1.572   5.898 -0.1004  0.4543  0.4703
  465MOL0     H62718   7.562   1.664   5.700 -1.5589 -0.4138  1.5570
  465MOL0     H62719   7.732   1.663   5.773 -0.5425 -0.6611  1.9794
  465MOL0     H62720   7.550   1.439   5.696 -2.0639  2.0439  1.6287
  465MOL0     H62721   7.682   1.476   5.598 -3.0502  1.5391 -0.3187
  465MOL0     H62722   7.843   1.450   5.808  0.7231  0.5105 -2.8439
  465MOL0     H62723   7.716   1.377   5.895 -0.0741  4.3251  0.0964
  465MOL0     H62724   7.716   1.205   5.675  1.0792 -0.1075 -0.6929
  465MOL0     H62725   7.853   1.196   5.791  0.4878  0.5590  0.4508
  465MOL0     H62726   7.792   1.164   5.458  0.8791 -2.8634  2.9238
  465MOL0     H62727   7.990   1.376   5.211  0.3611  1.3689  3.7063
  465MOL0     H62728   8.080   1.231   5.252  1.0478  1.0742  2.2568
  465MOL0     H62729   7.770   1.250   5.181  0.6111  0.2872  3.2374
  465MOL0     H62730   7.854   1.097   5.229  0.8644 -0.3694  0.6541
  465MOL0     H62731   7.885   1.242   4.962 -0.9829  0.5910  1.2572
  465MOL0     H62732   7.813   1.091   4.993 -2.0286  0.3186  2.2664
  465MOL0     H62733   8.118   1.143   5.043  0.9962 -1.5735  1.5726
  465MOL0     H62734   8.053   1.052   4.904 -1.1096 -1.0561 -0.3782
  465MOL0     H62735   8.007   0.744   4.972 -0.2422 -1.1507  1.8152
  465MOL0     H62736   8.198   0.490   4.825  0.2811 -0.6326 -0.4131
  465MOL0     H62737   8.044   0.571   4.837  0.1424 -1.7397 -1.5624
  465MOL0     H62738   8.152   0.620   4.703 -1.1938  1.5668  0.8598
  465MOL0     H62739   8.338   0.430   4.559 -0.2295 -0.7189 -0.5101
  465MOL0     H62740   8.470   0.323   4.373 -2.0906 -1.8184  1.5801
  465MOL0     H62741   8.900   0.341   4.249  1.7845  0.1718  0.0230
  465MOL0     H62742   8.897   0.444   4.390 -2.0493  0.5480 -1.0969
  465MOL0     H62743   9.062   0.239   4.404 -0.6242  1.5937  0.5479
  465MOL0     H62744   8.926   0.203   4.523 -0.3775  2.5737  0.2014
  465MOL0     H62745   8.948   0.101   4.224 -1.1400 -0.2204 -0.3945
  465MOL0     H62746   8.806   0.104   4.319 -0.6080  2.3018  1.4719
  465MOL0     H62747   9.082  -0.035   4.414 -0.2103 -5.2968  2.0640
  465MOL0     H62748   8.925  -0.048   4.487 -0.4196 -0.8048 -1.0359
  465MOL0     H62749   8.847  -0.191   4.313  1.3737 -0.5536 -0.5256
  465MOL0     H62750   9.004  -0.254   4.355  0.0687  0.0063  0.8620
  465MOL0     H62751   8.936  -0.064   4.113 -0.2714  0.9239 -0.4511
  465MOL0     H62752   9.103  -0.109   4.169 -1.1239  2.5703  1.1735
  465MOL0     H62753   8.895  -0.316   4.087 -0.5368  1.3401  1.8312
  465MOL0     H62754   9.067  -0.343   4.101  0.2231 -1.0595 -0.0446
  465MOL0     H62755   8.901  -0.174   3.897 -1.0435 -1.6493  0.4112
  465MOL0     H62756   8.986  -0.311   3.852 -0.9346 -1.2603  0.9516
  465MOL0     H62757   8.828   0.486   4.582 -0.9414  4.7384  0.9154
  465MOL0     H62758   8.691   0.559   4.762  0.5716  0.3543 -0.7581
  465MOL0     H62759   8.477   0.889   4.966  1.0575 -2.0748  1.2148
  465MOL0     H62760   8.311   1.001   5.100  1.0319 -0.5432 -1.0366
  465MOL0     H62761   7.498   1.877   6.566 -0.1027  0.0239 -0.2510
  465MOL0     H62762   7.378   2.041   6.675  1.6245 -0.8459  0.1016
  465MOL0     H62763   7.441   2.487   6.896  4.3176  2.6651 -1.9510
  465MOL0     H62764   7.331   2.697   6.978  0.7120 -0.2557 -0.5024
  465MOL0     H62765   7.045   2.891   6.985 -0.5427  1.7625 -0.0557
  465MOL0     H62766   7.213   2.886   7.010 -0.0573  0.2210 -0.8122
  465MOL0     H62767   7.219   3.069   6.825  1.1233 -1.6875  0.7845
  465MOL0     H62768   7.163   3.115   6.990 -2.3104 -2.1125  2.8460
  465MOL0     H62769   6.913   3.077   6.904 -0.0625 -0.5025 -0.8596
  465MOL0     H62770   6.967   3.024   6.756 -0.8197 -0.7031 -0.2084
  465MOL0     H62771   7.040   3.229   6.674  0.2840 -0.5498  0.5968
  465MOL0     H62772   7.018   3.317   6.828 -0.4357  1.7456 -1.3312
  465MOL0     H62773   6.628   3.265   6.662 -0.5902 -2.3146  0.9913
  465MOL0     H62774   7.135   2.736   6.593 -2.8267 -0.6190  1.1864
  465MOL0     H62775   7.236   2.526   6.525  0.3281 -2.1875  1.1720
  466MOL0     O62776   6.557   2.812   8.088  0.9190  0.0850 -0.1588
  466MOL0     C62777   6.573   2.689   8.070  0.3645  0.4739 -0.3997
  466MOL0     O62778   6.510   2.619   7.977  0.1988  0.0995 -0.1783
  466MOL0     C62779   6.409   2.676   7.906  0.0823 -0.3636  0.4436
  466MOL0     C62780   6.428   2.780   7.820 -0.1314  0.7849 -0.4920
  466MOL0     C62781   6.322   2.845   7.762 -0.6444  0.2574  0.0132
  466MOL0     C62782   6.195   2.806   7.793  0.9248  0.2108 -0.5171
  466MOL0     O62783   6.077   2.849   7.728 -0.5032 -0.0090  0.4045
  466MOL0     C62784   6.000   2.949   7.787 -0.1877  0.1983  0.3629
  466MOL0     C62785   5.875   2.972   7.719  0.0311 -0.0757 -0.2466
  466MOL0     C62786   5.830   3.121   7.719 -0.9005  0.6025  0.4189
  466MOL0     C62787   5.799   3.181   7.860 -0.1210 -0.6689 -0.1292
  466MOL0     C62788   5.679   3.267   7.855  0.2636 -0.5563 -0.5863
  466MOL0     C62789   5.704   3.384   7.754 -0.2329  0.4504  0.1064
  466MOL0     C62790   5.592   3.494   7.746 -0.9433 -0.3343 -0.3114
  466MOL0     C62791   5.502   3.452   7.633  0.1647 -0.4494 -0.1714
  466MOL0     N62792   5.360   3.481   7.677  0.1196 -0.5226  0.0568
  466MOL0     C62793   5.244   3.430   7.625  0.3963 -0.4968  0.4245
  466MOL0     C62794   5.146   3.504   7.676  1.1025 -0.0272 -0.1794
  466MOL0     C62795   5.004   3.480   7.643 -0.3527  0.2007  0.0992
  466MOL0     C62796   4.948   3.416   7.765 -0.4364  0.0715 -0.0743
  466MOL0     C62797   4.795   3.399   7.761 -0.4651  0.0306 -0.4292
  466MOL0     C62798   4.728   3.345   7.889  0.1850 -0.4961  0.6013
  466MOL0     O62799   4.739   3.444   7.995  0.0750 -0.1795  0.5345
  466MOL0     C62800   4.619   3.489   8.024 -0.1518 -0.2257 -1.0502
  466MOL0     C62801   4.586   3.480   8.159 -0.3763 -0.2322  0.4691
  466MOL0     C62802   4.471   3.538   8.216 -0.0098 -0.7608  0.1655
  466MOL0     C62803   4.435   3.483   8.353  0.4221 -0.3480  0.0616
  466MOL0     C62804   4.377   3.599   8.131  0.6666  0.2473 -0.2460
  466MOL0     C62805   4.243   3.649   8.183 -0.0134  0.7787 -0.2210
  466MOL0     O62806   4.154   3.698   8.089  0.3155 -0.5252 -0.7692
  466MOL0     C62807   4.028   3.751   8.112  0.2612  0.5269  0.7505
  466MOL0     C62808   3.931   3.684   8.195  0.1008 -0.5980  0.1289
  466MOL0     C62809   3.804   3.738   8.216 -0.5835  0.0914 -0.5990
  466MOL0     C62810   3.766   3.860   8.148  1.0416 -0.2260  1.1697
  466MOL0     O62811   3.642   3.916   8.152 -0.5004 -0.0552 -0.7893
  466MOL0     C62812   3.581   3.938   8.282  0.1170  0.6076 -0.1170
  466MOL0     C62813   3.546   4.087   8.307 -0.2557  1.0401  0.4986
  466MOL0     C62814   3.455   4.143   8.193  0.2656 -0.0015  0.1049
  466MOL0     C62815   3.323   4.197   8.255 -0.1627  0.2149 -0.0693
  466MOL0     C62816   3.245   4.264   8.145  0.4020 -0.0461 -0.2719
  466MOL0     C62817   3.114   4.304   8.208 -0.0749  0.4058  0.0828
  466MOL0     C62818   3.113   4.424   8.298  0.3243  0.3581 -0.3934
  466MOL0     C62819   3.090   4.383   8.443  0.5200 -0.5586 -0.9003
  466MOL0    Cl62820   3.056   4.540   8.532  0.1936  0.3414 -0.4558
  466MOL0     C62821   3.855   3.913   8.053 -0.4055 -0.0266  0.1159
  466MOL0     C62822   3.988   3.865   8.038  0.0247  0.0256 -0.6822
  466MOL0     O62823   4.225   3.655   8.305  0.6710  0.1697 -0.0490
  466MOL0     C62824   4.410   3.602   7.997 -0.0309  0.6992  0.4616
  466MOL0     C62825   4.525   3.549   7.937  0.0786  0.0211  0.7236
  466MOL0     N62826   5.202   3.601   7.757  0.1432  0.1074  0.7917
  466MOL0     N62827   5.331   3.587   7.757 -0.0259  0.1900  0.5126
  466MOL0     C62828   6.173   2.702   7.889  0.1485 -1.0484  0.3669
  466MOL0     C62829   6.284   2.646   7.943 -0.5278 -1.2812  0.5797
  466MOL0     C62830   6.662   2.617   8.162  0.4343 -0.8950 -0.6943
  466MOL0     C62831   6.664   2.647   8.305  0.6535 -0.0059  0.7770
  466MOL0     C62832   6.754   2.573   8.383  0.3991 -0.7829 -0.0220
  466MOL0     C62833   6.843   2.476   8.326 -0.3574 -0.3500  0.5130
  466MOL0     O62834   6.937   2.419   8.417 -0.3834 -0.0111  0.4566
  466MOL0     C62835   7.025   2.308   8.377  0.2064  1.2947 -1.2035
  466MOL0     C62836   7.059   2.224   8.495  0.5916  0.2697 -0.7311
  466MOL0     C62837   7.138   2.293   8.614  0.1604  0.5289 -0.9364
  466MOL0     C62838   7.182   2.188   8.706 -0.1855 -0.3544  0.6809
  466MOL0     C62839   7.082   2.140   8.804  0.6498 -0.1760 -0.3693
  466MOL0     C62840   6.990   2.109   8.886  0.0965 -0.5795  0.5673
  466MOL0     C62841   6.836   2.449   8.189  0.5703  0.4037  0.7557
  466MOL0     C62842   6.743   2.520   8.107  0.5053  0.6150  0.0333
  466MOL0     H62843   6.531   2.797   7.792 -0.1098 -1.6297 -2.1553
  466MOL0     H62844   6.350   2.930   7.701 -2.1552  1.7772  1.3566
  466MOL0     H62845   5.984   2.938   7.895  1.2413 -0.0028  0.5688
  466MOL0     H62846   6.056   3.043   7.780 -2.5500  1.5700 -2.1893
  466MOL0     H62847   5.882   2.956   7.611 -0.4353  0.7142 -0.3970
  466MOL0     H62848   5.802   2.905   7.765  2.0431 -2.2178  0.0200
  466MOL0     H62849   5.901   3.183   7.664  0.1578  0.3938  1.5059
  466MOL0     H62850   5.738   3.113   7.661 -0.9764  5.6079 -0.5448
  466MOL0     H62851   5.784   3.105   7.937  0.5658 -2.2039 -1.4426
  466MOL0     H62852   5.881   3.246   7.892 -2.7704  2.7521  0.1613
  466MOL0     H62853   5.583   3.222   7.827 -1.4985  1.2537  2.0761
  466MOL0     H62854   5.661   3.306   7.955  0.0495 -2.6013  0.2114
  466MOL0     H62855   5.792   3.430   7.799 -1.2310  1.2835  1.2721
  466MOL0     H62856   5.723   3.343   7.654 -0.1564 -1.6898  0.9374
  466MOL0     H62857   5.548   3.501   7.846  0.7849  0.0793  0.4600
  466MOL0     H62858   5.624   3.598   7.731 -0.2716 -0.1021  2.2157
  466MOL0     H62859   5.504   3.345   7.608 -1.6752 -1.7917  4.3559
  466MOL0     H62860   5.527   3.501   7.539  1.1090 -1.5387 -0.5057
  466MOL0     H62861   5.230   3.347   7.557 -0.8849  1.5032 -1.8761
  466MOL0     H62862   4.950   3.573   7.624  0.2056  0.4940 -0.0740
  466MOL0     H62863   5.000   3.418   7.552  2.7006  2.5043 -1.7735
  466MOL0     H62864   4.967   3.478   7.854 -1.3995  0.3983 -0.0764
  466MOL0     H62865   4.983   3.316   7.791  1.0547  0.8985  1.2985
  466MOL0     H62866   4.756   3.340   7.677 -2.0010  1.3535 -0.6856
  466MOL0     H62867   4.749   3.498   7.749 -0.9629  0.2625  2.7397
  466MOL0     H62868   4.768   3.251   7.928  1.7567  0.1358  0.5757
  466MOL0     H62869   4.626   3.318   7.861  0.8282 -2.1074 -0.3609
  466MOL0     H62870   4.651   3.420   8.222 -0.8897 -1.0409  0.2476
  466MOL0     H62871   4.434   3.563   8.428  2.0900  2.4926 -2.7169
  466MOL0     H62872   4.341   3.427   8.352  0.1317  0.1448 -0.5792
  466MOL0     H62873   4.511   3.409   8.380  0.2966 -0.5294 -0.0778
  466MOL0     H62874   3.953   3.592   8.248 -1.3575 -1.6691 -1.0341
  466MOL0     H62875   3.726   3.706   8.285 -2.1480 -0.9693 -2.7673
  466MOL0     H62876   3.488   3.882   8.296  0.5695 -0.1801 -0.1936
  466MOL0     H62877   3.634   3.891   8.366 -0.7456 -1.8279 -0.8476
  466MOL0     H62878   3.495   4.105   8.402 -4.5013 -3.9162 -0.4500
  466MOL0     H62879   3.639   4.145   8.301 -0.0912  0.8001  0.7024
  466MOL0     H62880   3.424   4.064   8.124 -1.1128  1.4327 -0.9904
  466MOL0     H62881   3.504   4.219   8.131  1.0887 -0.6778 -0.1060
  466MOL0     H62882   3.261   4.119   8.301 -1.5552  0.2864 -1.6926
  466MOL0     H62883   3.328   4.267   8.338  2.6784 -1.1329  1.0372
  466MOL0     H62884   3.228   4.191   8.065  2.8411 -2.7966  1.5268
  466MOL0     H62885   3.289   4.354   8.101  1.5233 -1.0694 -1.3302
  466MOL0     H62886   3.046   4.338   8.130 -0.5017 -0.1570  0.2060
  466MOL0     H62887   3.075   4.214   8.255 -0.9847 -0.5135 -2.3069
  466MOL0     H62888   3.027   4.483   8.265 -0.1602 -1.1797 -2.0077
  466MOL0     H62889   3.204   4.484   8.287  2.1629 -1.9422  1.3419
  466MOL0     H62890   3.191   4.359   8.479 -0.1889  0.0438  1.6839
  466MOL0     H62891   3.009   4.310   8.451 -0.8481  0.9194 -0.6917
  466MOL0     H62892   3.825   3.997   7.992  2.1209  0.4706 -0.5715
  466MOL0     H62893   4.063   3.901   7.969  1.7571  0.8843  1.5158
  466MOL0     H62894   4.334   3.634   7.926  2.6514  0.6321 -2.6802
  466MOL0     H62895   4.546   3.554   7.831  1.0894  0.7975  0.9424
  466MOL0     H62896   6.071   2.674   7.911 -0.3385  1.4883  1.6883
  466MOL0     H62897   6.275   2.564   8.014 -2.6780  1.8776  4.3443
  466MOL0     H62898   6.604   2.726   8.349  0.6358  0.8606 -0.7310
  466MOL0     H62899   6.764   2.597   8.489 -1.5104  0.9584 -0.1620
  466MOL0     H62900   6.972   2.248   8.303 -0.6676 -0.7596  0.9470
  466MOL0     H62901   7.111   2.351   8.326  1.6148 -0.5232 -0.4588
  466MOL0     H62902   7.121   2.143   8.456 -0.0089  0.0731 -1.2916
  466MOL0     H62903   6.961   2.198   8.536  0.4209  0.4402 -1.0265
  466MOL0     H62904   7.083   2.365   8.675 -0.1194  0.5107 -1.1647
  466MOL0     H62905   7.228   2.335   8.568  2.3456 -2.4208  0.3460
  466MOL0     H62906   7.271   2.223   8.760 -2.4336  2.5264  2.8221
  466MOL0     H62907   7.224   2.108   8.645 -1.8867  0.0436 -1.1271
  466MOL0     H62908   6.928   2.086   8.970 -0.4599 -1.8540 -0.1684
  466MOL0     H62909   6.891   2.367   8.143  0.5455 -0.5294  2.3246
  466MOL0     H62910   6.735   2.516   7.998 -0.7968  0.4859  0.1234
  467MOL0     O62911   2.959   6.185   6.697 -0.3512 -0.1965 -0.7165
  467MOL0     C62912   2.971   6.124   6.799 -0.6210  0.8637 -0.3493
  467MOL0     O62913   3.087   6.073   6.849  0.1116  0.3762 -0.4864
  467MOL0     C62914   3.202   6.092   6.775  0.1147  0.7115 -0.2293
  467MOL0     C62915   3.245   6.008   6.670 -0.6191 -0.8377 -0.2163
  467MOL0     C62916   3.366   6.024   6.602 -0.6462 -0.3914 -0.0322
  467MOL0     C62917   3.453   6.133   6.641 -0.7797  1.1330 -0.1240
  467MOL0     O62918   3.567   6.131   6.566  0.8315 -0.0510 -0.1497
  467MOL0     C62919   3.663   6.233   6.589 -1.0808  0.7892 -0.6887
  467MOL0     C62920   3.760   6.170   6.691  0.0392 -0.5023 -0.7740
  467MOL0     C62921   3.905   6.216   6.678  0.2320 -0.5302  0.2330
  467MOL0     C62922   3.992   6.149   6.780 -0.2619 -0.1618  0.5180
  467MOL0     C62923   4.084   6.261   6.830 -0.0724 -0.1212  0.0976
  467MOL0     C62924   4.185   6.190   6.929  0.3899 -0.3889  0.5735
  467MOL0     C62925   4.307   6.277   6.954  0.5211  0.0736  0.1000
  467MOL0     C62926   4.420   6.198   7.023 -1.1928 -0.2156 -0.2344
  467MOL0     N62927   4.384   6.123   7.152  0.0152  0.2581 -0.8222
  467MOL0     C62928   4.337   6.181   7.270  0.6080  0.4361  0.1590
  467MOL0     C62929   4.310   6.073   7.352 -0.7752 -0.5054 -0.7335
  467MOL0     C62930   4.252   6.091   7.492  0.1494 -0.6114 -0.2294
  467MOL0     C62931   4.097   6.090   7.478 -0.3606  0.0618  0.0806
  467MOL0     C62932   4.008   6.120   7.601 -0.0343 -0.1665 -0.6621
  467MOL0     C62933   3.990   6.262   7.646 -0.7266  0.0893 -0.3249
  467MOL0     O62934   3.940   6.344   7.540  0.7104 -0.1913  0.6913
  467MOL0     C62935   3.855   6.442   7.583 -0.1690  0.4340 -0.0656
  467MOL0     C62936   3.907   6.543   7.668  0.4313 -0.2872  0.9270
  467MOL0     C62937   3.825   6.639   7.727  0.2809 -0.3559  0.2695
  467MOL0     C62938   3.886   6.743   7.825  0.5121 -0.2966  0.6189
  467MOL0     C62939   3.686   6.640   7.688  0.2611  0.2822 -0.3485
  467MOL0     C62940   3.591   6.744   7.733  0.3836  0.1900  0.8457
  467MOL0     O62941   3.461   6.697   7.742 -0.3983 -0.1097  0.5905
  467MOL0     C62942   3.358   6.791   7.756  0.2540  0.1214  0.2217
  467MOL0     C62943   3.314   6.867   7.655  0.2824 -1.0696  0.2977
  467MOL0     C62944   3.214   6.965   7.678 -0.5642  0.1097 -0.8768
  467MOL0     C62945   3.151   6.973   7.800  0.5688 -1.0146 -0.3815
  467MOL0     O62946   3.043   7.055   7.812 -0.1243 -0.8387 -0.3951
  467MOL0     C62947   2.979   7.055   7.940 -0.2241  0.1727  0.0425
  467MOL0     C62948   2.880   7.171   7.947 -0.5405  0.1875  0.0812
  467MOL0     C62949   2.791   7.168   8.069 -0.1905 -0.7045 -0.3704
  467MOL0     C62950   2.694   7.285   8.071 -0.6800 -0.3501  0.7336
  467MOL0     C62951   2.622   7.295   8.201  0.1922 -0.8372 -0.3173
  467MOL0     C62952   2.537   7.423   8.190  0.3925  0.1368 -0.7419
  467MOL0     C62953   2.398   7.381   8.131 -0.4058 -0.0610  0.5181
  467MOL0     C62954   2.310   7.503   8.094  0.3005 -0.2172  0.1564
  467MOL0    Cl62955   2.263   7.603   8.241  0.0198  0.2911 -0.3825
  467MOL0     C62956   3.191   6.889   7.907 -0.2808  0.7314 -0.6183
  467MOL0     C62957   3.297   6.797   7.880  0.5995  0.3865 -0.0683
  467MOL0     O62958   3.633   6.860   7.752  0.1811  0.1288  0.7819
  467MOL0     C62959   3.639   6.540   7.590  0.5498 -0.8952 -0.2654
  467MOL0     C62960   3.728   6.450   7.542  0.2505  0.0474 -0.8717
  467MOL0     N62961   4.330   5.949   7.292 -0.4096 -0.6248  0.4909
  467MOL0     N62962   4.373   5.983   7.175  0.1625 -0.0757 -0.7572
  467MOL0     C62963   3.417   6.214   6.746 -0.1034 -0.1298  0.5924
  467MOL0     C62964   3.292   6.195   6.810  0.1799  0.2863 -0.2581
  467MOL0     C62965   2.846   6.115   6.875 -0.0379  0.0901  0.4884
  467MOL0     C62966   2.717   6.172   6.831  0.2645  0.2226  0.0210
  467MOL0     C62967   2.604   6.189   6.918 -0.2438  0.2409 -0.7062
  467MOL0     C62968   2.612   6.134   7.048 -0.1538 -0.5032 -0.4536
  467MOL0     O62969   2.489   6.138   7.119 -0.0910  0.4405 -0.0046
  467MOL0     C62970   2.473   6.058   7.236 -0.6611  0.4551 -0.4618
  467MOL0     C62971   2.345   6.096   7.321  0.4704  0.0941  1.2695
  467MOL0     C62972   2.224   6.037   7.245  0.0153 -0.4105 -0.3492
  467MOL0     C62973   2.094   6.124   7.268  0.4679 -0.2103  0.1799
  467MOL0     C62974   2.084   6.157   7.403  0.7142  0.8487  0.1372
  467MOL0     C62975   2.050   6.179   7.518 -0.6362  0.5540  0.0949
  467MOL0     C62976   2.730   6.069   7.093  0.3372 -0.0946  1.1742
  467MOL0     C62977   2.843   6.062   7.006  0.2629 -0.0754 -0.7191
  467MOL0     H62978   3.196   5.915   6.642  0.4601 -0.9427 -1.8923
  467MOL0     H62979   3.393   5.955   6.522 -1.1110  2.0849 -2.4985
  467MOL0     H62980   3.723   6.252   6.499  0.3924 -3.3493 -0.8239
  467MOL0     H62981   3.620   6.325   6.628 -3.6035 -1.1243  1.4596
  467MOL0     H62982   3.737   6.205   6.792  3.8869 -1.8447  0.7593
  467MOL0     H62983   3.749   6.062   6.682 -2.4428 -0.4462  0.6977
  467MOL0     H62984   3.935   6.183   6.578 -1.0174  0.0933 -0.3814
  467MOL0     H62985   3.911   6.325   6.667 -1.9202 -0.0669  2.6616
  467MOL0     H62986   3.950   6.104   6.870  1.1740 -1.9885  0.3435
  467MOL0     H62987   4.046   6.067   6.732 -1.3396 -0.6494  0.1076
  467MOL0     H62988   4.130   6.312   6.745 -0.4814  0.4622  0.2231
  467MOL0     H62989   4.043   6.339   6.896 -3.7201 -2.1868  0.5354
  467MOL0     H62990   4.136   6.175   7.025  0.2814  0.3597  0.6403
  467MOL0     H62991   4.225   6.098   6.886  1.4045  0.8940 -1.3662
  467MOL0     H62992   4.347   6.299   6.855  0.6768 -1.5468 -0.2171
  467MOL0     H62993   4.282   6.369   7.007 -2.1668 -1.1047  1.0388
  467MOL0     H62994   4.498   6.269   7.052 -2.3945 -0.4421  4.2132
  467MOL0     H62995   4.454   6.117   6.958 -1.4465 -1.6157  1.3094
  467MOL0     H62996   4.327   6.289   7.281 -0.8630  0.4540 -1.0466
  467MOL0     H62997   4.279   6.011   7.562 -1.6014 -0.2964  0.8740
  467MOL0     H62998   4.277   6.184   7.542  0.4812 -0.1727 -1.1925
  467MOL0     H62999   4.070   5.985   7.467 -2.3746  0.4953  0.5200
  467MOL0     H63000   4.066   6.155   7.396  0.7950 -1.5348 -1.6941
  467MOL0     H63001   4.047   6.054   7.680  0.9638 -0.6108 -1.5084
  467MOL0     H63002   3.903   6.091   7.593 -0.4422  0.1793  2.1272
  467MOL0     H63003   4.079   6.315   7.682  0.0612 -0.5037 -1.3641
  467MOL0     H63004   3.932   6.261   7.739  1.3346 -1.9740  1.0596
  467MOL0     H63005   4.013   6.536   7.688  0.6915  1.6919  0.4575
  467MOL0     H63006   3.905   6.837   7.772  4.1372 -0.6663  1.0259
  467MOL0     H63007   3.819   6.767   7.908 -0.4688 -1.4704  0.1925
  467MOL0     H63008   3.982   6.706   7.863  0.8029  0.2440  0.4319
  467MOL0     H63009   3.365   6.861   7.560  0.4320 -1.0657  0.3775
  467MOL0     H63010   3.170   7.023   7.597 -1.4832  1.2579  0.4047
  467MOL0     H63011   2.916   6.966   7.947 -0.0322  0.0283 -0.0657
  467MOL0     H63012   3.045   7.082   8.024  0.4322  0.4782 -0.5582
  467MOL0     H63013   2.928   7.269   7.942  3.0445 -1.4473 -0.2371
  467MOL0     H63014   2.814   7.151   7.862 -0.3831 -1.7917  0.3658
  467MOL0     H63015   2.853   7.188   8.157  0.3670 -1.0374 -0.6839
  467MOL0     H63016   2.744   7.070   8.085  1.0557 -1.4435 -1.0787
  467MOL0     H63017   2.745   7.381   8.056  1.3332 -0.8465  3.5371
  467MOL0     H63018   2.617   7.254   8.000 -0.8222 -3.5418  2.0992
  467MOL0     H63019   2.686   7.314   8.287 -0.5044 -1.1453  0.2806
  467MOL0     H63020   2.572   7.202   8.229 -1.7793 -0.4059 -2.0973
  467MOL0     H63021   2.518   7.461   8.292  0.9606 -3.4139  0.8332
  467MOL0     H63022   2.583   7.502   8.130 -0.5296 -1.3558 -3.5575
  467MOL0     H63023   2.341   7.327   8.206  0.7400 -0.3779  1.1824
  467MOL0     H63024   2.414   7.318   8.043  0.0523  0.1979  0.4129
  467MOL0     H63025   2.220   7.460   8.049 -0.3720  0.7855  0.5075
  467MOL0     H63026   2.362   7.562   8.018 -2.6296  1.7604 -0.4943
  467MOL0     H63027   3.142   6.867   8.001  3.5894 -4.5485  0.6335
  467MOL0     H63028   3.335   6.739   7.963  0.8456  2.1827  1.1532
  467MOL0     H63029   3.532   6.540   7.571 -0.3355 -2.0390  3.8182
  467MOL0     H63030   3.705   6.379   7.464  1.4931 -1.5113  0.1302
  467MOL0     H63031   3.478   6.298   6.778 -0.5692  0.0001  1.1515
  467MOL0     H63032   3.253   6.259   6.889 -0.7781 -0.4645 -0.1077
  467MOL0     H63033   2.710   6.223   6.736 -4.4988  1.5606  0.8373
  467MOL0     H63034   2.521   6.244   6.874 -1.0206 -0.6990 -0.4563
  467MOL0     H63035   2.480   5.950   7.225  1.1721  0.3958  0.8260
  467MOL0     H63036   2.551   6.085   7.308  0.0180 -0.3151 -0.9037
  467MOL0     H63037   2.344   6.205   7.312  1.3344 -0.0608 -1.8560
  467MOL0     H63038   2.343   6.067   7.427  0.1911 -2.4156  0.6554
  467MOL0     H63039   2.207   5.936   7.283 -0.0160 -0.4164 -0.3784
  467MOL0     H63040   2.240   6.042   7.137  0.8348 -0.5080 -0.2401
  467MOL0     H63041   2.008   6.066   7.233  0.8293  0.6559 -2.3807
  467MOL0     H63042   2.096   6.216   7.209  0.7582  0.8097  1.7388
  467MOL0     H63043   2.036   6.173   7.624 -2.3177 -1.5742 -0.1749
  467MOL0     H63044   2.733   6.026   7.192 -2.1872  0.7274  1.6933
  467MOL0     H63045   2.929   6.014   7.051  1.0211  3.0200  1.5025
  468MOL0     O63046   8.198   4.837   1.518  0.2628  0.2814  0.5002
  468MOL0     C63047   8.172   4.959   1.518  0.8938  1.2048 -0.2641
  468MOL0     O63048   8.256   5.064   1.492 -0.3013  0.5503  0.7551
  468MOL0     C63049   8.392   5.047   1.492 -0.3058 -0.0885 -0.5339
  468MOL0     C63050   8.451   4.980   1.603  1.3438 -0.9925 -0.3233
  468MOL0     C63051   8.594   4.989   1.605  0.6534 -0.1462  0.5198
  468MOL0     C63052   8.670   5.058   1.496 -0.1949  0.6192 -0.1481
  468MOL0     O63053   8.803   5.065   1.479  0.2674 -0.2846  0.1347
  468MOL0     C63054   8.874   4.939   1.497  0.7868 -0.7398 -0.0562
  468MOL0     C63055   8.983   4.924   1.395  0.2308 -0.2756  0.2845
  468MOL0     C63056   9.047   4.783   1.406 -0.0117  0.6700  0.4829
  468MOL0     C63057   9.196   4.768   1.353  0.1853  0.9187 -0.0169
  468MOL0     C63058   9.204   4.802   1.201  0.1162 -0.9251 -0.1784
  468MOL0     C63059   9.347   4.787   1.140  0.1866  0.9666 -0.8787
  468MOL0     C63060   9.343   4.768   0.988 -0.3603  0.0431  0.0969
  468MOL0     C63061   9.489   4.767   0.944  0.0674 -0.3288 -0.3937
  468MOL0     N63062   9.515   4.743   0.797  0.7185  0.7689 -1.0003
  468MOL0     C63063   9.455   4.655   0.712  0.2988  0.2720  0.3875
  468MOL0     C63064   9.465   4.694   0.585  0.1303  0.1831 -0.7576
  468MOL0     C63065   9.419   4.625   0.459  1.3617  0.5419 -0.2585
  468MOL0     C63066   9.531   4.537   0.391  0.4881 -0.4083 -0.1982
  468MOL0     C63067   9.475   4.457   0.269  0.0435  0.0308 -0.4635
  468MOL0     C63068   9.433   4.555   0.164 -0.2960  0.2645  0.0368
  468MOL0     O63069   9.398   4.485   0.038 -0.3844 -0.3257 -1.0997
  468MOL0     C63070   9.337   4.565  -0.058 -0.1945 -0.5186 -0.5517
  468MOL0     C63071   9.300   4.698  -0.040 -0.0128 -0.1853  0.3903
  468MOL0     C63072   9.255   4.780  -0.151  0.0962  0.5905 -1.1657
  468MOL0     C63073   9.234   4.924  -0.126 -0.6919  1.0526 -0.4022
  468MOL0     C63074   9.245   4.715  -0.280  0.6979 -0.5894 -0.0226
  468MOL0     C63075   9.200   4.794  -0.402 -0.5718 -0.2360 -1.3595
  468MOL0     O63076   9.153   4.721  -0.506  0.8455 -1.1630 -0.4625
  468MOL0     C63077   9.088   4.782  -0.614  0.7586  0.4592 -0.9200
  468MOL0     C63078   9.115   4.731  -0.743  0.8998  0.8207  1.2971
  468MOL0     C63079   9.087   4.795  -0.865  0.0223 -0.7830  0.0540
  468MOL0     C63080   8.999   4.906  -0.854 -0.8088  0.0521 -0.8564
  468MOL0     O63081   8.957   4.951  -0.971 -0.3338  0.1147 -0.3936
  468MOL0     C63082   8.914   5.084  -0.992 -0.0033 -0.2959 -0.8603
  468MOL0     C63083   8.770   5.089  -1.024 -0.1957 -0.3272  0.0009
  468MOL0     C63084   8.746   5.024  -1.166  0.1651 -0.4498 -0.3422
  468MOL0     C63085   8.599   5.049  -1.204 -0.3301  0.4377 -0.8508
  468MOL0     C63086   8.552   4.943  -1.302  0.3857  0.2030  0.3755
  468MOL0     C63087   8.537   4.799  -1.251 -1.0248 -0.6042  0.3084
  468MOL0     C63088   8.497   4.710  -1.372  0.3992  0.3345  0.7025
  468MOL0     C63089   8.428   4.583  -1.311  0.7979  0.6074  0.4626
  468MOL0    Cl63090   8.266   4.622  -1.275 -0.0493  0.2949 -0.1350
  468MOL0     C63091   8.949   4.948  -0.728  0.1219  0.1497 -0.3741
  468MOL0     C63092   8.995   4.884  -0.607  0.3099 -0.7038  0.2960
  468MOL0     O63093   9.228   4.910  -0.400 -0.1255  0.2031  0.5352
  468MOL0     C63094   9.300   4.588  -0.295  0.7666 -1.1762 -0.4186
  468MOL0     C63095   9.342   4.512  -0.189 -0.3731 -0.2961 -0.1546
  468MOL0     N63096   9.538   4.815   0.596  0.7452  0.4471  0.0966
  468MOL0     N63097   9.568   4.841   0.719  0.3729 -0.5498  0.5605
  468MOL0     C63098   8.604   5.108   1.387  0.3937 -0.0102  0.4093
  468MOL0     C63099   8.466   5.109   1.386 -0.6801  0.2804 -0.0145
  468MOL0     C63100   8.027   4.996   1.544  0.2563 -0.0164  0.3183
  468MOL0     C63101   7.992   5.126   1.567 -0.0024 -0.5347 -1.0044
  468MOL0     C63102   7.856   5.166   1.591 -0.4752  0.7972  0.1646
  468MOL0     C63103   7.752   5.066   1.588 -0.9804 -0.3471 -0.0015
  468MOL0     O63104   7.622   5.110   1.580  0.4120  0.1281  0.2167
  468MOL0     C63105   7.516   5.019   1.539  1.0414  0.1861 -0.2021
  468MOL0     C63106   7.492   4.999   1.394  0.7532  1.2231 -0.1247
  468MOL0     C63107   7.584   4.909   1.314  0.1725  0.4454  0.3953
  468MOL0     C63108   7.512   4.880   1.184 -0.1214 -0.0880  0.1133
  468MOL0     C63109   7.399   4.784   1.202 -0.1632  0.2080  0.4665
  468MOL0     C63110   7.296   4.719   1.196  0.1436  0.4663 -0.2077
  468MOL0     C63111   7.795   4.932   1.570 -0.7368  1.2381 -0.5887
  468MOL0     C63112   7.934   4.893   1.555 -0.4938  0.0144 -0.5083
  468MOL0     H63113   8.401   4.938   1.689  0.7630  2.4561  1.1565
  468MOL0     H63114   8.644   4.942   1.690  2.3171  0.1899 -0.2245
  468MOL0     H63115   8.917   4.939   1.597 -2.7117 -0.0541  1.6033
  468MOL0     H63116   8.800   4.860   1.483 -2.2887  1.8247  0.6527
  468MOL0     H63117   8.943   4.951   1.297  2.1802 -0.2513 -0.5574
  468MOL0     H63118   9.058   5.001   1.416 -0.2937  0.1677  0.5376
  468MOL0     H63119   9.046   4.748   1.510 -1.0878  0.3951  0.3882
  468MOL0     H63120   8.981   4.714   1.353  2.5364  0.6296 -2.9862
  468MOL0     H63121   9.259   4.843   1.400  0.7711  0.6692 -0.3940
  468MOL0     H63122   9.232   4.667   1.377 -2.0206  0.3838  1.4533
  468MOL0     H63123   9.137   4.726   1.159  1.4574 -1.3589 -1.6005
  468MOL0     H63124   9.164   4.902   1.185 -0.6745 -1.2728 -0.3930
  468MOL0     H63125   9.417   4.862   1.179  2.0097 -1.0842  0.0084
  468MOL0     H63126   9.390   4.690   1.165 -0.7150  0.5871 -0.7485
  468MOL0     H63127   9.286   4.681   0.955 -1.4743  0.9902 -0.5667
  468MOL0     H63128   9.287   4.849   0.941 -0.8287 -0.1373  0.3382
  468MOL0     H63129   9.529   4.679   0.995  0.9719  0.9519  1.2293
  468MOL0     H63130   9.557   4.849   0.970 -0.8073  1.0720 -2.3313
  468MOL0     H63131   9.417   4.563   0.755 -2.5588  1.7862  1.3337
  468MOL0     H63132   9.334   4.558   0.474  2.4874 -1.6191 -2.6629
  468MOL0     H63133   9.387   4.704   0.391 -0.4006  0.0738 -0.0213
  468MOL0     H63134   9.575   4.455   0.449  0.0849 -2.9612 -3.2259
  468MOL0     H63135   9.615   4.600   0.361  0.8072 -1.8066 -2.4675
  468MOL0     H63136   9.385   4.397   0.283  0.5120 -1.0179 -1.7483
  468MOL0     H63137   9.552   4.388   0.232 -1.1565 -2.3441  1.1434
  468MOL0     H63138   9.513   4.627   0.141  0.4615 -0.0865  1.5126
  468MOL0     H63139   9.346   4.610   0.202 -1.0495 -0.0019 -1.2265
  468MOL0     H63140   9.314   4.743   0.057 -1.0560 -1.1956  1.0285
  468MOL0     H63141   9.319   4.971  -0.176  1.7302  0.4357  2.7932
  468MOL0     H63142   9.144   4.961  -0.175 -3.1341 -1.1320  2.0826
  468MOL0     H63143   9.225   4.951  -0.020 -0.2081  0.1960 -0.1343
  468MOL0     H63144   9.168   4.637  -0.745 -5.1226 -3.0778 -0.0717
  468MOL0     H63145   9.109   4.756  -0.964  2.9809 -1.0033  0.7078
  468MOL0     H63146   8.917   5.136  -0.896  1.9578 -0.4146 -0.8145
  468MOL0     H63147   8.979   5.129  -1.067  0.7713 -1.3229 -0.8290
  468MOL0     H63148   8.716   5.062  -0.933  2.2601  0.9310  1.9638
  468MOL0     H63149   8.748   5.194  -1.043 -1.5753 -1.0274 -2.8996
  468MOL0     H63150   8.771   4.918  -1.165  0.2730 -0.4252 -0.3635
  468MOL0     H63151   8.805   5.073  -1.244 -2.4347  0.4738 -1.8449
  468MOL0     H63152   8.528   5.051  -1.120 -2.1990 -3.0030 -2.1304
  468MOL0     H63153   8.601   5.140  -1.264  0.7420  1.3390  0.5063
  468MOL0     H63154   8.624   4.945  -1.384  1.2963  0.8959  1.1662
  468MOL0     H63155   8.463   4.967  -1.361  2.0170 -0.4087 -2.5081
  468MOL0     H63156   8.635   4.769  -1.214 -0.4892  1.3279  0.5572
  468MOL0     H63157   8.465   4.783  -1.170 -1.2285  0.9150  0.4598
  468MOL0     H63158   8.591   4.690  -1.426  1.8354 -0.0769  3.1874
  468MOL0     H63159   8.418   4.746  -1.438 -0.1047 -2.8376 -0.6359
  468MOL0     H63160   8.490   4.557  -1.224 -0.1562 -1.2367  0.6554
  468MOL0     H63161   8.421   4.504  -1.387 -0.7329  1.6881 -0.5850
  468MOL0     H63162   8.867   5.017  -0.715 -1.1853 -0.9955 -2.1779
  468MOL0     H63163   8.962   4.914  -0.507 -0.1685  2.1717 -0.6211
  468MOL0     H63164   9.302   4.547  -0.395 -0.3968 -0.4656 -0.7590
  468MOL0     H63165   9.382   4.413  -0.208  2.6024  0.7188  0.2231
  468MOL0     H63166   8.646   5.165   1.304 -2.7535 -0.7871 -1.9083
  468MOL0     H63167   8.410   5.161   1.309 -1.9205 -1.8746 -0.6530
  468MOL0     H63168   8.071   5.200   1.559  0.8269 -1.3245 -0.2272
  468MOL0     H63169   7.836   5.271   1.608 -0.4429  0.4192  3.1552
  468MOL0     H63170   7.523   4.925   1.594 -0.8897  0.7761  1.1555
  468MOL0     H63171   7.424   5.059   1.582  1.7119 -0.7984  2.3219
  468MOL0     H63172   7.473   5.095   1.345  1.4960  1.5772  0.2627
  468MOL0     H63173   7.397   4.945   1.392  2.5685 -2.3138  1.2649
  468MOL0     H63174   7.619   4.820   1.367  0.3216  1.5941  2.3326
  468MOL0     H63175   7.675   4.966   1.292  1.6703 -1.5576  1.0967
  468MOL0     H63176   7.584   4.855   1.105  0.7373 -0.4581  0.9779
  468MOL0     H63177   7.462   4.970   1.150  1.0116  1.2511  1.8030
  468MOL0     H63178   7.204   4.663   1.197 -0.0350  0.7634 -0.0196
  468MOL0     H63179   7.721   4.853   1.566 -0.8351  1.2567  0.5745
  468MOL0     H63180   7.953   4.788   1.534 -2.5977 -0.0802 -2.2728
  469MOL0     O63181   7.381   0.297   7.146  0.6968 -0.1744 -0.7917
  469MOL0     C63182   7.464   0.382   7.113 -0.2790  0.7380 -0.2675
  469MOL0     O63183   7.463   0.514   7.139  0.1402 -0.2784 -0.7976
  469MOL0     C63184   7.347   0.554   7.194 -0.3610  0.4181  0.2840
  469MOL0     C63185   7.329   0.570   7.341  0.1695  0.1296  0.5704
  469MOL0     C63186   7.210   0.606   7.401  0.5927  0.2094  0.1926
  469MOL0     C63187   7.106   0.647   7.311 -0.7561  0.3144 -0.3962
  469MOL0     O63188   6.983   0.701   7.360 -0.0401 -0.1059 -0.0879
  469MOL0     C63189   6.971   0.728   7.507 -0.0651 -0.7858  0.3089
  469MOL0     C63190   6.827   0.782   7.539  0.0667 -1.1186  0.3284
  469MOL0     C63191   6.789   0.909   7.460 -0.2329  0.4088  0.5548
  469MOL0     C63192   6.658   0.955   7.519  0.0634  0.3725  0.1789
  469MOL0     C63193   6.613   1.085   7.461  0.6650 -0.7501 -0.2394
  469MOL0     C63194   6.550   1.086   7.317 -0.0088 -0.6297 -0.7376
  469MOL0     C63195   6.549   1.221   7.262  0.1081 -0.8857  0.9436
  469MOL0     C63196   6.525   1.224   7.108  0.3510 -0.1336  0.6000
  469MOL0     N63197   6.384   1.181   7.076  0.6368 -0.1414 -0.0276
  469MOL0     C63198   6.265   1.240   7.108 -0.3754 -0.5619  0.6843
  469MOL0     C63199   6.170   1.146   7.100 -0.2673 -1.1476  0.9937
  469MOL0     C63200   6.022   1.171   7.139 -0.9341  0.2758  0.2473
  469MOL0     C63201   5.938   1.159   7.012 -0.4490 -0.0302 -0.5218
  469MOL0     C63202   5.946   1.292   6.928 -0.8759  0.5183  0.0774
  469MOL0     C63203   5.835   1.298   6.818  0.6564  0.2041 -0.5158
  469MOL0     O63204   5.859   1.420   6.738  0.9677  0.0640 -0.5757
  469MOL0     C63205   5.760   1.460   6.658  0.5202 -0.4679 -1.1713
  469MOL0     C63206   5.634   1.490   6.708  0.0217  0.3050 -0.4529
  469MOL0     C63207   5.539   1.561   6.628  0.3198 -0.0736  0.4638
  469MOL0     C63208   5.403   1.590   6.692  0.7572 -0.9394  0.3504
  469MOL0     C63209   5.569   1.586   6.494 -0.1822 -0.2942 -0.7174
  469MOL0     C63210   5.473   1.637   6.395 -0.1691  1.1295 -0.0198
  469MOL0     O63211   5.499   1.601   6.267  0.2692 -0.1073  0.0334
  469MOL0     C63212   5.433   1.663   6.166 -0.4070 -1.1652 -0.4384
  469MOL0     C63213   5.476   1.795   6.122 -0.0542  0.4889 -0.1635
  469MOL0     C63214   5.402   1.852   6.013 -0.2980 -0.2827  0.3511
  469MOL0     C63215   5.282   1.798   5.960 -0.6137  0.3778 -0.3278
  469MOL0     O63216   5.212   1.853   5.861  0.4344 -0.5335 -0.0657
  469MOL0     C63217   5.213   1.991   5.828  0.2856  0.5509 -0.6053
  469MOL0     C63218   5.137   2.073   5.937 -0.3785  0.7767  0.0266
  469MOL0     C63219   5.114   2.220   5.883 -0.2521  0.0149  0.3219
  469MOL0     C63220   5.191   2.326   5.967 -0.5003 -0.5103 -0.8044
  469MOL0     C63221   5.150   2.470   5.934 -0.1058  0.7285 -0.0828
  469MOL0     C63222   5.164   2.566   6.060 -0.8803  0.7828 -0.3603
  469MOL0     C63223   5.105   2.707   6.032  0.7941  0.0240  0.3680
  469MOL0     C63224   5.120   2.805   6.147  0.3084 -0.0059  0.0261
  469MOL0    Cl63225   5.276   2.878   6.149  0.3663 -0.0642  0.0009
  469MOL0     C63226   5.257   1.665   6.000  0.1569  0.4662 -0.6506
  469MOL0     C63227   5.331   1.602   6.101 -0.1186  0.3213 -0.4902
  469MOL0     O63228   5.382   1.708   6.425 -0.0850 -0.8616  0.2660
  469MOL0     C63229   5.698   1.552   6.446  0.0336 -0.4631  0.3771
  469MOL0     C63230   5.792   1.506   6.527 -0.2094 -0.0977  1.0527
  469MOL0     N63231   6.228   1.023   7.062 -0.5174 -0.7258  0.4051
  469MOL0     N63232   6.351   1.044   7.049  0.4458 -0.3894  0.0283
  469MOL0     C63233   7.126   0.638   7.169  0.6204 -1.2165  0.8607
  469MOL0     C63234   7.241   0.589   7.114 -0.4609  0.8403 -0.3580
  469MOL0     C63235   7.605   0.336   7.070  0.2146  0.4068 -0.8636
  469MOL0     C63236   7.639   0.193   7.070 -0.3132 -0.3172  0.1513
  469MOL0     C63237   7.770   0.150   7.042  0.1201  1.0681 -0.5497
  469MOL0     C63238   7.871   0.239   7.000 -0.5299 -0.9739 -0.3369
  469MOL0     O63239   7.998   0.190   6.961  0.7654  0.5005 -0.1127
  469MOL0     C63240   8.105   0.289   6.937  0.1785  0.4121 -1.1063
  469MOL0     C63241   8.240   0.235   6.902 -1.1675 -0.2483 -0.3600
  469MOL0     C63242   8.280   0.116   7.001 -0.2837  2.0468  0.1465
  469MOL0     C63243   8.394   0.034   6.946  0.5743  0.8689  0.0495
  469MOL0     C63244   8.514   0.113   6.937  0.2892  0.2228 -0.5137
  469MOL0     C63245   8.624   0.166   6.932 -0.9928  0.0242  0.2631
  469MOL0     C63246   7.835   0.374   6.990  0.2306  0.3957  0.2332
  469MOL0     C63247   7.707   0.419   7.036 -0.0082  0.1346  1.0049
  469MOL0     H63248   7.415   0.555   7.405  1.6860  0.3539 -1.3407
  469MOL0     H63249   7.206   0.614   7.509 -0.0844  1.1334  0.1086
  469MOL0     H63250   7.004   0.642   7.565  1.8264  0.6714  1.5291
  469MOL0     H63251   7.044   0.804   7.535 -0.7042  0.2564 -0.7662
  469MOL0     H63252   6.762   0.698   7.510 -0.5850  0.2829 -2.6824
  469MOL0     H63253   6.807   0.796   7.646 -4.8427  1.4545 -0.6087
  469MOL0     H63254   6.867   0.984   7.473 -1.1762  2.1125 -2.5605
  469MOL0     H63255   6.785   0.879   7.354 -0.0951 -2.5642  1.3145
  469MOL0     H63256   6.584   0.876   7.503 -1.3136  2.0564 -2.7609
  469MOL0     H63257   6.678   0.969   7.625 -1.2906  1.2173  0.3503
  469MOL0     H63258   6.530   1.124   7.521 -0.0052 -1.3955 -0.7278
  469MOL0     H63259   6.695   1.156   7.476  1.0817 -1.5098  1.3412
  469MOL0     H63260   6.610   1.020   7.254  0.5255  3.5891 -5.2669
  469MOL0     H63261   6.445   1.056   7.324 -0.4821  1.3699  2.2169
  469MOL0     H63262   6.481   1.284   7.321 -0.4700 -1.7002  1.1555
  469MOL0     H63263   6.649   1.261   7.281 -0.0308 -1.0681  2.1512
  469MOL0     H63264   6.586   1.159   7.045 -1.7801 -0.5100 -1.2392
  469MOL0     H63265   6.546   1.327   7.076 -1.1513 -0.1422 -0.5643
  469MOL0     H63266   6.247   1.337   7.153 -0.0583 -1.0290  1.8498
  469MOL0     H63267   5.986   1.097   7.211 -2.2714  1.7273  1.1320
  469MOL0     H63268   6.014   1.273   7.178  1.1993  0.6694 -0.2025
  469MOL0     H63269   5.836   1.139   7.046  0.5817  0.4000  3.3030
  469MOL0     H63270   5.969   1.073   6.952 -1.4388 -1.0448  0.3649
  469MOL0     H63271   6.040   1.288   6.873 -0.0548 -1.4715  1.4919
  469MOL0     H63272   5.928   1.375   6.997 -3.2650  0.4584 -0.3656
  469MOL0     H63273   5.733   1.286   6.855  1.2504  0.7510  1.3788
  469MOL0     H63274   5.856   1.210   6.756  2.5080  0.5112 -0.3838
  469MOL0     H63275   5.628   1.476   6.816 -0.3600 -1.3283 -0.6685
  469MOL0     H63276   5.383   1.696   6.707 -1.8548 -1.6115  2.3697
  469MOL0     H63277   5.320   1.557   6.628  1.1515 -0.3269 -0.4969
  469MOL0     H63278   5.391   1.529   6.782 -2.7527 -0.4554  0.3435
  469MOL0     H63279   5.566   1.847   6.152  0.0459 -0.5776  1.5400
  469MOL0     H63280   5.443   1.940   5.965 -0.2165  0.4506  1.7009
  469MOL0     H63281   5.316   2.027   5.823 -0.6288  3.8964  1.2329
  469MOL0     H63282   5.181   2.011   5.725  0.9960  0.7387 -0.7919
  469MOL0     H63283   5.044   2.019   5.954  0.6573 -0.5681  1.8268
  469MOL0     H63284   5.195   2.078   6.031  0.4153  2.0109 -0.4902
  469MOL0     H63285   5.007   2.239   5.876  0.0353  1.2770 -1.7602
  469MOL0     H63286   5.147   2.225   5.779 -1.5542 -0.8246 -0.1541
  469MOL0     H63287   5.164   2.309   6.072 -2.9988  2.3009 -0.8734
  469MOL0     H63288   5.297   2.297   5.958 -0.5325 -0.7332 -0.5034
  469MOL0     H63289   5.045   2.472   5.903  0.5020 -1.4252 -2.7293
  469MOL0     H63290   5.208   2.502   5.847 -1.6243 -3.0401 -2.7862
  469MOL0     H63291   5.124   2.518   6.150  2.4129 -0.4753  0.6138
  469MOL0     H63292   5.271   2.586   6.075 -0.5883 -1.1216  0.3375
  469MOL0     H63293   4.996   2.698   6.019  0.8456  0.3558 -0.3550
  469MOL0     H63294   5.148   2.750   5.941  0.6537 -1.7301 -0.5608
  469MOL0     H63295   5.105   2.751   6.242 -1.2028 -0.0171 -0.1982
  469MOL0     H63296   5.035   2.874   6.144 -1.1508 -1.7452 -1.6304
  469MOL0     H63297   5.173   1.616   5.952 -0.5807  1.7366 -0.6740
  469MOL0     H63298   5.308   1.499   6.127  0.7938 -0.2667 -1.8899
  469MOL0     H63299   5.725   1.582   6.345  2.0587  0.5548  1.1679
  469MOL0     H63300   5.889   1.479   6.486 -1.5448 -5.0697  0.4187
  469MOL0     H63301   7.058   0.685   7.098  0.0099 -0.0611  2.1740
  469MOL0     H63302   7.266   0.598   7.009 -0.1489  0.3571 -0.3294
  469MOL0     H63303   7.561   0.132   7.113 -0.5927  1.9887  3.2880
  469MOL0     H63304   7.792   0.044   7.055 -1.6251  0.8882  1.4979
  469MOL0     H63305   8.066   0.353   6.858  0.6334  0.0681 -1.6120
  469MOL0     H63306   8.109   0.341   7.033 -2.9639 -1.6394  0.3391
  469MOL0     H63307   8.314   0.316   6.910 -0.9598 -0.5852  1.8946
  469MOL0     H63308   8.233   0.204   6.798  0.0926 -0.5215 -0.3720
  469MOL0     H63309   8.188   0.057   7.007 -0.6277  2.3708 -1.3628
  469MOL0     H63310   8.321   0.167   7.089 -0.1272  2.7232 -0.3072
  469MOL0     H63311   8.366   0.012   6.843  1.6221  2.2985 -0.5669
  469MOL0     H63312   8.402  -0.052   7.014  1.0259  1.6153  0.9606
  469MOL0     H63313   8.720   0.211   6.916  0.1972 -1.8247  1.7621
  469MOL0     H63314   7.910   0.439   6.947  0.2575 -0.2468 -0.7220
  469MOL0     H63315   7.696   0.526   7.027  2.7144  0.2758 -2.9629
  470MOL0     O63316   9.767   4.611   2.901  0.0104  0.7406 -0.4481
  470MOL0     C63317   9.690   4.649   2.986  0.9516 -0.0146  0.5064
  470MOL0     O63318   9.667   4.574   3.109 -0.2961  0.4569  0.6782
  470MOL0     C63319   9.685   4.431   3.104  0.5450 -0.1526  0.3555
  470MOL0     C63320   9.721   4.358   3.221  0.7864  0.0592  1.2412
  470MOL0     C63321   9.736   4.218   3.215 -0.0643  0.5143 -0.1075
  470MOL0     C63322   9.715   4.142   3.098  0.4455  1.1665  0.3037
  470MOL0     O63323   9.735   4.006   3.078  0.6482  0.9344 -0.2304
  470MOL0     C63324   9.705   3.916   3.189  0.1945  0.4021 -0.8389
  470MOL0     C63325   9.557   3.908   3.210 -0.2201  0.4908  0.1712
  470MOL0     C63326   9.476   3.908   3.078 -0.0771 -0.1295 -0.5940
  470MOL0     C63327   9.332   3.879   3.115  0.6120 -0.6039 -0.2476
  470MOL0     C63328   9.225   3.909   2.999 -0.3951 -0.3661 -0.3202
  470MOL0     C63329   9.200   4.059   2.966  0.6836 -0.3882  0.6359
  470MOL0     C63330   9.068   4.077   2.876 -0.2517 -1.0930  0.1835
  470MOL0     C63331   8.948   4.062   2.956 -0.5635 -0.4162 -0.1466
  470MOL0     N63332   8.927   4.168   3.053  0.4078 -0.1115 -0.9107
  470MOL0     C63333   8.824   4.259   3.041 -0.0027 -0.1084  0.7129
  470MOL0     C63334   8.816   4.333   3.152  1.4311 -0.3724 -0.4312
  470MOL0     C63335   8.732   4.458   3.164 -0.6267  0.0579  0.0429
  470MOL0     C63336   8.806   4.592   3.104  1.4278 -0.0564  0.1927
  470MOL0     C63337   8.797   4.599   2.954  0.1635 -0.4957  0.3898
  470MOL0     C63338   8.823   4.732   2.895  0.4376 -0.1156 -0.4997
  470MOL0     O63339   8.748   4.836   2.959 -1.1257  0.1674 -0.3094
  470MOL0     C63340   8.606   4.828   2.969 -0.5728 -0.2000 -0.6672
  470MOL0     C63341   8.539   4.863   3.087 -0.0089  0.7487  0.4894
  470MOL0     C63342   8.394   4.873   3.093  1.0891  0.3534 -0.5929
  470MOL0     C63343   8.335   4.910   3.228  0.1609  0.1648  1.2623
  470MOL0     C63344   8.328   4.847   2.965 -0.3008 -0.2883 -0.3747
  470MOL0     C63345   8.188   4.880   2.945  0.2527  0.6585 -0.0293
  470MOL0     O63346   8.136   4.884   2.817  0.1940 -0.4622 -0.4054
  470MOL0     C63347   7.999   4.893   2.801  0.1416 -0.8486  0.6282
  470MOL0     C63348   7.921   4.785   2.792  0.5048  0.1947 -0.5382
  470MOL0     C63349   7.780   4.804   2.770 -0.3019  0.4076 -0.7039
  470MOL0     C63350   7.729   4.923   2.735 -0.2947 -0.2722 -0.7237
  470MOL0     O63351   7.601   4.920   2.688 -0.5441 -0.3140  0.1679
  470MOL0     C63352   7.521   5.042   2.715 -0.0144  1.2241 -0.0918
  470MOL0     C63353   7.379   5.020   2.666 -0.2780  0.4152  0.6055
  470MOL0     C63354   7.287   5.138   2.692 -0.3157  0.2312  0.1760
  470MOL0     C63355   7.142   5.113   2.668  1.2675 -0.4683 -0.0564
  470MOL0     C63356   7.047   5.230   2.702 -0.1037  0.5724  0.5164
  470MOL0     C63357   6.897   5.200   2.666 -0.1176  0.3417  0.3419
  470MOL0     C63358   6.807   5.313   2.697  0.5278 -0.7133  0.6052
  470MOL0     C63359   6.666   5.280   2.676  0.6186  0.2155 -0.2828
  470MOL0    Cl63360   6.552   5.420   2.721 -0.5274  0.1071  0.0019
  470MOL0     C63361   7.811   5.038   2.748  0.0384 -1.0217  0.0050
  470MOL0     C63362   7.942   5.022   2.787  0.5029  0.0330  1.0911
  470MOL0     O63363   8.123   4.896   3.050  0.0160  0.6380 -0.2452
  470MOL0     C63364   8.393   4.806   2.855 -0.9982 -0.6270  1.1354
  470MOL0     C63365   8.536   4.793   2.855  1.1624 -0.6028 -0.0177
  470MOL0     N63366   8.910   4.276   3.245  0.2778 -0.2926  0.6176
  470MOL0     N63367   8.969   4.175   3.181  0.6294  0.2080 -0.1432
  470MOL0     C63368   9.670   4.212   2.995 -0.7556  0.8443  0.6671
  470MOL0     C63369   9.653   4.353   2.991  0.2321  0.9269  0.0995
  470MOL0     C63370   9.599   4.768   2.961  0.2901 -0.4533  0.5237
  470MOL0     C63371   9.607   4.830   2.842 -0.4645 -0.1201  0.0417
  470MOL0     C63372   9.517   4.924   2.805  0.6470  0.0128  0.3890
  470MOL0     C63373   9.416   4.966   2.891  0.6983  0.5068  0.3904
  470MOL0     O63374   9.353   5.074   2.837 -0.1433 -0.7951  0.1560
  470MOL0     C63375   9.213   5.074   2.826  0.2996  0.1936  0.3589
  470MOL0     C63376   9.169   5.018   2.686 -0.0674 -0.1346 -0.6384
  470MOL0     C63377   9.030   5.081   2.652  0.0079  0.1970 -0.4723
  470MOL0     C63378   8.918   4.985   2.677  0.6400  0.9803 -0.6379
  470MOL0     C63379   8.802   5.040   2.624 -0.3637  0.6089 -0.4314
  470MOL0     C63380   8.704   5.099   2.583  0.3824  0.1480  0.4995
  470MOL0     C63381   9.420   4.908   3.013  0.6970 -0.3458 -0.5252
  470MOL0     C63382   9.514   4.814   3.057 -0.2401  0.7633 -0.3182
  470MOL0     H63383   9.728   4.410   3.316  0.1142  0.0356  1.3110
  470MOL0     H63384   9.776   4.168   3.303  2.2601 -0.0341 -1.3974
  470MOL0     H63385   9.755   3.821   3.169  0.6146  0.6580 -1.0137
  470MOL0     H63386   9.762   3.941   3.279  1.2502 -0.3036 -1.2944
  470MOL0     H63387   9.534   3.818   3.269 -2.3215 -0.5801 -2.0894
  470MOL0     H63388   9.519   3.988   3.274 -2.5917 -0.4896  0.1053
  470MOL0     H63389   9.485   4.006   3.029 -0.7175  1.5966  2.4575
  470MOL0     H63390   9.527   3.830   3.021  2.0995  1.6239 -1.2116
  470MOL0     H63391   9.314   3.772   3.125 -2.0796 -0.2695 -0.7812
  470MOL0     H63392   9.304   3.917   3.214 -1.8106 -2.5237 -0.1053
  470MOL0     H63393   9.258   3.862   2.906 -0.6833  0.1908 -0.7157
  470MOL0     H63394   9.134   3.867   3.044  0.3960 -2.0299 -0.2113
  470MOL0     H63395   9.193   4.114   3.060 -0.5653 -0.3661  0.5489
  470MOL0     H63396   9.289   4.107   2.924  2.8965 -1.4147  3.7764
  470MOL0     H63397   9.080   4.177   2.833 -1.0146 -0.5301  1.2273
  470MOL0     H63398   9.067   3.995   2.804 -0.3543 -1.3177  0.4410
  470MOL0     H63399   8.953   3.971   3.016  1.4181 -0.0900  0.2475
  470MOL0     H63400   8.859   4.055   2.892  1.3897  0.0182 -3.0855
  470MOL0     H63401   8.773   4.269   2.945 -0.4935 -1.0227  0.8720
  470MOL0     H63402   8.637   4.439   3.113 -1.3306 -1.2295  1.7303
  470MOL0     H63403   8.702   4.474   3.268 -0.9240 -1.2740  0.1755
  470MOL0     H63404   8.909   4.606   3.138  1.2400  2.3189 -0.0479
  470MOL0     H63405   8.745   4.671   3.147  0.4151  0.5443 -2.1842
  470MOL0     H63406   8.696   4.568   2.925  0.3090  0.5560 -1.4211
  470MOL0     H63407   8.860   4.530   2.897  2.1662  0.9410  0.7617
  470MOL0     H63408   8.810   4.728   2.787  1.3390  2.1888 -0.7538
  470MOL0     H63409   8.931   4.739   2.908  0.3058 -1.0266  1.6615
  470MOL0     H63410   8.605   4.892   3.168 -1.2048 -1.2236  2.2650
  470MOL0     H63411   8.318   5.018   3.231  1.9319  0.5640 -0.5283
  470MOL0     H63412   8.242   4.854   3.240 -0.0819  0.5097  0.9832
  470MOL0     H63413   8.405   4.878   3.307  0.6568 -0.6851  0.4968
  470MOL0     H63414   7.962   4.688   2.820 -0.2268 -0.3799 -1.4154
  470MOL0     H63415   7.713   4.719   2.763 -0.7292  0.6737  0.0696
  470MOL0     H63416   7.526   5.057   2.824 -0.1449  0.8327 -0.0305
  470MOL0     H63417   7.566   5.130   2.670 -2.4697  1.3082 -2.6422
  470MOL0     H63418   7.383   4.999   2.559 -0.1183 -1.3003  0.9127
  470MOL0     H63419   7.341   4.927   2.708 -2.9211  2.3927  2.9182
  470MOL0     H63420   7.324   5.218   2.627  1.5741  2.6260  3.8808
  470MOL0     H63421   7.298   5.181   2.792 -1.2231  1.0576 -0.0677
  470MOL0     H63422   7.127   5.072   2.568  0.5980  0.8847 -0.5322
  470MOL0     H63423   7.110   5.033   2.736 -3.0128  1.5108  0.5878
  470MOL0     H63424   7.070   5.317   2.641  2.0101  0.2944  0.8346
  470MOL0     H63425   7.044   5.246   2.811 -0.7868 -0.8877  0.7517
  470MOL0     H63426   6.891   5.175   2.560 -2.5325 -0.3286  0.5809
  470MOL0     H63427   6.862   5.117   2.728 -1.0061 -0.5050 -1.2410
  470MOL0     H63428   6.828   5.400   2.634  2.4137 -1.4955  0.1154
  470MOL0     H63429   6.831   5.353   2.796  0.4326  0.3071  0.2233
  470MOL0     H63430   6.645   5.191   2.737  0.4804  0.1460 -0.4326
  470MOL0     H63431   6.658   5.267   2.568  1.5271 -1.2858 -0.1949
  470MOL0     H63432   7.781   5.138   2.719 -1.7637 -2.0688 -2.0244
  470MOL0     H63433   8.010   5.106   2.793  0.0039  0.3719  2.3514
  470MOL0     H63434   8.355   4.784   2.756  1.8080  3.2795 -1.0977
  470MOL0     H63435   8.582   4.763   2.762  1.1253  0.5137 -0.4172
  470MOL0     H63436   9.658   4.164   2.898  3.5093 -0.6366  0.6694
  470MOL0     H63437   9.602   4.393   2.904 -0.9087 -2.8281 -1.1784
  470MOL0     H63438   9.681   4.809   2.766 -1.5531  0.8280 -1.3425
  470MOL0     H63439   9.522   4.963   2.704  0.9461  0.0155  0.4032
  470MOL0     H63440   9.157   5.013   2.899 -1.5466  1.5533  0.1413
  470MOL0     H63441   9.176   5.176   2.825 -2.6885 -0.7837 -0.7608
  470MOL0     H63442   9.166   4.909   2.674 -1.9448 -0.2051  0.0335
  470MOL0     H63443   9.240   5.056   2.612 -1.7350 -0.0046 -2.2316
  470MOL0     H63444   9.036   5.103   2.545  2.5838 -0.7467 -0.5963
  470MOL0     H63445   9.017   5.179   2.697 -3.7900  0.3849 -1.6229
  470MOL0     H63446   8.905   4.980   2.785 -2.0708  0.6554 -0.9024
  470MOL0     H63447   8.933   4.885   2.634 -1.0736 -0.8466  2.6084
  470MOL0     H63448   8.617   5.143   2.540  0.7485  1.4383  1.0277
  470MOL0     H63449   9.352   4.945   3.090  0.9113 -1.5235  0.2545
  470MOL0     H63450   9.518   4.761   3.151  0.3410 -3.6128 -2.5818
  471MOL0     O63451   6.199   6.405   9.915 -0.2499 -0.2054  0.0240
  471MOL0     C63452   6.218   6.283   9.912 -1.0102  0.5392 -0.9516
  471MOL0     O63453   6.137   6.192   9.860 -0.1480 -0.0359 -0.0746
  471MOL0     C63454   6.031   6.242   9.788  0.9092 -0.7185  0.2072
  471MOL0     C63455   6.001   6.193   9.658 -1.2651 -0.0043  0.0034
  471MOL0     C63456   5.892   6.233   9.584 -0.7817 -0.7649  0.2875
  471MOL0     C63457   5.804   6.331   9.642 -0.2114 -0.3268 -0.7330
  471MOL0     O63458   5.698   6.378   9.569 -0.0144 -0.3740 -0.8701
  471MOL0     C63459   5.731   6.489   9.487 -0.1014 -0.2445  0.3516
  471MOL0     C63460   5.709   6.458   9.331  0.4683 -0.1563  0.5575
  471MOL0     C63461   5.554   6.444   9.303  0.1294 -0.1506  0.4495
  471MOL0     C63462   5.544   6.356   9.174  0.1407 -0.2688  0.2141
  471MOL0     C63463   5.564   6.444   9.047  0.5027 -0.9955 -0.2242
  471MOL0     C63464   5.556   6.378   8.914  0.1279 -0.0474 -0.2121
  471MOL0     C63465   5.576   6.486   8.800 -0.0491  0.6262  0.6914
  471MOL0     C63466   5.493   6.611   8.797  0.4977  0.2566 -0.1774
  471MOL0     N63467   5.351   6.594   8.815  0.3328 -0.4046 -0.2635
  471MOL0     C63468   5.283   6.670   8.911 -0.6666 -0.0198 -0.2647
  471MOL0     C63469   5.151   6.647   8.881 -0.4170  0.5068 -0.7270
  471MOL0     C63470   5.024   6.683   8.960 -0.3131 -1.1786 -1.0040
  471MOL0     C63471   4.996   6.582   9.061  0.8311 -0.2050  0.2026
  471MOL0     C63472   5.093   6.585   9.187  0.5073 -0.2722  0.8073
  471MOL0     C63473   5.092   6.458   9.274  0.1500 -0.0065  0.8300
  471MOL0     O63474   5.130   6.353   9.189  0.0520  0.5382 -0.6395
  471MOL0     C63475   5.144   6.229   9.241  0.6122  0.1982  0.7913
  471MOL0     C63476   5.190   6.125   9.162 -0.3464 -0.2010 -0.4220
  471MOL0     C63477   5.228   6.003   9.209 -0.8657  0.1451  0.0693
  471MOL0     C63478   5.292   5.911   9.107  0.6276 -0.1111  0.0152
  471MOL0     C63479   5.189   5.966   9.336 -0.5806  0.0219  0.4371
  471MOL0     C63480   5.222   5.837   9.404  0.3676 -0.8200  0.5210
  471MOL0     O63481   5.183   5.817   9.532 -0.3612  0.5166  0.1509
  471MOL0     C63482   5.265   5.735   9.612 -0.4969  0.1256  0.1400
  471MOL0     C63483   5.402   5.758   9.625  0.0447  0.0504  0.2455
  471MOL0     C63484   5.476   5.674   9.707 -0.7734  0.0927  0.8214
  471MOL0     C63485   5.425   5.563   9.773  0.8899  0.2223 -0.2756
  471MOL0     O63486   5.504   5.476   9.848 -0.7337  0.0910  0.1444
  471MOL0     C63487   5.457   5.465   9.984  0.7356  0.8836  0.3495
  471MOL0     C63488   5.550   5.377  10.078  0.6256  0.7376  1.0230
  471MOL0     C63489   5.673   5.456  10.115  0.1715 -0.2485 -0.1160
  471MOL0     C63490   5.794   5.393  10.178 -0.2450  0.1157  1.0135
  471MOL0     C63491   5.781   5.405  10.339  0.2313  0.0814  1.3164
  471MOL0     C63492   5.909   5.359  10.406  0.1486 -0.1077 -0.3771
  471MOL0     C63493   6.038   5.441  10.371  0.6460  0.7849  0.2292
  471MOL0     C63494   6.129   5.374  10.278  0.2247  0.7509  0.0599
  471MOL0    Cl63495   6.166   5.219  10.353 -0.2721  0.1193 -0.3255
  471MOL0     C63496   5.284   5.541   9.757  0.2109 -0.0467  0.2518
  471MOL0     C63497   5.203   5.626   9.675 -0.2236 -0.7113 -0.1640
  471MOL0     O63498   5.292   5.755   9.344  1.4246 -0.5149  0.3197
  471MOL0     C63499   5.131   6.057   9.423 -0.0873 -0.4486  0.2673
  471MOL0     C63500   5.109   6.187   9.373  0.1768 -0.4203  0.3272
  471MOL0     N63501   5.149   6.560   8.773 -0.1161  0.6618 -0.2676
  471MOL0     N63502   5.270   6.520   8.742  0.7263  0.3706  0.2616
  471MOL0     C63503   5.825   6.369   9.767  0.2118 -0.8839 -0.0219
  471MOL0     C63504   5.933   6.332   9.841 -1.0481 -0.0689  0.0735
  471MOL0     C63505   6.342   6.231   9.981  0.1001  0.1321 -0.0631
  471MOL0     C63506   6.375   6.095   9.990 -1.0575 -0.4221  0.3039
  471MOL0     C63507   6.495   6.060  10.056  0.0973 -0.3308 -0.0257
  471MOL0     C63508   6.582   6.159  10.120 -0.7954 -0.7348  0.2590
  471MOL0     O63509   6.696   6.141  10.196 -0.1472 -0.9089  0.0657
  471MOL0     C63510   6.741   6.009  10.220 -0.3040  0.4536  0.1426
  471MOL0     C63511   6.818   5.949  10.099  0.2747 -0.7535  0.0623
  471MOL0     C63512   6.957   6.023  10.070  0.1951  0.9784  0.1172
  471MOL0     C63513   7.058   5.948   9.975  0.3029 -1.3468 -0.4384
  471MOL0     C63514   7.116   5.830  10.045 -0.7268  1.4337  0.0860
  471MOL0     C63515   7.156   5.722  10.089  0.3937  0.5737 -0.3921
  471MOL0     C63516   6.547   6.294  10.103 -0.0691  0.6291  0.3050
  471MOL0     C63517   6.419   6.326  10.044 -0.1943  0.2495 -0.9060
  471MOL0     H63518   6.071   6.122   9.615  0.2563  2.3447 -1.6253
  471MOL0     H63519   5.868   6.193   9.486  0.5370 -1.2444  0.1279
  471MOL0     H63520   5.669   6.573   9.519 -1.2107 -0.0725 -2.0030
  471MOL0     H63521   5.835   6.521   9.500  0.0642 -0.4234 -0.4698
  471MOL0     H63522   5.769   6.540   9.289  2.0199 -0.9992  1.0540
  471MOL0     H63523   5.760   6.368   9.297  0.2805  1.2809 -4.4152
  471MOL0     H63524   5.503   6.396   9.387 -1.9883 -0.4379 -0.9300
  471MOL0     H63525   5.506   6.540   9.283 -3.6675 -1.4804  2.1741
  471MOL0     H63526   5.624   6.281   9.176 -1.4683 -2.0877 -0.5633
  471MOL0     H63527   5.445   6.308   9.167  0.3657 -0.5875 -1.0425
  471MOL0     H63528   5.492   6.526   9.053  0.9961 -0.1018 -4.0473
  471MOL0     H63529   5.664   6.488   9.053 -0.0965  0.3895 -0.1023
  471MOL0     H63530   5.627   6.295   8.906 -1.1995 -1.1914 -0.4019
  471MOL0     H63531   5.457   6.333   8.913  0.0008  0.0129  2.2771
  471MOL0     H63532   5.679   6.523   8.796 -0.8257  2.9497  0.5664
  471MOL0     H63533   5.551   6.430   8.710  0.6206 -0.5876  1.2428
  471MOL0     H63534   5.513   6.652   8.697 -2.2308 -1.2048 -1.4368
  471MOL0     H63535   5.531   6.682   8.871 -1.9940 -1.6880  3.2412
  471MOL0     H63536   5.329   6.727   8.991  0.3169 -1.2721  0.0915
  471MOL0     H63537   5.041   6.772   9.020 -0.3985 -2.6844  1.3797
  471MOL0     H63538   4.935   6.703   8.899 -0.6242  1.0402  0.0951
  471MOL0     H63539   4.984   6.484   9.012 -2.5192 -0.1490  0.6835
  471MOL0     H63540   4.900   6.603   9.108  0.7551 -0.0215 -0.0328
  471MOL0     H63541   5.065   6.675   9.244  2.9836  1.1200 -0.0268
  471MOL0     H63542   5.198   6.605   9.166 -0.2131  0.4477 -2.6495
  471MOL0     H63543   4.999   6.433   9.326  1.5559 -1.2081  2.9013
  471MOL0     H63544   5.174   6.475   9.345 -1.6450 -0.9749  3.2477
  471MOL0     H63545   5.215   6.157   9.061  0.9775 -2.4822 -0.8820
  471MOL0     H63546   5.390   5.882   9.147  0.5802 -0.3036 -0.0107
  471MOL0     H63547   5.238   5.816   9.099  2.1183 -0.9070 -1.0529
  471MOL0     H63548   5.302   5.962   9.011  0.8281 -1.0853 -0.4966
  471MOL0     H63549   5.445   5.839   9.567 -3.2197  1.6215 -0.1970
  471MOL0     H63550   5.581   5.696   9.717 -0.1297 -2.0818 -0.3997
  471MOL0     H63551   5.447   5.559  10.038 -1.8214 -0.0955  1.7605
  471MOL0     H63552   5.361   5.412   9.987  2.4374 -2.5684 -0.6307
  471MOL0     H63553   5.488   5.342  10.160  0.1372 -0.2279  0.2631
  471MOL0     H63554   5.576   5.286  10.023 -5.7168 -1.0182  0.1171
  471MOL0     H63555   5.628   5.542  10.166 -1.6518 -0.4034 -1.3574
  471MOL0     H63556   5.698   5.494  10.015 -2.5306  0.6738 -0.5445
  471MOL0     H63557   5.786   5.286  10.153  1.2152  0.6030 -1.9846
  471MOL0     H63558   5.887   5.437  10.142 -1.6322  1.8801 -0.5939
  471MOL0     H63559   5.701   5.337  10.369  0.2350  0.0217  1.1912
  471MOL0     H63560   5.755   5.507  10.366  0.0528  0.7330 -1.0825
  471MOL0     H63561   5.888   5.383  10.511  1.1220  1.4807 -0.5152
  471MOL0     H63562   5.916   5.252  10.388 -1.0574 -0.2925  0.1455
  471MOL0     H63563   6.104   5.455  10.457  1.4573  0.9110 -0.4111
  471MOL0     H63564   6.013   5.545  10.345  2.0503  0.8184 -1.0794
  471MOL0     H63565   6.221   5.433  10.273  1.2872 -0.7502  0.8767
  471MOL0     H63566   6.083   5.360  10.180 -0.3166  1.3185  0.2267
  471MOL0     H63567   5.236   5.463   9.816  1.6237 -0.0141  1.5032
  471MOL0     H63568   5.096   5.610   9.674 -0.5369  0.6439  2.4314
  471MOL0     H63569   5.113   6.045   9.529 -2.3762  1.0671  0.1381
  471MOL0     H63570   5.075   6.257   9.449 -2.4126 -2.4405  1.2123
  471MOL0     H63571   5.746   6.432   9.806 -1.6552 -2.4190 -1.1665
  471MOL0     H63572   5.955   6.360   9.944  0.1261 -2.7176  0.6381
  471MOL0     H63573   6.305   6.021   9.951 -0.1059 -1.4169  0.4281
  471MOL0     H63574   6.517   5.955  10.070 -2.3419 -0.9838 -0.6440
  471MOL0     H63575   6.795   6.007  10.315 -1.8173 -0.7504  1.0258
  471MOL0     H63576   6.665   5.934  10.245  0.8143 -0.7666 -0.0266
  471MOL0     H63577   6.756   5.955  10.008  1.2268 -0.5664 -0.5846
  471MOL0     H63578   6.839   5.844  10.120  3.4240 -0.2154 -0.0256
  471MOL0     H63579   7.005   6.036  10.167  0.4111 -1.4690  0.4091
  471MOL0     H63580   6.935   6.119  10.022  0.4966  0.6002 -0.8091
  471MOL0     H63581   7.131   6.022   9.939  0.2977 -0.4949  1.2355
  471MOL0     H63582   7.003   5.921   9.885 -0.1691 -0.0841 -0.5460
  471MOL0     H63583   7.176   5.637  10.151 -4.2352  0.1271  0.8032
  471MOL0     H63584   6.608   6.380  10.128  0.2263  1.4507 -2.8340
  471MOL0     H63585   6.394   6.431  10.051  3.7165  1.3289 -0.7231
  472MOL0     O63586  11.368   3.445   3.506  0.8534  0.2196 -0.3718
  472MOL0     C63587  11.462   3.372   3.483 -0.3925 -0.4320  0.8706
  472MOL0     O63588  11.466   3.243   3.491  0.0741  0.5483  0.2349
  472MOL0     C63589  11.368   3.169   3.539  1.1276  0.2735  0.2242
  472MOL0     C63590  11.333   3.046   3.466 -0.6534 -0.3748  0.4016
  472MOL0     C63591  11.246   2.955   3.517 -0.2192  0.2864  0.4916
  472MOL0     C63592  11.174   2.991   3.636 -0.2865 -0.5228  0.4470
  472MOL0     O63593  11.081   2.914   3.684 -0.0522  0.2055  0.6376
  472MOL0     C63594  11.013   2.823   3.595 -0.3798  1.0320  0.0239
  472MOL0     C63595  10.896   2.750   3.670 -0.2015  0.7907 -0.6159
  472MOL0     C63596  10.855   2.622   3.597  0.3732 -0.7238  0.0863
  472MOL0     C63597  10.882   2.494   3.680  0.2447 -0.2962 -0.2721
  472MOL0     C63598  10.859   2.369   3.593 -0.0119 -1.2889 -0.9432
  472MOL0     C63599  10.969   2.338   3.491  0.0271 -0.0410  1.2249
  472MOL0     C63600  10.914   2.271   3.368  0.5012  0.6172 -0.1503
  472MOL0     C63601  10.819   2.359   3.278  0.3116  0.5728 -0.1028
  472MOL0     N63602  10.791   2.285   3.158  0.0526 -0.0954  0.4237
  472MOL0     C63603  10.677   2.206   3.118 -0.2462 -0.5867 -0.1982
  472MOL0     C63604  10.693   2.177   2.987 -0.2872 -0.3683 -0.1408
  472MOL0     C63605  10.604   2.090   2.896  0.1968 -0.2555  0.3331
  472MOL0     C63606  10.521   1.978   2.951  0.2933 -0.1998  0.3785
  472MOL0     C63607  10.610   1.851   2.965  0.6740  0.3688  0.1439
  472MOL0     C63608  10.533   1.720   2.973 -0.2759  0.8507 -0.4629
  472MOL0     O63609  10.484   1.698   2.839 -0.4028  0.3266 -0.0327
  472MOL0     C63610  10.430   1.571   2.828 -1.0293  0.3272 -0.1762
  472MOL0     C63611  10.414   1.471   2.921 -0.0129 -0.3226  0.5004
  472MOL0     C63612  10.365   1.346   2.881 -0.6070 -0.6087  0.8521
  472MOL0     C63613  10.367   1.244   2.988 -0.4390  0.6558 -0.3759
  472MOL0     C63614  10.321   1.323   2.749 -0.0319 -0.8643 -0.3825
  472MOL0     C63615  10.244   1.206   2.709 -0.4015  0.3343  0.3905
  472MOL0     O63616  10.297   1.092   2.747 -0.5760  0.4114  0.1143
  472MOL0     C63617  10.211   0.988   2.736 -0.6744  0.4100 -0.6081
  472MOL0     C63618  10.230   0.896   2.635 -0.3117  0.0549 -1.2789
  472MOL0     C63619  10.147   0.780   2.614  0.2609  0.1229 -0.1622
  472MOL0     C63620  10.037   0.762   2.697 -0.3188 -0.4676 -0.8134
  472MOL0     O63621   9.936   0.665   2.685 -0.1142 -0.0110 -0.1611
  472MOL0     C63622   9.965   0.530   2.702  0.8679  0.5343 -0.2304
  472MOL0     C63623   9.892   0.455   2.595 -0.3472  0.4087 -0.1386
  472MOL0     C63624   9.978   0.396   2.477 -0.1300 -0.9086 -0.6515
  472MOL0     C63625   9.899   0.328   2.374  0.8318 -0.5195  0.3821
  472MOL0     C63626   9.983   0.277   2.258 -0.3859 -0.5309 -0.2176
  472MOL0     C63627  10.086   0.178   2.301  0.6239  0.2188  0.5747
  472MOL0     C63628  10.165   0.123   2.186 -0.0339 -0.0625  0.2080
  472MOL0     C63629  10.278   0.052   2.248 -0.4818  0.3409 -0.5512
  472MOL0    Cl63630  10.361  -0.031   2.116 -0.2587 -0.0892  0.3039
  472MOL0     C63631  10.012   0.866   2.794  0.1658  0.1167  0.1331
  472MOL0     C63632  10.105   0.970   2.822  0.4795 -0.3407  0.6895
  472MOL0     O63633  10.143   1.220   2.636 -0.5137  0.7932  0.2132
  472MOL0     C63634  10.309   1.431   2.670  1.0721 -0.5263 -0.3336
  472MOL0     C63635  10.372   1.548   2.705  0.5411 -1.1898  0.5349
  472MOL0     N63636  10.823   2.220   2.958  0.2937  0.3905 -0.6964
  472MOL0     N63637  10.876   2.283   3.053  0.1153 -0.6311  0.1238
  472MOL0     C63638  11.215   3.100   3.708  0.2192 -0.6742  0.0459
  472MOL0     C63639  11.304   3.192   3.661  0.1802 -0.9800 -0.5340
  472MOL0     C63640  11.572   3.431   3.405  0.4258 -0.2605 -0.0995
  472MOL0     C63641  11.572   3.565   3.362 -1.0473 -0.3670  0.6086
  472MOL0     C63642  11.680   3.623   3.291 -0.0373  0.5839  0.2347
  472MOL0     C63643  11.791   3.547   3.252  0.4411 -0.7883 -0.9691
  472MOL0     O63644  11.897   3.583   3.172  0.2414  0.8224 -0.2621
  472MOL0     C63645  11.888   3.710   3.105  0.0883 -0.3404  0.1756
  472MOL0     C63646  12.011   3.722   2.999 -0.2549 -0.7194  1.0129
  472MOL0     C63647  12.121   3.807   3.060 -0.3503  0.4613 -0.4819
  472MOL0     C63648  12.246   3.794   2.961  0.5094 -0.4237 -0.8267
  472MOL0     C63649  12.360   3.849   3.024  0.0039 -0.6306 -0.7892
  472MOL0     C63650  12.456   3.912   3.070 -0.6150 -1.0423 -0.5681
  472MOL0     C63651  11.790   3.417   3.296  0.3388  0.5526 -1.2897
  472MOL0     C63652  11.682   3.357   3.362 -0.6528  0.4604  0.4079
  472MOL0     H63653  11.379   3.018   3.372 -3.9007 -0.7346 -1.2128
  472MOL0     H63654  11.216   2.875   3.450 -0.0770  0.0564  0.6996
  472MOL0     H63655  10.956   2.882   3.522 -4.0317 -2.7264 -0.5769
  472MOL0     H63656  11.083   2.756   3.544  1.1250  1.9267  0.8302
  472MOL0     H63657  10.932   2.736   3.772 -1.5917  0.1689 -0.1965
  472MOL0     H63658  10.812   2.816   3.693 -0.1625 -0.3326  3.3669
  472MOL0     H63659  10.751   2.643   3.570  0.4875 -0.2616 -0.0012
  472MOL0     H63660  10.903   2.613   3.499 -2.2374  2.0180 -1.6113
  472MOL0     H63661  10.987   2.499   3.712 -0.4571 -1.3079  2.4757
  472MOL0     H63662  10.833   2.492   3.778  0.7710  0.4383  0.0173
  472MOL0     H63663  10.856   2.282   3.660  2.3236 -2.2610 -1.9931
  472MOL0     H63664  10.764   2.387   3.543  0.0398  1.0341 -0.3434
  472MOL0     H63665  11.023   2.428   3.459  1.5561 -1.1117  0.6963
  472MOL0     H63666  11.044   2.269   3.530  0.5158 -0.6639 -0.7478
  472MOL0     H63667  11.000   2.235   3.310 -0.3307 -2.3412  0.2768
  472MOL0     H63668  10.864   2.181   3.406  1.5303  0.3547  0.6115
  472MOL0     H63669  10.862   2.456   3.249 -0.6091  0.7649 -0.8726
  472MOL0     H63670  10.719   2.378   3.319  0.1983  0.9127 -0.5299
  472MOL0     H63671  10.587   2.177   3.171 -0.3161 -5.6043 -2.4296
  472MOL0     H63672  10.526   2.148   2.846  1.3046  0.3697 -0.7276
  472MOL0     H63673  10.662   2.042   2.816  0.3393 -2.5904  1.7405
  472MOL0     H63674  10.434   1.968   2.886  0.5356 -0.2701  0.0614
  472MOL0     H63675  10.482   2.016   3.046 -0.5579  2.8860 -1.0996
  472MOL0     H63676  10.670   1.857   3.056  2.6164 -0.3909 -1.0237
  472MOL0     H63677  10.683   1.848   2.884  0.1794 -0.0787 -0.2903
  472MOL0     H63678  10.460   1.731   3.053  0.9254 -0.9469  0.9727
  472MOL0     H63679  10.598   1.637   3.004 -0.8958  0.3342 -0.5130
  472MOL0     H63680  10.440   1.475   3.027 -0.6543 -0.5515  0.6743
  472MOL0     H63681  10.389   1.289   3.085 -0.0533  0.2445 -0.2717
  472MOL0     H63682  10.279   1.182   3.006 -2.6132  3.4810 -0.5757
  472MOL0     H63683  10.450   1.177   2.964 -1.2411 -0.0157 -1.3773
  472MOL0     H63684  10.315   0.914   2.570  0.6224  2.5974  0.5066
  472MOL0     H63685  10.177   0.701   2.546  0.1941 -0.4918  0.5017
  472MOL0     H63686  10.072   0.506   2.706  0.6502 -0.3086  1.7779
  472MOL0     H63687   9.934   0.503   2.803 -1.5894 -2.9460 -1.7296
  472MOL0     H63688   9.841   0.369   2.639 -0.4749  0.8560  0.5975
  472MOL0     H63689   9.808   0.517   2.562 -0.0943  1.1742  0.6404
  472MOL0     H63690  10.043   0.320   2.521 -1.8394 -2.3391 -0.4514
  472MOL0     H63691  10.043   0.467   2.426  0.2315 -2.0211 -1.7814
  472MOL0     H63692   9.849   0.245   2.424  1.6490 -1.4039 -0.2338
  472MOL0     H63693   9.824   0.400   2.339  0.8904  0.3768  2.0083
  472MOL0     H63694  10.049   0.355   2.219 -1.4486 -0.4993 -2.0786
  472MOL0     H63695   9.917   0.238   2.180 -1.1035 -0.4495  0.3363
  472MOL0     H63696  10.152   0.238   2.365 -1.0622  3.5910 -0.6138
  472MOL0     H63697  10.040   0.099   2.360  0.6412  1.4776  2.3412
  472MOL0     H63698  10.208   0.205   2.128  1.0591 -0.0287  1.0362
  472MOL0     H63699  10.105   0.056   2.123 -1.8925 -0.5637  2.4013
  472MOL0     H63700  10.240  -0.021   2.321  0.3776  1.4294  1.0289
  472MOL0     H63701  10.348   0.108   2.310  2.1876 -1.7647 -1.4537
  472MOL0     H63702   9.920   0.875   2.851 -0.8736 -1.7061 -1.1228
  472MOL0     H63703  10.091   1.043   2.902  1.7818  2.7233 -1.6347
  472MOL0     H63704  10.264   1.432   2.571  0.1524  2.4097  0.0229
  472MOL0     H63705  10.368   1.621   2.624 -1.1535 -2.3907 -0.5413
  472MOL0     H63706  11.186   3.112   3.812  1.3922 -0.4438  0.3639
  472MOL0     H63707  11.329   3.278   3.722  2.5663 -3.2906  2.0934
  472MOL0     H63708  11.492   3.634   3.388 -0.9815 -0.0723  0.0417
  472MOL0     H63709  11.670   3.728   3.265 -1.3185  0.1107 -1.3639
  472MOL0     H63710  11.790   3.712   3.056 -0.6990  2.3137  1.6951
  472MOL0     H63711  11.888   3.783   3.186 -4.5682 -1.5389  1.5529
  472MOL0     H63712  11.975   3.767   2.906 -0.8219 -1.1673  1.0119
  472MOL0     H63713  12.050   3.624   2.971 -0.7441 -1.1620  1.8297
  472MOL0     H63714  12.139   3.771   3.162 -0.3618 -0.3273 -0.7497
  472MOL0     H63715  12.090   3.911   3.065  1.5642  1.3804 -4.0119
  472MOL0     H63716  12.221   3.827   2.860 -2.4402 -2.1536 -0.7761
  472MOL0     H63717  12.263   3.686   2.947  1.7514 -0.2766 -0.6304
  472MOL0     H63718  12.547   3.952   3.108 -2.5411  0.2869  3.1182
  472MOL0     H63719  11.871   3.349   3.272 -0.8099 -0.9907 -0.9855
  472MOL0     H63720  11.678   3.254   3.397 -1.3126  0.2888 -0.1359
  473MOL0     O63721   8.556   5.677   7.813  0.3235  0.0697 -0.1323
  473MOL0     C63722   8.540   5.614   7.922 -0.5055  0.4196  0.7908
  473MOL0     O63723   8.615   5.626   8.042  0.8418  0.2667 -0.1855
  473MOL0     C63724   8.721   5.712   8.053  0.8330 -1.2394  0.3535
  473MOL0     C63725   8.789   5.783   7.947 -0.3677  0.7306 -0.0886
  473MOL0     C63726   8.892   5.870   7.979  0.5660 -0.0850  0.2680
  473MOL0     C63727   8.933   5.888   8.118  0.3503 -0.2737  0.2323
  473MOL0     O63728   9.032   5.968   8.147  0.1060 -0.7917 -0.7882
  473MOL0     C63729   9.126   6.015   8.050  0.9717 -0.6574  0.3411
  473MOL0     C63730   9.273   6.049   8.085 -0.2526  0.4746  0.1767
  473MOL0     C63731   9.289   6.155   8.196  1.1111  0.7681  0.0484
  473MOL0     C63732   9.232   6.288   8.161  0.4302 -0.0093  0.3227
  473MOL0     C63733   9.305   6.389   8.252  0.4804 -0.9338  0.3113
  473MOL0     C63734   9.240   6.530   8.251 -0.5898  0.7770 -0.8138
  473MOL0     C63735   9.258   6.598   8.118  0.4676 -0.1830 -0.1257
  473MOL0     C63736   9.188   6.733   8.107 -0.0283  0.0919 -0.0178
  473MOL0     N63737   9.043   6.707   8.081 -0.2824 -0.5332 -0.6495
  473MOL0     C63738   8.978   6.698   7.963 -0.3689  0.2491  1.2552
  473MOL0     C63739   8.845   6.697   7.993 -0.3676 -0.2054  0.0609
  473MOL0     C63740   8.735   6.678   7.890  0.2770 -0.1138  0.3483
  473MOL0     C63741   8.608   6.615   7.951  0.7122 -0.5965 -0.8205
  473MOL0     C63742   8.520   6.729   8.007 -0.2349 -0.4276  0.2005
  473MOL0     C63743   8.417   6.785   7.907 -1.0536 -0.0933  0.6410
  473MOL0     O63744   8.326   6.685   7.866 -0.3023 -0.1658 -0.0168
  473MOL0     C63745   8.204   6.719   7.829 -0.7074 -0.5468 -0.2117
  473MOL0     C63746   8.168   6.829   7.765  0.2434  0.2954 -1.0050
  473MOL0     C63747   8.028   6.866   7.751 -0.3059  0.1625 -0.7775
  473MOL0     C63748   7.985   6.981   7.675  0.1968  0.5692  0.4952
  473MOL0     C63749   7.937   6.781   7.808  0.8594  0.4815  0.3572
  473MOL0     C63750   7.785   6.810   7.814  0.4638 -0.2194 -0.1459
  473MOL0     O63751   7.703   6.718   7.884  0.3195  0.4490  0.0045
  473MOL0     C63752   7.568   6.738   7.891 -0.6326  0.0086  0.8411
  473MOL0     C63753   7.478   6.735   7.782 -0.5691 -0.0765 -0.8130
  473MOL0     C63754   7.339   6.743   7.809 -0.4646 -0.4250 -0.2132
  473MOL0     C63755   7.294   6.754   7.946  0.6702 -0.4778  1.6013
  473MOL0     O63756   7.156   6.760   7.964 -0.2224 -0.2011  0.4957
  473MOL0     C63757   7.104   6.762   8.097  0.8925 -0.1557 -0.3626
  473MOL0     C63758   6.959   6.782   8.085 -0.6647  0.2020  0.4247
  473MOL0     C63759   6.897   6.839   8.214  0.6520 -0.5240  0.4411
  473MOL0     C63760   6.772   6.921   8.202 -0.2261 -0.0134  0.3410
  473MOL0     C63761   6.649   6.840   8.226  0.0902  0.6120 -0.0716
  473MOL0     C63762   6.535   6.907   8.166 -0.1604 -0.0137 -0.4887
  473MOL0     C63763   6.427   6.808   8.140 -0.6614 -0.7652  0.1234
  473MOL0     C63764   6.354   6.741   8.260 -1.1761 -0.3291  0.1787
  473MOL0    Cl63765   6.304   6.869   8.366  0.2387 -0.5193  0.1567
  473MOL0     C63766   7.385   6.747   8.050  0.2101 -0.3118 -0.2683
  473MOL0     C63767   7.528   6.743   8.022  0.4811 -1.0302  0.9742
  473MOL0     O63768   7.736   6.902   7.741 -0.1001  0.2053 -0.1207
  473MOL0     C63769   7.982   6.663   7.876  0.2142  0.0063 -0.6843
  473MOL0     C63770   8.111   6.639   7.895  0.2968  0.5843  0.5760
  473MOL0     N63771   8.831   6.730   8.117 -0.5514 -0.3014 -0.0223
  473MOL0     N63772   8.949   6.740   8.172  0.0571 -0.1460  0.0883
  473MOL0     C63773   8.880   5.811   8.217 -0.0718 -0.6144  1.1085
  473MOL0     C63774   8.772   5.730   8.186  0.1334  0.5607 -0.4523
  473MOL0     C63775   8.422   5.516   7.923 -0.6569  0.1364  0.6532
  473MOL0     C63776   8.364   5.481   7.801 -0.4583  0.3957  0.4065
  473MOL0     C63777   8.259   5.390   7.797 -0.0414  1.0081 -0.3973
  473MOL0     C63778   8.210   5.335   7.913 -0.6744  0.6037 -0.2716
  473MOL0     O63779   8.107   5.245   7.910  0.3454 -0.0765 -0.0986
  473MOL0     C63780   8.026   5.220   8.024  0.4328  0.4765  0.1094
  473MOL0     C63781   7.878   5.177   7.995  0.9392  0.2797  0.3130
  473MOL0     C63782   7.792   5.191   8.124  0.2410  0.1548 -0.1488
  473MOL0     C63783   7.658   5.098   8.112  0.0429 -0.4265 -1.0524
  473MOL0     C63784   7.558   5.162   8.019  0.0583  0.7727  0.1267
  473MOL0     C63785   7.480   5.191   7.939  0.2454  0.0622  0.2162
  473MOL0     C63786   8.279   5.366   8.037  0.2790  0.5296  0.2773
  473MOL0     C63787   8.379   5.461   8.037 -1.0298 -0.4751 -0.1935
  473MOL0     H63788   8.767   5.767   7.842 -0.0819 -2.5075  0.2483
  473MOL0     H63789   8.945   5.927   7.904  1.2816  0.5578  1.2408
  473MOL0     H63790   9.137   5.938   7.974  2.9780 -0.5024  0.4166
  473MOL0     H63791   9.085   6.100   7.995  0.7653  0.6239  2.3345
  473MOL0     H63792   9.320   5.954   8.111  0.2890  0.1075 -1.8944
  473MOL0     H63793   9.326   6.086   7.996 -1.3790  2.3295  0.2264
  473MOL0     H63794   9.242   6.102   8.280  0.8544 -2.9977 -2.2352
  473MOL0     H63795   9.395   6.171   8.216  1.4933  0.6556 -1.7324
  473MOL0     H63796   9.255   6.303   8.055 -0.3465 -2.9877 -0.3591
  473MOL0     H63797   9.125   6.292   8.181 -0.6553  0.0325 -4.2421
  473MOL0     H63798   9.290   6.355   8.355 -0.4553  0.2599  0.6028
  473MOL0     H63799   9.414   6.395   8.248  0.4333  0.8382  0.8379
  473MOL0     H63800   9.133   6.528   8.275 -0.6083  4.5248  0.0727
  473MOL0     H63801   9.290   6.583   8.333 -3.2243 -3.1644  3.9080
  473MOL0     H63802   9.365   6.620   8.121  0.2414  0.8209  1.1634
  473MOL0     H63803   9.244   6.531   8.032  2.0725 -1.4855  0.5569
  473MOL0     H63804   9.231   6.785   8.022 -1.1076  3.2179  1.2109
  473MOL0     H63805   9.197   6.784   8.203 -1.9403 -4.4343  2.9393
  473MOL0     H63806   9.019   6.693   7.862  0.4875  1.4935  1.5176
  473MOL0     H63807   8.710   6.770   7.838  0.7146 -0.9928 -1.4904
  473MOL0     H63808   8.778   6.613   7.813  0.9823  1.9581 -1.0668
  473MOL0     H63809   8.625   6.548   8.036  0.9723  0.2845 -0.1612
  473MOL0     H63810   8.568   6.564   7.863  0.3158  2.4104 -2.5130
  473MOL0     H63811   8.581   6.813   8.041 -1.6831 -0.4205  3.1911
  473MOL0     H63812   8.475   6.687   8.098  1.1540  2.5229  2.4419
  473MOL0     H63813   8.476   6.836   7.830 -2.0278  1.4140  0.8497
  473MOL0     H63814   8.356   6.857   7.964 -2.9111 -1.9892  1.1729
  473MOL0     H63815   8.240   6.895   7.719  1.0895  2.4522  2.9689
  473MOL0     H63816   7.963   7.056   7.751  0.9410  1.2440  0.0573
  473MOL0     H63817   8.068   7.015   7.613 -2.4817  1.4772 -2.9717
  473MOL0     H63818   7.901   6.972   7.605 -1.4870  3.3393  1.9621
  473MOL0     H63819   7.514   6.743   7.680 -0.1723 -1.0570 -0.7590
  473MOL0     H63820   7.269   6.752   7.726  3.6142  2.1730 -3.8596
  473MOL0     H63821   7.137   6.669   8.145  0.8642 -0.2695 -0.5605
  473MOL0     H63822   7.137   6.852   8.149 -1.9957  0.5826  0.3395
  473MOL0     H63823   6.942   6.848   8.000  0.2221 -0.9508 -0.6924
  473MOL0     H63824   6.904   6.687   8.071  0.3273 -0.5791  1.6522
  473MOL0     H63825   6.971   6.904   8.262  0.1106  1.0559 -0.7925
  473MOL0     H63826   6.868   6.762   8.286  0.3870 -2.0773 -1.2475
  473MOL0     H63827   6.766   7.006   8.271 -0.9616  1.1740 -1.1213
  473MOL0     H63828   6.782   6.955   8.099  2.0901 -1.6054 -0.0135
  473MOL0     H63829   6.616   6.836   8.330 -2.7931 -0.1322 -0.9019
  473MOL0     H63830   6.677   6.741   8.190  1.3845  2.1647 -3.9122
  473MOL0     H63831   6.511   6.995   8.228  2.3481 -0.1175  0.7517
  473MOL0     H63832   6.563   6.938   8.065 -3.6409  1.7799 -1.0799
  473MOL0     H63833   6.473   6.733   8.074  0.7337 -0.7712  1.0612
  473MOL0     H63834   6.346   6.862   8.091  1.2199  2.7462  0.5828
  473MOL0     H63835   6.426   6.672   8.305 -2.3352 -0.6821  1.5697
  473MOL0     H63836   6.264   6.683   8.239 -3.4865  2.9569  0.2488
  473MOL0     H63837   7.352   6.761   8.153  0.1041  0.4313 -0.4046
  473MOL0     H63838   7.602   6.756   8.100 -0.0607  1.2924  1.1483
  473MOL0     H63839   7.905   6.595   7.912  2.4927 -2.0838  0.5417
  473MOL0     H63840   8.133   6.562   7.967 -1.3283  1.0914  1.6706
  473MOL0     H63841   8.904   5.821   8.322 -2.6976  0.7658  1.6682
  473MOL0     H63842   8.737   5.668   8.268 -2.0381 -0.8858 -2.3363
  473MOL0     H63843   8.424   5.517   7.718  3.4361  1.4782  3.3948
  473MOL0     H63844   8.216   5.354   7.704  0.6649  1.8405 -1.0593
  473MOL0     H63845   8.077   5.140   8.079 -0.5786  0.0904  0.4995
  473MOL0     H63846   8.025   5.305   8.093 -1.6596 -0.0249  0.7394
  473MOL0     H63847   7.868   5.078   7.950 -2.7989  1.9893 -3.1575
  473MOL0     H63848   7.852   5.241   7.911  2.6719  1.6804  0.7888
  473MOL0     H63849   7.761   5.296   8.131  1.5652  0.5304  0.6142
  473MOL0     H63850   7.850   5.156   8.210 -2.6370  1.4275  2.5319
  473MOL0     H63851   7.623   5.096   8.215  1.8540  0.9744 -0.3660
  473MOL0     H63852   7.670   4.994   8.079 -3.6996 -1.7040  0.9812
  473MOL0     H63853   7.412   5.220   7.861  2.1916 -2.1429 -2.5141
  473MOL0     H63854   8.238   5.328   8.130 -4.4537 -0.5388 -1.9655
  473MOL0     H63855   8.426   5.486   8.131  0.1045 -3.0900  0.0217
  474MOL0     O63856   6.153   0.214   9.685  0.6688  1.0706  0.0318
  474MOL0     C63857   6.137   0.161   9.792 -1.2023 -0.8752  0.7294
  474MOL0     O63858   6.098   0.031   9.821 -1.0645 -0.8889  0.7621
  474MOL0     C63859   6.071  -0.068   9.725 -0.2188  0.3564 -0.8501
  474MOL0     C63860   6.020  -0.186   9.780  0.2102 -0.5950 -0.3210
  474MOL0     C63861   5.977  -0.288   9.695  0.2251 -0.7487 -0.0135
  474MOL0     C63862   5.996  -0.277   9.556 -0.1850 -0.0311  0.0431
  474MOL0     O63863   5.971  -0.378   9.468 -0.1244  0.4471  0.0592
  474MOL0     C63864   6.047  -0.501   9.495 -0.4992  0.3475 -0.4502
  474MOL0     C63865   6.020  -0.591   9.372 -0.0564 -0.7056 -0.0595
  474MOL0     C63866   6.102  -0.564   9.241 -0.3936 -0.0250  0.9893
  474MOL0     C63867   6.005  -0.536   9.127  0.0520  0.3207  0.6403
  474MOL0     C63868   6.044  -0.606   8.990  0.0947 -0.7985  0.2118
  474MOL0     C63869   6.168  -0.537   8.925 -0.2790  0.4239  0.1313
  474MOL0     C63870   6.203  -0.593   8.787 -0.4391 -0.0882 -0.8215
  474MOL0     C63871   6.327  -0.509   8.734  0.3950 -0.0281 -0.3088
  474MOL0     N63872   6.377  -0.561   8.606  0.8200  0.1630  0.6761
  474MOL0     C63873   6.308  -0.589   8.490 -0.0966 -0.2834  0.6207
  474MOL0     C63874   6.394  -0.601   8.390  0.8737  0.6311 -0.5938
  474MOL0     C63875   6.351  -0.645   8.247  0.1251 -0.1236  0.5657
  474MOL0     C63876   6.368  -0.797   8.243  0.1565  0.0201 -0.9427
  474MOL0     C63877   6.247  -0.884   8.282  0.1498  0.5992  0.8586
  474MOL0     C63878   6.123  -0.843   8.202  0.4389 -0.0121 -0.4291
  474MOL0     O63879   6.052  -0.738   8.277  0.2349  0.3244  0.4792
  474MOL0     C63880   5.913  -0.731   8.270 -0.8661 -0.4061  0.3849
  474MOL0     C63881   5.851  -0.739   8.151 -0.4920 -0.0162 -0.6264
  474MOL0     C63882   5.707  -0.729   8.135  0.5299 -0.9703 -0.5810
  474MOL0     C63883   5.652  -0.728   7.992 -1.0261 -0.4820 -0.8691
  474MOL0     C63884   5.629  -0.713   8.254  0.2297  0.2504  0.0288
  474MOL0     C63885   5.477  -0.694   8.250 -0.6184 -0.1211 -0.8249
  474MOL0     O63886   5.435  -0.662   8.371  0.5068  0.7461 -0.2471
  474MOL0     C63887   5.297  -0.640   8.381 -0.6713  0.3211 -0.8066
  474MOL0     C63888   5.264  -0.543   8.474 -0.4492 -0.1109 -0.4344
  474MOL0     C63889   5.133  -0.513   8.515  0.0900  0.1839 -0.2579
  474MOL0     C63890   5.026  -0.580   8.459  0.5572  0.6225  0.2326
  474MOL0     O63891   4.896  -0.548   8.498  0.0612  0.0914  0.2092
  474MOL0     C63892   4.799  -0.649   8.492  0.7308  0.6581 -0.7368
  474MOL0     C63893   4.685  -0.611   8.577  0.2651  0.1655 -0.4656
  474MOL0     C63894   4.733  -0.579   8.715  0.0730 -0.2162 -0.8875
  474MOL0     C63895   4.823  -0.688   8.798 -0.2305 -1.4192  0.4352
  474MOL0     C63896   4.801  -0.671   8.952 -1.2556 -0.5702  0.0696
  474MOL0     C63897   4.911  -0.741   9.032  0.5684  0.3346  0.0802
  474MOL0     C63898   4.859  -0.774   9.167  0.1175  0.2822 -0.0820
  474MOL0     C63899   4.877  -0.662   9.264  0.1390 -0.1686 -0.6468
  474MOL0    Cl63900   4.814  -0.720   9.422 -0.3863 -0.3193 -0.0184
  474MOL0     C63901   5.053  -0.681   8.362 -0.0415 -0.2445  0.2185
  474MOL0     C63902   5.181  -0.714   8.322  0.4118 -0.1794  0.3044
  474MOL0     O63903   5.421  -0.688   8.146  0.7660  0.0293  0.4004
  474MOL0     C63904   5.702  -0.719   8.380 -0.2588 -0.3938  0.8277
  474MOL0     C63905   5.840  -0.716   8.389 -0.0038  1.3003  0.7879
  474MOL0     N63906   6.517  -0.580   8.440  0.0992  0.5943  0.4330
  474MOL0     N63907   6.506  -0.557   8.565 -0.0575  0.0565  0.0908
  474MOL0     C63908   6.063  -0.159   9.504  0.0936 -0.3803 -0.1550
  474MOL0     C63909   6.082  -0.060   9.587 -0.6043 -0.2839 -0.7675
  474MOL0     C63910   6.181   0.256   9.890  0.2244  0.7122 -0.4393
  474MOL0     C63911   6.122   0.238  10.019 -0.4202 -0.0260 -0.1744
  474MOL0     C63912   6.162   0.325  10.126  0.0079  0.0578 -0.9359
  474MOL0     C63913   6.251   0.428  10.123  0.5623 -0.0387 -0.6368
  474MOL0     O63914   6.278   0.501  10.237  0.2472  0.4375  0.0653
  474MOL0     C63915   6.316   0.646  10.218  0.4927  0.2365 -0.0550
  474MOL0     C63916   6.394   0.690  10.339  0.2837 -0.0626 -0.3974
  474MOL0     C63917   6.517   0.605  10.359 -1.5167 -0.0167 -0.5282
  474MOL0     C63918   6.573   0.604  10.510 -0.9776 -0.2777  0.0313
  474MOL0     C63919   6.579   0.735  10.564 -0.4388  0.5411 -0.3804
  474MOL0     C63920   6.587   0.834  10.629  0.2863  0.0769  0.8042
  474MOL0     C63921   6.309   0.438   9.992  0.5651 -0.0083 -0.2952
  474MOL0     C63922   6.273   0.357   9.884  0.3759  0.5058 -0.0139
  474MOL0     H63923   6.008  -0.215   9.884 -0.0322 -1.5187 -0.5996
  474MOL0     H63924   5.937  -0.377   9.743 -0.1476 -0.6565 -0.1472
  474MOL0     H63925   6.155  -0.485   9.496 -0.3956 -0.0564 -2.0540
  474MOL0     H63926   6.026  -0.562   9.582  1.0045  0.8302  0.2886
  474MOL0     H63927   6.049  -0.690   9.407  2.0370 -0.3372 -0.5669
  474MOL0     H63928   5.912  -0.589   9.356  0.0057 -0.5437 -0.4817
  474MOL0     H63929   6.171  -0.482   9.265 -0.0604  0.3507 -1.1097
  474MOL0     H63930   6.160  -0.653   9.214 -1.8730 -0.2468 -1.8239
  474MOL0     H63931   5.903  -0.570   9.145  0.2728  0.3825  2.1899
  474MOL0     H63932   5.996  -0.429   9.107 -2.2657  0.1487  0.5144
  474MOL0     H63933   6.060  -0.713   9.000 -0.8746 -0.7531  2.9065
  474MOL0     H63934   5.951  -0.586   8.936  0.4511  0.2628 -0.0539
  474MOL0     H63935   6.143  -0.431   8.910 -1.4287 -0.0134 -1.2901
  474MOL0     H63936   6.255  -0.550   8.990  1.2575 -0.2059 -1.9500
  474MOL0     H63937   6.250  -0.690   8.803  2.5477  1.2678 -0.6009
  474MOL0     H63938   6.123  -0.608   8.713  1.0760 -1.8737 -2.2117
  474MOL0     H63939   6.404  -0.506   8.811 -0.7530 -3.1224  1.1294
  474MOL0     H63940   6.306  -0.402   8.726  0.9073  0.2873  1.8459
  474MOL0     H63941   6.200  -0.605   8.487  0.2766 -3.3098 -1.6466
  474MOL0     H63942   6.247  -0.617   8.226  0.0871 -1.9677 -2.2986
  474MOL0     H63943   6.420  -0.587   8.184 -1.1728  1.5163  0.5656
  474MOL0     H63944   6.458  -0.828   8.298 -0.9494 -0.8125  0.4685
  474MOL0     H63945   6.397  -0.810   8.138 -2.4957  1.9925 -2.0327
  474MOL0     H63946   6.229  -0.863   8.388 -0.7496  1.3638  0.5743
  474MOL0     H63947   6.270  -0.987   8.255  2.1035  0.7606  1.7975
  474MOL0     H63948   6.058  -0.931   8.196  1.2277 -0.5338 -1.7814
  474MOL0     H63949   6.138  -0.808   8.099  3.4414 -0.1011 -0.1190
  474MOL0     H63950   5.911  -0.751   8.061  0.0694  1.7708 -0.5238
  474MOL0     H63951   5.728  -0.725   7.912  0.8977  4.6543  0.7416
  474MOL0     H63952   5.597  -0.821   7.974 -1.1559 -1.0324  1.9922
  474MOL0     H63953   5.597  -0.634   7.991  1.4621  1.0634 -0.0607
  474MOL0     H63954   5.343  -0.473   8.499  0.9281 -0.8905 -2.3756
  474MOL0     H63955   5.109  -0.435   8.587  1.2081  2.9488 -2.6539
  474MOL0     H63956   4.755  -0.675   8.396  3.3269 -1.7543 -1.4190
  474MOL0     H63957   4.842  -0.741   8.532  0.1694  1.8814  3.1825
  474MOL0     H63958   4.643  -0.521   8.531 -1.0299 -0.3383 -0.3222
  474MOL0     H63959   4.609  -0.690   8.576  0.1442  0.2862 -0.8507
  474MOL0     H63960   4.646  -0.546   8.774  0.7988  2.6032 -1.2579
  474MOL0     H63961   4.792  -0.487   8.710  2.1988 -1.3669  1.0200
  474MOL0     H63962   4.791  -0.788   8.767 -0.5895 -1.0809 -0.3151
  474MOL0     H63963   4.928  -0.681   8.770 -1.0325  1.7958 -2.4920
  474MOL0     H63964   4.698  -0.697   8.976 -1.1608 -0.8153  0.2141
  474MOL0     H63965   4.827  -0.566   8.965  3.7157 -1.4444 -0.7519
  474MOL0     H63966   4.941  -0.830   8.976  0.2511  1.5343 -2.0905
  474MOL0     H63967   4.998  -0.675   9.036  1.9654 -1.4111 -0.1663
  474MOL0     H63968   4.912  -0.862   9.205 -2.8393 -0.4803  2.7721
  474MOL0     H63969   4.752  -0.797   9.160  0.2431 -2.3228  3.7833
  474MOL0     H63970   4.812  -0.577   9.244 -2.3603 -1.5718  0.9924
  474MOL0     H63971   4.981  -0.633   9.283  0.2754 -2.3107  2.8602
  474MOL0     H63972   4.975  -0.724   8.301  0.4374  3.3556 -3.3404
  474MOL0     H63973   5.198  -0.783   8.239 -0.8793  2.1361 -2.0038
  474MOL0     H63974   5.634  -0.701   8.463  0.8822  0.7246  1.5404
  474MOL0     H63975   5.887  -0.737   8.484  1.1323  3.1784  0.6886
  474MOL0     H63976   6.085  -0.151   9.397 -0.8398 -0.7075 -0.3779
  474MOL0     H63977   6.137   0.024   9.548 -0.3813  0.8085  1.6945
  474MOL0     H63978   6.038   0.170  10.027 -0.6278  0.4242  1.9084
  474MOL0     H63979   6.114   0.309  10.223 -0.3287 -0.7082 -1.2224
  474MOL0     H63980   6.376   0.655  10.127  1.4340 -1.9253  0.2870
  474MOL0     H63981   6.225   0.706  10.211  1.3856  1.4618 -1.9262
  474MOL0     H63982   6.328   0.682  10.427  0.3382  2.7694 -0.0028
  474MOL0     H63983   6.422   0.795  10.329  0.0035  0.1601  0.9289
  474MOL0     H63984   6.592   0.645  10.290  1.9811 -1.8198  1.9069
  474MOL0     H63985   6.507   0.501  10.328  0.2893 -0.1466 -0.7363
  474MOL0     H63986   6.677   0.571  10.504 -0.0979  0.6356  5.4400
  474MOL0     H63987   6.518   0.536  10.576  0.2058 -0.0457  1.2827
  474MOL0     H63988   6.593   0.907  10.707 -4.5866  1.1477  0.5358
  474MOL0     H63989   6.375   0.517   9.958  0.5666 -0.7882 -2.2661
  474MOL0     H63990   6.329   0.377   9.793  0.6483 -1.0151 -0.2196
  475MOL0     O63991   1.577   5.120   3.255 -0.0939  0.3510  0.0188
  475MOL0     C63992   1.552   5.176   3.360  0.7641 -0.5360 -0.2318
  475MOL0     O63993   1.437   5.150   3.429 -0.5803  0.0096 -0.3185
  475MOL0     C63994   1.341   5.078   3.370 -0.1638  0.3336  1.0189
  475MOL0     C63995   1.270   4.970   3.432 -0.1399  0.3223 -0.7887
  475MOL0     C63996   1.178   4.895   3.352 -0.2521 -0.4067  0.3919
  475MOL0     C63997   1.131   4.936   3.224  0.4022  0.5001  0.1777
  475MOL0     O63998   1.040   4.858   3.164  0.0921 -0.6686  0.4413
  475MOL0     C63999   1.007   4.890   3.024 -0.4819  0.8473  1.2754
  475MOL0     C64000   0.928   4.771   2.979 -0.0757  0.3389  0.3052
  475MOL0     C64001   0.779   4.771   3.015 -1.0694  0.4204  1.3015
  475MOL0     C64002   0.701   4.650   2.950  0.6828  0.4756 -1.1831
  475MOL0     C64003   0.546   4.671   2.974 -0.0142 -0.4039 -0.8940
  475MOL0     C64004   0.470   4.564   2.906 -0.3105 -0.3935  0.0026
  475MOL0     C64005   0.316   4.546   2.935 -0.5789  1.0720  0.2440
  475MOL0     C64006   0.235   4.667   2.883 -0.1712 -0.0901 -0.4996
  475MOL0     N64007   0.107   4.684   2.963  0.6970 -0.2066 -0.0085
  475MOL0     C64008   0.065   4.790   3.027  0.2102 -0.3866  0.3973
  475MOL0     C64009  -0.060   4.765   3.074 -0.9508 -0.0011  0.3048
  475MOL0     C64010  -0.173   4.852   3.127  0.2126 -0.3397 -0.2299
  475MOL0     C64011  -0.285   4.856   3.023 -1.4927 -0.0303  0.6180
  475MOL0     C64012  -0.358   4.728   3.003  0.1478 -0.1177 -0.0458
  475MOL0     C64013  -0.505   4.743   2.964  0.1980  0.2696  1.2349
  475MOL0     O64014  -0.533   4.774   2.821 -1.0570 -0.2621  0.2690
  475MOL0     C64015  -0.661   4.781   2.781  0.9958 -0.1324 -0.1569
  475MOL0     C64016  -0.680   4.830   2.663  1.3699 -0.5553  0.7160
  475MOL0     C64017  -0.814   4.860   2.619 -0.0437 -0.0485  0.4619
  475MOL0     C64018  -0.806   4.926   2.483  0.3793  1.0179 -0.8302
  475MOL0     C64019  -0.923   4.837   2.708 -0.1833  0.6033  0.2607
  475MOL0     C64020  -1.061   4.884   2.666 -0.2797  0.5926  0.9896
  475MOL0     O64021  -1.149   4.898   2.774  0.4054  0.0340  0.4200
  475MOL0     C64022  -1.264   4.966   2.763 -0.3222 -0.6233  0.6633
  475MOL0     C64023  -1.376   4.902   2.820  1.1569 -0.2235  0.0914
  475MOL0     C64024  -1.504   4.972   2.809 -0.1031  0.1044 -0.4910
  475MOL0     C64025  -1.513   5.094   2.747  0.2477  0.5165 -0.6664
  475MOL0     O64026  -1.629   5.158   2.757 -0.2284 -0.1026 -0.5510
  475MOL0     C64027  -1.653   5.258   2.656 -0.2396 -0.1290  0.4394
  475MOL0     C64028  -1.797   5.303   2.659  0.8192 -0.4185  0.1623
  475MOL0     C64029  -1.846   5.359   2.792  0.3785  0.5325  0.6711
  475MOL0     C64030  -1.996   5.391   2.792  0.2066  0.0616 -0.3322
  475MOL0     C64031  -2.039   5.412   2.937 -0.2491  0.3937  0.2686
  475MOL0     C64032  -2.173   5.474   2.946  0.6238 -0.6255 -0.2275
  475MOL0     C64033  -2.228   5.483   3.087 -0.7742 -0.0162 -0.8970
  475MOL0     C64034  -2.170   5.591   3.172  0.6687 -0.9968  0.6311
  475MOL0    Cl64035  -2.242   5.568   3.341 -0.2607  0.1738  0.4992
  475MOL0     C64036  -1.393   5.146   2.688 -0.0321  0.6478  0.0361
  475MOL0     C64037  -1.273   5.083   2.695 -0.3717 -0.1459  0.9513
  475MOL0     O64038  -1.088   4.909   2.547  0.0375 -0.8572 -0.0586
  475MOL0     C64039  -0.898   4.769   2.828  0.2427 -0.0813  0.5505
  475MOL0     C64040  -0.767   4.734   2.869 -0.5442  0.3333  0.4711
  475MOL0     N64041  -0.086   4.628   3.034  0.6760 -0.0676  0.2785
  475MOL0     N64042   0.014   4.589   2.954  1.5890 -0.0237  0.4587
  475MOL0     C64043   1.184   5.059   3.178 -0.2037  0.5644 -0.1464
  475MOL0     C64044   1.286   5.120   3.246 -0.2255  0.6331  0.2787
  475MOL0     C64045   1.656   5.274   3.421  0.5121  0.2448 -0.1862
  475MOL0     C64046   1.608   5.376   3.508  0.5698  0.9023 -0.1765
  475MOL0     C64047   1.700   5.447   3.576  0.6267 -0.4944 -1.0082
  475MOL0     C64048   1.837   5.417   3.565 -0.1574 -0.0292  0.3043
  475MOL0     O64049   1.933   5.492   3.628  0.1439  0.1948 -0.4155
  475MOL0     C64050   1.884   5.606   3.707 -0.0746 -1.2310  0.0526
  475MOL0     C64051   2.007   5.676   3.759 -0.7181  1.4651  0.4727
  475MOL0     C64052   1.978   5.801   3.839 -0.5241 -0.4694  1.0113
  475MOL0     C64053   2.100   5.890   3.867 -0.6831  0.8628 -0.2811
  475MOL0     C64054   2.205   5.808   3.933 -0.0027  1.4264  0.1697
  475MOL0     C64055   2.289   5.758   4.002  0.3959  0.3482  0.8688
  475MOL0     C64056   1.890   5.329   3.474  0.4628  0.0478 -0.5489
  475MOL0     C64057   1.795   5.251   3.407  0.9715 -0.1379 -0.9397
  475MOL0     H64058   1.297   4.932   3.529 -0.3865 -2.2719 -1.6738
  475MOL0     H64059   1.146   4.794   3.376 -0.1518 -0.5925 -0.2350
  475MOL0     H64060   0.944   4.978   3.009 -2.7335 -1.0571 -1.9475
  475MOL0     H64061   1.094   4.887   2.958 -2.4809 -3.1186 -1.6532
  475MOL0     H64062   0.946   4.776   2.871 -1.6188 -0.7266 -0.0321
  475MOL0     H64063   0.966   4.673   3.009 -1.3576 -1.1809 -2.6391
  475MOL0     H64064   0.783   4.773   3.124 -0.3981 -1.3603  1.3381
  475MOL0     H64065   0.733   4.859   2.970  0.3831  1.3908  1.6475
  475MOL0     H64066   0.731   4.647   2.845 -0.2226 -1.9635 -1.4424
  475MOL0     H64067   0.735   4.553   2.987 -1.8732 -0.3868 -0.8825
  475MOL0     H64068   0.526   4.681   3.081  3.1778 -0.0136 -0.2449
  475MOL0     H64069   0.527   4.771   2.936 -2.4964  0.0033  1.1780
  475MOL0     H64070   0.480   4.571   2.798  1.7012 -2.1929  0.0115
  475MOL0     H64071   0.514   4.465   2.923  2.9994  0.3378 -3.1720
  475MOL0     H64072   0.284   4.459   2.878 -2.4741  2.1101 -0.3799
  475MOL0     H64073   0.310   4.528   3.043 -0.3945 -3.0299 -0.2903
  475MOL0     H64074   0.215   4.653   2.776  1.4231 -1.5839 -0.6485
  475MOL0     H64075   0.291   4.761   2.885 -1.0359  0.4296  0.9710
  475MOL0     H64076   0.120   4.883   3.030 -1.5579  0.7216  0.2696
  475MOL0     H64077  -0.204   4.813   3.224 -1.4809 -1.1998 -1.0710
  475MOL0     H64078  -0.142   4.955   3.147  1.2539 -0.6797 -0.0365
  475MOL0     H64079  -0.232   4.886   2.932 -0.7236  0.8868  1.3358
  475MOL0     H64080  -0.358   4.932   3.051 -1.5775  0.2278 -0.2528
  475MOL0     H64081  -0.353   4.656   3.084 -0.6591  2.4588  2.4669
  475MOL0     H64082  -0.319   4.676   2.915  1.3220 -1.2560  1.1096
  475MOL0     H64083  -0.561   4.817   3.023 -2.5040  1.6741 -2.6700
  475MOL0     H64084  -0.552   4.646   2.979 -0.0012  0.3561  1.1652
  475MOL0     H64085  -0.598   4.850   2.595  1.1341 -2.5424 -0.2079
  475MOL0     H64086  -0.818   5.034   2.489  2.2888  1.1928  2.7078
  475MOL0     H64087  -0.708   4.906   2.439  1.2376  3.5942 -0.2314
  475MOL0     H64088  -0.889   4.886   2.425 -1.8343  0.4933  2.4269
  475MOL0     H64089  -1.358   4.820   2.889 -2.2766 -1.4498 -0.2364
  475MOL0     H64090  -1.591   4.944   2.867  1.2341  0.8652  2.0283
  475MOL0     H64091  -1.580   5.337   2.677  1.1122 -1.4477  0.8956
  475MOL0     H64092  -1.635   5.220   2.555 -0.2548  3.3709 -1.0021
  475MOL0     H64093  -1.821   5.375   2.580  3.3586 -0.7863 -1.0462
  475MOL0     H64094  -1.868   5.222   2.638 -1.8702  1.1927  2.2938
  475MOL0     H64095  -1.802   5.459   2.796  2.6606 -0.3854 -0.0620
  475MOL0     H64096  -1.821   5.298   2.878 -1.7514 -0.4322  0.6809
  475MOL0     H64097  -2.020   5.473   2.723  1.3492 -1.3760 -2.5883
  475MOL0     H64098  -2.048   5.305   2.748  1.8170 -1.4073  0.5111
  475MOL0     H64099  -1.969   5.476   2.990 -1.8315  3.2110 -0.8405
  475MOL0     H64100  -2.054   5.316   2.988 -2.1687  1.6334  2.2090
  475MOL0     H64101  -2.173   5.573   2.901  1.4894 -0.0708  0.9381
  475MOL0     H64102  -2.244   5.403   2.904  0.6252 -1.9650  1.8385
  475MOL0     H64103  -2.201   5.392   3.142 -0.2054  1.4279  1.3727
  475MOL0     H64104  -2.337   5.499   3.088 -0.6582  1.0577  1.0662
  475MOL0     H64105  -2.188   5.690   3.129  2.2023 -0.8574  0.2395
  475MOL0     H64106  -2.060   5.589   3.170  0.7854  1.7997 -0.9649
  475MOL0     H64107  -1.393   5.232   2.621  2.6213 -0.9999 -2.2802
  475MOL0     H64108  -1.193   5.129   2.637 -1.8611  1.7908  0.3141
  475MOL0     H64109  -0.989   4.746   2.882 -2.2340  0.2362 -3.1916
  475MOL0     H64110  -0.768   4.663   2.951 -2.1716 -3.1027 -2.2607
  475MOL0     H64111   1.155   5.094   3.080 -1.3695  0.1332  0.0308
  475MOL0     H64112   1.322   5.212   3.200  0.0386  0.3056 -0.1825
  475MOL0     H64113   1.503   5.399   3.521 -0.0367 -1.5520 -0.2661
  475MOL0     H64114   1.671   5.529   3.640 -1.1193  0.7125 -3.1636
  475MOL0     H64115   1.826   5.675   3.646  2.6458  2.1651  0.9730
  475MOL0     H64116   1.823   5.569   3.790 -2.8949 -1.4465 -1.9846
  475MOL0     H64117   2.068   5.710   3.675 -0.3740  1.7345  0.8262
  475MOL0     H64118   2.079   5.604   3.801 -1.1021 -0.1961 -1.5548
  475MOL0     H64119   1.936   5.761   3.931 -1.5695  0.1537  0.8167
  475MOL0     H64120   1.896   5.853   3.790  0.4379 -0.5952 -0.8167
  475MOL0     H64121   2.073   5.971   3.936 -0.8886  0.1617  0.4868
  475MOL0     H64122   2.130   5.936   3.772 -0.7730 -0.9086 -1.2050
  475MOL0     H64123   2.372   5.723   4.060  1.3349  0.7269 -0.1915
  475MOL0     H64124   1.995   5.306   3.464  0.8149  2.0303 -1.9802
  475MOL0     H64125   1.832   5.176   3.338 -0.5292 -0.1639 -1.7451
  476MOL0     O64126   7.275   5.860   7.455 -0.4436 -0.1062 -0.1669
  476MOL0     C64127   7.324   5.751   7.472  0.0687  0.4950  0.3768
  476MOL0     O64128   7.274   5.634   7.433 -0.4212 -0.5786 -0.3793
  476MOL0     C64129   7.157   5.615   7.375 -0.4855  0.0795 -0.5977
  476MOL0     C64130   7.043   5.701   7.352 -0.6865 -0.5668  0.1095
  476MOL0     C64131   6.927   5.667   7.290 -0.6387  0.3579 -0.6332
  476MOL0     C64132   6.924   5.540   7.223 -0.1303 -1.0464  0.0824
  476MOL0     O64133   6.811   5.506   7.150 -0.2770 -0.2174 -0.2834
  476MOL0     C64134   6.724   5.439   7.244 -0.2790  0.0652  0.8851
  476MOL0     C64135   6.595   5.433   7.172  0.0721  0.4647  0.4098
  476MOL0     C64136   6.514   5.567   7.195 -0.3923 -1.0692  1.2800
  476MOL0     C64137   6.393   5.557   7.101  0.0604 -0.6825  0.4703
  476MOL0     C64138   6.289   5.665   7.130  0.7332 -0.1662 -0.4380
  476MOL0     C64139   6.146   5.617   7.104  0.8848  0.1839 -0.9501
  476MOL0     C64140   6.034   5.717   7.132  0.0651 -0.0953 -0.0303
  476MOL0     C64141   5.991   5.729   7.282  0.1154 -0.5136  0.7873
  476MOL0     N64142   5.850   5.769   7.286 -0.3311 -0.1499 -0.3740
  476MOL0     C64143   5.815   5.908   7.309 -1.3750  0.0085 -0.4044
  476MOL0     C64144   5.686   5.915   7.287 -0.2215 -0.1649 -0.7014
  476MOL0     C64145   5.606   6.043   7.299 -0.1308  0.6930  0.2891
  476MOL0     C64146   5.500   6.010   7.402  0.5885  0.1029 -0.6082
  476MOL0     C64147   5.540   6.066   7.539 -0.4911 -0.7586 -0.1871
  476MOL0     C64148   5.564   6.216   7.564 -0.0281 -0.4799  1.2132
  476MOL0     O64149   5.458   6.300   7.513 -0.3194 -0.7250  0.5713
  476MOL0     C64150   5.462   6.331   7.379 -1.1174  0.2877 -0.3309
  476MOL0     C64151   5.570   6.400   7.318 -0.9635 -1.0856 -0.5233
  476MOL0     C64152   5.573   6.422   7.180  0.4132  0.4376 -1.0783
  476MOL0     C64153   5.686   6.515   7.131 -0.5619  0.3958 -0.1651
  476MOL0     C64154   5.481   6.351   7.099  0.3084 -0.8221  0.4528
  476MOL0     C64155   5.498   6.338   6.953 -0.3266 -0.3830 -0.7196
  476MOL0     O64156   5.419   6.256   6.874  0.1033 -0.8478 -1.4358
  476MOL0     C64157   5.356   6.307   6.765 -0.8043 -0.1956  0.3195
  476MOL0     C64158   5.293   6.433   6.762  0.2860  0.0926  0.0081
  476MOL0     C64159   5.211   6.464   6.648 -0.5882  0.0093 -0.2800
  476MOL0     C64160   5.208   6.378   6.536 -0.1145  0.2982  0.0179
  476MOL0     O64161   5.132   6.436   6.427  0.2041  0.0210  0.1938
  476MOL0     C64162   5.085   6.343   6.325 -0.3697 -0.0466  0.0505
  476MOL0     C64163   5.189   6.353   6.215 -0.1946 -0.0343 -0.5295
  476MOL0     C64164   5.165   6.249   6.107  0.0140  0.3592 -0.4041
  476MOL0     C64165   5.153   6.100   6.156 -0.6512 -0.3960  0.3422
  476MOL0     C64166   5.198   5.989   6.064  0.3111  0.3202  0.1615
  476MOL0     C64167   5.174   5.845   6.122  0.6863 -0.3654  0.0170
  476MOL0     C64168   5.235   5.728   6.047 -1.3355 -0.1395 -0.3001
  476MOL0     C64169   5.222   5.596   6.117 -0.4625 -0.5023  0.0111
  476MOL0    Cl64170   5.232   5.459   5.998 -0.0075 -0.2118  0.2837
  476MOL0     C64171   5.259   6.250   6.542  0.5379  0.5382  0.3134
  476MOL0     C64172   5.331   6.215   6.658  0.3316 -0.2821 -0.6786
  476MOL0     O64173   5.580   6.411   6.906 -0.1247 -0.4156  0.8513
  476MOL0     C64174   5.371   6.289   7.166  0.3219  0.2277 -0.3710
  476MOL0     C64175   5.362   6.282   7.301  0.0825 -0.5242  0.9857
  476MOL0     N64176   5.648   5.800   7.224 -0.7505 -0.5138 -1.0131
  476MOL0     N64177   5.741   5.707   7.236 -0.9416 -0.3513  0.8365
  476MOL0     C64178   7.027   5.453   7.243  0.0485 -1.0745 -0.4873
  476MOL0     C64179   7.138   5.479   7.328  0.0740 -0.3576  0.2294
  476MOL0     C64180   7.445   5.728   7.545  0.0070 -0.6760 -0.7810
  476MOL0     C64181   7.488   5.831   7.630  0.1345 -0.5831  0.3908
  476MOL0     C64182   7.614   5.822   7.693 -0.1241  0.3637 -0.2319
  476MOL0     C64183   7.692   5.704   7.688 -0.0714  0.0814  0.0899
  476MOL0     O64184   7.811   5.674   7.754  0.4661  0.2884 -0.2618
  476MOL0     C64185   7.875   5.777   7.832 -0.5541  0.7819 -0.1238
  476MOL0     C64186   8.021   5.751   7.875 -0.0526 -0.2438  0.7921
  476MOL0     C64187   8.034   5.650   7.989  0.2909  0.7199  0.1250
  476MOL0     C64188   7.967   5.679   8.119  0.6950  0.5066  0.8160
  476MOL0     C64189   7.990   5.813   8.169 -0.5074 -0.1257  0.4612
  476MOL0     C64190   8.030   5.914   8.227  0.3769 -0.6929 -0.4518
  476MOL0     C64191   7.641   5.596   7.606 -0.1591 -0.0156 -0.8323
  476MOL0     C64192   7.517   5.607   7.535  0.7498  1.0294 -0.0130
  476MOL0     H64193   7.045   5.792   7.412 -2.2055  0.5135 -1.3593
  476MOL0     H64194   6.841   5.731   7.277 -2.0300 -1.3685 -0.3207
  476MOL0     H64195   6.766   5.341   7.266 -1.3444 -1.4740 -3.0724
  476MOL0     H64196   6.706   5.501   7.333 -3.6996  0.9921 -0.2990
  476MOL0     H64197   6.610   5.418   7.065  1.6054 -0.0735  0.6716
  476MOL0     H64198   6.541   5.346   7.212  0.2600 -1.1226 -2.5390
  476MOL0     H64199   6.480   5.571   7.299 -2.2258  0.9484  0.6783
  476MOL0     H64200   6.579   5.651   7.169  3.2272 -4.3859 -1.6705
  476MOL0     H64201   6.423   5.583   7.000 -0.7756  2.6704  0.9868
  476MOL0     H64202   6.359   5.453   7.109 -0.6842 -0.4456  0.3746
  476MOL0     H64203   6.297   5.702   7.233 -1.3794  1.9309 -0.9393
  476MOL0     H64204   6.301   5.754   7.067  1.6446  0.7904  1.0233
  476MOL0     H64205   6.147   5.593   6.998 -1.9202 -1.1715 -0.7633
  476MOL0     H64206   6.132   5.529   7.168  3.6234  0.2980 -0.0414
  476MOL0     H64207   6.050   5.820   7.098  1.1643 -0.2723 -0.1039
  476MOL0     H64208   5.949   5.677   7.075  0.7656 -3.8793  1.2553
  476MOL0     H64209   6.054   5.799   7.337 -1.3001  0.1564  1.6328
  476MOL0     H64210   5.997   5.637   7.340 -2.4883 -0.6760  0.9200
  476MOL0     H64211   5.884   5.990   7.329  0.5397 -1.8090  0.8859
  476MOL0     H64212   5.667   6.122   7.341  0.4376 -0.1065  0.9977
  476MOL0     H64213   5.566   6.062   7.199 -0.0506  4.4770  0.8332
  476MOL0     H64214   5.493   5.901   7.409 -0.3626  0.2082  0.3036
  476MOL0     H64215   5.403   6.047   7.365 -0.8117 -1.9505  0.7680
  476MOL0     H64216   5.629   6.012   7.573  1.7334  1.2429 -2.3926
  476MOL0     H64217   5.459   6.042   7.608 -0.7132  1.2972  0.3350
  476MOL0     H64218   5.657   6.255   7.523 -1.6974 -0.5468 -3.1322
  476MOL0     H64219   5.572   6.228   7.673 -1.6824 -1.0167  1.4284
  476MOL0     H64220   5.651   6.443   7.377 -0.4744 -1.7837 -0.6723
  476MOL0     H64221   5.643   6.602   7.081  1.3038  0.5399 -1.6190
  476MOL0     H64222   5.742   6.561   7.213  0.5484 -2.2045  0.6579
  476MOL0     H64223   5.747   6.457   7.061 -1.8274 -1.6976  0.3672
  476MOL0     H64224   5.312   6.509   6.838 -0.1461  0.0329  0.1781
  476MOL0     H64225   5.171   6.564   6.640  2.5881  1.5627  1.4496
  476MOL0     H64226   5.073   6.240   6.362 -0.1534  0.0636  0.4332
  476MOL0     H64227   4.989   6.371   6.281 -0.9091  1.9647  2.3334
  476MOL0     H64228   5.174   6.449   6.165 -2.5562 -0.3666 -0.5780
  476MOL0     H64229   5.290   6.341   6.256 -0.8960 -5.0434  0.4290
  476MOL0     H64230   5.248   6.247   6.036 -0.5781  0.0552 -1.0996
  476MOL0     H64231   5.070   6.258   6.053 -0.3784  0.4210  0.2865
  476MOL0     H64232   5.214   6.085   6.246  0.5275  0.5873 -0.2565
  476MOL0     H64233   5.048   6.075   6.173 -0.3125 -1.5794  0.7826
  476MOL0     H64234   5.306   6.003   6.054  0.1312  0.6463 -1.8086
  476MOL0     H64235   5.143   6.003   5.970 -1.0318  3.5280  1.2910
  476MOL0     H64236   5.218   5.839   6.221 -1.7926  1.1270  1.3031
  476MOL0     H64237   5.065   5.838   6.128  0.0698  3.5615 -2.7884
  476MOL0     H64238   5.343   5.741   6.029 -1.2325 -3.1537 -2.8973
  476MOL0     H64239   5.188   5.711   5.950  0.6902 -2.0857 -1.0428
  476MOL0     H64240   5.128   5.595   6.173 -0.8925 -3.2348 -0.6193
  476MOL0     H64241   5.304   5.585   6.188 -1.2859 -0.5067  0.9760
  476MOL0     H64242   5.264   6.183   6.457  1.5115  3.1166 -1.7925
  476MOL0     H64243   5.390   6.124   6.662 -0.2656 -0.7138 -1.4855
  476MOL0     H64244   5.290   6.245   7.107 -2.0910  0.9838  2.1553
  476MOL0     H64245   5.275   6.236   7.347 -0.0814 -1.3792 -0.1435
  476MOL0     H64246   7.024   5.354   7.199  0.5406 -0.3211 -2.2953
  476MOL0     H64247   7.226   5.420   7.349 -0.5757 -1.4192  0.0329
  476MOL0     H64248   7.424   5.917   7.650  3.2545  1.2269  3.7429
  476MOL0     H64249   7.661   5.898   7.754  0.6766  1.7600 -2.4786
  476MOL0     H64250   7.866   5.874   7.783 -1.1608  1.5006  1.3306
  476MOL0     H64251   7.817   5.785   7.925  0.5638  1.9701  0.5160
  476MOL0     H64252   8.055   5.847   7.915  1.8130 -0.4625 -0.1587
  476MOL0     H64253   8.074   5.732   7.781 -0.0009  1.5706  0.4075
  476MOL0     H64254   8.142   5.645   8.003  0.5121  1.4877 -1.1826
  476MOL0     H64255   7.994   5.552   7.961  1.0732  0.6794 -0.9103
  476MOL0     H64256   8.018   5.611   8.187 -0.7744 -1.5083 -0.0034
  476MOL0     H64257   7.863   5.648   8.104  1.0778  0.4809 -2.4495
  476MOL0     H64258   8.071   5.991   8.289 -0.0420 -0.1883 -0.7910
  476MOL0     H64259   7.697   5.504   7.603 -0.9051 -0.5015 -0.1395
  476MOL0     H64260   7.491   5.534   7.459 -0.0244  0.6509  0.6079
  477MOL0     O64261   9.563   6.755   2.331  0.5511 -0.0935 -0.6133
  477MOL0     C64262   9.502   6.658   2.287  0.0995  0.4700 -0.2622
  477MOL0     O64263   9.564   6.550   2.223 -0.2256 -0.2546  1.4021
  477MOL0     C64264   9.699   6.536   2.226 -0.5132 -0.1598 -0.4803
  477MOL0     C64265   9.769   6.480   2.122 -0.4757  0.5886  0.7375
  477MOL0     C64266   9.905   6.447   2.124  0.3705 -0.0130 -0.8392
  477MOL0     C64267   9.977   6.470   2.247  0.2962 -1.0378  0.2155
  477MOL0     O64268  10.107   6.447   2.265 -0.4411 -0.0593 -0.4989
  477MOL0     C64269  10.181   6.426   2.146  1.3310  0.5666 -0.0893
  477MOL0     C64270  10.328   6.416   2.177  0.2918 -0.3977 -0.3428
  477MOL0     C64271  10.364   6.352   2.309 -0.5238  0.0079  1.0535
  477MOL0     C64272  10.514   6.304   2.320  0.8178 -0.3463 -1.3230
  477MOL0     C64273  10.588   6.370   2.439 -0.0154 -0.2603 -0.1273
  477MOL0     C64274  10.595   6.306   2.585 -0.1508  0.2186  0.6372
  477MOL0     C64275  10.647   6.426   2.678 -0.0728  0.2100 -0.3542
  477MOL0     C64276  10.709   6.372   2.810  0.1867 -0.2475 -0.3507
  477MOL0     N64277  10.613   6.314   2.902  0.2793  0.2440 -0.2987
  477MOL0     C64278  10.482   6.366   2.907 -0.2413  0.4788  0.0827
  477MOL0     C64279  10.429   6.307   3.020  0.5657 -1.2988 -0.2553
  477MOL0     C64280  10.288   6.326   3.072  0.1600  0.6438 -0.8015
  477MOL0     C64281  10.303   6.333   3.230 -0.2213 -0.2851  0.4791
  477MOL0     C64282  10.170   6.323   3.300  0.0719  0.1406  0.5974
  477MOL0     C64283  10.193   6.335   3.446 -0.3281  0.5668 -0.7026
  477MOL0     O64284  10.282   6.235   3.499 -0.4120  0.4238 -0.6372
  477MOL0     C64285  10.228   6.129   3.559  0.4924 -0.0445 -0.3856
  477MOL0     C64286  10.320   6.052   3.631  0.8460  0.0369  0.0120
  477MOL0     C64287  10.283   5.930   3.697  0.4617 -0.0924  0.0267
  477MOL0     C64288  10.387   5.859   3.782 -0.0603 -0.1899 -0.3175
  477MOL0     C64289  10.151   5.884   3.691  0.4520 -0.3944 -0.1034
  477MOL0     C64290  10.102   5.750   3.757  0.0285 -0.6762  0.3071
  477MOL0     O64291   9.971   5.723   3.726 -0.5414  0.0082 -0.0365
  477MOL0     C64292   9.940   5.592   3.736  0.6175  0.2108 -0.5718
  477MOL0     C64293  10.016   5.498   3.665 -0.0454 -0.3767  0.3344
  477MOL0     C64294   9.989   5.366   3.679 -0.3974  0.9073 -0.0462
  477MOL0     C64295   9.883   5.321   3.745  0.9766  0.2284 -0.2282
  477MOL0     O64296   9.864   5.191   3.754  0.2444  0.3448 -0.1052
  477MOL0     C64297   9.802   5.118   3.651  0.3667  0.0301  0.7253
  477MOL0     C64298   9.768   4.972   3.707  0.3479  0.3280  0.4971
  477MOL0     C64299   9.681   4.978   3.837 -0.4004  0.2766  0.6083
  477MOL0     C64300   9.657   4.824   3.881  0.0366 -0.5899 -0.2058
  477MOL0     C64301   9.746   4.790   4.006  0.8780 -0.6942 -0.7319
  477MOL0     C64302   9.665   4.675   4.078  0.8078  0.7497 -0.3336
  477MOL0     C64303   9.764   4.622   4.177 -0.1615  0.5157 -0.2997
  477MOL0     C64304   9.698   4.573   4.299  0.6917  1.0717 -0.4167
  477MOL0    Cl64305   9.559   4.464   4.253  0.2170  0.5564  0.0706
  477MOL0     C64306   9.798   5.405   3.822  0.0144 -0.4559 -0.5078
  477MOL0     C64307   9.826   5.546   3.814 -0.4486 -0.0349 -0.0468
  477MOL0     O64308  10.170   5.676   3.828 -0.4017  0.7961 -0.2224
  477MOL0     C64309  10.059   5.969   3.624  0.1474  0.4205  0.6452
  477MOL0     C64310  10.092   6.086   3.556 -0.6021  0.3945  0.3304
  477MOL0     N64311  10.525   6.230   3.071  0.3422 -0.5077  0.5501
  477MOL0     N64312  10.626   6.232   3.004 -0.0750 -0.8146 -0.5251
  477MOL0     C64313   9.903   6.523   2.350  0.6297 -0.8166  0.8266
  477MOL0     C64314   9.769   6.546   2.347 -0.0996 -0.4797 -0.7058
  477MOL0     C64315   9.357   6.637   2.310 -0.7592  0.1549 -0.5756
  477MOL0     C64316   9.305   6.503   2.311 -0.3644  0.1098 -0.0256
  477MOL0     C64317   9.167   6.477   2.330 -0.6100  0.1673 -0.2659
  477MOL0     C64318   9.089   6.590   2.370  0.1671  0.4482 -0.0260
  477MOL0     O64319   8.958   6.564   2.416  0.1319  0.2684  0.4825
  477MOL0     C64320   8.851   6.618   2.330 -0.1465  1.1038 -0.5484
  477MOL0     C64321   8.759   6.495   2.298  0.4440 -0.2499  0.5521
  477MOL0     C64322   8.677   6.462   2.420  0.3665  1.1040  0.1373
  477MOL0     C64323   8.587   6.333   2.388  0.5516  0.5605  0.2273
  477MOL0     C64324   8.576   6.240   2.506  0.6191 -1.2804  0.0839
  477MOL0     C64325   8.575   6.159   2.598  0.1012 -0.0191  0.0938
  477MOL0     C64326   9.139   6.719   2.367 -0.5232 -0.0758 -0.7090
  477MOL0     C64327   9.275   6.746   2.344  0.2720  0.7923  0.0936
  477MOL0     H64328   9.709   6.459   2.034 -1.9978  2.3086  1.3035
  477MOL0     H64329   9.952   6.399   2.040  0.3032 -0.3773 -0.6687
  477MOL0     H64330  10.145   6.332   2.102 -1.6772  1.1215  0.9503
  477MOL0     H64331  10.171   6.510   2.077 -3.3050 -0.4812 -1.0495
  477MOL0     H64332  10.379   6.362   2.097  0.6754 -0.8932  0.2231
  477MOL0     H64333  10.374   6.515   2.179 -0.2223 -0.1700  0.7685
  477MOL0     H64334  10.324   6.413   2.390 -2.3841 -1.2046  1.1140
  477MOL0     H64335  10.312   6.257   2.323 -0.1704 -0.9091 -2.6620
  477MOL0     H64336  10.517   6.196   2.337  1.8322 -0.0407  0.7881
  477MOL0     H64337  10.564   6.332   2.227  1.2716 -1.4144 -1.4121
  477MOL0     H64338  10.691   6.386   2.406 -0.3678 -0.3644 -1.3319
  477MOL0     H64339  10.555   6.474   2.442 -2.1289 -0.8455 -1.1983
  477MOL0     H64340  10.489   6.295   2.607 -0.8637 -0.7309 -2.6941
  477MOL0     H64341  10.655   6.215   2.590  3.5277  2.4190  0.3367
  477MOL0     H64342  10.718   6.492   2.627  0.4470 -0.2915 -0.2775
  477MOL0     H64343  10.566   6.498   2.696 -2.5872 -2.9268  1.9049
  477MOL0     H64344  10.762   6.452   2.863  0.9252 -1.3943  0.7045
  477MOL0     H64345  10.787   6.297   2.794 -0.4478 -0.7079 -1.3793
  477MOL0     H64346  10.432   6.443   2.848 -3.2729 -1.0255  0.4827
  477MOL0     H64347  10.238   6.411   3.024 -0.8298 -0.4084 -1.6886
  477MOL0     H64348  10.231   6.240   3.036 -0.1406  1.1601 -1.5976
  477MOL0     H64349  10.347   6.432   3.247 -0.8824  0.1891 -0.4603
  477MOL0     H64350  10.378   6.263   3.266  0.2259 -0.6817 -1.1375
  477MOL0     H64351  10.109   6.236   3.275  0.4342  0.3293 -1.1144
  477MOL0     H64352  10.112   6.409   3.264  0.9570 -0.1750 -1.7734
  477MOL0     H64353  10.098   6.333   3.500  0.9668  1.4417  1.8149
  477MOL0     H64354  10.250   6.427   3.462  2.3595 -1.0874 -0.1940
  477MOL0     H64355  10.415   6.094   3.662  0.8962 -0.3582  0.4103
  477MOL0     H64356  10.476   5.919   3.805 -0.7482  0.1338  1.7448
  477MOL0     H64357  10.345   5.849   3.882 -0.2126  1.2975 -0.2069
  477MOL0     H64358  10.422   5.767   3.734  2.4471  0.2445  0.5257
  477MOL0     H64359  10.095   5.536   3.602  1.9279  0.6994  3.2388
  477MOL0     H64360  10.047   5.294   3.622  0.8088  1.6342  0.2533
  477MOL0     H64361   9.712   5.173   3.621  0.1183 -0.9378 -0.3381
  477MOL0     H64362   9.867   5.119   3.563  1.3042 -1.8967  1.3362
  477MOL0     H64363   9.701   4.920   3.638  1.4957 -3.0635  1.7057
  477MOL0     H64364   9.863   4.919   3.718  0.0139 -0.5917 -0.9236
  477MOL0     H64365   9.583   5.022   3.818 -1.1899 -2.3251 -2.1639
  477MOL0     H64366   9.732   5.043   3.909 -2.5222  3.5075 -0.6239
  477MOL0     H64367   9.551   4.807   3.903 -0.6304  0.6957 -2.1513
  477MOL0     H64368   9.677   4.756   3.797  1.6267  1.9539 -2.0233
  477MOL0     H64369   9.763   4.867   4.082  0.0238 -0.0147 -1.2068
  477MOL0     H64370   9.841   4.756   3.965 -0.5076 -3.7242 -1.7264
  477MOL0     H64371   9.573   4.725   4.111  0.3421  0.6454 -1.4528
  477MOL0     H64372   9.635   4.591   4.015 -0.3853  0.9984 -0.1275
  477MOL0     H64373   9.833   4.700   4.211 -0.4305  1.1629 -1.2075
  477MOL0     H64374   9.816   4.541   4.126 -0.4918 -0.5558  0.9980
  477MOL0     H64375   9.657   4.660   4.350 -1.8594 -1.4381  2.1239
  477MOL0     H64376   9.778   4.530   4.361 -0.6794 -2.8703 -1.0814
  477MOL0     H64377   9.713   5.363   3.874 -0.1013  1.8085  1.2762
  477MOL0     H64378   9.770   5.619   3.871  0.7891  0.0162  1.1488
  477MOL0     H64379   9.956   5.935   3.618  0.8942 -1.7869 -0.6977
  477MOL0     H64380  10.018   6.142   3.500  0.8733  0.7098 -1.3860
  477MOL0     H64381   9.957   6.543   2.442 -0.3744  0.3801  1.1829
  477MOL0     H64382   9.713   6.579   2.434 -4.6827 -0.9461 -3.1438
  477MOL0     H64383   9.371   6.424   2.277 -2.5820  0.0156 -4.9193
  477MOL0     H64384   9.121   6.378   2.329 -2.3369  0.9321 -1.7695
  477MOL0     H64385   8.791   6.695   2.379  0.6496 -0.6469  3.6082
  477MOL0     H64386   8.892   6.664   2.240 -0.2603 -0.7797 -1.6110
  477MOL0     H64387   8.824   6.413   2.265 -2.7667 -2.4966 -0.7610
  477MOL0     H64388   8.691   6.515   2.215  0.0451  1.1908  1.1957
  477MOL0     H64389   8.612   6.547   2.445 -1.9712 -0.8955  1.3478
  477MOL0     H64390   8.735   6.436   2.509 -3.0730 -1.2435  1.9387
  477MOL0     H64391   8.638   6.276   2.309  0.5135  0.8201  0.0135
  477MOL0     H64392   8.482   6.356   2.369 -0.3039 -1.1045  2.5214
  477MOL0     H64393   8.570   6.085   2.675 -2.8795 -0.0906 -0.0395
  477MOL0     H64394   9.070   6.801   2.386 -2.5405 -1.9260  0.4274
  477MOL0     H64395   9.298   6.849   2.320 -2.8434  2.4211  3.1894
  478MOL0     O64396   3.860   6.475   5.393 -0.2565  0.0809  0.2332
  478MOL0     C64397   3.886   6.559   5.475  0.6032 -0.7473 -0.5304
  478MOL0     O64398   3.804   6.659   5.512 -0.0763  0.0380 -0.0908
  478MOL0     C64399   3.665   6.650   5.480  0.2261 -0.5516  0.0621
  478MOL0     C64400   3.611   6.743   5.395  0.1558  1.1762 -0.4100
  478MOL0     C64401   3.476   6.725   5.345  0.2937 -0.5089 -1.0735
  478MOL0     C64402   3.390   6.632   5.410  0.1189 -0.1174 -0.0933
  478MOL0     O64403   3.264   6.624   5.356 -0.5492 -0.1569 -0.2919
  478MOL0     C64404   3.183   6.515   5.396  0.0387  0.4689 -0.1032
  478MOL0     C64405   3.046   6.527   5.354  0.5629 -0.4282  0.3354
  478MOL0     C64406   2.969   6.630   5.427  0.2339 -0.1076  0.0160
  478MOL0     C64407   2.957   6.752   5.350 -0.3599 -0.4051 -0.7934
  478MOL0     C64408   2.852   6.854   5.398  0.3103  0.9467 -0.9471
  478MOL0     C64409   2.872   6.915   5.536 -0.3266 -0.3670 -0.5522
  478MOL0     C64410   2.792   7.036   5.565  0.8559 -0.3591 -0.9851
  478MOL0     C64411   2.634   7.008   5.564 -0.7377  0.5767  0.3434
  478MOL0     N64412   2.570   7.137   5.569  0.2048 -0.7504 -0.4248
  478MOL0     C64413   2.519   7.197   5.677  0.1495 -0.0450  0.4328
  478MOL0     C64414   2.444   7.303   5.633  0.9473  0.3270 -0.6049
  478MOL0     C64415   2.364   7.408   5.716  0.3328 -0.9741  0.0436
  478MOL0     C64416   2.225   7.449   5.659  0.9853  0.4280  0.6309
  478MOL0     C64417   2.148   7.328   5.635  0.3041  0.4240  0.7420
  478MOL0     C64418   2.005   7.352   5.595  0.4309 -0.0958  0.7456
  478MOL0     O64419   1.935   7.443   5.691 -0.0855  0.5317  0.1498
  478MOL0     C64420   1.798   7.407   5.688 -0.2029  0.5740 -0.3351
  478MOL0     C64421   1.743   7.445   5.807  0.2052 -0.0307  0.2106
  478MOL0     C64422   1.604   7.423   5.826  0.3765 -0.7662 -0.3589
  478MOL0     C64423   1.551   7.456   5.966  0.3240  0.7271 -0.0051
  478MOL0     C64424   1.524   7.384   5.716  0.3111 -0.0493  0.6574
  478MOL0     C64425   1.375   7.377   5.728 -0.0676 -1.5781 -0.4108
  478MOL0     O64426   1.326   7.341   5.853  0.1731  1.1392  0.3849
  478MOL0     C64427   1.189   7.325   5.874  0.5901 -0.1967 -0.0263
  478MOL0     C64428   1.087   7.412   5.824 -0.5267 -0.1805  0.4320
  478MOL0     C64429   0.953   7.383   5.854  0.6461  0.6041 -0.0973
  478MOL0     C64430   0.906   7.276   5.930 -0.4226  0.8993 -0.2582
  478MOL0     O64431   0.775   7.250   5.951 -0.1180 -0.0470 -0.4227
  478MOL0     C64432   0.714   7.123   5.979 -0.8392  0.6740 -0.2337
  478MOL0     C64433   0.568   7.156   5.995  0.5289  0.5937  0.7558
  478MOL0     C64434   0.457   7.046   6.001 -0.4917 -0.4971  1.1336
  478MOL0     C64435   0.435   6.980   5.864 -0.4223 -0.1937  0.0787
  478MOL0     C64436   0.296   6.916   5.834 -0.1554 -0.0915  0.1857
  478MOL0     C64437   0.171   7.001   5.816 -0.1127 -0.6342 -0.5037
  478MOL0     C64438   0.039   6.915   5.837  0.1105  0.2872 -0.6836
  478MOL0     C64439  -0.069   7.011   5.837  0.3376 -0.6425 -0.1472
  478MOL0    Cl64440  -0.121   7.071   6.001  0.2084 -0.0561 -0.1669
  478MOL0     C64441   1.012   7.205   5.990  0.5871 -0.3173 -0.3353
  478MOL0     C64442   1.146   7.220   5.956 -0.5100  0.0693 -0.2222
  478MOL0     O64443   1.306   7.391   5.627 -0.6113 -1.0373  0.0858
  478MOL0     C64444   1.587   7.353   5.592 -0.0151 -0.8142  0.1344
  478MOL0     C64445   1.726   7.350   5.584  0.0571  0.3663 -0.0646
  478MOL0     N64446   2.476   7.322   5.501 -0.2179 -0.4469 -0.6174
  478MOL0     N64447   2.554   7.228   5.470  0.0320 -0.0502  0.6025
  478MOL0     C64448   3.442   6.547   5.512  0.8664 -0.1149  0.2233
  478MOL0     C64449   3.584   6.559   5.543  0.4675  0.1743 -0.5177
  478MOL0     C64450   4.019   6.547   5.545  0.1034 -0.4322 -0.0187
  478MOL0     C64451   4.087   6.653   5.609  0.2861 -0.2457 -0.9723
  478MOL0     C64452   4.218   6.638   5.654 -0.1943 -0.4380  0.2752
  478MOL0     C64453   4.292   6.518   5.624  0.2384 -0.0490 -0.9609
  478MOL0     O64454   4.420   6.524   5.663  0.3344  0.9403  0.2636
  478MOL0     C64455   4.518   6.413   5.649 -0.2032 -0.1199 -0.6330
  478MOL0     C64456   4.511   6.328   5.771 -0.3682  0.2733  0.7251
  478MOL0     C64457   4.517   6.395   5.920 -0.6598 -1.3108 -0.2720
  478MOL0     C64458   4.493   6.306   6.040  0.7076 -0.9480  0.3100
  478MOL0     C64459   4.602   6.217   6.062  0.6939 -0.4421  0.1905
  478MOL0     C64460   4.704   6.149   6.079 -0.5748 -0.5308 -0.3242
  478MOL0     C64461   4.224   6.419   5.571 -0.5910  0.1535 -0.2230
  478MOL0     C64462   4.094   6.440   5.518  0.0224  0.5745  0.2786
  478MOL0     H64463   3.683   6.817   5.360 -1.6856  2.3442 -1.9220
  478MOL0     H64464   3.448   6.784   5.257  2.7674  3.1879  0.3577
  478MOL0     H64465   3.221   6.418   5.363  1.9986  1.6341 -1.4876
  478MOL0     H64466   3.193   6.505   5.504  1.9394 -0.5702 -0.3426
  478MOL0     H64467   3.035   6.545   5.246 -1.4023  0.2988  0.6245
  478MOL0     H64468   2.998   6.429   5.364 -2.0200  0.3577 -2.8226
  478MOL0     H64469   2.869   6.589   5.445 -0.2686  1.2908  0.5678
  478MOL0     H64470   3.014   6.661   5.522  4.3772  0.7642 -2.0058
  478MOL0     H64471   3.054   6.799   5.331  0.1487 -1.9780 -2.3789
  478MOL0     H64472   2.916   6.723   5.253  0.7735 -2.5151 -0.6891
  478MOL0     H64473   2.839   6.930   5.319 -2.3638 -2.6881 -4.4188
  478MOL0     H64474   2.758   6.800   5.411  0.9490 -0.0972 -0.5816
  478MOL0     H64475   2.848   6.846   5.617  2.3797  1.3065  1.8318
  478MOL0     H64476   2.975   6.944   5.555  1.0684 -4.1866 -1.3066
  478MOL0     H64477   2.810   7.070   5.667 -1.1988 -0.0528 -0.6726
  478MOL0     H64478   2.822   7.117   5.498  1.0822 -1.1410 -1.8496
  478MOL0     H64479   2.593   6.952   5.648 -2.4689 -2.2857 -2.2115
  478MOL0     H64480   2.605   6.963   5.469 -0.8115 -0.7401  0.9641
  478MOL0     H64481   2.518   7.145   5.772 -0.0753 -0.4360  0.2170
  478MOL0     H64482   2.340   7.356   5.809  2.7436 -4.8589 -1.2908
  478MOL0     H64483   2.432   7.492   5.734 -2.3394  1.3489 -0.0146
  478MOL0     H64484   2.240   7.500   5.563  2.0344 -0.8581  0.0744
  478MOL0     H64485   2.170   7.517   5.725  1.0553  0.9462  0.1650
  478MOL0     H64486   2.146   7.262   5.722 -1.2218 -0.9255 -0.2503
  478MOL0     H64487   2.191   7.261   5.559 -2.0435 -1.3156  0.8109
  478MOL0     H64488   1.959   7.253   5.600 -1.2857  0.6871  1.4493
  478MOL0     H64489   2.005   7.393   5.494  2.0550  1.1868  1.2231
  478MOL0     H64490   1.816   7.486   5.877  3.9981  0.1922 -3.4952
  478MOL0     H64491   1.628   7.514   6.018 -1.9182  2.8324  1.1848
  478MOL0     H64492   1.468   7.526   5.952 -0.2680  0.6321  2.6516
  478MOL0     H64493   1.528   7.365   6.022  1.0716 -0.3374 -1.3497
  478MOL0     H64494   1.112   7.502   5.768 -0.2868  1.6416  3.2550
  478MOL0     H64495   0.874   7.446   5.813  1.4019  1.6757  0.0616
  478MOL0     H64496   0.731   7.053   5.896  1.3780  0.5696  0.2266
  478MOL0     H64497   0.750   7.083   6.075 -1.1670  2.1024  0.5031
  478MOL0     H64498   0.546   7.216   6.083  0.5799  1.2866  0.3039
  478MOL0     H64499   0.540   7.220   5.910  0.7980  0.8961  0.8897
  478MOL0     H64500   0.365   7.096   6.033 -0.6506 -1.5523  2.4459
  478MOL0     H64501   0.484   6.968   6.073 -1.5337 -2.9097 -0.9125
  478MOL0     H64502   0.458   7.060   5.793  1.3310 -0.4253  0.3590
  478MOL0     H64503   0.506   6.901   5.839 -0.6027  0.5456 -3.1463
  478MOL0     H64504   0.276   6.847   5.917  1.7216 -1.9173 -0.7869
  478MOL0     H64505   0.319   6.854   5.747  0.0364  0.1099  0.0916
  478MOL0     H64506   0.169   7.074   5.897  0.8480  0.1252 -1.1387
  478MOL0     H64507   0.173   7.069   5.730 -0.6480  1.2043  0.8568
  478MOL0     H64508   0.045   6.857   5.930 -0.6482 -0.4789 -1.0969
  478MOL0     H64509   0.021   6.840   5.759  0.2493  0.7478 -1.1614
  478MOL0     H64510  -0.154   6.966   5.784  0.9497  0.0865 -1.8061
  478MOL0     H64511  -0.038   7.090   5.768 -2.5197  0.5509 -0.1933
  478MOL0     H64512   1.003   7.124   6.061  1.9023  0.5700  0.9159
  478MOL0     H64513   1.222   7.153   5.996  0.2622 -0.6031 -2.6370
  478MOL0     H64514   1.520   7.328   5.511  0.4908  1.5870 -1.1109
  478MOL0     H64515   1.780   7.322   5.494 -0.4582 -0.7809 -0.0324
  478MOL0     H64516   3.392   6.462   5.557 -2.1860  0.8307 -1.1047
  478MOL0     H64517   3.628   6.483   5.606  2.7109  1.8561  0.0655
  478MOL0     H64518   4.051   6.755   5.617  2.0432  0.3498 -0.2427
  478MOL0     H64519   4.271   6.721   5.700 -2.2982  0.6832  0.8123
  478MOL0     H64520   4.495   6.354   5.560 -0.6227 -1.5809  0.3979
  478MOL0     H64521   4.618   6.451   5.626  0.0242 -0.4673 -0.2387
  478MOL0     H64522   4.586   6.250   5.758  0.0243  0.6985  0.4246
  478MOL0     H64523   4.416   6.273   5.776  0.0904 -0.5274  0.8338
  478MOL0     H64524   4.447   6.478   5.930 -0.0127 -0.8761  0.8072
  478MOL0     H64525   4.615   6.442   5.932  1.4810 -5.1128 -1.0051
  478MOL0     H64526   4.400   6.252   6.022  0.3194 -0.7811  1.7092
  478MOL0     H64527   4.490   6.369   6.129  1.7580 -0.4802  0.0363
  478MOL0     H64528   4.793   6.091   6.083  0.8146  1.3770 -1.7995
  478MOL0     H64529   4.257   6.320   5.540  0.1290  0.0696  0.7608
  478MOL0     H64530   4.045   6.365   5.458 -0.2927  2.7897 -2.4327
  479MOL0     O64531   5.744   4.819   2.922 -0.2653  0.9883  0.2349
  479MOL0     C64532   5.769   4.732   2.845 -0.6518 -0.7190  1.0518
  479MOL0     O64533   5.667   4.679   2.761 -0.7327 -0.1828 -0.3903
  479MOL0     C64534   5.548   4.744   2.759  0.0145  0.1124  0.5202
  479MOL0     C64535   5.431   4.668   2.778 -0.3144  0.7552 -0.8672
  479MOL0     C64536   5.303   4.721   2.756 -0.7178 -0.0078  0.3949
  479MOL0     C64537   5.283   4.855   2.725  0.5625 -1.5346 -0.4771
  479MOL0     O64538   5.156   4.914   2.695  0.1294 -0.3165 -0.0741
  479MOL0     C64539   5.031   4.839   2.724 -0.1107 -0.6784 -0.2974
  479MOL0     C64540   4.906   4.922   2.686 -0.1881 -0.2532  0.1565
  479MOL0     C64541   4.780   4.840   2.711  0.3520  0.7543 -0.0762
  479MOL0     C64542   4.653   4.908   2.640  0.1970 -0.0429 -0.3315
  479MOL0     C64543   4.542   4.802   2.634  0.4534 -0.2182 -0.5150
  479MOL0     C64544   4.428   4.832   2.547  0.3578 -0.4249  0.5090
  479MOL0     C64545   4.331   4.719   2.512 -0.2813 -0.4797 -0.3548
  479MOL0     C64546   4.208   4.708   2.598  0.0881  0.1734  0.9458
  479MOL0     N64547   4.111   4.812   2.573  0.1249  0.7290 -0.0790
  479MOL0     C64548   4.112   4.925   2.503 -0.4296  0.2370 -0.5994
  479MOL0     C64549   3.998   4.987   2.545  0.6153 -0.8004 -0.4948
  479MOL0     C64550   3.950   5.122   2.494  0.3336 -0.0028  1.0928
  479MOL0     C64551   4.012   5.180   2.364  0.3395 -0.0067 -0.0674
  479MOL0     C64552   3.957   5.312   2.312  0.1852  0.6651  0.3094
  479MOL0     C64553   3.992   5.432   2.412  0.2061 -0.1151  0.8782
  479MOL0     O64554   4.125   5.419   2.462  0.1616  0.4674 -0.0097
  479MOL0     C64555   4.225   5.487   2.387 -0.0424 -0.1757 -0.0093
  479MOL0     C64556   4.212   5.548   2.264 -0.2811 -0.6210  0.0891
  479MOL0     C64557   4.315   5.629   2.205 -0.0084 -0.2390 -0.4403
  479MOL0     C64558   4.291   5.702   2.070  0.1488 -0.0041  0.5679
  479MOL0     C64559   4.434   5.644   2.273  0.5378 -0.0989  0.0274
  479MOL0     C64560   4.552   5.702   2.212  0.1877  0.2291 -0.6985
  479MOL0     O64561   4.622   5.784   2.294  0.1739  0.3298 -0.6435
  479MOL0     C64562   4.714   5.861   2.238 -0.3612  0.3594 -0.4923
  479MOL0     C64563   4.854   5.829   2.246 -0.4547 -0.5523  0.3664
  479MOL0     C64564   4.952   5.910   2.179 -0.4563 -0.1648 -0.4986
  479MOL0     C64565   4.918   6.021   2.104  0.3043 -0.0609  0.4472
  479MOL0     O64566   5.019   6.103   2.047 -0.0202 -1.1686 -0.3019
  479MOL0     C64567   5.010   6.246   2.059  0.0024  0.5127 -0.2030
  479MOL0     C64568   5.120   6.325   1.999 -0.6710  0.6431 -0.3984
  479MOL0     C64569   5.148   6.312   1.852 -0.1009 -0.4044  0.1640
  479MOL0     C64570   5.268   6.418   1.817  0.8943  1.0784 -0.5602
  479MOL0     C64571   5.306   6.421   1.673  1.5972 -0.3005 -0.0492
  479MOL0     C64572   5.197   6.397   1.575  1.3960  0.1975  0.2851
  479MOL0     C64573   5.084   6.507   1.566 -0.4456 -0.2689 -0.4987
  479MOL0     C64574   5.136   6.650   1.534 -1.5006  0.2446 -0.8526
  479MOL0    Cl64575   5.254   6.670   1.399  0.0655  0.2614  0.0283
  479MOL0     C64576   4.780   6.057   2.098  0.6757  0.3770 -0.2076
  479MOL0     C64577   4.687   5.979   2.165  0.1538 -0.3545  0.0047
  479MOL0     O64578   4.590   5.673   2.100  0.2048  0.1609  0.3716
  479MOL0     C64579   4.446   5.593   2.402 -0.4300 -0.2953  0.0860
  479MOL0     C64580   4.344   5.519   2.463 -0.2446 -0.3373  0.2660
  479MOL0     N64581   3.921   4.909   2.622 -0.3655 -0.1978 -0.1700
  479MOL0     N64582   3.986   4.801   2.633  0.3765  0.5922  0.0328
  479MOL0     C64583   5.402   4.932   2.712 -0.4765 -0.1326  0.1097
  479MOL0     C64584   5.532   4.888   2.727 -0.9971  0.1337 -0.2163
  479MOL0     C64585   5.903   4.677   2.825 -0.0188  0.7680 -0.2268
  479MOL0     C64586   5.927   4.564   2.739  0.6526 -0.1779  0.3732
  479MOL0     C64587   6.055   4.519   2.707 -0.0126  0.1195  0.7945
  479MOL0     C64588   6.165   4.577   2.763  0.9797 -0.3685 -0.8046
  479MOL0     O64589   6.296   4.551   2.746 -0.1505 -0.3620  0.5942
  479MOL0     C64590   6.318   4.454   2.640  0.2945  0.0845 -0.2936
  479MOL0     C64591   6.474   4.442   2.630 -0.7250  0.1418 -0.6945
  479MOL0     C64592   6.560   4.413   2.756  0.4445  0.5611 -0.1897
  479MOL0     C64593   6.713   4.396   2.727  0.1310 -0.6878  0.1561
  479MOL0     C64594   6.741   4.251   2.736  1.2803 -0.1297  0.2772
  479MOL0     C64595   6.754   4.134   2.760 -0.3495 -0.2379 -0.7500
  479MOL0     C64596   6.138   4.683   2.859 -0.5850 -0.8780 -0.7081
  479MOL0     C64597   6.016   4.730   2.891  1.3104  1.0985  0.0148
  479MOL0     H64598   5.451   4.567   2.812  0.9270  0.6730 -1.7546
  479MOL0     H64599   5.214   4.660   2.760  1.0032 -2.6789  0.2084
  479MOL0     H64600   5.034   4.744   2.671 -0.9432 -0.2224 -1.2123
  479MOL0     H64601   5.016   4.809   2.828 -1.1485 -0.2896 -0.3167
  479MOL0     H64602   4.894   5.013   2.746 -0.7994 -0.4645  0.3662
  479MOL0     H64603   4.922   4.957   2.584  2.0671  0.4578  0.7002
  479MOL0     H64604   4.794   4.733   2.695 -1.3320 -0.1477  3.4710
  479MOL0     H64605   4.746   4.831   2.815 -2.9658  0.7380 -1.0406
  479MOL0     H64606   4.619   4.995   2.697 -2.0750 -0.3943 -1.0456
  479MOL0     H64607   4.679   4.930   2.536 -0.0488 -0.8302 -0.5712
  479MOL0     H64608   4.594   4.717   2.590  1.5828  0.3258 -0.2747
  479MOL0     H64609   4.494   4.767   2.726 -2.1248  0.5970 -1.4393
  479MOL0     H64610   4.376   4.922   2.583  1.4612  0.2608  0.4424
  479MOL0     H64611   4.473   4.859   2.451  0.6406 -0.2944  0.6764
  479MOL0     H64612   4.296   4.748   2.413  0.3764  0.7440 -0.2471
  479MOL0     H64613   4.379   4.622   2.527  0.1530 -0.0183  1.5327
  479MOL0     H64614   4.232   4.705   2.704  2.0693 -1.7559  0.5155
  479MOL0     H64615   4.165   4.607   2.593 -0.7929  0.4553  2.3328
  479MOL0     H64616   4.191   4.960   2.437  1.8047  0.2256  1.9308
  479MOL0     H64617   3.841   5.114   2.483  0.6583 -1.8681 -2.8336
  479MOL0     H64618   3.972   5.193   2.574 -0.4654  0.7734  0.6293
  479MOL0     H64619   3.998   5.111   2.280  0.4397  1.5709 -1.4247
  479MOL0     H64620   4.121   5.186   2.374  0.1453  1.0340  1.9277
  479MOL0     H64621   3.848   5.311   2.300  0.1678 -0.3678  0.4900
  479MOL0     H64622   4.010   5.338   2.220  0.9640  2.2896  1.1597
  479MOL0     H64623   3.911   5.426   2.486 -1.7390 -3.3872 -1.2542
  479MOL0     H64624   3.980   5.530   2.365 -0.3280 -1.2301 -1.4568
  479MOL0     H64625   4.119   5.547   2.206 -0.7870  2.7270  0.6754
  479MOL0     H64626   4.364   5.672   1.995 -1.1219 -2.0447  0.0793
  479MOL0     H64627   4.186   5.683   2.045  0.6841 -1.4036 -0.7416
  479MOL0     H64628   4.304   5.810   2.083  0.5401  0.5448 -3.2613
  479MOL0     H64629   4.891   5.733   2.282  1.4031  0.2787  0.7931
  479MOL0     H64630   5.055   5.876   2.188  0.8969  3.7575  1.0760
  479MOL0     H64631   4.917   6.281   2.013 -0.6163 -0.1959  0.4712
  479MOL0     H64632   5.013   6.278   2.163 -0.9975 -0.5147  0.1650
  479MOL0     H64633   5.113   6.431   2.023  3.8952  1.3316 -1.2604
  479MOL0     H64634   5.207   6.291   2.056  0.6294  0.1296 -2.5994
  479MOL0     H64635   5.061   6.337   1.792  0.2092 -0.3620 -0.2699
  479MOL0     H64636   5.175   6.208   1.829  1.1851  0.4955 -2.8521
  479MOL0     H64637   5.223   6.511   1.854 -0.3868  0.3956 -0.3404
  479MOL0     H64638   5.355   6.386   1.875 -0.2852  0.4588  0.9440
  479MOL0     H64639   5.373   6.335   1.658 -0.4275 -1.7099 -1.6033
  479MOL0     H64640   5.359   6.515   1.656 -2.6403  2.0227 -1.9568
  479MOL0     H64641   5.229   6.395   1.471 -2.0155 -1.0005 -0.8467
  479MOL0     H64642   5.164   6.293   1.581  3.1400 -0.5635 -1.8728
  479MOL0     H64643   5.032   6.518   1.661 -2.5084 -3.0219 -1.1948
  479MOL0     H64644   5.012   6.465   1.495 -0.5657  1.8533 -1.7213
  479MOL0     H64645   5.177   6.685   1.629  0.4478 -1.3129 -1.0568
  479MOL0     H64646   5.057   6.715   1.496 -4.0206 -0.6783  2.4071
  479MOL0     H64647   4.741   6.148   2.052  2.0679  1.0736 -0.0702
  479MOL0     H64648   4.583   6.011   2.168 -0.5754 -2.3043 -1.7846
  479MOL0     H64649   4.540   5.615   2.452  0.5273 -0.3986 -1.5669
  479MOL0     H64650   4.364   5.480   2.563  1.1119 -1.3097 -0.3402
  479MOL0     H64651   5.367   5.029   2.679 -1.9291 -0.1355  1.5027
  479MOL0     H64652   5.616   4.953   2.705 -1.0216  0.0052 -0.7031
  479MOL0     H64653   5.840   4.537   2.680  0.3564 -0.7316  1.0478
  479MOL0     H64654   6.053   4.432   2.643 -0.1998  0.5211  0.2446
  479MOL0     H64655   6.284   4.358   2.680 -0.3571  0.5327  0.2548
  479MOL0     H64656   6.256   4.469   2.552 -2.7230 -0.0175  1.6580
  479MOL0     H64657   6.506   4.533   2.580 -3.0644  0.4099 -1.8528
  479MOL0     H64658   6.492   4.358   2.562 -0.9435  0.1897 -0.8117
  479MOL0     H64659   6.516   4.329   2.810  1.4494  0.4584  0.5080
  479MOL0     H64660   6.549   4.502   2.818 -1.4455 -0.9569  1.8422
  479MOL0     H64661   6.758   4.458   2.805 -1.6750 -1.7189  2.1403
  479MOL0     H64662   6.752   4.428   2.631 -0.3716  0.3067  0.2702
  479MOL0     H64663   6.783   4.032   2.774 -1.3161 -0.7691 -2.4009
  479MOL0     H64664   6.220   4.734   2.909 -0.1702  0.5337 -2.7439
  479MOL0     H64665   6.009   4.811   2.963  2.6995  0.9560  0.3389
  480MOL0     O64666   9.344   4.939   7.370 -0.5632  0.2131 -0.0524
  480MOL0     C64667   9.373   4.999   7.467  0.5341 -0.1831  0.0073
  480MOL0     O64668   9.300   5.003   7.578  0.0519  0.2358 -0.3801
  480MOL0     C64669   9.213   4.904   7.610 -0.1678  0.1225  0.0066
  480MOL0     C64670   9.243   4.766   7.631  0.0418 -1.0089  0.4466
  480MOL0     C64671   9.136   4.669   7.664 -1.0609 -0.3826  0.6603
  480MOL0     C64672   9.007   4.710   7.685  0.6704  0.1283 -0.0448
  480MOL0     O64673   8.917   4.614   7.729  0.2187 -0.0606  0.4739
  480MOL0     C64674   8.780   4.663   7.739  0.6522  0.0754 -0.7811
  480MOL0     C64675   8.751   4.740   7.874  0.2835 -0.2271  0.0945
  480MOL0     C64676   8.760   4.651   7.995 -0.1727  0.5555  0.5753
  480MOL0     C64677   8.797   4.723   8.122 -0.2996 -0.4117 -0.2342
  480MOL0     C64678   8.771   4.644   8.245  0.4526 -0.2679  0.2953
  480MOL0     C64679   8.805   4.496   8.247  0.3037 -0.1870  0.6003
  480MOL0     C64680   8.792   4.436   8.384  0.1698 -0.1530  0.2081
  480MOL0     C64681   8.805   4.287   8.391 -1.0712 -0.1082  0.2058
  480MOL0     N64682   8.681   4.211   8.363 -0.2064  0.0473 -0.2200
  480MOL0     C64683   8.591   4.183   8.464 -0.1589  1.6692  0.4042
  480MOL0     C64684   8.486   4.113   8.407 -1.1171  0.0637 -0.3633
  480MOL0     C64685   8.350   4.077   8.465  0.2037 -0.2933  0.1151
  480MOL0     C64686   8.360   3.993   8.594  0.1147 -0.6430 -0.6803
  480MOL0     C64687   8.219   3.955   8.630  0.7803 -0.2437  0.1241
  480MOL0     C64688   8.218   3.898   8.773 -0.3616 -0.4774  0.5803
  480MOL0     O64689   8.085   3.837   8.783  0.0684 -0.3925  0.2933
  480MOL0     C64690   8.055   3.780   8.904  0.0371  0.1766  0.0099
  480MOL0     C64691   8.146   3.757   9.010  0.0999  0.0464 -0.0179
  480MOL0     C64692   8.110   3.698   9.131  0.1901 -0.6018 -0.0235
  480MOL0     C64693   8.213   3.660   9.225  0.6399 -0.0761 -0.6684
  480MOL0     C64694   7.970   3.665   9.148  0.5300 -0.5122 -0.8423
  480MOL0     C64695   7.926   3.616   9.280  0.2641  0.0722 -0.1687
  480MOL0     O64696   7.796   3.600   9.282  0.7380  1.0901  0.0703
  480MOL0     C64697   7.731   3.532   9.384  0.6604  0.4063  1.0476
  480MOL0     C64698   7.598   3.563   9.394  0.8433  0.5341  0.6488
  480MOL0     C64699   7.512   3.501   9.488 -0.2705 -0.3704 -0.1965
  480MOL0     C64700   7.560   3.398   9.565  1.0125 -0.3880  0.1557
  480MOL0     O64701   7.471   3.334   9.659 -0.7197 -0.1516 -0.1785
  480MOL0     C64702   7.510   3.214   9.733 -0.0306 -0.0001 -0.3986
  480MOL0     C64703   7.389   3.151   9.821  0.1125  0.3236  0.8369
  480MOL0     C64704   7.304   3.258   9.889 -0.4379 -0.1833 -0.5934
  480MOL0     C64705   7.206   3.197   9.982  0.0454  0.0810 -0.9174
  480MOL0     C64706   7.106   3.303  10.029  0.0313 -0.4840 -0.3066
  480MOL0     C64707   7.005   3.358   9.927 -0.2845 -0.0545 -0.4246
  480MOL0     C64708   6.903   3.258   9.887  1.0661 -0.1512  0.3389
  480MOL0     C64709   6.806   3.318   9.787  0.1825 -0.3494 -0.3249
  480MOL0    Cl64710   6.709   3.443   9.874  0.0205  0.2392 -0.1368
  480MOL0     C64711   7.688   3.355   9.545 -0.4703  0.6179 -0.1101
  480MOL0     C64712   7.783   3.427   9.465  1.0374 -1.0596  0.3164
  480MOL0     O64713   7.991   3.635   9.384  0.7897 -0.5650  0.3918
  480MOL0     C64714   7.885   3.662   9.041 -0.8397 -0.1652  0.4350
  480MOL0     C64715   7.924   3.718   8.916  0.6741 -0.2340 -0.6801
  480MOL0     N64716   8.512   4.128   8.271 -0.0484  0.0338 -0.6587
  480MOL0     N64717   8.624   4.182   8.245  0.1530  0.3351 -0.5278
  480MOL0     C64718   8.986   4.849   7.672 -0.2901  0.2681  0.1631
  480MOL0     C64719   9.078   4.942   7.637  0.0282  0.1095  0.4341
  480MOL0     C64720   9.491   5.089   7.473 -0.4421 -0.5459  0.8796
  480MOL0     C64721   9.572   5.104   7.353 -0.3703  0.3115 -0.2782
  480MOL0     C64722   9.680   5.202   7.358  0.7940  0.2356 -0.8541
  480MOL0     C64723   9.718   5.273   7.473  0.0992  0.3119  1.1555
  480MOL0     O64724   9.817   5.363   7.481 -0.0664 -0.0030 -0.5157
  480MOL0     C64725   9.852   5.430   7.357  0.1442 -0.1054 -0.5479
  480MOL0     C64726   9.959   5.531   7.365 -0.4062  0.6844  0.0548
  480MOL0     C64727  10.080   5.474   7.438 -0.1576 -0.6658  0.1525
  480MOL0     C64728  10.174   5.400   7.339  0.2088 -0.0643 -0.0905
  480MOL0     C64729  10.252   5.490   7.253  0.3637  0.5501  1.0244
  480MOL0     C64730  10.325   5.535   7.165  0.3341 -0.7208  0.3874
  480MOL0     C64731   9.634   5.259   7.581  0.0413  0.2066 -1.4373
  480MOL0     C64732   9.528   5.170   7.591  0.0230  0.1863  0.0924
  480MOL0     H64733   9.349   4.739   7.627  0.3432 -0.6217  3.3790
  480MOL0     H64734   9.167   4.567   7.685  0.9588 -0.3817 -1.8108
  480MOL0     H64735   8.752   4.727   7.654  2.2918  0.7509 -0.8398
  480MOL0     H64736   8.713   4.576   7.736  0.4650  0.1473  0.7562
  480MOL0     H64737   8.818   4.826   7.887 -0.4687  0.3067  0.5372
  480MOL0     H64738   8.653   4.788   7.872  0.9695  1.2280 -0.3729
  480MOL0     H64739   8.670   4.589   8.003  1.0394 -1.3933 -0.3502
  480MOL0     H64740   8.832   4.572   7.973 -1.6763 -0.6908 -0.0444
  480MOL0     H64741   8.905   4.738   8.112  0.3241 -4.4837 -1.6186
  480MOL0     H64742   8.751   4.822   8.129  1.2455  0.3137  0.1879
  480MOL0     H64743   8.818   4.693   8.330  0.8363 -0.2821  0.0952
  480MOL0     H64744   8.670   4.656   8.285  2.0317 -2.5252  5.8745
  480MOL0     H64745   8.736   4.437   8.186  0.9050 -2.4936  2.0439
  480MOL0     H64746   8.907   4.494   8.208 -0.5477 -2.4230 -1.8403
  480MOL0     H64747   8.857   4.495   8.449  0.0530  1.3995 -1.0260
  480MOL0     H64748   8.692   4.461   8.422  0.5220 -0.0552  1.0756
  480MOL0     H64749   8.839   4.264   8.492 -0.3706  0.7903  0.1938
  480MOL0     H64750   8.874   4.255   8.312  0.8286  1.4689  1.1301
  480MOL0     H64751   8.600   4.222   8.565  1.7300 -0.1998  1.0137
  480MOL0     H64752   8.281   4.159   8.485 -2.0931 -1.2793 -2.9612
  480MOL0     H64753   8.300   4.030   8.380  0.4737 -1.2119  0.4485
  480MOL0     H64754   8.404   4.045   8.680 -2.2654  1.5666 -0.6864
  480MOL0     H64755   8.424   3.905   8.584  0.5141 -0.7411  1.8753
  480MOL0     H64756   8.194   3.877   8.557  1.0218 -0.9020  0.7331
  480MOL0     H64757   8.146   4.035   8.617  1.2019 -0.2271 -2.5994
  480MOL0     H64758   8.246   3.980   8.840 -2.0629  0.5132  0.1471
  480MOL0     H64759   8.289   3.815   8.776  2.1641  1.2798 -3.0276
  480MOL0     H64760   8.246   3.800   8.999  0.8969 -1.5410  0.6244
  480MOL0     H64761   8.189   3.561   9.265  0.1711  0.2556 -0.1100
  480MOL0     H64762   8.306   3.656   9.169 -0.5513 -1.4710 -2.6822
  480MOL0     H64763   8.218   3.730   9.309  1.6032  2.2174 -2.5409
  480MOL0     H64764   7.559   3.638   9.326  0.7261 -1.4233 -1.5343
  480MOL0     H64765   7.409   3.526   9.512 -0.1555 -1.3071  1.3708
  480MOL0     H64766   7.567   3.145   9.669  0.8239  1.0870 -0.8513
  480MOL0     H64767   7.585   3.257   9.800  0.6207  0.5717 -1.4596
  480MOL0     H64768   7.322   3.091   9.759 -0.1757 -0.0508  1.4934
  480MOL0     H64769   7.432   3.089   9.900  1.0378  2.4330  2.1006
  480MOL0     H64770   7.264   3.322   9.810 -0.2721  3.0917  1.7565
  480MOL0     H64771   7.383   3.308   9.946  0.4892 -1.2699 -0.8956
  480MOL0     H64772   7.157   3.119   9.922 -0.0844 -1.0877  0.6523
  480MOL0     H64773   7.253   3.146  10.066 -1.6589  0.4532  0.3225
  480MOL0     H64774   7.168   3.382  10.072 -0.3564 -1.1220  1.4977
  480MOL0     H64775   7.046   3.260  10.110  0.1953 -0.6265 -0.2613
  480MOL0     H64776   6.970   3.449   9.976  3.8021  1.6318 -0.2381
  480MOL0     H64777   7.047   3.396   9.833 -0.9852  2.5107  0.2373
  480MOL0     H64778   6.847   3.231   9.977 -1.3673  3.3654  0.0674
  480MOL0     H64779   6.958   3.170   9.851 -1.7641 -1.2034 -1.7889
  480MOL0     H64780   6.739   3.237   9.757 -0.4616 -0.2359  0.7901
  480MOL0     H64781   6.857   3.353   9.696  2.8594  0.3207  1.3140
  480MOL0     H64782   7.737   3.281   9.608  1.6384  2.0045 -0.0056
  480MOL0     H64783   7.890   3.406   9.462  1.0326 -1.3099  1.4431
  480MOL0     H64784   7.787   3.620   9.060 -1.9026  2.0512  0.1457
  480MOL0     H64785   7.867   3.715   8.824 -2.0874  0.4977  0.8792
  480MOL0     H64786   8.889   4.892   7.695 -1.3419 -1.0094 -1.5924
  480MOL0     H64787   9.052   5.047   7.649 -3.4736 -0.7408  1.3207
  480MOL0     H64788   9.561   5.041   7.264  3.3716  1.2744 -1.6066
  480MOL0     H64789   9.740   5.211   7.269 -0.4207  2.9588 -1.4849
  480MOL0     H64790   9.890   5.353   7.289  0.2942  0.4379 -1.0901
  480MOL0     H64791   9.759   5.473   7.319 -1.2780 -0.8363  1.9392
  480MOL0     H64792   9.905   5.611   7.416 -1.2684  0.3206 -0.2631
  480MOL0     H64793   9.981   5.572   7.266 -1.3674  2.7060  0.6399
  480MOL0     H64794  10.052   5.410   7.522 -0.9153 -0.4398  0.0810
  480MOL0     H64795  10.134   5.557   7.486 -2.2582  0.3655  0.8365
  480MOL0     H64796  10.111   5.331   7.282 -0.6018 -0.3910  1.1880
  480MOL0     H64797  10.247   5.347   7.401 -0.5852 -2.5741 -1.1778
  480MOL0     H64798  10.402   5.558   7.094 -1.3565 -3.1561 -2.4663
  480MOL0     H64799   9.656   5.319   7.669 -0.0707 -0.7571 -0.7272
  480MOL0     H64800   9.471   5.169   7.683  2.9837  1.5079  2.0816
  481MOL0     O64801   8.597   9.903   2.328 -0.6021  0.4729 -0.7248
  481MOL0     C64802   8.674   9.989   2.369  0.4196 -0.3832  0.3767
  481MOL0     O64803   8.778   9.972   2.452 -0.5771  1.2349 -0.0088
  481MOL0     C64804   8.834   9.846   2.473 -0.5189  0.7985  0.7392
  481MOL0     C64805   8.750   9.745   2.519 -0.0605 -0.6206  0.2852
  481MOL0     C64806   8.803   9.617   2.532 -0.5332 -0.1804 -0.1730
  481MOL0     C64807   8.937   9.585   2.513  0.2152  1.0065 -0.1780
  481MOL0     O64808   8.976   9.448   2.510  0.4248  0.2135  0.8848
  481MOL0     C64809   8.901   9.354   2.580 -0.3599 -0.3703  1.2382
  481MOL0     C64810   8.998   9.236   2.616 -0.8125 -0.6310 -0.2858
  481MOL0     C64811   9.081   9.265   2.741  0.4086  0.2964 -0.0254
  481MOL0     C64812   9.180   9.149   2.770  0.5251  0.1434  0.5182
  481MOL0     C64813   9.285   9.225   2.861  0.4138 -0.6265 -0.2143
  481MOL0     C64814   9.394   9.129   2.902 -0.1449  0.1466 -0.7148
  481MOL0     C64815   9.493   9.197   2.990  0.3000 -0.0153  0.1422
  481MOL0     C64816   9.630   9.114   3.023 -0.3460 -1.1477 -1.0990
  481MOL0     N64817   9.691   9.178   3.137 -0.0778 -0.3104 -1.0027
  481MOL0     C64818   9.683   9.143   3.272  0.8520 -0.1363 -0.6280
  481MOL0     C64819   9.765   9.241   3.337  0.2601 -1.0213  0.4883
  481MOL0     C64820   9.782   9.268   3.489  1.0405 -1.0435 -0.2640
  481MOL0     C64821   9.777   9.414   3.539 -0.2012  0.3004  1.4444
  481MOL0     C64822   9.807   9.431   3.687  0.1642  0.0867 -0.2057
  481MOL0     C64823   9.857   9.579   3.722 -0.6081 -0.4494 -0.3033
  481MOL0     O64824   9.803   9.676   3.633 -0.5500 -0.6647  0.6806
  481MOL0     C64825   9.678   9.735   3.667  1.2279 -0.3152 -0.1984
  481MOL0     C64826   9.602   9.732   3.789 -0.1281  0.8815  0.3167
  481MOL0     C64827   9.469   9.780   3.806 -0.1648 -0.1517 -0.5653
  481MOL0     C64828   9.406   9.763   3.942  0.8032  0.2743 -0.0412
  481MOL0     C64829   9.405   9.839   3.693  0.1385 -0.2036 -0.4016
  481MOL0     C64830   9.260   9.884   3.683 -0.1609 -0.2504 -0.0649
  481MOL0     O64831   9.238   9.955   3.564  0.2245  0.2254 -0.4664
  481MOL0     C64832   9.104   9.963   3.524  0.5421 -0.1026  0.3371
  481MOL0     C64833   9.049  10.090   3.526  0.0279 -0.2118 -0.0075
  481MOL0     C64834   8.916  10.106   3.496  0.4170  0.6566 -0.0085
  481MOL0     C64835   8.845   9.993   3.447  0.3225 -0.3530  0.2788
  481MOL0     O64836   8.713  10.025   3.417  0.0458  0.1491  0.4613
  481MOL0     C64837   8.648   9.931   3.320 -0.1903  0.6075 -0.5230
  481MOL0     C64838   8.530   9.999   3.242 -0.6260  0.4010 -0.2290
  481MOL0     C64839   8.399   9.995   3.323  0.0299 -0.5720 -0.0643
  481MOL0     C64840   8.414  10.103   3.444 -0.1353 -0.4258  0.1310
  481MOL0     C64841   8.282  10.109   3.525  0.2560  0.4239 -0.2296
  481MOL0     C64842   8.168  10.172   3.438  0.7011  0.3712  0.6002
  481MOL0     C64843   8.045  10.223   3.518 -0.0890  0.6141 -0.3742
  481MOL0     C64844   7.934  10.273   3.425  0.1298 -0.0926  0.4767
  481MOL0    Cl64845   7.853  10.136   3.347  0.3147 -0.9171 -0.0980
  481MOL0     C64846   8.907   9.865   3.426 -0.0619  0.4825 -0.0841
  481MOL0     C64847   9.041   9.850   3.469  0.3206  0.4957  0.9157
  481MOL0     O64848   9.169   9.841   3.755 -0.5510  0.8088  0.2583
  481MOL0     C64849   9.486   9.849   3.577  0.9566  0.0448  0.2228
  481MOL0     C64850   9.612   9.795   3.560  0.4227  0.2648 -0.4715
  481MOL0     N64851   9.817   9.326   3.242 -0.7259 -0.2203 -0.9094
  481MOL0     N64852   9.774   9.286   3.130 -0.5731  0.5361 -0.7320
  481MOL0     C64853   9.024   9.688   2.464  0.1533 -0.7513 -0.0784
  481MOL0     C64854   8.971   9.820   2.452  0.0833  0.3404 -0.5924
  481MOL0     C64855   8.659  10.123   2.299 -0.0469 -0.8601  0.3884
  481MOL0     C64856   8.556  10.152   2.214 -0.1765  0.9247  0.5180
  481MOL0     C64857   8.521  10.284   2.181 -0.2199  0.2267  0.3819
  481MOL0     C64858   8.595  10.390   2.226 -0.0105 -0.3685  0.3246
  481MOL0     O64859   8.568  10.520   2.188 -0.2837  0.3255 -0.5139
  481MOL0     C64860   8.509  10.607   2.285  0.1704  0.0888 -0.8389
  481MOL0     C64861   8.583  10.743   2.293  0.8217  0.3147 -0.1251
  481MOL0     C64862   8.583  10.810   2.153  0.1860 -0.2464 -0.2356
  481MOL0     C64863   8.576  10.965   2.148  0.0694  0.4889  0.4065
  481MOL0     C64864   8.657  11.045   2.243  0.2062  0.5081 -0.9710
  481MOL0     C64865   8.726  11.106   2.324 -0.0003  0.6180  0.1303
  481MOL0     C64866   8.707  10.358   2.305  0.9401 -0.2118 -0.6798
  481MOL0     C64867   8.737  10.228   2.339 -0.8762  0.0524  0.2366
  481MOL0     H64868   8.646   9.768   2.543  0.9813  3.1391  1.8725
  481MOL0     H64869   8.732   9.537   2.550  0.7118 -0.9716  1.4133
  481MOL0     H64870   8.857   9.385   2.676 -1.7820  0.1345  0.4471
  481MOL0     H64871   8.824   9.308   2.518  0.4323 -1.7919  1.2520
  481MOL0     H64872   8.930   9.152   2.634 -0.9291 -0.0049  2.7355
  481MOL0     H64873   9.055   9.217   2.525  0.2671  2.9914 -0.5299
  481MOL0     H64874   9.134   9.360   2.729 -1.6431  1.7957  1.8150
  481MOL0     H64875   9.013   9.263   2.827  1.5524 -1.3405  0.8905
  481MOL0     H64876   9.121   9.069   2.815  2.9267 -1.8658  0.3309
  481MOL0     H64877   9.222   9.109   2.677 -1.0248 -2.4962  0.8618
  481MOL0     H64878   9.330   9.310   2.810  1.5851 -0.4580  1.0425
  481MOL0     H64879   9.229   9.262   2.947 -1.8987 -2.6644 -0.7244
  481MOL0     H64880   9.346   9.048   2.958  0.6955  0.4976  0.5494
  481MOL0     H64881   9.448   9.100   2.812  1.1031 -0.6199  0.2573
  481MOL0     H64882   9.527   9.292   2.948 -0.3060  0.7040  1.2578
  481MOL0     H64883   9.458   9.239   3.084  1.5961  3.3454 -0.7385
  481MOL0     H64884   9.700   9.113   2.939  1.7449  1.4052  0.4645
  481MOL0     H64885   9.616   9.007   3.044 -0.4503 -0.6799  1.6821
  481MOL0     H64886   9.620   9.061   3.304 -2.5707  2.4777 -0.1116
  481MOL0     H64887   9.714   9.202   3.544  1.1496 -1.1084 -0.2054
  481MOL0     H64888   9.881   9.232   3.518  1.0278  0.8267  2.5434
  481MOL0     H64889   9.680   9.461   3.519 -0.2671 -0.7201 -1.0272
  481MOL0     H64890   9.844   9.478   3.480 -0.7166 -0.4823 -0.0405
  481MOL0     H64891   9.882   9.361   3.725 -0.8375 -1.5330 -1.0840
  481MOL0     H64892   9.709   9.421   3.733  0.1710 -0.0189 -0.2127
  481MOL0     H64893   9.966   9.574   3.713 -0.5833  0.1845 -0.3931
  481MOL0     H64894   9.838   9.599   3.828 -2.1339 -2.5265 -0.1257
  481MOL0     H64895   9.648   9.684   3.875  0.4477  1.5666  0.3928
  481MOL0     H64896   9.467   9.706   4.011 -1.6446 -0.6863  1.4571
  481MOL0     H64897   9.383   9.864   3.979 -2.7700 -0.2651 -0.3784
  481MOL0     H64898   9.310   9.710   3.934 -1.0284  3.4008 -0.7186
  481MOL0     H64899   9.111  10.172   3.563 -1.8655  0.7464  1.1883
  481MOL0     H64900   8.872  10.205   3.502 -0.6209  0.1996  0.1290
  481MOL0     H64901   8.724   9.914   3.243 -0.3064  2.6157 -1.1247
  481MOL0     H64902   8.625   9.836   3.368 -1.1381 -0.2194 -2.4982
  481MOL0     H64903   8.557  10.098   3.206  1.3357 -0.8416 -2.4004
  481MOL0     H64904   8.511   9.933   3.157  1.4948  0.8160 -1.0624
  481MOL0     H64905   8.363   9.898   3.359 -2.4740 -0.6187 -2.3738
  481MOL0     H64906   8.326  10.034   3.251 -0.9971  1.4511  1.9590
  481MOL0     H64907   8.497  10.062   3.503  2.2511  1.6608 -1.5383
  481MOL0     H64908   8.439  10.201   3.401  2.0385 -0.5006  1.0607
  481MOL0     H64909   8.301  10.179   3.607  3.6339 -0.1857 -0.3470
  481MOL0     H64910   8.245  10.013   3.563  0.1740  0.7464  0.5082
  481MOL0     H64911   8.215  10.260   3.392 -0.9289  0.1737 -1.5918
  481MOL0     H64912   8.146  10.102   3.357 -0.1109  2.4982 -1.1425
  481MOL0     H64913   8.094  10.297   3.583  0.7996  1.2039 -1.6863
  481MOL0     H64914   8.016  10.134   3.574  0.7119  0.8529  0.4633
  481MOL0     H64915   7.974  10.344   3.352  0.5863 -0.1140  0.7020
  481MOL0     H64916   7.859  10.326   3.484  0.3958  1.7291 -0.7231
  481MOL0     H64917   8.857   9.775   3.392  0.4978 -0.5723  1.7272
  481MOL0     H64918   9.106   9.765   3.455 -1.6128 -1.0225  0.8356
  481MOL0     H64919   9.447   9.890   3.484  1.1896  2.0142  0.9441
  481MOL0     H64920   9.663   9.825   3.468  1.4504  3.8979  1.0879
  481MOL0     H64921   9.130   9.679   2.443  1.1163  2.8558  2.2728
  481MOL0     H64922   9.023   9.903   2.405 -0.0790 -0.3029 -1.9807
  481MOL0     H64923   8.502  10.064   2.180 -2.9289  2.5767  0.2916
  481MOL0     H64924   8.447  10.293   2.103  1.9916 -3.6336 -2.5325
  481MOL0     H64925   8.410  10.634   2.249  1.1469  1.1113 -2.9457
  481MOL0     H64926   8.497  10.550   2.377 -0.5694 -1.1645 -1.6934
  481MOL0     H64927   8.686  10.727   2.324  2.0564  4.7813 -1.2233
  481MOL0     H64928   8.534  10.815   2.360 -0.4336 -0.1122 -0.5587
  481MOL0     H64929   8.492  10.781   2.098 -0.4474 -1.2382  1.2812
  481MOL0     H64930   8.664  10.770   2.091  0.3732  0.6660 -0.5897
  481MOL0     H64931   8.471  10.994   2.163  0.0944 -0.1106  1.8489
  481MOL0     H64932   8.601  10.986   2.043  1.6043 -2.4271  0.0891
  481MOL0     H64933   8.782  11.144   2.407 -0.7182  0.0020  0.9054
  481MOL0     H64934   8.777  10.434   2.340  0.6124  0.5055 -1.5539
  481MOL0     H64935   8.822  10.203   2.402  0.8396  0.9238 -1.6037
  482MOL0     O64936   4.818   0.592   9.667  0.3530  0.0153 -0.5702
  482MOL0     C64937   4.923   0.633   9.620  0.5040 -0.7432 -0.4236
  482MOL0     O64938   5.016   0.709   9.689  0.4124 -0.3216  0.5076
  482MOL0     C64939   5.004   0.751   9.819  0.0492 -0.5422  0.2200
  482MOL0     C64940   5.120   0.813   9.873  0.5929 -1.0839 -0.3464
  482MOL0     C64941   5.114   0.858  10.007 -0.4114 -0.2322  0.7052
  482MOL0     C64942   5.006   0.835  10.083  0.0247  0.3084 -0.1315
  482MOL0     O64943   5.019   0.871  10.211  0.0162  0.9600 -0.2156
  482MOL0     C64944   4.923   0.972  10.260  0.5987  0.2562 -0.5257
  482MOL0     C64945   4.886   0.917  10.400  0.5976  0.1523  0.1549
  482MOL0     C64946   4.791   0.799  10.386  0.5295  0.1723 -0.5645
  482MOL0     C64947   4.778   0.731  10.517 -0.1806  0.3181  0.7862
  482MOL0     C64948   4.667   0.619  10.513  0.7886  0.4475  0.3171
  482MOL0     C64949   4.721   0.494  10.446  0.2869 -0.1996  0.0601
  482MOL0     C64950   4.614   0.378  10.429  0.1704  0.0959  0.2163
  482MOL0     C64951   4.492   0.411  10.347 -0.1876 -0.2884  0.2440
  482MOL0     N64952   4.533   0.448  10.215  0.0841  0.3205  0.5910
  482MOL0     C64953   4.620   0.373  10.138  0.4398 -0.2153  0.1862
  482MOL0     C64954   4.622   0.443  10.018  0.1557  0.4853  0.2254
  482MOL0     C64955   4.706   0.415   9.896 -0.2166  0.4605  0.1691
  482MOL0     C64956   4.679   0.284   9.824  0.6227 -0.7592 -0.1961
  482MOL0     C64957   4.717   0.282   9.677 -0.4424  1.0441 -0.1550
  482MOL0     C64958   4.698   0.149   9.604 -0.3195 -0.1003  0.1679
  482MOL0     O64959   4.565   0.125   9.626 -0.2882 -0.9297 -0.2095
  482MOL0     C64960   4.543  -0.005   9.648  0.3247  0.2820 -0.8255
  482MOL0     C64961   4.620  -0.115   9.592 -0.6971  0.4030  0.4705
  482MOL0     C64962   4.596  -0.248   9.624  0.3651  0.6253  0.1179
  482MOL0     C64963   4.685  -0.362   9.568 -0.9791 -1.0008 -0.9524
  482MOL0     C64964   4.501  -0.278   9.719  0.7636  0.3988 -0.0584
  482MOL0     C64965   4.477  -0.409   9.794  0.6079  0.5009 -0.4904
  482MOL0     O64966   4.389  -0.406   9.892 -0.3417 -0.2277 -0.9335
  482MOL0     C64967   4.372  -0.512   9.979  0.0440 -0.7878 -0.4480
  482MOL0     C64968   4.332  -0.632   9.926 -0.0891 -0.3575  0.9131
  482MOL0     C64969   4.284  -0.732  10.011  0.4005  0.1857 -0.2479
  482MOL0     C64970   4.280  -0.713  10.151 -0.0886 -0.0888 -0.2664
  482MOL0     O64971   4.240  -0.802  10.244 -0.5953 -0.1807  0.0237
  482MOL0     C64972   4.139  -0.899  10.203 -0.2805 -0.1434  0.5620
  482MOL0     C64973   4.077  -0.958  10.334  0.0697  0.7059  1.0548
  482MOL0     C64974   3.978  -1.073  10.276 -0.3977  0.2469  0.0265
  482MOL0     C64975   3.938  -1.179  10.375 -0.6614  0.9498 -0.3278
  482MOL0     C64976   3.865  -1.293  10.314 -0.8896  0.3729 -0.4210
  482MOL0     C64977   3.829  -1.396  10.423  0.2902  0.5560 -1.3076
  482MOL0     C64978   3.769  -1.522  10.356 -0.4778 -0.6062 -0.4011
  482MOL0     C64979   3.734  -1.627  10.459  0.1177 -0.3975 -0.3676
  482MOL0    Cl64980   3.666  -1.757  10.359  0.3613  0.3838 -0.2706
  482MOL0     C64981   4.342  -0.596  10.200  0.7003  0.8854  0.8815
  482MOL0     C64982   4.387  -0.496  10.115 -0.2130 -0.1694 -0.2088
  482MOL0     O64983   4.548  -0.505   9.768 -0.2323 -0.2554  0.2713
  482MOL0     C64984   4.421  -0.169   9.766  0.1969 -0.4462  0.3371
  482MOL0     C64985   4.431  -0.037   9.722  0.0789  0.5079  0.3000
  482MOL0     N64986   4.536   0.548  10.023  0.0341 -0.0041 -0.3145
  482MOL0     N64987   4.484   0.556  10.139  0.6996 -0.0184 -0.0226
  482MOL0     C64988   4.885   0.773  10.032  0.0837 -0.2585  0.6453
  482MOL0     C64989   4.889   0.744   9.899  0.1986  0.5435  0.3754
  482MOL0     C64990   4.965   0.602   9.478  0.0919 -0.7059 -0.0779
  482MOL0     C64991   4.892   0.520   9.391  0.3058 -0.1626  0.3422
  482MOL0     C64992   4.934   0.498   9.254  0.3555  0.4175 -0.4308
  482MOL0     C64993   5.038   0.568   9.201 -0.7412 -0.0498  0.0904
  482MOL0     O64994   5.060   0.537   9.066 -0.0256  0.6828  0.5642
  482MOL0     C64995   5.183   0.560   9.015 -0.5361  0.6966  1.0521
  482MOL0     C64996   5.197   0.476   8.889 -0.1547  0.4430 -0.2017
  482MOL0     C64997   5.081   0.508   8.797 -0.0665 -1.1228  0.1074
  482MOL0     C64998   5.104   0.433   8.670 -0.3754  0.0878  0.7199
  482MOL0     C64999   5.193   0.507   8.576  0.2531 -0.3363 -0.1692
  482MOL0     C65000   5.285   0.575   8.529 -0.7532  0.6941  0.3158
  482MOL0     C65001   5.119   0.647   9.285 -0.5643  0.1776 -0.6526
  482MOL0     C65002   5.083   0.659   9.421  0.3400 -0.0740 -0.3899
  482MOL0     H65003   5.201   0.832   9.802 -1.9507  0.5043 -3.0709
  482MOL0     H65004   5.200   0.917  10.038 -0.3553 -1.3236  2.7970
  482MOL0     H65005   4.977   1.067  10.267 -0.8074  0.9730  2.7542
  482MOL0     H65006   4.829   0.985  10.206 -1.2278 -3.1710  1.4178
  482MOL0     H65007   4.975   0.881  10.453  1.0961 -0.2385 -0.9136
  482MOL0     H65008   4.829   0.995  10.451  0.8225  0.8482 -0.6366
  482MOL0     H65009   4.693   0.842  10.363 -0.7102 -0.4954  2.8870
  482MOL0     H65010   4.816   0.720  10.313  0.7583 -1.7359  1.4700
  482MOL0     H65011   4.875   0.695  10.554  0.0336  0.9243  0.8282
  482MOL0     H65012   4.749   0.803  10.594 -2.5879 -3.1519  3.4460
  482MOL0     H65013   4.632   0.591  10.612 -0.8147  1.2084 -0.0067
  482MOL0     H65014   4.584   0.656  10.452  1.6171 -1.0027 -1.8591
  482MOL0     H65015   4.764   0.512  10.347  0.7434 -1.0664  0.0914
  482MOL0     H65016   4.803   0.463  10.511  0.5216  2.9266  1.4461
  482MOL0     H65017   4.660   0.289  10.385  3.3660  1.2402  1.0216
  482MOL0     H65018   4.577   0.359  10.531  1.2021 -0.6775  0.4602
  482MOL0     H65019   4.435   0.496  10.387  0.6204 -0.5184  1.9745
  482MOL0     H65020   4.419   0.330  10.346  1.7710 -2.1486 -2.3501
  482MOL0     H65021   4.679   0.287  10.168  1.7344  0.0007 -1.6004
  482MOL0     H65022   4.688   0.491   9.820  0.8217  0.4924 -0.0617
  482MOL0     H65023   4.812   0.431   9.918 -0.0318  1.6770 -1.4851
  482MOL0     H65024   4.576   0.250   9.839 -0.8070  1.7345 -3.3197
  482MOL0     H65025   4.744   0.217   9.882 -1.1125 -2.6296 -0.2887
  482MOL0     H65026   4.824   0.300   9.665 -0.4181 -0.5039 -2.8988
  482MOL0     H65027   4.653   0.358   9.632 -3.1875 -0.0193  1.6910
  482MOL0     H65028   4.773   0.072   9.625  1.0819  1.1662 -0.0708
  482MOL0     H65029   4.704   0.175   9.498 -0.2883 -0.6038  0.0416
  482MOL0     H65030   4.702  -0.096   9.524 -1.2192  1.1010  0.0277
  482MOL0     H65031   4.752  -0.325   9.490 -1.7458 -3.4162 -2.8905
  482MOL0     H65032   4.754  -0.405   9.641 -2.6679 -1.7645  0.2609
  482MOL0     H65033   4.624  -0.445   9.529 -2.3315 -1.5124  1.9891
  482MOL0     H65034   4.332  -0.655   9.820  1.1568 -0.3626  0.9014
  482MOL0     H65035   4.250  -0.828   9.973 -1.0047  0.0482  1.2602
  482MOL0     H65036   4.062  -0.841  10.152  0.7702  3.4353  2.6628
  482MOL0     H65037   4.169  -0.970  10.126 -1.2640  0.2985 -0.2511
  482MOL0     H65038   4.164  -0.998  10.388  2.1027  1.4588 -1.4305
  482MOL0     H65039   4.024  -0.887  10.398 -0.5528  1.1262  0.1019
  482MOL0     H65040   4.039  -1.117  10.196  0.8822  2.9387 -0.5877
  482MOL0     H65041   3.885  -1.031  10.235 -1.5577 -0.2090  2.0709
  482MOL0     H65042   4.032  -1.215  10.417 -0.4958  1.2373 -0.4441
  482MOL0     H65043   3.885  -1.136  10.460 -0.4690  0.4178  0.0617
  482MOL0     H65044   3.935  -1.328  10.237 -1.1051  0.8939 -0.8536
  482MOL0     H65045   3.771  -1.258  10.271 -1.6518 -0.5383  0.4391
  482MOL0     H65046   3.911  -1.427  10.489 -1.1624 -1.0245 -0.1356
  482MOL0     H65047   3.749  -1.356  10.485  1.4128  0.6508  0.1510
  482MOL0     H65048   3.856  -1.570  10.308  0.2371 -0.9757  1.2098
  482MOL0     H65049   3.690  -1.493  10.286  0.9796  0.6227 -1.6258
  482MOL0     H65050   3.659  -1.590  10.530  0.5270  0.0446 -0.1567
  482MOL0     H65051   3.827  -1.647  10.512  0.2340  2.3258  0.6357
  482MOL0     H65052   4.346  -0.587  10.308  1.8209 -3.8229  1.4544
  482MOL0     H65053   4.440  -0.409  10.151  0.6496 -1.1068  0.8704
  482MOL0     H65054   4.350  -0.182   9.848  1.5438 -0.7595  1.4952
  482MOL0     H65055   4.371   0.044   9.764  1.2442  0.8737  1.3124
  482MOL0     H65056   4.793   0.752  10.086 -2.1525  1.8386 -2.0219
  482MOL0     H65057   4.794   0.704   9.867 -0.0167  1.2331  0.1325
  482MOL0     H65058   4.799   0.464   9.401  0.2604 -0.3190 -0.7798
  482MOL0     H65059   4.869   0.445   9.186 -3.0022  1.7267  1.5180
  482MOL0     H65060   5.209   0.663   8.990 -0.5630 -0.3693 -4.8166
  482MOL0     H65061   5.261   0.520   9.080  0.0580 -0.2792 -0.2378
  482MOL0     H65062   5.173   0.374   8.920  0.6011  1.0747  2.7675
  482MOL0     H65063   5.297   0.472   8.847  0.2464  2.9732  0.3131
  482MOL0     H65064   5.072   0.615   8.777 -2.9189 -1.3039  0.0395
  482MOL0     H65065   4.990   0.473   8.847  0.1643 -4.8178 -1.7133
  482MOL0     H65066   5.013   0.425   8.611  2.2304  0.6814 -3.8303
  482MOL0     H65067   5.132   0.329   8.690 -2.1391 -0.1374  2.3296
  482MOL0     H65068   5.368   0.618   8.475 -0.3715 -2.2094 -1.6182
  482MOL0     H65069   5.206   0.700   9.247  0.6823 -1.2712  0.1092
  482MOL0     H65070   5.161   0.710   9.477  0.7714 -1.7247  0.5673
  483MOL0     O65071   2.157   4.106   2.052 -0.6074  0.2974  0.4325
  483MOL0     C65072   2.040   4.096   2.082 -0.1535 -0.3615  0.4980
  483MOL0     O65073   1.951   4.194   2.061 -0.3652  0.0643  0.4145
  483MOL0     C65074   1.989   4.289   1.959 -0.1991  0.5253  0.3294
  483MOL0     C65075   1.981   4.249   1.825 -0.4942 -0.0042  0.4659
  483MOL0     C65076   2.013   4.347   1.722 -0.4405 -0.0485 -0.2196
  483MOL0     C65077   2.051   4.479   1.755 -0.0487  0.3559 -0.7219
  483MOL0     O65078   2.088   4.583   1.674  0.2678  0.3600  0.0879
  483MOL0     C65079   2.013   4.581   1.557  0.9214  1.4404  0.4530
  483MOL0     C65080   2.043   4.722   1.490  1.6427 -0.1970 -0.3360
  483MOL0     C65081   1.967   4.717   1.357 -0.2041 -0.1399  0.6127
  483MOL0     C65082   2.041   4.671   1.231  0.6698  0.2129 -0.3145
  483MOL0     C65083   1.954   4.693   1.112  0.6399  0.2059 -0.3524
  483MOL0     C65084   1.834   4.598   1.101  0.0696  0.4687  0.2247
  483MOL0     C65085   1.766   4.578   0.972 -0.9267 -0.2201 -0.2923
  483MOL0     C65086   1.628   4.512   0.980 -0.9811 -0.1408 -0.1071
  483MOL0     N65087   1.511   4.609   0.995 -0.5434  0.0774  0.0493
  483MOL0     C65088   1.460   4.691   0.903  0.1859 -1.1574 -0.1440
  483MOL0     C65089   1.363   4.756   0.962 -0.0818 -0.0824  0.9047
  483MOL0     C65090   1.273   4.845   0.878  0.2765  0.1663 -0.1315
  483MOL0     C65091   1.130   4.787   0.895  0.1997 -0.4546  0.1762
  483MOL0     C65092   1.031   4.863   0.810  0.6593 -0.2228  0.4079
  483MOL0     C65093   0.887   4.839   0.844 -0.2713  0.0174 -0.3126
  483MOL0     O65094   0.807   4.890   0.743 -0.2857  0.4765 -0.2619
  483MOL0     C65095   0.683   4.955   0.758  0.4559 -0.3918  0.0043
  483MOL0     C65096   0.621   4.983   0.868  0.4965  0.4452  0.2757
  483MOL0     C65097   0.502   5.052   0.881  0.2589 -0.0146 -0.2513
  483MOL0     C65098   0.457   5.084   1.017  0.2817  0.0595 -0.9977
  483MOL0     C65099   0.433   5.087   0.766  0.7655 -0.7581  0.2318
  483MOL0     C65100   0.312   5.183   0.769  0.4724 -0.7114  0.4270
  483MOL0     O65101   0.298   5.243   0.652  0.2298  0.2857  0.4536
  483MOL0     C65102   0.184   5.314   0.614  0.2293  0.6641 -0.2242
  483MOL0     C65103   0.186   5.450   0.602 -0.4757 -0.4139  0.0748
  483MOL0     C65104   0.080   5.518   0.542 -0.4507 -0.4543 -0.6113
  483MOL0     C65105  -0.033   5.444   0.503  0.1940  0.9066  0.1005
  483MOL0     O65106  -0.144   5.507   0.446  0.0888 -0.2751  0.2319
  483MOL0     C65107  -0.115   5.635   0.379 -0.0105  0.7804 -0.0474
  483MOL0     C65108  -0.203   5.645   0.260  0.2817  0.7411 -0.6055
  483MOL0     C65109  -0.176   5.750   0.157 -0.3405 -0.9355  0.7378
  483MOL0     C65110  -0.164   5.891   0.223 -0.7839  0.3237 -0.6397
  483MOL0     C65111  -0.308   5.928   0.283  0.4313 -0.4229 -0.0463
  483MOL0     C65112  -0.313   6.077   0.304  1.1935  0.4341  0.0866
  483MOL0     C65113  -0.444   6.134   0.372  0.5383  0.3091 -0.0598
  483MOL0     C65114  -0.461   6.076   0.519  0.6736 -0.2266 -0.2303
  483MOL0    Cl65115  -0.621   6.134   0.584  0.1475 -0.4687 -0.0583
  483MOL0     C65116  -0.044   5.309   0.533 -0.2997 -0.2368 -0.5202
  483MOL0     C65117   0.062   5.247   0.593  0.3747 -0.5914 -0.4076
  483MOL0     O65118   0.236   5.201   0.866  0.2646  0.7291  0.2181
  483MOL0     C65119   0.499   5.062   0.645  0.7619 -0.1370 -0.2089
  483MOL0     C65120   0.626   5.004   0.646  1.0303 -0.6522  0.0895
  483MOL0     N65121   1.348   4.714   1.095  0.9181  0.0216 -0.0296
  483MOL0     N65122   1.437   4.630   1.106 -0.3951 -0.9548  0.6619
  483MOL0     C65123   2.059   4.509   1.893  0.1254  0.2105 -0.7353
  483MOL0     C65124   2.023   4.419   1.992 -0.2595  0.5967  1.1025
  483MOL0     C65125   2.001   3.970   2.138  0.1560 -0.7356 -0.4113
  483MOL0     C65126   2.093   3.885   2.196  0.4164  1.5136  1.0188
  483MOL0     C65127   2.064   3.755   2.242  1.0464  0.2660 -0.2787
  483MOL0     C65128   1.929   3.709   2.227 -0.0511 -0.1433  0.1871
  483MOL0     O65129   1.884   3.590   2.266  0.6526  0.6649  0.3662
  483MOL0     C65130   1.963   3.484   2.312  0.1435  0.5836 -0.3275
  483MOL0     C65131   1.921   3.430   2.446 -0.4142  0.9502 -0.5876
  483MOL0     C65132   1.903   3.531   2.559 -0.3146 -0.2487 -0.4780
  483MOL0     C65133   2.043   3.560   2.629 -0.4401  0.0377 -0.1358
  483MOL0     C65134   2.071   3.452   2.729  0.2204 -0.9721  0.7177
  483MOL0     C65135   2.105   3.372   2.813 -0.5634 -0.2111  0.3211
  483MOL0     C65136   1.834   3.804   2.179 -0.4992  0.3732 -0.2744
  483MOL0     C65137   1.874   3.922   2.131  0.6248  0.1045  0.8331
  483MOL0     H65138   1.946   4.147   1.810 -0.1212  0.1774 -2.1831
  483MOL0     H65139   1.988   4.311   1.623 -1.1987 -0.0684 -0.0315
  483MOL0     H65140   2.034   4.494   1.495 -0.6225  0.2155  1.5697
  483MOL0     H65141   1.905   4.580   1.573  1.0296  3.1651  1.6556
  483MOL0     H65142   1.995   4.799   1.552 -0.5078 -0.8748 -1.0599
  483MOL0     H65143   2.149   4.747   1.477  1.3226  1.0896 -0.6312
  483MOL0     H65144   1.886   4.644   1.370 -1.6488  1.2478 -0.2649
  483MOL0     H65145   1.929   4.818   1.344  0.4497  0.4327  2.7258
  483MOL0     H65146   2.137   4.721   1.217  1.0940 -0.6958 -0.7345
  483MOL0     H65147   2.068   4.565   1.241  0.6154 -0.0052 -2.1205
  483MOL0     H65148   1.921   4.795   1.093  0.9125  0.0795 -1.5804
  483MOL0     H65149   2.025   4.675   1.031 -0.9999 -0.9528 -1.6004
  483MOL0     H65150   1.857   4.495   1.128 -1.9505 -0.7051 -2.1499
  483MOL0     H65151   1.759   4.633   1.172 -2.3724 -2.2889 -0.8052
  483MOL0     H65152   1.750   4.679   0.934 -0.9074  1.8161  4.4495
  483MOL0     H65153   1.835   4.525   0.906  1.1618  1.1889  0.6585
  483MOL0     H65154   1.638   4.453   1.071 -0.3956 -0.5926 -0.4573
  483MOL0     H65155   1.605   4.453   0.890 -1.8059 -0.6920  0.4527
  483MOL0     H65156   1.499   4.708   0.803  1.7922  0.4780  0.6985
  483MOL0     H65157   1.278   4.949   0.914  1.2740 -0.4384  1.6071
  483MOL0     H65158   1.301   4.846   0.772  0.4070 -1.6812 -0.1389
  483MOL0     H65159   1.124   4.799   1.003 -0.9101  1.9440 -0.1020
  483MOL0     H65160   1.132   4.682   0.864  2.3017 -0.2943 -0.3633
  483MOL0     H65161   1.050   4.838   0.705  1.6958 -2.0831  0.9991
  483MOL0     H65162   1.061   4.968   0.818 -0.1770 -0.0949  2.5415
  483MOL0     H65163   0.856   4.877   0.941 -1.4932  0.6486 -0.9156
  483MOL0     H65164   0.878   4.730   0.842  0.5022 -0.0595  0.2384
  483MOL0     H65165   0.665   4.962   0.965 -0.2390 -2.7970  0.0024
  483MOL0     H65166   0.445   5.190   1.038  1.0849  0.3098 -1.7155
  483MOL0     H65167   0.364   5.027   1.023  0.5973 -0.4034 -0.3193
  483MOL0     H65168   0.519   5.046   1.099 -2.5071 -1.7072  0.4653
  483MOL0     H65169   0.276   5.505   0.630  0.7319 -1.8463 -0.8516
  483MOL0     H65170   0.070   5.626   0.548 -1.9505 -0.5823 -0.6086
  483MOL0     H65171  -0.134   5.716   0.450 -1.5496 -1.5667  2.4212
  483MOL0     H65172  -0.012   5.637   0.343 -0.1427 -1.7075 -0.7351
  483MOL0     H65173  -0.217   5.548   0.212 -0.5177 -2.0356  4.5454
  483MOL0     H65174  -0.301   5.667   0.303  0.4605  4.7463 -1.8195
  483MOL0     H65175  -0.264   5.746   0.093 -2.5718  0.0965  3.5097
  483MOL0     H65176  -0.086   5.742   0.095 -1.6529 -2.0122 -1.1351
  483MOL0     H65177  -0.076   5.920   0.280 -0.0322  1.6086 -2.3821
  483MOL0     H65178  -0.150   5.960   0.139 -1.8481  2.0037  0.4855
  483MOL0     H65179  -0.323   5.891   0.385 -1.5323 -0.3094 -0.2625
  483MOL0     H65180  -0.394   5.900   0.222  0.6145  0.3587 -0.6774
  483MOL0     H65181  -0.233   6.108   0.372  0.0066  2.1838  0.7585
  483MOL0     H65182  -0.288   6.129   0.210 -0.6384  1.5134  0.1527
  483MOL0     H65183  -0.532   6.110   0.311  0.9817  1.2100 -1.0707
  483MOL0     H65184  -0.439   6.243   0.369  0.7525  0.2882 -0.4993
  483MOL0     H65185  -0.395   6.104   0.601 -0.1287 -2.2391  1.1939
  483MOL0     H65186  -0.452   5.968   0.535  1.1661 -0.0177  0.9936
  483MOL0     H65187  -0.136   5.255   0.513 -2.8805  3.1480  1.1469
  483MOL0     H65188   0.062   5.139   0.609  0.1197 -0.6872 -1.0132
  483MOL0     H65189   0.454   5.084   0.549 -0.4377 -0.6806  0.2120
  483MOL0     H65190   0.674   4.988   0.550 -0.3409 -3.9839 -0.1855
  483MOL0     H65191   2.086   4.610   1.923 -2.9006  0.9615 -0.2128
  483MOL0     H65192   2.014   4.465   2.090  1.8269  1.6183  0.8623
  483MOL0     H65193   2.196   3.914   2.216  0.4178  1.0276  1.7576
  483MOL0     H65194   2.146   3.692   2.275 -0.2645 -0.5707  1.6012
  483MOL0     H65195   1.963   3.407   2.235 -0.2613  0.8304 -0.5813
  483MOL0     H65196   2.068   3.510   2.330  0.2992  0.7211 -1.3645
  483MOL0     H65197   1.983   3.342   2.469 -0.7150  0.4870 -1.5165
  483MOL0     H65198   1.822   3.387   2.426 -0.6427  1.5268 -0.6918
  483MOL0     H65199   1.836   3.497   2.638  0.7637  2.0969  1.5681
  483MOL0     H65200   1.864   3.630   2.538  2.2510  2.0818  4.1936
  483MOL0     H65201   2.034   3.655   2.682 -1.9642 -0.1841  0.0693
  483MOL0     H65202   2.124   3.562   2.556  0.2811  1.1674  0.6725
  483MOL0     H65203   2.134   3.294   2.881 -1.8836  1.3074  2.7524
  483MOL0     H65204   1.733   3.768   2.159 -0.1626 -1.0201  0.3952
  483MOL0     H65205   1.798   3.982   2.081  0.1171 -1.5733 -0.5385
  484MOL0     O65206  10.026   2.819   4.616  0.0744 -0.9055  0.5606
  484MOL0     C65207   9.961   2.902   4.684 -0.2486 -0.1386  0.1544
  484MOL0     O65208   9.825   2.908   4.696 -0.5221 -0.0396 -0.4732
  484MOL0     C65209   9.745   2.841   4.613  0.3955  0.2733  0.4144
  484MOL0     C65210   9.748   2.869   4.473 -0.2906  0.9436  1.0772
  484MOL0     C65211   9.654   2.837   4.391  0.5936  0.4693 -0.2954
  484MOL0     C65212   9.539   2.767   4.438 -0.8263  0.2556  0.0847
  484MOL0     O65213   9.442   2.731   4.360  0.1367 -0.0293  0.1067
  484MOL0     C65214   9.485   2.664   4.239  0.1712  0.2245 -0.0120
  484MOL0     C65215   9.463   2.755   4.113  0.5725 -1.3085 -0.6117
  484MOL0     C65216   9.318   2.799   4.087 -0.7546 -0.1092  0.0701
  484MOL0     C65217   9.291   2.835   3.940  0.0035 -0.9701 -0.6510
  484MOL0     C65218   9.145   2.820   3.894 -0.4563  0.1236 -0.1181
  484MOL0     C65219   9.072   2.954   3.896 -0.5476 -0.0761 -0.1831
  484MOL0     C65220   8.916   2.943   3.879  0.0656  0.4569 -0.3653
  484MOL0     C65221   8.895   2.968   3.728  0.0160  0.5965 -0.6559
  484MOL0     N65222   8.755   2.982   3.689  0.4404  0.7596 -0.0081
  484MOL0     C65223   8.666   2.886   3.650  0.4846 -0.6609 -0.3021
  484MOL0     C65224   8.545   2.951   3.639  0.3768 -0.3958  0.0636
  484MOL0     C65225   8.420   2.896   3.582  0.5350  0.7888 -0.5063
  484MOL0     C65226   8.422   2.886   3.428  0.1890  0.1566 -0.9287
  484MOL0     C65227   8.283   2.879   3.380  0.5557 -0.0304  0.5182
  484MOL0     C65228   8.286   2.836   3.228  1.1326  0.0348 -0.1419
  484MOL0     O65229   8.158   2.777   3.204 -0.1148  0.9247  0.0429
  484MOL0     C65230   8.107   2.813   3.074 -0.5237  1.1457 -0.9705
  484MOL0     C65231   8.186   2.846   2.962  0.3799 -0.3801 -0.0431
  484MOL0     C65232   8.140   2.895   2.843 -0.3879 -1.1024  0.9010
  484MOL0     C65233   8.238   2.957   2.738 -0.1995  0.4938 -0.8412
  484MOL0     C65234   7.996   2.900   2.823 -0.0369 -0.0902  0.8246
  484MOL0     C65235   7.932   2.933   2.695  0.6245  0.3163 -0.2469
  484MOL0     O65236   7.810   3.000   2.704 -0.3313  0.1373  0.4037
  484MOL0     C65237   7.767   3.055   2.589 -0.2220  0.0481  0.0940
  484MOL0     C65238   7.768   3.195   2.556 -0.6178  0.4918  0.1020
  484MOL0     C65239   7.696   3.245   2.449  0.0092 -1.1451 -0.9353
  484MOL0     C65240   7.624   3.161   2.366 -0.0539 -0.9204  0.2021
  484MOL0     O65241   7.564   3.210   2.252  0.2535 -0.0180 -0.4909
  484MOL0     C65242   7.422   3.182   2.245 -0.0901 -0.2003  0.3176
  484MOL0     C65243   7.365   3.269   2.139 -0.4303  0.0521 -0.4760
  484MOL0     C65244   7.231   3.227   2.083 -0.1067 -0.5398  0.1268
  484MOL0     C65245   7.119   3.297   2.168 -0.1442  0.7269 -0.8441
  484MOL0     C65246   6.976   3.238   2.140  0.7526  0.1630  0.7668
  484MOL0     C65247   6.907   3.335   2.030  0.2881  0.3102 -0.7309
  484MOL0     C65248   6.751   3.283   2.017 -0.1588  0.2657 -0.2240
  484MOL0     C65249   6.664   3.358   2.117  0.0602 -0.1397  0.4048
  484MOL0    Cl65250   6.651   3.536   2.049  0.3910 -0.0801 -0.2903
  484MOL0     C65251   7.628   3.022   2.392 -0.5829 -0.1374 -0.2253
  484MOL0     C65252   7.695   2.972   2.506  0.9087 -0.1698 -0.4609
  484MOL0     O65253   7.997   2.910   2.588  0.5366  0.4504 -0.3413
  484MOL0     C65254   7.915   2.866   2.931 -0.6816  0.6154  0.2738
  484MOL0     C65255   7.968   2.821   3.056 -0.5081 -0.3713 -0.6092
  484MOL0     N65256   8.565   3.088   3.681 -0.5284  0.5129  0.6969
  484MOL0     N65257   8.690   3.104   3.700 -0.3677  0.8270  0.1257
  484MOL0     C65258   9.523   2.740   4.575  0.6431  0.4649  0.6092
  484MOL0     C65259   9.624   2.786   4.663 -0.3657 -0.5115 -0.0743
  484MOL0     C65260  10.039   2.992   4.773  0.2535  0.8506  0.3164
  484MOL0     C65261   9.972   3.070   4.865 -0.1769 -0.9238  0.2041
  484MOL0     C65262  10.041   3.153   4.955  0.5685 -0.1075 -0.8859
  484MOL0     C65263  10.178   3.148   4.962 -0.1911 -0.0243 -0.6406
  484MOL0     O65264  10.244   3.224   5.059 -0.3191 -0.6589 -0.5786
  484MOL0     C65265  10.356   3.178   5.132 -0.1091 -0.0759 -1.3985
  484MOL0     C65266  10.497   3.187   5.069  0.0391  0.3981 -0.2950
  484MOL0     C65267  10.525   3.323   5.000 -0.0670  0.2092 -0.2176
  484MOL0     C65268  10.651   3.319   4.911  0.1440  0.6037 -0.1374
  484MOL0     C65269  10.776   3.334   4.995  0.7820 -0.8767  0.4616
  484MOL0     C65270  10.884   3.324   5.050  0.0408 -0.3620  1.0989
  484MOL0     C65271  10.244   3.073   4.870  0.3144  1.0321 -0.0043
  484MOL0     C65272  10.176   2.995   4.768 -0.8368  0.0737 -0.3110
  484MOL0     H65273   9.837   2.928   4.450  2.1661 -3.0830 -0.8549
  484MOL0     H65274   9.684   2.855   4.288  0.8752 -1.1094 -0.5101
  484MOL0     H65275   9.584   2.619   4.237  0.8196  1.5271  1.0731
  484MOL0     H65276   9.426   2.579   4.205  2.6907 -0.4120 -3.3016
  484MOL0     H65277   9.516   2.850   4.113 -0.0870 -0.8890 -2.7908
  484MOL0     H65278   9.502   2.697   4.028  0.2762 -1.5014 -0.6168
  484MOL0     H65279   9.250   2.725   4.130  1.3814 -1.5794  1.1063
  484MOL0     H65280   9.302   2.892   4.141  0.7306  0.5290 -0.5203
  484MOL0     H65281   9.331   2.933   3.912  2.1428 -1.8989 -1.0064
  484MOL0     H65282   9.345   2.761   3.881 -0.6520 -1.3125 -0.8349
  484MOL0     H65283   9.139   2.779   3.793  1.2083 -4.2695  1.3141
  484MOL0     H65284   9.105   2.753   3.972  2.0657 -0.8738  0.4021
  484MOL0     H65285   9.110   3.003   3.987  3.0971  0.2573 -1.7281
  484MOL0     H65286   9.123   3.012   3.819 -0.8415  2.9548  1.7398
  484MOL0     H65287   8.877   2.844   3.904 -2.8679  0.2058 -4.6597
  484MOL0     H65288   8.862   3.020   3.936 -1.2499 -0.4818 -0.2867
  484MOL0     H65289   8.956   2.903   3.666 -2.2588 -0.8111 -1.5388
  484MOL0     H65290   8.934   3.069   3.713 -0.4520  1.1553  1.4601
  484MOL0     H65291   8.686   2.787   3.611  0.7809 -1.3225  1.4122
  484MOL0     H65292   8.403   2.796   3.623 -0.6707 -0.4985 -3.8137
  484MOL0     H65293   8.336   2.958   3.615 -0.1978 -0.1818 -0.5083
  484MOL0     H65294   8.480   2.799   3.398  0.0261  0.5380 -2.4266
  484MOL0     H65295   8.469   2.978   3.391 -0.4752  0.1570 -1.8191
  484MOL0     H65296   8.230   2.975   3.383 -3.3708 -1.8482 -2.3629
  484MOL0     H65297   8.225   2.803   3.433 -0.2876  1.0099  1.1229
  484MOL0     H65298   8.358   2.755   3.216  0.9557 -0.4524  1.6873
  484MOL0     H65299   8.320   2.920   3.167 -0.9895  1.7767  0.9320
  484MOL0     H65300   8.292   2.829   2.976  0.2742 -1.2362 -0.2471
  484MOL0     H65301   8.190   3.035   2.679 -0.1931 -0.0168 -1.5349
  484MOL0     H65302   8.317   3.006   2.795 -1.0584  2.4668 -1.2719
  484MOL0     H65303   8.286   2.875   2.683  1.0343  1.6763 -1.5855
  484MOL0     H65304   7.824   3.262   2.622 -3.0704  1.2608  1.5284
  484MOL0     H65305   7.702   3.351   2.427 -4.9474 -0.4193  0.1149
  484MOL0     H65306   7.403   3.077   2.223 -6.1563  0.9315 -1.6725
  484MOL0     H65307   7.381   3.210   2.342  1.9827  2.0650  0.6534
  484MOL0     H65308   7.356   3.366   2.188  0.9602 -1.3666  2.9575
  484MOL0     H65309   7.435   3.271   2.055  0.5634 -2.4360  0.1858
  484MOL0     H65310   7.223   3.119   2.095 -0.1350 -0.4558  0.8592
  484MOL0     H65311   7.224   3.249   1.976 -3.8132 -0.3305  0.2967
  484MOL0     H65312   7.140   3.290   2.275 -2.7393  0.0212 -0.2868
  484MOL0     H65313   7.108   3.403   2.143 -2.4882  1.0582  1.1753
  484MOL0     H65314   6.915   3.229   2.231 -1.1690  1.7317 -0.3048
  484MOL0     H65315   6.980   3.136   2.100  1.2492  0.6638 -0.4931
  484MOL0     H65316   6.905   3.430   2.083 -2.6926  0.1055 -0.2955
  484MOL0     H65317   6.960   3.333   1.935  1.4272 -1.6200 -0.1168
  484MOL0     H65318   6.743   3.175   2.031 -0.8931  0.5554  2.0058
  484MOL0     H65319   6.716   3.298   1.915  2.3169  0.4173 -1.1068
  484MOL0     H65320   6.704   3.363   2.219  0.6206 -0.1711  0.1865
  484MOL0     H65321   6.564   3.316   2.131  0.1182 -0.6356 -0.5999
  484MOL0     H65322   7.566   2.951   2.337 -0.6432 -0.4589  0.2483
  484MOL0     H65323   7.688   2.864   2.519 -0.8849 -0.0760 -0.4281
  484MOL0     H65324   7.807   2.873   2.925 -0.5446  4.3734 -0.8520
  484MOL0     H65325   7.919   2.795   3.150  2.4315 -0.5722  0.9708
  484MOL0     H65326   9.448   2.668   4.604 -0.3488  0.7693 -1.1122
  484MOL0     H65327   9.598   2.769   4.768  3.0819 -3.2058  0.5228
  484MOL0     H65328   9.867   3.048   4.880 -0.5376  1.2380  1.2726
  484MOL0     H65329   9.977   3.200   5.028 -3.1258 -2.2472 -2.4701
  484MOL0     H65330  10.355   3.230   5.228 -0.6330 -0.0018 -1.4431
  484MOL0     H65331  10.336   3.073   5.155 -4.2285  0.8907  0.3335
  484MOL0     H65332  10.486   3.111   4.991 -3.2440  0.5820 -0.1301
  484MOL0     H65333  10.573   3.159   5.142  0.0794  0.7610 -0.1944
  484MOL0     H65334  10.538   3.407   5.068  2.5858  0.4597 -0.9238
  484MOL0     H65335  10.440   3.348   4.936 -0.7726 -0.0005  0.6165
  484MOL0     H65336  10.649   3.396   4.833 -1.0628  1.9337  1.1488
  484MOL0     H65337  10.658   3.217   4.871  0.9593  0.5707  0.0838
  484MOL0     H65338  10.979   3.313   5.098  0.4775  0.8779  0.5605
  484MOL0     H65339  10.351   3.075   4.851  0.0246 -1.0932 -2.4153
  484MOL0     H65340  10.231   2.927   4.703 -1.5392 -0.9461  0.1360
  485MOL0     O65341   1.008   4.803   9.100 -0.0425  0.1761 -0.0682
  485MOL0     C65342   0.995   4.918   9.065  0.3719 -0.2408  0.0345
  485MOL0     O65343   0.879   4.963   8.998  0.0946  0.9020  0.1829
  485MOL0     C65344   0.800   4.859   8.951  0.7141 -0.3119 -0.2597
  485MOL0     C65345   0.829   4.793   8.828  0.3267  0.7101 -0.0479
  485MOL0     C65346   0.748   4.678   8.805  0.2060 -0.5737 -0.5229
  485MOL0     C65347   0.653   4.630   8.893 -0.8842  0.6355 -0.4509
  485MOL0     O65348   0.569   4.520   8.877 -0.0846 -0.6253  0.7528
  485MOL0     C65349   0.571   4.440   8.761  0.2792 -0.0014  0.1176
  485MOL0     C65350   0.668   4.338   8.788 -0.6338 -0.1301 -0.8412
  485MOL0     C65351   0.695   4.239   8.667 -0.3293 -1.1681  0.2529
  485MOL0     C65352   0.835   4.179   8.697  0.4079  0.5226  0.5976
  485MOL0     C65353   0.857   4.071   8.584 -0.0383 -0.2593  0.8415
  485MOL0     C65354   0.992   3.998   8.598 -0.5238 -0.0428 -0.2129
  485MOL0     C65355   1.012   3.901   8.476  0.0581  0.3067  0.0765
  485MOL0     C65356   1.104   3.781   8.514 -0.2386  0.1875  0.2395
  485MOL0     N65357   1.140   3.710   8.393  0.4427 -0.2945  0.1409
  485MOL0     C65358   1.061   3.662   8.301 -0.3061  0.3597  0.0248
  485MOL0     C65359   1.148   3.616   8.206 -0.1989 -0.6313 -0.2308
  485MOL0     C65360   1.113   3.540   8.081 -0.8026  0.3881  0.0138
  485MOL0     C65361   0.966   3.479   8.082 -0.2969 -0.1005 -0.4021
  485MOL0     C65362   0.951   3.360   7.973  0.1086 -0.5969 -0.6630
  485MOL0     C65363   0.812   3.313   7.968  0.6547 -0.1636  0.2527
  485MOL0     O65364   0.711   3.412   7.939 -0.6226  0.2023 -0.2133
  485MOL0     C65365   0.579   3.377   7.929 -0.4306  0.1101 -0.5970
  485MOL0     C65366   0.492   3.471   7.880 -0.4757  0.0938 -0.2887
  485MOL0     C65367   0.358   3.452   7.863  1.1223 -0.1551  0.5131
  485MOL0     C65368   0.279   3.563   7.798 -0.0070 -0.2494 -0.4433
  485MOL0     C65369   0.306   3.324   7.891  0.0921 -0.1450  1.1668
  485MOL0     C65370   0.156   3.306   7.873  0.7711  0.4808 -0.4063
  485MOL0     O65371   0.060   3.401   7.917  0.6050 -0.2731  0.2977
  485MOL0     C65372  -0.079   3.367   7.920  0.0227 -0.3458  0.5233
  485MOL0     C65373  -0.129   3.246   7.965  0.1652 -0.1918 -0.9441
  485MOL0     C65374  -0.266   3.224   7.984 -0.0078  0.2547 -0.1960
  485MOL0     C65375  -0.357   3.322   7.957  0.2377  0.7360 -0.0916
  485MOL0     O65376  -0.488   3.296   7.995  0.7947 -0.5045  0.0685
  485MOL0     C65377  -0.578   3.410   8.006  0.8208  0.1413  0.4527
  485MOL0     C65378  -0.709   3.362   8.059 -0.3075  0.2248 -0.2392
  485MOL0     C65379  -0.784   3.306   7.933  0.1191  0.3610  0.3710
  485MOL0     C65380  -0.887   3.191   7.973 -0.5742 -0.2742 -0.3591
  485MOL0     C65381  -0.903   3.110   7.847  0.0808  0.7201  0.3159
  485MOL0     C65382  -1.004   2.986   7.861  0.6402 -1.1894 -0.8288
  485MOL0     C65383  -1.152   3.033   7.854 -0.3145 -0.9054 -0.6365
  485MOL0     C65384  -1.229   2.906   7.875  0.5716  0.0847 -0.2222
  485MOL0    Cl65385  -1.410   2.904   7.853 -0.4250  0.3554 -0.5831
  485MOL0     C65386  -0.309   3.441   7.889 -0.1326  0.0484  0.4165
  485MOL0     C65387  -0.175   3.461   7.885 -0.5221  0.6537  0.2848
  485MOL0     O65388   0.130   3.197   7.822 -0.3589 -0.1502  1.0799
  485MOL0     C65389   0.385   3.229   7.945 -0.0264 -0.5767 -0.4754
  485MOL0     C65390   0.523   3.252   7.966  0.3180 -1.0502  0.0470
  485MOL0     N65391   1.270   3.646   8.255 -0.6459 -0.1044  0.5133
  485MOL0     N65392   1.275   3.703   8.364  0.1907 -0.1208 -0.1318
  485MOL0     C65393   0.631   4.689   9.011  0.2813  0.6098 -0.6218
  485MOL0     C65394   0.704   4.806   9.043  0.3060 -0.0954  0.7819
  485MOL0     C65395   1.088   5.020   9.119  0.3314 -1.0990  0.0422
  485MOL0     C65396   1.066   5.159   9.112 -0.8394  0.5372 -0.1701
  485MOL0     C65397   1.151   5.248   9.183  0.0173  0.4554  0.2613
  485MOL0     C65398   1.258   5.205   9.259 -0.6453 -0.1628 -0.6053
  485MOL0     O65399   1.327   5.292   9.339  0.4928  0.2713  0.2124
  485MOL0     C65400   1.471   5.277   9.345 -0.2983  0.3214  0.8876
  485MOL0     C65401   1.502   5.245   9.486  0.1208  0.9339 -0.7902
  485MOL0     C65402   1.649   5.203   9.479  0.0629  0.3737  0.4298
  485MOL0     C65403   1.707   5.194   9.618  0.0223 -0.4732  0.6052
  485MOL0     C65404   1.849   5.191   9.609  0.2208 -1.3169  0.1768
  485MOL0     C65405   1.975   5.195   9.616  0.1554 -0.0310 -0.4367
  485MOL0     C65406   1.276   5.069   9.262 -0.7971  0.0494  0.8116
  485MOL0     C65407   1.194   4.984   9.192 -0.4301  0.4391 -0.4335
  485MOL0     H65408   0.904   4.829   8.759 -0.7147  3.1092 -0.0066
  485MOL0     H65409   0.763   4.633   8.708 -1.6679  0.0358 -1.1405
  485MOL0     H65410   0.479   4.381   8.753 -1.0198  2.0057 -0.3611
  485MOL0     H65411   0.586   4.498   8.670  0.0330  0.7970  0.5766
  485MOL0     H65412   0.760   4.388   8.821 -1.6004  0.6622  0.7867
  485MOL0     H65413   0.632   4.276   8.871  0.3408 -1.9506 -1.7084
  485MOL0     H65414   0.632   4.150   8.674  1.1010 -2.1396  1.6113
  485MOL0     H65415   0.706   4.288   8.570 -0.9443 -0.5917  0.4636
  485MOL0     H65416   0.906   4.261   8.705 -2.3664  3.0351  1.4628
  485MOL0     H65417   0.828   4.133   8.796 -1.0212 -1.3723 -0.3244
  485MOL0     H65418   0.771   4.003   8.586 -0.6571  0.3149 -2.0423
  485MOL0     H65419   0.847   4.128   8.492 -3.1203  0.9889  1.8250
  485MOL0     H65420   1.081   4.061   8.596  0.5522 -1.5513 -1.0365
  485MOL0     H65421   0.984   3.947   8.694 -1.4827 -0.9414 -0.7441
  485MOL0     H65422   0.916   3.865   8.438  0.4995 -2.8211  1.5716
  485MOL0     H65423   1.067   3.954   8.398  1.6249  1.0909  1.6264
  485MOL0     H65424   1.081   3.705   8.589  0.9110  0.8206  1.2635
  485MOL0     H65425   1.191   3.839   8.546 -0.0744  0.5604 -0.8444
  485MOL0     H65426   0.953   3.655   8.314 -0.0688 -0.4447  2.0628
  485MOL0     H65427   1.124   3.606   7.994  0.4282  0.7879  0.4414
  485MOL0     H65428   1.187   3.460   8.082  0.2547  1.3359  0.0103
  485MOL0     H65429   0.896   3.563   8.073 -0.4922 -0.4582 -3.9330
  485MOL0     H65430   0.949   3.439   8.182  1.9715  0.6371  0.3348
  485MOL0     H65431   1.008   3.274   8.007 -2.7402 -0.9290  4.2263
  485MOL0     H65432   0.968   3.394   7.871 -1.5505 -4.0486 -2.2271
  485MOL0     H65433   0.782   3.265   8.062  0.0416  0.1892  0.2381
  485MOL0     H65434   0.818   3.233   7.893  1.6258  0.2761 -0.1505
  485MOL0     H65435   0.547   3.564   7.864  0.1778  0.0338  1.3631
  485MOL0     H65436   0.232   3.615   7.882 -0.1088 -0.1886 -0.5382
  485MOL0     H65437   0.342   3.634   7.743 -0.3300  1.1382  0.8852
  485MOL0     H65438   0.207   3.527   7.724 -0.0981  3.5627 -2.4887
  485MOL0     H65439  -0.070   3.169   8.014 -2.0438 -0.3591  1.6979
  485MOL0     H65440  -0.309   3.143   8.042 -1.5735  0.7912 -0.5595
  485MOL0     H65441  -0.533   3.490   8.067  1.9187 -0.7831  0.9013
  485MOL0     H65442  -0.597   3.453   7.907  2.0430  0.0904  0.1800
  485MOL0     H65443  -0.692   3.278   8.127 -1.7492 -1.7406 -2.1595
  485MOL0     H65444  -0.753   3.446   8.113  0.0889 -0.7386  1.6763
  485MOL0     H65445  -0.701   3.264   7.875  0.7049  0.3734  1.1747
  485MOL0     H65446  -0.833   3.378   7.868 -1.6014 -0.6246  0.5266
  485MOL0     H65447  -0.841   3.128   8.050 -1.8190  0.0926  0.7185
  485MOL0     H65448  -0.984   3.227   8.009 -2.4106 -2.3285 -2.8415
  485MOL0     H65449  -0.808   3.064   7.819 -2.4940 -4.2279 -1.5543
  485MOL0     H65450  -0.943   3.169   7.765 -1.4920 -3.1192 -1.9648
  485MOL0     H65451  -0.990   2.918   7.776 -0.0987 -2.3978 -0.0147
  485MOL0     H65452  -0.981   2.929   7.952  1.6566  0.4665 -0.0048
  485MOL0     H65453  -1.199   3.076   7.765 -2.8079 -0.6651  0.7036
  485MOL0     H65454  -1.173   3.092   7.944  0.2712 -3.3555  1.2085
  485MOL0     H65455  -1.219   2.875   7.980 -0.1247  0.6183  0.0149
  485MOL0     H65456  -1.209   2.822   7.808 -3.4553  0.6293 -2.4327
  485MOL0     H65457  -0.392   3.504   7.858 -0.5253 -0.5158  0.3159
  485MOL0     H65458  -0.145   3.563   7.860  1.6548  0.1385  0.6016
  485MOL0     H65459   0.337   3.133   7.958 -1.0902 -0.0503 -0.3900
  485MOL0     H65460   0.579   3.178   8.023 -0.8289 -0.9882  1.2969
  485MOL0     H65461   0.567   4.638   9.082 -1.8868  0.9975 -2.1759
  485MOL0     H65462   0.681   4.863   9.132 -1.3194  0.3001  0.1520
  485MOL0     H65463   0.979   5.178   9.049 -1.9096 -0.3728  0.9791
  485MOL0     H65464   1.128   5.354   9.172  1.2261  0.5754 -1.5853
  485MOL0     H65465   1.509   5.200   9.278 -1.8603 -2.0258  2.5339
  485MOL0     H65466   1.522   5.372   9.325 -0.8628  0.4333 -0.1014
  485MOL0     H65467   1.443   5.159   9.521  1.2236  1.0843  1.5688
  485MOL0     H65468   1.487   5.330   9.553  2.0414  0.4350  0.3338
  485MOL0     H65469   1.708   5.272   9.418  0.1740 -1.0572 -1.1639
  485MOL0     H65470   1.669   5.112   9.421 -2.2123 -0.7385  1.2596
  485MOL0     H65471   1.668   5.104   9.668 -2.0790  0.6737  1.1466
  485MOL0     H65472   1.662   5.271   9.681  1.5377 -0.1481  1.3278
  485MOL0     H65473   2.080   5.217   9.612  0.7504 -2.3441  0.8036
  485MOL0     H65474   1.346   5.029   9.335 -0.0114  1.3849  0.8388
  485MOL0     H65475   1.225   4.883   9.215 -0.1070  0.7851  0.7150
  486MOL0     O65476   3.616   4.227   5.174  0.3506 -0.4977  0.2804
  486MOL0     C65477   3.716   4.220   5.108 -0.1806  0.4392  0.2315
  486MOL0     O65478   3.726   4.253   4.976  0.8869  0.3181  0.5023
  486MOL0     C65479   3.612   4.297   4.902  0.2268 -0.5229 -0.1565
  486MOL0     C65480   3.502   4.374   4.958  0.3428 -0.5065  0.2165
  486MOL0     C65481   3.417   4.441   4.866  0.0015 -0.8959 -0.7933
  486MOL0     C65482   3.433   4.437   4.729  0.7006 -0.3454  0.4138
  486MOL0     O65483   3.352   4.517   4.658  0.5457 -1.1803  0.5355
  486MOL0     C65484   3.360   4.513   4.513 -0.6010 -0.4400 -0.2655
  486MOL0     C65485   3.263   4.604   4.450  0.8624 -0.0584  0.4099
  486MOL0     C65486   3.243   4.571   4.303 -0.6109  0.1588  0.0901
  486MOL0     C65487   3.152   4.674   4.228 -0.9339  0.0105  0.3700
  486MOL0     C65488   3.012   4.680   4.294 -0.2252  0.1358  0.0143
  486MOL0     C65489   2.911   4.748   4.198 -0.4937  0.2941 -0.4241
  486MOL0     C65490   2.874   4.664   4.076  1.1798  0.0726  0.5485
  486MOL0     C65491   2.747   4.734   4.018 -0.4530  0.7811 -0.6671
  486MOL0     N65492   2.697   4.679   3.888  0.2127 -1.5838 -0.2517
  486MOL0     C65493   2.571   4.715   3.833  0.9627  0.2943 -0.0573
  486MOL0     C65494   2.561   4.654   3.717 -0.6388 -0.2896  0.3346
  486MOL0     C65495   2.432   4.668   3.624 -0.5304 -0.2418  1.0444
  486MOL0     C65496   2.474   4.719   3.484 -0.1992 -0.5231  0.6105
  486MOL0     C65497   2.546   4.861   3.513 -0.1318  0.0720  1.0350
  486MOL0     C65498   2.566   4.946   3.375  0.1040  0.1216 -0.3099
  486MOL0     O65499   2.568   5.085   3.408 -0.5037  0.1327 -0.0432
  486MOL0     C65500   2.599   5.183   3.318 -1.1848 -0.1765  0.5171
  486MOL0     C65501   2.627   5.172   3.181 -0.2961  0.1817  0.0677
  486MOL0     C65502   2.634   5.281   3.086 -0.0909 -0.9745 -0.2042
  486MOL0     C65503   2.675   5.267   2.946  0.8476  0.6464  0.0183
  486MOL0     C65504   2.609   5.409   3.139 -0.7257  0.5997  0.0141
  486MOL0     C65505   2.605   5.536   3.066  0.3747 -0.7394  0.0430
  486MOL0     O65506   2.678   5.647   3.095 -0.1409  0.0371 -0.1167
  486MOL0     C65507   2.669   5.756   3.004  0.7464  0.3454 -0.0291
  486MOL0     C65508   2.727   5.752   2.884  0.5429  0.0060 -0.1639
  486MOL0     C65509   2.732   5.865   2.806 -0.2386 -0.3734 -0.0402
  486MOL0     C65510   2.686   5.986   2.850 -0.7844 -0.5520 -0.8254
  486MOL0     O65511   2.689   6.100   2.781 -0.0961  0.0948  0.5533
  486MOL0     C65512   2.821   6.147   2.745  0.1195  0.4476  0.0752
  486MOL0     C65513   2.824   6.305   2.752 -0.3267 -0.0499  0.0532
  486MOL0     C65514   2.879   6.365   2.882  0.4185 -0.5848 -0.0610
  486MOL0     C65515   2.823   6.312   3.013  0.0470 -0.1531 -0.9749
  486MOL0     C65516   2.838   6.416   3.121  0.2250  0.3675 -0.0206
  486MOL0     C65517   2.769   6.376   3.249 -0.1695 -0.3035 -0.3970
  486MOL0     C65518   2.842   6.283   3.345 -0.2433 -0.2131 -0.1223
  486MOL0     C65519   2.964   6.353   3.394 -0.4136  0.1083 -0.3202
  486MOL0    Cl65520   2.945   6.523   3.462  0.4179 -0.4324 -0.0648
  486MOL0     C65521   2.609   5.988   2.966 -0.1750  0.0431  0.4361
  486MOL0     C65522   2.600   5.869   3.038 -0.4938 -0.7232 -0.0254
  486MOL0     O65523   2.519   5.533   2.985 -0.3190  0.6304  0.3694
  486MOL0     C65524   2.591   5.424   3.287 -0.2255  0.7771  0.3183
  486MOL0     C65525   2.580   5.312   3.374  0.2334 -0.6378 -0.1685
  486MOL0     N65526   2.666   4.571   3.701 -0.1104  0.2325  0.0577
  486MOL0     N65527   2.739   4.584   3.804 -1.0941 -0.7163  0.9174
  486MOL0     C65528   3.534   4.356   4.673  0.7175  0.0996 -0.1951
  486MOL0     C65529   3.613   4.284   4.761  0.2425 -0.0937 -0.3665
  486MOL0     C65530   3.840   4.184   5.168 -0.1135 -1.0225  0.6052
  486MOL0     C65531   3.958   4.157   5.093  0.5918 -0.7385 -0.6065
  486MOL0     C65532   4.081   4.152   5.146 -0.0664 -0.6104 -0.0998
  486MOL0     C65533   4.104   4.172   5.282 -0.7357 -0.8383 -0.0360
  486MOL0     O65534   4.233   4.198   5.333 -0.4007  0.1925  0.0606
  486MOL0     C65535   4.350   4.157   5.273 -0.1432  0.8591 -0.0778
  486MOL0     C65536   4.364   4.004   5.258 -0.3734 -0.3332 -0.2351
  486MOL0     C65537   4.372   3.940   5.399  0.8148  0.9387  0.3027
  486MOL0     C65538   4.501   3.880   5.457 -0.6052 -0.4448  0.4022
  486MOL0     C65539   4.610   3.970   5.496  0.6711 -0.8188  0.6301
  486MOL0     C65540   4.702   4.043   5.540  0.8553 -0.7294 -0.2739
  486MOL0     C65541   3.998   4.210   5.361  0.0691 -0.5541  0.1437
  486MOL0     C65542   3.866   4.224   5.305 -1.1854 -0.7914 -0.2372
  486MOL0     H65543   3.494   4.411   5.060 -3.8366 -2.4886  0.8258
  486MOL0     H65544   3.355   4.526   4.890  0.5932 -0.9256  0.9463
  486MOL0     H65545   3.460   4.549   4.485 -0.2354 -1.7226 -0.6715
  486MOL0     H65546   3.344   4.408   4.486 -0.7642 -0.3887 -0.3703
  486MOL0     H65547   3.166   4.576   4.493  0.3055  0.1182 -0.7090
  486MOL0     H65548   3.282   4.710   4.471 -1.0524  0.4221 -0.0731
  486MOL0     H65549   3.342   4.571   4.258 -0.5865 -1.1474  0.1036
  486MOL0     H65550   3.196   4.473   4.292 -1.6891  0.7940 -1.3256
  486MOL0     H65551   3.199   4.772   4.243  3.1963 -1.8985  1.4811
  486MOL0     H65552   3.146   4.669   4.118 -0.9576  3.3166  0.1126
  486MOL0     H65553   2.983   4.577   4.317 -0.3986  0.0079 -0.7625
  486MOL0     H65554   3.007   4.730   4.391  1.6855 -2.6343  1.7075
  486MOL0     H65555   2.818   4.772   4.250 -0.4508 -1.9144  0.8244
  486MOL0     H65556   2.962   4.835   4.157  1.4587 -0.1169  0.9779
  486MOL0     H65557   2.953   4.671   4.002  0.7642  1.8108  0.2216
  486MOL0     H65558   2.850   4.561   4.107  1.5347 -0.5030 -1.0224
  486MOL0     H65559   2.773   4.840   4.009  1.0642  0.4236 -0.7880
  486MOL0     H65560   2.668   4.717   4.092  1.9960 -2.2822  1.5057
  486MOL0     H65561   2.500   4.790   3.867 -1.3288 -1.9864  0.4703
  486MOL0     H65562   2.396   4.565   3.621  2.7891 -1.6597  3.4952
  486MOL0     H65563   2.358   4.735   3.668 -0.7869 -0.3113  0.7212
  486MOL0     H65564   2.385   4.717   3.420 -0.0362  1.2177  0.2576
  486MOL0     H65565   2.547   4.649   3.443  2.3938  2.7404 -0.8359
  486MOL0     H65566   2.646   4.843   3.554  2.2922  1.9720 -3.3686
  486MOL0     H65567   2.475   4.915   3.577  1.9887  2.9406  1.1457
  486MOL0     H65568   2.477   4.933   3.313 -0.6576  0.5455  0.6617
  486MOL0     H65569   2.658   4.931   3.319 -0.7341 -0.0850 -1.6602
  486MOL0     H65570   2.657   5.073   3.149  3.3299  1.1301  0.1056
  486MOL0     H65571   2.699   5.164   2.921  1.3200  1.0730 -1.3443
  486MOL0     H65572   2.595   5.307   2.883  0.3631  1.3477  1.0445
  486MOL0     H65573   2.769   5.322   2.934  1.8089 -0.3986  2.0577
  486MOL0     H65574   2.768   5.657   2.850  2.5370  0.1243  1.6456
  486MOL0     H65575   2.776   5.863   2.707  0.8009  0.6246  0.3736
  486MOL0     H65576   2.902   6.101   2.801  0.1884  0.2261 -0.2014
  486MOL0     H65577   2.838   6.124   2.639 -0.7421  0.9249 -0.1733
  486MOL0     H65578   2.902   6.342   2.685  1.1091  1.8708  2.5738
  486MOL0     H65579   2.720   6.329   2.731 -1.1931  1.1176  4.5848
  486MOL0     H65580   2.886   6.474   2.882  2.8449 -0.6465  2.3703
  486MOL0     H65581   2.984   6.334   2.888  0.2323 -1.5244 -1.2088
  486MOL0     H65582   2.717   6.286   3.007 -0.7245  2.7416 -0.9162
  486MOL0     H65583   2.873   6.219   3.043 -0.1873  0.0473  0.0763
  486MOL0     H65584   2.786   6.504   3.080  0.3869 -0.1551 -1.3796
  486MOL0     H65585   2.941   6.447   3.141  0.6315  0.9292 -2.5681
  486MOL0     H65586   2.734   6.469   3.295  1.8427  1.2392 -1.7992
  486MOL0     H65587   2.674   6.329   3.222 -0.6249 -0.8065  1.8762
  486MOL0     H65588   2.871   6.189   3.296  1.9952  0.9972 -1.3071
  486MOL0     H65589   2.774   6.257   3.426 -1.3103 -3.0875 -1.7979
  486MOL0     H65590   3.036   6.355   3.312  0.9459 -0.0267  0.8202
  486MOL0     H65591   3.015   6.287   3.465  0.7230  1.0275 -0.2358
  486MOL0     H65592   2.568   6.083   3.000  1.0114  0.6728  0.1502
  486MOL0     H65593   2.552   5.862   3.135 -1.5052 -1.5299 -0.5621
  486MOL0     H65594   2.580   5.523   3.330 -2.0931  0.1914  1.2975
  486MOL0     H65595   2.560   5.330   3.479  1.9917  0.4603  0.0336
  486MOL0     H65596   3.545   4.362   4.565 -0.4331  2.6301 -0.2418
  486MOL0     H65597   3.692   4.230   4.709  1.1557  2.4183 -1.7540
  486MOL0     H65598   3.939   4.147   4.987  2.0591  1.3280 -1.1207
  486MOL0     H65599   4.169   4.137   5.084  1.7476  0.2344  2.1148
  486MOL0     H65600   4.351   4.210   5.177 -0.4368  1.2872  0.1538
  486MOL0     H65601   4.425   4.207   5.335  0.5353  1.1721 -1.1053
  486MOL0     H65602   4.455   3.970   5.207  1.2588  0.4198  2.0160
  486MOL0     H65603   4.284   3.958   5.199 -2.2097 -0.5305  2.2485
  486MOL0     H65604   4.314   3.848   5.401  1.4252  0.4330 -1.9027
  486MOL0     H65605   4.320   4.005   5.470  0.8349  1.7493 -0.4016
  486MOL0     H65606   4.540   3.815   5.378 -3.7210  0.8473 -2.4539
  486MOL0     H65607   4.469   3.808   5.533  2.7957 -0.3118  2.1459
  486MOL0     H65608   4.770   4.123   5.560 -0.5670  1.2011 -2.5866
  486MOL0     H65609   4.016   4.242   5.463  1.1855  2.2887 -0.8552
  486MOL0     H65610   3.792   4.265   5.372  1.0698  2.1558  0.6888
  487MOL0     O65611   5.152  11.118   3.238  0.3607 -0.5314 -0.2472
  487MOL0     C65612   5.047  11.081   3.180  0.0652 -0.2673 -0.4788
  487MOL0     O65613   5.042  11.044   3.048  0.3735  0.6831 -0.1163
  487MOL0     C65614   5.150  11.075   2.968  1.0903 -0.2794  0.6005
  487MOL0     C65615   5.227  10.963   2.918  0.6373 -0.2473 -0.6463
  487MOL0     C65616   5.316  10.971   2.817  0.2033  0.8174  0.7252
  487MOL0     C65617   5.332  11.103   2.758  0.1137  0.0845  0.5101
  487MOL0     O65618   5.428  11.106   2.662 -0.1702  1.0596 -0.0890
  487MOL0     C65619   5.394  11.039   2.541  0.4739  0.7200  0.3785
  487MOL0     C65620   5.492  11.096   2.442  0.0049 -0.1745 -0.7384
  487MOL0     C65621   5.478  11.248   2.435 -0.0325 -0.5736 -0.3474
  487MOL0     C65622   5.532  11.298   2.300 -0.8859 -0.1968 -0.2830
  487MOL0     C65623   5.449  11.243   2.179  0.1953  0.1735  0.4837
  487MOL0     C65624   5.312  11.315   2.160 -0.8864  0.4009 -0.4492
  487MOL0     C65625   5.231  11.255   2.043  0.4662  0.0530 -0.2701
  487MOL0     C65626   5.145  11.122   2.069  0.2309 -0.4520  0.9205
  487MOL0     N65627   5.066  11.120   2.191 -0.2910 -0.2039 -1.2690
  487MOL0     C65628   5.100  11.046   2.302  0.2242  0.3415  0.5691
  487MOL0     C65629   4.995  11.055   2.385 -0.5619 -0.0174 -0.5557
  487MOL0     C65630   4.973  10.963   2.504 -0.8119 -0.4007 -0.4587
  487MOL0     C65631   4.884  10.837   2.455  0.4843 -0.3861 -0.4675
  487MOL0     C65632   4.820  10.767   2.571 -0.8253  0.0443  0.3112
  487MOL0     C65633   4.733  10.652   2.520  0.4395  0.3247  0.1489
  487MOL0     O65634   4.813  10.539   2.492  0.6940 -0.1872  0.1022
  487MOL0     C65635   4.746  10.425   2.437 -0.5479  0.0025 -0.5240
  487MOL0     C65636   4.828  10.311   2.411  0.2638 -0.4016  0.0974
  487MOL0     C65637   4.772  10.191   2.362 -0.1718 -0.1145  0.2886
  487MOL0     C65638   4.874  10.084   2.336 -0.0922  0.9401 -0.5307
  487MOL0     C65639   4.635  10.173   2.335 -0.3683  0.6396 -0.3497
  487MOL0     C65640   4.570  10.057   2.271  0.8993  0.4490 -0.4865
  487MOL0     O65641   4.438  10.048   2.284  0.1510 -0.6841 -0.0226
  487MOL0     C65642   4.355   9.958   2.216  0.4280 -0.5234  0.2054
  487MOL0     C65643   4.265   9.884   2.292 -0.0138  0.2924 -0.0745
  487MOL0     C65644   4.169   9.806   2.233  0.1819  0.4761  0.6712
  487MOL0     C65645   4.168   9.791   2.093 -1.1311 -0.5864 -0.0933
  487MOL0     O65646   4.066   9.718   2.055  0.1958 -0.2927  0.4912
  487MOL0     C65647   4.017   9.759   1.918 -0.3173 -0.8904  0.2358
  487MOL0     C65648   3.863   9.737   1.898 -0.2705  0.2263 -0.5471
  487MOL0     C65649   3.783   9.814   2.002  1.0457  0.5652 -0.7269
  487MOL0     C65650   3.629   9.821   1.972 -0.4006  0.0562 -0.2617
  487MOL0     C65651   3.560   9.907   2.070 -0.0092  0.9304  0.7984
  487MOL0     C65652   3.422   9.926   2.010  0.4196  1.0753 -0.0370
  487MOL0     C65653   3.318   9.945   2.111  1.0055 -0.0063 -0.4738
  487MOL0     C65654   3.237   9.819   2.148  0.1498  0.0029  0.3020
  487MOL0    Cl65655   3.306   9.711   2.248  0.1165  0.0622  0.0499
  487MOL0     C65656   4.262   9.875   2.019 -0.1967 -0.0573  0.2760
  487MOL0     C65657   4.352   9.956   2.078  0.7842 -0.1091 -0.5608
  487MOL0     O65658   4.634   9.987   2.193 -0.5298 -0.7325  0.0848
  487MOL0     C65659   4.558  10.294   2.362 -0.5501  0.6752 -0.3121
  487MOL0     C65660   4.611  10.415   2.417 -0.5870  0.1104  0.6363
  487MOL0     N65661   4.924  11.166   2.339 -0.8194  0.8347  0.3870
  487MOL0     N65662   4.960  11.193   2.220 -0.4815  0.2731  0.2549
  487MOL0     C65663   5.258  11.218   2.799 -0.1784 -0.3582  0.2945
  487MOL0     C65664   5.165  11.207   2.905  0.3171  0.8384 -1.7123
  487MOL0     C65665   4.931  11.049   3.267  0.2740 -0.6321  0.0547
  487MOL0     C65666   4.914  11.109   3.397  0.2880  0.2385  1.0051
  487MOL0     C65667   4.789  11.090   3.463  0.1496 -0.4277 -0.1992
  487MOL0     C65668   4.687  11.012   3.409 -1.0224 -0.7902  0.4499
  487MOL0     O65669   4.564  11.029   3.475 -0.6025 -0.3617  0.4076
  487MOL0     C65670   4.452  10.977   3.410 -0.5542  0.2259  0.1678
  487MOL0     C65671   4.337  11.005   3.504  0.1256 -0.3115  0.9258
  487MOL0     C65672   4.350  10.936   3.641  0.8823 -0.1715  0.3928
  487MOL0     C65673   4.220  10.949   3.730  0.0484 -0.0826 -0.9320
  487MOL0     C65674   4.167  11.086   3.717  0.1964  0.0146 -0.6898
  487MOL0     C65675   4.114  11.203   3.707 -0.7476 -0.4280 -1.1860
  487MOL0     C65676   4.712  10.941   3.287  0.1255  1.0404 -1.1700
  487MOL0     C65677   4.832  10.964   3.222  0.2823 -0.6350  0.5543
  487MOL0     H65678   5.206  10.865   2.960 -0.1383 -0.1609 -0.8246
  487MOL0     H65679   5.363  10.885   2.771 -0.1640  0.6971  0.5781
  487MOL0     H65680   5.395  10.931   2.553  0.2674  0.4715 -1.5343
  487MOL0     H65681   5.290  11.059   2.514 -0.8135 -3.2504  1.7425
  487MOL0     H65682   5.593  11.075   2.479 -0.5909  1.2702  1.9750
  487MOL0     H65683   5.480  11.037   2.351  1.5733 -1.1434 -0.3645
  487MOL0     H65684   5.373  11.278   2.436  0.5282  1.7388 -2.3614
  487MOL0     H65685   5.533  11.295   2.517 -0.5871 -0.0043 -0.2916
  487MOL0     H65686   5.540  11.407   2.294  2.3612 -0.3880 -1.3861
  487MOL0     H65687   5.638  11.272   2.293 -0.1187  2.8349 -1.1455
  487MOL0     H65688   5.506  11.263   2.088  0.3410 -0.4688  0.4279
  487MOL0     H65689   5.432  11.135   2.184  3.5537 -0.5038 -0.2625
  487MOL0     H65690   5.240  11.301   2.242  0.0874 -3.1452 -0.0130
  487MOL0     H65691   5.330  11.422   2.158  1.0254  0.2622  2.3952
  487MOL0     H65692   5.165  11.337   2.014 -2.9101 -2.2510  0.3002
  487MOL0     H65693   5.306  11.239   1.964  0.0570 -3.0059 -0.1604
  487MOL0     H65694   5.209  11.034   2.060 -0.3389 -0.6498 -4.2751
  487MOL0     H65695   5.069  11.114   1.990  1.3583  0.8138 -0.3751
  487MOL0     H65696   5.176  10.970   2.302 -0.0424  0.0714  1.1726
  487MOL0     H65697   5.067  10.929   2.548  1.0621 -0.4354 -4.1042
  487MOL0     H65698   4.932  11.024   2.586  0.8035  2.6139 -1.7052
  487MOL0     H65699   4.959  10.770   2.411  0.6488  0.9451 -2.3660
  487MOL0     H65700   4.812  10.865   2.377  1.8544 -1.0742 -2.0620
  487MOL0     H65701   4.755  10.833   2.630 -2.5601  1.4545 -2.9333
  487MOL0     H65702   4.884  10.726   2.650 -3.5737 -1.4698  1.8843
  487MOL0     H65703   4.683  10.687   2.429  2.2007  0.2118 -0.9098
  487MOL0     H65704   4.655  10.623   2.591 -1.2426 -3.0717 -2.7496
  487MOL0     H65705   4.931  10.319   2.446  0.1471  0.0649  0.3380
  487MOL0     H65706   4.840   9.990   2.381  0.7993 -0.2440 -2.2575
  487MOL0     H65707   4.887  10.060   2.230  1.2746  0.1043 -0.2022
  487MOL0     H65708   4.971  10.107   2.381  0.0767 -3.9687  2.3216
  487MOL0     H65709   4.274   9.885   2.400  2.0408  0.4203 -0.2208
  487MOL0     H65710   4.083   9.757   2.278 -0.8938 -0.5314 -2.2218
  487MOL0     H65711   4.039   9.864   1.897 -1.0533 -0.5702  0.9971
  487MOL0     H65712   4.072   9.699   1.844 -2.4412  1.2561 -3.4219
  487MOL0     H65713   3.828   9.772   1.801 -1.4597 -0.3503 -0.3441
  487MOL0     H65714   3.854   9.628   1.906 -3.0476  0.4182  0.0000
  487MOL0     H65715   3.834   9.910   2.015  0.8947  0.6746 -0.9333
  487MOL0     H65716   3.792   9.757   2.095 -0.2298 -1.1068 -1.5572
  487MOL0     H65717   3.615   9.865   1.872  0.4753 -1.2912 -1.0039
  487MOL0     H65718   3.589   9.720   1.974 -1.9956  0.6679  0.6347
  487MOL0     H65719   3.620   9.997   2.090  0.6207 -0.0274  3.5736
  487MOL0     H65720   3.555   9.846   2.160  0.0695 -2.6936 -1.4568
  487MOL0     H65721   3.446  10.009   1.943  2.1495 -0.6641 -1.7226
  487MOL0     H65722   3.371   9.846   1.956 -2.4692  0.8315  2.7787
  487MOL0     H65723   3.251  10.017   2.064 -0.7368 -3.3448 -3.6561
  487MOL0     H65724   3.370   9.989   2.197  2.0676 -0.0522 -1.0807
  487MOL0     H65725   3.216   9.766   2.055  0.8856  0.5789 -0.1926
  487MOL0     H65726   3.148   9.860   2.197  1.4567  3.0137  0.4241
  487MOL0     H65727   4.255   9.873   1.910  1.1031  1.3128  0.1301
  487MOL0     H65728   4.424  10.015   2.021  0.1467  2.3468  1.0020
  487MOL0     H65729   4.452  10.297   2.343 -0.3798 -2.7058 -2.7096
  487MOL0     H65730   4.537  10.490   2.443 -0.3652  0.9554 -1.0739
  487MOL0     H65731   5.272  11.314   2.749 -1.2059 -1.1003 -1.5274
  487MOL0     H65732   5.112  11.290   2.949  2.0632 -0.1961  2.9790
  487MOL0     H65733   4.992  11.180   3.423  3.0276 -0.2188 -4.3921
  487MOL0     H65734   4.766  11.152   3.549 -1.3154  0.4077 -1.1583
  487MOL0     H65735   4.430  11.035   3.320 -0.1306 -1.0175 -0.7640
  487MOL0     H65736   4.471  10.876   3.373 -0.5665 -0.3291  1.6182
  487MOL0     H65737   4.249  10.970   3.449  2.3625 -0.4933 -2.9234
  487MOL0     H65738   4.319  11.113   3.512 -0.4472 -0.4486  1.5668
  487MOL0     H65739   4.436  10.969   3.699 -0.0439  0.1370  1.6145
  487MOL0     H65740   4.361  10.827   3.637  1.9933 -0.1367  1.9859
  487MOL0     H65741   4.256  10.944   3.833  2.0466 -0.5247 -1.5957
  487MOL0     H65742   4.140  10.878   3.710 -0.4835  0.6083 -1.3154
  487MOL0     H65743   4.077  11.302   3.694 -1.6278 -0.8757 -2.2850
  487MOL0     H65744   4.640  10.866   3.255 -0.3750  1.8497 -1.9618
  487MOL0     H65745   4.831  10.902   3.133  0.1446 -1.6363  1.2347
  488MOL0     O65746   3.150   3.219  10.696 -0.8014  0.1051 -0.0750
  488MOL0     C65747   3.080   3.190  10.794 -0.4947  1.2462 -0.0395
  488MOL0     O65748   3.108   3.220  10.921  0.0439 -0.3005  0.0332
  488MOL0     C65749   3.234   3.265  10.957 -0.1028 -0.8122 -0.6609
  488MOL0     C65750   3.346   3.185  10.922  0.5279  0.0527  0.1917
  488MOL0     C65751   3.474   3.237  10.944 -0.9633 -0.1011  0.2736
  488MOL0     C65752   3.490   3.367  10.978  0.6196 -0.2896 -0.0804
  488MOL0     O65753   3.622   3.388  10.996 -0.3678 -0.2432 -0.5196
  488MOL0     C65754   3.666   3.499  10.931  0.0486  0.8449 -0.6117
  488MOL0     C65755   3.700   3.481  10.785  0.3887  0.4090 -0.3224
  488MOL0     C65756   3.733   3.607  10.715 -0.6078  0.2885  0.3213
  488MOL0     C65757   3.885   3.631  10.721  0.3326 -0.0656 -0.2223
  488MOL0     C65758   3.962   3.539  10.612 -0.2486  0.2026 -0.1308
  488MOL0     C65759   4.112   3.559  10.591 -0.2821  0.3623 -1.0660
  488MOL0     C65760   4.199   3.539  10.720  0.2550 -0.0403  0.4344
  488MOL0     C65761   4.337   3.603  10.703 -0.1717  0.1758  0.1136
  488MOL0     N65762   4.429   3.581  10.816  0.2980 -0.3802  0.6821
  488MOL0     C65763   4.537   3.662  10.850 -0.1211 -0.5983  0.2961
  488MOL0     C65764   4.601   3.586  10.942  1.3448 -0.0637 -0.1740
  488MOL0     C65765   4.690   3.636  11.054  0.0954 -0.0111 -0.4387
  488MOL0     C65766   4.619   3.682  11.184  0.7654 -0.6807  0.1653
  488MOL0     C65767   4.528   3.809  11.182 -0.4065 -0.0125  0.2949
  488MOL0     C65768   4.604   3.941  11.134 -0.3692  0.2924  0.8007
  488MOL0     O65769   4.698   3.978  11.239 -0.0848  0.2544  0.1557
  488MOL0     C65770   4.791   4.071  11.207 -0.6791 -0.4907  0.3318
  488MOL0     C65771   4.757   4.206  11.193 -0.2361  0.0494  0.9291
  488MOL0     C65772   4.860   4.293  11.156 -0.4791  0.6705 -0.3185
  488MOL0     C65773   4.818   4.435  11.135  0.4465  0.2276  0.1813
  488MOL0     C65774   5.000   4.249  11.149  0.5189 -0.3834  0.3632
  488MOL0     C65775   5.119   4.346  11.127  1.0715 -0.3150 -0.1099
  488MOL0     O65776   5.237   4.305  11.169  0.0933 -0.1968 -0.1645
  488MOL0     C65777   5.339   4.394  11.197  0.3420 -0.0213  0.3965
  488MOL0     C65778   5.477   4.360  11.180  0.3058 -0.1727  0.0264
  488MOL0     C65779   5.573   4.449  11.218  0.0626  0.5289 -0.1776
  488MOL0     C65780   5.547   4.583  11.247  0.2272  0.3132 -0.1776
  488MOL0     O65781   5.643   4.668  11.286 -0.8863 -0.8946 -1.1492
  488MOL0     C65782   5.781   4.624  11.262 -0.2479 -0.8080 -0.5540
  488MOL0     C65783   5.877   4.725  11.312 -0.8001 -1.2761  0.5262
  488MOL0     C65784   6.020   4.678  11.275 -0.0794 -0.1772 -0.4390
  488MOL0     C65785   6.126   4.769  11.345  0.1831 -0.2683 -0.2756
  488MOL0     C65786   6.265   4.707  11.319  0.3140 -0.4373 -0.3821
  488MOL0     C65787   6.360   4.789  11.406 -0.1024  0.3125  0.0893
  488MOL0     C65788   6.507   4.734  11.389 -0.3925  0.2363  0.4369
  488MOL0     C65789   6.604   4.821  11.471 -0.2979 -0.0210 -0.4291
  488MOL0    Cl65790   6.612   4.763  11.651  0.3553 -0.1972  0.2804
  488MOL0     C65791   5.409   4.612  11.273 -0.1650  0.1013  0.4963
  488MOL0     C65792   5.306   4.523  11.243 -0.4492  0.1087 -0.2234
  488MOL0     O65793   5.098   4.450  11.058 -0.0974 -0.4507 -0.7088
  488MOL0     C65794   5.022   4.114  11.167  0.0342  0.5641  0.2350
  488MOL0     C65795   4.915   4.032  11.188 -0.4078  1.4646  0.1365
  488MOL0     N65796   4.539   3.467  10.960 -0.5350  0.3641 -0.1251
  488MOL0     N65797   4.433   3.460  10.887  0.1844  0.4929  0.1337
  488MOL0     C65798   3.383   3.464  10.997 -0.4659  0.2135 -0.4395
  488MOL0     C65799   3.259   3.403  10.989 -0.4498  0.6216 -0.9320
  488MOL0     C65800   2.979   3.084  10.769  0.1411 -0.1247  0.8335
  488MOL0     C65801   2.936   3.049  10.642 -0.1010 -0.2954  0.3915
  488MOL0     C65802   2.836   2.952  10.619  0.4072 -0.5898 -0.5688
  488MOL0     C65803   2.787   2.877  10.729 -0.0145 -0.1809 -0.0329
  488MOL0     O65804   2.696   2.780  10.723 -0.0317  0.1033  0.0601
  488MOL0     C65805   2.665   2.721  10.594  0.1254  0.0654  0.3352
  488MOL0     C65806   2.554   2.792  10.517 -0.4389  0.2649 -0.2179
  488MOL0     C65807   2.496   2.710  10.400 -0.3003 -0.2647  0.3567
  488MOL0     C65808   2.400   2.787  10.309  0.6295 -0.4109 -0.9091
  488MOL0     C65809   2.283   2.708  10.264 -0.6400  0.0950 -0.2680
  488MOL0     C65810   2.197   2.638  10.224 -0.3538 -0.7601  0.1482
  488MOL0     C65811   2.830   2.910  10.856  0.0428 -0.5642  0.1994
  488MOL0     C65812   2.928   3.009  10.871  0.3611  0.3754 -0.1370
  488MOL0     H65813   3.336   3.083  10.887 -2.3439  1.0720 -2.3231
  488MOL0     H65814   3.564   3.184  10.914 -0.7974 -0.0686  0.7096
  488MOL0     H65815   3.612   3.594  10.937 -2.3940 -0.5322  1.1089
  488MOL0     H65816   3.763   3.516  10.980 -1.0801  2.2650  1.2919
  488MOL0     H65817   3.775   3.403  10.779  0.2763  0.4065 -3.9679
  488MOL0     H65818   3.622   3.440  10.720  2.8249 -0.3788 -2.9188
  488MOL0     H65819   3.706   3.612  10.609 -1.6166  1.0045  0.5991
  488MOL0     H65820   3.684   3.688  10.768  1.1425  0.5196  1.6679
  488MOL0     H65821   3.898   3.738  10.699 -1.1936  0.1905  0.0428
  488MOL0     H65822   3.920   3.616  10.824  0.5617  1.4265 -0.0505
  488MOL0     H65823   3.957   3.431  10.633  0.4617 -0.0483 -1.1612
  488MOL0     H65824   3.912   3.553  10.516 -1.5450  3.3853  0.8800
  488MOL0     H65825   4.147   3.486  10.517 -2.7427 -0.4476 -1.5372
  488MOL0     H65826   4.131   3.664  10.566  2.0416 -0.1448 -1.6634
  488MOL0     H65827   4.143   3.562  10.811  0.4745 -2.7724  1.3763
  488MOL0     H65828   4.214   3.431  10.734  1.5925 -0.0650 -0.9297
  488MOL0     H65829   4.327   3.710  10.682  3.6717  0.3928 -1.5059
  488MOL0     H65830   4.379   3.563  10.610  4.5045  1.2622  1.4708
  488MOL0     H65831   4.559   3.760  10.811  1.7307 -1.2847 -0.4964
  488MOL0     H65832   4.762   3.557  11.075 -2.0557 -2.4780 -1.7200
  488MOL0     H65833   4.750   3.719  11.015  1.2878 -1.7962 -2.6457
  488MOL0     H65834   4.712   3.692  11.240  2.4728  1.8907 -2.8118
  488MOL0     H65835   4.575   3.591  11.227 -2.6066  1.1381  0.9982
  488MOL0     H65836   4.484   3.823  11.282 -3.1740 -1.8888 -0.5370
  488MOL0     H65837   4.438   3.797  11.121 -0.6570 -0.8214  0.8093
  488MOL0     H65838   4.535   4.023  11.113 -1.1850 -0.1573  1.6850
  488MOL0     H65839   4.661   3.922  11.042 -3.6248 -2.5649 -0.8345
  488MOL0     H65840   4.653   4.230  11.213 -0.6815 -2.0729  1.3538
  488MOL0     H65841   4.835   4.457  11.029  1.7964  0.5912  0.4471
  488MOL0     H65842   4.710   4.442  11.150  0.5293  1.7553  0.2459
  488MOL0     H65843   4.870   4.499  11.207  0.3110 -1.4519  1.8720
  488MOL0     H65844   5.495   4.258  11.146  2.2764  0.5185 -1.1370
  488MOL0     H65845   5.665   4.392  11.215 -2.1799 -3.4432 -2.1585
  488MOL0     H65846   5.805   4.535  11.321  0.2961 -0.4717 -0.2636
  488MOL0     H65847   5.803   4.611  11.155 -1.5932  1.9110 -1.2610
  488MOL0     H65848   5.862   4.828  11.279 -2.4867 -1.7032 -0.1806
  488MOL0     H65849   5.862   4.730  11.420  2.0265 -0.4608  0.9672
  488MOL0     H65850   6.041   4.679  11.168  0.9998 -2.1317 -0.2986
  488MOL0     H65851   6.033   4.576  11.313 -1.6544  0.9483  3.6573
  488MOL0     H65852   6.115   4.867  11.298 -1.7671 -0.1209  0.3940
  488MOL0     H65853   6.105   4.777  11.452  0.4951  0.7550 -0.2811
  488MOL0     H65854   6.301   4.726  11.217 -2.7812  0.7660 -1.3842
  488MOL0     H65855   6.271   4.605  11.357 -1.9671 -0.0556  1.1845
  488MOL0     H65856   6.358   4.892  11.369 -0.0298 -0.6925 -2.9596
  488MOL0     H65857   6.335   4.787  11.513  1.0789  1.2961  0.4134
  488MOL0     H65858   6.541   4.712  11.287  1.0188  2.4149  0.3750
  488MOL0     H65859   6.504   4.632  11.430  0.7324 -1.1748 -2.6789
  488MOL0     H65860   6.571   4.925  11.454  0.8304  0.4334  0.0604
  488MOL0     H65861   6.707   4.811  11.436  0.1177 -0.8863  0.9755
  488MOL0     H65862   5.380   4.714  11.294 -1.4609  0.1861 -1.5097
  488MOL0     H65863   5.209   4.573  11.241  0.1673  1.3280 -1.1843
  488MOL0     H65864   5.112   4.061  11.138 -1.7083 -2.0057 -0.8786
  488MOL0     H65865   4.940   3.926  11.196  1.1798  1.7955 -0.0054
  488MOL0     H65866   3.396   3.568  11.025 -2.9476  0.9902 -1.8346
  488MOL0     H65867   3.173   3.467  11.007 -1.0645 -0.0391 -1.4386
  488MOL0     H65868   2.963   3.111  10.557  0.7336  0.5420  1.2373
  488MOL0     H65869   2.809   2.932  10.516 -0.1210 -0.7269 -0.4069
  488MOL0     H65870   2.757   2.717  10.536  0.7367  1.8985  1.1039
  488MOL0     H65871   2.632   2.618  10.614 -0.8451  0.8780  3.5543
  488MOL0     H65872   2.600   2.883  10.478  2.4334 -1.7513 -1.9889
  488MOL0     H65873   2.468   2.823  10.576 -1.4752 -0.0336 -1.5023
  488MOL0     H65874   2.443   2.633  10.457  1.9872 -2.6664 -0.5244
  488MOL0     H65875   2.575   2.663  10.340  0.7143  1.8947 -0.1051
  488MOL0     H65876   2.449   2.834  10.222  0.9111  0.8585 -0.0968
  488MOL0     H65877   2.359   2.877  10.358 -1.1447 -0.6941 -1.7773
  488MOL0     H65878   2.123   2.568  10.191  0.4242 -0.9458 -1.3016
  488MOL0     H65879   2.789   2.862  10.944 -1.8137  1.7633  0.7123
  488MOL0     H65880   2.962   3.043  10.969 -0.6505  0.7688  0.1017
  489MOL0     O65881   7.962  11.178   9.831  0.3144  0.5265  0.0544
  489MOL0     C65882   8.027  11.076   9.797 -0.1926 -0.0175 -0.3284
  489MOL0     O65883   8.025  11.024   9.669 -0.0503 -0.1293 -0.1390
  489MOL0     C65884   7.932  11.066   9.572 -0.7737 -0.4735  0.0658
  489MOL0     C65885   7.965  11.029   9.441  0.1976 -0.0159  0.8944
  489MOL0     C65886   7.879  11.056   9.337 -0.1700  1.0796 -0.2567
  489MOL0     C65887   7.757  11.125   9.350 -0.7443 -0.2705 -0.3418
  489MOL0     O65888   7.676  11.159   9.246 -0.3242  0.4149 -0.3678
  489MOL0     C65889   7.530  11.132   9.236 -0.5136 -1.2919 -0.1092
  489MOL0     C65890   7.505  11.009   9.170 -0.3453 -0.2111  0.0428
  489MOL0     C65891   7.528  10.897   9.270  0.2049  0.8058 -0.3615
  489MOL0     C65892   7.517  10.765   9.194 -0.0295 -0.5546 -1.5002
  489MOL0     C65893   7.398  10.677   9.249  0.8464 -0.2627 -0.0813
  489MOL0     C65894   7.402  10.536   9.184  0.1985 -0.7168 -0.2007
  489MOL0     C65895   7.301  10.439   9.251 -0.9095 -0.8566 -0.7219
  489MOL0     C65896   7.155  10.481   9.216  0.7151 -0.2829  0.0285
  489MOL0     N65897   7.117  10.465   9.074  0.2395 -0.2392 -0.9623
  489MOL0     C65898   7.158  10.373   8.978 -0.2734 -0.3078 -0.2225
  489MOL0     C65899   7.112  10.413   8.859 -0.9583 -0.2191 -0.9088
  489MOL0     C65900   7.149  10.350   8.728 -0.0860 -0.3222 -0.3910
  489MOL0     C65901   7.230  10.450   8.637 -0.7575  1.2404  0.2732
  489MOL0     C65902   7.343  10.523   8.704  0.1186  1.1642  1.1818
  489MOL0     C65903   7.462  10.442   8.733 -0.2852  0.1169 -0.1388
  489MOL0     O65904   7.441  10.353   8.842 -0.6211  0.1959 -0.4263
  489MOL0     C65905   7.531  10.265   8.887 -0.5982 -0.7250  0.2751
  489MOL0     C65906   7.633  10.213   8.812 -0.4396 -0.2207  0.6744
  489MOL0     C65907   7.724  10.126   8.855 -0.5139  0.7335 -0.5972
  489MOL0     C65908   7.843  10.095   8.766  0.1396  1.0540  0.8323
  489MOL0     C65909   7.708  10.066   8.988  0.7377 -0.2977  0.9651
  489MOL0     C65910   7.791   9.960   9.052  0.1545  0.6899  0.0074
  489MOL0     O65911   7.738   9.898   9.166 -0.6228  0.3986  0.0706
  489MOL0     C65912   7.802   9.775   9.196 -0.1840  0.9284 -0.6514
  489MOL0     C65913   7.716   9.668   9.185  0.4146 -0.3583 -0.2562
  489MOL0     C65914   7.760   9.545   9.210  0.4201 -0.2965  0.0808
  489MOL0     C65915   7.899   9.518   9.236  0.0710 -0.2621  0.4620
  489MOL0     O65916   7.960   9.399   9.266  0.4094 -0.0481 -0.2596
  489MOL0     C65917   7.891   9.279   9.236  0.5177  0.2192 -0.4680
  489MOL0     C65918   7.973   9.166   9.293  0.5697  0.3947  0.1176
  489MOL0     C65919   7.905   9.036   9.323 -0.4369  0.7230 -0.3864
  489MOL0     C65920   7.997   8.943   9.411 -0.0534  0.5813 -0.1065
  489MOL0     C65921   7.937   8.800   9.426  0.3702  0.2059 -0.1040
  489MOL0     C65922   8.027   8.717   9.509 -0.3806  0.4243  0.0747
  489MOL0     C65923   7.976   8.576   9.532  0.0398 -0.3489 -0.2519
  489MOL0     C65924   8.029   8.466   9.436 -0.9778 -0.5472 -0.0393
  489MOL0    Cl65925   7.970   8.513   9.272 -0.1141  0.0657 -0.0059
  489MOL0     C65926   7.981   9.626   9.253 -0.1031 -0.7670 -0.0717
  489MOL0     C65927   7.943   9.762   9.225  0.0742 -0.1085 -0.6053
  489MOL0     O65928   7.889   9.923   8.991 -0.2582  0.1847 -0.7932
  489MOL0     C65929   7.609  10.121   9.062 -0.2085  0.6024 -0.0450
  489MOL0     C65930   7.516  10.219   9.018 -1.7706  0.0205 -0.2407
  489MOL0     N65931   7.040  10.532   8.880  0.4926 -0.1573  0.5831
  489MOL0     N65932   7.038  10.559   9.009 -0.1175 -0.6199 -0.2477
  489MOL0     C65933   7.728  11.168   9.479 -0.1876 -0.3247  0.4968
  489MOL0     C65934   7.811  11.142   9.583 -0.4837  0.1888 -0.6957
  489MOL0     C65935   8.114  11.009   9.893 -0.0760  0.8888 -0.3972
  489MOL0     C65936   8.209  10.913   9.853 -1.6572 -0.4404 -0.0035
  489MOL0     C65937   8.308  10.865   9.933  0.3634 -0.1104 -0.6306
  489MOL0     C65938   8.320  10.898  10.070  0.3517  0.6369 -0.8822
  489MOL0     O65939   8.413  10.825  10.147 -0.3886 -0.3971  0.0066
  489MOL0     C65940   8.378  10.817  10.290  0.1266 -0.0357  0.5188
  489MOL0     C65941   8.487  10.734  10.356 -0.3734  0.2397  0.4530
  489MOL0     C65942   8.505  10.736  10.503  0.3812 -0.3401 -0.5051
  489MOL0     C65943   8.378  10.717  10.579  0.5419 -0.4860 -1.0989
  489MOL0     C65944   8.308  10.597  10.552  0.3249  0.4814  1.2820
  489MOL0     C65945   8.245  10.501  10.516 -0.3891 -0.0900  0.9151
  489MOL0     C65946   8.218  10.986  10.111 -0.4826 -0.5929 -0.1765
  489MOL0     C65947   8.121  11.050  10.029 -0.3146  0.8073  0.1136
  489MOL0     H65948   8.057  10.977   9.416  1.1932  2.1197 -0.1322
  489MOL0     H65949   7.912  11.026   9.238  0.4636 -2.2245  0.8487
  489MOL0     H65950   7.487  11.136   9.336 -1.4938 -1.3768 -0.5125
  489MOL0     H65951   7.486  11.219   9.186  4.8826  2.3731  0.6901
  489MOL0     H65952   7.405  11.012   9.126 -0.0018  1.8471 -0.6886
  489MOL0     H65953   7.569  11.003   9.082  1.5267  0.6681  1.2763
  489MOL0     H65954   7.624  10.895   9.322  0.4973  1.4600 -0.8591
  489MOL0     H65955   7.437  10.907   9.329 -0.9068 -2.4266 -1.3129
  489MOL0     H65956   7.494  10.790   9.090  1.6566  0.7788 -1.5742
  489MOL0     H65957   7.612  10.711   9.201 -0.8807 -2.1730 -1.8802
  489MOL0     H65958   7.405  10.653   9.355 -0.7790  0.4258  0.2093
  489MOL0     H65959   7.302  10.728   9.241  1.8014  1.3600 -3.5528
  489MOL0     H65960   7.367  10.552   9.082 -1.3874  0.7941  0.5311
  489MOL0     H65961   7.501  10.488   9.186 -0.7967 -3.2609 -2.9698
  489MOL0     H65962   7.315  10.335   9.220  1.5378 -0.1246 -2.3868
  489MOL0     H65963   7.312  10.445   9.360 -2.1926  0.5331 -0.6190
  489MOL0     H65964   7.147  10.586   9.243 -0.9161  0.1618 -1.9288
  489MOL0     H65965   7.082  10.444   9.288  2.6497 -0.9957  1.7285
  489MOL0     H65966   7.228  10.293   8.998  0.4697  0.2227 -0.6474
  489MOL0     H65967   7.221  10.273   8.755 -0.8147 -1.5011 -1.6419
  489MOL0     H65968   7.061  10.308   8.678  0.4212 -0.0976 -1.5126
  489MOL0     H65969   7.164  10.525   8.592 -2.0129 -0.9455 -1.7744
  489MOL0     H65970   7.266  10.390   8.553 -0.8682 -1.1586  1.8439
  489MOL0     H65971   7.307  10.577   8.792 -1.4657  4.1439 -1.1065
  489MOL0     H65972   7.382  10.604   8.642 -0.8118 -0.1544 -1.2648
  489MOL0     H65973   7.539  10.516   8.758 -0.8696  0.6850 -0.0096
  489MOL0     H65974   7.494  10.384   8.646  4.7139  0.4579  1.1369
  489MOL0     H65975   7.658  10.256   8.715  1.4783  0.0771  1.2574
  489MOL0     H65976   7.850   9.989   8.739 -2.2856 -0.0907  4.1312
  489MOL0     H65977   7.830  10.160   8.679 -0.9553  2.9996  2.3871
  489MOL0     H65978   7.940  10.124   8.808  1.0672  0.6060 -0.8779
  489MOL0     H65979   7.611   9.675   9.158 -0.8289 -2.8886  3.1246
  489MOL0     H65980   7.685   9.472   9.182  2.4127 -2.1419 -0.7362
  489MOL0     H65981   7.789   9.283   9.276 -0.4393 -0.9195 -2.6070
  489MOL0     H65982   7.890   9.271   9.127 -1.3806 -4.3901 -0.3312
  489MOL0     H65983   8.053   9.143   9.223  0.8477  2.1664 -0.1796
  489MOL0     H65984   8.013   9.203   9.388 -3.8893 -2.0154  3.3533
  489MOL0     H65985   7.884   8.987   9.227  1.6534  1.0983 -1.0748
  489MOL0     H65986   7.811   9.056   9.375 -0.0751  0.0728  0.5335
  489MOL0     H65987   8.099   8.936   9.371 -0.2736 -1.4967 -0.3698
  489MOL0     H65988   8.014   8.986   9.511  0.6024 -0.0087  0.0452
  489MOL0     H65989   7.925   8.759   9.325  0.6413 -1.0596  0.3605
  489MOL0     H65990   7.837   8.794   9.469 -0.4427 -1.1673 -2.0190
  489MOL0     H65991   8.120   8.720   9.452  0.3731 -1.1982  1.1681
  489MOL0     H65992   8.052   8.754   9.608  0.5104 -1.0102  0.4109
  489MOL0     H65993   7.866   8.570   9.530 -0.0241 -0.0795  1.2965
  489MOL0     H65994   8.013   8.548   9.631 -1.2942  1.2590  0.7631
  489MOL0     H65995   8.014   8.365   9.474 -1.0016  0.2207  2.1154
  489MOL0     H65996   8.136   8.478   9.421 -0.9301 -1.2256 -0.2766
  489MOL0     H65997   8.087   9.614   9.273 -0.2281  0.5759  1.6349
  489MOL0     H65998   8.006   9.850   9.233  0.5927 -0.5250 -0.0380
  489MOL0     H65999   7.594  10.085   9.163 -1.5064  3.2597  0.8018
  489MOL0     H66000   7.443  10.260   9.087 -1.0107 -0.0074  0.6051
  489MOL0     H66001   7.642  11.231   9.501  1.1261  1.9719 -0.5554
  489MOL0     H66002   7.788  11.201   9.672  1.8865  2.0472 -1.2048
  489MOL0     H66003   8.222  10.882   9.750  1.6804 -0.5656  0.3362
  489MOL0     H66004   8.354  10.773   9.897 -0.4410 -0.0947 -1.7593
  489MOL0     H66005   8.370  10.913  10.342 -0.8847 -0.0296  0.3689
  489MOL0     H66006   8.280  10.770  10.302  0.3435 -0.0807  2.2538
  489MOL0     H66007   8.580  10.768  10.310 -2.3177  1.9177 -2.5787
  489MOL0     H66008   8.472  10.628  10.331  2.8120 -0.6113  1.6618
  489MOL0     H66009   8.548  10.832  10.533  2.9696 -2.2846  2.7312
  489MOL0     H66010   8.573  10.655  10.535  2.0811  0.3542 -2.1812
  489MOL0     H66011   8.313  10.805  10.568  1.0448 -0.2801 -2.7012
  489MOL0     H66012   8.395  10.698  10.685 -2.2175 -2.5018 -0.9094
  489MOL0     H66013   8.197  10.409  10.489  0.0498  0.9004 -4.2046
  489MOL0     H66014   8.211  11.026  10.212 -1.3310  2.3949 -1.3290
  489MOL0     H66015   8.063  11.127  10.077 -1.9805  0.1681 -0.7996
  490MOL0     O66016   1.259   2.112  10.803  0.3352  0.2224 -0.3184
  490MOL0     C66017   1.173   2.198  10.839 -0.8809 -0.1566  0.2051
  490MOL0     O66018   1.072   2.189  10.931  0.1005 -0.4886  0.0490
  490MOL0     C66019   1.025   2.072  10.986  0.3692  0.1236 -0.2429
  490MOL0     C66020   0.951   2.095  11.102  0.6468  0.5980 -0.2772
  490MOL0     C66021   0.899   1.986  11.174  0.0910  0.3657 -0.2498
  490MOL0     C66022   0.921   1.850  11.132  0.7243 -0.4030 -0.3847
  490MOL0     O66023   0.890   1.751  11.222 -0.3712  0.1370  0.5288
  490MOL0     C66024   0.854   1.622  11.165  0.3500 -0.3310  0.2830
  490MOL0     C66025   0.810   1.519  11.268  1.1640  0.5541  0.1747
  490MOL0     C66026   0.906   1.511  11.386  0.0876 -0.5615 -0.0358
  490MOL0     C66027   0.850   1.428  11.494 -0.6285 -0.3113 -0.7562
  490MOL0     C66028   0.948   1.423  11.615  0.4282  0.0791  0.4664
  490MOL0     C66029   0.934   1.545  11.697  0.3961  0.2335  0.4568
  490MOL0     C66030   0.987   1.530  11.844  1.1595 -0.1830 -0.7230
  490MOL0     C66031   1.132   1.468  11.848  0.1739 -0.1709  0.0528
  490MOL0     N66032   1.223   1.522  11.956  0.4614 -0.2653 -0.6867
  490MOL0     C66033   1.181   1.571  12.079 -0.3485  0.0556  0.3844
  490MOL0     C66034   1.295   1.594  12.148 -0.6601 -0.0388 -0.2669
  490MOL0     C66035   1.323   1.645  12.281  0.1200  0.6267  0.7449
  490MOL0     C66036   1.259   1.777  12.287  0.2394 -0.6390  0.5531
  490MOL0     C66037   1.287   1.839  12.429  0.1168 -0.8814 -0.1802
  490MOL0     C66038   1.199   1.782  12.540 -0.1311  0.9874 -0.2028
  490MOL0     O66039   1.068   1.842  12.521 -0.1518  0.6034  0.0450
  490MOL0     C66040   0.965   1.795  12.604  0.1876 -0.1292 -0.1204
  490MOL0     C66041   0.854   1.742  12.539  0.5793  0.5197 -0.1830
  490MOL0     C66042   0.741   1.696  12.605 -0.2556  0.0345 -0.6032
  490MOL0     C66043   0.625   1.642  12.524  0.6837  0.4642 -0.7033
  490MOL0     C66044   0.739   1.703  12.750  0.3845 -0.0378 -0.4812
  490MOL0     C66045   0.611   1.663  12.824  0.3203  0.4819  1.0287
  490MOL0     O66046   0.528   1.565  12.777 -0.7898  0.0554  0.2433
  490MOL0     C66047   0.405   1.531  12.822  0.8369 -0.4542 -0.3358
  490MOL0     C66048   0.316   1.610  12.900 -0.4981 -1.0563 -0.0183
  490MOL0     C66049   0.199   1.560  12.956 -0.4483 -0.1706 -0.0504
  490MOL0     C66050   0.148   1.436  12.906  0.8600 -1.5739 -0.0596
  490MOL0     O66051   0.022   1.390  12.923  0.5598 -0.3656 -0.4193
  490MOL0     C66052  -0.070   1.431  13.030 -0.8429  0.2109  0.7007
  490MOL0     C66053  -0.069   1.346  13.152  0.3158  0.7250 -0.1306
  490MOL0     C66054  -0.175   1.389  13.255  0.0777 -0.6339  0.1221
  490MOL0     C66055  -0.310   1.421  13.191  0.1271 -0.3091  0.7830
  490MOL0     C66056  -0.411   1.428  13.301  1.1535  0.3981  0.3444
  490MOL0     C66057  -0.559   1.449  13.259 -1.0337 -0.1912 -0.4998
  490MOL0     C66058  -0.622   1.325  13.198 -0.1956 -0.5275 -0.2054
  490MOL0     C66059  -0.765   1.351  13.185  0.3090  0.0201 -0.2545
  490MOL0    Cl66060  -0.839   1.327  13.351 -0.7962  0.3106 -0.1001
  490MOL0     C66061   0.229   1.365  12.820 -0.3214  0.7059  0.8497
  490MOL0     C66062   0.352   1.407  12.778 -0.6639 -0.6094 -0.5739
  490MOL0     O66063   0.583   1.745  12.909 -0.6225 -0.4447  0.2939
  490MOL0     C66064   0.857   1.756  12.819 -1.0750 -0.1043  0.5376
  490MOL0     C66065   0.969   1.803  12.744  0.1905 -0.6778  0.0740
  490MOL0     N66066   1.403   1.551  12.066 -0.8375  0.9911  0.3980
  490MOL0     N66067   1.357   1.512  11.949 -0.8658  0.1086 -0.6246
  490MOL0     C66068   0.999   1.827  11.024  0.3103  0.0673  0.2297
  490MOL0     C66069   1.051   1.937  10.951  0.3468 -0.8084 -0.0585
  490MOL0     C66070   1.178   2.339  10.774  0.3003 -0.2080  0.1551
  490MOL0     C66071   1.263   2.362  10.670 -0.0515  0.5016  0.3978
  490MOL0     C66072   1.276   2.489  10.614  0.6083  0.0898  0.6008
  490MOL0     C66073   1.200   2.599  10.669  1.3857  0.5923 -0.4689
  490MOL0     O66074   1.178   2.721  10.613  0.4986 -0.2343  0.0047
  490MOL0     C66075   1.290   2.767  10.540 -0.0921  0.2362 -0.7162
  490MOL0     C66076   1.282   2.919  10.525  0.1981 -0.1864 -1.2118
  490MOL0     C66077   1.142   2.956  10.477  0.0666 -0.2515  0.2424
  490MOL0     C66078   1.113   3.108  10.473  0.4110 -0.5221  0.1935
  490MOL0     C66079   1.195   3.208  10.546 -0.5671  0.7763 -0.1476
  490MOL0     C66080   1.273   3.270  10.612  0.0361  1.0000 -0.7745
  490MOL0     C66081   1.119   2.572  10.777  0.5463 -0.3987  1.1013
  490MOL0     C66082   1.105   2.445  10.828  0.1839  0.4777 -0.2536
  490MOL0     H66083   0.923   2.196  11.131  3.3453  1.0468  1.1328
  490MOL0     H66084   0.852   1.997  11.272  0.8242 -1.1925  0.3131
  490MOL0     H66085   0.781   1.644  11.086  0.0756  1.8669  1.0775
  490MOL0     H66086   0.932   1.572  11.108  0.0861  0.4774 -0.8225
  490MOL0     H66087   0.708   1.543  11.300  0.0459 -1.0313 -1.9350
  490MOL0     H66088   0.806   1.418  11.225  2.3702  1.0423 -1.1631
  490MOL0     H66089   1.003   1.466  11.363  1.0518  0.6048  1.6007
  490MOL0     H66090   0.911   1.617  11.412  2.0446  0.1130 -2.6700
  490MOL0     H66091   0.753   1.471  11.521  0.5069  1.1843  1.2529
  490MOL0     H66092   0.834   1.325  11.460 -1.5814 -0.0136 -1.2444
  490MOL0     H66093   0.922   1.336  11.676 -0.7373 -1.8341 -2.4733
  490MOL0     H66094   1.048   1.421  11.569 -0.7558  2.5604 -2.6251
  490MOL0     H66095   0.994   1.620  11.645 -0.1577 -1.0085 -2.1248
  490MOL0     H66096   0.829   1.575  11.710 -0.9006 -4.1049  1.8833
  490MOL0     H66097   0.971   1.628  11.891 -3.5767 -1.2791  0.4713
  490MOL0     H66098   0.915   1.469  11.900 -0.8427  1.4369 -1.4039
  490MOL0     H66099   1.185   1.490  11.755  0.8090  0.1684  0.4915
  490MOL0     H66100   1.133   1.359  11.837  1.1767  0.0076 -2.3306
  490MOL0     H66101   1.077   1.588  12.102 -0.2046 -0.7607  1.7644
  490MOL0     H66102   1.289   1.572  12.355  2.8176  0.0404  1.5495
  490MOL0     H66103   1.430   1.659  12.301  0.5623 -0.2448 -0.8581
  490MOL0     H66104   1.151   1.767  12.274  0.1366  0.5093  0.4139
  490MOL0     H66105   1.305   1.837  12.208  0.7051 -2.2764 -0.4785
  490MOL0     H66106   1.265   1.946  12.432  1.3100 -0.6191 -0.0247
  490MOL0     H66107   1.393   1.849  12.454  0.0374  4.0429 -0.8445
  490MOL0     H66108   1.249   1.807  12.634 -1.8853  0.5888  0.8703
  490MOL0     H66109   1.203   1.675  12.518  1.6928  1.2647 -1.5118
  490MOL0     H66110   0.854   1.744  12.430 -2.7270 -0.8831 -0.3379
  490MOL0     H66111   0.530   1.695  12.537 -0.3452 -1.3704 -0.3987
  490MOL0     H66112   0.654   1.650  12.419  2.2645 -0.6006 -0.3796
  490MOL0     H66113   0.613   1.536  12.545 -0.3044  0.9245  1.2634
  490MOL0     H66114   0.349   1.709  12.929  1.8901 -1.6460 -0.5274
  490MOL0     H66115   0.143   1.636  13.011  0.6513  2.4614 -2.3123
  490MOL0     H66116  -0.055   1.539  13.038 -0.2333  0.5279 -2.8765
  490MOL0     H66117  -0.165   1.410  12.979 -0.7225 -0.9066  0.9163
  490MOL0     H66118  -0.093   1.243  13.124 -3.6973  1.7670 -1.2059
  490MOL0     H66119   0.033   1.359  13.190  1.3890  1.6637 -3.0792
  490MOL0     H66120  -0.127   1.473  13.306 -0.8751 -0.1979  0.3344
  490MOL0     H66121  -0.197   1.319  13.336  0.9857  0.2919  1.2132
  490MOL0     H66122  -0.302   1.514  13.135 -2.4944 -1.5482 -1.9360
  490MOL0     H66123  -0.333   1.336  13.126 -0.0748  0.4363 -0.1247
  490MOL0     H66124  -0.389   1.519  13.358  2.0487 -0.8973  2.1932
  490MOL0     H66125  -0.415   1.337  13.361  1.4846  0.4929  0.5153
  490MOL0     H66126  -0.603   1.480  13.353  2.0122  2.4464  0.2317
  490MOL0     H66127  -0.575   1.530  13.188 -0.0489 -0.1856 -0.7286
  490MOL0     H66128  -0.608   1.239  13.264  2.3209  1.6926  2.4345
  490MOL0     H66129  -0.582   1.315  13.097  0.0992  2.9752 -0.5758
  490MOL0     H66130  -0.818   1.272  13.131  0.2373 -0.5929  0.6892
  490MOL0     H66131  -0.769   1.452  13.143  2.5374  0.4192  0.3757
  490MOL0     H66132   0.197   1.265  12.791 -0.6885  0.6838  1.3177
  490MOL0     H66133   0.411   1.333  12.724 -2.7443 -3.1147  0.4030
  490MOL0     H66134   0.854   1.750  12.927 -1.0750  0.4440  0.5739
  490MOL0     H66135   1.050   1.855  12.794  0.1193 -1.2261  0.7853
  490MOL0     H66136   1.029   1.730  10.985  2.3558  0.8303 -0.2184
  490MOL0     H66137   1.109   1.921  10.860  0.4265  1.0526 -0.3635
  490MOL0     H66138   1.322   2.281  10.627 -1.3425 -0.3421  0.1254
  490MOL0     H66139   1.330   2.515  10.524  0.2891 -1.2279  0.0004
  490MOL0     H66140   1.387   2.742  10.584  1.9032  0.2737 -4.6702
  490MOL0     H66141   1.289   2.718  10.443  0.3941 -1.6488  0.1797
  490MOL0     H66142   1.358   2.953  10.455 -0.3768 -1.4103 -2.4925
  490MOL0     H66143   1.312   2.961  10.621  0.7212 -0.9629 -1.0257
  490MOL0     H66144   1.062   2.908  10.535  0.3771  0.3491  1.1968
  490MOL0     H66145   1.127   2.915  10.377  1.1821 -0.7619  0.2802
  490MOL0     H66146   1.008   3.125  10.497  0.8445 -1.4831  3.2853
  490MOL0     H66147   1.105   3.130  10.366 -1.1378 -0.8809  0.2210
  490MOL0     H66148   1.328   3.337  10.674 -0.5009 -0.7745  1.7728
  490MOL0     H66149   1.056   2.646  10.826 -3.1918 -0.5612 -2.8436
  490MOL0     H66150   1.033   2.432  10.908 -2.4373 -1.4588 -2.7238
  491MOL0     O66151  11.187  11.171   7.042 -0.2055 -0.1569  0.8868
  491MOL0     C66152  11.144  11.278   6.990  0.0566  0.7337 -0.6311
  491MOL0     O66153  11.226  11.375   6.932 -0.2421 -0.0914 -0.7098
  491MOL0     C66154  11.356  11.347   6.931  0.1579  0.4831  0.1564
  491MOL0     C66155  11.425  11.344   6.808 -0.1606  0.8403  0.5471
  491MOL0     C66156  11.553  11.295   6.800 -0.2786  0.7147 -0.2925
  491MOL0     C66157  11.624  11.255   6.911 -0.7411 -0.0569 -0.4758
  491MOL0     O66158  11.759  11.234   6.886 -0.2361 -0.3436  0.0372
  491MOL0     C66159  11.852  11.289   6.982  0.3087  0.0570 -0.6142
  491MOL0     C66160  11.999  11.289   6.932 -0.2728 -0.1812  0.4754
  491MOL0     C66161  12.083  11.167   6.964 -0.0417  0.2473 -1.3353
  491MOL0     C66162  12.043  11.053   6.856 -0.8461 -0.8437 -0.6868
  491MOL0     C66163  12.097  10.916   6.896  0.4004  0.3701  0.6365
  491MOL0     C66164  12.252  10.910   6.881  0.1194 -0.3547 -0.4292
  491MOL0     C66165  12.304  10.779   6.952 -0.3676 -1.0164  0.1590
  491MOL0     C66166  12.336  10.788   7.099 -0.0744 -0.5325  0.3966
  491MOL0     N66167  12.386  10.658   7.144 -0.9291  0.4053 -0.0862
  491MOL0     C66168  12.497  10.593   7.100  0.8046  0.3081  0.9398
  491MOL0     C66169  12.492  10.467   7.169  0.2700 -0.9138  0.2908
  491MOL0     C66170  12.574  10.340   7.144 -0.6577  0.2016  0.2902
  491MOL0     C66171  12.492  10.218   7.088 -0.1574 -0.5166 -0.4255
  491MOL0     C66172  12.548  10.074   7.111 -0.1034  0.2630  0.6911
  491MOL0     C66173  12.685  10.056   7.046  0.4531 -0.2631 -0.3483
  491MOL0     O66174  12.751   9.956   7.116  0.0262  0.4922 -0.0720
  491MOL0     C66175  12.874   9.904   7.066 -0.3180  0.0140  0.9932
  491MOL0     C66176  12.962   9.842   7.153 -0.0968 -0.3854  0.6580
  491MOL0     C66177  13.090   9.807   7.118  0.4592  0.1301  0.0948
  491MOL0     C66178  13.168   9.765   7.238 -0.2471 -0.1289 -0.3866
  491MOL0     C66179  13.136   9.823   6.982 -0.5747  0.0449 -0.4579
  491MOL0     C66180  13.275   9.824   6.945 -0.4558 -0.2286  0.5790
  491MOL0     O66181  13.306   9.846   6.817  0.3903  0.6363 -0.5553
  491MOL0     C66182  13.440   9.885   6.812  0.4076 -0.8035  0.8900
  491MOL0     C66183  13.461  10.024   6.814 -0.0705  0.7092  0.6462
  491MOL0     C66184  13.592  10.080   6.820  0.8836  0.2086 -0.4426
  491MOL0     C66185  13.706   9.996   6.820  1.1118  0.5770  0.0023
  491MOL0     O66186  13.837  10.036   6.833  0.6427 -1.1314  0.6242
  491MOL0     C66187  13.855  10.175   6.867  0.0854 -1.1371  0.3812
  491MOL0     C66188  14.001  10.205   6.903 -0.3401  0.0650 -0.3391
  491MOL0     C66189  14.025  10.355   6.891  0.3624 -0.0254  0.3562
  491MOL0     C66190  14.129  10.387   6.987  0.1807 -0.1138  0.1353
  491MOL0     C66191  14.176  10.538   6.983  0.2473 -0.1080 -0.1529
  491MOL0     C66192  14.286  10.562   7.073 -0.7598 -0.3591 -1.2619
  491MOL0     C66193  14.336  10.709   7.080  0.5543  0.0772  0.8160
  491MOL0     C66194  14.449  10.724   7.181 -0.5938 -0.2512 -0.3232
  491MOL0    Cl66195  14.496  10.888   7.189  0.2813 -0.1489  0.1007
  491MOL0     C66196  13.678   9.853   6.812 -0.1699 -0.0204  0.3739
  491MOL0     C66197  13.553   9.800   6.805  0.2765  1.0258 -0.0276
  491MOL0     O66198  13.354   9.788   7.030 -0.1979  0.2791  0.4589
  491MOL0     C66199  13.038   9.868   6.889  0.7865  0.7102 -0.1908
  491MOL0     C66200  12.910   9.907   6.927  0.4515 -0.6627 -0.0215
  491MOL0     N66201  12.381  10.472   7.241 -0.0181 -1.2144 -0.3032
  491MOL0     N66202  12.328  10.582   7.237  0.1157  0.2678 -0.4443
  491MOL0     C66203  11.569  11.256   7.030  0.0972 -0.1843  0.7407
  491MOL0     C66204  11.439  11.307   7.040 -0.2258 -0.6968 -0.5092
  491MOL0     C66205  11.000  11.308   7.002  0.4657  0.6983  0.1214
  491MOL0     C66206  10.907  11.221   7.043  0.1399  1.0145  0.1148
  491MOL0     C66207  10.767  11.252   7.052 -1.2422  0.3046 -0.3907
  491MOL0     C66208  10.731  11.384   7.022 -1.0758  0.2004 -1.1212
  491MOL0     O66209  10.602  11.430   7.029 -0.5844 -0.0340  0.0560
  491MOL0     C66210  10.493  11.334   7.037  0.3265 -0.1955 -0.7016
  491MOL0     C66211  10.362  11.406   6.989 -0.0884  0.5325 -0.2727
  491MOL0     C66212  10.247  11.312   7.041  0.3725 -0.3397  0.5488
  491MOL0     C66213  10.124  11.356   6.957 -0.2571 -0.1717 -0.7638
  491MOL0     C66214  10.005  11.274   6.994 -0.3344 -0.7762  0.7400
  491MOL0     C66215   9.915  11.195   6.990 -1.0514 -0.2828  0.4281
  491MOL0     C66216  10.830  11.482   6.998 -0.0796 -0.2057 -0.3195
  491MOL0     C66217  10.965  11.442   6.989 -0.1574  0.5082 -0.8698
  491MOL0     H66218  11.380  11.381   6.716  0.6720 -0.8851 -0.6005
  491MOL0     H66219  11.601  11.289   6.704 -0.5247 -1.3062 -0.3335
  491MOL0     H66220  11.816  11.385   7.019 -0.5079 -1.5867  3.3774
  491MOL0     H66221  11.849  11.228   7.073  3.3780  1.9775  0.9619
  491MOL0     H66222  11.997  11.295   6.823  1.6246 -3.0954  0.1632
  491MOL0     H66223  12.038  11.380   6.978  1.9463 -0.6110 -0.4255
  491MOL0     H66224  12.188  11.197   6.952  0.8130 -1.4132  1.1955
  491MOL0     H66225  12.068  11.123   7.064  2.1969 -0.9144 -1.4563
  491MOL0     H66226  11.935  11.044   6.866 -1.3981  2.9255 -1.6940
  491MOL0     H66227  12.078  11.081   6.756 -0.8414  1.6148 -0.0611
  491MOL0     H66228  12.064  10.894   6.998 -0.3788 -1.8537 -0.0548
  491MOL0     H66229  12.036  10.845   6.840 -1.4272 -0.4207  3.3854
  491MOL0     H66230  12.282  10.902   6.776  0.0984 -1.4723 -0.3690
  491MOL0     H66231  12.308  10.993   6.925  1.7783 -1.6367 -0.0238
  491MOL0     H66232  12.243  10.691   6.927  0.3121 -1.9702  1.7544
  491MOL0     H66233  12.396  10.755   6.898 -1.5557 -3.3884 -0.9767
  491MOL0     H66234  12.244  10.816   7.151 -0.6971  0.4265 -1.1286
  491MOL0     H66235  12.403  10.874   7.110 -4.4259  3.1141  1.2544
  491MOL0     H66236  12.569  10.618   7.022  0.5796 -4.4207 -1.1312
  491MOL0     H66237  12.656  10.369   7.078 -1.4639  1.5895 -0.1591
  491MOL0     H66238  12.634  10.310   7.230  1.1984  1.3722 -0.5321
  491MOL0     H66239  12.458  10.237   6.986 -0.4318 -0.0439 -0.2524
  491MOL0     H66240  12.406  10.197   7.153  1.7023 -1.7814  1.7644
  491MOL0     H66241  12.480   9.997   7.071 -0.9644  1.3238  0.0499
  491MOL0     H66242  12.555  10.050   7.217  0.1725  0.1147  0.6382
  491MOL0     H66243  12.744  10.148   7.050  0.7410 -0.3325 -2.2318
  491MOL0     H66244  12.676  10.031   6.940 -3.4259  0.1500 -0.2494
  491MOL0     H66245  12.922   9.837   7.254 -2.3091  3.9356  0.2075
  491MOL0     H66246  13.205   9.663   7.227  1.4600  0.2793  1.0724
  491MOL0     H66247  13.254   9.832   7.247 -1.1764  1.1409 -0.6792
  491MOL0     H66248  13.110   9.777   7.330 -2.2217 -1.2163 -1.4339
  491MOL0     H66249  13.380  10.096   6.802 -1.7327 -1.2065 -0.3616
  491MOL0     H66250  13.617  10.186   6.824  0.3228  0.3136  1.0070
  491MOL0     H66251  13.839  10.236   6.777  2.6451 -0.4071  0.3297
  491MOL0     H66252  13.793  10.210   6.949 -2.4406 -0.9406 -1.4782
  491MOL0     H66253  14.019  10.154   6.998  0.3368  1.5123  0.3567
  491MOL0     H66254  14.067  10.155   6.832 -1.0898 -0.4265 -0.6993
  491MOL0     H66255  13.933  10.407   6.919 -0.4902  0.7585 -3.3864
  491MOL0     H66256  14.057  10.379   6.790 -0.1913 -0.2175  0.1310
  491MOL0     H66257  14.106  10.360   7.090  2.5454 -1.7822  0.3054
  491MOL0     H66258  14.218  10.335   6.951  0.8084  2.1527 -1.9103
  491MOL0     H66259  14.095  10.609   7.001 -0.0179 -0.3719 -0.3042
  491MOL0     H66260  14.202  10.560   6.879  0.9382  0.5805  0.1510
  491MOL0     H66261  14.253  10.530   7.172 -3.0248 -2.8173 -2.6981
  491MOL0     H66262  14.367  10.497   7.038 -0.6694  1.4706 -4.9591
  491MOL0     H66263  14.250  10.765   7.118  0.0657  2.4074 -3.1391
  491MOL0     H66264  14.371  10.738   6.981 -0.4720  0.5859  0.5864
  491MOL0     H66265  14.527  10.655   7.148  0.6692  1.1171 -0.2978
  491MOL0     H66266  14.417  10.687   7.279 -0.5027 -0.6532 -0.4442
  491MOL0     H66267  13.761   9.784   6.806 -1.0836 -1.1479  0.1441
  491MOL0     H66268  13.528   9.694   6.797 -2.8998  1.5862  1.1774
  491MOL0     H66269  13.058   9.886   6.784 -0.8469  0.4829 -0.5661
  491MOL0     H66270  12.837   9.936   6.852 -0.0797 -1.8949 -0.0005
  491MOL0     H66271  11.620  11.214   7.116 -1.8583  0.6630  2.3948
  491MOL0     H66272  11.390  11.315   7.137  0.5314  0.8066 -0.2270
  491MOL0     H66273  10.924  11.116   7.062 -1.1555  0.2810 -2.2596
  491MOL0     H66274  10.704  11.174   7.095  0.3677 -1.0480 -0.3442
  491MOL0     H66275  10.521  11.252   6.971  3.2193 -0.2218  0.3964
  491MOL0     H66276  10.481  11.291   7.137 -0.7847 -2.3255 -1.6848
  491MOL0     H66277  10.355  11.417   6.880 -3.2928  0.2832 -0.1777
  491MOL0     H66278  10.349  11.504   7.036 -2.3002 -0.4966  1.4700
  491MOL0     H66279  10.237  11.337   7.147  0.1048  1.3687  0.1440
  491MOL0     H66280  10.269  11.206   7.028  0.3124 -0.2190 -0.6187
  491MOL0     H66281  10.149  11.340   6.852  2.4113 -0.1484 -0.1908
  491MOL0     H66282  10.108  11.464   6.968  1.1532 -0.0434  0.2775
  491MOL0     H66283   9.838  11.121   6.983 -0.8127 -0.4489 -0.7786
  491MOL0     H66284  10.790  11.581   6.980  0.3228 -0.1183 -0.7569
  491MOL0     H66285  11.039  11.520   6.977  2.2796 -1.5089  0.3071
  492MOL0     O66286   5.520   2.746   3.227 -0.2234 -0.0846 -0.1013
  492MOL0     C66287   5.577   2.782   3.118  0.2038 -0.2574 -0.3098
  492MOL0     O66288   5.515   2.806   3.001  0.9198 -0.0862  0.2583
  492MOL0     C66289   5.382   2.806   3.002  0.6985 -1.1121 -0.1854
  492MOL0     C66290   5.303   2.894   3.085 -0.1235  0.3954 -0.0695
  492MOL0     C66291   5.165   2.907   3.068  0.0392  0.3280  0.1872
  492MOL0     C66292   5.106   2.826   2.973  0.5163 -0.6201  0.6308
  492MOL0     O66293   4.964   2.823   2.975  0.0968 -0.6164  0.6941
  492MOL0     C66294   4.891   2.741   2.882 -0.5628  0.3549 -0.0870
  492MOL0     C66295   4.752   2.726   2.938  0.1306 -0.5819 -0.2261
  492MOL0     C66296   4.682   2.865   2.953 -0.5966  0.0840 -0.1474
  492MOL0     C66297   4.601   2.891   2.825  0.2192 -0.3387  0.3752
  492MOL0     C66298   4.511   3.018   2.830 -0.4015  0.4673 -0.3473
  492MOL0     C66299   4.389   3.026   2.923  0.2877  0.3729  0.2782
  492MOL0     C66300   4.289   3.129   2.875  0.2385  0.5671 -0.0944
  492MOL0     C66301   4.354   3.256   2.835 -0.0065 -0.4785 -0.9224
  492MOL0     N66302   4.235   3.342   2.799 -0.2002 -0.4244  0.5293
  492MOL0     C66303   4.129   3.307   2.721 -0.4765  0.3169 -0.0600
  492MOL0     C66304   4.037   3.407   2.735 -0.3688  0.0706  0.1433
  492MOL0     C66305   3.914   3.406   2.652  0.4180 -0.3959  0.6414
  492MOL0     C66306   3.794   3.373   2.735 -0.9379 -0.3616 -0.4204
  492MOL0     C66307   3.683   3.297   2.663  0.9293  0.0100  0.0239
  492MOL0     C66308   3.559   3.265   2.753 -0.6311 -0.3383 -0.0024
  492MOL0     O66309   3.446   3.257   2.658  0.4869 -0.0729  0.0764
  492MOL0     C66310   3.346   3.168   2.685  0.3970  1.1902 -0.1800
  492MOL0     C66311   3.336   3.105   2.813  0.6543 -1.0845  0.1090
  492MOL0     C66312   3.227   3.017   2.843  0.1263 -0.2068 -0.7281
  492MOL0     C66313   3.209   2.963   2.989 -0.4602  0.6935 -0.1842
  492MOL0     C66314   3.142   2.971   2.745  0.8023 -0.3828 -0.0937
  492MOL0     C66315   3.049   2.856   2.757 -0.3422 -0.7656  0.2827
  492MOL0     O66316   3.045   2.772   2.862 -0.6540 -0.3793  0.1960
  492MOL0     C66317   2.963   2.670   2.862 -0.1987 -0.2016 -0.4765
  492MOL0     C66318   2.825   2.679   2.853 -0.6037  0.4712  0.1482
  492MOL0     C66319   2.743   2.559   2.860 -0.3657 -0.3285 -0.1808
  492MOL0     C66320   2.797   2.434   2.891  0.6548 -0.3685 -0.5835
  492MOL0     O66321   2.736   2.314   2.909 -0.6886  0.7725  0.5049
  492MOL0     C66322   2.594   2.319   2.943 -0.1421  0.0851  0.3171
  492MOL0     C66323   2.529   2.179   2.966 -0.0149 -0.3643  0.1679
  492MOL0     C66324   2.388   2.185   3.016 -0.2116 -0.6059 -0.7497
  492MOL0     C66325   2.386   2.216   3.172  0.2110  0.7350  0.4537
  492MOL0     C66326   2.258   2.175   3.248  0.1036  0.0419 -0.2690
  492MOL0     C66327   2.144   2.265   3.208 -0.1605 -0.7570 -0.6529
  492MOL0     C66328   2.045   2.275   3.321 -0.1444 -0.9265  0.0105
  492MOL0     C66329   1.967   2.143   3.341 -0.1304  1.6338 -0.9790
  492MOL0    Cl66330   1.908   2.077   3.191  0.3922 -0.4747 -0.7759
  492MOL0     C66331   2.932   2.433   2.884  0.2081 -1.1544  0.4431
  492MOL0     C66332   3.020   2.538   2.867 -0.4766 -0.6921 -1.0422
  492MOL0     O66333   2.983   2.832   2.658  0.2633 -1.0393 -0.2135
  492MOL0     C66334   3.165   3.032   2.613 -0.0008 -1.0736  0.8754
  492MOL0     C66335   3.259   3.130   2.585  0.5252 -0.8837 -0.9210
  492MOL0     N66336   4.080   3.487   2.840 -0.1485 -0.7612 -0.0741
  492MOL0     N66337   4.203   3.453   2.876  1.0584  0.2193 -0.0476
  492MOL0     C66338   5.183   2.755   2.879  0.3361  0.4528 -0.3382
  492MOL0     C66339   5.319   2.743   2.895 -1.1250 -0.2316  0.0910
  492MOL0     C66340   5.717   2.820   3.124 -0.5825 -0.1359  0.1084
  492MOL0     C66341   5.793   2.814   3.247  0.6115  1.1999  1.1152
  492MOL0     C66342   5.933   2.844   3.242 -0.4374  0.4752  0.2616
  492MOL0     C66343   5.988   2.878   3.122  0.2724 -0.2988  0.9001
  492MOL0     O66344   6.118   2.902   3.108  0.2951  0.3083 -0.2076
  492MOL0     C66345   6.165   3.032   3.136  0.1777 -0.1615  0.4328
  492MOL0     C66346   6.157   3.118   3.004  0.4591  0.0996 -0.5128
  492MOL0     C66347   6.291   3.132   2.939 -0.4416 -0.8294  0.6027
  492MOL0     C66348   6.290   3.208   2.808  0.7164 -0.4081 -0.4480
  492MOL0     C66349   6.243   3.348   2.812  0.5882 -0.1097  0.0222
  492MOL0     C66350   6.188   3.455   2.814  0.0365 -0.1611 -0.4043
  492MOL0     C66351   5.920   2.884   3.004 -1.0416 -0.4057 -0.3671
  492MOL0     C66352   5.784   2.857   3.011 -1.4720 -0.5281  0.2661
  492MOL0     H66353   5.353   2.959   3.156 -0.8260  1.5783 -0.6119
  492MOL0     H66354   5.116   2.971   3.141 -1.9827 -0.6434 -0.2553
  492MOL0     H66355   4.893   2.807   2.795  2.1990 -1.1623 -1.2745
  492MOL0     H66356   4.927   2.639   2.872  0.3854  0.3721  2.4567
  492MOL0     H66357   4.690   2.655   2.883  1.2423  0.0845 -2.4365
  492MOL0     H66358   4.757   2.685   3.040  3.5849 -3.7576 -1.4406
  492MOL0     H66359   4.610   2.873   3.034 -0.8481  0.7935 -0.4304
  492MOL0     H66360   4.759   2.942   2.970  1.0220 -1.5996  0.5016
  492MOL0     H66361   4.656   2.884   2.731 -2.7882  0.4676 -1.5461
  492MOL0     H66362   4.527   2.810   2.817  0.3825 -0.4814  0.2868
  492MOL0     H66363   4.583   3.094   2.864  0.4393  1.5292 -4.0167
  492MOL0     H66364   4.492   3.044   2.725  4.9764  0.7449 -1.5536
  492MOL0     H66365   4.341   2.928   2.914 -1.1164  1.1399 -0.8535
  492MOL0     H66366   4.418   3.042   3.027  3.2577  0.8035 -0.5136
  492MOL0     H66367   4.254   3.086   2.781 -0.0193  2.0495 -0.7082
  492MOL0     H66368   4.200   3.130   2.939  0.0817  0.9850 -0.3145
  492MOL0     H66369   4.425   3.238   2.754  0.9418 -0.8823 -0.0295
  492MOL0     H66370   4.407   3.301   2.919 -1.3136  2.0726 -1.3631
  492MOL0     H66371   4.120   3.225   2.650 -0.2980  0.6527 -0.4798
  492MOL0     H66372   3.889   3.503   2.608 -0.5766 -1.8334 -2.2784
  492MOL0     H66373   3.914   3.329   2.574 -0.5750  0.5605 -0.3359
  492MOL0     H66374   3.756   3.464   2.783  4.1227  1.2554  1.1316
  492MOL0     H66375   3.828   3.308   2.817  1.2220  3.3198  1.9075
  492MOL0     H66376   3.714   3.204   2.615 -0.5851 -0.3717 -0.2707
  492MOL0     H66377   3.639   3.369   2.594 -1.4113 -1.8759 -0.5836
  492MOL0     H66378   3.550   3.344   2.828  5.2604  0.7837 -0.0142
  492MOL0     H66379   3.589   3.170   2.798 -0.3332  0.7102  2.1333
  492MOL0     H66380   3.395   3.138   2.898  2.0668  2.1181 -1.9452
  492MOL0     H66381   3.256   2.865   3.003 -1.4284  0.1599 -0.5787
  492MOL0     H66382   3.255   3.025   3.066 -2.2380 -0.7600  2.2121
  492MOL0     H66383   3.106   2.964   3.025 -0.1680 -1.8148  0.9677
  492MOL0     H66384   2.775   2.772   2.831 -1.1434  0.3006  0.6333
  492MOL0     H66385   2.635   2.572   2.863 -0.5293 -1.6351  1.1698
  492MOL0     H66386   2.582   2.391   3.025 -1.1547  2.0647 -1.4431
  492MOL0     H66387   2.550   2.354   2.849  1.2447 -1.9024 -1.1406
  492MOL0     H66388   2.516   2.113   2.879 -0.8831  0.1579 -0.1105
  492MOL0     H66389   2.595   2.125   3.035  0.8890  0.5355  0.0296
  492MOL0     H66390   2.338   2.089   3.001 -0.3440 -0.3847 -1.8029
  492MOL0     H66391   2.322   2.260   2.972 -0.2287  1.1096  1.9993
  492MOL0     H66392   2.465   2.160   3.223 -0.0372 -0.8682 -0.8586
  492MOL0     H66393   2.412   2.322   3.184 -1.6688  1.1406  1.3900
  492MOL0     H66394   2.281   2.186   3.354  1.4369 -1.4676 -0.3686
  492MOL0     H66395   2.223   2.075   3.222  1.0874 -0.4221  0.1357
  492MOL0     H66396   2.184   2.366   3.192  0.3923 -0.9815 -0.6912
  492MOL0     H66397   2.094   2.239   3.115 -1.0449  0.1713 -0.4544
  492MOL0     H66398   1.966   2.345   3.293  0.6919 -0.1302 -0.4028
  492MOL0     H66399   2.094   2.317   3.410 -1.0408 -0.1613  0.1669
  492MOL0     H66400   1.889   2.158   3.416  1.0231  3.2180 -0.0376
  492MOL0     H66401   2.029   2.065   3.389 -3.2697  0.8013  2.1483
  492MOL0     H66402   2.979   2.335   2.892  1.2708 -0.6069  1.3469
  492MOL0     H66403   3.128   2.533   2.854 -0.1831 -0.3913  0.8957
  492MOL0     H66404   3.101   3.019   2.526 -0.6596  1.3158  0.9163
  492MOL0     H66405   3.278   3.166   2.485  0.3747 -2.0288 -1.3783
  492MOL0     H66406   5.141   2.691   2.801  3.0428 -0.2419 -1.3642
  492MOL0     H66407   5.375   2.683   2.823 -3.9118 -1.6413 -1.0328
  492MOL0     H66408   5.742   2.791   3.340  2.7813  0.8368  2.2703
  492MOL0     H66409   6.008   2.845   3.320 -0.1631  0.5454 -0.0017
  492MOL0     H66410   6.135   3.076   3.231  1.9586 -1.9288  1.9313
  492MOL0     H66411   6.275   3.035   3.140  0.3030  3.8655 -1.3366
  492MOL0     H66412   6.119   3.217   3.031  3.7613  1.5886 -0.8701
  492MOL0     H66413   6.098   3.071   2.925  1.4690 -2.2549  0.0455
  492MOL0     H66414   6.346   3.043   2.907  1.2344 -0.2340  1.6871
  492MOL0     H66415   6.366   3.181   3.001  0.6835 -0.9735 -0.5787
  492MOL0     H66416   6.235   3.150   2.733 -1.0634 -1.4052  1.5251
  492MOL0     H66417   6.397   3.219   2.786  0.6422 -0.0315 -0.6304
  492MOL0     H66418   6.129   3.542   2.833 -0.3217 -0.5827  0.4404
  492MOL0     H66419   5.969   2.878   2.907  1.1366 -1.0063  0.7167
  492MOL0     H66420   5.734   2.849   2.915 -0.3935 -0.1463 -0.3522
  493MOL0     O66421   0.795   0.040   9.734  0.3578  0.3662 -0.4578
  493MOL0     C66422   0.844   0.077   9.849  0.1965 -0.8245 -0.7627
  493MOL0     O66423   0.773   0.114   9.958  0.0447 -0.4405  0.0994
  493MOL0     C66424   0.638   0.102   9.950 -0.2102 -0.6081  0.4147
  493MOL0     C66425   0.554   0.215   9.958 -1.3101 -1.2834 -0.4984
  493MOL0     C66426   0.417   0.199   9.975  0.0793 -0.0213  0.0196
  493MOL0     C66427   0.359   0.075   9.993  0.5688  0.2134 -1.0063
  493MOL0     O66428   0.226   0.065  10.009 -0.2416  0.1454  0.5372
  493MOL0     C66429   0.149  -0.031   9.945  0.4639 -0.1987  0.1749
  493MOL0     C66430   0.023  -0.066  10.031 -0.1403 -0.5161  0.3006
  493MOL0     C66431   0.061  -0.140  10.159  0.4836 -1.4615  0.8830
  493MOL0     C66432  -0.059  -0.218  10.208  0.0789 -0.0783 -0.4344
  493MOL0     C66433  -0.028  -0.306  10.334 -0.8193 -0.2185 -0.9905
  493MOL0     C66434   0.073  -0.422  10.319 -0.0231 -0.5819  0.5791
  493MOL0     C66435   0.044  -0.537  10.419  0.6410  0.5096 -0.3649
  493MOL0     C66436  -0.083  -0.618  10.409  0.9104  0.4945  0.8011
  493MOL0     N66437  -0.136  -0.617  10.267 -0.3391 -0.0923 -0.6376
  493MOL0     C66438  -0.257  -0.569  10.237 -0.6657 -0.9080 -0.4324
  493MOL0     C66439  -0.273  -0.575  10.098  0.2848 -0.1504 -0.0989
  493MOL0     C66440  -0.392  -0.517  10.031  0.1708  0.0363  0.0332
  493MOL0     C66441  -0.369  -0.372   9.980  0.4297  0.3995 -0.2528
  493MOL0     C66442  -0.427  -0.272  10.076 -0.1436 -0.6341 -0.5754
  493MOL0     C66443  -0.400  -0.127  10.055 -0.1308 -0.0844 -0.1550
  493MOL0     O66444  -0.453  -0.059  10.171 -0.4688  0.5595 -0.7008
  493MOL0     C66445  -0.400   0.051  10.225  0.2510 -0.4485 -0.4704
  493MOL0     C66446  -0.439   0.089  10.351  0.3586 -0.3282  0.5372
  493MOL0     C66447  -0.407   0.216  10.402 -0.2429 -0.3081  0.0701
  493MOL0     C66448  -0.460   0.237  10.543 -0.3030 -0.2417 -0.2992
  493MOL0     C66449  -0.327   0.305  10.324 -0.0433 -0.2337 -0.2442
  493MOL0     C66450  -0.295   0.444  10.381 -0.7301  0.2193  0.7243
  493MOL0     O66451  -0.288   0.554  10.296  0.7862 -0.3634 -0.0796
  493MOL0     C66452  -0.230   0.665  10.344 -0.8844  0.3736  0.4596
  493MOL0     C66453  -0.095   0.693  10.314  0.0481  0.1433 -0.2132
  493MOL0     C66454  -0.035   0.806  10.367  0.7735  0.1421  0.3042
  493MOL0     C66455  -0.111   0.900  10.439  0.5047 -0.0493  0.0365
  493MOL0     O66456  -0.033   0.999  10.489  0.1772  0.1359 -0.1442
  493MOL0     C66457  -0.066   1.132  10.480  0.1075 -1.0044  0.4735
  493MOL0     C66458  -0.023   1.193  10.351  0.2213 -0.4733  0.4558
  493MOL0     C66459   0.126   1.210  10.323  0.4171  0.5904  0.1450
  493MOL0     C66460   0.166   1.180  10.176 -0.3327 -0.4362 -0.9039
  493MOL0     C66461   0.186   1.033  10.135 -0.0511 -0.1748  0.2139
  493MOL0     C66462   0.321   0.978  10.179  0.6432 -0.0161  0.1170
  493MOL0     C66463   0.384   0.886  10.070  0.1514  0.4832 -0.7900
  493MOL0     C66464   0.519   0.845  10.110 -0.6621 -0.3868  0.4961
  493MOL0    Cl66465   0.621   0.986  10.109 -0.2897 -0.0120 -0.5159
  493MOL0     C66466  -0.240   0.867  10.485 -0.7867 -0.7043 -0.2664
  493MOL0     C66467  -0.294   0.750  10.441  1.3541 -1.1522  0.0719
  493MOL0     O66468  -0.261   0.442  10.502 -0.0146  0.5930 -0.1500
  493MOL0     C66469  -0.276   0.265  10.193  0.4932 -1.1465 -0.1213
  493MOL0     C66470  -0.310   0.135  10.159  0.1103  0.2895  0.3171
  493MOL0     N66471  -0.156  -0.635  10.053  0.3228  0.2724 -0.9067
  493MOL0     N66472  -0.074  -0.650  10.152 -0.7588  0.5129 -0.2158
  493MOL0     C66473   0.445  -0.039   9.987  0.2546 -0.2462 -0.7453
  493MOL0     C66474   0.580  -0.024   9.964  0.4654  0.0506  0.7531
  493MOL0     C66475   0.995   0.085   9.862 -0.6713 -0.1743 -0.6009
  493MOL0     C66476   1.068   0.086   9.981 -0.0311 -0.2073  0.5227
  493MOL0     C66477   1.209   0.101   9.977 -0.5528 -0.0344  0.7610
  493MOL0     C66478   1.280   0.113   9.856  0.8090 -0.0959  0.5312
  493MOL0     O66479   1.417   0.116   9.846 -0.1125 -0.8465  0.3945
  493MOL0     C66480   1.495   0.053   9.948  0.5462 -0.2037  0.0143
  493MOL0     C66481   1.631   0.008   9.892  0.0605  0.2600 -0.5262
  493MOL0     C66482   1.609  -0.087   9.769  0.1778 -0.3344  0.1330
  493MOL0     C66483   1.736  -0.116   9.691  0.6330 -0.9284  0.0389
  493MOL0     C66484   1.700  -0.177   9.568 -0.8379  0.1392 -0.6209
  493MOL0     C66485   1.670  -0.221   9.459 -1.3996 -0.3007  0.8328
  493MOL0     C66486   1.202   0.114   9.738  0.5384 -0.5987 -0.0182
  493MOL0     C66487   1.063   0.106   9.745 -1.0325 -0.0050  0.3771
  493MOL0     H66488   0.606   0.311   9.955  2.4680 -3.1059  0.5897
  493MOL0     H66489   0.345   0.278   9.959  1.8851  1.7985  0.3522
  493MOL0     H66490   0.122   0.003   9.845  3.4036  1.6900 -0.1218
  493MOL0     H66491   0.199  -0.128   9.935 -0.0941 -0.4783  0.0690
  493MOL0     H66492  -0.029   0.025  10.064  3.3709  1.2229  1.5652
  493MOL0     H66493  -0.040  -0.121   9.961  0.5613 -1.6802  0.5690
  493MOL0     H66494   0.140  -0.212  10.136  2.3937  1.0677 -1.1961
  493MOL0     H66495   0.090  -0.064  10.233 -0.4048  0.8760 -1.0328
  493MOL0     H66496  -0.143  -0.152  10.234 -0.7973 -0.9074 -1.0627
  493MOL0     H66497  -0.095  -0.296  10.140  2.9623  0.8874 -3.2985
  493MOL0     H66498   0.003  -0.234  10.410 -2.1974  2.1176 -2.5104
  493MOL0     H66499  -0.120  -0.350  10.375 -0.7026 -0.2408 -0.7459
  493MOL0     H66500   0.075  -0.444  10.212  0.5772 -1.2391  0.7174
  493MOL0     H66501   0.174  -0.387  10.339 -0.3923 -0.7630  3.0807
  493MOL0     H66502   0.133  -0.599  10.406  1.3871  1.8725 -2.1114
  493MOL0     H66503   0.047  -0.501  10.523  1.2029  0.1788 -0.2620
  493MOL0     H66504  -0.150  -0.558  10.471 -0.0813  2.0024 -1.5603
  493MOL0     H66505  -0.074  -0.721  10.445  1.0656  0.9096  2.0045
  493MOL0     H66506  -0.327  -0.528  10.308  3.3176  3.7305  1.4264
  493MOL0     H66507  -0.419  -0.577   9.943 -2.3622  3.7193 -1.9775
  493MOL0     H66508  -0.479  -0.531  10.096  0.4172  1.4525  0.6870
  493MOL0     H66509  -0.414  -0.370   9.881 -0.9994  1.2870  0.3838
  493MOL0     H66510  -0.261  -0.355   9.973  0.8468 -2.5754 -3.7251
  493MOL0     H66511  -0.377  -0.306  10.166 -1.7655  1.3329  1.1685
  493MOL0     H66512  -0.534  -0.294  10.083 -0.6913  1.2958 -2.0564
  493MOL0     H66513  -0.442  -0.082   9.964  2.1218  1.0097 -0.7312
  493MOL0     H66514  -0.290  -0.124  10.048 -0.1859 -1.4174 -4.1515
  493MOL0     H66515  -0.503   0.016  10.398  1.7726 -1.8482  0.2211
  493MOL0     H66516  -0.525   0.153  10.570 -1.9976  0.8990 -0.7180
  493MOL0     H66517  -0.374   0.248  10.610  1.0542 -1.6306 -1.7012
  493MOL0     H66518  -0.524   0.325  10.546 -0.8548 -0.6420  3.0866
  493MOL0     H66519  -0.034   0.622  10.259  0.2128  0.7093 -0.7663
  493MOL0     H66520   0.072   0.818  10.361  0.7238  0.1600 -0.9120
  493MOL0     H66521  -0.175   1.133  10.488 -0.4646  2.6950 -3.7020
  493MOL0     H66522  -0.030   1.191  10.564 -1.2622  0.2012  0.2497
  493MOL0     H66523  -0.067   1.126  10.276 -2.9934 -0.8100  2.4322
  493MOL0     H66524  -0.070   1.291  10.339 -0.4359 -0.5546  2.0544
  493MOL0     H66525   0.190   1.146  10.385 -1.9159 -2.9168 -0.7852
  493MOL0     H66526   0.149   1.317  10.332  2.2074  0.2594 -0.2185
  493MOL0     H66527   0.085   1.227  10.120  0.0657  0.9808 -0.3258
  493MOL0     H66528   0.257   1.236  10.153  0.7082 -1.1884  1.1467
  493MOL0     H66529   0.189   1.047  10.026  1.1867  6.5351  0.6584
  493MOL0     H66530   0.110   0.958  10.159 -1.1030  0.7743 -0.0439
  493MOL0     H66531   0.389   1.061  10.205  0.2547  0.7030 -1.0922
  493MOL0     H66532   0.324   0.929  10.277  2.6038  2.3690  1.3816
  493MOL0     H66533   0.390   0.941   9.976  1.1718  2.7295  0.5023
  493MOL0     H66534   0.323   0.795  10.062 -0.5086  0.4039  3.0408
  493MOL0     H66535   0.560   0.769  10.043 -1.5914  0.8624 -1.5787
  493MOL0     H66536   0.510   0.799  10.209 -0.6742  1.0056  1.1597
  493MOL0     H66537  -0.281   0.933  10.561 -1.7716  3.2522 -3.8600
  493MOL0     H66538  -0.397   0.727  10.465  1.6846  0.2054  3.1958
  493MOL0     H66539  -0.207   0.314  10.126 -2.8220  0.3139 -2.7790
  493MOL0     H66540  -0.241   0.103  10.081  0.8862 -1.1496  1.5433
  493MOL0     H66541   0.394  -0.135   9.993 -0.6333  0.3057  1.5544
  493MOL0     H66542   0.653  -0.099   9.937 -0.0268 -0.2316  0.1600
  493MOL0     H66543   1.020   0.070  10.078  1.2888 -2.1862  0.9053
  493MOL0     H66544   1.267   0.094  10.069  0.3926  2.0956  0.3886
  493MOL0     H66545   1.501   0.129  10.027  2.1329  0.2965 -0.5540
  493MOL0     H66546   1.448  -0.039   9.983  0.2478 -0.3412 -0.7359
  493MOL0     H66547   1.689  -0.043   9.970 -2.7721 -0.3770  1.3384
  493MOL0     H66548   1.688   0.099   9.872  0.3182  0.2481  0.1285
  493MOL0     H66549   1.538  -0.033   9.706 -0.5637 -1.4801 -0.0228
  493MOL0     H66550   1.565  -0.184   9.791  2.7737 -1.8289 -0.7423
  493MOL0     H66551   1.794  -0.193   9.743 -0.1156 -2.8440 -1.8558
  493MOL0     H66552   1.807  -0.034   9.680  1.4592 -1.3304  1.9144
  493MOL0     H66553   1.652  -0.258   9.360 -1.5257  0.1182  0.6952
  493MOL0     H66554   1.248   0.128   9.641 -3.3432  2.5138 -1.6546
  493MOL0     H66555   1.018   0.120   9.647  2.0308 -0.9053 -1.2631
  494MOL0     O66556   2.148   2.002   5.482 -0.3780  0.5648 -0.2345
  494MOL0     C66557   2.159   2.122   5.467  0.0499  0.0112 -1.2059
  494MOL0     O66558   2.054   2.205   5.457  0.6007 -0.1074 -0.0739
  494MOL0     C66559   1.917   2.177   5.459  0.4030  0.5153  0.8202
  494MOL0     C66560   1.856   2.070   5.522 -0.2715 -0.4083 -0.0887
  494MOL0     C66561   1.718   2.046   5.512  0.1572  0.4643 -0.4215
  494MOL0     C66562   1.645   2.128   5.433 -0.1038  0.0265  0.1155
  494MOL0     O66563   1.521   2.101   5.397 -0.3055  0.8471 -0.1647
  494MOL0     C66564   1.430   2.071   5.508  0.0711  0.0192 -0.3948
  494MOL0     C66565   1.341   1.951   5.484 -0.2754 -0.0253  0.0045
  494MOL0     C66566   1.417   1.826   5.464 -0.3621  0.4281  0.4327
  494MOL0     C66567   1.309   1.713   5.445 -0.7560  0.0379 -0.2720
  494MOL0     C66568   1.390   1.599   5.382  0.0488  0.2447  0.3069
  494MOL0     C66569   1.300   1.490   5.319 -0.5106 -0.2143  1.1352
  494MOL0     C66570   1.233   1.398   5.415 -0.3916 -0.4055  0.1325
  494MOL0     C66571   1.190   1.260   5.355 -1.0771 -0.7478 -0.0567
  494MOL0     N66572   1.097   1.193   5.453 -0.9258  0.1875 -0.0973
  494MOL0     C66573   0.969   1.245   5.475 -0.1344  0.2792 -1.0036
  494MOL0     C66574   0.924   1.172   5.575  0.8298  0.5503  0.3320
  494MOL0     C66575   0.800   1.181   5.664  0.1736  0.1819  0.0515
  494MOL0     C66576   0.819   1.306   5.745 -0.2682 -0.6614 -0.5560
  494MOL0     C66577   0.764   1.427   5.673 -0.0768  0.3957 -0.6949
  494MOL0     C66578   0.611   1.417   5.622  0.5444 -0.4278  0.6252
  494MOL0     O66579   0.590   1.553   5.574 -0.0595  0.2779 -1.0379
  494MOL0     C66580   0.462   1.578   5.539 -0.1725  0.6951  0.2689
  494MOL0     C66581   0.449   1.606   5.404 -0.6887  0.6695 -0.3332
  494MOL0     C66582   0.327   1.632   5.353 -0.2976  0.8029  0.1850
  494MOL0     C66583   0.323   1.686   5.215 -1.0985 -0.2600 -0.1550
  494MOL0     C66584   0.215   1.629   5.442  0.2081 -0.0309 -0.1105
  494MOL0     C66585   0.075   1.657   5.392 -0.0028  0.9511  0.0288
  494MOL0     O66586  -0.024   1.670   5.493  0.2404 -0.3352 -0.5377
  494MOL0     C66587  -0.156   1.678   5.446 -0.6146  0.4732 -0.1488
  494MOL0     C66588  -0.240   1.777   5.503  0.8624 -0.6097 -0.7003
  494MOL0     C66589  -0.380   1.771   5.470  0.0889 -0.6244  0.0623
  494MOL0     C66590  -0.435   1.678   5.379 -0.0504  0.4796 -0.1425
  494MOL0     O66591  -0.568   1.665   5.339  0.3566 -0.0916 -0.2572
  494MOL0     C66592  -0.671   1.652   5.444  0.3553  0.1489  0.5095
  494MOL0     C66593  -0.726   1.790   5.488 -0.8278 -0.2455 -0.2279
  494MOL0     C66594  -0.821   1.861   5.378 -0.1319  0.4301 -0.4991
  494MOL0     C66595  -0.942   1.778   5.327  0.7244 -0.2937 -0.4957
  494MOL0     C66596  -1.060   1.814   5.429  0.7595  0.1246 -0.5670
  494MOL0     C66597  -1.186   1.731   5.399 -1.1446 -0.4192 -0.4304
  494MOL0     C66598  -1.295   1.759   5.508 -0.3712  0.8700  0.8850
  494MOL0     C66599  -1.349   1.905   5.501 -0.4371  0.0105  0.5277
  494MOL0    Cl66600  -1.398   1.973   5.335  0.1491 -0.0231  0.1693
  494MOL0     C66601  -0.349   1.595   5.308 -1.1231  0.2859  0.1172
  494MOL0     C66602  -0.213   1.591   5.349  1.3193 -0.4610  0.6196
  494MOL0     O66603   0.055   1.657   5.274 -0.6205 -0.0012  0.3410
  494MOL0     C66604   0.229   1.605   5.580 -1.0803  0.9449  1.0470
  494MOL0     C66605   0.358   1.589   5.635 -0.0642  0.7677  0.7631
  494MOL0     N66606   1.014   1.069   5.601 -0.1850 -0.3969  0.2962
  494MOL0     N66607   1.121   1.085   5.533  0.7737 -0.0728 -0.2269
  494MOL0     C66608   1.709   2.240   5.375 -0.1073 -0.5868 -0.4394
  494MOL0     C66609   1.839   2.263   5.391 -0.0011  0.0382  0.1093
  494MOL0     C66610   2.293   2.177   5.426  1.1224 -0.6180  0.2059
  494MOL0     C66611   2.412   2.107   5.432  0.6553 -0.7166 -0.0560
  494MOL0     C66612   2.525   2.170   5.385  0.0537 -0.9068 -0.3231
  494MOL0     C66613   2.516   2.305   5.344 -0.4504  0.0408  0.4733
  494MOL0     O66614   2.641   2.334   5.284  0.9577 -0.6678 -0.4739
  494MOL0     C66615   2.655   2.467   5.224 -0.1924 -0.7636 -0.1069
  494MOL0     C66616   2.800   2.498   5.188 -0.8407  0.5315 -0.3727
  494MOL0     C66617   2.885   2.513   5.317  0.2342  0.2797 -0.0460
  494MOL0     C66618   3.028   2.559   5.298  0.1807  0.3558 -0.5752
  494MOL0     C66619   3.030   2.679   5.212  0.1643 -1.1066 -0.7801
  494MOL0     C66620   3.016   2.784   5.154  1.0089 -0.9471 -0.3115
  494MOL0     C66621   2.394   2.372   5.340  0.0792 -0.7317  0.3050
  494MOL0     C66622   2.283   2.312   5.386  0.0111 -0.5773  0.4566
  494MOL0     H66623   1.918   1.994   5.569  1.2869 -1.1825 -3.1561
  494MOL0     H66624   1.686   1.956   5.563  4.8152 -0.4244  1.4528
  494MOL0     H66625   1.476   2.053   5.606 -1.8353  1.3695  0.7973
  494MOL0     H66626   1.363   2.156   5.516 -1.7915 -1.4722  0.5182
  494MOL0     H66627   1.278   1.945   5.574 -1.1635 -1.0999 -0.6640
  494MOL0     H66628   1.279   1.961   5.395 -0.6387 -1.3310  0.0883
  494MOL0     H66629   1.484   1.829   5.378 -1.0654 -1.2158 -0.2158
  494MOL0     H66630   1.476   1.803   5.553 -1.2408 -2.5825  0.3743
  494MOL0     H66631   1.255   1.683   5.536 -0.0468  0.7199  0.3912
  494MOL0     H66632   1.232   1.749   5.376  0.1088  0.2031 -1.1823
  494MOL0     H66633   1.455   1.638   5.302  0.3098 -1.6850 -0.4757
  494MOL0     H66634   1.445   1.549   5.462 -1.9687 -0.4161  1.3382
  494MOL0     H66635   1.224   1.542   5.259 -1.2357 -0.3340  1.9199
  494MOL0     H66636   1.378   1.439   5.262 -0.7587 -0.1328  0.7233
  494MOL0     H66637   1.311   1.386   5.492  0.4003 -3.5622 -1.0193
  494MOL0     H66638   1.148   1.455   5.453 -1.4581 -1.6462 -0.2993
  494MOL0     H66639   1.279   1.197   5.349 -0.5561 -0.0930  0.6558
  494MOL0     H66640   1.163   1.268   5.249  0.9794  1.5939 -0.4870
  494MOL0     H66641   0.914   1.326   5.429 -1.4632 -0.0734 -0.0984
  494MOL0     H66642   0.704   1.164   5.615  0.1276  0.4030  0.0591
  494MOL0     H66643   0.812   1.092   5.726  2.2328 -1.0819 -1.9954
  494MOL0     H66644   0.926   1.312   5.763 -0.0157 -2.3037 -1.3552
  494MOL0     H66645   0.770   1.300   5.843  1.3813 -0.0630  0.3520
  494MOL0     H66646   0.819   1.446   5.580 -3.5554 -2.2503 -3.5800
  494MOL0     H66647   0.760   1.506   5.748  0.6862 -1.6719  1.6305
  494MOL0     H66648   0.540   1.391   5.701 -1.5619  3.4529  0.2195
  494MOL0     H66649   0.601   1.352   5.534 -0.4445 -0.3691  0.6908
  494MOL0     H66650   0.538   1.608   5.342 -0.6861  2.6388 -0.3344
  494MOL0     H66651   0.419   1.709   5.167 -0.4912 -1.9825  0.1785
  494MOL0     H66652   0.286   1.603   5.154 -1.8761 -0.3230  0.3905
  494MOL0     H66653   0.259   1.773   5.194 -1.3500 -0.3225  0.3348
  494MOL0     H66654  -0.202   1.852   5.571 -0.2112  1.1679 -1.9792
  494MOL0     H66655  -0.449   1.839   5.519 -2.4624 -3.2388  0.3662
  494MOL0     H66656  -0.752   1.593   5.401 -0.4059  2.3788 -1.3545
  494MOL0     H66657  -0.641   1.602   5.536  1.1483  3.5331  2.2831
  494MOL0     H66658  -0.790   1.761   5.572 -0.7608 -1.5153 -0.5946
  494MOL0     H66659  -0.651   1.848   5.543 -0.9194 -2.9624  3.1714
  494MOL0     H66660  -0.759   1.868   5.287  2.0404  1.8078  0.9981
  494MOL0     H66661  -0.855   1.958   5.415 -1.3192 -0.1292 -0.0549
  494MOL0     H66662  -0.977   1.813   5.230 -0.9687 -0.0349  0.1689
  494MOL0     H66663  -0.926   1.670   5.321  0.2921 -0.2930 -3.4987
  494MOL0     H66664  -1.088   1.919   5.417 -1.2241 -0.5128 -2.1172
  494MOL0     H66665  -1.022   1.792   5.529 -1.7859  1.7838  0.8846
  494MOL0     H66666  -1.222   1.747   5.296  0.3529 -0.8839 -1.0496
  494MOL0     H66667  -1.164   1.624   5.405 -2.6225 -0.8855 -2.3090
  494MOL0     H66668  -1.240   1.732   5.598 -0.8650  0.0885  0.9606
  494MOL0     H66669  -1.378   1.689   5.492  3.1546 -3.7125  0.7294
  494MOL0     H66670  -1.275   1.976   5.539 -1.0619  0.6580  0.5442
  494MOL0     H66671  -1.435   1.916   5.568 -1.5310  2.9876 -1.1834
  494MOL0     H66672  -0.388   1.524   5.235  0.0866 -0.9006  0.5725
  494MOL0     H66673  -0.158   1.514   5.295 -0.3041 -0.1203 -1.6580
  494MOL0     H66674   0.143   1.611   5.646 -4.0193  1.1229 -2.5085
  494MOL0     H66675   0.380   1.585   5.741  2.8601 -0.7194  0.1904
  494MOL0     H66676   1.657   2.319   5.322  0.6908 -0.8334 -1.6400
  494MOL0     H66677   1.893   2.348   5.352  1.6670 -1.6585 -1.4875
  494MOL0     H66678   2.414   2.002   5.458  0.8630 -1.4908 -2.9047
  494MOL0     H66679   2.620   2.119   5.379  2.2746  2.3021  3.1965
  494MOL0     H66680   2.591   2.490   5.138  0.9321  1.5402 -0.3922
  494MOL0     H66681   2.633   2.550   5.292  1.3927 -1.3369  1.1580
  494MOL0     H66682   2.788   2.595   5.138  1.4070  1.3724  0.5862
  494MOL0     H66683   2.844   2.428   5.118 -1.6556 -2.5479  1.9702
  494MOL0     H66684   2.879   2.432   5.390 -1.0461  3.1283  3.3659
  494MOL0     H66685   2.835   2.591   5.376  0.8888  1.5691 -1.1269
  494MOL0     H66686   3.072   2.474   5.246 -1.4948  0.7972 -2.8427
  494MOL0     H66687   3.076   2.569   5.396 -0.3162 -2.4312  0.0333
  494MOL0     H66688   2.978   2.874   5.110  0.3890  0.4520  2.8092
  494MOL0     H66689   2.376   2.473   5.304  0.8651 -0.2496  1.1845
  494MOL0     H66690   2.186   2.361   5.385  0.3828  0.3314  2.8599
  495MOL0     O66691   8.962   4.646   3.950 -0.7186 -0.1355 -0.0018
  495MOL0     C66692   9.063   4.628   4.023 -0.4777  0.1486  0.3313
  495MOL0     O66693   9.163   4.716   4.030  0.5271 -0.1255  0.3511
  495MOL0     C66694   9.155   4.848   3.968  0.0755 -0.3835  0.9458
  495MOL0     C66695   9.260   4.896   3.901 -0.0078  0.2976  0.4926
  495MOL0     C66696   9.251   5.012   3.820 -0.3065 -0.9455  0.5231
  495MOL0     C66697   9.140   5.091   3.816  0.3871  0.3677  0.0365
  495MOL0     O66698   9.127   5.203   3.744 -0.1608 -0.7864  1.1781
  495MOL0     C66699   9.202   5.203   3.612  0.4629 -1.0817 -0.4120
  495MOL0     C66700   9.313   5.308   3.603 -0.1829 -0.8548  0.6170
  495MOL0     C66701   9.400   5.281   3.480 -0.4594  0.4525 -0.0207
  495MOL0     C66702   9.504   5.383   3.456 -1.1501  0.3562 -0.6602
  495MOL0     C66703   9.559   5.371   3.310  0.5643  0.5944 -0.4339
  495MOL0     C66704   9.653   5.245   3.309 -0.2556 -1.0840  0.4720
  495MOL0     C66705   9.722   5.223   3.172  0.3038 -0.6244 -0.0906
  495MOL0     C66706   9.817   5.104   3.164 -0.7370 -1.3116  0.1842
  495MOL0     N66707   9.948   5.136   3.226 -0.0231  0.0998  0.9774
  495MOL0     C66708  10.046   5.218   3.170 -0.4166 -0.1351 -0.2216
  495MOL0     C66709  10.143   5.218   3.271  1.2153 -0.3496 -0.4275
  495MOL0     C66710  10.267   5.293   3.280 -0.5399  0.0890 -0.3376
  495MOL0     C66711  10.273   5.390   3.396 -0.0094 -0.3003  0.1684
  495MOL0     C66712  10.390   5.484   3.376  0.2778  0.3653 -0.5007
  495MOL0     C66713  10.402   5.588   3.483  0.6331  0.5217  0.0551
  495MOL0     O66714  10.371   5.534   3.611  0.6507 -0.5111 -0.3376
  495MOL0     C66715  10.459   5.478   3.701  0.0341 -0.8221 -0.7400
  495MOL0     C66716  10.418   5.432   3.828 -0.0197 -1.0996 -1.1024
  495MOL0     C66717  10.511   5.380   3.920 -0.0061  0.5649  1.0312
  495MOL0     C66718  10.452   5.356   4.054  0.2257 -0.1252  0.0989
  495MOL0     C66719  10.649   5.370   3.891 -1.2463  0.7137  0.7941
  495MOL0     C66720  10.752   5.296   3.973  1.3467 -0.8577 -0.5854
  495MOL0     O66721  10.858   5.253   3.907 -0.4247 -0.0542  0.4593
  495MOL0     C66722  10.975   5.230   3.975 -0.6321 -0.0316  0.8064
  495MOL0     C66723  11.073   5.332   3.965  0.0121  0.2849 -0.1269
  495MOL0     C66724  11.200   5.300   4.014  0.8163 -0.0018  0.0432
  495MOL0     C66725  11.231   5.175   4.067 -0.3067 -0.2613 -0.3672
  495MOL0     O66726  11.361   5.148   4.108 -0.5655 -0.4969 -0.6943
  495MOL0     C66727  11.405   5.224   4.227  0.6057 -1.0719  1.2135
  495MOL0     C66728  11.541   5.166   4.273  0.0708 -0.2138 -0.4005
  495MOL0     C66729  11.541   5.173   4.423 -0.2357 -0.5446  0.1315
  495MOL0     C66730  11.664   5.118   4.485  0.5098  0.4366  0.7016
  495MOL0     C66731  11.687   4.957   4.463 -0.3664  0.2485 -0.4476
  495MOL0     C66732  11.576   4.869   4.518  0.3982  0.3209 -0.9526
  495MOL0     C66733  11.529   4.899   4.660  0.6346 -0.8035  0.3109
  495MOL0     C66734  11.419   4.809   4.697  0.1122 -0.3816  0.2480
  495MOL0    Cl66735  11.370   4.838   4.863  0.5905 -0.3539  0.3711
  495MOL0     C66736  11.137   5.074   4.068  0.7054 -0.1897 -0.0333
  495MOL0     C66737  11.004   5.102   4.020  0.4368  0.8568 -0.2799
  495MOL0     O66738  10.738   5.286   4.095  0.2944 -1.1370 -0.5082
  495MOL0     C66739  10.690   5.416   3.765  0.4381  0.0914  0.2508
  495MOL0     C66740  10.598   5.470   3.677 -0.4931  0.4667 -0.8181
  495MOL0     N66741  10.101   5.128   3.366 -0.3498  0.3509 -0.5087
  495MOL0     N66742   9.980   5.079   3.340 -0.2274  0.3395  0.1610
  495MOL0     C66743   9.035   5.040   3.887  0.5607  0.1042  0.2450
  495MOL0     C66744   9.038   4.924   3.957 -0.3883 -0.4584  0.4406
  495MOL0     C66745   9.071   4.504   4.096 -0.1275 -0.6846 -0.3218
  495MOL0     C66746   8.972   4.406   4.099  0.5348 -0.5235  0.6427
  495MOL0     C66747   8.983   4.294   4.181  0.8879 -0.9480  0.3721
  495MOL0     C66748   9.084   4.284   4.272 -0.3038 -0.0668 -0.8675
  495MOL0     O66749   9.082   4.178   4.365  1.1744  0.3859 -0.5293
  495MOL0     C66750   9.008   4.208   4.480 -0.0875 -0.2352  0.0915
  495MOL0     C66751   9.116   4.226   4.594  0.5468  0.0037 -0.4871
  495MOL0     C66752   9.052   4.270   4.725  0.7158  0.2202 -0.0451
  495MOL0     C66753   9.137   4.263   4.856  0.2323 -0.6143  0.0225
  495MOL0     C66754   9.185   4.131   4.895  0.1731 -0.0428  0.0493
  495MOL0     C66755   9.231   4.023   4.936 -0.0813 -0.5146 -1.0692
  495MOL0     C66756   9.188   4.374   4.267 -0.0868  0.0990  1.0417
  495MOL0     C66757   9.184   4.474   4.170 -0.8650 -0.1207 -0.3696
  495MOL0     H66758   9.347   4.831   3.899  0.4918  0.9479 -1.7140
  495MOL0     H66759   9.337   5.036   3.759 -1.7496  2.2037 -0.4828
  495MOL0     H66760   9.231   5.101   3.586  1.3033 -0.1757 -3.3995
  495MOL0     H66761   9.133   5.226   3.531 -0.3297 -1.6101  0.1055
  495MOL0     H66762   9.274   5.410   3.595 -1.0832 -1.2517 -0.1609
  495MOL0     H66763   9.377   5.300   3.692  0.2193 -0.6931  0.3457
  495MOL0     H66764   9.447   5.184   3.493  0.6396  1.0329  0.4089
  495MOL0     H66765   9.329   5.282   3.396 -0.9971  1.9714  0.4269
  495MOL0     H66766   9.444   5.474   3.452 -2.4734 -0.4623 -0.1148
  495MOL0     H66767   9.588   5.396   3.524 -1.9138 -1.3684  0.6890
  495MOL0     H66768   9.476   5.367   3.239 -1.6140  1.0710  1.9405
  495MOL0     H66769   9.626   5.448   3.269  0.5282 -0.2278 -2.1373
  495MOL0     H66770   9.731   5.266   3.383 -0.5751 -0.0089  0.5138
  495MOL0     H66771   9.598   5.157   3.344 -1.3525  0.3296  2.5145
  495MOL0     H66772   9.650   5.209   3.091  0.4817  1.2219 -0.6171
  495MOL0     H66773   9.782   5.313   3.153 -1.0489  0.3837  0.3080
  495MOL0     H66774   9.827   5.078   3.058  1.2083 -0.3163  0.0785
  495MOL0     H66775   9.776   5.013   3.209 -1.0388 -0.8330  0.8896
  495MOL0     H66776  10.053   5.274   3.077 -0.3321  3.2505  1.6666
  495MOL0     H66777  10.358   5.233   3.292  0.7533  1.9357 -0.4948
  495MOL0     H66778  10.280   5.349   3.187  0.7126 -2.3681 -1.7484
  495MOL0     H66779  10.292   5.323   3.480  0.5674 -0.2582  0.0703
  495MOL0     H66780  10.182   5.451   3.406  1.5793  2.6389 -1.8699
  495MOL0     H66781  10.378   5.548   3.288 -0.5890  1.8510  0.6633
  495MOL0     H66782  10.480   5.423   3.388 -0.7490 -1.6923 -2.4078
  495MOL0     H66783  10.322   5.661   3.466  1.4600  2.6077  4.0042
  495MOL0     H66784  10.494   5.647   3.474  0.8815  0.2196  0.5671
  495MOL0     H66785  10.319   5.449   3.869  0.1523 -3.4086  0.4407
  495MOL0     H66786  10.344   5.361   4.066  0.0863 -3.5066  1.2199
  495MOL0     H66787  10.474   5.256   4.094  1.4718  0.6834  1.5691
  495MOL0     H66788  10.491   5.417   4.136 -4.8460  0.9926  2.0497
  495MOL0     H66789  11.050   5.430   3.924 -2.0916  2.0319  4.4667
  495MOL0     H66790  11.286   5.367   4.011  0.1963  0.8254  0.3580
  495MOL0     H66791  11.419   5.328   4.197 -1.6364 -1.0290  0.1516
  495MOL0     H66792  11.323   5.216   4.299  1.4355  1.1755  2.5057
  495MOL0     H66793  11.543   5.063   4.237 -1.7067  0.1953 -1.8020
  495MOL0     H66794  11.623   5.222   4.227 -2.4701  2.7750 -1.6930
  495MOL0     H66795  11.459   5.133   4.484 -0.7544  1.8779  1.1158
  495MOL0     H66796  11.545   5.281   4.439 -0.0681 -0.3625 -1.0652
  495MOL0     H66797  11.752   5.166   4.441  0.6300  1.1527  1.6803
  495MOL0     H66798  11.657   5.138   4.592  0.8886  1.4183  0.5551
  495MOL0     H66799  11.785   4.931   4.505 -0.4936  1.2699  0.5253
  495MOL0     H66800  11.702   4.923   4.360  2.0783 -1.4268  0.3645
  495MOL0     H66801  11.493   4.868   4.446 -0.1174 -1.7008 -0.4004
  495MOL0     H66802  11.616   4.767   4.523  1.5830  0.7840 -0.6560
  495MOL0     H66803  11.494   5.002   4.672  0.3225 -0.9138  0.3481
  495MOL0     H66804  11.612   4.875   4.727  1.9577 -0.4899 -1.1614
  495MOL0     H66805  11.459   4.707   4.693 -3.4330 -2.0388  2.5942
  495MOL0     H66806  11.334   4.807   4.629 -2.2666 -1.2657  3.0618
  495MOL0     H66807  11.164   4.978   4.112 -0.5014 -0.6635 -0.3007
  495MOL0     H66808  10.922   5.032   4.028  1.7037 -0.7039 -0.5542
  495MOL0     H66809  10.791   5.403   3.729  0.4163 -0.6354  0.4321
  495MOL0     H66810  10.631   5.501   3.578  0.0703  0.3968 -0.6550
  495MOL0     H66811   8.945   5.097   3.864  1.3247  0.6987 -1.3672
  495MOL0     H66812   8.950   4.901   4.016 -1.5985  1.6289 -0.4130
  495MOL0     H66813   8.880   4.411   4.042 -0.9529 -2.3944  2.6891
  495MOL0     H66814   8.901   4.223   4.169  0.9225 -0.5719 -3.2529
  495MOL0     H66815   8.933   4.288   4.476 -0.3238 -0.3372  1.8900
  495MOL0     H66816   8.939   4.127   4.507 -0.5460  0.1516  0.1027
  495MOL0     H66817   9.187   4.300   4.555  0.1387  0.4271 -0.4303
  495MOL0     H66818   9.166   4.129   4.606  1.9187  0.8569  1.0497
  495MOL0     H66819   8.960   4.213   4.744 -0.1420  1.6051  0.1245
  495MOL0     H66820   9.006   4.369   4.716  1.5802  1.1356  3.6235
  495MOL0     H66821   9.084   4.301   4.944 -0.0410 -3.4577  1.2043
  495MOL0     H66822   9.227   4.323   4.840 -0.0531  0.2765  1.5180
  495MOL0     H66823   9.265   3.939   4.994 -1.3669  0.5190  1.3202
  495MOL0     H66824   9.282   4.364   4.321  0.0240  1.0422  1.0364
  495MOL0     H66825   9.269   4.541   4.163 -1.0075  0.9569  4.3505
  496MOL0     O66826   5.763   4.704   0.404  0.4673  0.4825  0.4656
  496MOL0     C66827   5.845   4.778   0.347  0.3535 -0.2464 -0.6818
  496MOL0     O66828   5.804   4.895   0.278  0.6323  0.2898  0.7959
  496MOL0     C66829   5.663   4.938   0.269 -0.4409  0.2842 -0.0006
  496MOL0     C66830   5.585   5.003   0.368  0.4417  0.2236 -0.7967
  496MOL0     C66831   5.458   5.049   0.344 -0.1684 -0.2703  0.0594
  496MOL0     C66832   5.393   5.015   0.228  1.1530  0.2044  0.0437
  496MOL0     O66833   5.266   5.050   0.186 -0.1716 -0.9075  0.3883
  496MOL0     C66834   5.190   5.139   0.276 -0.5629  0.2044 -0.1024
  496MOL0     C66835   5.049   5.133   0.232 -0.2102  1.1342 -0.1284
  496MOL0     C66836   4.950   5.208   0.322  0.5445  0.6368  0.1810
  496MOL0     C66837   4.809   5.222   0.263  0.3068  1.0459  0.2944
  496MOL0     C66838   4.737   5.326   0.349  0.0297  0.3685  0.0801
  496MOL0     C66839   4.591   5.324   0.342  0.0446 -0.4879  0.0235
  496MOL0     C66840   4.541   5.444   0.431 -0.2990 -0.5128  0.1179
  496MOL0     C66841   4.561   5.582   0.358 -0.4061  0.4237 -0.0276
  496MOL0     N66842   4.482   5.694   0.411  0.5472 -0.1419  0.6153
  496MOL0     C66843   4.404   5.770   0.325  1.2352 -0.1333  0.7607
  496MOL0     C66844   4.322   5.848   0.388  0.6631 -0.1382 -0.3808
  496MOL0     C66845   4.240   5.955   0.327  1.1236 -0.1311  0.1882
  496MOL0     C66846   4.148   6.018   0.431  0.1222 -0.1667 -0.3545
  496MOL0     C66847   4.063   6.136   0.361 -0.6181 -0.3061 -0.5301
  496MOL0     C66848   3.975   6.199   0.479  0.0681  0.6513 -0.1941
  496MOL0     O66849   3.895   6.091   0.549  0.5616  0.2608 -0.0129
  496MOL0     C66850   3.762   6.083   0.510 -0.4633 -1.2628  0.9058
  496MOL0     C66851   3.682   6.012   0.600  0.4591  0.0697  0.0523
  496MOL0     C66852   3.539   6.004   0.585  0.5339  0.5194 -0.1656
  496MOL0     C66853   3.463   5.911   0.673 -0.5038 -0.3681  0.3474
  496MOL0     C66854   3.482   6.051   0.462  1.6532 -0.5172 -0.6257
  496MOL0     C66855   3.337   6.036   0.420 -0.4401 -0.2692 -0.4000
  496MOL0     O66856   3.247   6.016   0.505  0.9503  0.7050 -0.2415
  496MOL0     C66857   3.117   6.057   0.476 -0.1169 -0.1071 -0.1295
  496MOL0     C66858   3.089   6.189   0.431 -0.5443 -0.4965  0.4621
  496MOL0     C66859   2.958   6.219   0.398 -0.5078  0.1604  0.8200
  496MOL0     C66860   2.854   6.126   0.399  0.4652  0.1153  0.3139
  496MOL0     O66861   2.725   6.162   0.370 -0.7795  0.5360 -0.0128
  496MOL0     C66862   2.681   6.300   0.384  0.6015  0.2585 -1.0207
  496MOL0     C66863   2.530   6.298   0.352 -0.2037 -0.0163  0.0562
  496MOL0     C66864   2.491   6.262   0.209  0.5633  0.0515 -0.4466
  496MOL0     C66865   2.341   6.275   0.190  0.5799 -0.3015 -0.2068
  496MOL0     C66866   2.309   6.254   0.039 -0.0360 -0.3177 -0.6279
  496MOL0     C66867   2.157   6.276   0.014 -0.0842 -0.8142 -0.1151
  496MOL0     C66868   2.128   6.275  -0.133  0.2874  0.6250 -0.0048
  496MOL0     C66869   1.989   6.327  -0.174  0.7132  0.5189 -0.5633
  496MOL0    Cl66870   1.956   6.322  -0.344  0.3781 -0.1060  0.2460
  496MOL0     C66871   2.884   6.000   0.441  0.1803  0.6135 -0.3219
  496MOL0     C66872   3.016   5.960   0.488  0.7383 -0.1805  1.1046
  496MOL0     O66873   3.332   6.031   0.299  0.0447  0.6781  0.1390
  496MOL0     C66874   3.569   6.116   0.366 -0.5729  0.1335 -0.0374
  496MOL0     C66875   3.709   6.137   0.390  0.2518  0.0270  0.1170
  496MOL0     N66876   4.343   5.824   0.517 -0.0663 -0.4577  0.6587
  496MOL0     N66877   4.433   5.730   0.533 -0.2116  0.6542  0.0190
  496MOL0     C66878   5.460   4.942   0.133 -0.4027 -0.4791 -0.3089
  496MOL0     C66879   5.595   4.907   0.159  0.1163 -0.2159 -1.2239
  496MOL0     C66880   5.992   4.747   0.370  1.1567  0.1695  0.8075
  496MOL0     C66881   6.087   4.846   0.340  0.5129  0.9497 -0.3304
  496MOL0     C66882   6.219   4.823   0.361  0.2567 -0.7288 -0.1194
  496MOL0     C66883   6.259   4.707   0.423  0.5914 -0.1652 -0.0280
  496MOL0     O66884   6.391   4.704   0.455 -0.9161  0.1418 -0.5705
  496MOL0     C66885   6.455   4.576   0.458 -0.6350 -0.4141 -0.4925
  496MOL0     C66886   6.605   4.588   0.500  0.0352 -0.3023  0.0936
  496MOL0     C66887   6.636   4.660   0.628 -0.2683 -0.1488 -0.6824
  496MOL0     C66888   6.780   4.666   0.685 -0.1922  0.1901  0.0564
  496MOL0     C66889   6.849   4.541   0.660  0.3618 -0.2627  0.0437
  496MOL0     C66890   6.910   4.441   0.643  0.0998  0.7300  0.0473
  496MOL0     C66891   6.170   4.600   0.442 -0.6648 -0.2213 -0.0436
  496MOL0     C66892   6.035   4.624   0.418 -0.4727 -0.6668  0.0364
  496MOL0     H66893   5.612   5.033   0.468 -0.6511  1.7675 -0.9328
  496MOL0     H66894   5.415   5.121   0.414  1.5067  0.7414  0.0917
  496MOL0     H66895   5.198   5.103   0.379  0.8199 -1.4960 -0.7426
  496MOL0     H66896   5.240   5.237   0.277 -2.1664  1.1126 -1.9438
  496MOL0     H66897   5.040   5.166   0.128  2.2937  1.1719 -0.4012
  496MOL0     H66898   5.030   5.025   0.231 -0.5079  1.1668 -2.1674
  496MOL0     H66899   4.938   5.161   0.420  1.1673  3.2795  1.6232
  496MOL0     H66900   4.992   5.307   0.336 -1.2991  1.4548  0.2583
  496MOL0     H66901   4.804   5.242   0.155 -1.3525 -1.3000 -0.1471
  496MOL0     H66902   4.766   5.122   0.274  3.6559 -0.6959 -0.8205
  496MOL0     H66903   4.742   5.291   0.452 -3.5785 -3.1323 -0.6857
  496MOL0     H66904   4.777   5.427   0.334  1.8807 -0.5302 -1.5394
  496MOL0     H66905   4.562   5.339   0.238  0.4277 -1.3326 -0.2142
  496MOL0     H66906   4.558   5.226   0.378  2.7623 -2.0353 -1.3728
  496MOL0     H66907   4.433   5.431   0.443 -0.1697 -0.5441  1.3438
  496MOL0     H66908   4.589   5.440   0.529  0.1198 -4.0402 -0.1071
  496MOL0     H66909   4.535   5.567   0.253  0.1755  1.1367 -0.2866
  496MOL0     H66910   4.665   5.617   0.361 -0.5158  0.7684 -0.1587
  496MOL0     H66911   4.413   5.765   0.217 -1.7087 -0.5129  0.4476
  496MOL0     H66912   4.308   6.029   0.284 -0.5316  1.6876  0.5647
  496MOL0     H66913   4.176   5.904   0.255 -1.6763  1.8159  1.1063
  496MOL0     H66914   4.202   6.061   0.516  0.4190  0.2354 -0.7449
  496MOL0     H66915   4.085   5.939   0.475  0.4200  0.8591  2.1185
  496MOL0     H66916   4.000   6.106   0.277  1.0126  1.6915 -2.6022
  496MOL0     H66917   4.129   6.215   0.324 -1.7709  0.2619 -1.4609
  496MOL0     H66918   3.917   6.290   0.458  0.7180  0.5865 -2.4792
  496MOL0     H66919   4.049   6.230   0.553 -0.3555 -1.0056  0.9865
  496MOL0     H66920   3.716   5.947   0.680  0.6081  0.9996  0.7788
  496MOL0     H66921   3.517   5.888   0.766 -2.8269  0.2358  1.9426
  496MOL0     H66922   3.366   5.956   0.696 -0.2676  1.3046 -1.6261
  496MOL0     H66923   3.450   5.817   0.620  1.3982 -0.9429  0.8371
  496MOL0     H66924   3.161   6.267   0.412  1.2198 -2.1420  0.0801
  496MOL0     H66925   2.946   6.320   0.361  0.6366  0.1877  0.4808
  496MOL0     H66926   2.686   6.328   0.489 -3.4021 -0.2635 -0.5281
  496MOL0     H66927   2.731   6.378   0.326  0.6016  2.0191  1.2206
  496MOL0     H66928   2.475   6.227   0.415  0.0718  1.6127  2.2488
  496MOL0     H66929   2.494   6.400   0.371  0.7658 -0.2781  4.1300
  496MOL0     H66930   2.530   6.164   0.182  1.2938 -0.4109  2.0801
  496MOL0     H66931   2.545   6.335   0.148  1.4972  1.3333  1.8115
  496MOL0     H66932   2.292   6.197   0.248  1.2304 -2.1638 -2.0360
  496MOL0     H66933   2.321   6.379   0.217  4.4091  0.2147  1.3928
  496MOL0     H66934   2.348   6.155   0.014  3.1539  0.5583  0.4531
  496MOL0     H66935   2.366   6.318  -0.029 -3.9117 -0.8452 -4.9380
  496MOL0     H66936   2.102   6.197   0.066 -2.1421  1.8441  2.0167
  496MOL0     H66937   2.132   6.377   0.049 -2.5632 -1.4767  0.2109
  496MOL0     H66938   2.133   6.171  -0.169 -1.8890  1.2116 -2.2814
  496MOL0     H66939   2.210   6.338  -0.170  0.8942  1.3216  2.3970
  496MOL0     H66940   1.968   6.429  -0.141  0.0297  0.0513  0.4812
  496MOL0     H66941   1.909   6.267  -0.130  0.0893  2.6258  1.3523
  496MOL0     H66942   2.801   5.930   0.447  1.0128 -0.7583 -3.2935
  496MOL0     H66943   3.041   5.861   0.525  5.1893  0.9223  1.5642
  496MOL0     H66944   3.538   6.149   0.268 -0.9916 -1.1031 -0.3441
  496MOL0     H66945   3.780   6.165   0.313 -2.8604  0.5362 -2.7636
  496MOL0     H66946   5.417   4.924   0.036  1.6243  0.1126 -1.3834
  496MOL0     H66947   5.644   4.837   0.092 -2.3106 -3.1841 -0.1448
  496MOL0     H66948   6.054   4.940   0.299  0.0451  0.8198 -0.2553
  496MOL0     H66949   6.304   4.888   0.341  0.3409 -0.3186  1.4372
  496MOL0     H66950   6.395   4.517   0.529  1.4721 -0.5139  1.3136
  496MOL0     H66951   6.438   4.520   0.365 -0.7078 -0.8577 -0.2156
  496MOL0     H66952   6.667   4.635   0.424  4.0106 -2.7162  1.4513
  496MOL0     H66953   6.646   4.487   0.515  4.1612  1.2430  0.6986
  496MOL0     H66954   6.597   4.595   0.707  3.7543 -2.3999 -0.2363
  496MOL0     H66955   6.591   4.760   0.625 -1.7110 -0.7711 -0.4161
  496MOL0     H66956   6.766   4.692   0.791 -1.1708  1.3681 -0.3340
  496MOL0     H66957   6.839   4.748   0.644 -0.5885  1.0581  1.1623
  496MOL0     H66958   6.960   4.348   0.624  0.3794  0.7188  0.8184
  496MOL0     H66959   6.201   4.508   0.490 -2.7547 -0.6375  0.6106
  496MOL0     H66960   5.962   4.551   0.453 -1.8556  0.5698 -0.1933
  497MOL0     O66961   5.781   6.755   6.287  0.2801  0.2762  0.3672
  497MOL0     C66962   5.789   6.676   6.192 -0.7971  1.0301  0.2897
  497MOL0     O66963   5.688   6.642   6.109 -0.1550  0.0250 -0.3962
  497MOL0     C66964   5.565   6.695   6.139  0.0852 -0.7177 -0.3213
  497MOL0     C66965   5.466   6.626   6.204  0.3558  0.0473  0.2641
  497MOL0     C66966   5.330   6.668   6.228 -0.6566  0.0346  0.6679
  497MOL0     C66967   5.298   6.796   6.194  0.6760  0.0886 -0.3128
  497MOL0     O66968   5.171   6.855   6.204  0.2017  0.1498 -0.6457
  497MOL0     C66969   5.057   6.774   6.237 -0.4373 -0.0701  0.2999
  497MOL0     C66970   4.932   6.860   6.234  0.3543 -0.4007  0.3116
  497MOL0     C66971   4.802   6.781   6.228 -0.5636 -0.1846 -0.2781
  497MOL0     C66972   4.666   6.858   6.232  0.7442  0.0925 -0.2122
  497MOL0     C66973   4.539   6.774   6.239 -0.0743  0.5544  0.2716
  497MOL0     C66974   4.503   6.710   6.101  0.0249 -0.3776 -0.4114
  497MOL0     C66975   4.338   6.709   6.084  0.3093  0.8698 -0.5295
  497MOL0     C66976   4.278   6.604   6.178 -0.1146 -0.3379 -0.1063
  497MOL0     N66977   4.134   6.580   6.150  0.2513  0.1952  0.8432
  497MOL0     C66978   4.099   6.475   6.070 -0.2918 -0.5815  0.4039
  497MOL0     C66979   3.970   6.477   6.076 -0.0359  0.1099 -0.2665
  497MOL0     C66980   3.863   6.394   6.008  0.3230  0.1978 -0.6086
  497MOL0     C66981   3.845   6.454   5.853 -0.5663  0.0777 -0.1888
  497MOL0     C66982   3.793   6.596   5.850  0.0633  0.3479 -0.3458
  497MOL0     C66983   3.654   6.615   5.911  0.2616 -0.0297  0.5812
  497MOL0     O66984   3.564   6.504   5.871  0.2055 -0.1827  0.1108
  497MOL0     C66985   3.429   6.518   5.875 -0.3045  0.4701  0.2583
  497MOL0     C66986   3.350   6.408   5.859  0.6826  1.0076 -0.3030
  497MOL0     C66987   3.205   6.398   5.866 -0.7668 -0.2683  0.9505
  497MOL0     C66988   3.135   6.267   5.834 -0.0611 -0.0571 -0.1346
  497MOL0     C66989   3.138   6.523   5.882 -0.2469 -0.4058  0.0386
  497MOL0     C66990   2.991   6.542   5.881  0.5436  0.1116  0.2336
  497MOL0     O66991   2.956   6.668   5.865  0.9412  0.3350  0.5017
  497MOL0     C66992   2.830   6.715   5.882  0.5382  0.7041  0.1650
  497MOL0     C66993   2.819   6.847   5.923 -0.4522 -0.2340  0.0098
  497MOL0     C66994   2.695   6.904   5.939 -0.2038  0.0695 -0.3767
  497MOL0     C66995   2.578   6.839   5.894 -0.0239 -0.6840  0.6376
  497MOL0     O66996   2.456   6.907   5.901  0.2588  0.6636  0.1151
  497MOL0     C66997   2.359   6.863   5.804  0.8157 -0.3030 -0.1596
  497MOL0     C66998   2.245   6.970   5.821  0.3246  0.0461  0.3284
  497MOL0     C66999   2.206   6.982   5.975  0.8346  0.0626  0.5220
  497MOL0     C67000   2.093   7.094   5.988 -0.9368  0.7836 -0.5020
  497MOL0     C67001   2.044   7.095   6.129  0.0943 -0.1540 -0.5216
  497MOL0     C67002   1.944   7.211   6.160 -0.6750 -0.1955  0.7011
  497MOL0     C67003   1.809   7.203   6.097  0.0999 -0.1530  0.3132
  497MOL0     C67004   1.733   7.079   6.135  0.1071 -0.4415 -0.0323
  497MOL0    Cl67005   1.555   7.097   6.064 -0.2356  0.4923 -0.2119
  497MOL0     C67006   2.596   6.711   5.839  0.6078 -0.4158 -0.4214
  497MOL0     C67007   2.719   6.649   5.831  0.5234 -1.1645 -1.3790
  497MOL0     O67008   2.913   6.453   5.906 -0.6457  0.5965  0.0435
  497MOL0     C67009   3.214   6.643   5.896 -0.1258  0.0357  0.2276
  497MOL0     C67010   3.355   6.639   5.905  0.0459  0.5495  1.1568
  497MOL0     N67011   3.930   6.577   6.171 -0.6609  0.2249  0.6331
  497MOL0     N67012   4.027   6.636   6.212  0.3311 -0.4128 -0.0136
  497MOL0     C67013   5.390   6.865   6.113 -0.2944 -0.1032  0.6741
  497MOL0     C67014   5.533   6.830   6.092  0.2409  0.1433  0.5775
  497MOL0     C67015   5.922   6.609   6.174  0.3948 -0.5797  0.1556
  497MOL0     C67016   5.938   6.526   6.064 -0.1225  0.0860  0.8081
  497MOL0     C67017   6.063   6.462   6.041  0.5032 -0.1746  0.4159
  497MOL0     C67018   6.162   6.465   6.145  0.1385  0.6620  0.4250
  497MOL0     O67019   6.273   6.393   6.121  0.3247 -0.5768  0.2630
  497MOL0     C67020   6.363   6.357   6.224  0.0478 -0.0866  1.0549
  497MOL0     C67021   6.299   6.248   6.309  0.3346  0.3662 -1.1501
  497MOL0     C67022   6.391   6.223   6.434 -0.7153  0.5573 -0.1073
  497MOL0     C67023   6.380   6.078   6.474  0.6151  0.7012 -0.2741
  497MOL0     C67024   6.455   6.046   6.586 -0.7683  0.2802 -0.3986
  497MOL0     C67025   6.529   6.021   6.679 -1.4884  0.8278  0.5821
  497MOL0     C67026   6.143   6.552   6.257  0.3749  0.3558 -0.3231
  497MOL0     C67027   6.027   6.629   6.267  0.1274 -0.5771 -0.1438
  497MOL0     H67028   5.509   6.528   6.223  0.6875 -0.0197 -0.7747
  497MOL0     H67029   5.261   6.595   6.268 -0.7129  0.5191  1.4785
  497MOL0     H67030   5.042   6.685   6.175  1.1656  0.5819 -1.0908
  497MOL0     H67031   5.075   6.732   6.336  0.9585  0.9737  0.5109
  497MOL0     H67032   4.930   6.931   6.317 -0.6352 -0.6148  0.4750
  497MOL0     H67033   4.938   6.924   6.145  1.4423 -0.6629  0.1792
  497MOL0     H67034   4.805   6.717   6.140  0.7072 -0.7620  0.1712
  497MOL0     H67035   4.807   6.716   6.315 -1.2760  0.1015 -0.0117
  497MOL0     H67036   4.668   6.918   6.324 -1.4429 -1.9260  1.3030
  497MOL0     H67037   4.665   6.915   6.139  0.3119  1.3809  0.5524
  497MOL0     H67038   4.541   6.698   6.317 -1.7735  0.0836 -0.1105
  497MOL0     H67039   4.456   6.842   6.262 -0.8030  1.0788 -3.2262
  497MOL0     H67040   4.547   6.770   6.020  0.8158  0.0286  0.3010
  497MOL0     H67041   4.553   6.613   6.097  0.6880 -0.2273  2.3255
  497MOL0     H67042   4.304   6.812   6.101 -2.0089 -0.2055  2.2247
  497MOL0     H67043   4.305   6.671   5.987  0.1847  1.4592 -0.7193
  497MOL0     H67044   4.288   6.655   6.275  0.7026 -0.8357  0.0836
  497MOL0     H67045   4.333   6.510   6.189  1.1007  0.6726  4.7343
  497MOL0     H67046   4.165   6.398   6.032  4.9102  1.5566  4.0239
  497MOL0     H67047   3.900   6.291   6.004  1.3925  0.5856 -1.0434
  497MOL0     H67048   3.770   6.404   6.064  0.0757  3.8453 -1.4340
  497MOL0     H67049   3.769   6.388   5.811  0.3200 -0.3819 -1.0896
  497MOL0     H67050   3.941   6.437   5.804 -0.5011 -3.8649  0.9154
  497MOL0     H67051   3.786   6.605   5.741  1.3896 -2.6794 -0.7910
  497MOL0     H67052   3.864   6.670   5.885 -0.8067  0.0804  2.1448
  497MOL0     H67053   3.607   6.709   5.882 -2.0791 -1.0768  0.7513
  497MOL0     H67054   3.660   6.619   6.020  1.2489 -0.4067  0.5519
  497MOL0     H67055   3.403   6.314   5.852 -1.6783 -0.3015 -2.3447
  497MOL0     H67056   3.092   6.274   5.734 -2.8139  1.3992  1.0331
  497MOL0     H67057   3.209   6.186   5.843  0.5042  0.6169  1.7362
  497MOL0     H67058   3.055   6.248   5.906  0.1315 -2.4431 -0.4607
  497MOL0     H67059   2.901   6.909   5.957 -0.7146  0.7427 -1.0778
  497MOL0     H67060   2.679   7.001   5.986 -0.3849  0.5061 -1.3249
  497MOL0     H67061   2.392   6.856   5.700 -1.8178 -2.5580 -0.9805
  497MOL0     H67062   2.314   6.768   5.834  2.3825 -1.3367 -0.9921
  497MOL0     H67063   2.277   7.071   5.794 -2.2041  2.5315  5.3575
  497MOL0     H67064   2.167   6.947   5.748  0.6052  0.4692 -0.1185
  497MOL0     H67065   2.289   7.005   6.042  0.9659 -0.8383  0.6863
  497MOL0     H67066   2.174   6.882   6.008  0.6829 -1.0518 -2.6256
  497MOL0     H67067   2.131   7.191   5.955 -1.5346  0.5461 -1.9517
  497MOL0     H67068   2.012   7.083   5.915 -2.1035  0.0629  0.8691
  497MOL0     H67069   2.133   7.113   6.190 -1.9072 -2.3126  3.4797
  497MOL0     H67070   2.010   6.998   6.167  0.2163  0.2454  0.6489
  497MOL0     H67071   1.936   7.207   6.269 -0.4641 -0.4932  0.7046
  497MOL0     H67072   1.990   7.307   6.137 -0.9898  0.1466  1.4497
  497MOL0     H67073   1.815   7.201   5.988 -0.4181  1.5124  0.2154
  497MOL0     H67074   1.751   7.291   6.127  0.4877 -0.1624  1.1158
  497MOL0     H67075   1.725   7.062   6.243 -0.9645 -3.2791 -0.4598
  497MOL0     H67076   1.784   6.996   6.085  3.0536  2.3879 -2.1421
  497MOL0     H67077   2.518   6.651   5.793  0.3731 -0.5084  0.1015
  497MOL0     H67078   2.727   6.561   5.768  2.5880 -0.6320 -1.9471
  497MOL0     H67079   3.168   6.739   5.918 -0.6429 -0.3612  0.9301
  497MOL0     H67080   3.400   6.736   5.923  1.4889 -0.4922  3.6607
  497MOL0     H67081   5.353   6.953   6.060  2.0195  0.0465 -0.8334
  497MOL0     H67082   5.601   6.882   6.026 -0.8325 -0.4832 -1.0866
  497MOL0     H67083   5.867   6.511   5.984  1.9128 -1.3876 -0.8263
  497MOL0     H67084   6.078   6.397   5.956  0.9700 -0.1723  0.4947
  497MOL0     H67085   6.457   6.323   6.180 -1.3360 -1.3614 -1.0820
  497MOL0     H67086   6.387   6.441   6.289 -3.3246  2.0349 -0.1812
  497MOL0     H67087   6.291   6.161   6.244  0.9675  1.8469 -3.3259
  497MOL0     H67088   6.199   6.281   6.339  0.2415 -0.6355 -0.3279
  497MOL0     H67089   6.358   6.286   6.518  0.5461 -2.0368  2.5190
  497MOL0     H67090   6.490   6.252   6.396 -1.0542 -1.5751 -2.8948
  497MOL0     H67091   6.416   6.016   6.391  2.7271 -3.5636  3.3443
  497MOL0     H67092   6.281   6.043   6.506  1.1340  0.2128  0.8450
  497MOL0     H67093   6.596   6.004   6.761  3.3677  0.1384 -3.1138
  497MOL0     H67094   6.225   6.557   6.327  0.2677  0.6267 -0.2143
  497MOL0     H67095   6.011   6.696   6.351  2.0849  0.4174 -0.4955
  498MOL0     O67096   5.465   1.111  10.400 -0.6012  0.0462 -0.3042
  498MOL0     C67097   5.411   1.186  10.481  0.4011 -0.8159  0.9030
  498MOL0     O67098   5.332   1.153  10.581  1.0242  0.1143 -0.4752
  498MOL0     C67099   5.283   1.026  10.589 -0.1932  0.0775  0.2843
  498MOL0     C67100   5.276   0.976  10.722  0.3251  0.1619 -0.6691
  498MOL0     C67101   5.237   0.846  10.751  0.4956 -0.1111 -0.4962
  498MOL0     C67102   5.188   0.765  10.640 -0.0151 -0.2892 -0.5438
  498MOL0     O67103   5.132   0.645  10.675 -0.3523  0.5012  0.2302
  498MOL0     C67104   5.229   0.538  10.641  0.5633  0.7714  0.1312
  498MOL0     C67105   5.176   0.400  10.692  0.6209 -0.2728  0.7225
  498MOL0     C67106   5.031   0.374  10.650 -1.0089 -0.4457 -0.4536
  498MOL0     C67107   4.985   0.227  10.702  0.5541  0.5985  0.3489
  498MOL0     C67108   4.842   0.184  10.649 -0.1544 -0.0079 -0.3052
  498MOL0     C67109   4.816   0.039  10.693 -0.7196  0.4519 -1.3338
  498MOL0     C67110   4.681  -0.005  10.648 -0.9164 -0.8377  0.0786
  498MOL0     C67111   4.561   0.085  10.693  0.4075 -1.1883  0.3749
  498MOL0     N67112   4.432   0.019  10.679  0.2683  0.2023  0.5403
  498MOL0     C67113   4.382  -0.072  10.772 -0.1735  0.7281  0.0514
  498MOL0     C67114   4.258  -0.111  10.733  0.7999  0.3025  1.6328
  498MOL0     C67115   4.142  -0.210  10.784  0.7853 -0.4064 -0.3521
  498MOL0     C67116   4.160  -0.278  10.919 -0.1655 -0.2902  0.1374
  498MOL0     C67117   4.030  -0.356  10.960  0.7356 -0.3178 -0.1544
  498MOL0     C67118   3.911  -0.267  10.999 -0.7861  0.3641 -0.0394
  498MOL0     O67119   3.803  -0.358  11.041 -0.2678 -0.1443 -0.3615
  498MOL0     C67120   3.719  -0.410  10.947 -0.0892 -0.2091  0.2717
  498MOL0     C67121   3.632  -0.507  10.987 -0.6862 -0.0954 -0.7257
  498MOL0     C67122   3.541  -0.574  10.901  0.1536 -0.1074  0.6609
  498MOL0     C67123   3.452  -0.684  10.957 -0.0939 -0.6101  0.4393
  498MOL0     C67124   3.531  -0.534  10.763 -0.4844 -0.0436  0.4517
  498MOL0     C67125   3.450  -0.600  10.663  0.0230  0.1483 -0.5347
  498MOL0     O67126   3.435  -0.519  10.553  0.2786 -0.1713 -0.7549
  498MOL0     C67127   3.399  -0.568  10.432  0.4218  0.0881 -0.4141
  498MOL0     C67128   3.363  -0.697  10.388  0.5582 -0.7942 -0.5668
  498MOL0     C67129   3.334  -0.726  10.255  0.7656 -0.3823 -0.3779
  498MOL0     C67130   3.340  -0.625  10.160 -0.6009  0.7496 -0.2057
  498MOL0     O67131   3.308  -0.663  10.034 -0.2630  0.2635 -0.4743
  498MOL0     C67132   3.177  -0.620  10.008  0.1130 -0.7601 -0.7795
  498MOL0     C67133   3.112  -0.716   9.913 -0.1431  0.5333  0.8823
  498MOL0     C67134   3.091  -0.857   9.963 -0.1685  0.7325  0.0459
  498MOL0     C67135   3.038  -0.931   9.838 -0.2357 -0.2731 -0.5015
  498MOL0     C67136   2.952  -1.045   9.878 -0.1596 -0.0524 -0.7261
  498MOL0     C67137   3.008  -1.170   9.943 -0.2152  0.1909  0.1221
  498MOL0     C67138   3.131  -1.237   9.866 -0.0372  0.5875  0.3850
  498MOL0     C67139   3.081  -1.317   9.742  0.3077  0.6540 -0.2872
  498MOL0    Cl67140   3.228  -1.326   9.645  0.2847 -0.7121  0.1260
  498MOL0     C67141   3.370  -0.491  10.203 -0.1698  0.9835 -0.7579
  498MOL0     C67142   3.398  -0.463  10.339 -0.1442 -0.2416  0.3687
  498MOL0     O67143   3.417  -0.717  10.678  0.5531  0.0928  0.7489
  498MOL0     C67144   3.607  -0.428  10.725 -0.0306 -0.2330 -0.5759
  498MOL0     C67145   3.697  -0.366  10.812 -0.3641 -0.1650 -0.4223
  498MOL0     N67146   4.231  -0.041  10.619 -0.5561  1.3357 -0.0447
  498MOL0     N67147   4.330   0.034  10.588 -0.0721  0.5894  0.2067
  498MOL0     C67148   5.195   0.816  10.510 -1.3718 -0.0454 -0.0654
  498MOL0     C67149   5.245   0.949  10.482  0.1113  0.6988  0.3078
  498MOL0     C67150   5.438   1.330  10.457  0.0289 -1.1916  0.5626
  498MOL0     C67151   5.376   1.427  10.538 -0.1768 -0.8781  0.0613
  498MOL0     C67152   5.402   1.562  10.530 -0.5598  0.6276 -0.0403
  498MOL0     C67153   5.488   1.614  10.435 -0.2391  1.1052  1.2619
  498MOL0     O67154   5.486   1.753  10.436  0.1888 -0.9603  0.0019
  498MOL0     C67155   5.556   1.836  10.345 -0.9694 -0.4464 -0.3163
  498MOL0     C67156   5.703   1.842  10.385  0.2950 -0.2022  0.8467
  498MOL0     C67157   5.783   1.963  10.326  0.6448 -0.6888 -0.5339
  498MOL0     C67158   5.915   1.923  10.253 -0.2493 -0.1830  0.1537
  498MOL0     C67159   5.889   1.815  10.152 -0.5534 -1.2186 -0.2861
  498MOL0     C67160   5.866   1.740  10.064 -0.4336  0.2707 -0.7199
  498MOL0     C67161   5.553   1.525  10.341 -0.2739  0.3889  0.0765
  498MOL0     C67162   5.525   1.383  10.349 -0.0868 -0.2400 -0.1494
  498MOL0     H67163   5.296   1.037  10.810 -2.8925  0.6339 -0.1066
  498MOL0     H67164   5.225   0.805  10.850 -2.0464 -1.3439 -1.1974
  498MOL0     H67165   5.246   0.528  10.534  1.9931 -3.5274  0.5757
  498MOL0     H67166   5.320   0.569  10.693  2.4432 -1.1528 -1.8308
  498MOL0     H67167   5.236   0.320  10.648  0.6725  1.6230 -2.9971
  498MOL0     H67168   5.178   0.393  10.802  2.2577 -0.3636  0.7154
  498MOL0     H67169   4.968   0.451  10.695  1.5989  0.9098  1.1508
  498MOL0     H67170   5.030   0.370  10.541  1.8922 -2.7004 -0.5394
  498MOL0     H67171   5.054   0.154  10.657  0.9536  1.5722 -0.6854
  498MOL0     H67172   4.995   0.218  10.810  2.3145 -2.5354  0.0482
  498MOL0     H67173   4.756   0.241  10.684 -1.8414 -2.8329  0.4948
  498MOL0     H67174   4.842   0.190  10.540  1.6681  0.8172 -0.3012
  498MOL0     H67175   4.905  -0.021  10.672  1.1654  1.4931  2.6686
  498MOL0     H67176   4.817   0.029  10.802  2.5283 -0.9843 -1.3639
  498MOL0     H67177   4.682   0.002  10.539  1.0896  0.1484  0.1138
  498MOL0     H67178   4.660  -0.107  10.680 -3.5756 -1.9124 -4.2564
  498MOL0     H67179   4.565   0.176  10.633  3.4143 -1.2541  0.3466
  498MOL0     H67180   4.570   0.117  10.797  0.7548  1.5699 -0.4235
  498MOL0     H67181   4.436  -0.115  10.855  0.2223  0.0564 -0.5383
  498MOL0     H67182   4.057  -0.142  10.793  0.0975 -0.7193 -3.3422
  498MOL0     H67183   4.127  -0.285  10.706  1.6153 -0.8176 -0.1226
  498MOL0     H67184   4.193  -0.214  11.001  0.5014 -0.5829  0.1018
  498MOL0     H67185   4.237  -0.354  10.907  1.1620  0.6868  1.9145
  498MOL0     H67186   4.060  -0.411  11.049  0.3238  0.4038  0.4453
  498MOL0     H67187   4.009  -0.426  10.878 -1.0205  0.2409 -0.2144
  498MOL0     H67188   3.876  -0.194  10.925  0.5813  1.2391  0.1333
  498MOL0     H67189   3.944  -0.206  11.083  1.7672 -0.8845 -0.0562
  498MOL0     H67190   3.633  -0.523  11.094 -3.8537 -2.0654 -0.8638
  498MOL0     H67191   3.463  -0.690  11.066  2.1966  0.9314  0.3536
  498MOL0     H67192   3.350  -0.668  10.921  0.8350  0.9488 -1.7071
  498MOL0     H67193   3.482  -0.787  10.932 -1.6524 -1.1737  0.7396
  498MOL0     H67194   3.369  -0.773  10.464 -1.2158 -2.2598 -1.7733
  498MOL0     H67195   3.326  -0.829  10.221  0.7156 -0.4314 -0.2177
  498MOL0     H67196   3.118  -0.607  10.099  1.6156 -0.0190  0.1308
  498MOL0     H67197   3.172  -0.522   9.961 -1.4548 -0.6812 -0.5079
  498MOL0     H67198   3.012  -0.686   9.881 -0.0906 -0.3030 -0.1044
  498MOL0     H67199   3.176  -0.715   9.824  1.4773  2.2368  1.9862
  498MOL0     H67200   3.019  -0.854  10.045  0.5179  2.3679  0.6339
  498MOL0     H67201   3.180  -0.912   9.992  0.2971  0.3367 -1.9644
  498MOL0     H67202   2.974  -0.866   9.778 -1.5436 -2.7629 -1.9256
  498MOL0     H67203   3.110  -0.954   9.759  0.4303  0.6812 -0.1951
  498MOL0     H67204   2.898  -1.068   9.786  1.1102 -0.7487 -1.3164
  498MOL0     H67205   2.880  -0.996   9.945 -0.0029 -4.4142  3.1031
  498MOL0     H67206   3.034  -1.143  10.046 -2.9768  1.4606  0.5775
  498MOL0     H67207   2.926  -1.242   9.951  0.0506 -0.1563 -0.2180
  498MOL0     H67208   3.174  -1.318   9.926  1.3579 -1.0535 -2.5762
  498MOL0     H67209   3.211  -1.166   9.845 -1.0129  1.1211 -1.8336
  498MOL0     H67210   2.997  -1.259   9.701  0.1785  0.9981  0.4496
  498MOL0     H67211   3.064  -1.419   9.778  0.9934  0.7466  0.3110
  498MOL0     H67212   3.368  -0.402  10.141 -6.5318  1.6304 -0.2849
  498MOL0     H67213   3.407  -0.363  10.380 -0.2658  1.0196 -2.4089
  498MOL0     H67214   3.604  -0.375  10.631  2.2218 -0.4987 -0.8646
  498MOL0     H67215   3.754  -0.280  10.776  0.1995 -0.7678 -0.9876
  498MOL0     H67216   5.160   0.749  10.432 -1.3016 -0.1870  0.0233
  498MOL0     H67217   5.233   0.980  10.379 -1.1690  0.3726  0.3532
  498MOL0     H67218   5.307   1.387  10.612  1.3131  1.9899  3.2595
  498MOL0     H67219   5.343   1.626  10.594 -2.1383  0.0710 -0.8781
  498MOL0     H67220   5.557   1.784  10.249 -2.8973  1.8823 -1.7099
  498MOL0     H67221   5.513   1.937  10.344  1.4249  0.6976 -2.6971
  498MOL0     H67222   5.750   1.748  10.353  2.5757  1.8427 -2.4224
  498MOL0     H67223   5.729   1.858  10.490  1.1210  1.8964  0.3718
  498MOL0     H67224   5.811   2.027  10.410  3.6191  0.9205 -2.5734
  498MOL0     H67225   5.725   2.037  10.271  1.7839  1.7552  1.3704
  498MOL0     H67226   5.998   1.897  10.320  0.4211  0.0125 -0.5711
  498MOL0     H67227   5.962   2.011  10.208 -0.5632  2.0431  3.7550
  498MOL0     H67228   5.844   1.668   9.988  0.8241  0.7783 -1.5949
  498MOL0     H67229   5.625   1.555  10.266 -0.4617 -2.8730 -1.6004
  498MOL0     H67230   5.593   1.319  10.293 -0.0829  0.8483 -1.4334
  499MOL0     O67231   5.846   1.646   1.394 -0.7720 -0.7228  0.0076
  499MOL0     C67232   5.787   1.616   1.497 -0.9630  0.1417  0.5175
  499MOL0     O67233   5.762   1.691   1.610  0.3527  0.1715 -0.0368
  499MOL0     C67234   5.831   1.804   1.613  0.3532  0.1767  0.8350
  499MOL0     C67235   5.766   1.922   1.630  0.6706  0.0473 -0.1081
  499MOL0     C67236   5.833   2.043   1.645  0.4946  0.0398 -0.4281
  499MOL0     C67237   5.973   2.048   1.637 -0.3452  0.0326  0.0071
  499MOL0     O67238   6.031   2.172   1.633  0.2947  0.6093  0.0970
  499MOL0     C67239   6.165   2.175   1.577 -0.2873 -0.4561  0.0495
  499MOL0     C67240   6.176   2.149   1.425 -0.3885  0.2268 -0.3115
  499MOL0     C67241   6.309   2.080   1.384  0.9312  0.8779 -0.4370
  499MOL0     C67242   6.412   2.188   1.342 -0.6983 -0.0855 -0.0940
  499MOL0     C67243   6.522   2.192   1.444  0.1654  0.3744 -0.3063
  499MOL0     C67244   6.606   2.058   1.436  0.6593 -0.1023 -0.2319
  499MOL0     C67245   6.754   2.085   1.470 -0.2814 -0.1670  0.0154
  499MOL0     C67246   6.824   2.176   1.372 -0.1050 -0.5042 -0.3196
  499MOL0     N67247   6.887   2.105   1.261 -0.0899  0.2154  0.3613
  499MOL0     C67248   6.973   1.998   1.265  0.4487  0.6605  0.0964
  499MOL0     C67249   6.989   1.954   1.135  0.1742  0.5898 -0.1508
  499MOL0     C67250   7.058   1.833   1.093 -0.2992  0.4743 -0.0608
  499MOL0     C67251   6.955   1.720   1.084  0.8465  0.1223  0.4166
  499MOL0     C67252   6.884   1.695   0.942  0.5081  0.7129  0.3728
  499MOL0     C67253   6.784   1.803   0.890  0.2611 -0.2623  0.2499
  499MOL0     O67254   6.689   1.821   0.996 -0.3699 -0.0720  0.1650
  499MOL0     C67255   6.585   1.906   0.978 -0.1661  0.3998 -0.2878
  499MOL0     C67256   6.612   2.033   0.929  1.0897 -0.7783 -0.1867
  499MOL0     C67257   6.512   2.138   0.927 -0.2102 -0.4656  0.9430
  499MOL0     C67258   6.558   2.276   0.881  0.0590  0.1661 -0.0626
  499MOL0     C67259   6.383   2.108   0.980 -0.4683 -0.3976  0.3112
  499MOL0     C67260   6.283   2.215   1.009  0.4331 -0.8241 -0.0587
  499MOL0     O67261   6.325   2.349   1.017  0.5954  0.0493  0.6186
  499MOL0     C67262   6.235   2.455   1.041 -0.7735 -0.2783 -0.3662
  499MOL0     C67263   6.277   2.584   1.003 -0.1951  0.4230 -0.4749
  499MOL0     C67264   6.200   2.704   1.029 -0.6533  1.2122 -0.6169
  499MOL0     C67265   6.075   2.683   1.081 -0.3679 -0.3099  0.1460
  499MOL0     O67266   6.007   2.789   1.110 -0.1697 -0.4684 -0.3633
  499MOL0     C67267   5.957   2.862   0.992  0.0787 -0.1344 -0.5333
  499MOL0     C67268   5.851   2.963   1.047  1.0508  0.1362 -0.5576
  499MOL0     C67269   5.724   2.898   1.117 -0.7394 -0.6642 -0.6367
  499MOL0     C67270   5.688   2.964   1.246  0.1443 -1.4647 -0.5553
  499MOL0     C67271   5.624   3.101   1.233 -0.0408 -0.4226 -0.1426
  499MOL0     C67272   5.488   3.102   1.300  1.1238 -0.5516 -0.4915
  499MOL0     C67273   5.411   3.232   1.305 -0.3213  0.4152  0.5019
  499MOL0     C67274   5.273   3.214   1.377 -0.2405  0.1689  0.0645
  499MOL0    Cl67275   5.309   3.190   1.549 -0.0748  0.2538 -0.2248
  499MOL0     C67276   6.039   2.560   1.147 -0.0779  0.9960 -0.5261
  499MOL0     C67277   6.111   2.443   1.113 -0.1661  0.2884 -1.0846
  499MOL0     O67278   6.172   2.177   1.037 -0.5751 -0.4888  0.7734
  499MOL0     C67279   6.353   1.979   1.018 -0.2052  0.1225 -0.5483
  499MOL0     C67280   6.455   1.879   1.020  0.5059  0.8522  0.5989
  499MOL0     N67281   6.909   2.041   1.064 -0.2451 -0.2079 -0.0279
  499MOL0     N67282   6.845   2.126   1.129  0.4666 -0.4300 -0.2808
  499MOL0     C67283   6.043   1.923   1.633 -0.5978  0.7899 -0.8446
  499MOL0     C67284   5.969   1.804   1.624  0.0628  0.3548 -0.3316
  499MOL0     C67285   5.717   1.484   1.484  0.4604 -0.0599 -1.0662
  499MOL0     C67286   5.610   1.449   1.564  0.6155  0.2789  0.0567
  499MOL0     C67287   5.568   1.320   1.559 -1.3734 -0.3648 -0.6845
  499MOL0     C67288   5.634   1.223   1.482  0.5035 -1.3305 -0.3316
  499MOL0     O67289   5.577   1.098   1.484 -0.4772 -0.6094 -0.6402
  499MOL0     C67290   5.591   1.018   1.367 -0.1613  0.1486 -0.2652
  499MOL0     C67291   5.488   0.903   1.362 -0.5298 -0.7090  0.8540
  499MOL0     C67292   5.487   0.822   1.492  0.3476 -0.2684 -0.2656
  499MOL0     C67293   5.611   0.729   1.525 -0.2221  0.3941  0.3978
  499MOL0     C67294   5.585   0.630   1.625  0.4418 -1.0394 -0.6737
  499MOL0     C67295   5.571   0.550   1.706 -0.0947  0.1290 -0.6336
  499MOL0     C67296   5.750   1.256   1.416 -0.4974 -0.6144  0.3006
  499MOL0     C67297   5.794   1.389   1.417  0.4415 -0.9267  0.9477
  499MOL0     H67298   5.658   1.926   1.630  0.6079 -1.0777 -1.4571
  499MOL0     H67299   5.780   2.134   1.672 -2.1645 -1.9411  1.6176
  499MOL0     H67300   6.204   2.274   1.604  0.4504 -0.8443  0.4231
  499MOL0     H67301   6.227   2.108   1.636  1.0849  1.5460  0.9956
  499MOL0     H67302   6.104   2.074   1.393  0.7106  0.3504 -3.4327
  499MOL0     H67303   6.166   2.242   1.369 -1.0939  0.1056 -0.3880
  499MOL0     H67304   6.342   2.011   1.462 -1.0978 -0.6644 -0.8529
  499MOL0     H67305   6.283   2.016   1.298 -0.8955  0.8618  0.0903
  499MOL0     H67306   6.458   2.159   1.247 -0.5970 -0.8665  0.1890
  499MOL0     H67307   6.370   2.288   1.325  1.6110  1.5718  2.9365
  499MOL0     H67308   6.583   2.283   1.446 -1.2189  1.3167  0.2913
  499MOL0     H67309   6.485   2.195   1.546  0.3055 -0.7556 -0.2058
  499MOL0     H67310   6.561   1.986   1.505  1.7085 -0.5661 -0.0067
  499MOL0     H67311   6.606   2.015   1.335 -0.6154 -1.0210  0.1329
  499MOL0     H67312   6.753   2.144   1.562 -1.7318 -0.0169 -0.0599
  499MOL0     H67313   6.808   1.993   1.491 -0.2151 -0.2448 -0.4659
  499MOL0     H67314   6.914   2.214   1.421  1.3791 -1.8924 -1.8244
  499MOL0     H67315   6.757   2.251   1.330  0.3019  0.7574  1.1916
  499MOL0     H67316   7.017   1.948   1.351  0.9057  0.0648 -0.4745
  499MOL0     H67317   7.108   1.848   0.997  1.7007 -0.7231  0.7341
  499MOL0     H67318   7.137   1.806   1.164  0.2177  1.7891 -0.1067
  499MOL0     H67319   6.874   1.711   1.156 -1.6256 -0.9645 -2.2860
  499MOL0     H67320   7.021   1.633   1.095 -1.6273 -2.5593 -3.3911
  499MOL0     H67321   6.831   1.602   0.962  1.8625  0.1779  1.7527
  499MOL0     H67322   6.955   1.692   0.859  1.4406  3.7896  0.9075
  499MOL0     H67323   6.732   1.770   0.800 -0.8627  2.8683 -0.3775
  499MOL0     H67324   6.836   1.895   0.860 -2.1839  2.2518  3.1243
  499MOL0     H67325   6.714   2.066   0.911  2.2174 -1.4679  3.9773
  499MOL0     H67326   6.473   2.334   0.843 -0.9736  0.4178  2.4525
  499MOL0     H67327   6.601   2.326   0.968  1.4874  0.0197 -0.6558
  499MOL0     H67328   6.641   2.262   0.811  0.0436 -1.7880  0.2461
  499MOL0     H67329   6.375   2.577   0.957  1.0430 -0.4509  2.0688
  499MOL0     H67330   6.235   2.798   0.989  1.6996  0.0620 -1.4129
  499MOL0     H67331   6.040   2.921   0.952  0.3393  0.5454  0.9379
  499MOL0     H67332   5.923   2.800   0.909  0.7835 -1.4648  0.1501
  499MOL0     H67333   5.901   3.015   1.129 -0.9364 -0.0202  0.8462
  499MOL0     H67334   5.823   3.024   0.961  2.2915 -0.0861 -1.1397
  499MOL0     H67335   5.744   2.795   1.146 -2.0631 -0.2910  1.8909
  499MOL0     H67336   5.631   2.906   1.060  1.6183  1.8517 -4.6633
  499MOL0     H67337   5.614   2.888   1.273  0.1501 -2.1306 -2.2335
  499MOL0     H67338   5.771   2.955   1.316 -0.3638 -0.4692  0.1942
  499MOL0     H67339   5.626   3.127   1.126 -0.2659  0.7651  0.1217
  499MOL0     H67340   5.689   3.179   1.273 -3.6092  1.7179  2.0282
  499MOL0     H67341   5.423   3.021   1.268 -0.5289  0.4523  0.1985
  499MOL0     H67342   5.499   3.081   1.407 -1.8508  2.8180  0.6968
  499MOL0     H67343   5.401   3.266   1.202  0.2841  0.1951  0.3661
  499MOL0     H67344   5.464   3.312   1.359 -1.0315  1.9114 -0.9229
  499MOL0     H67345   5.228   3.124   1.334 -0.3155 -0.0866  0.6710
  499MOL0     H67346   5.210   3.301   1.357  2.6941  2.0892 -1.7264
  499MOL0     H67347   5.940   2.543   1.188 -0.1616 -1.3595 -1.5422
  499MOL0     H67348   6.071   2.352   1.158 -0.1790  0.7041 -0.2267
  499MOL0     H67349   6.259   1.948   1.062 -1.3239  0.1299 -2.8284
  499MOL0     H67350   6.435   1.774   1.042 -1.1708  0.4743 -2.2297
  499MOL0     H67351   6.151   1.912   1.625 -0.6098  1.2563 -1.7615
  499MOL0     H67352   6.025   1.712   1.606 -1.3237 -0.2654 -1.6497
  499MOL0     H67353   5.555   1.522   1.622  0.1228  0.6984 -0.8995
  499MOL0     H67354   5.488   1.286   1.623 -0.7516 -1.5875 -0.5196
  499MOL0     H67355   5.586   1.081   1.278  1.7521  0.3643 -0.2591
  499MOL0     H67356   5.691   0.973   1.369  0.0764  0.5499  3.4048
  499MOL0     H67357   5.515   0.842   1.276  2.4048  4.4262 -2.3559
  499MOL0     H67358   5.387   0.944   1.351 -0.2744 -0.6594 -2.0079
  499MOL0     H67359   5.406   0.748   1.489 -0.9513  1.1277 -1.8273
  499MOL0     H67360   5.461   0.887   1.576 -1.5681  0.9643 -1.7262
  499MOL0     H67361   5.707   0.779   1.543 -0.9891  1.7755  0.8247
  499MOL0     H67362   5.618   0.667   1.435  1.6467 -2.4176  2.3143
  499MOL0     H67363   5.592   0.470   1.774 -0.2700 -2.5936 -3.5359
  499MOL0     H67364   5.805   1.175   1.368 -2.5327 -3.5132  2.4978
  499MOL0     H67365   5.879   1.411   1.354 -1.4881  0.7497 -1.2604
  500MOL0     O67366   5.444   6.110   9.695  0.3390 -0.4467  0.3813
  500MOL0     C67367   5.448   6.088   9.818  0.3135 -0.1999 -0.2635
  500MOL0     O67368   5.347   6.123   9.904 -0.0878 -0.6806  0.4408
  500MOL0     C67369   5.240   6.201   9.853 -0.2407  0.6663 -0.1394
  500MOL0     C67370   5.267   6.311   9.774  0.4051 -0.6200  0.4723
  500MOL0     C67371   5.169   6.373   9.709 -1.0928  0.4307 -0.8349
  500MOL0     C67372   5.033   6.330   9.732 -0.0384 -0.5352  0.5956
  500MOL0     O67373   4.942   6.401   9.655  0.1467  0.1900 -1.1016
  500MOL0     C67374   4.816   6.340   9.646  0.2806 -0.4909 -0.6881
  500MOL0     C67375   4.738   6.429   9.550  0.7090  0.5692  0.0507
  500MOL0     C67376   4.599   6.388   9.534 -0.0510 -0.4758  0.6299
  500MOL0     C67377   4.514   6.418   9.656 -1.1302  0.5617 -0.0028
  500MOL0     C67378   4.370   6.436   9.621 -0.1099 -0.0952  1.0131
  500MOL0     C67379   4.294   6.320   9.556 -0.3013 -0.5272  0.4194
  500MOL0     C67380   4.291   6.185   9.632 -0.9234 -0.6914  0.3283
  500MOL0     C67381   4.243   6.182   9.769 -0.7003 -0.2462  0.3368
  500MOL0     N67382   4.111   6.136   9.773  0.1540  0.0500  0.1041
  500MOL0     C67383   4.005   6.176   9.698  0.5867  0.3749  0.6483
  500MOL0     C67384   3.894   6.121   9.754  1.1396 -0.2884  1.1542
  500MOL0     C67385   3.750   6.114   9.700  0.4268 -0.3372  0.1006
  500MOL0     C67386   3.743   6.078   9.554  0.0786 -0.2984  0.6048
  500MOL0     C67387   3.759   5.927   9.510  0.0244 -0.1292 -0.0168
  500MOL0     C67388   3.621   5.859   9.533  0.2691  0.9620 -0.1747
  500MOL0     O67389   3.640   5.715   9.510  0.3961 -0.5912  0.3440
  500MOL0     C67390   3.533   5.635   9.492 -0.4815 -1.0936  0.0229
  500MOL0     C67391   3.563   5.509   9.459 -0.1840  0.7743  0.0180
  500MOL0     C67392   3.465   5.402   9.447  1.0485  0.3762 -0.1523
  500MOL0     C67393   3.517   5.253   9.426  0.2477  0.5324  0.5556
  500MOL0     C67394   3.335   5.434   9.486  0.2115  0.2054 -0.2304
  500MOL0     C67395   3.228   5.336   9.495 -0.2215  0.3573 -0.3489
  500MOL0     O67396   3.157   5.309   9.383 -0.1949 -0.6223 -0.6728
  500MOL0     C67397   3.054   5.220   9.398 -0.3719 -1.2072  0.0057
  500MOL0     C67398   3.063   5.099   9.330 -0.0819  0.1467 -0.2039
  500MOL0     C67399   2.942   5.021   9.323 -0.1903 -0.4536 -0.4558
  500MOL0     C67400   2.829   5.050   9.406  0.5501 -0.0208  0.9988
  500MOL0     O67401   2.718   4.971   9.385  0.0845  0.6788 -0.3687
  500MOL0     C67402   2.625   4.957   9.502 -0.2827  0.8799  1.4697
  500MOL0     C67403   2.592   4.813   9.481  0.1182 -0.8518 -0.1761
  500MOL0     C67404   2.465   4.802   9.403  0.3961  0.0350 -0.5488
  500MOL0     C67405   2.364   4.702   9.474  0.7835  0.4531  0.1061
  500MOL0     C67406   2.218   4.704   9.417  0.2263  0.6660  0.2528
  500MOL0     C67407   2.157   4.846   9.419 -1.0710  0.0440  0.0227
  500MOL0     C67408   1.996   4.848   9.399 -0.2264 -0.5379  0.3266
  500MOL0     C67409   1.954   4.932   9.273 -0.0309  0.9071 -0.4911
  500MOL0    Cl67410   1.984   5.107   9.285  0.1986 -0.2114  0.4887
  500MOL0     C67411   2.828   5.163   9.493 -0.4377  0.9200  0.0223
  500MOL0     C67412   2.943   5.242   9.486 -0.5210 -0.6282 -0.7618
  500MOL0     O67413   3.209   5.292   9.604 -0.2513 -0.5264 -0.0662
  500MOL0     C67414   3.309   5.564   9.543  0.4380  0.7821  0.5201
  500MOL0     C67415   3.405   5.667   9.543  0.3483  0.7460 -0.8352
  500MOL0     N67416   3.943   6.042   9.856 -0.0971  0.7326 -0.0709
  500MOL0     N67417   4.070   6.053   9.867 -0.1602  0.4641 -0.9004
  500MOL0     C67418   5.002   6.225   9.822 -0.6535 -0.3017 -0.2699
  500MOL0     C67419   5.110   6.164   9.892  0.3982 -0.6013 -0.1220
  500MOL0     C67420   5.560   6.020   9.874  0.6891  0.0730 -0.1098
  500MOL0     C67421   5.685   6.023   9.817  1.2787  0.4494 -0.0488
  500MOL0     C67422   5.790   5.952   9.873  0.3687  0.5533 -0.1686
  500MOL0     C67423   5.779   5.874   9.991 -0.1018  0.4377 -0.1652
  500MOL0     O67424   5.880   5.809  10.058  0.2385  0.6134  0.0028
  500MOL0     C67425   5.998   5.789   9.987  0.4926 -1.0814  0.2475
  500MOL0     C67426   6.098   5.715  10.069 -0.2607 -0.1401  0.5608
  500MOL0     C67427   6.198   5.637   9.981  0.9186  0.3667 -1.3466
  500MOL0     C67428   6.310   5.725   9.918 -0.2765 -0.1584 -1.0844
  500MOL0     C67429   6.273   5.791   9.793  0.6077  0.1199 -0.1842
  500MOL0     C67430   6.231   5.840   9.686  0.6730  0.2541  0.0369
  500MOL0     C67431   5.655   5.866  10.044  0.3043 -0.2627 -0.0459
  500MOL0     C67432   5.549   5.951   9.995 -0.2307  0.2463 -0.0251
  500MOL0     H67433   5.373   6.331   9.763  0.7920 -3.2918 -2.2029
  500MOL0     H67434   5.187   6.456   9.640 -1.7059 -1.1077 -2.9407
  500MOL0     H67435   4.831   6.237   9.610  1.8589  0.1165 -1.8994
  500MOL0     H67436   4.760   6.336   9.740 -0.9539  1.4018 -1.2791
  500MOL0     H67437   4.745   6.537   9.568  0.2912  0.6275 -0.1033
  500MOL0     H67438   4.784   6.411   9.452  1.3388  0.0549  0.4350
  500MOL0     H67439   4.561   6.454   9.456 -0.4107 -2.6956 -1.1527
  500MOL0     H67440   4.584   6.285   9.502 -1.3729  0.2215 -1.1613
  500MOL0     H67441   4.523   6.330   9.720 -0.2876 -0.0831 -0.9909
  500MOL0     H67442   4.548   6.515   9.696 -0.2777 -0.2503  1.3580
  500MOL0     H67443   4.321   6.465   9.715 -1.8786  2.1672 -0.4820
  500MOL0     H67444   4.356   6.524   9.557  1.4534 -1.2863 -1.0655
  500MOL0     H67445   4.194   6.360   9.536 -0.8066 -1.2516  1.4409
  500MOL0     H67446   4.332   6.309   9.454  1.7922  1.9633  0.8124
  500MOL0     H67447   4.241   6.112   9.568  0.8870 -1.8639  0.1634
  500MOL0     H67448   4.389   6.136   9.635 -1.0876 -0.9947  2.4989
  500MOL0     H67449   4.245   6.283   9.812  0.4787 -0.7375  1.5072
  500MOL0     H67450   4.306   6.112   9.825 -0.2340 -0.1334 -0.0340
  500MOL0     H67451   4.002   6.236   9.608 -1.5079 -0.6461 -0.0139
  500MOL0     H67452   3.693   6.042   9.759 -2.3632 -1.1225 -3.2179
  500MOL0     H67453   3.698   6.211   9.701  3.3468  1.4240 -2.1072
  500MOL0     H67454   3.815   6.140   9.499  0.7403 -0.5939  1.1181
  500MOL0     H67455   3.643   6.106   9.523 -0.1484  2.2452  3.2693
  500MOL0     H67456   3.846   5.883   9.559  1.3481  2.0131 -0.3327
  500MOL0     H67457   3.781   5.926   9.403  0.0800 -0.6600 -0.0028
  500MOL0     H67458   3.529   5.897   9.488 -0.1296  0.8876  0.5511
  500MOL0     H67459   3.608   5.858   9.642  3.2127 -2.2432  0.3192
  500MOL0     H67460   3.667   5.481   9.444 -0.6031 -2.3943  2.0762
  500MOL0     H67461   3.623   5.241   9.451 -0.2811 -1.0775  2.2245
  500MOL0     H67462   3.467   5.175   9.484  0.8750 -0.7760 -0.6007
  500MOL0     H67463   3.504   5.225   9.321  1.4189 -1.4245  0.8761
  500MOL0     H67464   3.160   5.093   9.283 -0.2354  2.3781 -0.9541
  500MOL0     H67465   2.949   4.944   9.247  2.8285 -0.3131 -0.4401
  500MOL0     H67466   2.680   4.966   9.596 -2.0441 -0.3284  2.6658
  500MOL0     H67467   2.548   5.033   9.490 -1.0516 -0.0642  0.1681
  500MOL0     H67468   2.664   4.742   9.441  2.2636 -0.0199  1.9982
  500MOL0     H67469   2.583   4.765   9.579 -1.2036 -1.0203 -0.3571
  500MOL0     H67470   2.482   4.772   9.299 -1.1966  4.0595 -2.1554
  500MOL0     H67471   2.413   4.897   9.412 -2.4524 -1.4342 -0.2280
  500MOL0     H67472   2.394   4.597   9.467 -1.9263 -0.6380  2.8545
  500MOL0     H67473   2.363   4.730   9.579  1.2308  1.5869 -0.1694
  500MOL0     H67474   2.155   4.639   9.479 -1.8491 -0.7578 -3.0428
  500MOL0     H67475   2.219   4.667   9.314  0.8575 -1.7333  1.0468
  500MOL0     H67476   2.181   4.899   9.511 -1.2170  0.7695 -0.3502
  500MOL0     H67477   2.199   4.904   9.336 -2.2835 -1.1360 -1.4953
  500MOL0     H67478   1.953   4.892   9.489  0.0302  1.1787 -0.3464
  500MOL0     H67479   1.955   4.747   9.394  2.8564 -2.0568  2.8403
  500MOL0     H67480   1.847   4.920   9.258 -0.0970  0.2263  0.4721
  500MOL0     H67481   1.995   4.889   9.181  0.5765 -2.5368  1.2342
  500MOL0     H67482   2.744   5.188   9.557 -0.0839  0.5713  0.6317
  500MOL0     H67483   2.937   5.331   9.548  2.2064  0.1486 -1.4780
  500MOL0     H67484   3.211   5.598   9.577 -0.3909  2.3161 -3.0082
  500MOL0     H67485   3.383   5.769   9.572 -0.2697  0.6202 -0.8407
  500MOL0     H67486   4.900   6.191   9.837 -0.7653  0.0102 -0.3144
  500MOL0     H67487   5.085   6.082   9.959 -0.8091  0.0532  0.2565
  500MOL0     H67488   5.708   6.079   9.727  1.3048  2.0554  0.9375
  500MOL0     H67489   5.883   5.978   9.824 -0.7664  1.6486 -1.8335
  500MOL0     H67490   5.982   5.741   9.890  2.1472 -3.5219  1.0687
  500MOL0     H67491   6.040   5.887   9.962 -1.8002  0.0936  0.7817
  500MOL0     H67492   6.050   5.637  10.129  0.3506 -0.6881  0.3415
  500MOL0     H67493   6.140   5.789  10.138 -1.7447  0.6820  0.6290
  500MOL0     H67494   6.152   5.580   9.899  3.7322 -0.1604 -2.6760
  500MOL0     H67495   6.247   5.571  10.053 -0.7391 -2.5280 -2.6753
  500MOL0     H67496   6.395   5.661   9.895  1.7608  2.0773 -0.2319
  500MOL0     H67497   6.354   5.792   9.992  0.2033 -1.3660 -0.2497
  500MOL0     H67498   6.204   5.870   9.587  2.9658  2.3008 -0.0623
  500MOL0     H67499   5.636   5.811  10.136 -2.5322  1.1588  0.3452
  500MOL0     H67500   5.463   5.958  10.061 -0.2915 -0.9892  0.0501
  501MOL0     O67501   3.286   6.487   0.515  0.2397  0.2234 -0.9927
  501MOL0     C67502   3.306   6.487   0.632  0.2514  0.1156  0.0274
  501MOL0     O67503   3.211   6.518   0.721 -0.1267 -0.2030 -0.0613
  501MOL0     C67504   3.091   6.574   0.690 -0.2809  0.1069  0.2357
  501MOL0     C67505   2.969   6.507   0.692 -0.4065  0.5110 -0.5427
  501MOL0     C67506   2.843   6.568   0.683  0.0747  0.1436  1.1308
  501MOL0     C67507   2.835   6.702   0.642  0.4905  0.7750 -1.0036
  501MOL0     O67508   2.722   6.781   0.633 -0.9357 -0.3872  0.1353
  501MOL0     C67509   2.602   6.707   0.604  0.1058  0.1336 -1.1794
  501MOL0     C67510   2.492   6.796   0.579  0.6424 -0.0885  0.7862
  501MOL0     C67511   2.373   6.704   0.525  0.1753 -0.0312  0.4021
  501MOL0     C67512   2.275   6.801   0.453  0.0094  0.2201 -0.6226
  501MOL0     C67513   2.137   6.727   0.448  0.4305 -0.4441 -0.3642
  501MOL0     C67514   2.121   6.647   0.318  0.7541 -0.3392 -0.2173
  501MOL0     C67515   1.965   6.620   0.298 -0.3474 -0.5976 -0.2845
  501MOL0     C67516   1.932   6.567   0.160 -0.7422 -0.6325 -1.2590
  501MOL0     N67517   1.790   6.578   0.140 -0.7482  0.1072  0.2127
  501MOL0     C67518   1.692   6.507   0.212 -0.1728  0.5435  0.6056
  501MOL0     C67519   1.580   6.530   0.136 -0.1265  0.1613  0.0751
  501MOL0     C67520   1.449   6.460   0.179  0.4198 -0.0473 -0.3675
  501MOL0     C67521   1.465   6.305   0.206 -0.1284  0.4890 -0.3127
  501MOL0     C67522   1.332   6.231   0.241 -0.3821 -0.5414  0.1982
  501MOL0     C67523   1.274   6.275   0.377  0.5435  0.7329  0.1658
  501MOL0     O67524   1.361   6.214   0.476 -0.2580  0.1858  0.5774
  501MOL0     C67525   1.289   6.148   0.568 -0.0937  0.7564 -0.2901
  501MOL0     C67526   1.247   6.221   0.676 -0.1698 -0.8059  0.7140
  501MOL0     C67527   1.155   6.165   0.772  0.3838 -0.3398 -0.6870
  501MOL0     C67528   1.123   6.258   0.884  0.0672  0.6559 -0.1420
  501MOL0     C67529   1.124   6.027   0.757 -0.2745  0.2495  0.0549
  501MOL0     C67530   1.041   5.950   0.847  0.2255  0.7809 -0.3734
  501MOL0     O67531   1.070   5.819   0.877 -0.6628  0.9413  0.5200
  501MOL0     C67532   0.973   5.748   0.951 -0.6588  0.3370  0.5785
  501MOL0     C67533   0.848   5.729   0.899 -0.3353  0.7258 -0.1889
  501MOL0     C67534   0.756   5.642   0.961  0.2934  0.8656  0.9230
  501MOL0     C67535   0.796   5.557   1.064  0.1375 -0.4853 -0.5609
  501MOL0     O67536   0.709   5.464   1.113 -0.3043  0.3800 -0.4122
  501MOL0     C67537   0.757   5.389   1.225 -0.0251  0.1690  0.0974
  501MOL0     C67538   0.836   5.272   1.169 -0.1479  0.2640 -0.2311
  501MOL0     C67539   0.874   5.173   1.279  0.7742 -0.5882 -0.4259
  501MOL0     C67540   0.966   5.064   1.241 -0.2731  1.3567 -0.3899
  501MOL0     C67541   1.095   5.111   1.171 -0.2934 -1.1913  0.2855
  501MOL0     C67542   1.186   5.196   1.261  0.3705 -0.6815  0.2499
  501MOL0     C67543   1.319   5.227   1.182  0.0949 -0.3605 -0.2403
  501MOL0     C67544   1.431   5.318   1.238  0.7020 -0.1155 -1.2247
  501MOL0    Cl67545   1.487   5.278   1.399  0.1600 -0.0360  0.0202
  501MOL0     C67546   0.930   5.579   1.124 -1.0384  0.8869  0.4880
  501MOL0     C67547   1.007   5.668   1.053  0.1231  0.1586 -0.1907
  501MOL0     O67548   0.945   6.011   0.893  0.4331  0.3972 -0.0352
  501MOL0     C67549   1.181   5.952   0.653 -0.0338 -0.5364  1.1530
  501MOL0     C67550   1.257   6.015   0.555  0.2089 -0.0875 -0.0033
  501MOL0     N67551   1.612   6.609   0.023 -0.3833 -0.1721  0.4177
  501MOL0     N67552   1.736   6.651   0.027  0.0921  0.0386  0.0697
  501MOL0     C67553   2.955   6.762   0.619  0.5195  0.1435  0.5479
  501MOL0     C67554   3.081   6.703   0.638 -0.6877 -0.0888  0.5439
  501MOL0     C67555   3.424   6.427   0.692 -0.6283 -0.5636 -0.6150
  501MOL0     C67556   3.534   6.398   0.613 -0.3849 -0.0963 -0.5877
  501MOL0     C67557   3.653   6.347   0.659  0.7932  0.4190  0.1918
  501MOL0     C67558   3.665   6.322   0.799  0.2953 -0.6962  0.1657
  501MOL0     O67559   3.785   6.285   0.848 -0.7244  0.2578 -0.0975
  501MOL0     C67560   3.804   6.259   0.986 -0.3465  0.2403  0.2017
  501MOL0     C67561   3.947   6.277   1.036 -0.4787 -0.8635 -0.4386
  501MOL0     C67562   4.055   6.214   0.960 -0.8034 -0.2871  0.0301
  501MOL0     C67563   4.052   6.057   0.959 -0.8670 -0.6582 -0.4037
  501MOL0     C67564   4.148   6.007   0.864 -0.1542  0.3929  0.8149
  501MOL0     C67565   4.235   5.965   0.790 -0.4522  0.7060 -0.7446
  501MOL0     C67566   3.550   6.345   0.880  0.3049 -0.4918  0.2416
  501MOL0     C67567   3.435   6.409   0.830 -0.4790  0.0462  0.7089
  501MOL0     H67568   2.974   6.405   0.731 -0.1694  1.1037  1.0849
  501MOL0     H67569   2.756   6.510   0.711 -0.7359 -1.4166 -3.6638
  501MOL0     H67570   2.613   6.636   0.522  0.5125 -1.1820 -0.0156
  501MOL0     H67571   2.583   6.643   0.691  1.3240 -1.9168 -2.3415
  501MOL0     H67572   2.465   6.855   0.666 -1.7774 -0.7141  0.5249
  501MOL0     H67573   2.523   6.871   0.505 -1.7648 -0.7981 -1.0896
  501MOL0     H67574   2.405   6.618   0.465  3.3053  1.0097  0.3939
  501MOL0     H67575   2.325   6.675   0.618 -3.6103 -0.4357 -1.4832
  501MOL0     H67576   2.260   6.890   0.516 -1.3170 -1.7484  2.0478
  501MOL0     H67577   2.311   6.832   0.355  2.6262  1.5091  0.6251
  501MOL0     H67578   2.120   6.678   0.544  2.7831  1.7085  1.2689
  501MOL0     H67579   2.062   6.807   0.445  1.5910  0.8430  1.7232
  501MOL0     H67580   2.153   6.707   0.232  0.9034 -1.6814 -1.1308
  501MOL0     H67581   2.181   6.557   0.301 -0.7941 -1.3584 -0.5540
  501MOL0     H67582   1.933   6.546   0.372  0.9505 -1.6241 -0.7225
  501MOL0     H67583   1.904   6.710   0.311  0.3709 -0.3735  1.8998
  501MOL0     H67584   1.971   6.467   0.143 -3.2390 -1.5149 -2.2589
  501MOL0     H67585   1.979   6.638   0.091 -4.4858  2.3688 -1.0988
  501MOL0     H67586   1.711   6.452   0.304  1.7260 -0.1961 -0.1799
  501MOL0     H67587   1.412   6.505   0.272 -3.0157 -2.8317 -0.1663
  501MOL0     H67588   1.370   6.477   0.104 -0.4269  0.4482  0.6098
  501MOL0     H67589   1.531   6.277   0.288  0.0169  2.2038  0.1868
  501MOL0     H67590   1.504   6.248   0.121  0.1576 -2.6219  1.7730
  501MOL0     H67591   1.340   6.122   0.234  0.0581 -0.4747 -0.3749
  501MOL0     H67592   1.259   6.255   0.163  0.1436 -1.6402 -0.6543
  501MOL0     H67593   1.171   6.239   0.380  1.7143 -2.9567  1.5479
  501MOL0     H67594   1.274   6.385   0.377 -1.5099  0.8074 -2.0510
  501MOL0     H67595   1.266   6.328   0.675 -0.9315 -0.6219 -2.2040
  501MOL0     H67596   1.055   6.334   0.845  0.7992  1.0232 -0.7167
  501MOL0     H67597   1.082   6.204   0.971 -1.7426  1.0956 -0.6791
  501MOL0     H67598   1.211   6.305   0.929  0.6784  2.2372 -2.7897
  501MOL0     H67599   0.821   5.794   0.816 -1.3247  0.1962 -0.3032
  501MOL0     H67600   0.652   5.655   0.935  0.2081 -1.9781 -0.5596
  501MOL0     H67601   0.815   5.450   1.295  0.9691 -1.2263  0.5203
  501MOL0     H67602   0.676   5.341   1.280  1.4539 -1.6022  0.8004
  501MOL0     H67603   0.763   5.215   1.111 -1.7312  0.9396  1.0395
  501MOL0     H67604   0.920   5.312   1.109 -0.2940  0.3511 -0.3797
  501MOL0     H67605   0.784   5.130   1.326  1.0975  1.0339  1.8702
  501MOL0     H67606   0.924   5.235   1.354  0.5622  2.3405 -2.5631
  501MOL0     H67607   1.001   5.004   1.326 -1.3448 -1.9131 -2.0686
  501MOL0     H67608   0.907   5.000   1.174 -0.7317  0.5560  0.7365
  501MOL0     H67609   1.072   5.162   1.077  1.3915  3.1306  1.9817
  501MOL0     H67610   1.147   5.021   1.136 -0.2915 -0.1081 -2.8239
  501MOL0     H67611   1.136   5.288   1.292  0.6961 -0.9154  1.5450
  501MOL0     H67612   1.213   5.147   1.355  0.1615 -2.9784 -0.8188
  501MOL0     H67613   1.285   5.274   1.089  0.3733 -0.5441 -0.4384
  501MOL0     H67614   1.365   5.133   1.151  1.5151  0.1317  0.2889
  501MOL0     H67615   1.388   5.417   1.252 -1.3076 -0.6025 -3.4294
  501MOL0     H67616   1.524   5.323   1.180  1.0262 -1.9804 -0.9537
  501MOL0     H67617   0.968   5.512   1.201 -2.5778 -0.1421  0.4061
  501MOL0     H67618   1.109   5.674   1.091 -0.6615 -2.9659  2.8479
  501MOL0     H67619   1.158   5.846   0.647  1.0801 -0.7871  1.2344
  501MOL0     H67620   1.300   5.966   0.468  0.9988 -0.9118  0.8334
  501MOL0     H67621   2.947   6.866   0.590 -0.8440 -0.0209  0.2674
  501MOL0     H67622   3.182   6.740   0.620 -0.7928 -1.3267 -3.5907
  501MOL0     H67623   3.529   6.427   0.508 -0.2567  1.6076 -0.1582
  501MOL0     H67624   3.749   6.332   0.610  0.6242  1.2523 -0.4072
  501MOL0     H67625   3.730   6.315   1.044 -0.4830 -0.5945  0.8601
  501MOL0     H67626   3.780   6.153   0.995  0.8512 -0.2064 -1.5021
  501MOL0     H67627   3.946   6.253   1.143 -1.8958  1.0525  0.0376
  501MOL0     H67628   3.966   6.385   1.044  0.5322 -1.1423  5.1288
  501MOL0     H67629   4.155   6.242   0.994 -0.8520 -0.1610  0.0723
  501MOL0     H67630   4.043   6.242   0.855 -1.7176 -1.1315 -0.1027
  501MOL0     H67631   3.958   6.035   0.908 -0.7162  0.0074 -1.0022
  501MOL0     H67632   4.078   6.009   1.053  0.5318 -3.9917 -2.3194
  501MOL0     H67633   4.320   5.936   0.732 -0.3933  0.3199 -0.4739
  501MOL0     H67634   3.549   6.333   0.988 -2.6950  2.7516  0.7653
  501MOL0     H67635   3.351   6.430   0.896 -1.7576 -2.0715 -0.1549
  502MOL0     O67636   7.785   0.515  11.158 -0.1634 -0.2416  0.0520
  502MOL0     C67637   7.847   0.531  11.055  0.0917 -0.1944  0.3056
  502MOL0     O67638   7.964   0.605  11.039  1.3529  0.4507  0.2872
  502MOL0     C67639   8.006   0.694  11.132  0.1001 -0.9467  0.0778
  502MOL0     C67640   7.948   0.716  11.257 -0.4666 -0.2289  0.0605
  502MOL0     C67641   7.990   0.827  11.341 -0.1607 -0.2863 -0.3194
  502MOL0     C67642   8.095   0.912  11.299  0.2959  0.1800  1.2077
  502MOL0     O67643   8.130   1.031  11.353  0.2368  0.3551 -0.4413
  502MOL0     C67644   8.205   1.028  11.465 -0.1260 -0.8183 -0.0699
  502MOL0     C67645   8.223   1.169  11.516  0.2261 -0.3107 -0.1758
  502MOL0     C67646   8.098   1.224  11.598 -0.3482  0.1339  0.1380
  502MOL0     C67647   7.995   1.292  11.515 -0.1336 -0.8246 -0.1644
  502MOL0     C67648   7.876   1.336  11.605 -0.2953 -0.4613  0.1328
  502MOL0     C67649   7.743   1.359  11.528 -0.7750  0.7797  0.5920
  502MOL0     C67650   7.620   1.379  11.610  0.7075  0.4490  0.2804
  502MOL0     C67651   7.494   1.369  11.511  0.0229  0.9721  0.2741
  502MOL0     N67652   7.457   1.490  11.451  1.0664  0.2626  0.8308
  502MOL0     C67653   7.394   1.600  11.506  0.0593 -0.6877  1.2364
  502MOL0     C67654   7.399   1.693  11.400  0.2760 -0.5113 -1.0596
  502MOL0     C67655   7.328   1.825  11.413 -0.7538  0.0406 -1.1154
  502MOL0     C67656   7.171   1.808  11.402  0.7568 -0.2124  0.5338
  502MOL0     C67657   7.099   1.944  11.355  0.1520  0.7875  0.3803
  502MOL0     C67658   7.143   1.983  11.211  0.1369  0.4752  1.0289
  502MOL0     O67659   7.092   2.117  11.179  0.1073 -0.1651 -0.0450
  502MOL0     C67660   6.959   2.122  11.151 -1.3114  0.0676 -0.3022
  502MOL0     C67661   6.905   2.072  11.032 -0.1995 -0.1150  0.4800
  502MOL0     C67662   6.774   2.099  10.980  0.1427 -0.8386 -0.1134
  502MOL0     C67663   6.738   2.044  10.844  0.2570  0.1345  0.4048
  502MOL0     C67664   6.693   2.189  11.059 -0.0411  0.5401  0.3398
  502MOL0     C67665   6.551   2.226  11.026 -0.4714 -0.3986 -0.8024
  502MOL0     O67666   6.501   2.321  11.112  0.2064  0.1123 -0.4578
  502MOL0     C67667   6.361   2.340  11.106  1.5551 -0.3591 -0.4633
  502MOL0     C67668   6.309   2.390  11.223 -0.2830  0.0914 -0.2900
  502MOL0     C67669   6.167   2.407  11.238  0.2443 -0.3805  0.6203
  502MOL0     C67670   6.080   2.380  11.134  0.3092 -0.5343  0.1496
  502MOL0     O67671   5.941   2.373  11.139  0.6668  0.3638 -0.0498
  502MOL0     C67672   5.885   2.405  11.266 -0.3703  0.1385 -0.7582
  502MOL0     C67673   5.737   2.399  11.255  1.3300 -0.3187 -0.3103
  502MOL0     C67674   5.660   2.399  11.388  0.6446 -0.6485 -0.3330
  502MOL0     C67675   5.508   2.399  11.372  0.5731  0.0115 -0.4506
  502MOL0     C67676   5.434   2.383  11.506  0.5693 -0.3787 -0.1209
  502MOL0     C67677   5.421   2.518  11.579 -0.2322  0.4184  0.6114
  502MOL0     C67678   5.326   2.494  11.691 -0.5403  0.2404  0.4259
  502MOL0     C67679   5.186   2.566  11.662 -0.4951 -0.4338  0.0449
  502MOL0    Cl67680   5.066   2.478  11.758 -0.0518 -0.1514 -0.1345
  502MOL0     C67681   6.136   2.355  11.005  0.1815 -0.0730  0.3713
  502MOL0     C67682   6.276   2.331  10.997 -0.1435  0.4437  0.1538
  502MOL0     O67683   6.489   2.156  10.950 -0.2763  0.1853  0.1387
  502MOL0     C67684   6.748   2.241  11.177 -0.1632  0.5551  0.5793
  502MOL0     C67685   6.881   2.207  11.216 -0.4634  1.3073  0.1511
  502MOL0     N67686   7.462   1.640  11.290 -0.6526 -0.3413 -0.7249
  502MOL0     N67687   7.489   1.513  11.317 -0.3854 -0.3924  0.1483
  502MOL0     C67688   8.159   0.875  11.176 -0.5802 -0.3369 -0.7659
  502MOL0     C67689   8.113   0.773  11.090  0.0460 -0.0995 -0.6715
  502MOL0     C67690   7.794   0.463  10.934 -0.9127 -0.0592  0.0483
  502MOL0     C67691   7.824   0.515  10.806 -1.1606 -0.7538 -0.3366
  502MOL0     C67692   7.768   0.455  10.688 -0.2835  0.6181  0.4704
  502MOL0     C67693   7.691   0.336  10.710  1.2421  0.2093  0.4524
  502MOL0     O67694   7.651   0.247  10.613 -0.3948 -0.2342 -0.5594
  502MOL0     C67695   7.684   0.294  10.480 -0.7576  1.1875 -0.1024
  502MOL0     C67696   7.595   0.395  10.404  0.2128 -0.0869 -0.4835
  502MOL0     C67697   7.622   0.403  10.256 -0.4979 -0.6967 -0.0500
  502MOL0     C67698   7.532   0.509  10.176 -0.9752  1.1699 -1.2764
  502MOL0     C67699   7.599   0.542  10.052  0.4848 -0.1010 -0.5912
  502MOL0     C67700   7.651   0.550   9.949 -0.4381  0.1792  0.4709
  502MOL0     C67701   7.671   0.282  10.833 -0.7156  0.0474  0.2701
  502MOL0     C67702   7.721   0.341  10.943 -0.2017  0.0489 -0.5279
  502MOL0     H67703   7.871   0.655  11.304 -0.7478 -0.0576 -0.1801
  502MOL0     H67704   7.940   0.848  11.434  1.2694  3.3483 -0.2284
  502MOL0     H67705   8.168   0.963  11.544 -1.5743  0.1843  0.1244
  502MOL0     H67706   8.304   0.996  11.430  2.1322  1.2349  3.7029
  502MOL0     H67707   8.306   1.176  11.587 -1.7571 -3.1278  2.7283
  502MOL0     H67708   8.245   1.230  11.428  4.4446 -0.5757  0.4811
  502MOL0     H67709   8.063   1.156  11.677 -1.5400 -0.3628 -0.7904
  502MOL0     H67710   8.143   1.309  11.650  4.1780 -0.0685 -2.8842
  502MOL0     H67711   8.036   1.389  11.487 -1.3045  0.1947  1.4735
  502MOL0     H67712   7.980   1.239  11.420  2.0980 -1.8513  0.0026
  502MOL0     H67713   7.855   1.261  11.682 -0.5890 -0.3048  0.2064
  502MOL0     H67714   7.897   1.424  11.667 -0.9322 -1.0344  1.1815
  502MOL0     H67715   7.755   1.443  11.459  0.4444  2.0130  2.2184
  502MOL0     H67716   7.738   1.266  11.472  3.0828  1.3264 -0.9729
  502MOL0     H67717   7.603   1.313  11.695 -0.8412  2.3236  1.5255
  502MOL0     H67718   7.636   1.473  11.664  1.3515 -1.4998  3.7598
  502MOL0     H67719   7.408   1.337  11.570 -1.0528 -0.1112 -1.7978
  502MOL0     H67720   7.517   1.293  11.436  0.7241  0.3527  1.0960
  502MOL0     H67721   7.352   1.607  11.606  1.2163 -1.7869  1.8239
  502MOL0     H67722   7.354   1.872  11.508 -2.1092  2.5540 -1.9222
  502MOL0     H67723   7.378   1.893  11.343  4.1477 -0.2631  1.5923
  502MOL0     H67724   7.126   1.797  11.501  1.4307 -0.6069  0.8024
  502MOL0     H67725   7.150   1.724  11.334  0.5403 -0.3588  0.7801
  502MOL0     H67726   7.135   2.023  11.421  0.9641  2.0702 -1.4979
  502MOL0     H67727   6.992   1.929  11.368  0.4428 -0.9389  0.9684
  502MOL0     H67728   7.103   1.917  11.133  1.8404  0.3677  0.2123
  502MOL0     H67729   7.251   1.974  11.201 -0.2626 -2.3930 -3.2973
  502MOL0     H67730   6.968   2.008  10.971 -0.7278 -1.8979  1.7014
  502MOL0     H67731   6.718   2.131  10.782  0.2602 -0.4931 -0.4933
  502MOL0     H67732   6.820   1.986  10.801  0.1249  1.4393 -1.7252
  502MOL0     H67733   6.647   1.983  10.841 -1.0136  1.9986 -1.3590
  502MOL0     H67734   6.359   2.423  11.314 -1.5566 -2.2298  1.3615
  502MOL0     H67735   6.130   2.439  11.335  0.6119  1.1931  0.2711
  502MOL0     H67736   5.915   2.334  11.344 -0.2730 -0.6380 -1.4920
  502MOL0     H67737   5.919   2.504  11.298  1.5103 -0.9149  0.6644
  502MOL0     H67738   5.681   2.472  11.195 -1.2211 -1.8026  0.1617
  502MOL0     H67739   5.714   2.308  11.200 -0.1266 -0.4934  0.5561
  502MOL0     H67740   5.685   2.491  11.442  0.7741 -0.4342 -0.7507
  502MOL0     H67741   5.685   2.311  11.448 -2.9793 -1.2668  0.4440
  502MOL0     H67742   5.460   2.484  11.323  0.2632 -0.6204 -1.2685
  502MOL0     H67743   5.494   2.313  11.306 -0.6991  0.2961 -0.5849
  502MOL0     H67744   5.499   2.317  11.564  0.3252 -1.6254 -1.2227
  502MOL0     H67745   5.335   2.341  11.486  0.4166  0.0394 -0.2629
  502MOL0     H67746   5.513   2.563  11.618 -0.4756  1.5312 -0.0294
  502MOL0     H67747   5.383   2.598  11.513  0.0987  1.2036  1.3504
  502MOL0     H67748   5.373   2.532  11.782  0.4013 -1.9468  0.9367
  502MOL0     H67749   5.312   2.389  11.721  1.2120  0.3457  1.7780
  502MOL0     H67750   5.177   2.555  11.554  1.1961  0.1543 -0.1876
  502MOL0     H67751   5.200   2.671  11.688 -2.8055 -0.4703  1.7071
  502MOL0     H67752   6.075   2.347  10.915  2.2184  1.4377 -1.2407
  502MOL0     H67753   6.312   2.286  10.905 -1.5337  1.0467 -0.7194
  502MOL0     H67754   6.684   2.305  11.236 -0.2914  0.5311  0.4660
  502MOL0     H67755   6.914   2.264  11.302 -1.5976 -2.5618  3.4147
  502MOL0     H67756   8.233   0.949  11.150 -0.6272 -0.0112 -0.0068
  502MOL0     H67757   8.151   0.758  10.990 -2.4002 -3.5419 -1.2729
  502MOL0     H67758   7.879   0.608  10.802 -0.1121 -1.3205  0.5397
  502MOL0     H67759   7.794   0.503  10.594 -1.4645  0.2100 -0.0813
  502MOL0     H67760   7.779   0.347  10.476 -1.1361  2.0137  1.3011
  502MOL0     H67761   7.678   0.201  10.422  0.0061  1.2873 -0.3451
  502MOL0     H67762   7.609   0.492  10.452  0.4631  1.2963 -3.2001
  502MOL0     H67763   7.492   0.363  10.418 -0.1008  1.6511  1.6160
  502MOL0     H67764   7.601   0.298  10.233  1.2503 -1.7961  2.8242
  502MOL0     H67765   7.728   0.423  10.237  0.2864  0.4003  4.3729
  502MOL0     H67766   7.535   0.599  10.237  1.4578  2.0040 -2.4740
  502MOL0     H67767   7.428   0.482  10.157 -0.3186 -1.2640 -1.7897
  502MOL0     H67768   7.715   0.547   9.863  0.9866 -0.9923  1.5072
  502MOL0     H67769   7.611   0.192  10.841  0.1096 -0.4962  0.5387
  502MOL0     H67770   7.705   0.291  11.039 -2.8654  2.4897  0.4462
  503MOL0     O67771   8.491   2.324   5.850 -0.1771  0.1422 -0.0414
  503MOL0     C67772   8.572   2.356   5.770  0.0920 -0.5740 -0.2889
  503MOL0     O67773   8.561   2.352   5.633 -0.2245  0.5246 -0.8395
  503MOL0     C67774   8.447   2.295   5.570  0.0296 -0.3887 -0.6110
  503MOL0     C67775   8.454   2.261   5.431 -0.6111  0.8686  0.6912
  503MOL0     C67776   8.348   2.232   5.353  0.1421 -0.2957 -0.0051
  503MOL0     C67777   8.219   2.241   5.401  0.5222  0.0786  0.1850
  503MOL0     O67778   8.117   2.212   5.317  0.0674  0.6260 -0.2456
  503MOL0     C67779   8.001   2.164   5.390  0.1286 -0.8020  0.2057
  503MOL0     C67780   7.900   2.107   5.284  0.5015 -0.2166 -0.6426
  503MOL0     C67781   7.758   2.146   5.310 -0.5324 -0.7476  0.2982
  503MOL0     C67782   7.660   2.076   5.210 -0.4786 -0.2125  0.3032
  503MOL0     C67783   7.514   2.121   5.216  0.2821 -0.1153 -0.3725
  503MOL0     C67784   7.434   2.100   5.086 -0.5236 -0.3714 -1.1334
  503MOL0     C67785   7.489   2.174   4.968 -0.0449 -0.5622  0.2395
  503MOL0     C67786   7.377   2.225   4.885 -0.2338 -0.0318  0.2092
  503MOL0     N67787   7.430   2.293   4.762 -0.0002  0.6145  0.8461
  503MOL0     C67788   7.536   2.377   4.760  0.6373 -0.0480  1.2116
  503MOL0     C67789   7.581   2.372   4.634 -0.5525 -0.2405  0.4374
  503MOL0     C67790   7.698   2.440   4.574 -0.3357  0.4370  0.8589
  503MOL0     C67791   7.691   2.594   4.569 -0.6423  1.0147  0.4512
  503MOL0     C67792   7.576   2.634   4.481  0.3113  0.2001 -0.4613
  503MOL0     C67793   7.562   2.781   4.459 -0.0349 -0.1251 -0.0116
  503MOL0     O67794   7.521   2.846   4.582 -0.5321  0.4776 -0.0323
  503MOL0     C67795   7.526   2.983   4.577 -0.4262  0.5362  0.1444
  503MOL0     C67796   7.418   3.064   4.554 -0.0630 -0.2242  0.0265
  503MOL0     C67797   7.429   3.204   4.538 -0.7545  0.7362  0.9115
  503MOL0     C67798   7.288   3.268   4.530  0.3111 -0.1081 -0.4311
  503MOL0     C67799   7.556   3.268   4.554 -0.2123  0.2861 -0.9312
  503MOL0     C67800   7.568   3.414   4.551  0.0894 -0.1668  0.3038
  503MOL0     O67801   7.694   3.451   4.565  0.1755 -0.2596  0.2606
  503MOL0     C67802   7.733   3.575   4.606  0.2166  0.1014 -0.6347
  503MOL0     C67803   7.657   3.650   4.694 -0.0463 -0.4488 -0.2782
  503MOL0     C67804   7.705   3.778   4.723  0.8074  0.4325 -0.2949
  503MOL0     C67805   7.821   3.827   4.666 -0.1351  0.4014  0.5416
  503MOL0     O67806   7.875   3.947   4.696 -0.2155  0.0981 -0.2806
  503MOL0     C67807   7.968   3.930   4.802  0.2194  0.1469  0.0305
  503MOL0     C67808   8.014   4.062   4.876  0.1194  0.4291 -0.2793
  503MOL0     C67809   8.146   4.115   4.809 -0.5127  0.1297  0.0142
  503MOL0     C67810   8.129   4.156   4.658 -0.3438  0.1140 -0.0991
  503MOL0     C67811   8.250   4.223   4.606  0.8273  0.6660  0.6219
  503MOL0     C67812   8.379   4.153   4.656  0.9512 -0.0279 -0.6867
  503MOL0     C67813   8.486   4.203   4.573  0.1091 -0.6308 -0.2108
  503MOL0     C67814   8.631   4.128   4.594  0.4525 -0.1091  0.5499
  503MOL0    Cl67815   8.703   4.132   4.759  0.2380 -0.3338 -0.4199
  503MOL0     C67816   7.899   3.744   4.581  0.3528 -0.8546  0.2068
  503MOL0     C67817   7.857   3.619   4.541 -0.0383 -0.1463 -0.9794
  503MOL0     O67818   7.468   3.489   4.554 -0.1754 -0.4154  0.4741
  503MOL0     C67819   7.664   3.175   4.559 -0.4166 -0.5405 -0.3172
  503MOL0     C67820   7.648   3.041   4.573 -0.6956 -0.4485  0.8535
  503MOL0     N67821   7.490   2.297   4.553  0.1091  0.4543  0.3164
  503MOL0     N67822   7.416   2.235   4.634  0.0920  0.1004  0.0711
  503MOL0     C67823   8.211   2.257   5.543 -0.1730  0.5187  0.7364
  503MOL0     C67824   8.317   2.290   5.621 -0.0282 -0.4757  0.4080
  503MOL0     C67825   8.676   2.444   5.825 -0.6329 -0.2994 -0.7310
  503MOL0     C67826   8.690   2.487   5.959  0.0060 -1.0403 -0.4103
  503MOL0     C67827   8.786   2.569   6.012 -0.7976 -0.3092  0.0784
  503MOL0     C67828   8.892   2.613   5.930 -0.0274  0.0860 -0.2420
  503MOL0     O67829   8.984   2.699   5.966  0.0602  0.4580 -0.8149
  503MOL0     C67830   9.017   2.695   6.106 -0.6556  0.1315  0.5372
  503MOL0     C67831   9.150   2.776   6.121 -0.0540 -0.1174  0.1957
  503MOL0     C67832   9.147   2.917   6.069  0.7312 -0.0196 -0.7084
  503MOL0     C67833   9.262   2.935   5.972 -0.2253 -0.7554 -0.3505
  503MOL0     C67834   9.391   2.961   6.039  0.3733  0.5227 -0.2908
  503MOL0     C67835   9.501   2.972   6.088 -0.3149 -0.5050  0.5815
  503MOL0     C67836   8.892   2.577   5.794 -0.7403  0.2191  0.3206
  503MOL0     C67837   8.781   2.492   5.749 -0.8954 -0.4779 -0.8271
  503MOL0     H67838   8.543   2.255   5.369  0.2737  0.0930  1.9863
  503MOL0     H67839   8.364   2.223   5.246  4.0067 -2.5362  0.5551
  503MOL0     H67840   8.045   2.087   5.454  1.6715  0.0193  0.1805
  503MOL0     H67841   7.951   2.241   5.448 -0.2103 -0.4408 -0.5459
  503MOL0     H67842   7.936   2.144   5.188 -0.1368  0.0003 -0.8018
  503MOL0     H67843   7.922   2.000   5.277 -1.0620 -0.6119 -0.1404
  503MOL0     H67844   7.730   2.123   5.414  1.3052  2.4080  1.6234
  503MOL0     H67845   7.759   2.254   5.297 -0.3219 -0.7729  0.0962
  503MOL0     H67846   7.688   2.096   5.106 -4.3751  2.3029 -0.4612
  503MOL0     H67847   7.667   1.968   5.226 -0.5963 -0.1555  0.7288
  503MOL0     H67848   7.470   2.061   5.296  1.9778  0.6556  1.1865
  503MOL0     H67849   7.515   2.227   5.242  0.2701  0.0500 -1.0246
  503MOL0     H67850   7.432   1.992   5.068 -0.3761 -0.7564  0.8547
  503MOL0     H67851   7.330   2.129   5.104 -0.7823 -0.8840 -1.7688
  503MOL0     H67852   7.539   2.263   5.006 -1.8893  0.5030  0.3257
  503MOL0     H67853   7.561   2.114   4.912  0.2784  0.5923 -0.6303
  503MOL0     H67854   7.321   2.296   4.946 -1.4129  0.1239 -1.0041
  503MOL0     H67855   7.322   2.137   4.852 -3.4090  2.4906 -1.8372
  503MOL0     H67856   7.578   2.440   4.837 -1.1331  2.3820  0.3237
  503MOL0     H67857   7.789   2.412   4.627  0.8600  1.7959 -0.3880
  503MOL0     H67858   7.702   2.402   4.471  0.0598 -0.1695  1.0910
  503MOL0     H67859   7.787   2.633   4.534 -1.1727  1.7867 -0.1811
  503MOL0     H67860   7.664   2.638   4.666 -3.5123  1.9854 -0.6892
  503MOL0     H67861   7.481   2.596   4.521  0.2683  0.9705  0.1951
  503MOL0     H67862   7.585   2.590   4.381 -3.4125  1.4853 -1.5423
  503MOL0     H67863   7.489   2.806   4.381  0.3455  0.4026 -0.2107
  503MOL0     H67864   7.661   2.815   4.427  0.0943 -1.8009 -1.5329
  503MOL0     H67865   7.319   3.020   4.543  0.1769 -1.0867  1.2000
  503MOL0     H67866   7.291   3.376   4.512 -2.0267  0.6819  2.9752
  503MOL0     H67867   7.225   3.227   4.451 -0.4502  2.3305 -1.1759
  503MOL0     H67868   7.237   3.247   4.624  2.5282 -3.6773  0.1940
  503MOL0     H67869   7.566   3.615   4.742 -0.2261 -0.5372 -0.6841
  503MOL0     H67870   7.646   3.833   4.795  2.1477 -0.2373  1.3880
  503MOL0     H67871   7.944   3.862   4.884 -0.6796  0.8238  0.3327
  503MOL0     H67872   8.063   3.893   4.761  0.4400 -0.0170  0.6791
  503MOL0     H67873   7.933   4.136   4.874 -0.3595 -0.1141 -1.3083
  503MOL0     H67874   8.050   4.054   4.979  2.7591 -3.8093 -1.2795
  503MOL0     H67875   8.218   4.034   4.825 -0.3580  0.6453  2.1848
  503MOL0     H67876   8.179   4.202   4.865  1.6532 -0.6978  0.1199
  503MOL0     H67877   8.100   4.063   4.607 -0.5508 -0.1770  0.5299
  503MOL0     H67878   8.040   4.217   4.640 -1.2228 -1.0586  0.0755
  503MOL0     H67879   8.255   4.330   4.628 -1.8182  0.8208  0.7393
  503MOL0     H67880   8.244   4.215   4.497 -0.4890 -1.4344  0.7960
  503MOL0     H67881   8.388   4.174   4.763 -1.6163  1.3707 -0.6759
  503MOL0     H67882   8.375   4.045   4.643  0.1353 -0.5858  3.1494
  503MOL0     H67883   8.490   4.310   4.593 -3.2949 -0.4201 -0.0289
  503MOL0     H67884   8.453   4.185   4.470 -3.8417 -0.5870  0.8680
  503MOL0     H67885   8.703   4.188   4.537 -0.7061 -1.4392 -2.5294
  503MOL0     H67886   8.625   4.027   4.554 -1.3177  0.2897 -0.3124
  503MOL0     H67887   7.984   3.796   4.538  0.4363  0.2563  1.6355
  503MOL0     H67888   7.917   3.548   4.485  0.6233  0.8307 -1.5487
  503MOL0     H67889   7.768   3.206   4.556 -1.1592  2.4816  0.8912
  503MOL0     H67890   7.743   2.988   4.571  0.4985  1.5581 -1.9382
  503MOL0     H67891   8.115   2.248   5.593 -0.9196 -2.3653 -1.0192
  503MOL0     H67892   8.298   2.316   5.725  1.7810  0.4099  0.5637
  503MOL0     H67893   8.603   2.465   6.020 -1.0277  0.3073 -1.3251
  503MOL0     H67894   8.772   2.609   6.112 -0.8049 -0.4984  0.1536
  503MOL0     H67895   8.932   2.730   6.164 -1.3691 -1.7111  0.6674
  503MOL0     H67896   9.042   2.595   6.142 -0.1637 -0.4816 -1.4135
  503MOL0     H67897   9.223   2.715   6.067  1.0682 -0.0836  1.6266
  503MOL0     H67898   9.177   2.793   6.225 -0.3205  2.0787 -0.0573
  503MOL0     H67899   9.174   2.981   6.153  0.0728 -0.5389 -0.0866
  503MOL0     H67900   9.053   2.953   6.026  0.7387  2.0958  0.8856
  503MOL0     H67901   9.245   3.024   5.911 -0.4170  1.2532  2.4474
  503MOL0     H67902   9.264   2.848   5.906 -1.2172  0.0670 -1.5067
  503MOL0     H67903   9.587   2.956   6.150 -0.6560  3.6484  2.4878
  503MOL0     H67904   8.973   2.603   5.726 -0.2221  0.8385  1.1563
  503MOL0     H67905   8.804   2.467   5.646  5.2398  0.3001 -0.0285
  504MOL0     O67906   2.309   9.006   5.875  0.5925 -0.4871 -0.5527
  504MOL0     C67907   2.353   8.896   5.834 -0.2777 -0.5426  0.5592
  504MOL0     O67908   2.269   8.793   5.786 -1.3403  0.1386  0.6599
  504MOL0     C67909   2.143   8.824   5.748 -0.5087  0.1252  0.2343
  504MOL0     C67910   2.105   8.770   5.624  0.0771  0.1702  0.1185
  504MOL0     C67911   1.974   8.783   5.574  0.4090  0.0858  0.2027
  504MOL0     C67912   1.880   8.843   5.656  0.2344 -0.4518  0.1288
  504MOL0     O67913   1.756   8.844   5.594  0.0834  0.1270 -0.3958
  504MOL0     C67914   1.684   8.966   5.636 -0.4951  0.6884 -0.9215
  504MOL0     C67915   1.587   8.978   5.524  0.3331 -0.4839 -0.3823
  504MOL0     C67916   1.633   8.956   5.379 -0.3479  0.0694 -0.1526
  504MOL0     C67917   1.537   9.022   5.287  1.6080 -0.4961  0.4438
  504MOL0     C67918   1.585   9.007   5.145 -0.4626 -0.8440 -0.0885
  504MOL0     C67919   1.614   8.862   5.088  0.9333  0.7234 -1.1011
  504MOL0     C67920   1.647   8.864   4.945  0.8509 -0.2163 -0.1374
  504MOL0     C67921   1.657   8.718   4.900 -0.4735 -0.1075 -0.0044
  504MOL0     N67922   1.663   8.702   4.757 -0.5527  0.5952 -0.2333
  504MOL0     C67923   1.569   8.738   4.668 -0.4338 -0.4687  0.4598
  504MOL0     C67924   1.626   8.728   4.546  0.2021 -0.2685  0.2809
  504MOL0     C67925   1.564   8.759   4.417  0.1735 -0.2666 -0.9768
  504MOL0     C67926   1.468   8.647   4.389  0.1232 -0.2210  0.6785
  504MOL0     C67927   1.403   8.671   4.246  0.2483  0.3943 -0.2612
  504MOL0     C67928   1.281   8.767   4.253  0.0417  0.8102 -0.6527
  504MOL0     O67929   1.212   8.758   4.374  0.7473  0.7765 -0.0586
  504MOL0     C67930   1.097   8.832   4.389  1.4470  0.2743 -0.1731
  504MOL0     C67931   1.003   8.804   4.491 -0.5470 -0.3986 -0.0729
  504MOL0     C67932   0.876   8.872   4.512  0.4068 -0.2159 -0.1576
  504MOL0     C67933   0.786   8.828   4.633 -0.9960  0.3577  0.3714
  504MOL0     C67934   0.835   8.972   4.424 -0.4574 -1.0286 -0.3797
  504MOL0     C67935   0.724   9.067   4.443  0.1392 -0.1292 -0.4657
  504MOL0     O67936   0.729   9.185   4.376 -0.2182 -0.0674 -0.1721
  504MOL0     C67937   0.612   9.253   4.356 -0.2247  1.1349 -0.9853
  504MOL0     C67938   0.540   9.208   4.248 -0.2867 -0.4904  0.7653
  504MOL0     C67939   0.424   9.282   4.203  0.0374  0.1428  0.0673
  504MOL0     C67940   0.366   9.383   4.281 -0.5169 -0.1225  0.3338
  504MOL0     O67941   0.257   9.459   4.246 -0.1559  0.0744  0.2373
  504MOL0     C67942   0.155   9.387   4.172  0.0713  0.3353  0.1768
  504MOL0     C67943   0.022   9.438   4.213  0.0541 -0.7905 -0.5893
  504MOL0     C67944  -0.088   9.334   4.210 -0.1554  0.1300 -0.3214
  504MOL0     C67945  -0.219   9.407   4.245  0.5269 -0.3442 -0.0146
  504MOL0     C67946  -0.342   9.311   4.236 -0.1526 -1.1150  0.6161
  504MOL0     C67947  -0.475   9.377   4.205  0.3286  0.4363  0.3537
  504MOL0     C67948  -0.592   9.290   4.236 -0.9127 -0.4261 -0.4244
  504MOL0     C67949  -0.722   9.371   4.221  0.0490  0.4064  0.4521
  504MOL0    Cl67950  -0.740   9.478   4.340  0.2048 -0.0191  0.2033
  504MOL0     C67951   0.436   9.407   4.403 -0.2343 -0.3637 -1.6050
  504MOL0     C67952   0.560   9.354   4.433 -0.1331 -0.0262  0.6042
  504MOL0     O67953   0.629   9.033   4.513 -0.7388  0.8864 -0.4441
  504MOL0     C67954   0.923   9.009   4.321 -0.3431 -0.1869  0.5404
  504MOL0     C67955   1.051   8.949   4.314  0.1403 -0.0243  0.3932
  504MOL0     N67956   1.761   8.681   4.559  0.7443 -0.5613 -0.4698
  504MOL0     N67957   1.782   8.683   4.695 -0.7355 -0.0094 -0.2895
  504MOL0     C67958   1.919   8.901   5.781 -0.6461 -0.4789  0.3406
  504MOL0     C67959   2.052   8.882   5.832  0.3244  0.9974 -0.1703
  504MOL0     C67960   2.503   8.876   5.829  0.3559  0.6672 -0.6203
  504MOL0     C67961   2.587   8.985   5.828  0.4905  0.1116  0.3852
  504MOL0     C67962   2.735   8.960   5.829  1.0186 -0.8959 -0.0921
  504MOL0     C67963   2.785   8.828   5.822  0.0464  0.3114 -0.3875
  504MOL0     O67964   2.927   8.820   5.839  0.5533  0.0330  0.2959
  504MOL0     C67965   2.996   8.699   5.867  0.6723  0.2913  0.3066
  504MOL0     C67966   3.120   8.713   5.772 -0.5289 -0.5321 -0.2804
  504MOL0     C67967   3.223   8.795   5.841  0.5919  0.3673 -0.8029
  504MOL0     C67968   3.278   8.736   5.976 -0.3568  0.3311 -0.2651
  504MOL0     C67969   3.416   8.780   6.002  0.4683 -0.2854  0.6001
  504MOL0     C67970   3.532   8.820   6.002  0.9416  0.2215 -0.4462
  504MOL0     C67971   2.694   8.722   5.832  0.0653 -0.2088 -0.4893
  504MOL0     C67972   2.554   8.747   5.832 -0.8489 -0.0386 -0.1667
  504MOL0     H67973   2.183   8.733   5.558 -1.7436  0.7829 -2.5626
  504MOL0     H67974   1.933   8.732   5.487  1.8271  1.0959 -1.1124
  504MOL0     H67975   1.626   8.943   5.726 -3.6573  0.1555 -2.9030
  504MOL0     H67976   1.744   9.057   5.646 -0.4457  0.7215 -1.4537
  504MOL0     H67977   1.497   8.919   5.544 -0.0955  0.6745  1.4465
  504MOL0     H67978   1.549   9.079   5.542  1.5698 -0.3594  1.9472
  504MOL0     H67979   1.732   8.997   5.358  0.5296 -1.1648  1.3284
  504MOL0     H67980   1.651   8.848   5.370  1.9132  0.2556  1.3295
  504MOL0     H67981   1.441   8.970   5.294  0.4903  1.3064 -0.6484
  504MOL0     H67982   1.532   9.128   5.312  0.1309 -0.1747 -1.0529
  504MOL0     H67983   1.511   9.062   5.087 -1.2899 -2.7253 -0.9041
  504MOL0     H67984   1.677   9.066   5.137 -0.2234 -0.5788  3.2543
  504MOL0     H67985   1.692   8.809   5.144 -0.0980  1.5797  1.3091
  504MOL0     H67986   1.524   8.804   5.106  2.0923 -1.2511 -1.3888
  504MOL0     H67987   1.574   8.918   4.884  1.6196 -0.4917 -1.3265
  504MOL0     H67988   1.745   8.908   4.929  1.9448 -2.5139 -0.2184
  504MOL0     H67989   1.588   8.649   4.949 -0.9089 -0.1631 -0.6765
  504MOL0     H67990   1.756   8.690   4.937 -0.0622  1.3845  0.0607
  504MOL0     H67991   1.461   8.744   4.680 -0.9941  3.6036 -3.7180
  504MOL0     H67992   1.517   8.857   4.426  0.2889 -0.4242  3.5711
  504MOL0     H67993   1.639   8.767   4.337  0.8895  0.5890 -0.2304
  504MOL0     H67994   1.391   8.627   4.464  1.1137 -1.2775  1.4538
  504MOL0     H67995   1.547   8.571   4.381  0.6010  0.0020  2.7485
  504MOL0     H67996   1.359   8.579   4.206  0.9888 -1.9342  3.6393
  504MOL0     H67997   1.478   8.710   4.178  0.7598 -3.1122 -1.9334
  504MOL0     H67998   1.213   8.746   4.170 -0.5607  2.5038 -0.6300
  504MOL0     H67999   1.334   8.862   4.245  1.1576  0.6166  2.8411
  504MOL0     H68000   1.023   8.726   4.564 -0.8404  0.5188  1.0248
  504MOL0     H68001   0.684   8.810   4.600 -1.0297  0.2806  0.5177
  504MOL0     H68002   0.832   8.742   4.683  2.6060  1.2863 -0.9963
  504MOL0     H68003   0.788   8.908   4.707 -0.1797  1.5920 -0.9289
  504MOL0     H68004   0.575   9.119   4.196 -0.2957 -0.6145  0.9721
  504MOL0     H68005   0.364   9.248   4.119  0.4499 -1.2264  0.2991
  504MOL0     H68006   0.175   9.409   4.066  0.2129 -0.7661 -0.0367
  504MOL0     H68007   0.149   9.278   4.181 -2.1761  0.4871  1.0763
  504MOL0     H68008   0.037   9.480   4.313  4.6954 -3.7493  0.2624
  504MOL0     H68009  -0.008   9.515   4.141  1.9554 -1.3127 -2.0018
  504MOL0     H68010  -0.068   9.268   4.295  1.0886 -0.4247 -1.0202
  504MOL0     H68011  -0.087   9.269   4.121  2.3062 -1.5047  0.7880
  504MOL0     H68012  -0.206   9.445   4.346  2.2713  3.3798 -1.4605
  504MOL0     H68013  -0.226   9.494   4.180 -1.4278  2.8464  4.0255
  504MOL0     H68014  -0.349   9.265   4.335  1.5932  1.6031  2.1067
  504MOL0     H68015  -0.318   9.232   4.164 -1.6409 -2.0915  1.1607
  504MOL0     H68016  -0.470   9.467   4.268  0.4932  0.6033  0.1031
  504MOL0     H68017  -0.473   9.418   4.104 -0.6061 -1.7685 -0.6111
  504MOL0     H68018  -0.584   9.261   4.341  2.9608 -2.4954 -1.0793
  504MOL0     H68019  -0.593   9.193   4.186  2.3398  0.0161 -1.6485
  504MOL0     H68020  -0.811   9.308   4.220  2.0419 -2.6794  1.9354
  504MOL0     H68021  -0.719   9.422   4.124  3.6091 -1.1482 -0.4332
  504MOL0     H68022   0.383   9.472   4.472 -0.1854 -2.5791  0.6744
  504MOL0     H68023   0.620   9.395   4.514 -1.3602 -0.9399  2.0401
  504MOL0     H68024   0.908   9.087   4.246  0.7417 -1.2148 -0.7914
  504MOL0     H68025   1.106   9.006   4.239 -0.1546 -1.4432 -0.9682
  504MOL0     H68026   1.844   8.966   5.825 -1.4484  0.9649 -2.8119
  504MOL0     H68027   2.083   8.906   5.933  1.0119 -2.0212  0.4389
  504MOL0     H68028   2.558   9.090   5.833  2.5713  0.6742  2.0120
  504MOL0     H68029   2.800   9.046   5.833 -1.9322  1.6007 -1.5642
  504MOL0     H68030   3.023   8.692   5.972  0.3231 -0.3088  0.3602
  504MOL0     H68031   2.949   8.604   5.842  0.4880  0.0811  1.4332
  504MOL0     H68032   3.089   8.757   5.677 -0.4756 -0.3259 -0.2019
  504MOL0     H68033   3.158   8.614   5.746  0.1064  0.3673 -3.0872
  504MOL0     H68034   3.201   8.901   5.852 -0.4441  0.0803  0.0862
  504MOL0     H68035   3.301   8.791   5.764 -0.1611 -1.2016 -1.5398
  504MOL0     H68036   3.276   8.627   5.967 -1.1264  0.2208  0.9903
  504MOL0     H68037   3.214   8.761   6.061 -0.3388  0.0834 -0.1757
  504MOL0     H68038   3.634   8.850   6.014  0.6721  0.8425  0.4160
  504MOL0     H68039   2.729   8.619   5.833  2.1916  0.4238 -1.8677
  504MOL0     H68040   2.486   8.662   5.829 -0.2652 -0.4933 -1.8616
  505MOL0     O68041   5.095   3.871   6.561  0.9050 -0.0948  0.3157
  505MOL0     C68042   5.125   3.906   6.445 -1.5396  0.2424  0.5140
  505MOL0     O68043   5.047   3.887   6.334  0.2653 -0.2952  0.2947
  505MOL0     C68044   4.918   3.846   6.353 -0.4207 -0.1365 -1.0256
  505MOL0     C68045   4.880   3.722   6.402  0.7371  0.0538 -0.5698
  505MOL0     C68046   4.754   3.684   6.428  0.1680  0.0186 -0.8388
  505MOL0     C68047   4.656   3.788   6.414 -0.5239  0.6611 -0.5305
  505MOL0     O68048   4.519   3.765   6.442 -0.4550 -0.3375 -0.4662
  505MOL0     C68049   4.491   3.685   6.557  0.7030  1.0315 -0.3809
  505MOL0     C68050   4.462   3.543   6.508 -0.1667  0.2510 -0.5104
  505MOL0     C68051   4.308   3.521   6.451 -1.0700  0.6349 -0.6143
  505MOL0     C68052   4.248   3.381   6.463  0.3931 -0.3377 -1.4615
  505MOL0     C68053   4.133   3.358   6.372 -1.1892 -0.5205  0.0566
  505MOL0     C68054   4.009   3.454   6.393 -0.0375 -0.1575 -0.3677
  505MOL0     C68055   3.904   3.434   6.287  0.2529  0.5190  0.3803
  505MOL0     C68056   3.775   3.520   6.307  0.2139  0.4251  0.1179
  505MOL0     N68057   3.728   3.535   6.440  0.6300  0.0075  0.2248
  505MOL0     C68058   3.689   3.446   6.535 -0.3673  0.5612  0.4454
  505MOL0     C68059   3.636   3.515   6.639 -1.1300  0.3970  0.2262
  505MOL0     C68060   3.604   3.443   6.765 -0.7266  0.1380  0.9384
  505MOL0     C68061   3.457   3.426   6.790 -0.0273 -0.2349  0.2709
  505MOL0     C68062   3.424   3.320   6.899 -0.0721 -0.5551 -0.8322
  505MOL0     C68063   3.267   3.307   6.904 -0.0603 -0.5157 -0.0314
  505MOL0     O68064   3.221   3.229   7.021 -0.1930  0.0000  0.3953
  505MOL0     C68065   3.093   3.213   7.048 -1.5288  0.4286 -0.3073
  505MOL0     C68066   3.061   3.138   7.160 -1.3092 -0.5807  0.0690
  505MOL0     C68067   2.924   3.115   7.192 -0.5475  0.7757 -0.2192
  505MOL0     C68068   2.904   3.030   7.323  0.5450 -1.0227 -0.4581
  505MOL0     C68069   2.816   3.153   7.109  0.2861  0.0251  0.6111
  505MOL0     C68070   2.672   3.134   7.147 -0.5328 -0.1250 -0.6511
  505MOL0     O68071   2.587   3.232   7.093 -0.5560  0.7590  0.8248
  505MOL0     C68072   2.451   3.213   7.116 -1.4903  0.7277  1.1185
  505MOL0     C68073   2.398   3.201   7.244 -0.8857  0.2463  0.4008
  505MOL0     C68074   2.260   3.208   7.270 -0.1319  0.6322  0.3220
  505MOL0     C68075   2.177   3.232   7.161 -0.0265 -0.7870  0.0469
  505MOL0     O68076   2.039   3.239   7.177 -0.2319  0.3756 -0.3855
  505MOL0     C68077   1.962   3.299   7.078 -0.7316  0.5480 -0.3863
  505MOL0     C68078   1.814   3.321   7.128 -0.5888 -0.2552  0.7533
  505MOL0     C68079   1.735   3.406   7.029 -0.6022 -0.9695  0.4523
  505MOL0     C68080   1.587   3.414   7.059 -0.2457  0.3108  0.1967
  505MOL0     C68081   1.502   3.486   6.958  0.1873  0.5687  0.3247
  505MOL0     C68082   1.360   3.412   6.946  0.7966  0.0145 -0.0655
  505MOL0     C68083   1.281   3.451   6.814  0.0973  0.5428  0.3005
  505MOL0     C68084   1.184   3.565   6.809 -0.3275 -0.7859 -0.1173
  505MOL0    Cl68085   1.281   3.712   6.757  0.0096  0.1614  0.0569
  505MOL0     C68086   2.239   3.240   7.030 -0.6341  0.9523 -0.1047
  505MOL0     C68087   2.375   3.229   7.008 -0.8002 -0.1673  0.5891
  505MOL0     O68088   2.633   3.032   7.201  1.0156  0.5078 -0.1699
  505MOL0     C68089   2.859   3.235   6.995  0.8240  0.0070  0.3665
  505MOL0     C68090   2.995   3.262   6.964 -0.0047  0.5952  0.0837
  505MOL0     N68091   3.630   3.645   6.606  0.3215 -0.2698 -0.6985
  505MOL0     N68092   3.678   3.653   6.485 -0.4812  0.0212 -0.5529
  505MOL0     C68093   4.692   3.907   6.354  0.1688 -0.5170  0.6983
  505MOL0     C68094   4.823   3.945   6.323  0.0926  0.6187  0.2837
  505MOL0     C68095   5.262   3.959   6.421 -1.0187  0.9723 -0.7113
  505MOL0     C68096   5.341   3.995   6.534  1.0169  0.9717  0.5109
  505MOL0     C68097   5.460   4.054   6.513 -0.6169 -1.1348 -0.5401
  505MOL0     C68098   5.514   4.089   6.384 -0.7278 -0.1286 -0.0669
  505MOL0     O68099   5.633   4.159   6.374  0.0081  0.9914  0.7294
  505MOL0     C68100   5.673   4.191   6.241 -0.8110  0.2024  0.0442
  505MOL0     C68101   5.798   4.277   6.230  0.1767  0.4654 -0.8270
  505MOL0     C68102   5.837   4.288   6.081 -0.8812 -0.8244  0.2168
  505MOL0     C68103   5.966   4.369   6.060 -0.2509  0.1347 -1.3612
  505MOL0     C68104   5.988   4.365   5.916  0.7780  0.0053 -0.0672
  505MOL0     C68105   5.996   4.372   5.797  0.2575 -0.3361 -0.4468
  505MOL0     C68106   5.430   4.052   6.265 -0.0275 -0.0009 -0.0329
  505MOL0     C68107   5.318   3.984   6.296 -0.8702  0.7795 -0.6712
  505MOL0     H68108   4.959   3.646   6.399  1.0431  0.1799  1.8949
  505MOL0     H68109   4.736   3.579   6.449 -1.7214 -0.0271 -2.4228
  505MOL0     H68110   4.569   3.708   6.631  0.7352  2.5407 -0.8531
  505MOL0     H68111   4.400   3.729   6.599 -0.3824 -0.1250 -1.4716
  505MOL0     H68112   4.535   3.507   6.435  0.3934 -0.3125  0.3130
  505MOL0     H68113   4.474   3.480   6.596  0.3564  2.5647  1.1888
  505MOL0     H68114   4.237   3.586   6.503 -0.3001  1.0447 -0.0699
  505MOL0     H68115   4.302   3.536   6.343 -1.9588  2.4799 -0.3413
  505MOL0     H68116   4.319   3.303   6.435  0.2251 -1.4129  0.8880
  505MOL0     H68117   4.214   3.350   6.563  0.9410 -3.1120 -2.0485
  505MOL0     H68118   4.164   3.376   6.269 -1.7750 -0.7927 -0.1725
  505MOL0     H68119   4.111   3.251   6.376 -0.8307 -0.5714  2.0050
  505MOL0     H68120   3.981   3.446   6.499  1.0340  1.2605  0.0545
  505MOL0     H68121   4.047   3.557   6.387 -2.3225  0.6851 -1.6272
  505MOL0     H68122   3.952   3.462   6.192  1.3895  0.1087  0.8256
  505MOL0     H68123   3.879   3.328   6.281  2.7242 -0.1343  0.7311
  505MOL0     H68124   3.700   3.460   6.254  0.5025  0.4094 -0.2786
  505MOL0     H68125   3.777   3.611   6.247 -1.5583  0.8761  0.6703
  505MOL0     H68126   3.693   3.338   6.525  1.1605  0.3834  2.2555
  505MOL0     H68127   3.647   3.343   6.758  2.8196  1.6279 -0.7144
  505MOL0     H68128   3.650   3.498   6.848 -1.4948  1.5832  0.4517
  505MOL0     H68129   3.399   3.400   6.701 -1.3049 -2.8565  1.7439
  505MOL0     H68130   3.421   3.527   6.815 -2.3682 -0.9096 -0.1027
  505MOL0     H68131   3.469   3.353   6.992 -0.2425  0.8432 -1.2164
  505MOL0     H68132   3.455   3.219   6.872 -0.5162 -1.0718  0.5232
  505MOL0     H68133   3.243   3.270   6.804  2.7055  1.1307 -1.4296
  505MOL0     H68134   3.235   3.411   6.913  3.2583  0.7729 -1.6182
  505MOL0     H68135   3.141   3.096   7.221  1.2763 -3.0596 -4.4268
  505MOL0     H68136   2.999   3.000   7.369  0.2035  0.6766  1.5066
  505MOL0     H68137   2.854   3.086   7.401  2.3814  0.7096 -0.4489
  505MOL0     H68138   2.865   2.929   7.307  0.8083 -1.2641  0.3728
  505MOL0     H68139   2.470   3.194   7.325  2.4064  2.5936 -2.0160
  505MOL0     H68140   2.221   3.196   7.371 -2.0709 -0.0999 -0.4742
  505MOL0     H68141   2.015   3.389   7.045 -1.3602  0.2244 -2.4363
  505MOL0     H68142   1.950   3.230   6.994 -4.4181 -1.4156  1.5213
  505MOL0     H68143   1.763   3.225   7.146 -1.1104  0.1968  1.7778
  505MOL0     H68144   1.809   3.368   7.226 -1.5676 -1.3279  1.2495
  505MOL0     H68145   1.760   3.374   6.927 -1.9173 -2.0382  0.4276
  505MOL0     H68146   1.780   3.505   7.036  0.1873 -1.2963  0.1396
  505MOL0     H68147   1.543   3.315   7.078 -3.8870  1.8326  0.4773
  505MOL0     H68148   1.570   3.455   7.159 -2.1505 -1.1404  0.5253
  505MOL0     H68149   1.552   3.465   6.863  2.0143 -3.2822  1.9001
  505MOL0     H68150   1.495   3.591   6.988  1.0925  0.4206  1.1141
  505MOL0     H68151   1.373   3.304   6.937  2.6469  0.3756 -3.3200
  505MOL0     H68152   1.307   3.442   7.037 -0.9200  3.0226 -1.8611
  505MOL0     H68153   1.216   3.367   6.787 -0.5929 -0.4998  4.5521
  505MOL0     H68154   1.351   3.465   6.731  0.3314 -0.4175  0.3304
  505MOL0     H68155   1.122   3.569   6.899  0.4526 -2.5387  0.5466
  505MOL0     H68156   1.111   3.552   6.729 -1.1767 -3.5036  0.9981
  505MOL0     H68157   2.174   3.248   6.943 -0.9132 -1.1685 -0.1238
  505MOL0     H68158   2.424   3.248   6.913 -3.1522 -3.4485 -1.4552
  505MOL0     H68159   2.775   3.274   6.937  1.6288  1.2304 -0.0057
  505MOL0     H68160   3.028   3.325   6.882 -1.0233  3.5449  1.8122
  505MOL0     H68161   4.626   3.986   6.319  4.1904  2.1731 -1.6113
  505MOL0     H68162   4.846   4.039   6.273  0.5782 -0.1044 -0.9211
  505MOL0     H68163   5.297   3.985   6.633 -1.6653 -1.7854 -0.7558
  505MOL0     H68164   5.516   4.101   6.594 -0.9600  0.0141 -0.9523
  505MOL0     H68165   5.694   4.098   6.187  0.6416  1.5503 -1.8418
  505MOL0     H68166   5.601   4.258   6.193 -0.1051 -0.0308 -1.3991
  505MOL0     H68167   5.882   4.244   6.293 -0.0389  2.2687  0.4930
  505MOL0     H68168   5.774   4.376   6.268  2.1515  2.2609 -3.8394
  505MOL0     H68169   5.753   4.341   6.035  1.1444  1.7943 -0.7057
  505MOL0     H68170   5.852   4.187   6.041 -0.6605 -0.6751 -0.0758
  505MOL0     H68171   6.048   4.323   6.115 -1.1998 -1.6564 -1.3752
  505MOL0     H68172   5.959   4.471   6.099 -0.9306 -1.6438  3.8901
  505MOL0     H68173   5.998   4.400   5.693  0.1786 -2.0777 -0.9517
  505MOL0     H68174   5.462   4.076   6.164  0.6016 -3.4315 -0.7540
  505MOL0     H68175   5.263   3.953   6.208 -0.7156  4.1663 -2.1215
  506MOL0     O68176   5.574   7.872   8.358 -0.2995 -0.9234  0.9538
  506MOL0     C68177   5.619   7.805   8.264  0.6239 -0.1886 -0.5171
  506MOL0     O68178   5.712   7.708   8.275 -0.7853  0.3230 -0.4896
  506MOL0     C68179   5.752   7.663   8.397  0.2302 -0.4256  0.2858
  506MOL0     C68180   5.666   7.646   8.507 -0.3383  0.1688 -0.5379
  506MOL0     C68181   5.714   7.600   8.631 -0.5319 -0.4933 -0.3070
  506MOL0     C68182   5.858   7.566   8.642  0.0855 -0.4716  0.9887
  506MOL0     O68183   5.926   7.500   8.741 -0.5014 -0.0124 -0.1646
  506MOL0     C68184   5.874   7.504   8.879  0.7269  0.4043  0.5635
  506MOL0     C68185   5.988   7.503   8.978 -0.2436  0.1588 -0.6456
  506MOL0     C68186   6.011   7.367   9.058  0.1460 -0.2218 -0.0878
  506MOL0     C68187   6.132   7.384   9.154 -0.3466  0.4807 -0.7649
  506MOL0     C68188   6.178   7.249   9.206 -0.1550 -0.1518 -0.0407
  506MOL0     C68189   6.286   7.246   9.305  0.3507 -0.0761  0.9594
  506MOL0     C68190   6.297   7.105   9.358 -0.5571  0.1935 -0.1900
  506MOL0     C68191   6.408   7.095   9.463 -0.8627 -0.1204 -0.3341
  506MOL0     N68192   6.366   7.169   9.588 -0.6903 -0.1727 -0.5343
  506MOL0     C68193   6.263   7.123   9.664 -0.3028 -0.4740 -0.4944
  506MOL0     C68194   6.251   7.222   9.757  0.6792  1.0295 -0.7065
  506MOL0     C68195   6.161   7.204   9.881  0.0024  0.8888  0.4410
  506MOL0     C68196   6.013   7.203   9.835 -0.7496 -0.8117  0.1729
  506MOL0     C68197   5.961   7.063   9.774  0.3534 -0.8089 -0.1607
  506MOL0     C68198   5.811   7.063   9.726  0.4419 -0.5398  0.1357
  506MOL0     O68199   5.725   6.970   9.799  0.3503 -0.4577  0.3481
  506MOL0     C68200   5.608   6.935   9.739 -0.3907 -0.7107 -0.2711
  506MOL0     C68201   5.589   6.806   9.685 -0.5084  0.0797  0.2688
  506MOL0     C68202   5.460   6.764   9.644 -0.0973  1.1501 -0.0137
  506MOL0     C68203   5.441   6.614   9.629 -0.1776 -0.2916 -0.0096
  506MOL0     C68204   5.354   6.852   9.624 -0.4018  0.1413  0.2595
  506MOL0     C68205   5.224   6.811   9.570  0.3866 -0.1048  0.0819
  506MOL0     O68206   5.122   6.906   9.591 -0.7833  0.1023 -0.4356
  506MOL0     C68207   5.001   6.901   9.526  0.0415  0.3726  0.2092
  506MOL0     C68208   4.979   7.002   9.436  0.5123  0.0619  0.9751
  506MOL0     C68209   4.864   7.006   9.357  0.9369  0.3743 -0.1910
  506MOL0     C68210   4.760   6.915   9.385  0.1444  0.2036  0.5967
  506MOL0     O68211   4.640   6.933   9.321 -0.0229 -0.4515  0.3474
  506MOL0     C68212   4.585   6.822   9.259 -0.0251  0.1443 -0.4636
  506MOL0     C68213   4.452   6.794   9.322  0.2211  0.2518 -0.3080
  506MOL0     C68214   4.390   6.672   9.253  0.6100  0.1917  0.2501
  506MOL0     C68215   4.242   6.673   9.287  0.0581 -0.0957  0.2055
  506MOL0     C68216   4.168   6.551   9.221  0.1496 -0.7886  0.2857
  506MOL0     C68217   4.020   6.569   9.231 -0.2558  0.3443  0.5798
  506MOL0     C68218   3.943   6.440   9.199 -0.2935  0.6196  0.9098
  506MOL0     C68219   3.802   6.477   9.189 -0.3234  0.7010  0.9437
  506MOL0    Cl68220   3.704   6.330   9.212 -0.4309 -0.2850 -0.0373
  506MOL0     C68221   4.780   6.819   9.487 -1.1746 -0.2406 -0.9924
  506MOL0     C68222   4.903   6.805   9.550  0.3593  0.2127  0.0884
  506MOL0     O68223   5.209   6.708   9.507  0.7564 -0.4281  0.4321
  506MOL0     C68224   5.378   6.982   9.663  0.4131 -0.8092  1.2628
  506MOL0     C68225   5.499   7.025   9.719 -0.2743  0.7118 -0.0383
  506MOL0     N68226   6.335   7.328   9.729  0.4085 -0.4332 -0.4797
  506MOL0     N68227   6.412   7.296   9.630  0.0074  0.0632 -0.1598
  506MOL0     C68228   5.935   7.588   8.526  0.3824 -1.2667 -0.2129
  506MOL0     C68229   5.885   7.634   8.404  0.0351  0.8003 -0.1902
  506MOL0     C68230   5.527   7.800   8.148  0.6332  1.6693 -0.1801
  506MOL0     C68231   5.590   7.762   8.027 -0.0978 -0.6857  0.0939
  506MOL0     C68232   5.521   7.756   7.913 -0.4751  0.0104  0.5197
  506MOL0     C68233   5.391   7.805   7.900  0.4388 -0.2902  0.0431
  506MOL0     O68234   5.342   7.795   7.771  0.6731  0.6320 -0.0307
  506MOL0     C68235   5.204   7.756   7.751  0.0670 -1.9192  0.4538
  506MOL0     C68236   5.180   7.671   7.627 -0.3306 -0.7410 -0.2581
  506MOL0     C68237   5.230   7.527   7.641 -0.2425 -0.4457  0.4404
  506MOL0     C68238   5.173   7.439   7.750 -0.1944 -0.4711  0.3102
  506MOL0     C68239   5.034   7.398   7.718 -0.5358  0.0130 -0.8772
  506MOL0     C68240   4.921   7.365   7.688 -0.3357 -0.8809 -0.6230
  506MOL0     C68241   5.324   7.848   8.015 -0.3855 -0.2158  0.1996
  506MOL0     C68242   5.394   7.850   8.146  0.1962  0.4786  0.9531
  506MOL0     H68243   5.559   7.664   8.496 -0.2368  0.2333 -1.5029
  506MOL0     H68244   5.648   7.579   8.714 -0.2353 -0.4787 -0.0662
  506MOL0     H68245   5.821   7.597   8.902 -0.0877  0.3381 -0.9457
  506MOL0     H68246   5.801   7.425   8.896  1.4562 -0.2998  0.4662
  506MOL0     H68247   6.080   7.526   8.922  0.6884 -1.4803  0.1580
  506MOL0     H68248   5.965   7.585   9.046  1.5716 -0.8129  1.2315
  506MOL0     H68249   5.924   7.348   9.120  0.2738 -2.6760 -0.5591
  506MOL0     H68250   6.022   7.278   8.996  2.4377  0.1178 -0.2733
  506MOL0     H68251   6.221   7.430   9.110 -0.9173  1.0242 -1.3624
  506MOL0     H68252   6.098   7.438   9.243  1.2360  0.2574  0.0085
  506MOL0     H68253   6.086   7.202   9.241 -1.8860  2.3633 -0.9160
  506MOL0     H68254   6.210   7.199   9.114 -0.7300  0.6201 -0.6866
  506MOL0     H68255   6.386   7.267   9.265 -0.4740 -0.7753 -1.6894
  506MOL0     H68256   6.270   7.314   9.389  3.5738  1.3515  0.5942
  506MOL0     H68257   6.204   7.080   9.412  0.8549  1.9313  3.4098
  506MOL0     H68258   6.316   7.042   9.271  3.0273  2.9967 -1.6470
  506MOL0     H68259   6.500   7.143   9.427 -0.5753 -0.6205 -0.2879
  506MOL0     H68260   6.437   6.994   9.494  0.9442  1.1941  2.6433
  506MOL0     H68261   6.230   7.020   9.671 -1.6651 -0.0133  0.2264
  506MOL0     H68262   6.188   7.106   9.922 -4.1309 -1.8651 -2.5845
  506MOL0     H68263   6.182   7.278   9.959 -1.2612  1.2928  0.4147
  506MOL0     H68264   5.998   7.275   9.754 -1.5350  1.2892  2.0705
  506MOL0     H68265   5.956   7.251   9.915  4.0785 -0.1450  3.6922
  506MOL0     H68266   5.959   6.992   9.857 -0.7977  0.4302  0.9396
  506MOL0     H68267   6.020   7.023   9.691  0.2279 -0.2182 -0.5434
  506MOL0     H68268   5.805   7.041   9.619 -0.3747 -1.6403  0.3959
  506MOL0     H68269   5.777   7.167   9.732 -0.2246 -0.7813  0.7730
  506MOL0     H68270   5.676   6.742   9.676  0.1635  1.1364 -1.2947
  506MOL0     H68271   5.432   6.588   9.523  1.0700  1.4222 -0.5886
  506MOL0     H68272   5.521   6.558   9.680 -1.6588 -2.9506 -0.4185
  506MOL0     H68273   5.350   6.587   9.684 -0.3660  1.0599  0.3708
  506MOL0     H68274   5.049   7.084   9.420 -0.5674  0.5766 -1.6653
  506MOL0     H68275   4.835   7.080   9.283  0.9629 -0.6271 -1.2077
  506MOL0     H68276   4.578   6.832   9.150 -0.0289  2.8857 -0.2719
  506MOL0     H68277   4.651   6.735   9.264 -0.9267 -0.4757  1.4368
  506MOL0     H68278   4.483   6.775   9.425 -2.0319 -0.2247  0.3442
  506MOL0     H68279   4.381   6.877   9.321 -0.3624 -0.2387 -0.2771
  506MOL0     H68280   4.434   6.575   9.278 -0.2028  0.1197  1.4899
  506MOL0     H68281   4.390   6.680   9.144 -4.1586 -1.9007 -0.1436
  506MOL0     H68282   4.230   6.674   9.395  0.7995  0.4488  0.2924
  506MOL0     H68283   4.201   6.769   9.252 -1.2391 -0.1037  1.6283
  506MOL0     H68284   4.194   6.464   9.282 -1.2642 -1.5375 -0.1127
  506MOL0     H68285   4.198   6.527   9.119 -0.3380 -2.6348  0.5347
  506MOL0     H68286   4.004   6.602   9.334  2.1957  1.9338  0.5180
  506MOL0     H68287   3.984   6.653   9.171 -0.1703 -0.7839 -1.1269
  506MOL0     H68288   3.961   6.383   9.291 -4.1179  0.9799  2.0597
  506MOL0     H68289   3.987   6.399   9.108  1.3517  4.2511 -0.1244
  506MOL0     H68290   3.771   6.525   9.096 -0.3992  0.1100  0.6638
  506MOL0     H68291   3.778   6.548   9.270 -0.9191  1.1374  0.3988
  506MOL0     H68292   4.705   6.744   9.510  1.4829 -2.7415  0.1797
  506MOL0     H68293   4.914   6.725   9.623  0.3392  1.9884  2.1207
  506MOL0     H68294   5.298   7.055   9.649 -0.1613 -1.7090 -0.4910
  506MOL0     H68295   5.511   7.128   9.752  1.4306  0.1776  1.0988
  506MOL0     H68296   6.043   7.575   8.525  0.0515 -5.5061  0.4981
  506MOL0     H68297   5.947   7.625   8.315 -1.0337 -2.0628 -0.7528
  506MOL0     H68298   5.693   7.731   8.020 -0.0465 -0.1662 -3.0079
  506MOL0     H68299   5.570   7.721   7.822 -1.4930 -0.7166  0.2443
  506MOL0     H68300   5.152   7.715   7.839 -2.5946  0.2102  0.0201
  506MOL0     H68301   5.154   7.848   7.719 -0.4113 -1.6176  1.9673
  506MOL0     H68302   5.229   7.719   7.541  1.5028  2.6468  2.4172
  506MOL0     H68303   5.074   7.661   7.606 -0.5459 -1.7513  1.1474
  506MOL0     H68304   5.339   7.528   7.652 -0.1185  3.7000  0.4338
  506MOL0     H68305   5.220   7.468   7.550  0.5936 -1.7512  1.1574
  506MOL0     H68306   5.161   7.499   7.841 -0.3477 -2.3057  1.5476
  506MOL0     H68307   5.227   7.345   7.757 -0.9387 -0.9105  0.2379
  506MOL0     H68308   4.822   7.330   7.668 -0.6477 -0.5086  0.2258
  506MOL0     H68309   5.223   7.888   8.014 -1.1772 -1.9164  2.5190
  506MOL0     H68310   5.349   7.894   8.235 -1.7873 -0.1139  0.3119
  507MOL0     O68311  10.802  10.125   4.934 -1.2238 -0.0402  0.2635
  507MOL0     C68312  10.885  10.087   5.021 -0.2264 -0.1261 -0.1812
  507MOL0     O68313  10.864  10.083   5.157 -1.2291 -0.1613 -0.1090
  507MOL0     C68314  10.752  10.151   5.200  0.2897 -0.1301  0.3872
  507MOL0     C68315  10.645  10.072   5.220  1.0533 -0.4277  0.4601
  507MOL0     C68316  10.525  10.139   5.267 -0.3091  0.5027  0.5399
  507MOL0     C68317  10.514  10.271   5.300  0.5873 -0.2929  0.8866
  507MOL0     O68318  10.402  10.323   5.355 -0.3822 -0.6803 -0.2279
  507MOL0     C68319  10.285  10.241   5.391 -0.5808  0.5139  0.5108
  507MOL0     C68320  10.177  10.330   5.456  1.0336  0.3593  0.7078
  507MOL0     C68321  10.044  10.269   5.454  0.2072  0.4931  0.1978
  507MOL0     C68322   9.941  10.361   5.521 -0.3996  0.6809  0.2271
  507MOL0     C68323   9.792  10.299   5.515 -0.4702  0.0179 -0.2806
  507MOL0     C68324   9.712  10.373   5.628  0.2179  0.9839 -0.5678
  507MOL0     C68325   9.563  10.355   5.602  0.2150 -1.2236 -0.0816
  507MOL0     C68326   9.483  10.414   5.724 -0.0254 -0.0336  0.2199
  507MOL0     N68327   9.342  10.424   5.700  0.3370  0.4416  0.4910
  507MOL0     C68328   9.243  10.481   5.781 -0.2750 -0.1336  0.1936
  507MOL0     C68329   9.131  10.429   5.733  0.6630  0.6375  0.7882
  507MOL0     C68330   8.992  10.452   5.790 -0.1617  0.0731  0.9589
  507MOL0     C68331   8.994  10.481   5.935  1.0784 -0.2132 -0.2262
  507MOL0     C68332   9.035  10.358   6.012 -0.2921 -0.6855 -0.3136
  507MOL0     C68333   9.046  10.387   6.164  0.6341 -0.9749  0.8889
  507MOL0     O68334   9.114  10.502   6.204  0.5764  0.3180 -0.0398
  507MOL0     C68335   9.250  10.514   6.184 -0.0046 -0.0636 -0.5223
  507MOL0     C68336   9.297  10.639   6.149  0.1136  0.8443 -0.0081
  507MOL0     C68337   9.427  10.662   6.108 -0.0741 -0.8263  0.7931
  507MOL0     C68338   9.461  10.807   6.063  0.0416 -0.2058  0.1715
  507MOL0     C68339   9.513  10.550   6.092 -0.1036  1.1600 -0.4983
  507MOL0     C68340   9.657  10.559   6.062  0.8186  0.4550 -0.5065
  507MOL0     O68341   9.708  10.451   5.998 -0.0491 -0.1094 -0.1145
  507MOL0     C68342   9.846  10.446   6.009 -0.5917 -0.7161  0.4909
  507MOL0     C68343   9.933  10.490   5.909  0.0997  0.2311  0.0543
  507MOL0     C68344  10.067  10.477   5.929  0.2496 -0.2702 -0.3314
  507MOL0     C68345  10.124  10.423   6.039 -0.3030 -0.3078 -0.2108
  507MOL0     O68346  10.262  10.419   6.054 -0.2759 -0.0889 -0.0477
  507MOL0     C68347  10.323  10.310   6.130 -0.5611  0.6401 -0.4693
  507MOL0     C68348  10.462  10.281   6.081  0.8075 -0.4842 -0.2589
  507MOL0     C68349  10.567  10.392   6.121  0.3298 -0.0326 -0.9008
  507MOL0     C68350  10.695  10.360   6.051  0.4149 -0.0845  0.3053
  507MOL0     C68351  10.768  10.223   6.094  0.0814 -0.0488  0.5760
  507MOL0     C68352  10.851  10.159   5.977 -0.1593  0.5303 -0.7179
  507MOL0     C68353  10.973  10.078   6.027  0.9213  0.3006 -0.9017
  507MOL0     C68354  10.949   9.933   5.990 -0.3604  0.8012 -0.4562
  507MOL0    Cl68355  10.795   9.870   6.059 -0.0757 -0.1045 -0.2008
  507MOL0     C68356  10.045  10.386   6.138  0.2121 -0.0449 -0.5052
  507MOL0     C68357   9.904  10.402   6.131 -0.7678  0.8216  0.1705
  507MOL0     O68358   9.709  10.664   6.087 -0.5359 -0.0158 -0.2403
  507MOL0     C68359   9.470  10.426   6.129  0.7970  0.6661  0.7082
  507MOL0     C68360   9.340  10.405   6.178  0.3837 -0.4597  0.3966
  507MOL0     N68361   9.153  10.359   5.620  0.1169  0.1253 -0.4344
  507MOL0     N68362   9.279  10.346   5.604 -0.4227  0.6144  0.3303
  507MOL0     C68363  10.628  10.346   5.261  0.0339 -0.0205  0.5894
  507MOL0     C68364  10.745  10.288   5.215 -0.4824 -0.3990  1.2194
  507MOL0     C68365  11.014  10.030   4.969 -0.0158 -0.1890  0.1787
  507MOL0     C68366  11.043  10.012   4.831 -0.6390  0.3218 -0.9287
  507MOL0     C68367  11.171   9.961   4.798  0.5672 -0.0552 -0.2111
  507MOL0     C68368  11.266   9.923   4.897  0.0440 -0.0644 -0.6325
  507MOL0     O68369  11.389   9.870   4.863 -0.2896 -0.1113  0.0524
  507MOL0     C68370  11.420   9.856   4.722 -0.4020  0.4731  0.7389
  507MOL0     C68371  11.551   9.782   4.717  0.2783  1.0764  0.3803
  507MOL0     C68372  11.612   9.803   4.583 -0.2512 -0.3414  0.1205
  507MOL0     C68373  11.753   9.748   4.580 -0.5417 -0.1904  0.3911
  507MOL0     C68374  11.824   9.746   4.451  0.1044 -0.2445 -0.4343
  507MOL0     C68375  11.861   9.731   4.335  0.0398  0.1640 -0.7342
  507MOL0     C68376  11.236   9.955   5.029  1.0401  0.3191 -0.6216
  507MOL0     C68377  11.113  10.010   5.062  0.4013 -0.0280  0.7336
  507MOL0     H68378  10.642   9.966   5.197 -2.2107 -0.2957 -0.2063
  507MOL0     H68379  10.444  10.069   5.284 -0.4147 -0.5654 -3.3642
  507MOL0     H68380  10.245  10.189   5.303 -1.9513  2.7262 -0.2609
  507MOL0     H68381  10.318  10.172   5.469  1.9131  1.4692  0.4005
  507MOL0     H68382  10.203  10.352   5.560 -4.0091  1.2888  2.0346
  507MOL0     H68383  10.168  10.428   5.408 -2.4493  1.1507  2.6382
  507MOL0     H68384  10.012  10.221   5.361  2.3953 -0.2312 -0.2539
  507MOL0     H68385  10.058  10.187   5.525  2.5440 -0.3690 -1.1230
  507MOL0     H68386   9.963  10.380   5.626 -0.9935 -1.7119  0.8345
  507MOL0     H68387   9.953  10.461   5.478  0.3872  0.0460 -1.1013
  507MOL0     H68388   9.750  10.301   5.414 -0.0989  2.9494 -0.4878
  507MOL0     H68389   9.793  10.195   5.548 -2.7162  0.6434  2.1138
  507MOL0     H68390   9.743  10.320   5.719  1.6499  0.5837 -1.2721
  507MOL0     H68391   9.736  10.480   5.638  1.9692  0.4583  1.6663
  507MOL0     H68392   9.524  10.411   5.517 -0.3585  0.7548  1.4273
  507MOL0     H68393   9.536  10.251   5.582  1.0399 -1.1571 -1.6579
  507MOL0     H68394   9.530  10.513   5.733  1.3841 -0.5756 -0.8547
  507MOL0     H68395   9.505  10.349   5.809 -1.8629 -0.7465  0.1946
  507MOL0     H68396   9.260  10.552   5.861 -4.1898  1.2914 -0.0542
  507MOL0     H68397   8.949  10.534   5.732  0.3109 -0.4565 -0.1673
  507MOL0     H68398   8.940  10.356   5.781 -0.2224 -0.2994  4.2055
  507MOL0     H68399   8.892  10.496   5.973  1.8725  2.4179  1.0777
  507MOL0     H68400   9.054  10.566   5.966 -0.3475  1.6452 -2.1840
  507MOL0     H68401   9.135  10.326   5.980 -0.9818  0.0841 -3.6997
  507MOL0     H68402   8.961  10.281   5.987 -0.6832  0.1422 -1.8490
  507MOL0     H68403   9.061  10.300   6.229 -2.0000 -2.7196 -0.6561
  507MOL0     H68404   8.943  10.406   6.194  0.7109 -0.5256  0.8705
  507MOL0     H68405   9.237  10.727   6.171 -0.2596  0.2115  1.6180
  507MOL0     H68406   9.375  10.874   6.052  2.3845  3.2624  1.2180
  507MOL0     H68407   9.525  10.851   6.140 -0.7782  2.0764 -0.3760
  507MOL0     H68408   9.516  10.811   5.968 -0.7914  0.2213 -0.2975
  507MOL0     H68409   9.903  10.522   5.810  3.8589  1.2534 -0.9309
  507MOL0     H68410  10.131  10.520   5.852 -2.9508  0.3317 -2.8566
  507MOL0     H68411  10.323  10.343   6.234  1.0496 -0.6665 -0.0220
  507MOL0     H68412  10.267  10.218   6.109  0.1404  0.0773  0.0736
  507MOL0     H68413  10.489  10.185   6.126  1.1479  0.6014  2.0060
  507MOL0     H68414  10.452  10.276   5.973 -0.0288  3.8172 -0.5628
  507MOL0     H68415  10.571  10.405   6.229 -0.6876 -0.2348 -0.8215
  507MOL0     H68416  10.523  10.486   6.087 -2.1693  0.6889  3.5720
  507MOL0     H68417  10.670  10.364   5.944  0.5246  0.8570  0.3112
  507MOL0     H68418  10.771  10.436   6.070  2.5908 -2.5532  2.2797
  507MOL0     H68419  10.692  10.157   6.136  0.9417 -2.5008 -1.5080
  507MOL0     H68420  10.829  10.247   6.182  1.0967  0.8221 -0.3439
  507MOL0     H68421  10.787  10.095   5.915 -0.2158 -1.9973  1.7228
  507MOL0     H68422  10.881  10.241   5.912 -4.0089  0.6463 -2.6283
  507MOL0     H68423  10.977  10.085   6.136 -1.4006  2.4365 -0.8670
  507MOL0     H68424  11.069  10.106   5.982  0.8700 -1.7381 -2.4521
  507MOL0     H68425  11.035   9.873   6.020 -0.3957  0.8710 -0.2050
  507MOL0     H68426  10.936   9.928   5.882 -1.7545  1.1652 -0.3320
  507MOL0     H68427  10.074  10.372   6.242 -3.2188  2.0423  0.9359
  507MOL0     H68428   9.859  10.363   6.222 -1.1244 -0.4002 -0.5098
  507MOL0     H68429   9.533  10.337   6.123 -0.6571 -0.3086 -3.2405
  507MOL0     H68430   9.304  10.305   6.198 -1.2688 -0.0508 -0.4485
  507MOL0     H68431  10.623  10.452   5.282 -1.5224 -0.3806  2.2044
  507MOL0     H68432  10.832  10.338   5.173  1.3056 -3.3509  1.1887
  507MOL0     H68433  10.967  10.029   4.756 -0.3383 -1.0920 -1.5965
  507MOL0     H68434  11.179   9.955   4.690 -2.7806  3.0058 -0.8063
  507MOL0     H68435  11.340   9.807   4.666 -0.3218  0.7542  0.3675
  507MOL0     H68436  11.431   9.958   4.684  1.4847  0.4376  1.0930
  507MOL0     H68437  11.544   9.674   4.732  1.7419  0.5925 -1.9985
  507MOL0     H68438  11.616   9.823   4.795 -1.1052  0.1679  2.0812
  507MOL0     H68439  11.610   9.907   4.551 -2.5825 -1.0107 -2.2783
  507MOL0     H68440  11.548   9.754   4.509  1.1235 -1.3184 -0.4741
  507MOL0     H68441  11.770   9.643   4.608  1.6648  0.1301  0.4333
  507MOL0     H68442  11.805   9.823   4.639  1.9236 -0.4239 -1.3307
  507MOL0     H68443  11.931   9.704   4.259  0.2067  0.4533 -0.6824
  507MOL0     H68444  11.307   9.922   5.105  1.5587  1.4945 -0.5797
  507MOL0     H68445  11.106  10.043   5.166 -1.2327 -3.4305  1.8423
  508MOL0     O68446   7.340   0.743   4.761 -0.5355 -0.2477  0.5183
  508MOL0     C68447   7.352   0.785   4.640  0.3095  0.4038 -0.2017
  508MOL0     O68448   7.257   0.793   4.550  0.7419 -0.2078 -0.8325
  508MOL0     C68449   7.114   0.765   4.567  0.0176 -0.2797 -0.2493
  508MOL0     C68450   7.016   0.805   4.467  0.2287 -0.5981 -0.3254
  508MOL0     C68451   6.880   0.764   4.474  0.6045 -0.2539 -0.1047
  508MOL0     C68452   6.831   0.688   4.580  0.8689  0.3156  0.7565
  508MOL0     O68453   6.698   0.661   4.598 -0.0686  0.4673  0.6244
  508MOL0     C68454   6.612   0.697   4.489 -0.7335  0.1853  0.5210
  508MOL0     C68455   6.469   0.683   4.536  0.7556  0.6078  0.0498
  508MOL0     C68456   6.441   0.535   4.571 -0.4438 -0.0739  0.6014
  508MOL0     C68457   6.322   0.501   4.662  0.1904  0.1205 -0.3218
  508MOL0     C68458   6.194   0.525   4.585  1.0609 -0.6967 -0.3743
  508MOL0     C68459   6.060   0.494   4.651  0.6140  0.8298 -0.3395
  508MOL0     C68460   5.938   0.494   4.553 -0.3002 -0.4207 -0.8401
  508MOL0     C68461   5.818   0.429   4.622 -0.8555  0.0793 -0.8160
  508MOL0     N68462   5.716   0.528   4.648 -0.2026 -0.2463  0.5139
  508MOL0     C68463   5.695   0.566   4.774 -0.1469 -0.0531 -0.2739
  508MOL0     C68464   5.591   0.655   4.776 -0.2249 -1.0414 -0.0776
  508MOL0     C68465   5.529   0.743   4.880  0.6735 -0.0431 -0.4179
  508MOL0     C68466   5.436   0.652   4.974 -0.5699 -0.1354  0.0534
  508MOL0     C68467   5.321   0.618   4.886 -0.2721 -0.5092 -0.7278
  508MOL0     C68468   5.199   0.542   4.942  0.0029  0.1493  0.0252
  508MOL0     O68469   5.107   0.533   4.834 -0.0643  0.1716  0.2754
  508MOL0     C68470   4.977   0.508   4.863 -1.0016  0.4166  0.9078
  508MOL0     C68471   4.879   0.585   4.799 -0.4466 -0.7913  0.5405
  508MOL0     C68472   4.743   0.564   4.812  1.0215  0.3868  0.3096
  508MOL0     C68473   4.653   0.650   4.738 -0.0864 -0.2560  0.0389
  508MOL0     C68474   4.699   0.456   4.892  0.3120  0.0453 -0.3541
  508MOL0     C68475   4.560   0.407   4.908 -0.0529 -0.1421  0.6143
  508MOL0     O68476   4.532   0.374   5.033  0.5972  0.4406  0.1509
  508MOL0     C68477   4.408   0.320   5.046  1.0019  0.0285 -0.1081
  508MOL0     C68478   4.414   0.187   5.102  0.0836  0.3374 -0.0077
  508MOL0     C68479   4.293   0.125   5.126  0.1813 -0.6907 -1.2282
  508MOL0     C68480   4.174   0.181   5.099  0.5224 -0.0554 -0.3045
  508MOL0     O68481   4.050   0.124   5.124  0.6835  0.0215  0.2695
  508MOL0     C68482   4.048  -0.013   5.113  0.2298  0.8541  0.3991
  508MOL0     C68483   3.905  -0.056   5.133 -0.8038  0.1528  0.5766
  508MOL0     C68484   3.866  -0.205   5.136 -0.3941  0.1587  0.6923
  508MOL0     C68485   3.720  -0.244   5.088 -0.1953 -0.5435 -0.5823
  508MOL0     C68486   3.698  -0.394   5.084  0.7415 -0.0610 -0.3413
  508MOL0     C68487   3.789  -0.480   4.998 -0.2298  0.4162 -0.5218
  508MOL0     C68488   3.736  -0.624   4.987 -0.7284 -0.5689 -0.2257
  508MOL0     C68489   3.777  -0.721   5.103 -0.3863  0.0510  0.0601
  508MOL0    Cl68490   3.947  -0.765   5.061  0.1910 -0.3577  0.1996
  508MOL0     C68491   4.166   0.312   5.050  0.7573 -1.1114  0.2136
  508MOL0     C68492   4.285   0.380   5.019 -0.6371  0.1128 -0.5208
  508MOL0     O68493   4.489   0.407   4.809 -0.1997  0.2555 -0.5347
  508MOL0     C68494   4.794   0.383   4.959  0.1849  1.0547 -0.1124
  508MOL0     C68495   4.932   0.407   4.950  0.0643 -0.1372  0.3711
  508MOL0     N68496   5.563   0.679   4.640  0.2103  0.1681  0.1261
  508MOL0     N68497   5.639   0.602   4.574 -0.1578 -0.0441 -0.2975
  508MOL0     C68498   6.923   0.646   4.679 -0.0132  0.6577  0.6628
  508MOL0     C68499   7.062   0.678   4.671  0.6776  0.2814 -0.7335
  508MOL0     C68500   7.488   0.855   4.606 -0.3787  0.7790  0.5064
  508MOL0     C68501   7.501   0.946   4.503  0.3453 -0.2895  0.0139
  508MOL0     C68502   7.618   1.006   4.472  0.5776 -0.3372  0.4234
  508MOL0     C68503   7.734   0.977   4.550  0.9875  0.3493 -0.8701
  508MOL0     O68504   7.856   1.031   4.532 -0.7983 -0.3975  0.4201
  508MOL0     C68505   7.871   1.129   4.427  0.6416  0.5543 -0.1511
  508MOL0     C68506   7.916   1.045   4.305  0.3386 -1.2069 -0.4077
  508MOL0     C68507   7.961   1.137   4.189  0.0880  0.7151 -0.1352
  508MOL0     C68508   8.111   1.180   4.206 -0.1097 -0.7481  0.2261
  508MOL0     C68509   8.215   1.072   4.180  0.1643  0.8809 -0.3786
  508MOL0     C68510   8.292   0.990   4.144 -0.1661  0.9947  0.1463
  508MOL0     C68511   7.726   0.870   4.642  0.1673  0.1181  0.4268
  508MOL0     C68512   7.601   0.815   4.672  0.0220  0.3965  0.4716
  508MOL0     H68513   7.054   0.854   4.378  0.3584 -1.0681 -0.5319
  508MOL0     H68514   6.819   0.805   4.394  1.7062 -0.6975 -1.2073
  508MOL0     H68515   6.624   0.804   4.471 -1.2673  0.2718  0.6652
  508MOL0     H68516   6.629   0.649   4.392 -0.6420 -0.4250  0.8310
  508MOL0     H68517   6.448   0.730   4.633 -2.4822 -3.6425  1.7655
  508MOL0     H68518   6.396   0.710   4.460  0.4564 -0.8752 -0.2191
  508MOL0     H68519   6.458   0.475   4.481 -3.5506 -0.2765  0.0600
  508MOL0     H68520   6.522   0.509   4.640  2.1328  4.4518 -0.3074
  508MOL0     H68521   6.312   0.401   4.705 -0.5061  0.5446  0.5187
  508MOL0     H68522   6.339   0.566   4.749  0.8291  0.1186 -0.4426
  508MOL0     H68523   6.180   0.624   4.541 -1.5066 -0.7046  0.2419
  508MOL0     H68524   6.191   0.462   4.496  0.8407 -1.5846  0.2449
  508MOL0     H68525   6.074   0.397   4.700 -1.8058  0.3506 -0.4868
  508MOL0     H68526   6.040   0.573   4.725 -2.5227 -0.0303 -0.1244
  508MOL0     H68527   5.927   0.601   4.535  0.0617 -0.3442 -0.6113
  508MOL0     H68528   5.958   0.437   4.462 -0.7119 -0.7605 -0.7236
  508MOL0     H68529   5.858   0.362   4.698 -0.3355  2.6341  1.3046
  508MOL0     H68530   5.773   0.356   4.553  0.4474 -2.4807  0.8932
  508MOL0     H68531   5.742   0.530   4.865  0.5905 -1.8712 -1.3157
  508MOL0     H68532   5.619   0.784   4.927  0.3369 -1.6012  1.7049
  508MOL0     H68533   5.472   0.823   4.831 -2.4551 -3.0667 -2.1942
  508MOL0     H68534   5.415   0.715   5.061  0.8223  2.3856 -1.3086
  508MOL0     H68535   5.491   0.559   4.991  0.8918  0.6825 -0.0548
  508MOL0     H68536   5.359   0.559   4.802 -0.5919 -1.9766  0.1148
  508MOL0     H68537   5.278   0.714   4.857  1.1298 -0.0516 -1.3705
  508MOL0     H68538   5.154   0.603   5.022  1.1407 -2.2962  2.7250
  508MOL0     H68539   5.234   0.448   4.985 -1.3266 -0.2761  0.1957
  508MOL0     H68540   4.907   0.662   4.727 -1.1937 -0.8921  0.1269
  508MOL0     H68541   4.709   0.724   4.681 -0.3670  0.9929  1.3538
  508MOL0     H68542   4.608   0.584   4.663  1.2003 -1.8893  0.6159
  508MOL0     H68543   4.574   0.693   4.800  1.5696  2.7259  0.2292
  508MOL0     H68544   4.512   0.146   5.124 -0.9885 -2.8257 -0.5890
  508MOL0     H68545   4.289   0.027   5.172 -2.2349 -0.0281  0.1605
  508MOL0     H68546   4.081  -0.043   5.014 -2.0869 -4.3768  0.8759
  508MOL0     H68547   4.112  -0.064   5.186  1.9738  0.4931 -1.3143
  508MOL0     H68548   3.877  -0.010   5.228  2.7202 -1.9166  2.8663
  508MOL0     H68549   3.849   0.001   5.058  0.1685 -0.0696 -0.3393
  508MOL0     H68550   3.895  -0.246   5.233  0.5113  0.7725  0.6832
  508MOL0     H68551   3.941  -0.250   5.071 -0.0606 -0.0214  1.2013
  508MOL0     H68552   3.656  -0.208   5.170 -1.3877 -3.0279 -0.3381
  508MOL0     H68553   3.684  -0.191   5.000  4.4012 -2.6041 -4.1023
  508MOL0     H68554   3.590  -0.411   5.071  0.1456  0.4248  3.1782
  508MOL0     H68555   3.719  -0.428   5.186  1.5892  1.6492  0.0907
  508MOL0     H68556   3.792  -0.435   4.898  1.9284  0.9686 -0.2772
  508MOL0     H68557   3.896  -0.476   5.024 -0.1140 -0.3435 -0.8553
  508MOL0     H68558   3.775  -0.670   4.896 -0.1236  0.6339 -0.6055
  508MOL0     H68559   3.627  -0.615   4.989 -0.5586  2.9005  0.7181
  508MOL0     H68560   3.703  -0.801   5.101 -0.7427  0.3828 -1.1088
  508MOL0     H68561   3.777  -0.674   5.202  1.6190 -0.2244  0.2250
  508MOL0     H68562   4.072   0.366   5.040  1.2177  0.0694  1.8496
  508MOL0     H68563   4.275   0.477   4.972  0.8738  0.3977 -0.3133
  508MOL0     H68564   4.757   0.303   5.022 -0.7526 -0.6618 -2.6894
  508MOL0     H68565   5.011   0.351   5.000  2.2650 -1.4504 -4.0984
  508MOL0     H68566   6.890   0.585   4.763  1.3332 -0.4067  0.4629
  508MOL0     H68567   7.127   0.626   4.741 -1.3693 -0.0858  0.9635
  508MOL0     H68568   7.406   0.971   4.457  0.3013  0.2920  0.4068
  508MOL0     H68569   7.614   1.078   4.391 -2.1480  0.1375  0.8866
  508MOL0     H68570   7.781   1.189   4.412  0.4938  0.6361  1.0050
  508MOL0     H68571   7.957   1.187   4.460  0.9429 -0.5485  1.0910
  508MOL0     H68572   7.829   0.999   4.257  0.6767 -0.9538 -1.2994
  508MOL0     H68573   7.982   0.963   4.334  2.2454  0.9583  1.7909
  508MOL0     H68574   7.895   1.223   4.175 -1.9350 -0.5069  1.3461
  508MOL0     H68575   7.953   1.075   4.099  2.7402  0.7316 -0.4675
  508MOL0     H68576   8.126   1.219   4.307  1.3879 -0.6855 -0.0016
  508MOL0     H68577   8.129   1.256   4.130 -0.5742 -2.4693 -1.7237
  508MOL0     H68578   8.341   0.901   4.110 -1.4171  0.7875 -1.2111
  508MOL0     H68579   7.822   0.845   4.684  0.2940 -0.7988 -0.3844
  508MOL0     H68580   7.604   0.746   4.755  0.6665 -3.1927 -2.2389
  509MOL0     O68581   8.114   5.423   1.230 -0.1757  0.4063  0.1666
  509MOL0     C68582   8.134   5.447   1.350 -0.1301 -0.4294  0.3312
  509MOL0     O68583   8.038   5.473   1.448 -0.0011  0.3283  0.8292
  509MOL0     C68584   7.906   5.466   1.413  0.1264 -0.7104 -0.3174
  509MOL0     C68585   7.851   5.372   1.327 -0.1301  0.6382 -0.3483
  509MOL0     C68586   7.711   5.368   1.309 -0.3762 -0.0697 -0.6623
  509MOL0     C68587   7.617   5.447   1.386  0.6873  0.2546  0.7287
  509MOL0     O68588   7.486   5.422   1.363 -0.8852 -0.1596 -0.2828
  509MOL0     C68589   7.410   5.383   1.481 -0.1176 -0.0622 -0.4119
  509MOL0     C68590   7.270   5.312   1.441  0.1089  0.0727 -0.2792
  509MOL0     C68591   7.170   5.408   1.390  0.1388 -0.0758 -0.1530
  509MOL0     C68592   7.050   5.349   1.307 -0.6957  0.6935 -0.8782
  509MOL0     C68593   6.933   5.446   1.291 -0.7563  0.5102 -0.0423
  509MOL0     C68594   6.953   5.561   1.195  0.1391  0.7261  0.7920
  509MOL0     C68595   6.824   5.643   1.166 -0.3673 -0.4424  0.3779
  509MOL0     C68596   6.809   5.650   1.014  0.1759 -1.5333  0.5387
  509MOL0     N68597   6.696   5.742   0.975  0.9170  0.9272 -0.2624
  509MOL0     C68598   6.705   5.879   0.974 -0.0488 -0.5266 -0.0746
  509MOL0     C68599   6.597   5.916   0.903 -0.0471 -0.1023 -0.1618
  509MOL0     C68600   6.582   6.067   0.872 -0.1675  0.0992 -0.9149
  509MOL0     C68601   6.530   6.142   0.998 -0.1522 -0.4373 -0.0027
  509MOL0     C68602   6.485   6.286   0.989 -0.6043 -0.6138 -0.3744
  509MOL0     C68603   6.595   6.371   0.920  1.0186 -0.4707  0.0017
  509MOL0     O68604   6.546   6.403   0.794  0.7999 -0.5827 -1.0063
  509MOL0     C68605   6.496   6.526   0.763  0.3682 -0.2423  0.0148
  509MOL0     C68606   6.497   6.560   0.635  0.0422 -1.0500 -0.4261
  509MOL0     C68607   6.443   6.692   0.596 -0.3128  0.5557 -0.0761
  509MOL0     C68608   6.450   6.721   0.448  0.0621  0.1179  0.4919
  509MOL0     C68609   6.400   6.790   0.697  0.1835  0.9447 -0.0035
  509MOL0     C68610   6.365   6.934   0.665  0.0226 -0.6662  0.9934
  509MOL0     O68611   6.321   7.011   0.767  0.1181  0.5495 -0.3805
  509MOL0     C68612   6.305   7.146   0.756  0.1301 -1.3665 -0.0976
  509MOL0     C68613   6.174   7.194   0.780 -0.0025 -0.4402 -0.5063
  509MOL0     C68614   6.145   7.334   0.779 -0.6000  0.6499  0.6675
  509MOL0     C68615   6.250   7.419   0.761 -0.2586 -0.5879  0.7495
  509MOL0     O68616   6.233   7.552   0.751 -0.1994  0.6112 -0.0198
  509MOL0     C68617   6.170   7.611   0.855 -0.2102 -0.0528 -0.7176
  509MOL0     C68618   6.199   7.757   0.849 -1.1447 -0.4644 -0.1974
  509MOL0     C68619   6.161   7.833   0.980  0.3744  0.0110  0.3084
  509MOL0     C68620   6.123   7.978   0.955  0.8553 -0.7052 -0.2194
  509MOL0     C68621   6.248   8.060   0.935 -0.5345 -1.0539 -0.5166
  509MOL0     C68622   6.213   8.214   0.956  0.4323  0.2335 -0.0588
  509MOL0     C68623   6.332   8.310   0.973  0.4740 -0.0242 -0.3306
  509MOL0     C68624   6.427   8.301   0.856  0.7385  0.0706  0.4067
  509MOL0    Cl68625   6.564   8.418   0.884 -0.2081 -0.1062 -0.2032
  509MOL0     C68626   6.385   7.373   0.742 -0.4589 -0.0977 -0.5023
  509MOL0     C68627   6.408   7.234   0.743 -0.9444 -0.8922 -0.2691
  509MOL0     O68628   6.386   6.977   0.547  0.3082 -0.5623  0.2618
  509MOL0     C68629   6.397   6.748   0.833  0.5172 -0.6776  0.4854
  509MOL0     C68630   6.449   6.620   0.860 -0.0872  0.1382  0.0042
  509MOL0     N68631   6.533   5.805   0.864  0.7624  0.2193 -0.2037
  509MOL0     N68632   6.582   5.700   0.905 -1.5115  0.4352 -0.2500
  509MOL0     C68633   7.673   5.540   1.479  0.2222 -0.2669 -0.5864
  509MOL0     C68634   7.817   5.543   1.495  0.3840  0.4948  0.0951
  509MOL0     C68635   8.265   5.442   1.405 -0.3897 -0.6607  0.2910
  509MOL0     C68636   8.376   5.461   1.324 -0.4469  0.6493  0.2502
  509MOL0     C68637   8.501   5.459   1.386 -0.3984 -0.3664  0.0714
  509MOL0     C68638   8.525   5.457   1.534 -0.4304 -0.5444  0.7253
  509MOL0     O68639   8.641   5.468   1.596 -1.0206 -0.8626 -0.2425
  509MOL0     C68640   8.768   5.482   1.518  0.0309  0.2644  0.0535
  509MOL0     C68641   8.879   5.489   1.617  0.1698  1.1076  0.4518
  509MOL0     C68642   8.898   5.348   1.691  0.0119  0.4951  0.1859
  509MOL0     C68643   8.970   5.376   1.822 -0.4971 -0.3307 -0.5660
  509MOL0     C68644   8.988   5.247   1.885 -0.0326 -0.3707  0.5456
  509MOL0     C68645   9.002   5.137   1.932  1.4555 -0.1570  0.0626
  509MOL0     C68646   8.417   5.449   1.610  0.9504  0.3282  0.3260
  509MOL0     C68647   8.291   5.428   1.548  0.7792 -0.1342  0.5525
  509MOL0     H68648   7.898   5.300   1.261 -0.1044  0.8451 -0.5556
  509MOL0     H68649   7.668   5.297   1.239 -4.4726 -2.7888  3.9666
  509MOL0     H68650   7.466   5.316   1.548 -2.0150 -0.7617  0.5360
  509MOL0     H68651   7.383   5.466   1.547 -2.2990 -1.9040  1.1733
  509MOL0     H68652   7.285   5.229   1.371 -1.3198 -2.1213  1.8284
  509MOL0     H68653   7.235   5.268   1.535  1.0528  1.7485  0.9147
  509MOL0     H68654   7.135   5.456   1.482 -0.4873  4.7747 -2.6063
  509MOL0     H68655   7.220   5.490   1.338 -0.4222  1.4843  1.6160
  509MOL0     H68656   7.093   5.317   1.212 -0.4131  3.1056 -1.6298
  509MOL0     H68657   7.010   5.264   1.363 -0.2979 -0.6462 -2.5359
  509MOL0     H68658   6.855   5.385   1.245 -0.9126 -0.4444  1.4309
  509MOL0     H68659   6.912   5.495   1.387  2.0461  2.2641 -0.1769
  509MOL0     H68660   7.009   5.645   1.236 -0.1236  0.0659  2.5865
  509MOL0     H68661   6.999   5.516   1.107  2.6549 -1.5296  3.0738
  509MOL0     H68662   6.736   5.591   1.205  0.7128 -2.8224 -0.2063
  509MOL0     H68663   6.833   5.744   1.206 -2.3006  0.1126 -0.4476
  509MOL0     H68664   6.792   5.550   0.975 -0.3936 -0.1289 -3.2539
  509MOL0     H68665   6.897   5.684   0.958 -1.7596 -0.2621 -1.9382
  509MOL0     H68666   6.790   5.942   1.000 -0.8256 -0.6712  3.2815
  509MOL0     H68667   6.678   6.107   0.839 -0.2723  0.0052 -1.3370
  509MOL0     H68668   6.515   6.077   0.787 -0.5684  0.8895 -0.5130
  509MOL0     H68669   6.608   6.134   1.075  0.1017 -3.8702 -0.4545
  509MOL0     H68670   6.448   6.079   1.032  1.1455 -2.1114  0.1834
  509MOL0     H68671   6.468   6.313   1.094  0.9638 -2.2120  0.3560
  509MOL0     H68672   6.390   6.297   0.937 -2.7878  0.0661  3.3807
  509MOL0     H68673   6.679   6.304   0.906  2.3137  1.0009  0.4471
  509MOL0     H68674   6.629   6.447   0.992  0.2780 -0.9232  0.8628
  509MOL0     H68675   6.537   6.491   0.562 -1.2254 -1.9752 -0.2769
  509MOL0     H68676   6.348   6.754   0.424  0.6674  1.0439 -0.9708
  509MOL0     H68677   6.514   6.808   0.432 -0.2988  0.5603  1.3913
  509MOL0     H68678   6.477   6.635   0.386 -2.3301 -0.4918  0.1716
  509MOL0     H68679   6.097   7.117   0.782  0.8936 -1.4132 -1.9552
  509MOL0     H68680   6.045   7.377   0.775 -0.4405  1.0032 -2.6436
  509MOL0     H68681   6.062   7.598   0.845 -0.1972 -0.3708 -0.4674
  509MOL0     H68682   6.207   7.574   0.952  1.7128  0.8218 -1.0719
  509MOL0     H68683   6.300   7.782   0.813 -1.2371  3.1430  1.5356
  509MOL0     H68684   6.142   7.804   0.768  1.7860  2.2559 -0.8855
  509MOL0     H68685   6.242   7.826   1.053  1.5632  2.2511 -0.6847
  509MOL0     H68686   6.065   7.789   1.008 -1.0660  0.8477 -2.9087
  509MOL0     H68687   6.050   7.999   0.876 -0.2698  0.1663  1.0180
  509MOL0     H68688   6.086   8.009   1.053  1.5436  0.5347 -0.3343
  509MOL0     H68689   6.291   8.036   0.837 -1.8706  1.7861 -1.9291
  509MOL0     H68690   6.319   8.041   1.016 -1.6209  0.9954  1.0127
  509MOL0     H68691   6.147   8.253   0.878 -0.6781  1.9126  1.6495
  509MOL0     H68692   6.151   8.233   1.043 -0.0615  2.0932 -0.7658
  509MOL0     H68693   6.381   8.299   1.071  2.4494  1.6510 -1.0607
  509MOL0     H68694   6.306   8.416   0.978  2.1590  0.3829  0.4306
  509MOL0     H68695   6.371   8.332   0.768 -0.4583 -1.4947  0.5738
  509MOL0     H68696   6.468   8.201   0.841  2.9836  0.8292  0.9770
  509MOL0     H68697   6.469   7.443   0.741 -0.0046 -0.6179 -2.7425
  509MOL0     H68698   6.510   7.199   0.750 -0.4422  0.5155 -0.1802
  509MOL0     H68699   6.359   6.807   0.916 -2.1073 -0.7616 -0.5565
  509MOL0     H68700   6.456   6.595   0.965 -0.3692 -1.3453 -0.3135
  509MOL0     H68701   7.602   5.592   1.543 -0.9046 -0.1144 -1.9263
  509MOL0     H68702   7.859   5.615   1.565  1.0632 -0.5057  0.7486
  509MOL0     H68703   8.374   5.467   1.215  2.7210 -1.8002 -0.1159
  509MOL0     H68704   8.591   5.486   1.331 -0.4605 -0.2284  0.0378
  509MOL0     H68705   8.787   5.398   1.450 -2.5012  2.4396 -3.6904
  509MOL0     H68706   8.757   5.574   1.459 -2.3966 -0.0877 -0.1120
  509MOL0     H68707   8.859   5.567   1.692  0.9753 -0.8505  2.8404
  509MOL0     H68708   8.965   5.527   1.561  0.0548  0.3546 -0.2455
  509MOL0     H68709   8.940   5.271   1.626  0.4236  0.1269  0.8637
  509MOL0     H68710   8.799   5.309   1.715 -0.9591  3.8589  2.4663
  509MOL0     H68711   8.912   5.437   1.892  1.5448 -0.3305  1.2259
  509MOL0     H68712   9.075   5.404   1.819 -0.1929 -1.5116 -1.6513
  509MOL0     H68713   9.010   5.045   1.987 -0.4759  0.3699  1.3169
  509MOL0     H68714   8.416   5.461   1.718  0.7324  1.5765  0.1951
  509MOL0     H68715   8.211   5.425   1.622 -1.7377 -2.5480 -2.0452
  510MOL0     O68716   5.433   3.132   7.305 -0.7806 -0.2169 -0.5569
  510MOL0     C68717   5.512   3.227   7.310 -0.2705 -0.2844  0.6174
  510MOL0     O68718   5.476   3.362   7.296 -0.5046  0.5822  0.3900
  510MOL0     C68719   5.351   3.405   7.263 -0.3503 -0.0901 -0.7160
  510MOL0     C68720   5.246   3.327   7.204  0.3606 -0.5712 -0.2274
  510MOL0     C68721   5.113   3.372   7.194  0.4250 -0.4287 -0.1976
  510MOL0     C68722   5.071   3.492   7.246 -0.7757 -0.2121  0.0855
  510MOL0     O68723   4.938   3.525   7.254 -0.5295  0.2684 -0.1935
  510MOL0     C68724   4.842   3.464   7.173  0.4181 -0.4150  0.0482
  510MOL0     C68725   4.696   3.503   7.210  0.2058 -0.4027 -0.0495
  510MOL0     C68726   4.665   3.469   7.357  0.4825  0.5626  0.3666
  510MOL0     C68727   4.513   3.498   7.386  0.0602 -1.3386  0.0952
  510MOL0     C68728   4.480   3.454   7.522  0.5074  0.3106  0.1153
  510MOL0     C68729   4.359   3.526   7.578 -0.6897  0.6035  0.4243
  510MOL0     C68730   4.236   3.478   7.498  0.0617  0.2150 -0.0396
  510MOL0     C68731   4.201   3.572   7.383 -0.9824 -0.4478  0.7344
  510MOL0     N68732   4.070   3.537   7.343 -0.5099 -0.2545 -0.0975
  510MOL0     C68733   3.973   3.625   7.296 -0.2676  1.2100  0.4973
  510MOL0     C68734   3.861   3.544   7.274  0.0405 -0.3829  0.1303
  510MOL0     C68735   3.722   3.595   7.223  1.4258  0.2579  0.3257
  510MOL0     C68736   3.642   3.663   7.335 -0.4638  0.1585 -0.1130
  510MOL0     C68737   3.601   3.584   7.454  0.5892  0.3293 -0.3915
  510MOL0     C68738   3.523   3.454   7.445  0.3656 -0.7788  0.0799
  510MOL0     O68739   3.419   3.461   7.340 -0.3643 -0.2028  0.1901
  510MOL0     C68740   3.304   3.526   7.373  0.5332 -0.1502  0.3178
  510MOL0     C68741   3.205   3.547   7.272 -0.0740  0.2922  0.2345
  510MOL0     C68742   3.075   3.597   7.295  0.3962  0.9144  0.3960
  510MOL0     C68743   3.003   3.618   7.161  0.1891  0.1013 -0.7144
  510MOL0     C68744   3.040   3.636   7.419 -0.4583  0.6700 -0.0064
  510MOL0     C68745   2.915   3.711   7.459 -0.7510  0.2925  0.6638
  510MOL0     O68746   2.919   3.783   7.575 -0.6192  0.7802  0.5012
  510MOL0     C68747   2.803   3.837   7.623  0.0440  0.5636  0.0494
  510MOL0     C68748   2.693   3.885   7.546 -0.3716 -0.1194 -0.6866
  510MOL0     C68749   2.563   3.907   7.619  0.4993 -0.2170 -0.2130
  510MOL0     C68750   2.542   3.883   7.755 -0.5791  0.5133 -0.3069
  510MOL0     O68751   2.415   3.910   7.814 -0.3061 -0.2055 -0.5352
  510MOL0     C68752   2.396   3.872   7.946  0.6593 -0.5732 -0.7593
  510MOL0     C68753   2.363   3.725   7.958  0.4290 -1.4685 -0.2383
  510MOL0     C68754   2.248   3.672   7.880 -0.6383 -0.6433  0.4226
  510MOL0     C68755   2.218   3.529   7.908  0.2798  0.3292  0.7183
  510MOL0     C68756   2.084   3.490   7.850 -0.2389 -0.7480  0.9991
  510MOL0     C68757   2.083   3.463   7.699 -0.2708 -0.5376  0.8639
  510MOL0     C68758   1.945   3.425   7.645  0.2932 -0.1159  0.2652
  510MOL0     C68759   1.963   3.400   7.498  0.1745 -0.0664  0.4430
  510MOL0    Cl68760   2.030   3.542   7.410 -0.1497  0.1852  0.0359
  510MOL0     C68761   2.655   3.833   7.819  0.3613  0.7549 -0.1569
  510MOL0     C68762   2.778   3.820   7.758 -0.1315 -0.0765 -0.4546
  510MOL0     O68763   2.818   3.705   7.382 -0.1902 -0.2855 -0.1475
  510MOL0     C68764   3.137   3.621   7.523  0.4916 -0.0780  0.4899
  510MOL0     C68765   3.260   3.565   7.505 -0.3084  0.2295 -0.7522
  510MOL0     N68766   3.899   3.408   7.285  0.1757  0.1383 -0.1766
  510MOL0     N68767   4.024   3.406   7.323 -0.5651 -0.0494 -0.3290
  510MOL0     C68768   5.177   3.571   7.300  0.0800 -0.1354  0.3174
  510MOL0     C68769   5.307   3.529   7.311  0.2654 -0.4556 -0.4041
  510MOL0     C68770   5.656   3.188   7.310 -0.2707 -0.0788  1.0364
  510MOL0     C68771   5.756   3.266   7.376  0.2621  0.2589  0.0553
  510MOL0     C68772   5.896   3.227   7.385 -0.7986  0.3034 -0.4809
  510MOL0     C68773   5.927   3.110   7.317 -0.9737  0.1788  1.0613
  510MOL0     O68774   6.057   3.060   7.303 -0.0126 -0.6967 -0.0889
  510MOL0     C68775   6.168   3.109   7.386  0.0340 -0.8734  0.1264
  510MOL0     C68776   6.255   3.231   7.336 -0.1149  0.3020 -0.2221
  510MOL0     C68777   6.373   3.267   7.428 -0.4674  0.1185 -0.6769
  510MOL0     C68778   6.477   3.352   7.352  0.0936 -0.7604 -0.0975
  510MOL0     C68779   6.602   3.362   7.430  0.5204  0.0495  0.3132
  510MOL0     C68780   6.692   3.376   7.501 -0.8559  0.8520  0.5432
  510MOL0     C68781   5.825   3.022   7.264  0.5396  0.4722  0.8233
  510MOL0     C68782   5.690   3.058   7.265 -0.5959  0.0822 -0.1545
  510MOL0     H68783   5.271   3.228   7.165 -1.0779 -1.0199 -0.0478
  510MOL0     H68784   5.039   3.309   7.147  3.3177 -4.2314 -0.1567
  510MOL0     H68785   4.855   3.495   7.068 -2.6317 -3.1612 -1.3170
  510MOL0     H68786   4.848   3.356   7.185  3.2439 -0.1712  1.5443
  510MOL0     H68787   4.683   3.610   7.189  0.2566 -0.5950 -1.1319
  510MOL0     H68788   4.629   3.449   7.143 -0.9515  1.9851 -0.9301
  510MOL0     H68789   4.693   3.365   7.375  2.5626  1.2842  1.7622
  510MOL0     H68790   4.736   3.522   7.422  0.3152  2.0074 -0.5741
  510MOL0     H68791   4.500   3.606   7.376 -0.2241 -1.5512 -2.7900
  510MOL0     H68792   4.450   3.445   7.314 -0.0246 -1.5937  0.3576
  510MOL0     H68793   4.459   3.347   7.534  2.7067 -0.0971  0.7827
  510MOL0     H68794   4.566   3.474   7.587  2.6051 -1.4779 -1.9558
  510MOL0     H68795   4.352   3.514   7.687  0.1195  0.3930  0.4582
  510MOL0     H68796   4.372   3.634   7.568 -1.2439  0.6453  0.0926
  510MOL0     H68797   4.220   3.372   7.474  0.7290  0.4419 -1.6223
  510MOL0     H68798   4.165   3.487   7.580 -0.6769 -1.9029 -0.3706
  510MOL0     H68799   4.269   3.546   7.301  0.4160 -0.7928  1.9642
  510MOL0     H68800   4.218   3.679   7.400  0.8050  0.2365 -3.8483
  510MOL0     H68801   3.981   3.733   7.288 -0.2648  1.1869  0.1873
  510MOL0     H68802   3.735   3.677   7.151 -0.8023  1.4127  1.1482
  510MOL0     H68803   3.662   3.516   7.179 -1.2490  1.3249  1.8192
  510MOL0     H68804   3.550   3.706   7.292 -1.7180 -1.2365  1.0664
  510MOL0     H68805   3.706   3.746   7.366  0.4454 -0.6611  0.2247
  510MOL0     H68806   3.530   3.647   7.509 -1.6669 -0.5470 -2.1528
  510MOL0     H68807   3.675   3.559   7.530 -0.5526 -0.6743  0.4224
  510MOL0     H68808   3.490   3.421   7.545  0.3651 -0.2101  0.2680
  510MOL0     H68809   3.592   3.375   7.414  1.4595  0.6967 -1.3514
  510MOL0     H68810   3.237   3.512   7.174 -0.0324  0.2020  0.2795
  510MOL0     H68811   2.902   3.657   7.180 -0.2719 -0.8012 -1.2544
  510MOL0     H68812   3.053   3.688   7.094  1.3972 -1.1042 -1.0951
  510MOL0     H68813   2.976   3.523   7.115 -1.8832 -0.6105  1.7487
  510MOL0     H68814   2.706   3.906   7.440  2.9886 -0.5599 -0.4660
  510MOL0     H68815   2.478   3.947   7.563  0.0378 -1.2572 -0.2781
  510MOL0     H68816   2.475   3.908   8.012  0.7034 -0.7185 -0.7333
  510MOL0     H68817   2.311   3.924   7.991 -0.3732 -1.5596 -1.5097
  510MOL0     H68818   2.452   3.670   7.928  2.4262  1.7089 -0.5816
  510MOL0     H68819   2.345   3.723   8.066 -1.4622  1.0705 -0.4027
  510MOL0     H68820   2.278   3.675   7.775  0.2195  3.1565  0.6127
  510MOL0     H68821   2.158   3.734   7.885 -0.9235 -1.0994  1.0129
  510MOL0     H68822   2.296   3.461   7.873  0.2466 -1.6662  4.1125
  510MOL0     H68823   2.206   3.527   8.017 -1.0691  2.3798  0.6689
  510MOL0     H68824   2.012   3.567   7.880  1.8737  1.5243  0.5142
  510MOL0     H68825   2.058   3.394   7.896 -2.3072 -1.2751 -1.0283
  510MOL0     H68826   2.116   3.557   7.653  1.8849 -1.1349  1.1157
  510MOL0     H68827   2.157   3.384   7.683  2.3830  2.3814 -3.2903
  510MOL0     H68828   1.872   3.505   7.662 -2.5230 -2.5996  0.7005
  510MOL0     H68829   1.917   3.332   7.695  0.7014 -0.4549 -0.1296
  510MOL0     H68830   1.865   3.371   7.458  0.7024 -1.2401 -0.0181
  510MOL0     H68831   2.030   3.319   7.469 -0.8154 -0.7890  0.1420
  510MOL0     H68832   2.642   3.801   7.922  2.7989 -0.5966 -0.1959
  510MOL0     H68833   2.852   3.771   7.820 -2.8002 -0.0505  3.0276
  510MOL0     H68834   3.111   3.646   7.625  2.4157 -1.8710  1.5156
  510MOL0     H68835   3.325   3.563   7.592  2.0271 -1.1435 -2.4120
  510MOL0     H68836   5.173   3.672   7.340 -1.3774 -0.1783  0.3494
  510MOL0     H68837   5.380   3.592   7.362 -0.2165 -0.3965  0.2245
  510MOL0     H68838   5.721   3.356   7.424  1.2709  1.2711 -1.0382
  510MOL0     H68839   5.976   3.288   7.426  1.6379 -1.0067 -2.9408
  510MOL0     H68840   6.126   3.130   7.484  0.2078  3.5246 -0.5696
  510MOL0     H68841   6.246   3.034   7.403  1.2328  0.0724 -0.9398
  510MOL0     H68842   6.185   3.316   7.334  2.5716  2.7580  1.6121
  510MOL0     H68843   6.298   3.199   7.241 -0.5205 -2.5441  0.4746
  510MOL0     H68844   6.416   3.170   7.456 -0.9554  0.7297  2.6093
  510MOL0     H68845   6.340   3.314   7.521  1.9580  0.4359  0.1028
  510MOL0     H68846   6.444   3.456   7.349  2.1538  0.0178 -4.7249
  510MOL0     H68847   6.492   3.319   7.249 -3.6933 -1.2672 -0.6378
  510MOL0     H68848   6.747   3.400   7.589 -0.6211  0.2268  0.5697
  510MOL0     H68849   5.850   2.931   7.211  1.0251 -0.1899  2.1633
  510MOL0     H68850   5.624   2.983   7.224  1.4576 -1.1457 -1.3401
  511MOL0     O68851   7.945   9.801   3.258 -0.6563  0.0482 -0.5976
  511MOL0     C68852   7.905   9.723   3.172 -0.5661 -0.6280  0.4904
  511MOL0     O68853   7.948   9.608   3.146 -0.3523  0.5537 -0.3544
  511MOL0     C68854   8.048   9.558   3.233  0.1585 -0.3464  0.6164
  511MOL0     C68855   7.999   9.495   3.343 -0.3054 -0.2715 -0.4187
  511MOL0     C68856   8.086   9.429   3.437 -0.5042 -0.6069 -0.7813
  511MOL0     C68857   8.224   9.430   3.410  0.2208  0.4082 -0.7928
  511MOL0     O68858   8.317   9.385   3.498 -0.0322  0.0665  1.0522
  511MOL0     C68859   8.294   9.272   3.580 -0.5578  0.1647 -0.2145
  511MOL0     C68860   8.301   9.138   3.505 -1.0404 -0.0260 -0.3539
  511MOL0     C68861   8.438   9.085   3.462  0.4608 -1.0743  0.2071
  511MOL0     C68862   8.554   9.169   3.518  0.9599 -0.6805  0.1616
  511MOL0     C68863   8.690   9.122   3.465 -0.0855 -0.1909  0.1700
  511MOL0     C68864   8.727   8.978   3.516  0.5306  0.5567  0.6448
  511MOL0     C68865   8.875   8.943   3.500  0.2840  0.3267  0.4601
  511MOL0     C68866   8.931   8.865   3.621 -0.1539 -0.9850 -0.5012
  511MOL0     N68867   9.063   8.806   3.582 -0.1378 -0.3978  0.2695
  511MOL0     C68868   9.193   8.864   3.596 -0.3829 -0.3966  1.0412
  511MOL0     C68869   9.275   8.755   3.590  0.5385  0.1694  0.6196
  511MOL0     C68870   9.420   8.772   3.580 -0.1506  0.2816  0.7147
  511MOL0     C68871   9.491   8.670   3.476 -0.1678 -0.1610 -0.4694
  511MOL0     C68872   9.436   8.678   3.331 -0.9741  0.0633 -0.2278
  511MOL0     C68873   9.454   8.817   3.266  0.0137 -0.5411 -0.2108
  511MOL0     O68874   9.371   8.916   3.318 -0.2273 -0.2587  0.0183
  511MOL0     C68875   9.255   8.952   3.249 -0.6917 -0.3486  0.3487
  511MOL0     C68876   9.185   8.875   3.153 -0.2253 -0.1159  0.2146
  511MOL0     C68877   9.067   8.923   3.098  0.0138  0.4928  0.1381
  511MOL0     C68878   8.998   8.837   2.993  0.3514 -0.3797 -0.4145
  511MOL0     C68879   9.001   9.043   3.144  0.4661 -0.7357 -0.0914
  511MOL0     C68880   8.857   9.079   3.117  0.0181  0.5347 -0.1730
  511MOL0     O68881   8.829   9.207   3.094  0.1970  1.0636  0.1637
  511MOL0     C68882   8.708   9.238   3.040  0.1151  0.2630 -0.7466
  511MOL0     C68883   8.603   9.269   3.131 -0.0316 -0.7918 -0.0159
  511MOL0     C68884   8.478   9.306   3.076  0.0228 -1.0160 -0.2591
  511MOL0     C68885   8.447   9.301   2.941 -1.1319  0.6028  0.6183
  511MOL0     O68886   8.326   9.323   2.878 -0.0394 -0.5929 -0.1396
  511MOL0     C68887   8.193   9.288   2.948 -0.5205 -0.2727 -0.4715
  511MOL0     C68888   8.078   9.312   2.855  0.7190  0.3922  0.2756
  511MOL0     C68889   7.934   9.281   2.910 -0.4471 -0.7548 -0.0829
  511MOL0     C68890   7.822   9.292   2.802 -0.3191 -0.0025 -0.1211
  511MOL0     C68891   7.686   9.240   2.851  0.0490  0.2446 -0.1519
  511MOL0     C68892   7.608   9.174   2.735  0.5051 -0.9492  0.3262
  511MOL0     C68893   7.460   9.131   2.765  0.1431 -0.0412 -0.2524
  511MOL0     C68894   7.373   9.256   2.756  0.8424  1.0641 -0.0587
  511MOL0    Cl68895   7.215   9.181   2.800 -0.0235 -0.3587  0.2292
  511MOL0     C68896   8.552   9.271   2.851 -0.0273 -0.4247 -0.4167
  511MOL0     C68897   8.680   9.227   2.900 -0.1352 -0.7302  0.0342
  511MOL0     O68898   8.784   8.983   3.111  0.1825  0.0918  0.6935
  511MOL0     C68899   9.070   9.121   3.230  0.3837  0.1658  0.0745
  511MOL0     C68900   9.197   9.074   3.286  0.1325  0.9746 -0.4824
  511MOL0     N68901   9.200   8.638   3.580  0.1792 -0.4025 -0.7256
  511MOL0     N68902   9.069   8.671   3.576  0.0311 -0.3574  0.3751
  511MOL0     C68903   8.272   9.500   3.302 -0.4069  0.2971  0.1747
  511MOL0     C68904   8.181   9.564   3.212  0.0558 -0.1751 -0.9706
  511MOL0     C68905   7.799   9.759   3.077 -0.4947  0.0572 -0.2875
  511MOL0     C68906   7.774   9.888   3.019  0.2950  0.0229  0.7951
  511MOL0     C68907   7.687   9.889   2.907  1.2893 -0.9367  0.0866
  511MOL0     C68908   7.598   9.784   2.873 -0.1616  0.7168 -0.7244
  511MOL0     O68909   7.493   9.763   2.780 -0.0038 -0.2274  0.1441
  511MOL0     C68910   7.464   9.866   2.679  1.0478 -0.3540  0.3143
  511MOL0     C68911   7.354   9.961   2.713  0.1654 -0.1069  0.0273
  511MOL0     C68912   7.347  10.063   2.602  0.0455 -0.6602 -0.7799
  511MOL0     C68913   7.269  10.182   2.662  0.0900  0.6304 -0.0480
  511MOL0     C68914   7.271  10.287   2.573 -0.7611 -0.7600  0.2069
  511MOL0     C68915   7.287  10.371   2.483 -0.2234 -0.8592  0.4969
  511MOL0     C68916   7.612   9.672   2.949 -0.2452 -1.1677  0.7784
  511MOL0     C68917   7.714   9.652   3.044  0.1465  0.1542 -0.4336
  511MOL0     H68918   7.892   9.494   3.362 -0.3827 -0.2725 -0.8434
  511MOL0     H68919   8.041   9.369   3.515  1.3866  1.1054  1.7825
  511MOL0     H68920   8.361   9.288   3.665 -0.1146  0.2530 -0.5754
  511MOL0     H68921   8.193   9.277   3.622 -1.1600  0.1484 -1.6103
  511MOL0     H68922   8.273   9.063   3.579  6.0872 -1.0978  2.0333
  511MOL0     H68923   8.222   9.140   3.429 -1.4457  0.5761  0.0725
  511MOL0     H68924   8.447   8.982   3.496 -1.4286 -2.0631 -2.0231
  511MOL0     H68925   8.445   9.078   3.353  0.3498 -0.1894  0.1305
  511MOL0     H68926   8.544   9.275   3.491 -1.1375 -0.1142  2.6428
  511MOL0     H68927   8.550   9.166   3.628 -1.8756  0.8385  0.2038
  511MOL0     H68928   8.695   9.125   3.356  0.9500  2.8573  0.2030
  511MOL0     H68929   8.766   9.188   3.507 -1.3822 -0.2327  2.7936
  511MOL0     H68930   8.693   8.968   3.619 -3.2602  0.4998 -0.4501
  511MOL0     H68931   8.669   8.910   3.452 -0.0250  2.7287 -1.2977
  511MOL0     H68932   8.878   8.894   3.402  0.9966 -2.0486  1.5912
  511MOL0     H68933   8.943   9.028   3.488 -1.3264  1.6872  0.6928
  511MOL0     H68934   8.869   8.777   3.639 -0.5634 -0.7854 -0.9311
  511MOL0     H68935   8.930   8.930   3.709  1.4266  1.4603 -2.1536
  511MOL0     H68936   9.219   8.970   3.601  1.9952 -0.8859  0.1540
  511MOL0     H68937   9.442   8.875   3.553  1.0566 -0.3004 -0.6171
  511MOL0     H68938   9.457   8.754   3.682  1.4045 -0.2253  0.0900
  511MOL0     H68939   9.495   8.567   3.511 -0.4575  0.5100  1.6613
  511MOL0     H68940   9.595   8.705   3.469 -0.7700  1.9310  0.2099
  511MOL0     H68941   9.332   8.642   3.332 -1.6367  1.9020 -0.4546
  511MOL0     H68942   9.494   8.602   3.277  1.1371 -1.2571  3.4906
  511MOL0     H68943   9.447   8.806   3.157  2.3267 -0.7596 -0.3738
  511MOL0     H68944   9.554   8.847   3.297 -0.1342 -0.0695 -0.1838
  511MOL0     H68945   9.223   8.782   3.112 -2.0149  0.0856 -2.0787
  511MOL0     H68946   8.907   8.790   3.031  0.1361 -0.0373 -0.4953
  511MOL0     H68947   8.968   8.895   2.905  0.3205 -1.9220 -1.4620
  511MOL0     H68948   9.055   8.751   2.957 -2.6730 -1.1965 -3.9526
  511MOL0     H68949   8.616   9.287   3.237  0.0617 -0.0905 -0.1467
  511MOL0     H68950   8.401   9.330   3.149 -0.3137  2.2382 -1.5009
  511MOL0     H68951   8.194   9.181   2.973  3.6405 -0.5539 -1.0057
  511MOL0     H68952   8.199   9.349   3.039  0.9667  1.7525 -1.8546
  511MOL0     H68953   8.075   9.419   2.831 -1.5424  0.3873  0.2653
  511MOL0     H68954   8.094   9.257   2.762 -1.0152  1.8523 -0.9557
  511MOL0     H68955   7.909   9.359   2.983  1.4123 -1.3939  1.3054
  511MOL0     H68956   7.932   9.184   2.961  0.8340  0.1005  1.7033
  511MOL0     H68957   7.805   9.390   2.757 -3.6460 -0.2064  0.4880
  511MOL0     H68958   7.855   9.228   2.720 -2.9487 -0.8671 -0.5672
  511MOL0     H68959   7.634   9.319   2.906 -0.2737 -0.1954  0.1825
  511MOL0     H68960   7.719   9.160   2.917  2.0384  0.3855 -0.9192
  511MOL0     H68961   7.598   9.236   2.645 -1.6364 -1.5817  0.0604
  511MOL0     H68962   7.668   9.085   2.715 -0.9287 -1.8844  0.0381
  511MOL0     H68963   7.466   9.105   2.871  0.4541  0.5902 -0.1144
  511MOL0     H68964   7.419   9.051   2.702 -2.4023 -0.7552  2.1040
  511MOL0     H68965   7.362   9.291   2.653  2.3514  0.7189 -0.3609
  511MOL0     H68966   7.397   9.342   2.820  0.6939  0.7019  0.4908
  511MOL0     H68967   8.537   9.262   2.744  0.9595  1.8453 -0.7951
  511MOL0     H68968   8.764   9.199   2.837  1.4730 -0.5518  2.0255
  511MOL0     H68969   9.012   9.204   3.269  0.4423 -0.0843  0.6930
  511MOL0     H68970   9.254   9.134   3.356 -0.3362 -0.2194  0.9848
  511MOL0     H68971   8.377   9.529   3.301 -0.2119 -0.3790  0.0294
  511MOL0     H68972   8.230   9.603   3.124  1.4344  0.1061 -0.0988
  511MOL0     H68973   7.833   9.977   3.038  2.8285 -1.0823 -1.2386
  511MOL0     H68974   7.663   9.976   2.848  2.4890 -2.1515 -2.3627
  511MOL0     H68975   7.557   9.922   2.664  0.6916  0.1163 -0.1793
  511MOL0     H68976   7.442   9.813   2.587  1.8475 -0.1423 -0.0104
  511MOL0     H68977   7.364  10.014   2.808 -2.7287  1.9597 -0.6775
  511MOL0     H68978   7.260   9.905   2.716  0.4275 -0.5409  0.4757
  511MOL0     H68979   7.295  10.029   2.513  3.4865  2.8922 -4.5942
  511MOL0     H68980   7.447  10.100   2.578  0.2146  0.4444  1.3583
  511MOL0     H68981   7.314  10.225   2.752 -1.6946  3.8821 -0.5414
  511MOL0     H68982   7.167  10.152   2.686  0.0334  2.0648  1.7168
  511MOL0     H68983   7.279  10.449   2.410 -0.4680 -2.5758 -1.3864
  511MOL0     H68984   7.546   9.588   2.932 -0.5926 -1.1244  1.8138
  511MOL0     H68985   7.732   9.554   3.087 -0.3152 -0.3191 -1.2944
  512MOL0     O68986   2.099   4.277   3.100 -0.3354 -0.0617 -0.0711
  512MOL0     C68987   2.006   4.236   3.038  0.7308 -0.3502  0.4730
  512MOL0     O68988   1.935   4.306   2.937  0.0556  0.0733 -0.1850
  512MOL0     C68989   1.959   4.437   2.906  0.7450 -0.0062 -0.0794
  512MOL0     C68990   2.000   4.468   2.772  0.1598  1.3904 -0.5233
  512MOL0     C68991   2.029   4.598   2.737  0.0261 -0.5730  0.0269
  512MOL0     C68992   2.000   4.699   2.829 -0.6434 -0.9797  0.0266
  512MOL0     O68993   2.010   4.827   2.796  0.0797 -0.0809 -0.1251
  512MOL0     C68994   2.122   4.882   2.722  0.6127 -0.2752 -1.0467
  512MOL0     C68995   2.199   4.970   2.819 -0.2653  0.1424 -0.7277
  512MOL0     C68996   2.312   5.043   2.742 -0.0728  0.1070  0.1996
  512MOL0     C68997   2.384   5.142   2.827 -0.1297  0.3090  0.5514
  512MOL0     C68998   2.309   5.273   2.831 -1.0664 -0.5710  1.1351
  512MOL0     C68999   2.337   5.359   2.704 -0.3896  1.4347  0.2569
  512MOL0     C69000   2.226   5.464   2.681 -0.0850 -0.3008 -0.6632
  512MOL0     C69001   2.237   5.566   2.567  0.0383 -0.1062  0.3642
  512MOL0     N69002   2.208   5.500   2.438 -0.4836  0.1369  1.2137
  512MOL0     C69003   2.306   5.435   2.363 -0.1965 -0.5649 -0.6591
  512MOL0     C69004   2.249   5.422   2.243  1.2888 -1.0230 -0.2360
  512MOL0     C69005   2.304   5.367   2.109 -0.4595 -0.2381  0.3863
  512MOL0     C69006   2.380   5.478   2.032  0.3637  0.3182 -0.2542
  512MOL0     C69007   2.439   5.405   1.914 -0.9886  0.7413 -1.1839
  512MOL0     C69008   2.513   5.508   1.827 -0.2389 -0.0477 -0.3467
  512MOL0     O69009   2.627   5.564   1.890 -0.6240 -0.3446 -0.7031
  512MOL0     C69010   2.743   5.500   1.902  0.2664  0.0858  0.1445
  512MOL0     C69011   2.828   5.520   2.010 -0.8511 -0.1013  0.3409
  512MOL0     C69012   2.949   5.455   2.023  0.2860  0.2146 -0.1167
  512MOL0     C69013   3.000   5.477   2.174  0.2879 -0.2678  0.3542
  512MOL0     C69014   2.995   5.365   1.922  0.2292 -0.2502 -0.3610
  512MOL0     C69015   3.116   5.286   1.943  1.1696 -0.2015  0.3859
  512MOL0     O69016   3.160   5.227   1.823 -0.6218  0.5217 -0.0682
  512MOL0     C69017   3.274   5.152   1.818 -1.2258 -0.3248  0.0443
  512MOL0     C69018   3.372   5.193   1.725  0.1763  1.3940  0.2901
  512MOL0     C69019   3.487   5.121   1.716 -0.5878  0.5779 -0.1188
  512MOL0     C69020   3.516   5.015   1.802  0.8072  0.6712 -0.1737
  512MOL0     O69021   3.640   4.976   1.791 -1.3093  0.0960 -0.0372
  512MOL0     C69022   3.661   4.834   1.784 -0.4418 -0.5799  0.3751
  512MOL0     C69023   3.803   4.801   1.719 -0.6435 -0.5122  0.5917
  512MOL0     C69024   3.789   4.812   1.569 -0.1814 -0.8651 -0.1037
  512MOL0     C69025   3.929   4.788   1.511 -0.5520  0.3708 -1.1164
  512MOL0     C69026   3.927   4.756   1.364  0.5109  0.1047 -0.8206
  512MOL0     C69027   3.851   4.845   1.272 -0.5707 -0.8753 -0.4606
  512MOL0     C69028   3.866   4.787   1.126  0.0379 -0.0295 -1.0865
  512MOL0     C69029   3.788   4.870   1.026  0.1323 -0.8452 -1.1200
  512MOL0    Cl69030   3.803   4.798   0.854  0.1844 -0.3962  0.1921
  512MOL0     C69031   3.413   4.975   1.883  0.4846  0.5216 -0.8899
  512MOL0     C69032   3.288   5.032   1.892  0.7755  0.5995  0.5282
  512MOL0     O69033   3.186   5.284   2.046 -0.6418 -0.2580 -0.0220
  512MOL0     C69034   2.904   5.343   1.814 -0.6493  0.3073 -0.5320
  512MOL0     C69035   2.786   5.410   1.802 -0.3314 -0.0347 -0.6873
  512MOL0     N69036   2.125   5.485   2.246 -0.5830  1.7418 -0.1964
  512MOL0     N69037   2.103   5.525   2.366  0.5918 -0.0388 -0.2271
  512MOL0     C69038   1.966   4.667   2.960  0.1402 -0.3690  0.0490
  512MOL0     C69039   1.946   4.534   3.000 -0.2417 -0.0339  0.1974
  512MOL0     C69040   1.978   4.099   3.067 -0.2317  1.7892 -0.5796
  512MOL0     C69041   1.878   4.034   2.982 -0.2026 -0.5308 -0.3235
  512MOL0     C69042   1.846   3.895   2.997 -0.1883  0.2742  0.3903
  512MOL0     C69043   1.902   3.821   3.104  0.9642  0.4353  0.5240
  512MOL0     O69044   1.870   3.691   3.121  0.5231  0.3735 -0.1772
  512MOL0     C69045   1.783   3.623   3.024  0.0423 -0.9611  0.6217
  512MOL0     C69046   1.646   3.619   3.086 -0.4947  0.5308  0.2259
  512MOL0     C69047   1.553   3.508   3.017 -0.7134  0.1432 -0.0448
  512MOL0     C69048   1.406   3.511   3.062 -0.2175 -0.0304 -0.1418
  512MOL0     C69049   1.328   3.409   2.992 -0.1477 -0.3434  0.3546
  512MOL0     C69050   1.245   3.341   2.939  0.6123  0.2934 -0.1050
  512MOL0     C69051   1.998   3.877   3.182 -0.1070 -0.1387  0.6144
  512MOL0     C69052   2.040   4.010   3.162 -0.5391 -0.2909  0.4258
  512MOL0     H69053   2.006   4.384   2.704  0.2046 -1.1244  2.3462
  512MOL0     H69054   2.048   4.616   2.632  1.9202  3.8580  0.9149
  512MOL0     H69055   2.187   4.802   2.685  0.0650 -0.2718 -2.0547
  512MOL0     H69056   2.091   4.947   2.640  1.6570  1.0880 -0.3902
  512MOL0     H69057   2.143   5.050   2.869 -1.7124  0.5381 -2.8674
  512MOL0     H69058   2.236   4.903   2.897 -1.5412  1.9969  1.6069
  512MOL0     H69059   2.381   4.976   2.691 -0.7558  1.7949 -3.1953
  512MOL0     H69060   2.264   5.094   2.658  0.7640  1.8499  0.7438
  512MOL0     H69061   2.379   5.107   2.930 -1.9095 -0.5142  0.2184
  512MOL0     H69062   2.486   5.163   2.792 -0.7618  0.7139 -1.1879
  512MOL0     H69063   2.203   5.247   2.840 -1.5642  0.2509 -1.3720
  512MOL0     H69064   2.352   5.325   2.917 -0.7021  1.3526 -0.1397
  512MOL0     H69065   2.439   5.397   2.717  0.5625 -1.5224  2.3969
  512MOL0     H69066   2.334   5.289   2.620 -1.8045  2.1767 -0.3520
  512MOL0     H69067   2.133   5.405   2.674 -0.3054 -0.0666  0.2182
  512MOL0     H69068   2.222   5.506   2.782 -0.9204 -1.1924 -0.3090
  512MOL0     H69069   2.331   5.622   2.564 -0.4280  0.7546 -3.5976
  512MOL0     H69070   2.166   5.647   2.584 -0.3444 -1.0402  4.3729
  512MOL0     H69071   2.408   5.407   2.385 -0.0255 -1.0565 -1.9695
  512MOL0     H69072   2.373   5.286   2.134 -0.7326 -1.2834 -1.9352
  512MOL0     H69073   2.215   5.343   2.050 -1.9092  1.2717  1.9003
  512MOL0     H69074   2.452   5.518   2.104 -1.1255 -0.6563  1.8755
  512MOL0     H69075   2.308   5.553   1.998  3.5228  3.7082 -0.1261
  512MOL0     H69076   2.370   5.342   1.857  0.9522 -4.9061  1.9515
  512MOL0     H69077   2.512   5.330   1.948 -0.3767  0.5961 -2.7503
  512MOL0     H69078   2.448   5.592   1.799  1.1413  1.7164  1.4386
  512MOL0     H69079   2.530   5.458   1.731  1.9665 -0.7739  0.3674
  512MOL0     H69080   2.792   5.582   2.091 -0.7779 -0.9542  1.0412
  512MOL0     H69081   2.991   5.583   2.196  2.4111  0.2512 -0.9534
  512MOL0     H69082   2.940   5.417   2.243  0.0169 -2.0298 -1.3170
  512MOL0     H69083   3.107   5.455   2.185 -0.0667 -3.0245 -0.7683
  512MOL0     H69084   3.350   5.280   1.664  0.2842  2.5286  1.8067
  512MOL0     H69085   3.564   5.165   1.654 -0.0105 -1.9115 -1.3064
  512MOL0     H69086   3.672   4.794   1.885 -0.9454  1.1289  1.1451
  512MOL0     H69087   3.584   4.783   1.725 -0.2372 -1.2620  0.6884
  512MOL0     H69088   3.875   4.876   1.756  1.5642 -1.7535 -0.9408
  512MOL0     H69089   3.831   4.698   1.740 -0.8496 -0.8430 -0.6677
  512MOL0     H69090   3.751   4.906   1.528  0.9238 -0.4562 -0.2204
  512MOL0     H69091   3.715   4.741   1.531 -0.1049 -0.8531 -0.2795
  512MOL0     H69092   4.008   4.861   1.533 -0.4089 -0.4373  1.3005
  512MOL0     H69093   3.962   4.701   1.568 -2.7258 -1.0633 -1.9496
  512MOL0     H69094   3.879   4.658   1.351  1.7132 -0.4890 -0.8543
  512MOL0     H69095   4.033   4.770   1.342  0.9332 -1.1931  0.2777
  512MOL0     H69096   3.748   4.852   1.308 -0.6435  1.8766 -0.9236
  512MOL0     H69097   3.895   4.945   1.277  2.2682 -2.0204 -0.6369
  512MOL0     H69098   3.838   4.682   1.123  1.3229 -0.4072 -0.6162
  512MOL0     H69099   3.972   4.800   1.101 -0.6832  3.2480 -3.0389
  512MOL0     H69100   3.838   4.967   1.031  2.0960 -1.8507 -0.1531
  512MOL0     H69101   3.683   4.870   1.057  0.0316  0.5948 -1.3994
  512MOL0     H69102   3.428   4.895   1.954 -4.7947 -0.1540 -0.1549
  512MOL0     H69103   3.209   5.017   1.964 -0.3134  1.7238 -0.3832
  512MOL0     H69104   2.937   5.275   1.735  0.5048 -2.0481  1.8279
  512MOL0     H69105   2.722   5.393   1.715 -0.1908  0.9531 -0.9916
  512MOL0     H69106   1.940   4.725   3.048  0.3276 -3.5308  2.3613
  512MOL0     H69107   1.938   4.510   3.105  3.1185  1.2855  0.9000
  512MOL0     H69108   1.825   4.087   2.904  1.5577  2.2840  0.2477
  512MOL0     H69109   1.765   3.868   2.931  0.8428  1.6693 -1.5555
  512MOL0     H69110   1.809   3.659   2.924  3.0961 -0.3229  1.5516
  512MOL0     H69111   1.815   3.519   3.017 -0.3672 -0.9915 -1.9026
  512MOL0     H69112   1.595   3.715   3.075 -0.9002  0.6425  2.5768
  512MOL0     H69113   1.647   3.590   3.191 -0.3777 -1.3714 -0.2615
  512MOL0     H69114   1.594   3.411   3.047 -4.2988 -2.1416 -1.7742
  512MOL0     H69115   1.558   3.514   2.908  0.4193  4.5330  0.0651
  512MOL0     H69116   1.390   3.614   3.028  1.7017  0.7644  1.1910
  512MOL0     H69117   1.394   3.490   3.168  2.3963 -3.7903 -0.4177
  512MOL0     H69118   1.165   3.297   2.883 -0.4795  2.0832 -0.0548
  512MOL0     H69119   2.062   3.826   3.253 -0.1673 -0.4377  0.4570
  512MOL0     H69120   2.118   4.064   3.215 -2.7684  1.6026  2.0264
  513MOL0     O69121   9.522   9.127  10.981  0.7406  0.2319  0.4793
  513MOL0     C69122   9.442   9.079  11.056  0.4823 -0.1408 -0.1183
  513MOL0     O69123   9.476   9.030  11.181 -0.0995  0.6413 -0.5976
  513MOL0     C69124   9.608   9.015  11.218 -0.3654  0.6785  0.6142
  513MOL0     C69125   9.658   9.079  11.328  0.0794  0.1484 -0.0533
  513MOL0     C69126   9.787   9.057  11.374 -0.7846 -0.5692 -0.2235
  513MOL0     C69127   9.883   8.980  11.297  0.3757 -0.5080 -0.4374
  513MOL0     O69128  10.006   8.949  11.341 -0.3078 -0.0815  0.4691
  513MOL0     C69129  10.039   9.002  11.469 -0.3202  0.7535 -0.1894
  513MOL0     C69130  10.176   8.942  11.501 -0.0648 -0.3879 -0.0301
  513MOL0     C69131  10.269   9.006  11.612 -0.5805 -0.4882 -0.1658
  513MOL0     C69132  10.254   9.160  11.626  0.0732  0.4222 -0.1264
  513MOL0     C69133  10.391   9.214  11.645 -0.4013 -0.6322 -0.2227
  513MOL0     C69134  10.388   9.369  11.646  0.3120 -0.1521  0.2915
  513MOL0     C69135  10.521   9.425  11.690  0.9035 -0.0931  0.1977
  513MOL0     C69136  10.552   9.565  11.653  0.5075 -1.0062  0.1116
  513MOL0     N69137  10.453   9.656  11.715  0.3301  0.0810  0.9974
  513MOL0     C69138  10.372   9.744  11.648 -0.5716  0.1868 -0.0812
  513MOL0     C69139  10.320   9.829  11.754  0.5790 -0.3352  0.8814
  513MOL0     C69140  10.232   9.953  11.722  0.3019 -1.1249 -0.6179
  513MOL0     C69141  10.257  10.076  11.818  0.9642  0.1184  0.0957
  513MOL0     C69142  10.210  10.202  11.752  0.0299 -0.6481 -0.1270
  513MOL0     C69143  10.234  10.318  11.846  1.0444  0.3771 -0.0091
  513MOL0     O69144  10.381  10.331  11.862 -0.0085  0.1781  0.3235
  513MOL0     C69145  10.431  10.386  11.977 -0.6025 -0.0716  0.5578
  513MOL0     C69146  10.378  10.500  12.043  0.1537  0.5104  0.0706
  513MOL0     C69147  10.428  10.552  12.164 -0.2140 -0.1086  0.8764
  513MOL0     C69148  10.353  10.653  12.240 -0.7814 -0.3263  0.3175
  513MOL0     C69149  10.537  10.476  12.218  0.6386  0.7007  0.8487
  513MOL0     C69150  10.589  10.515  12.353 -0.7073 -0.0106 -0.1786
  513MOL0     O69151  10.665  10.416  12.414 -0.3420 -0.0057 -0.3746
  513MOL0     C69152  10.766  10.441  12.503 -0.7354  0.6066  0.0845
  513MOL0     C69153  10.763  10.383  12.626  1.2004  1.0517 -0.4369
  513MOL0     C69154  10.857  10.411  12.717 -0.0442 -0.4998 -0.7702
  513MOL0     C69155  10.951  10.508  12.693 -0.5629  0.5100  0.3925
  513MOL0     O69156  11.027  10.544  12.798 -0.3136 -0.0761  0.8599
  513MOL0     C69157  11.085  10.675  12.797  0.2313  0.4489  0.0206
  513MOL0     C69158  11.139  10.710  12.936 -0.5535 -0.4909  0.5454
  513MOL0     C69159  11.223  10.842  12.936 -0.7885  0.2626 -0.0488
  513MOL0     C69160  11.370  10.817  12.891 -0.1789 -0.4409  0.0702
  513MOL0     C69161  11.443  10.952  12.928 -0.3200 -0.5021  0.6781
  513MOL0     C69162  11.594  10.937  12.884 -0.4152  0.3401 -0.5272
  513MOL0     C69163  11.671  11.068  12.878  0.1003  0.4782  0.2115
  513MOL0     C69164  11.816  11.055  12.827 -0.1817 -0.4558 -0.3622
  513MOL0    Cl69165  11.818  11.049  12.648 -0.1259 -0.2447  0.2100
  513MOL0     C69166  10.949  10.572  12.571  0.0060  0.4176  0.4422
  513MOL0     C69167  10.861  10.536  12.471  0.7784 -0.1663 -0.4986
  513MOL0     O69168  10.591  10.629  12.385 -0.4841 -0.1053 -0.0007
  513MOL0     C69169  10.593  10.378  12.144  0.3408  0.4555  0.4213
  513MOL0     C69170  10.544  10.322  12.030  0.0444  0.8039 -0.7545
  513MOL0     N69171  10.349   9.767  11.872 -0.2710  0.4191  0.2699
  513MOL0     N69172  10.441   9.674  11.849  0.1363  0.2163 -0.2239
  513MOL0     C69173   9.831   8.922  11.182 -1.1827  0.7402  0.4087
  513MOL0     C69174   9.694   8.935  11.143  0.3671  1.1229  0.1609
  513MOL0     C69175   9.297   9.079  11.009  0.3113  0.2451 -0.0965
  513MOL0     C69176   9.205   9.005  11.082 -0.4976 -0.7333 -0.3651
  513MOL0     C69177   9.068   9.022  11.051 -0.6473 -0.3530 -0.2386
  513MOL0     C69178   9.022   9.098  10.945  0.2913  0.3388 -0.4179
  513MOL0     O69179   8.887   9.100  10.930 -0.4471 -0.6398  0.8368
  513MOL0     C69180   8.820   9.124  10.808 -0.8273 -0.1698 -0.6382
  513MOL0     C69181   8.667   9.159  10.833 -0.2785 -0.2532  0.7655
  513MOL0     C69182   8.586   9.163  10.699 -0.7293 -0.4993  0.8492
  513MOL0     C69183   8.626   9.280  10.616  0.8898  0.4854  0.5511
  513MOL0     C69184   8.745   9.259  10.529 -0.1761 -0.7282  0.6726
  513MOL0     C69185   8.842   9.249  10.460 -0.0535  0.4821  0.3466
  513MOL0     C69186   9.114   9.170  10.867 -0.2699 -0.5143 -0.1295
  513MOL0     C69187   9.251   9.163  10.895 -0.3764  0.3349 -0.5902
  513MOL0     H69188   9.612   9.156  11.389  0.5368 -0.8727  1.6307
  513MOL0     H69189   9.810   9.105  11.469  4.8157 -1.1757 -0.8991
  513MOL0     H69190  10.050   9.110  11.456 -0.8620  1.1093  1.9091
  513MOL0     H69191   9.959   8.965  11.535  1.7535 -2.2965  0.8784
  513MOL0     H69192  10.162   8.835  11.521  1.1016 -0.7495 -1.0205
  513MOL0     H69193  10.233   8.951  11.408  0.5479 -0.1937  0.3612
  513MOL0     H69194  10.238   8.960  11.707 -0.7583  0.2264  0.1246
  513MOL0     H69195  10.376   8.987  11.597 -0.3347  0.3595  0.4392
  513MOL0     H69196  10.210   9.197  11.533 -1.8590 -3.2264 -0.8550
  513MOL0     H69197  10.179   9.172  11.704 -0.0374 -0.3098 -0.1142
  513MOL0     H69198  10.426   9.191  11.746 -0.5454  3.3886  0.8745
  513MOL0     H69199  10.457   9.180  11.565  0.4943 -0.2105  0.3266
  513MOL0     H69200  10.367   9.416  11.549  1.8912 -1.0922 -0.5496
  513MOL0     H69201  10.310   9.407  11.712 -1.2019  1.2154 -2.1501
  513MOL0     H69202  10.529   9.424  11.799 -0.7281  1.6637  0.3720
  513MOL0     H69203  10.601   9.367  11.643 -1.1849  0.7852 -5.1174
  513MOL0     H69204  10.548   9.583  11.546 -0.8061  3.4251  0.7217
  513MOL0     H69205  10.654   9.587  11.687  0.7178 -3.0401  0.9630
  513MOL0     H69206  10.355   9.766  11.543 -3.1096  0.8448  0.3909
  513MOL0     H69207  10.263   9.991  11.624 -3.8222 -0.6963 -1.9380
  513MOL0     H69208  10.126   9.929  11.711 -0.1443  0.6595 -0.4976
  513MOL0     H69209  10.365  10.079  11.836  0.7883  0.3009  1.1903
  513MOL0     H69210  10.209  10.058  11.915  0.2909 -0.7649 -0.3845
  513MOL0     H69211  10.108  10.202  11.712  0.6551  2.5874 -2.0946
  513MOL0     H69212  10.282  10.226  11.673  2.3122  0.3262  2.1072
  513MOL0     H69213  10.180  10.302  11.941 -0.4133  1.4058 -0.6216
  513MOL0     H69214  10.183  10.411  11.819  0.0993 -0.0428  0.2490
  513MOL0     H69215  10.291  10.544  11.996  1.0320 -1.1873 -3.5615
  513MOL0     H69216  10.362  10.650  12.349  0.7725  0.0543  0.2155
  513MOL0     H69217  10.402  10.749  12.222  2.7069 -1.4351  2.7539
  513MOL0     H69218  10.248  10.647  12.210 -0.2917 -0.7539 -1.4252
  513MOL0     H69219  10.689  10.306  12.644 -0.1026  2.0019 -1.4712
  513MOL0     H69220  10.853  10.370  12.817 -0.3945  3.1233  0.8658
  513MOL0     H69221  11.163  10.686  12.721 -0.6684 -0.6000 -1.1162
  513MOL0     H69222  11.002  10.743  12.775 -0.8812  0.4379  3.6155
  513MOL0     H69223  11.047  10.716  12.995 -1.4239  0.9295 -0.8613
  513MOL0     H69224  11.211  10.645  12.985 -1.3577 -0.3339  1.9808
  513MOL0     H69225  11.221  10.886  13.036  4.0472 -2.5682  1.6590
  513MOL0     H69226  11.186  10.911  12.860  2.5521  0.1175 -2.0018
  513MOL0     H69227  11.413  10.724  12.928  1.2917  0.2310  0.1286
  513MOL0     H69228  11.370  10.806  12.782  1.1690 -2.0335  0.1971
  513MOL0     H69229  11.438  10.980  13.034 -4.8427  2.0601  0.0477
  513MOL0     H69230  11.403  11.035  12.869 -0.5403 -1.4149 -0.4882
  513MOL0     H69231  11.650  10.884  12.961 -0.6780 -0.8018 -1.1119
  513MOL0     H69232  11.604  10.889  12.787 -3.6262 -0.2590 -0.6674
  513MOL0     H69233  11.662  11.107  12.979 -1.1760 -4.0666  2.0939
  513MOL0     H69234  11.604  11.124  12.811 -0.6177 -0.3252  0.2453
  513MOL0     H69235  11.874  10.979  12.880  2.6227  1.7332 -0.0576
  513MOL0     H69236  11.875  11.139  12.865 -0.4160 -0.0318 -0.9257
  513MOL0     H69237  11.024  10.643  12.536  0.1085 -0.5212 -1.3629
  513MOL0     H69238  10.868  10.583  12.373 -0.1622 -0.6753 -0.8196
  513MOL0     H69239  10.687  10.349  12.190  0.2946  1.1560  0.9804
  513MOL0     H69240  10.584  10.237  11.976 -0.8821  0.3254 -0.7153
  513MOL0     H69241   9.904   8.855  11.139  0.7786  0.0553  4.2904
  513MOL0     H69242   9.656   8.875  11.061  0.5070 -0.9687  1.5602
  513MOL0     H69243   9.218   8.944  11.171 -0.0879  0.2993  0.3121
  513MOL0     H69244   8.985   8.978  11.107 -1.7283 -2.3229 -3.1518
  513MOL0     H69245   8.862   9.211  10.757 -0.2088  0.0065  0.1421
  513MOL0     H69246   8.835   9.038  10.742 -0.9601 -1.0810  0.4933
  513MOL0     H69247   8.675   9.255  10.884  1.6726 -0.3265  0.6687
  513MOL0     H69248   8.628   9.091  10.909  1.2922 -2.2426 -0.1234
  513MOL0     H69249   8.477   9.171  10.712 -0.7403 -0.0513  0.5096
  513MOL0     H69250   8.606   9.073  10.640 -0.1245 -1.0352  1.8427
  513MOL0     H69251   8.648   9.363  10.684  2.4920 -0.6135  1.4452
  513MOL0     H69252   8.545   9.310  10.548  1.5114  1.9800  0.4285
  513MOL0     H69253   8.910   9.251  10.377 -0.4158  2.3265  0.0336
  513MOL0     H69254   9.085   9.251  10.801 -3.2782  0.8515  2.5761
  513MOL0     H69255   9.332   9.209  10.840 -0.5852 -2.5253 -3.6459
  514MOL0     O69256   3.399   2.255   6.560  0.9784 -0.5398  0.6795
  514MOL0     C69257   3.457   2.145   6.569  0.7021  0.7548  0.4204
  514MOL0     O69258   3.384   2.023   6.566 -0.5383  0.2405 -0.1845
  514MOL0     C69259   3.249   2.031   6.572 -0.1957 -1.2858 -0.5023
  514MOL0     C69260   3.172   2.093   6.668 -0.6229 -1.5452  0.2035
  514MOL0     C69261   3.035   2.104   6.651  0.2385  0.1695 -0.1914
  514MOL0     C69262   2.968   2.063   6.536 -0.5261  0.3691 -0.3897
  514MOL0     O69263   2.835   2.058   6.512  0.4356 -0.2210  0.6488
  514MOL0     C69264   2.745   2.140   6.602  1.3782  0.0097 -0.5396
  514MOL0     C69265   2.600   2.141   6.537  0.1788  0.4227 -0.4465
  514MOL0     C69266   2.590   2.227   6.409  0.2804  0.4704 -0.7541
  514MOL0     C69267   2.606   2.142   6.281  0.1465  0.1610  0.3182
  514MOL0     C69268   2.596   2.248   6.172  1.0295  0.2498 -0.4055
  514MOL0     C69269   2.666   2.192   6.051  0.4870  0.3255 -0.3069
  514MOL0     C69270   2.644   2.291   5.926 -0.7330  0.0403 -0.9226
  514MOL0     C69271   2.656   2.216   5.795 -0.4962  0.1008  0.6412
  514MOL0     N69272   2.558   2.110   5.770  0.6377 -0.1090  0.4827
  514MOL0     C69273   2.428   2.102   5.817 -0.1394  0.4463 -0.0868
  514MOL0     C69274   2.390   1.969   5.779 -0.8068 -0.3370 -0.0691
  514MOL0     C69275   2.272   1.898   5.825 -0.7054 -0.4456  0.5870
  514MOL0     C69276   2.306   1.879   5.977  0.3085  0.0459 -0.2249
  514MOL0     C69277   2.197   1.783   6.036 -0.0680 -0.8126  0.9806
  514MOL0     C69278   2.060   1.844   6.037 -0.2079  0.5520 -0.3301
  514MOL0     O69279   1.995   1.781   5.927 -0.2827  0.5226  0.5532
  514MOL0     C69280   1.860   1.785   5.929  0.0367 -0.5656 -0.9621
  514MOL0     C69281   1.785   1.864   6.020 -0.3918 -0.2533  0.5129
  514MOL0     C69282   1.649   1.868   6.026  0.0184  0.0581  0.4970
  514MOL0     C69283   1.579   1.952   6.123  0.4125 -0.0006 -0.5791
  514MOL0     C69284   1.572   1.795   5.926  0.2906  0.8832 -1.1222
  514MOL0     C69285   1.428   1.781   5.931  0.7071  0.3415  0.6497
  514MOL0     O69286   1.377   1.732   6.043  0.2258  0.2000 -0.0784
  514MOL0     C69287   1.239   1.723   6.050 -0.3248  0.2923  0.9548
  514MOL0     C69288   1.163   1.809   6.131 -0.5195 -0.3677  0.4116
  514MOL0     C69289   1.031   1.777   6.139 -0.2878 -0.4061 -1.2550
  514MOL0     C69290   0.971   1.661   6.093  0.3731 -0.5955 -0.0094
  514MOL0     O69291   0.843   1.636   6.127 -0.4570  0.4469  0.3639
  514MOL0     C69292   0.772   1.531   6.064  0.1266 -0.4153  0.5443
  514MOL0     C69293   0.631   1.536   6.089 -0.1596  0.5619 -1.0068
  514MOL0     C69294   0.548   1.654   6.020 -0.3925  0.5220 -0.0633
  514MOL0     C69295   0.412   1.651   6.091 -0.2622 -0.8794  0.3616
  514MOL0     C69296   0.354   1.790   6.049  0.3768 -0.6624 -0.7990
  514MOL0     C69297   0.220   1.821   6.094  0.6090 -0.3065 -0.8174
  514MOL0     C69298   0.215   1.977   6.096  0.4483 -0.6232  0.7849
  514MOL0     C69299   0.078   2.023   6.137  0.5376 -0.1466 -0.1745
  514MOL0    Cl69300   0.051   1.995   6.304 -0.5174  0.0878  0.0122
  514MOL0     C69301   1.048   1.583   6.001 -0.0465 -0.1799  0.3467
  514MOL0     C69302   1.183   1.620   5.979  0.2051 -0.2497  0.6600
  514MOL0     O69303   1.376   1.789   5.822  0.0269  0.4531  0.0034
  514MOL0     C69304   1.646   1.728   5.827 -0.0687  0.3837  0.3835
  514MOL0     C69305   1.786   1.717   5.833 -0.0393 -0.5411 -0.4442
  514MOL0     N69306   2.493   1.912   5.704  0.1101  0.0864  0.0154
  514MOL0     N69307   2.584   2.002   5.692 -0.0207  0.4688  0.0075
  514MOL0     C69308   3.042   2.019   6.435  0.5206 -0.6016  0.5459
  514MOL0     C69309   3.189   1.994   6.449 -0.3080 -1.3784  1.5029
  514MOL0     C69310   3.605   2.144   6.587 -0.3665  0.2688  0.2345
  514MOL0     C69311   3.684   2.024   6.629  0.2120 -0.5173  0.2738
  514MOL0     C69312   3.820   2.029   6.653 -0.9944  0.1695  0.1433
  514MOL0     C69313   3.894   2.152   6.627  1.3834 -0.5170 -0.0410
  514MOL0     O69314   4.021   2.177   6.646  0.2407 -0.3001 -0.4055
  514MOL0     C69315   4.110   2.058   6.652  0.8207 -0.6262 -1.0814
  514MOL0     C69316   4.159   2.018   6.519  0.3492  0.1437  0.0323
  514MOL0     C69317   4.228   2.125   6.431  0.6058  0.5011  0.6388
  514MOL0     C69318   4.379   2.147   6.465  0.8248  0.3355  0.1589
  514MOL0     C69319   4.439   2.269   6.407  0.8332 -0.2806  0.4798
  514MOL0     C69320   4.479   2.375   6.373  0.7511 -0.1744 -0.1270
  514MOL0     C69321   3.821   2.260   6.594 -0.2289  0.3229 -0.3362
  514MOL0     C69322   3.681   2.260   6.572 -0.1575  0.3203  0.4905
  514MOL0     H69323   3.221   2.137   6.754  0.3545  1.8442 -1.9218
  514MOL0     H69324   2.983   2.152   6.734  2.9061  3.0456  0.0209
  514MOL0     H69325   2.724   2.091   6.697  1.6690  2.3433  0.7967
  514MOL0     H69326   2.785   2.241   6.616 -2.2251  1.7786 -1.6461
  514MOL0     H69327   2.582   2.036   6.512 -1.2829  0.8000 -1.1042
  514MOL0     H69328   2.528   2.180   6.610  2.7175  2.2759  1.2426
  514MOL0     H69329   2.488   2.266   6.412 -0.6746 -1.9270  1.3573
  514MOL0     H69330   2.665   2.308   6.408  0.1381  0.7497  2.1927
  514MOL0     H69331   2.699   2.085   6.282  0.7385  1.0431  3.0895
  514MOL0     H69332   2.526   2.067   6.278 -2.2614  2.5719  0.4510
  514MOL0     H69333   2.495   2.279   6.145  1.1806 -1.8462 -3.9661
  514MOL0     H69334   2.654   2.336   6.204 -0.3159 -0.0633  3.3294
  514MOL0     H69335   2.773   2.172   6.064  1.2869  2.5726 -2.6262
  514MOL0     H69336   2.626   2.094   6.025  1.1275  0.2367 -0.9889
  514MOL0     H69337   2.548   2.343   5.933 -1.3483 -1.2527  0.8259
  514MOL0     H69338   2.718   2.371   5.933  0.6636 -1.1503 -1.6131
  514MOL0     H69339   2.754   2.179   5.765 -0.0359  1.5674  0.2556
  514MOL0     H69340   2.637   2.284   5.711  0.2085 -0.9353 -0.3908
  514MOL0     H69341   2.375   2.166   5.886 -1.0063 -0.6612  0.3126
  514MOL0     H69342   2.184   1.956   5.798  1.0985  2.0212 -0.3245
  514MOL0     H69343   2.261   1.803   5.771  0.3907  0.1115 -0.6625
  514MOL0     H69344   2.301   1.975   6.028 -1.6578 -1.0162  1.7587
  514MOL0     H69345   2.396   1.817   5.975 -0.3984 -1.0321  0.1077
  514MOL0     H69346   2.227   1.764   6.140  1.9121  1.3494  0.8958
  514MOL0     H69347   2.204   1.679   6.003 -0.5600 -0.0994 -1.5539
  514MOL0     H69348   2.061   1.950   6.011 -0.4402  1.0115  1.4296
  514MOL0     H69349   2.006   1.836   6.132  2.6064  1.7877  1.5223
  514MOL0     H69350   1.842   1.925   6.088  0.2968 -1.4256  1.0260
  514MOL0     H69351   1.494   2.002   6.076 -1.5577 -1.5313  1.1733
  514MOL0     H69352   1.550   1.890   6.208  1.3304 -0.4032 -0.5499
  514MOL0     H69353   1.639   2.035   6.162 -0.4694 -0.6678  2.4616
  514MOL0     H69354   1.214   1.892   6.178  1.5643 -0.7197 -1.0673
  514MOL0     H69355   0.956   1.836   6.191  0.5486  0.2049 -0.7132
  514MOL0     H69356   0.791   1.518   5.957 -1.1296  1.1472  0.0965
  514MOL0     H69357   0.814   1.439   6.104 -2.3867 -2.9313 -2.1572
  514MOL0     H69358   0.593   1.439   6.056  0.7199 -0.2889  0.3665
  514MOL0     H69359   0.619   1.544   6.198 -0.1653  1.9854 -1.0813
  514MOL0     H69360   0.540   1.655   5.911 -0.3036 -0.4441 -0.0914
  514MOL0     H69361   0.602   1.743   6.053  1.4755 -0.2608 -0.8765
  514MOL0     H69362   0.354   1.571   6.044 -2.6585  1.5274 -1.1196
  514MOL0     H69363   0.420   1.635   6.199 -1.6995  0.2371  0.6658
  514MOL0     H69364   0.341   1.798   5.941  1.8689  0.7818 -0.9134
  514MOL0     H69365   0.430   1.867   6.069 -0.3216 -0.1712  0.0373
  514MOL0     H69366   0.138   1.770   6.042 -1.8357 -0.7237  3.0236
  514MOL0     H69367   0.205   1.801   6.200  2.3954  0.6464 -0.3401
  514MOL0     H69368   0.231   2.010   5.993 -0.6864  1.8842  1.3189
  514MOL0     H69369   0.296   2.021   6.154  0.6911  1.1022 -0.7702
  514MOL0     H69370  -0.007   1.985   6.080  0.0764 -2.4922  1.9006
  514MOL0     H69371   0.077   2.133   6.133 -4.1589  0.1477  1.9761
  514MOL0     H69372   1.009   1.491   5.958  0.2612 -0.4736  0.6898
  514MOL0     H69373   1.250   1.569   5.910 -1.0001 -2.0506  0.7494
  514MOL0     H69374   1.604   1.665   5.750  4.3308 -0.6377 -1.4867
  514MOL0     H69375   1.827   1.647   5.760 -0.3292 -0.9978 -0.1758
  514MOL0     H69376   2.980   1.979   6.356 -1.4505 -0.2209  1.8382
  514MOL0     H69377   3.258   1.967   6.371 -0.0778 -1.6199  1.7883
  514MOL0     H69378   3.632   1.935   6.664 -1.4801  0.7632  1.1617
  514MOL0     H69379   3.867   1.938   6.687  0.9506  1.9512  2.6639
  514MOL0     H69380   4.200   2.086   6.707  1.8840 -3.7714 -1.0436
  514MOL0     H69381   4.071   1.974   6.710  0.0929  0.8423  0.6792
  514MOL0     H69382   4.071   1.969   6.478  0.6991  0.2238 -0.8312
  514MOL0     H69383   4.238   1.943   6.531  3.2401  3.2443  2.4232
  514MOL0     H69384   4.167   2.216   6.427 -2.3771 -1.3977 -0.0617
  514MOL0     H69385   4.225   2.086   6.329 -1.6438 -0.9430  1.1865
  514MOL0     H69386   4.443   2.064   6.432 -0.5016 -0.7010  0.1404
  514MOL0     H69387   4.405   2.139   6.571  2.6867  0.1653 -0.2746
  514MOL0     H69388   4.508   2.472   6.338  1.5752 -0.1219  0.6704
  514MOL0     H69389   3.869   2.357   6.608  4.7212 -1.8492 -0.3130
  514MOL0     H69390   3.632   2.355   6.553  1.0885  1.2251  1.6118
  515MOL0     O69391   2.842   5.240   8.187 -0.4636  0.5429  0.0213
  515MOL0     C69392   2.844   5.333   8.266  0.0544 -1.6161 -0.9165
  515MOL0     O69393   2.761   5.358   8.371  0.1327 -0.3061  0.0840
  515MOL0     C69394   2.700   5.252   8.423  0.2112 -0.0108  0.4932
  515MOL0     C69395   2.768   5.132   8.452 -0.3317 -0.6317  0.1229
  515MOL0     C69396   2.703   5.017   8.509  0.3834 -0.3735 -0.7308
  515MOL0     C69397   2.578   5.037   8.554 -0.4187  0.1556  0.0168
  515MOL0     O69398   2.502   4.944   8.626  0.1198  0.0167  0.2531
  515MOL0     C69399   2.532   4.806   8.613  0.1643  0.9079 -0.4495
  515MOL0     C69400   2.427   4.712   8.666 -0.6454 -0.6821 -1.0767
  515MOL0     C69401   2.304   4.726   8.592 -0.7997  0.3677 -0.7608
  515MOL0     C69402   2.208   4.608   8.613 -0.6204 -0.1764 -0.3188
  515MOL0     C69403   2.070   4.604   8.540 -0.3475 -0.2400  0.0089
  515MOL0     C69404   1.992   4.487   8.589  0.3531 -0.6550 -0.1505
  515MOL0     C69405   1.867   4.456   8.515  0.6203  0.9105 -0.2087
  515MOL0     C69406   1.816   4.328   8.582 -0.0727  0.0185  0.1642
  515MOL0     N69407   1.682   4.291   8.540  0.4892 -0.8480 -0.3801
  515MOL0     C69408   1.650   4.217   8.425  0.7572  0.6910 -0.0969
  515MOL0     C69409   1.525   4.186   8.443  0.3605  0.8680 -0.8044
  515MOL0     C69410   1.438   4.091   8.351  0.8513 -0.5153 -0.3228
  515MOL0     C69411   1.490   4.066   8.205 -0.7052 -0.0406  0.0612
  515MOL0     C69412   1.398   3.967   8.125 -0.9676 -0.1619  0.4487
  515MOL0     C69413   1.265   4.022   8.095  0.9150 -0.2753 -0.4850
  515MOL0     O69414   1.219   3.926   8.001  0.3795 -0.2159  0.3271
  515MOL0     C69415   1.090   3.940   7.956  0.8449  0.1951 -0.0920
  515MOL0     C69416   1.047   3.841   7.868  0.3689  0.7495  0.6756
  515MOL0     C69417   0.924   3.838   7.801 -0.0569 -0.4193  0.0937
  515MOL0     C69418   0.887   3.723   7.720 -0.2886  0.5649 -0.0644
  515MOL0     C69419   0.834   3.943   7.815 -0.2344  0.5703 -0.0523
  515MOL0     C69420   0.711   3.966   7.735  0.3701  0.6639  0.4034
  515MOL0     O69421   0.706   3.917   7.616 -0.4514 -0.0708 -0.5564
  515MOL0     C69422   0.595   3.947   7.534  0.2696  0.2735  1.0162
  515MOL0     C69423   0.558   3.856   7.437 -0.6172  0.4400 -0.2319
  515MOL0     C69424   0.468   3.891   7.334  0.3555  0.1409 -0.6471
  515MOL0     C69425   0.422   4.019   7.325  0.8196  0.0833 -1.0060
  515MOL0     O69426   0.341   4.066   7.232  0.4138 -0.3413  0.2015
  515MOL0     C69427   0.328   3.997   7.101 -0.8600  0.4662 -0.1629
  515MOL0     C69428   0.204   3.906   7.098  0.8635  1.0052  0.1877
  515MOL0     C69429   0.188   3.838   6.960  0.3317 -0.2808  0.5975
  515MOL0     C69430   0.044   3.778   6.950 -0.3978 -0.5312  0.3075
  515MOL0     C69431   0.044   3.667   6.839  0.6120 -0.0337 -0.1381
  515MOL0     C69432  -0.077   3.573   6.859 -0.9751 -0.5242  0.2858
  515MOL0     C69433  -0.077   3.454   6.756  0.3207 -0.5827 -0.0543
  515MOL0     C69434  -0.085   3.510   6.610 -0.0687  0.8701  0.0643
  515MOL0    Cl69435  -0.211   3.632   6.592  0.1253 -0.5530 -0.0854
  515MOL0     C69436   0.463   4.119   7.416  0.1175  0.5061  1.3637
  515MOL0     C69437   0.553   4.081   7.521  0.3962 -0.1792  0.0340
  515MOL0     O69438   0.610   4.016   7.794  0.0679 -0.0014  0.5612
  515MOL0     C69439   0.868   4.044   7.916 -0.6645  0.3156  0.8525
  515MOL0     C69440   0.997   4.044   7.983  0.2449  0.4050 -0.4591
  515MOL0     N69441   1.480   4.233   8.569 -0.2460 -1.3112 -0.5331
  515MOL0     N69442   1.576   4.305   8.622  0.9577  0.1497  0.4153
  515MOL0     C69443   2.506   5.155   8.511  0.1927  0.8503  0.5162
  515MOL0     C69444   2.564   5.255   8.444  0.7288  0.2909  1.0975
  515MOL0     C69445   2.960   5.422   8.261  0.5558 -0.1476 -0.2376
  515MOL0     C69446   2.997   5.497   8.371 -0.0603  0.0155 -0.5893
  515MOL0     C69447   3.104   5.591   8.364 -0.2934  0.2658 -0.7268
  515MOL0     C69448   3.181   5.611   8.248  0.9072 -0.0048 -0.9682
  515MOL0     O69449   3.276   5.707   8.257  0.3908  0.5132  0.5455
  515MOL0     C69450   3.366   5.707   8.141  0.0306  0.7627 -0.8579
  515MOL0     C69451   3.305   5.799   8.036  0.0653 -0.1810  0.1613
  515MOL0     C69452   3.392   5.816   7.909 -0.1394 -0.0391  0.2876
  515MOL0     C69453   3.319   5.891   7.794 -0.6161 -0.1661 -0.3247
  515MOL0     C69454   3.411   5.951   7.696  0.2740 -0.2866 -0.8550
  515MOL0     C69455   3.482   5.984   7.606  0.3308  0.0691  0.0752
  515MOL0     C69456   3.145   5.519   8.143 -0.8434 -0.4980 -0.2138
  515MOL0     C69457   3.039   5.431   8.152 -0.5918  0.1882 -0.2766
  515MOL0     H69458   2.869   5.115   8.418 -0.7139 -1.1054 -0.8327
  515MOL0     H69459   2.759   4.924   8.521 -1.2338 -1.1891  0.9304
  515MOL0     H69460   2.550   4.782   8.508  2.2653  1.2562 -0.2183
  515MOL0     H69461   2.625   4.786   8.667 -0.6547 -0.9813  0.3422
  515MOL0     H69462   2.468   4.611   8.659  4.9228  0.3676  5.5734
  515MOL0     H69463   2.411   4.733   8.772  2.3425  0.5257 -0.7587
  515MOL0     H69464   2.264   4.822   8.624 -0.1352  1.0418 -1.8759
  515MOL0     H69465   2.323   4.743   8.485 -1.1264 -0.5295 -0.9711
  515MOL0     H69466   2.259   4.514   8.592 -1.6728 -1.0066  0.6688
  515MOL0     H69467   2.183   4.610   8.720  0.5003 -0.8525 -0.0337
  515MOL0     H69468   2.015   4.697   8.560  0.3944  0.4078 -0.9072
  515MOL0     H69469   2.085   4.594   8.432 -1.3509  4.3455 -0.7676
  515MOL0     H69470   2.052   4.396   8.595 -1.1994 -1.6808  0.0417
  515MOL0     H69471   1.973   4.501   8.696 -1.8060 -1.7527 -0.3393
  515MOL0     H69472   1.787   4.527   8.538 -1.1910 -1.0029 -0.1997
  515MOL0     H69473   1.878   4.448   8.407  0.7765  3.1339 -0.3965
  515MOL0     H69474   1.816   4.345   8.690 -1.1074 -0.7875  0.3046
  515MOL0     H69475   1.882   4.244   8.559 -0.2842 -0.5652  1.6093
  515MOL0     H69476   1.710   4.196   8.337  1.0473 -1.4009  0.5483
  515MOL0     H69477   1.426   3.999   8.410 -2.3950  0.8190  1.3258
  515MOL0     H69478   1.339   4.138   8.356  0.8049 -0.7561  1.7296
  515MOL0     H69479   1.587   4.015   8.204 -0.5292  0.2609 -1.5596
  515MOL0     H69480   1.490   4.156   8.143  1.4422 -0.3125 -0.4201
  515MOL0     H69481   1.401   3.870   8.176 -0.4825  1.4143  3.7242
  515MOL0     H69482   1.446   3.948   8.029 -3.8464 -1.7016 -0.8150
  515MOL0     H69483   1.265   4.124   8.054 -3.9632  0.3645  0.5483
  515MOL0     H69484   1.195   4.029   8.179  1.6685  0.1393  0.1339
  515MOL0     H69485   1.117   3.766   7.831  0.9317 -0.4974  3.9322
  515MOL0     H69486   0.916   3.736   7.615  1.1915  0.1961  0.2808
  515MOL0     H69487   0.948   3.646   7.767 -1.4905 -0.8401 -0.7245
  515MOL0     H69488   0.784   3.685   7.720  0.8745 -3.1142 -2.2321
  515MOL0     H69489   0.596   3.755   7.450  0.2817  0.5609 -1.6697
  515MOL0     H69490   0.437   3.814   7.264  1.0192 -1.2762  0.5517
  515MOL0     H69491   0.326   4.072   7.021 -2.6947  2.2386  1.4423
  515MOL0     H69492   0.422   3.945   7.081 -0.1421  1.4166  0.6311
  515MOL0     H69493   0.211   3.831   7.177 -0.2454  2.5509  1.8397
  515MOL0     H69494   0.118   3.971   7.118  0.4706  0.7501 -0.6192
  515MOL0     H69495   0.251   3.749   6.946 -0.9188 -0.7984 -2.6192
  515MOL0     H69496   0.207   3.921   6.892 -1.4709  0.0944  0.5245
  515MOL0     H69497   0.015   3.738   7.047  1.3987 -0.3155  0.9659
  515MOL0     H69498  -0.020   3.856   6.908  0.1251 -1.3035 -2.0808
  515MOL0     H69499   0.139   3.613   6.843  0.5080 -0.6535 -3.4318
  515MOL0     H69500   0.042   3.730   6.749 -1.6292 -0.0083 -0.1347
  515MOL0     H69501  -0.073   3.527   6.958 -0.0671 -0.9640  0.0634
  515MOL0     H69502  -0.168   3.631   6.845  0.3429  1.4062 -0.8184
  515MOL0     H69503  -0.165   3.393   6.780 -1.8917  3.0241  1.9234
  515MOL0     H69504   0.014   3.395   6.762 -0.1603 -1.7199 -2.4707
  515MOL0     H69505  -0.114   3.426   6.545 -0.8289  2.7425 -2.1470
  515MOL0     H69506   0.012   3.546   6.574  0.2804 -1.0416 -1.1043
  515MOL0     H69507   0.427   4.221   7.408 -1.2094  0.0064  0.4633
  515MOL0     H69508   0.591   4.153   7.593 -0.6945 -0.2331  0.6802
  515MOL0     H69509   0.794   4.121   7.938 -1.1388  0.3155 -0.5792
  515MOL0     H69510   1.011   4.127   8.052  0.1739 -0.2535  0.3720
  515MOL0     H69511   2.399   5.153   8.532 -0.1097 -1.2359 -0.9107
  515MOL0     H69512   2.510   5.341   8.405  2.0333 -0.4254 -2.8214
  515MOL0     H69513   2.935   5.492   8.460  0.2044  0.2537 -0.3880
  515MOL0     H69514   3.135   5.656   8.446  0.7555 -0.3645 -0.6055
  515MOL0     H69515   3.464   5.746   8.170  0.0516  0.9939 -1.2287
  515MOL0     H69516   3.374   5.606   8.100 -3.0978 -0.6667  1.5601
  515MOL0     H69517   3.290   5.899   8.077 -0.1747 -0.7527  1.5400
  515MOL0     H69518   3.205   5.759   8.015 -0.9963  2.7007 -0.7229
  515MOL0     H69519   3.427   5.719   7.872  1.5296  0.8193 -0.4879
  515MOL0     H69520   3.477   5.880   7.933  1.0625 -1.7569  0.7776
  515MOL0     H69521   3.273   5.967   7.857  3.0465  0.7844  1.4783
  515MOL0     H69522   3.254   5.821   7.740  1.1469 -0.5857 -2.0334
  515MOL0     H69523   3.540   6.008   7.519 -1.3106  0.0162 -1.0643
  515MOL0     H69524   3.205   5.520   8.052  3.3832 -0.2988  2.2703
  515MOL0     H69525   3.020   5.372   8.062 -0.0358  1.2671 -1.1233
  516MOL0     O69526   5.880   3.586   8.074 -0.6752  0.1896  0.6002
  516MOL0     C69527   5.883   3.462   8.079 -0.0067  0.4507 -1.2417
  516MOL0     O69528   5.788   3.384   8.134 -0.0109  0.6956 -0.0510
  516MOL0     C69529   5.683   3.451   8.196  0.4212  0.8112 -0.4902
  516MOL0     C69530   5.611   3.559   8.143  0.4371  0.6390  0.7112
  516MOL0     C69531   5.510   3.627   8.216 -0.1044 -0.2237 -0.0461
  516MOL0     C69532   5.484   3.597   8.350  0.3268  0.1782 -0.0150
  516MOL0     O69533   5.392   3.655   8.429 -0.2860  0.0985 -0.3015
  516MOL0     C69534   5.331   3.784   8.396 -0.7202 -0.4742  0.0661
  516MOL0     C69535   5.406   3.903   8.453 -0.2957  1.1982  0.0579
  516MOL0     C69536   5.554   3.908   8.411 -0.7013  0.5440  0.7191
  516MOL0     C69537   5.571   3.967   8.270  0.4102  0.5233 -0.3297
  516MOL0     C69538   5.713   3.941   8.232  0.7894  1.1372 -0.7140
  516MOL0     C69539   5.728   3.990   8.091  0.5353 -0.3651  0.5160
  516MOL0     C69540   5.871   3.969   8.035  0.6766  0.6662  0.0239
  516MOL0     C69541   5.883   4.035   7.902  0.2412  0.1875 -0.1235
  516MOL0     N69542   5.768   4.027   7.812 -0.0431 -0.2743 -0.4763
  516MOL0     C69543   5.720   3.910   7.759  0.2816  0.3433  0.1566
  516MOL0     C69544   5.612   3.964   7.687 -0.2987 -0.8287 -0.0344
  516MOL0     C69545   5.509   3.896   7.591 -0.6877  0.6904 -0.1762
  516MOL0     C69546   5.372   3.923   7.647  0.4790  0.1138 -0.0896
  516MOL0     C69547   5.261   3.881   7.553  0.9729 -0.5130  0.0097
  516MOL0     C69548   5.130   3.895   7.633 -0.0886 -1.1515  0.2727
  516MOL0     O69549   5.023   3.880   7.543 -0.1309  0.2141  0.3309
  516MOL0     C69550   4.891   3.871   7.587  0.1108  0.5652  0.6575
  516MOL0     C69551   4.849   3.891   7.721 -0.0905  0.4640  1.0308
  516MOL0     C69552   4.713   3.891   7.753 -0.3760  0.7320  0.0885
  516MOL0     C69553   4.681   3.906   7.894  0.2550  0.7573 -0.9351
  516MOL0     C69554   4.617   3.860   7.656 -0.3624 -0.0898 -0.8236
  516MOL0     C69555   4.474   3.870   7.693  0.1730  1.0654  0.5448
  516MOL0     O69556   4.393   3.882   7.578  0.9933 -0.7268 -0.5151
  516MOL0     C69557   4.253   3.884   7.600  0.1762  0.5269 -0.1726
  516MOL0     C69558   4.192   3.792   7.684  0.3163  0.1941 -0.2915
  516MOL0     C69559   4.057   3.781   7.677  0.1953 -0.0217  0.9446
  516MOL0     C69560   3.972   3.868   7.587  0.4294 -0.5023 -0.3372
  516MOL0     O69561   3.837   3.865   7.590 -0.5286  0.1754 -0.4187
  516MOL0     C69562   3.783   3.897   7.720  0.6172 -0.0824  0.2380
  516MOL0     C69563   3.663   3.981   7.719 -0.7884  0.4814 -0.1064
  516MOL0     C69564   3.559   3.912   7.636 -0.0716 -0.3087  0.1632
  516MOL0     C69565   3.432   3.994   7.641  0.5777  0.4733  0.6372
  516MOL0     C69566   3.310   3.920   7.590 -0.7765 -0.6719  0.4962
  516MOL0     C69567   3.179   3.972   7.650 -0.8146 -0.0890  0.7159
  516MOL0     C69568   3.174   4.132   7.692  1.0067 -0.0082 -0.6894
  516MOL0     C69569   3.034   4.183   7.691 -0.3783  0.2494  0.3740
  516MOL0    Cl69570   2.956   4.175   7.528 -0.2557 -0.1368 -0.1651
  516MOL0     C69571   4.036   3.962   7.509  1.4219  0.1985  0.3747
  516MOL0     C69572   4.172   3.968   7.524 -0.0142  0.5511 -0.2069
  516MOL0     O69573   4.432   3.866   7.811  0.3963 -0.4477  0.0514
  516MOL0     C69574   4.662   3.840   7.526 -0.3065 -0.2987 -0.2983
  516MOL0     C69575   4.799   3.842   7.496  0.8402  0.4743 -0.7692
  516MOL0     N69576   5.607   4.105   7.697  0.7038  0.4806  0.7857
  516MOL0     N69577   5.694   4.133   7.782 -0.1507 -0.2920 -0.0549
  516MOL0     C69578   5.552   3.493   8.402 -0.9432  0.3868 -0.2644
  516MOL0     C69579   5.650   3.415   8.326 -0.5131  0.3096  0.7900
  516MOL0     C69580   6.015   3.392   8.040  0.2132 -0.3230 -0.8406
  516MOL0     C69581   6.089   3.445   7.933 -1.3230  0.1191 -0.1724
  516MOL0     C69582   6.187   3.362   7.882 -0.7664  0.1791  0.8587
  516MOL0     C69583   6.225   3.236   7.935  0.2255  0.5050  0.1130
  516MOL0     O69584   6.336   3.168   7.898  0.4111  0.0553  0.2472
  516MOL0     C69585   6.450   3.197   7.984  0.3607  0.3906  0.3168
  516MOL0     C69586   6.576   3.130   7.941  0.8405 -0.6403  1.2641
  516MOL0     C69587   6.624   3.187   7.809  0.2174  0.4131  0.0930
  516MOL0     C69588   6.698   3.084   7.720  0.5744 -0.0453  0.3004
  516MOL0     C69589   6.812   3.037   7.791 -0.8581  0.1563 -0.7022
  516MOL0     C69590   6.908   2.990   7.849  0.2957 -0.3042 -0.6561
  516MOL0     C69591   6.154   3.185   8.052 -0.0529 -0.4778 -0.5743
  516MOL0     C69592   6.046   3.264   8.095 -0.5268 -0.8872 -0.1363
  516MOL0     H69593   5.641   3.587   8.043  1.0360  1.1956  1.0410
  516MOL0     H69594   5.462   3.714   8.172 -0.6966 -0.3342  0.3728
  516MOL0     H69595   5.308   3.810   8.292 -4.1289 -2.3343  0.2074
  516MOL0     H69596   5.226   3.779   8.425 -1.7894  0.7340 -3.1440
  516MOL0     H69597   5.359   3.999   8.433 -0.6544  1.1142  0.4804
  516MOL0     H69598   5.407   3.893   8.562 -2.1535  2.0221  0.1804
  516MOL0     H69599   5.608   3.970   8.484  0.9619  0.3461 -0.3066
  516MOL0     H69600   5.598   3.808   8.421 -1.5924  0.2197  1.5488
  516MOL0     H69601   5.493   3.923   8.206 -2.0684  2.8569  0.8773
  516MOL0     H69602   5.539   4.071   8.270 -1.2357  0.0577  0.0762
  516MOL0     H69603   5.785   3.993   8.297  0.8965 -1.3720  1.3433
  516MOL0     H69604   5.725   3.833   8.235 -0.3683  1.0163  0.9620
  516MOL0     H69605   5.652   3.945   8.026  1.0135  1.3376 -1.3123
  516MOL0     H69606   5.711   4.098   8.082 -0.0186 -0.4827  0.1344
  516MOL0     H69607   5.936   4.010   8.113  1.1723 -1.2075  0.6378
  516MOL0     H69608   5.891   3.863   8.020  0.3243  0.2962  1.8890
  516MOL0     H69609   5.977   3.993   7.863  0.7408 -0.5679  1.7737
  516MOL0     H69610   5.901   4.141   7.920  0.6672  0.1914 -0.5186
  516MOL0     H69611   5.744   3.808   7.784  1.6639  0.9295  1.3488
  516MOL0     H69612   5.524   3.942   7.493  3.1859 -2.6252 -1.4413
  516MOL0     H69613   5.536   3.790   7.594 -0.1157  0.8367  2.0484
  516MOL0     H69614   5.361   4.026   7.681 -3.5616 -0.3928  0.7170
  516MOL0     H69615   5.364   3.867   7.740 -1.0100  0.5389  0.0733
  516MOL0     H69616   5.280   3.778   7.520 -1.0571 -1.1713  0.7761
  516MOL0     H69617   5.260   3.953   7.471 -3.1327 -2.2548 -1.7642
  516MOL0     H69618   5.115   3.994   7.676 -0.5939 -1.9912  2.0911
  516MOL0     H69619   5.135   3.837   7.725  0.1833 -1.3811  0.1151
  516MOL0     H69620   4.933   3.924   7.782  0.1385  4.5739 -1.1831
  516MOL0     H69621   4.665   3.808   7.940  1.6103 -0.0999 -2.1864
  516MOL0     H69622   4.774   3.933   7.944  0.9605  0.1164 -1.8652
  516MOL0     H69623   4.606   3.983   7.915  1.5302  1.9907 -0.7540
  516MOL0     H69624   4.252   3.724   7.744  0.5838  0.1496 -0.5997
  516MOL0     H69625   3.997   3.714   7.738  0.1644 -2.4963 -1.5856
  516MOL0     H69626   3.764   3.799   7.766 -1.0156  0.2223  0.2675
  516MOL0     H69627   3.857   3.948   7.783  2.2543 -0.5582 -1.2084
  516MOL0     H69628   3.643   3.974   7.826  2.5995 -2.6612  0.5240
  516MOL0     H69629   3.690   4.077   7.676  0.8356  0.4667  0.8325
  516MOL0     H69630   3.542   3.807   7.664  0.1887  0.3305  2.9920
  516MOL0     H69631   3.603   3.915   7.536 -0.7804  1.5078 -0.1342
  516MOL0     H69632   3.420   4.023   7.746  2.9267 -0.0822  1.1156
  516MOL0     H69633   3.448   4.077   7.572 -0.6716  0.3231  0.1490
  516MOL0     H69634   3.308   3.819   7.631 -0.9563 -0.7069  0.4014
  516MOL0     H69635   3.319   3.921   7.481  4.6804  1.9719  0.6051
  516MOL0     H69636   3.109   3.965   7.566 -0.3711  3.1068 -0.0774
  516MOL0     H69637   3.150   3.913   7.737  0.8613  1.3795  2.3585
  516MOL0     H69638   3.229   4.190   7.618 -0.6113 -1.0314 -2.7944
  516MOL0     H69639   3.221   4.148   7.790  0.8368  0.0080 -0.6096
  516MOL0     H69640   3.024   4.283   7.733 -1.6569  0.0048  0.6885
  516MOL0     H69641   2.977   4.118   7.759  0.5164  0.5018  1.3963
  516MOL0     H69642   3.987   4.028   7.439 -1.8960 -1.0376  1.3701
  516MOL0     H69643   4.222   4.044   7.465  2.6105  1.0053  2.3871
  516MOL0     H69644   4.592   3.830   7.444  1.0022 -2.1873 -1.2526
  516MOL0     H69645   4.837   3.817   7.398 -2.0971 -0.4263 -1.7578
  516MOL0     H69646   5.529   3.460   8.503  2.2926  0.4754  0.6130
  516MOL0     H69647   5.712   3.339   8.372 -1.2362 -0.0141  1.2478
  516MOL0     H69648   6.064   3.536   7.880 -1.0602  1.1448  1.3747
  516MOL0     H69649   6.252   3.381   7.797 -0.5113 -0.3992  0.9178
  516MOL0     H69650   6.467   3.305   7.974 -0.6218  0.3639 -2.6855
  516MOL0     H69651   6.430   3.167   8.087 -1.1050  0.3621  0.0462
  516MOL0     H69652   6.557   3.023   7.937 -3.2761 -0.0765  0.9757
  516MOL0     H69653   6.646   3.157   8.020 -0.1707 -1.1893  2.3808
  516MOL0     H69654   6.678   3.281   7.829 -1.7103  1.9759 -1.6556
  516MOL0     H69655   6.536   3.219   7.753 -2.9980 -2.2880  3.1667
  516MOL0     H69656   6.731   3.122   7.623 -3.9511 -1.3545 -2.0621
  516MOL0     H69657   6.624   3.009   7.693 -1.1418  1.4206  0.6974
  516MOL0     H69658   6.996   2.940   7.883 -0.6427 -2.0262 -0.6202
  516MOL0     H69659   6.185   3.102   8.114 -0.4301  0.9578  1.6570
  516MOL0     H69660   5.978   3.223   8.170  0.7232 -2.8285  0.0006
  517MOL0     O69661  10.567   7.050   8.935  1.1041 -0.3762  0.2419
  517MOL0     C69662  10.635   6.976   9.001 -0.1604  0.0723  0.0941
  517MOL0     O69663  10.598   6.922   9.123  0.0976 -0.1409 -0.2339
  517MOL0     C69664  10.482   6.953   9.174  0.5378  0.2097  0.0290
  517MOL0     C69665  10.447   7.091   9.203  0.2088 -0.2291 -0.3147
  517MOL0     C69666  10.328   7.110   9.272 -0.6830 -0.5822  0.6303
  517MOL0     C69667  10.235   7.008   9.290  0.4009  0.1353 -0.4584
  517MOL0     O69668  10.111   7.022   9.347  0.6530 -0.3558 -0.2194
  517MOL0     C69669  10.008   7.053   9.253 -0.1066 -0.3529 -0.0535
  517MOL0     C69670   9.890   6.957   9.293  0.3358 -0.1595  0.4277
  517MOL0     C69671   9.793   6.931   9.180 -0.0149  0.2145 -0.3793
  517MOL0     C69672   9.682   6.835   9.221 -0.9559 -0.2381  0.2971
  517MOL0     C69673   9.591   6.815   9.105 -0.2399 -0.6016  0.1289
  517MOL0     C69674   9.465   6.744   9.148 -0.1996  0.2350 -0.6737
  517MOL0     C69675   9.398   6.687   9.026  0.6405 -0.7853 -0.0119
  517MOL0     C69676   9.250   6.645   9.054  0.8260  0.3969 -0.1941
  517MOL0     N69677   9.234   6.539   9.161 -0.4798  0.1783 -0.1380
  517MOL0     C69678   9.124   6.522   9.237  0.9283  1.0655  0.4616
  517MOL0     C69679   9.144   6.399   9.293 -0.6787  0.4567 -0.3250
  517MOL0     C69680   9.061   6.341   9.407  0.5577 -0.0227 -0.3552
  517MOL0     C69681   8.945   6.264   9.358  0.7998 -0.2573  0.4525
  517MOL0     C69682   8.840   6.242   9.465 -0.2399 -0.1111 -0.2589
  517MOL0     C69683   8.737   6.140   9.420 -0.4790  0.7355 -0.1765
  517MOL0     O69684   8.668   6.190   9.304  0.7933  0.1694  0.3193
  517MOL0     C69685   8.543   6.134   9.287 -0.2140 -0.7883  0.8420
  517MOL0     C69686   8.513   6.003   9.311  0.2937 -0.1037 -0.1214
  517MOL0     C69687   8.382   5.966   9.291 -0.5654  0.2814 -0.3316
  517MOL0     C69688   8.348   5.825   9.308  0.1370  0.4881 -0.6046
  517MOL0     C69689   8.282   6.057   9.249 -0.2819 -0.3638 -0.3605
  517MOL0     C69690   8.134   6.017   9.225  0.2399 -0.4435  0.1027
  517MOL0     O69691   8.070   6.061   9.334 -0.2531 -0.5957  0.0733
  517MOL0     C69692   7.933   6.016   9.348 -1.1350 -0.6384 -0.6024
  517MOL0     C69693   7.862   6.085   9.444  0.0866 -1.0003  0.1372
  517MOL0     C69694   7.734   6.049   9.481 -0.1098  0.0986  0.7855
  517MOL0     C69695   7.666   5.945   9.420  0.8258 -0.5116 -0.5033
  517MOL0     O69696   7.545   5.902   9.464  0.8989  0.3730  0.5767
  517MOL0     C69697   7.459   5.973   9.561  0.2514 -0.0408  0.5063
  517MOL0     C69698   7.331   5.888   9.594  0.2766 -0.1697 -0.3080
  517MOL0     C69699   7.223   5.905   9.479 -0.0443 -0.1331  0.6938
  517MOL0     C69700   7.110   5.812   9.496 -0.0560  0.6748  0.9077
  517MOL0     C69701   6.991   5.868   9.418 -0.7098  0.0935 -0.1882
  517MOL0     C69702   6.855   5.806   9.446 -0.3794  0.1509 -0.3889
  517MOL0     C69703   6.824   5.792   9.602 -0.4033 -0.3921 -0.0151
  517MOL0     C69704   6.675   5.759   9.616 -0.2993 -0.5099 -0.1319
  517MOL0    Cl69705   6.631   5.778   9.793 -0.2438 -0.3406  0.2326
  517MOL0     C69706   7.733   5.875   9.323  0.1785  0.1959 -0.2891
  517MOL0     C69707   7.866   5.908   9.278  0.3902 -0.0564  0.3376
  517MOL0     O69708   8.090   5.997   9.115  0.0350 -0.1514  1.0881
  517MOL0     C69709   8.317   6.187   9.233  0.6248  0.3635  0.3776
  517MOL0     C69710   8.446   6.228   9.254  0.4579  0.8186  0.3888
  517MOL0     N69711   9.261   6.343   9.236  0.4554 -0.5483  0.4747
  517MOL0     N69712   9.301   6.422   9.146 -0.6389  0.6723  0.4455
  517MOL0     C69713  10.269   6.874   9.266  0.4131 -1.1049  0.1454
  517MOL0     C69714  10.390   6.845   9.200  1.0316  0.5294 -0.2107
  517MOL0     C69715  10.769   6.934   8.956 -0.7704  0.2786 -0.0790
  517MOL0     C69716  10.793   6.943   8.816 -0.6483  0.1087 -0.2034
  517MOL0     C69717  10.916   6.907   8.760  0.3700  0.4169  0.4520
  517MOL0     C69718  11.018   6.863   8.848 -0.0635 -0.2759  0.2493
  517MOL0     O69719  11.138   6.813   8.802 -0.2703 -0.4429 -0.5055
  517MOL0     C69720  11.158   6.823   8.657  0.0785 -0.2235 -0.5374
  517MOL0     C69721  11.307   6.796   8.619 -0.3938  0.4471  1.0187
  517MOL0     C69722  11.350   6.661   8.667  0.5958  0.3379 -0.0406
  517MOL0     C69723  11.492   6.619   8.616 -0.1432 -0.4106 -0.2003
  517MOL0     C69724  11.599   6.701   8.672 -0.2627  0.0632 -0.3802
  517MOL0     C69725  11.691   6.773   8.712  0.3967 -0.3519  0.5991
  517MOL0     C69726  11.001   6.867   8.987  0.3966 -0.4647 -0.3434
  517MOL0     C69727  10.870   6.894   9.045 -0.0354  0.3416 -0.1400
  517MOL0     H69728  10.505   7.182   9.187 -1.9046  1.3459  0.4290
  517MOL0     H69729  10.297   7.212   9.291 -0.4210 -0.4073  0.1366
  517MOL0     H69730   9.994   7.161   9.257  3.1483  0.1633 -0.0893
  517MOL0     H69731  10.034   7.023   9.151 -0.9823  0.1022 -0.4206
  517MOL0     H69732   9.936   6.859   9.311  0.6803 -0.2811 -0.9831
  517MOL0     H69733   9.836   6.982   9.384  1.4584 -0.4932  1.2121
  517MOL0     H69734   9.749   7.024   9.142  2.2517  0.6775 -2.1030
  517MOL0     H69735   9.839   6.886   9.091  0.4813 -0.3100  0.1343
  517MOL0     H69736   9.726   6.739   9.250 -2.2838 -1.5287 -1.6729
  517MOL0     H69737   9.639   6.875   9.314  2.2842  1.2093  1.3354
  517MOL0     H69738   9.578   6.908   9.049 -2.0870 -2.2761 -2.5194
  517MOL0     H69739   9.637   6.751   9.029  0.2281 -0.4832  0.3147
  517MOL0     H69740   9.481   6.670   9.227 -1.7750 -0.6835 -1.1695
  517MOL0     H69741   9.403   6.820   9.196  0.3621 -1.0527  2.2838
  517MOL0     H69742   9.386   6.764   8.949  0.4390 -0.7730  0.0300
  517MOL0     H69743   9.457   6.607   8.982  2.9134  1.4834 -1.3707
  517MOL0     H69744   9.219   6.599   8.959 -1.1109 -1.4697  1.2365
  517MOL0     H69745   9.186   6.730   9.078  2.1678  1.4888 -0.4318
  517MOL0     H69746   9.044   6.592   9.258  0.6469  1.6776 -2.3071
  517MOL0     H69747   9.131   6.272   9.454 -1.6968 -1.4911  1.0445
  517MOL0     H69748   9.037   6.405   9.492  1.7404  0.7726 -0.5922
  517MOL0     H69749   8.978   6.166   9.322 -0.8700 -0.0465 -1.9350
  517MOL0     H69750   8.903   6.318   9.272  2.8622 -0.1231 -0.5160
  517MOL0     H69751   8.789   6.335   9.490  1.4383  0.3118  1.9446
  517MOL0     H69752   8.876   6.205   9.562 -1.4506 -2.3235 -0.5818
  517MOL0     H69753   8.663   6.115   9.497 -3.9798  1.0063 -3.1854
  517MOL0     H69754   8.784   6.047   9.388  2.3085  2.1487 -0.5424
  517MOL0     H69755   8.595   5.933   9.323  0.1618 -0.6565 -2.1024
  517MOL0     H69756   8.432   5.756   9.295 -0.3338  0.0792 -1.5859
  517MOL0     H69757   8.292   5.808   9.400  0.0283  0.7878 -0.6140
  517MOL0     H69758   8.279   5.793   9.230 -1.7660 -2.7942  2.1681
  517MOL0     H69759   7.916   6.164   9.495 -0.3097  0.8391 -2.0998
  517MOL0     H69760   7.689   6.106   9.562 -0.0343  1.3731 -0.0456
  517MOL0     H69761   7.520   5.990   9.651 -2.0771 -1.7187  2.5087
  517MOL0     H69762   7.422   6.062   9.510  0.9181  1.2395  2.1651
  517MOL0     H69763   7.365   5.785   9.611 -0.4830 -0.3308  0.2757
  517MOL0     H69764   7.289   5.924   9.688 -3.1413 -0.9032 -1.4060
  517MOL0     H69765   7.272   5.891   9.382  1.5525  2.3074  1.0459
  517MOL0     H69766   7.191   6.010   9.474  1.6805  0.3818 -1.1901
  517MOL0     H69767   7.138   5.708   9.477 -0.4163  0.9457 -1.4287
  517MOL0     H69768   7.085   5.798   9.602  2.0425 -3.2198  1.0845
  517MOL0     H69769   7.003   5.847   9.311  0.8973 -0.8029  0.1330
  517MOL0     H69770   6.990   5.976   9.435  1.1759  0.0555  0.4051
  517MOL0     H69771   6.784   5.881   9.411 -2.0312  0.0857  2.4568
  517MOL0     H69772   6.832   5.709   9.401 -5.1841  0.9111 -0.1080
  517MOL0     H69773   6.836   5.888   9.652  1.1832  0.1643 -1.3675
  517MOL0     H69774   6.887   5.718   9.652  2.1334  1.7134  0.1374
  517MOL0     H69775   6.650   5.662   9.573  0.9311  0.1926 -2.6437
  517MOL0     H69776   6.616   5.840   9.571 -0.4878 -1.1947 -1.1376
  517MOL0     H69777   7.673   5.791   9.288 -2.6054  2.8361 -2.3978
  517MOL0     H69778   7.915   5.842   9.207  1.8281  1.4464 -0.1293
  517MOL0     H69779   8.243   6.262   9.209  0.5838  0.5774  1.1539
  517MOL0     H69780   8.449   6.335   9.244  0.1041  1.0110  1.9625
  517MOL0     H69781  10.203   6.793   9.295  2.2275 -2.0421  1.9356
  517MOL0     H69782  10.415   6.742   9.174  3.8579  0.7027  1.4168
  517MOL0     H69783  10.711   6.969   8.751 -1.3746 -2.1656 -0.2780
  517MOL0     H69784  10.923   6.904   8.652  0.1456 -0.2191  0.4507
  517MOL0     H69785  11.084   6.759   8.608 -2.0635  2.0158 -0.4407
  517MOL0     H69786  11.149   6.921   8.610  0.3991 -1.3370 -3.0870
  517MOL0     H69787  11.381   6.868   8.656  1.1680  0.0582 -1.1211
  517MOL0     H69788  11.303   6.800   8.510  0.1268 -2.0337  0.8614
  517MOL0     H69789  11.277   6.588   8.629 -0.5460  1.5916 -0.3333
  517MOL0     H69790  11.345   6.663   8.776 -1.1370  0.4086 -0.0959
  517MOL0     H69791  11.500   6.623   8.507 -0.7021 -1.2876 -0.2877
  517MOL0     H69792  11.503   6.516   8.652 -0.0862 -0.3555 -0.0609
  517MOL0     H69793  11.778   6.828   8.741  0.3658  0.3693 -0.6080
  517MOL0     H69794  11.083   6.830   9.048 -0.0626  0.6825  1.0323
  517MOL0     H69795  10.832   6.885   9.147 -2.1370 -1.1297 -0.9751
  518MOL0     O69796   4.503   8.093   5.817  0.2892 -0.6465 -0.0292
  518MOL0     C69797   4.545   8.101   5.934 -0.7411 -0.0154 -0.0669
  518MOL0     O69798   4.471   8.134   6.044  0.7724  0.1664  0.4187
  518MOL0     C69799   4.339   8.106   6.040  0.6358 -0.6568 -0.0328
  518MOL0     C69800   4.244   8.194   5.975 -0.5611 -0.0724 -0.7679
  518MOL0     C69801   4.111   8.149   5.979  0.0611 -0.3266  0.2725
  518MOL0     C69802   4.071   8.032   6.039  0.3546  0.4906  0.6032
  518MOL0     O69803   3.933   8.001   6.021  0.0039 -0.3628 -0.4747
  518MOL0     C69804   3.899   7.860   6.051  0.6346 -0.5163  0.6711
  518MOL0     C69805   3.761   7.826   6.014 -0.7291  0.4354 -0.5281
  518MOL0     C69806   3.721   7.701   6.087 -0.2225 -0.0340 -0.2408
  518MOL0     C69807   3.581   7.662   6.057  0.8015  0.2243  0.1887
  518MOL0     C69808   3.561   7.509   6.067  0.2228  0.0988 -0.6328
  518MOL0     C69809   3.572   7.462   6.217  0.4958 -0.5774 -0.1564
  518MOL0     C69810   3.535   7.320   6.225 -0.1817 -0.0131  0.1492
  518MOL0     C69811   3.387   7.300   6.243  0.2346  0.1986  0.3893
  518MOL0     N69812   3.335   7.163   6.281  0.7752 -0.2639 -0.4377
  518MOL0     C69813   3.324   7.058   6.191  0.2249 -0.1924 -0.3433
  518MOL0     C69814   3.284   6.955   6.268 -0.4705 -0.4784  0.0955
  518MOL0     C69815   3.246   6.828   6.204  0.1407  0.2184 -0.4756
  518MOL0     C69816   3.097   6.819   6.175 -0.7546 -0.2017  0.1898
  518MOL0     C69817   3.010   6.816   6.310  0.3256  0.0814  1.3896
  518MOL0     C69818   2.863   6.782   6.271 -0.0425 -0.8539 -0.4951
  518MOL0     O69819   2.777   6.838   6.373 -0.0178 -0.9558  0.0068
  518MOL0     C69820   2.643   6.812   6.360 -0.9868 -0.1803  0.4161
  518MOL0     C69821   2.564   6.842   6.469 -0.7556 -0.9068  0.3774
  518MOL0     C69822   2.426   6.811   6.476  0.3131 -0.2782  0.6641
  518MOL0     C69823   2.358   6.838   6.605 -0.7521  0.2561 -0.0115
  518MOL0     C69824   2.366   6.791   6.356  0.1600 -0.5336 -0.0924
  518MOL0     C69825   2.223   6.805   6.346  0.8254  0.1250 -0.6050
  518MOL0     O69826   2.147   6.710   6.291  0.0461 -1.0284  0.3231
  518MOL0     C69827   2.013   6.715   6.306  0.4213 -0.1970 -1.2008
  518MOL0     C69828   1.929   6.703   6.192  0.1477 -0.2254 -0.1786
  518MOL0     C69829   1.793   6.711   6.205  1.4793 -0.7619 -0.3888
  518MOL0     C69830   1.737   6.727   6.336  0.2734  0.5710 -0.0418
  518MOL0     O69831   1.605   6.745   6.364 -0.3451  0.7106 -0.5265
  518MOL0     C69832   1.518   6.774   6.259  0.0561  0.3837 -0.7657
  518MOL0     C69833   1.387   6.825   6.316 -0.5023 -0.7993 -0.0459
  518MOL0     C69834   1.274   6.851   6.217 -1.0368  0.9190  0.8258
  518MOL0     C69835   1.141   6.878   6.287 -0.0373 -0.7009  0.1870
  518MOL0     C69836   1.076   6.767   6.383 -0.7934 -0.8099  0.0958
  518MOL0     C69837   0.929   6.801   6.403 -1.0285 -0.7502  0.0563
  518MOL0     C69838   0.861   6.679   6.465 -0.2182  0.0846  0.4672
  518MOL0     C69839   0.905   6.644   6.605 -0.4964 -0.2547  0.0417
  518MOL0    Cl69840   0.923   6.778   6.714 -0.4227 -0.3257 -0.2263
  518MOL0     C69841   1.815   6.737   6.443 -0.7046 -0.6214 -0.2007
  518MOL0     C69842   1.957   6.733   6.434 -0.0345 -0.0705 -1.4957
  518MOL0     O69843   2.189   6.911   6.381 -0.5298  0.0567 -0.4437
  518MOL0     C69844   2.436   6.735   6.258 -0.4086  0.4493  0.3583
  518MOL0     C69845   2.573   6.747   6.255  0.2758 -0.8762  0.2044
  518MOL0     N69846   3.277   6.995   6.399 -0.5792  0.4175  0.8993
  518MOL0     N69847   3.319   7.116   6.410  0.2862  0.2889 -1.4502
  518MOL0     C69848   4.170   7.951   6.095 -0.1473  0.3541  0.7704
  518MOL0     C69849   4.299   7.991   6.108 -0.4474  0.4250  0.2077
  518MOL0     C69850   4.690   8.119   5.950 -0.0997 -0.2742 -1.1418
  518MOL0     C69851   4.776   8.084   5.843 -0.3277 -1.1702 -0.2913
  518MOL0     C69852   4.908   8.111   5.857 -0.7859  0.6393  0.5944
  518MOL0     C69853   4.967   8.170   5.962 -0.1131  0.3748  0.0909
  518MOL0     O69854   5.107   8.188   5.975 -0.3207 -0.1721  0.2672
  518MOL0     C69855   5.208   8.154   5.875  0.8236 -0.5656  0.3633
  518MOL0     C69856   5.345   8.197   5.897  0.3813 -0.6164 -0.1527
  518MOL0     C69857   5.367   8.341   5.872  0.4599  1.0579 -0.0903
  518MOL0     C69858   5.513   8.385   5.902 -0.2400 -1.1153  0.8113
  518MOL0     C69859   5.539   8.530   5.893  0.5919  0.0157  0.5927
  518MOL0     C69860   5.567   8.646   5.888 -0.5998 -0.6949 -0.0113
  518MOL0     C69861   4.879   8.205   6.067 -0.1238 -0.7793  0.1451
  518MOL0     C69862   4.745   8.182   6.061  0.8811  0.9513 -0.0706
  518MOL0     H69863   4.281   8.281   5.922  3.2321 -2.1669 -1.8772
  518MOL0     H69864   4.044   8.208   5.918 -0.4775 -0.2632  0.9071
  518MOL0     H69865   3.969   7.807   5.986  0.1403  0.6184 -0.8489
  518MOL0     H69866   3.917   7.827   6.154 -2.9046 -1.2059  1.1974
  518MOL0     H69867   3.695   7.909   6.040  0.8319  1.2165  1.1333
  518MOL0     H69868   3.757   7.806   5.907 -1.7118  0.1101 -0.4412
  518MOL0     H69869   3.789   7.621   6.056  0.5966  0.9593 -1.1155
  518MOL0     H69870   3.727   7.700   6.196  0.2343 -1.7693 -0.2479
  518MOL0     H69871   3.526   7.715   6.135  0.0686 -0.3098  0.0424
  518MOL0     H69872   3.542   7.694   5.960  1.1248 -0.6013 -0.2217
  518MOL0     H69873   3.466   7.479   6.022  0.3857  0.7449 -1.4158
  518MOL0     H69874   3.636   7.450   6.014  0.4757  0.7080 -0.9606
  518MOL0     H69875   3.673   7.489   6.249 -0.5160  3.2730  0.3372
  518MOL0     H69876   3.509   7.521   6.284 -3.6416 -3.1798 -1.3576
  518MOL0     H69877   3.568   7.279   6.129 -0.4842  1.5994 -0.6787
  518MOL0     H69878   3.582   7.262   6.305  0.4959 -0.6509 -0.6908
  518MOL0     H69879   3.336   7.322   6.149  1.3799 -0.3075 -0.3701
  518MOL0     H69880   3.354   7.370   6.320 -2.2196  2.1971 -2.2574
  518MOL0     H69881   3.337   7.061   6.083  0.2605  3.5582 -0.3601
  518MOL0     H69882   3.303   6.827   6.111 -2.3502  0.1772 -2.1243
  518MOL0     H69883   3.273   6.750   6.276 -2.8902 -1.8345 -1.3657
  518MOL0     H69884   3.084   6.722   6.126  2.7919 -0.2667 -0.9084
  518MOL0     H69885   3.067   6.905   6.115  0.4179 -0.5691 -0.9716
  518MOL0     H69886   3.014   6.923   6.330 -3.6566  0.9843 -1.4305
  518MOL0     H69887   3.055   6.751   6.386  0.5895  0.6006  1.6814
  518MOL0     H69888   2.840   6.675   6.272 -1.6731 -0.5675 -2.1205
  518MOL0     H69889   2.824   6.834   6.183  2.2252  0.2459 -0.9236
  518MOL0     H69890   2.618   6.882   6.554  2.4370 -2.1487 -0.9191
  518MOL0     H69891   2.257   6.799   6.615  0.4842 -2.8181  1.8925
  518MOL0     H69892   2.408   6.776   6.680  0.0367 -0.7362 -1.3143
  518MOL0     H69893   2.364   6.946   6.618  0.5871 -0.0285  2.3733
  518MOL0     H69894   1.970   6.675   6.095 -0.3071 -3.7562  0.5119
  518MOL0     H69895   1.744   6.717   6.108  1.1698  0.3737 -0.1706
  518MOL0     H69896   1.565   6.843   6.189  1.8366  2.9909  2.7220
  518MOL0     H69897   1.495   6.691   6.191 -2.6807  0.1572  0.3061
  518MOL0     H69898   1.346   6.745   6.378  0.7943 -3.3509 -2.2724
  518MOL0     H69899   1.408   6.920   6.367  1.4683 -1.2237  0.0109
  518MOL0     H69900   1.265   6.766   6.149 -1.1462  1.5467  0.0444
  518MOL0     H69901   1.311   6.931   6.153  1.5498 -0.4438  0.4923
  518MOL0     H69902   1.153   6.971   6.344  2.4648 -0.5214 -0.5289
  518MOL0     H69903   1.072   6.905   6.206 -0.4637 -2.1879  0.0231
  518MOL0     H69904   1.132   6.765   6.477 -1.4189  1.1360  0.5439
  518MOL0     H69905   1.088   6.670   6.334  1.2075 -0.7498  0.3714
  518MOL0     H69906   0.921   6.899   6.451  1.8355 -0.9978  1.2271
  518MOL0     H69907   0.886   6.822   6.305  1.0081  0.0356 -0.7160
  518MOL0     H69908   0.878   6.586   6.410 -1.2701 -1.5601  2.7339
  518MOL0     H69909   0.753   6.694   6.473 -0.1019  0.3330  1.7867
  518MOL0     H69910   1.004   6.597   6.601 -1.3981 -2.4733  2.0472
  518MOL0     H69911   0.842   6.570   6.654  1.1435 -0.7879  1.4673
  518MOL0     H69912   1.776   6.757   6.542  3.9944 -0.5922  1.8991
  518MOL0     H69913   2.014   6.732   6.527  0.2340 -2.8650 -1.6109
  518MOL0     H69914   2.379   6.698   6.174  1.1479  0.2574 -0.6574
  518MOL0     H69915   2.631   6.715   6.169  1.1211  3.0898 -0.8888
  518MOL0     H69916   4.134   7.862   6.146  2.3194 -1.7952 -0.9888
  518MOL0     H69917   4.377   7.944   6.168 -0.2923  1.1944  0.6221
  518MOL0     H69918   4.743   8.032   5.754 -2.7547  0.9502 -0.7451
  518MOL0     H69919   4.961   8.087   5.766 -0.8695 -0.1870  0.7525
  518MOL0     H69920   5.209   8.044   5.872 -3.6711 -0.8667  2.2508
  518MOL0     H69921   5.173   8.183   5.776  0.2281  0.1561  0.7793
  518MOL0     H69922   5.417   8.141   5.836  1.9794  0.7014  0.4153
  518MOL0     H69923   5.374   8.169   5.999 -1.4387  2.2785  1.3049
  518MOL0     H69924   5.283   8.389   5.925 -0.7314 -4.1393  3.5726
  518MOL0     H69925   5.362   8.345   5.763  0.3673  0.2192 -0.1200
  518MOL0     H69926   5.578   8.335   5.830  0.6207  2.5912 -1.2343
  518MOL0     H69927   5.546   8.359   6.003  2.9487  1.8101  0.6847
  518MOL0     H69928   5.597   8.748   5.893  0.8499 -1.1287  0.6143
  518MOL0     H69929   4.923   8.234   6.162  1.7348 -1.7801 -0.3583
  518MOL0     H69930   4.690   8.192   6.154  0.4112 -1.7821  0.0494
  519MOL0     O69931   7.664   7.418   3.463  0.0610  0.3502  0.2186
  519MOL0     C69932   7.746   7.448   3.376  0.0804  0.1031  0.0902
  519MOL0     O69933   7.733   7.546   3.276 -0.9515 -1.1398 -0.8764
  519MOL0     C69934   7.617   7.605   3.256  0.3491  1.1257 -0.1077
  519MOL0     C69935   7.581   7.605   3.126 -0.0968  0.4898 -0.0644
  519MOL0     C69936   7.456   7.651   3.089  0.8402  0.1919  0.0286
  519MOL0     C69937   7.362   7.710   3.176 -0.6024  0.2185 -1.0594
  519MOL0     O69938   7.242   7.763   3.130 -0.0287  0.3179  0.5219
  519MOL0     C69939   7.149   7.815   3.226 -1.0731  0.4540  0.2101
  519MOL0     C69940   7.023   7.860   3.154 -1.1529 -0.0213 -1.2881
  519MOL0     C69941   6.913   7.757   3.131  0.3177  0.1704  0.0465
  519MOL0     C69942   6.903   7.743   2.976 -0.3263 -1.0850  0.8096
  519MOL0     C69943   6.785   7.652   2.934 -0.7704  0.7471 -1.0180
  519MOL0     C69944   6.755   7.676   2.779  0.3811 -0.2400 -0.3253
  519MOL0     C69945   6.665   7.564   2.719  1.1418  0.4377  0.3954
  519MOL0     C69946   6.524   7.573   2.771  0.3402 -0.1932  0.2424
  519MOL0     N69947   6.415   7.526   2.684 -0.2984 -0.0620 -0.5582
  519MOL0     C69948   6.288   7.587   2.688 -0.2280  0.0928  0.6902
  519MOL0     C69949   6.204   7.521   2.606 -0.1003  0.2133 -0.0943
  519MOL0     C69950   6.063   7.556   2.609  0.4452  0.0585  0.4198
  519MOL0     C69951   5.988   7.469   2.509  0.8136 -0.7445 -0.2602
  519MOL0     C69952   5.836   7.481   2.531 -0.5310  0.4230 -0.2801
  519MOL0     C69953   5.753   7.410   2.423  0.3666 -0.3587  0.9941
  519MOL0     O69954   5.771   7.274   2.458  0.1439 -0.5863  0.3803
  519MOL0     C69955   5.679   7.219   2.544  0.2259 -0.8552  0.2161
  519MOL0     C69956   5.717   7.169   2.670  0.0170 -0.2711  0.8331
  519MOL0     C69957   5.639   7.099   2.760  1.0789  0.0093  0.6955
  519MOL0     C69958   5.696   7.044   2.885 -0.6838  0.0740  0.9584
  519MOL0     C69959   5.503   7.095   2.742  0.3700 -0.5333  0.1248
  519MOL0     C69960   5.403   7.054   2.845 -0.1647  0.0699  0.3535
  519MOL0     O69961   5.278   7.036   2.799  0.5910 -0.4399 -0.6036
  519MOL0     C69962   5.176   7.014   2.881 -0.3251  0.0587  0.4721
  519MOL0     C69963   5.077   6.923   2.849  0.4950 -0.5513  0.0606
  519MOL0     C69964   4.954   6.909   2.917 -0.3404 -0.6525 -0.1376
  519MOL0     C69965   4.915   7.011   3.021 -0.2613 -0.5312  0.4490
  519MOL0     O69966   4.795   7.032   3.077  0.3170  1.1654  0.2713
  519MOL0     C69967   4.710   6.915   3.057  0.9170 -0.7349  0.7979
  519MOL0     C69968   4.571   6.954   3.096  1.5769  0.2194  0.0219
  519MOL0     C69969   4.447   6.877   3.025 -1.1503  0.6856 -0.4000
  519MOL0     C69970   4.424   6.725   3.080 -0.8235  0.8310  0.2953
  519MOL0     C69971   4.310   6.647   3.031 -0.1637 -0.1876  0.3819
  519MOL0     C69972   4.331   6.613   2.874  0.2179  0.3975 -0.2891
  519MOL0     C69973   4.235   6.508   2.831 -0.8101 -0.0469 -0.3360
  519MOL0     C69974   4.228   6.500   2.684  0.3330  0.0052  0.2066
  519MOL0    Cl69975   4.076   6.415   2.626 -0.0963 -0.0781  0.4485
  519MOL0     C69976   5.013   7.106   3.040 -0.8349  0.0705 -0.2275
  519MOL0     C69977   5.141   7.108   2.977 -0.2505  0.0233  0.0158
  519MOL0     O69978   5.436   7.030   2.965 -0.2602 -0.8014 -1.0114
  519MOL0     C69979   5.456   7.144   2.612  0.2541 -0.3972 -0.9473
  519MOL0     C69980   5.543   7.199   2.521  0.2311 -0.9296  1.0336
  519MOL0     N69981   6.290   7.414   2.553  0.2831  0.7154  0.0456
  519MOL0     N69982   6.417   7.428   2.595  0.7005  0.7943 -0.4810
  519MOL0     C69983   7.406   7.730   3.312 -0.0891 -0.1323  0.3651
  519MOL0     C69984   7.528   7.670   3.345 -0.0032 -0.1199  0.0911
  519MOL0     C69985   7.861   7.350   3.371  0.5134 -0.1193 -0.6601
  519MOL0     C69986   7.953   7.374   3.265 -0.1611  1.4085  0.0262
  519MOL0     C69987   8.042   7.271   3.231  0.2139  0.6720 -0.4834
  519MOL0     C69988   8.056   7.156   3.315  0.1341 -0.4250 -0.9709
  519MOL0     O69989   8.151   7.055   3.295 -0.2579  0.0968  0.1967
  519MOL0     C69990   8.193   7.032   3.162  0.4120  0.3434 -1.0065
  519MOL0     C69991   8.263   6.905   3.136  0.7347 -1.0070  0.3617
  519MOL0     C69992   8.393   6.889   3.228 -0.5358 -0.1471  0.1733
  519MOL0     C69993   8.487   6.766   3.203  0.5036  0.6677 -0.8479
  519MOL0     C69994   8.413   6.662   3.268  0.1017  0.6295 -0.5323
  519MOL0     C69995   8.346   6.586   3.330 -0.8134 -0.1532 -0.6177
  519MOL0     C69996   7.963   7.142   3.422 -0.6633 -0.2174 -0.1147
  519MOL0     C69997   7.868   7.232   3.447  0.0495 -0.0305  0.5496
  519MOL0     H69998   7.655   7.562   3.059 -1.7857 -0.8612 -1.1665
  519MOL0     H69999   7.428   7.655   2.985  1.9336  1.7417 -0.2327
  519MOL0     H70000   7.134   7.745   3.309 -0.1911  1.6706  1.4497
  519MOL0     H70001   7.194   7.906   3.267  1.9163 -0.4383 -0.8290
  519MOL0     H70002   6.981   7.945   3.209  0.4145 -0.1889  0.2517
  519MOL0     H70003   7.048   7.901   3.056 -2.5938  0.5737 -1.4315
  519MOL0     H70004   6.939   7.658   3.170 -3.4550  0.9854  5.8392
  519MOL0     H70005   6.819   7.779   3.180 -1.1092 -1.3177 -1.8496
  519MOL0     H70006   6.876   7.842   2.936 -0.7090 -1.4096  0.2528
  519MOL0     H70007   6.996   7.705   2.933 -1.7924 -5.2107  0.8681
  519MOL0     H70008   6.820   7.548   2.939  0.5875  1.1611 -1.5359
  519MOL0     H70009   6.692   7.653   2.992  1.4040 -2.0480  3.0522
  519MOL0     H70010   6.717   7.775   2.755  0.8078 -0.7649 -3.7057
  519MOL0     H70011   6.847   7.675   2.719  0.1892 -1.5836 -0.6338
  519MOL0     H70012   6.669   7.567   2.610 -2.7311 -0.6986  0.0712
  519MOL0     H70013   6.711   7.471   2.755  0.8808 -0.5270 -1.6510
  519MOL0     H70014   6.512   7.682   2.780  0.6094 -0.0525 -0.9144
  519MOL0     H70015   6.509   7.520   2.865 -0.1799 -0.0364  0.2509
  519MOL0     H70016   6.270   7.679   2.744 -1.4836  1.4010 -1.6733
  519MOL0     H70017   6.008   7.541   2.702 -1.4811  1.2743 -0.4618
  519MOL0     H70018   6.041   7.657   2.573 -1.2143 -1.0662 -1.9748
  519MOL0     H70019   6.031   7.370   2.526  2.9765 -0.4156 -3.1378
  519MOL0     H70020   6.024   7.496   2.410  1.0059 -2.8795 -0.8111
  519MOL0     H70021   5.808   7.586   2.526 -0.8431  0.3585  0.1125
  519MOL0     H70022   5.807   7.449   2.631 -0.5085  1.4554  0.0670
  519MOL0     H70023   5.804   7.430   2.328  1.4945  1.0817  1.8669
  519MOL0     H70024   5.645   7.428   2.414  0.8238  1.9424 -0.7961
  519MOL0     H70025   5.822   7.175   2.695 -0.1575 -2.9513  2.6664
  519MOL0     H70026   5.801   7.024   2.863 -1.0132 -0.2837 -0.4065
  519MOL0     H70027   5.690   7.117   2.966  2.3795  1.8494 -0.2624
  519MOL0     H70028   5.646   6.948   2.902 -0.0099 -0.5393 -0.3207
  519MOL0     H70029   5.095   6.863   2.761  1.3413  0.7025 -0.6562
  519MOL0     H70030   4.881   6.839   2.878 -1.0235 -0.1960  0.2906
  519MOL0     H70031   4.701   6.889   2.951  0.5652 -0.8943  0.8679
  519MOL0     H70032   4.744   6.823   3.106 -1.8033 -1.7894  0.8538
  519MOL0     H70033   4.560   6.929   3.202  0.5080  2.6996  0.5767
  519MOL0     H70034   4.553   7.061   3.084  1.7993  0.2763  0.1885
  519MOL0     H70035   4.460   6.873   2.917 -0.0596 -4.1376 -0.3181
  519MOL0     H70036   4.359   6.933   3.056 -0.6897 -0.0728  2.6566
  519MOL0     H70037   4.513   6.673   3.042 -0.2045  3.0205 -1.5233
  519MOL0     H70038   4.422   6.721   3.189  1.3011 -0.1379  0.3587
  519MOL0     H70039   4.219   6.698   3.064  0.2893 -0.1633  1.6475
  519MOL0     H70040   4.316   6.558   3.094 -2.4059  0.3669  1.4690
  519MOL0     H70041   4.314   6.702   2.812  0.7236 -0.3905 -1.5881
  519MOL0     H70042   4.435   6.582   2.857 -0.3855 -2.0900  0.1892
  519MOL0     H70043   4.134   6.537   2.864 -1.8758 -1.8093 -1.8350
  519MOL0     H70044   4.253   6.411   2.877 -0.6034 -0.4853 -1.3223
  519MOL0     H70045   4.315   6.438   2.661 -0.3945 -0.9187 -0.0886
  519MOL0     H70046   4.243   6.592   2.626  2.1245 -1.2155 -1.4130
  519MOL0     H70047   4.990   7.195   3.098  0.6734  2.3849 -2.9746
  519MOL0     H70048   5.209   7.190   2.999  2.7316 -2.3830  0.3991
  519MOL0     H70049   5.350   7.160   2.592  0.6783  1.7460 -1.6905
  519MOL0     H70050   5.495   7.246   2.435 -2.8768 -1.4821  2.3290
  519MOL0     H70051   7.356   7.784   3.392 -0.7519  1.5372 -1.1247
  519MOL0     H70052   7.560   7.676   3.449  2.5440 -2.2210 -0.4677
  519MOL0     H70053   7.952   7.472   3.219  0.1803  2.3047  1.8556
  519MOL0     H70054   8.109   7.274   3.146  0.9455 -1.3884 -0.0418
  519MOL0     H70055   8.124   7.050   3.079  0.6495  2.6254 -0.7745
  519MOL0     H70056   8.268   7.111   3.151  0.9051  0.4285  2.1541
  519MOL0     H70057   8.300   6.898   3.033  4.1884  0.4002  1.3623
  519MOL0     H70058   8.190   6.827   3.162 -0.5314  0.6765  2.1208
  519MOL0     H70059   8.360   6.903   3.331 -2.1991 -4.0682  0.3474
  519MOL0     H70060   8.451   6.982   3.229  2.1471 -1.7089 -0.2123
  519MOL0     H70061   8.585   6.774   3.253 -0.9957 -1.5415  2.8919
  519MOL0     H70062   8.482   6.756   3.095 -0.2045 -1.1715 -0.6729
  519MOL0     H70063   8.280   6.527   3.391 -0.7044  0.2210 -0.1264
  519MOL0     H70064   7.982   7.055   3.483  4.0271  1.2613  0.9575
  519MOL0     H70065   7.798   7.218   3.529  1.7919  2.6668  2.6473
  520MOL0     O70066   0.826   3.434   2.632 -0.0861 -0.5762  0.5884
  520MOL0     C70067   0.907   3.468   2.727  0.1314  0.7853 -0.2253
  520MOL0     O70068   0.900   3.417   2.857  0.4477  0.0461  0.2576
  520MOL0     C70069   0.804   3.319   2.882 -1.0541  0.5035 -0.4619
  520MOL0     C70070   0.739   3.342   2.999  0.2572  0.1662 -0.2738
  520MOL0     C70071   0.622   3.268   3.030  0.2578 -0.6701 -0.8380
  520MOL0     C70072   0.567   3.165   2.951  0.3091  1.0604  0.3562
  520MOL0     O70073   0.449   3.097   2.978 -0.0847  0.2232 -0.3313
  520MOL0     C70074   0.337   3.159   3.050 -0.4457 -0.0306 -0.0903
  520MOL0     C70075   0.205   3.097   3.030  0.0371 -0.1325  0.2600
  520MOL0     C70076   0.086   3.193   3.076 -0.1470  0.0270 -0.1084
  520MOL0     C70077  -0.049   3.169   3.004 -0.3654 -0.7408 -0.4883
  520MOL0     C70078  -0.156   3.269   3.051 -0.4607  0.5666  0.2829
  520MOL0     C70079  -0.225   3.220   3.181  0.5206  0.0601  0.0186
  520MOL0     C70080  -0.325   3.332   3.243 -0.4232  0.0147  0.3628
  520MOL0     C70081  -0.408   3.274   3.354  1.1711 -0.6858  0.1106
  520MOL0     N70082  -0.471   3.382   3.435  0.1264 -0.0788 -0.1362
  520MOL0     C70083  -0.395   3.469   3.502  0.1575 -0.5434  0.3974
  520MOL0     C70084  -0.474   3.525   3.591  0.3921 -0.5657 -0.1092
  520MOL0     C70085  -0.444   3.604   3.710 -0.6044 -0.2914  0.4728
  520MOL0     C70086  -0.304   3.558   3.775 -0.1549 -0.1779 -0.7777
  520MOL0     C70087  -0.277   3.664   3.875  0.0888 -0.6708 -0.3596
  520MOL0     C70088  -0.193   3.787   3.836  0.1335  0.5332 -0.3576
  520MOL0     O70089  -0.174   3.865   3.956 -0.2531 -0.0640  0.3030
  520MOL0     C70090  -0.087   3.973   3.945  0.3654  0.2128  0.4227
  520MOL0     C70091  -0.078   4.053   4.052 -0.5947 -0.3232 -0.6001
  520MOL0     C70092   0.011   4.156   4.057 -0.8952  0.7435 -0.3991
  520MOL0     C70093   0.024   4.227   4.191 -0.1350 -0.0154  0.1483
  520MOL0     C70094   0.108   4.175   3.955  0.5611 -0.0458 -0.4258
  520MOL0     C70095   0.222   4.263   3.959  1.4076  0.9313  0.5227
  520MOL0     O70096   0.291   4.293   4.079 -0.7103  0.3610  0.1251
  520MOL0     C70097   0.412   4.349   4.069  0.2198  0.1549 -0.6843
  520MOL0     C70098   0.520   4.265   4.089 -0.2585 -0.0878  0.1125
  520MOL0     C70099   0.652   4.314   4.069 -0.1039  0.4384  0.9092
  520MOL0     C70100   0.673   4.447   4.035 -0.0647 -0.1646 -0.1975
  520MOL0     O70101   0.793   4.504   4.028  0.0369  0.0554  0.1014
  520MOL0     C70102   0.880   4.492   4.138  0.9963  0.0882 -0.6244
  520MOL0     C70103   0.968   4.619   4.153  1.1152  0.1712  0.4725
  520MOL0     C70104   1.077   4.587   4.261  0.6391 -0.1614  0.4480
  520MOL0     C70105   1.173   4.699   4.304  0.3043  0.0943  0.5657
  520MOL0     C70106   1.250   4.758   4.190  0.1316 -0.9134 -0.1411
  520MOL0     C70107   1.343   4.662   4.123  0.4223  0.4553  0.1258
  520MOL0     C70108   1.472   4.716   4.067  0.0032 -0.4441 -0.2434
  520MOL0     C70109   1.558   4.788   4.167 -0.3227 -0.8672  0.3254
  520MOL0    Cl70110   1.688   4.862   4.074 -0.2366 -0.4443  0.2765
  520MOL0     C70111   0.559   4.532   4.009 -0.6947 -0.3429  0.1323
  520MOL0     C70112   0.431   4.482   4.034  0.5164  0.2009  0.4813
  520MOL0     O70113   0.248   4.315   3.849 -0.3931  0.0912  0.4757
  520MOL0     C70114   0.092   4.099   3.835  0.4994  0.1467 -0.7603
  520MOL0     C70115  -0.008   4.006   3.827  0.4242  0.0880  0.5461
  520MOL0     N70116  -0.607   3.483   3.569  0.2461  0.9251  0.1366
  520MOL0     N70117  -0.600   3.403   3.469  0.3598 -0.7796  0.0336
  520MOL0     C70118   0.641   3.135   2.834  1.0709 -0.3007 -0.0099
  520MOL0     C70119   0.762   3.208   2.808 -0.7944  0.4702  0.5653
  520MOL0     C70120   1.011   3.564   2.687 -0.1127 -0.1365 -0.3920
  520MOL0     C70121   1.107   3.600   2.780  0.2405  0.1663 -0.2456
  520MOL0     C70122   1.207   3.687   2.748  0.8564 -0.7151 -0.5825
  520MOL0     C70123   1.212   3.746   2.621  0.1200 -0.3808  0.0063
  520MOL0     O70124   1.302   3.840   2.583 -0.1005  0.3065 -0.0739
  520MOL0     C70125   1.405   3.871   2.675 -0.3387  0.4522  0.1118
  520MOL0     C70126   1.521   3.775   2.661  0.6098 -0.0650 -0.2445
  520MOL0     C70127   1.563   3.741   2.512 -0.0261  0.5209  0.3755
  520MOL0     C70128   1.585   3.874   2.427 -0.0403  0.6202  0.1793
  520MOL0     C70129   1.681   3.970   2.482  0.9873  0.2408  0.7325
  520MOL0     C70130   1.774   4.026   2.534 -0.3504 -0.1958  0.1016
  520MOL0     C70131   1.112   3.718   2.525 -1.2351 -0.4873 -0.1699
  520MOL0     C70132   1.019   3.620   2.561 -0.2727 -0.5463 -0.8430
  520MOL0     H70133   0.752   3.426   3.066 -1.5059  1.8139 -1.8764
  520MOL0     H70134   0.572   3.276   3.126 -1.4035 -0.5443 -1.6794
  520MOL0     H70135   0.372   3.135   3.150  1.1633  0.6168 -0.4701
  520MOL0     H70136   0.337   3.267   3.034  0.0280  0.3166  1.9943
  520MOL0     H70137   0.202   3.075   2.923 -1.0682 -2.2746  0.6764
  520MOL0     H70138   0.197   3.007   3.092 -2.2753 -0.0926  0.0873
  520MOL0     H70139   0.086   3.174   3.184  0.3582 -1.6310 -0.3745
  520MOL0     H70140   0.115   3.298   3.066  1.7209 -0.3420  0.9805
  520MOL0     H70141  -0.036   3.176   2.896  2.1647  0.5854 -0.1819
  520MOL0     H70142  -0.076   3.065   3.023 -1.2368 -0.5471 -0.6148
  520MOL0     H70143  -0.112   3.368   3.063  0.5330  0.3130 -1.1108
  520MOL0     H70144  -0.234   3.269   2.974 -2.3770  0.3904  2.1083
  520MOL0     H70145  -0.284   3.133   3.149 -0.1842  0.6635 -0.3554
  520MOL0     H70146  -0.156   3.187   3.259 -3.3027  0.1036  3.7556
  520MOL0     H70147  -0.274   3.418   3.286 -0.4617 -1.4033  3.5211
  520MOL0     H70148  -0.391   3.376   3.167 -0.1519  1.0931  0.7498
  520MOL0     H70149  -0.348   3.217   3.426  1.1697  2.0553  2.4604
  520MOL0     H70150  -0.483   3.204   3.315  1.6816  0.1591 -2.5710
  520MOL0     H70151  -0.287   3.480   3.493  0.2222  0.2354  1.8132
  520MOL0     H70152  -0.432   3.711   3.691 -0.3390 -0.5809 -1.0838
  520MOL0     H70153  -0.525   3.582   3.781 -0.6361 -1.4373  0.0972
  520MOL0     H70154  -0.222   3.562   3.702  2.0367 -0.8672  1.5189
  520MOL0     H70155  -0.323   3.462   3.824  1.1725 -1.3336 -2.4155
  520MOL0     H70156  -0.223   3.617   3.958 -0.3923  1.5663  1.3050
  520MOL0     H70157  -0.362   3.713   3.923  0.8114  1.0155 -0.7211
  520MOL0     H70158  -0.245   3.840   3.756  3.0217  2.9171 -0.8530
  520MOL0     H70159  -0.099   3.752   3.791 -0.6127 -0.4189 -1.2118
  520MOL0     H70160  -0.144   4.047   4.137 -0.5120  2.0124 -0.3076
  520MOL0     H70161  -0.076   4.230   4.236 -0.4938  2.5015 -0.6593
  520MOL0     H70162   0.092   4.167   4.253 -0.2094  0.0383  0.2803
  520MOL0     H70163   0.060   4.328   4.168 -1.0147  0.6089  1.4079
  520MOL0     H70164   0.497   4.159   4.101 -2.7827  0.4078  0.1687
  520MOL0     H70165   0.732   4.246   4.098 -0.7725 -0.0134  1.7276
  520MOL0     H70166   0.820   4.491   4.229  0.9717  1.9281 -0.5766
  520MOL0     H70167   0.939   4.401   4.122  0.4692 -0.4147  0.2247
  520MOL0     H70168   1.025   4.625   4.060  0.4396  1.4221  0.1210
  520MOL0     H70169   0.904   4.706   4.167 -2.1014 -1.8602 -0.4863
  520MOL0     H70170   1.138   4.507   4.219  3.3584  2.5139 -1.0402
  520MOL0     H70171   1.020   4.555   4.349  1.3999 -2.2087  0.2435
  520MOL0     H70172   1.123   4.772   4.368 -0.0387  0.1326  0.2581
  520MOL0     H70173   1.244   4.653   4.374  1.4909  0.3499 -0.4455
  520MOL0     H70174   1.313   4.838   4.231  2.4049 -3.4395  1.6409
  520MOL0     H70175   1.177   4.805   4.124 -0.7179  0.9362  1.9887
  520MOL0     H70176   1.371   4.578   4.188  1.5308  1.8962  1.5635
  520MOL0     H70177   1.290   4.624   4.035 -3.2376  2.5467  1.2247
  520MOL0     H70178   1.436   4.788   3.993  0.0291  1.8585  1.8432
  520MOL0     H70179   1.530   4.646   4.006 -0.1817  3.4554 -5.6109
  520MOL0     H70180   1.595   4.728   4.250 -1.3203 -3.3430 -0.9124
  520MOL0     H70181   1.504   4.869   4.217 -1.2916 -0.7714 -0.8339
  520MOL0     H70182   0.579   4.633   3.972  2.7785 -1.1298 -0.5510
  520MOL0     H70183   0.347   4.549   4.016  1.7851  1.7377  0.0045
  520MOL0     H70184   0.165   4.116   3.757  0.5201  0.9255 -0.5728
  520MOL0     H70185   0.005   3.943   3.739  1.4299 -2.1304  2.1656
  520MOL0     H70186   0.591   3.081   2.754  1.1272  2.0823 -1.7688
  520MOL0     H70187   0.813   3.175   2.718  0.4180  1.7422  0.7455
  520MOL0     H70188   1.103   3.560   2.881 -2.1495 -0.8839 -0.6796
  520MOL0     H70189   1.277   3.725   2.821  2.0656  0.3076 -2.2101
  520MOL0     H70190   1.445   3.966   2.639  2.5524 -1.0566 -0.9760
  520MOL0     H70191   1.376   3.887   2.779 -0.0161  1.2941  0.0794
  520MOL0     H70192   1.494   3.677   2.703 -0.9380  1.0929  1.6358
  520MOL0     H70193   1.609   3.810   2.717  2.7789 -0.8663 -2.9372
  520MOL0     H70194   1.494   3.674   2.461 -0.5255  1.3390 -0.0453
  520MOL0     H70195   1.651   3.677   2.522 -0.6414 -0.4403 -0.1899
  520MOL0     H70196   1.489   3.924   2.412 -1.7911 -2.2713  0.9443
  520MOL0     H70197   1.627   3.845   2.331  4.1403 -1.1467  2.3093
  520MOL0     H70198   1.849   4.082   2.586  1.0124 -1.8276 -0.0437
  520MOL0     H70199   1.118   3.764   2.427  1.6014 -1.3636 -0.4847
  520MOL0     H70200   0.946   3.589   2.487  0.3498 -2.9534 -0.5338
  521MOL0     O70201   9.331   0.000   4.344  0.9331 -0.1676 -0.2654
  521MOL0     C70202   9.397  -0.097   4.369 -0.8358 -0.6767  0.6936
  521MOL0     O70203   9.441  -0.138   4.486  1.0155 -0.7638 -0.4504
  521MOL0     C70204   9.389  -0.097   4.603  1.0134 -0.3850 -1.2882
  521MOL0     C70205   9.474  -0.033   4.698 -1.2996 -0.1281  0.4543
  521MOL0     C70206   9.422   0.011   4.820 -0.6318 -1.1714 -0.4095
  521MOL0     C70207   9.284   0.009   4.847  0.1723  0.1603 -0.5117
  521MOL0     O70208   9.240   0.081   4.960  0.4717 -0.3355  0.5103
  521MOL0     C70209   9.110   0.035   5.011 -0.7241 -0.0510  0.1167
  521MOL0     C70210   9.076   0.113   5.133 -0.3365  0.6721 -0.2913
  521MOL0     C70211   9.079   0.264   5.110  0.1525 -0.8140 -0.0086
  521MOL0     C70212   9.030   0.334   5.234  0.2520  0.6010  1.2510
  521MOL0     C70213   9.026   0.490   5.221 -0.6649  0.5890 -0.6463
  521MOL0     C70214   8.910   0.535   5.144  1.3141 -0.2622 -0.0950
  521MOL0     C70215   8.904   0.681   5.117  0.0408 -0.5008  0.7517
  521MOL0     C70216   8.777   0.723   5.047  0.7775 -0.1879  0.6110
  521MOL0     N70217   8.650   0.673   5.109 -0.0377 -0.5560  0.6734
  521MOL0     C70218   8.568   0.577   5.058 -0.3941 -0.1483  0.1215
  521MOL0     C70219   8.468   0.565   5.154 -0.0839 -0.9068  0.7110
  521MOL0     C70220   8.329   0.512   5.137  0.5878  0.6615 -0.0755
  521MOL0     C70221   8.296   0.414   5.253  0.0245 -0.2979 -0.3193
  521MOL0     C70222   8.197   0.485   5.348 -0.9032 -0.4145  0.5988
  521MOL0     C70223   8.053   0.448   5.302  0.0273  0.2772  1.1113
  521MOL0     O70224   7.947   0.504   5.388 -0.5792  0.0975  0.6000
  521MOL0     C70225   7.824   0.451   5.373  0.5985 -0.3567 -0.2206
  521MOL0     C70226   7.788   0.356   5.273 -0.1901 -0.0391 -0.4222
  521MOL0     C70227   7.663   0.290   5.280  0.1326 -0.2086 -0.1907
  521MOL0     C70228   7.617   0.195   5.167  0.0562  0.4213  0.3812
  521MOL0     C70229   7.568   0.334   5.379  0.2463  0.0080  0.1365
  521MOL0     C70230   7.423   0.289   5.377  0.7777 -0.0405 -0.2694
  521MOL0     O70231   7.400   0.157   5.378  0.0619 -0.5011 -0.6623
  521MOL0     C70232   7.268   0.123   5.389 -0.3445 -0.9886 -0.1461
  521MOL0     C70233   7.223   0.057   5.500  0.5361  0.4097  0.4078
  521MOL0     C70234   7.091   0.038   5.517  0.0021 -0.5592 -0.6379
  521MOL0     C70235   6.998   0.066   5.411  0.2200  1.8574  0.4506
  521MOL0     O70236   6.854   0.059   5.419 -0.4911 -0.4881 -0.7849
  521MOL0     C70237   6.798  -0.049   5.498  0.0402 -0.4473 -0.1877
  521MOL0     C70238   6.647  -0.077   5.489 -0.4793 -0.2253  0.4495
  521MOL0     C70239   6.596  -0.206   5.574 -0.2732  0.6349 -0.3108
  521MOL0     C70240   6.446  -0.237   5.585  0.8990  0.0527  0.1445
  521MOL0     C70241   6.420  -0.374   5.639  0.2084 -0.5576 -0.6990
  521MOL0     C70242   6.344  -0.376   5.780  0.0423  0.4358 -0.4360
  521MOL0     C70243   6.368  -0.503   5.851 -0.4531 -0.3998  0.5838
  521MOL0     C70244   6.323  -0.632   5.780 -0.5555 -0.7794  0.4901
  521MOL0    Cl70245   6.135  -0.634   5.760  0.0450 -0.0735 -0.1291
  521MOL0     C70246   7.050   0.106   5.292  0.4081  0.1391 -0.8545
  521MOL0     C70247   7.186   0.138   5.277 -1.2426 -0.0341 -0.0329
  521MOL0     O70248   7.341   0.382   5.396  0.1505  0.6403  0.0452
  521MOL0     C70249   7.605   0.436   5.469  0.0594 -0.1618 -0.2176
  521MOL0     C70250   7.732   0.486   5.472 -0.0850  0.6769  0.5911
  521MOL0     N70251   8.497   0.656   5.257 -0.0649 -0.0912  0.2897
  521MOL0     N70252   8.599   0.727   5.224  0.5482  0.7450 -0.3782
  521MOL0     C70253   9.198  -0.055   4.748 -0.2555  0.1482 -0.3385
  521MOL0     C70254   9.253  -0.111   4.630  0.6049  0.1141 -1.3793
  521MOL0     C70255   9.427  -0.194   4.260  0.2267  0.7032  0.1723
  521MOL0     C70256   9.394  -0.172   4.128 -0.1660 -1.0044  0.3174
  521MOL0     C70257   9.405  -0.262   4.022 -0.4014  1.0787  0.4365
  521MOL0     C70258   9.459  -0.390   4.046  0.4233 -0.2060  0.9338
  521MOL0     O70259   9.459  -0.494   3.952  0.9551  0.1360  0.0667
  521MOL0     C70260   9.393  -0.482   3.822 -0.4052 -0.0490 -0.1420
  521MOL0     C70261   9.248  -0.526   3.850  0.3293 -0.2646 -0.0236
  521MOL0     C70262   9.226  -0.676   3.878  0.4690 -0.1521 -0.0449
  521MOL0     C70263   9.088  -0.712   3.831  0.3541  1.0315 -0.2245
  521MOL0     C70264   8.991  -0.673   3.928  0.0009 -0.2164 -0.7896
  521MOL0     C70265   8.914  -0.659   4.023 -0.0279  0.3352 -0.2580
  521MOL0     C70266   9.498  -0.419   4.173 -0.2963 -0.1800 -0.1522
  521MOL0     C70267   9.486  -0.324   4.286 -0.0390 -0.3967  0.2884
  521MOL0     H70268   9.578  -0.006   4.680 -1.6339  0.9466  0.0825
  521MOL0     H70269   9.483   0.078   4.879  0.5958  0.2213 -3.1115
  521MOL0     H70270   9.030   0.042   4.938 -0.4594 -0.3417 -0.2070
  521MOL0     H70271   9.107  -0.071   5.039  1.9388 -0.4331 -0.6795
  521MOL0     H70272   8.976   0.085   5.167 -0.5876  1.4319 -0.3711
  521MOL0     H70273   9.143   0.088   5.216  0.4002 -2.4857 -1.7120
  521MOL0     H70274   9.179   0.302   5.090  2.4173 -4.7450  2.3886
  521MOL0     H70275   9.020   0.270   5.019  2.5188  0.9782 -1.5255
  521MOL0     H70276   8.929   0.303   5.264 -1.0104  2.0590 -1.1941
  521MOL0     H70277   9.103   0.316   5.314  4.1176  0.8317 -1.9468
  521MOL0     H70278   9.013   0.539   5.318  0.4160  0.5854 -0.4880
  521MOL0     H70279   9.124   0.526   5.189  0.6735 -3.4709 -1.7375
  521MOL0     H70280   8.909   0.485   5.047 -0.5517  1.2492 -0.9248
  521MOL0     H70281   8.823   0.488   5.191  0.4024 -2.6521 -3.7719
  521MOL0     H70282   8.931   0.746   5.201  2.3355  1.0768 -1.0855
  521MOL0     H70283   8.980   0.699   5.041 -1.2602  0.8180 -0.2878
  521MOL0     H70284   8.781   0.682   4.946  1.1956  0.6984  0.2567
  521MOL0     H70285   8.769   0.831   5.030 -1.9240 -0.3312  0.5503
  521MOL0     H70286   8.569   0.528   4.961  0.9097 -0.0053  0.0444
  521MOL0     H70287   8.248   0.586   5.129  0.4076  0.6518  1.3550
  521MOL0     H70288   8.330   0.450   5.047 -1.2369 -0.5716  0.6848
  521MOL0     H70289   8.390   0.389   5.305  1.7191  3.0244 -1.4753
  521MOL0     H70290   8.248   0.326   5.209  1.7018 -1.1469 -0.5369
  521MOL0     H70291   8.214   0.593   5.354 -1.5738 -0.3666  2.7776
  521MOL0     H70292   8.214   0.437   5.445  1.5749 -3.6942 -1.2444
  521MOL0     H70293   8.038   0.340   5.294  1.8665  0.0594 -0.1327
  521MOL0     H70294   8.047   0.496   5.204 -0.8192  1.0230  1.5287
  521MOL0     H70295   7.836   0.362   5.176 -0.4056  3.8098 -0.4504
  521MOL0     H70296   7.508   0.200   5.170 -0.2247  1.5952 -4.4606
  521MOL0     H70297   7.637   0.211   5.061 -0.4124 -2.7655 -0.2948
  521MOL0     H70298   7.659   0.100   5.200  0.8198  0.0574 -1.5471
  521MOL0     H70299   7.284   0.021   5.583 -0.7893 -2.1544  0.3511
  521MOL0     H70300   7.053   0.008   5.614 -2.8963 -3.9135 -2.5409
  521MOL0     H70301   6.852  -0.142   5.474 -1.5662 -1.4650 -0.0156
  521MOL0     H70302   6.822  -0.025   5.602  1.3439  2.0197 -0.9738
  521MOL0     H70303   6.593   0.015   5.515  1.4697  0.9861  0.3920
  521MOL0     H70304   6.632  -0.094   5.382  2.2039 -0.7527  0.0903
  521MOL0     H70305   6.645  -0.195   5.671  2.3050  1.0791 -1.5788
  521MOL0     H70306   6.643  -0.289   5.520  2.5332  2.6732 -1.1553
  521MOL0     H70307   6.403  -0.163   5.652 -0.1512 -1.1843  0.8774
  521MOL0     H70308   6.388  -0.237   5.492  0.2745 -2.1117  0.4908
  521MOL0     H70309   6.508  -0.439   5.638  2.0431  1.7380  1.1909
  521MOL0     H70310   6.365  -0.426   5.559  1.1752  0.7761 -2.3024
  521MOL0     H70311   6.374  -0.291   5.842 -0.2667  0.5402 -0.4278
  521MOL0     H70312   6.236  -0.364   5.767 -0.1896 -1.5125 -0.5987
  521MOL0     H70313   6.297  -0.504   5.934 -4.7734  1.1275 -2.7114
  521MOL0     H70314   6.473  -0.505   5.882 -0.4604  0.2314  0.6670
  521MOL0     H70315   6.351  -0.715   5.844  0.6500 -0.2946  0.6172
  521MOL0     H70316   6.377  -0.641   5.686  1.5381  1.8820  1.3124
  521MOL0     H70317   6.982   0.127   5.209  0.6553  0.9426 -0.8593
  521MOL0     H70318   7.240   0.170   5.189 -2.0324  1.4086 -0.0133
  521MOL0     H70319   7.536   0.473   5.544  0.7052  0.2881  0.1642
  521MOL0     H70320   7.757   0.558   5.550 -1.2729  1.2438  0.4691
  521MOL0     H70321   9.094  -0.075   4.775 -0.3016 -0.7453 -1.1231
  521MOL0     H70322   9.194  -0.174   4.564  1.2744 -2.0221 -0.0230
  521MOL0     H70323   9.355  -0.075   4.101 -2.4488 -1.8123  0.5403
  521MOL0     H70324   9.363  -0.223   3.931  0.4916 -0.2992 -0.6137
  521MOL0     H70325   9.398  -0.381   3.780 -1.5708 -1.3464 -3.8598
  521MOL0     H70326   9.456  -0.532   3.748  2.3833  2.2150  0.5010
  521MOL0     H70327   9.193  -0.509   3.757 -1.1441  2.1253  1.1820
  521MOL0     H70328   9.188  -0.454   3.906 -0.2111  0.3491 -1.3555
  521MOL0     H70329   9.244  -0.710   3.980  2.2481 -0.6794 -0.4987
  521MOL0     H70330   9.295  -0.729   3.812  0.9022 -0.4782  0.6600
  521MOL0     H70331   9.079  -0.821   3.836 -2.7494  1.2226  0.9561
  521MOL0     H70332   9.057  -0.682   3.730 -0.0341 -1.0974 -0.7876
  521MOL0     H70333   8.857  -0.658   4.114  0.1471  1.0530 -0.1533
  521MOL0     H70334   9.548  -0.511   4.198  0.1049 -0.2560 -1.1828
  521MOL0     H70335   9.540  -0.344   4.378  1.1438 -0.5654 -0.4132
  522MOL0     O70336   7.748   4.811  11.000  0.0571 -1.0820  0.7797
  522MOL0     C70337   7.827   4.845  10.915  0.5320 -0.6859 -0.4358
  522MOL0     O70338   7.788   4.881  10.786  1.1566 -0.6000  0.6234
  522MOL0     C70339   7.653   4.888  10.760  0.3697 -0.4418  0.5177
  522MOL0     C70340   7.571   4.977  10.827 -0.0430 -0.4757 -0.3893
  522MOL0     C70341   7.426   4.968  10.815  0.2312 -0.1155  0.3801
  522MOL0     C70342   7.367   4.886  10.724  0.7118 -0.6160 -0.4402
  522MOL0     O70343   7.229   4.869  10.696 -0.1357  0.1544  0.0436
  522MOL0     C70344   7.147   4.977  10.741  0.5186 -0.3042  0.4613
  522MOL0     C70345   7.010   4.943  10.671  1.0021 -0.2451 -0.2283
  522MOL0     C70346   6.971   4.790  10.677 -0.1177 -0.0362  0.9504
  522MOL0     C70347   6.821   4.766  10.641  0.5030  0.8111  0.1528
  522MOL0     C70348   6.791   4.625  10.672  1.1177  0.5392 -0.3047
  522MOL0     C70349   6.640   4.589  10.659  0.1725 -0.3373 -0.3177
  522MOL0     C70350   6.596   4.469  10.735  0.2474  0.2547 -0.0384
  522MOL0     C70351   6.671   4.342  10.676  0.2044 -1.0324  0.3546
  522MOL0     N70352   6.614   4.231  10.747 -0.1407 -0.6664  0.3269
  522MOL0     C70353   6.486   4.180  10.728 -0.1447 -0.1316  0.7472
  522MOL0     C70354   6.487   4.077  10.813 -0.5921  0.5639  0.0171
  522MOL0     C70355   6.375   3.978  10.828 -0.0991  0.2967 -0.0982
  522MOL0     C70356   6.269   4.036  10.936  0.6505  0.8331 -0.6098
  522MOL0     C70357   6.130   3.963  10.924  0.7625  0.6592 -0.2946
  522MOL0     C70358   6.023   4.060  10.869 -0.3047 -0.7670 -0.4999
  522MOL0     O70359   5.908   3.991  10.813  0.1236 -0.1739 -0.7020
  522MOL0     C70360   5.797   3.967  10.892  0.0778 -0.5170 -0.4299
  522MOL0     C70361   5.680   3.937  10.820  0.2232 -0.2369 -0.3606
  522MOL0     C70362   5.555   3.952  10.880  0.0513  0.4209  0.2002
  522MOL0     C70363   5.433   3.958  10.785  0.0630  0.9955 -0.3787
  522MOL0     C70364   5.544   3.965  11.022  0.2465  0.7246  0.2346
  522MOL0     C70365   5.417   3.949  11.102  0.9677  0.3301 -1.1557
  522MOL0     O70366   5.436   3.960  11.235  0.0038 -0.7418 -0.3055
  522MOL0     C70367   5.334   3.954  11.326 -0.3350 -0.4527  0.4262
  522MOL0     C70368   5.270   3.842  11.364  0.0414  0.0928 -0.2527
  522MOL0     C70369   5.173   3.855  11.474  0.1670 -0.0338  0.1430
  522MOL0     C70370   5.146   3.973  11.537 -1.1470 -0.5768 -0.8022
  522MOL0     O70371   5.050   3.993  11.630 -0.7267  0.6831 -0.2660
  522MOL0     C70372   4.912   3.966  11.585  0.3124  0.7856 -0.8060
  522MOL0     C70373   4.803   4.019  11.685 -0.7351 -0.4371  0.9364
  522MOL0     C70374   4.657   3.975  11.654  0.2953 -0.3597  0.4891
  522MOL0     C70375   4.557   4.038  11.742 -0.7606  0.5811 -0.4242
  522MOL0     C70376   4.410   4.001  11.715 -0.9981 -0.6210  0.4284
  522MOL0     C70377   4.347   4.064  11.582  0.3924  0.1298 -0.6809
  522MOL0     C70378   4.194   4.087  11.581  0.0086 -0.4934  0.0633
  522MOL0     C70379   4.127   4.117  11.437 -1.2075 -0.0580 -0.7677
  522MOL0    Cl70380   4.166   3.997  11.316  0.2956 -0.2054 -0.5297
  522MOL0     C70381   5.217   4.087  11.498 -0.5837 -0.0723 -1.2659
  522MOL0     C70382   5.321   4.078  11.405 -0.1517  0.7824  0.5976
  522MOL0     O70383   5.316   3.907  11.052  0.0055  0.0626 -0.1495
  522MOL0     C70384   5.663   4.001  11.086 -0.0425  0.8498 -0.3264
  522MOL0     C70385   5.786   4.002  11.025 -0.1018  0.2218  0.5220
  522MOL0     N70386   6.590   4.075  10.901 -0.2036  0.3625  0.5863
  522MOL0     N70387   6.670   4.165  10.854  0.0060  0.1441 -0.0982
  522MOL0     C70388   7.456   4.797  10.652  1.4516 -0.1825  0.8077
  522MOL0     C70389   7.591   4.803  10.669 -0.3891 -0.1404 -0.1670
  522MOL0     C70390   7.964   4.839  10.938  0.2433 -0.2937 -0.1833
  522MOL0     C70391   8.056   4.916  10.859  0.5236 -0.3981 -0.0073
  522MOL0     C70392   8.191   4.915  10.891  0.4583 -0.2866 -0.8285
  522MOL0     C70393   8.245   4.840  10.994 -0.8484 -0.9763  0.0148
  522MOL0     O70394   8.374   4.818  11.030  0.1523  0.0675 -0.2945
  522MOL0     C70395   8.471   4.824  10.926  0.4586 -0.9359  0.4547
  522MOL0     C70396   8.612   4.811  10.972  0.5955  0.7521  0.4764
  522MOL0     C70397   8.630   4.677  11.042 -0.2023  1.4676 -0.3436
  522MOL0     C70398   8.777   4.642  11.048  0.1723 -0.6951 -0.7314
  522MOL0     C70399   8.841   4.711  11.163 -0.5567 -0.1339 -0.7908
  522MOL0     C70400   8.892   4.770  11.248  0.2278 -0.6323 -0.1796
  522MOL0     C70401   8.160   4.767  11.072 -0.1873 -0.1295 -0.9367
  522MOL0     C70402   8.020   4.773  11.052 -0.0667  0.2113  0.5813
  522MOL0     H70403   7.608   5.047  10.901  1.5954 -1.9708  0.2621
  522MOL0     H70404   7.368   5.031  10.882  0.7265 -2.4778  3.2231
  522MOL0     H70405   7.157   4.966  10.850 -0.0861 -0.2028  0.5322
  522MOL0     H70406   7.182   5.075  10.707  1.4722 -1.1463 -1.0778
  522MOL0     H70407   6.937   5.011  10.715  0.6554 -0.1782 -0.8898
  522MOL0     H70408   7.025   4.976  10.567  4.1556  0.3016  0.3076
  522MOL0     H70409   7.039   4.733  10.613  1.8703  3.4845 -0.3800
  522MOL0     H70410   6.986   4.754  10.779  2.8404  0.5272  0.7887
  522MOL0     H70411   6.752   4.824  10.703 -1.2295 -1.7684  0.7953
  522MOL0     H70412   6.805   4.793  10.536  3.8667  4.5395  0.3490
  522MOL0     H70413   6.843   4.562  10.599  0.4665 -2.7552  1.8481
  522MOL0     H70414   6.832   4.607  10.772  1.6456 -1.0408 -0.7724
  522MOL0     H70415   6.580   4.672  10.697  0.0150 -0.5697 -0.0623
  522MOL0     H70416   6.607   4.577  10.555  0.0693  1.2777 -0.5014
  522MOL0     H70417   6.617   4.492  10.840 -0.4457  0.1906  0.1202
  522MOL0     H70418   6.489   4.448  10.732  0.5776 -2.1011  1.6348
  522MOL0     H70419   6.778   4.347  10.702  0.6173 -1.3165 -1.2115
  522MOL0     H70420   6.663   4.344  10.567  0.4757  1.5841  0.3030
  522MOL0     H70421   6.403   4.187  10.658 -3.0613 -0.7409  3.8810
  522MOL0     H70422   6.330   3.948  10.733  1.5617  2.2626 -1.5905
  522MOL0     H70423   6.411   3.882  10.867 -0.1648 -0.8867 -2.7298
  522MOL0     H70424   6.252   4.144  10.932  1.4905  1.0308  0.5916
  522MOL0     H70425   6.311   4.009  11.034 -0.9287 -0.9423 -0.3470
  522MOL0     H70426   6.096   3.933  11.023 -1.4956  1.2341 -0.8284
  522MOL0     H70427   6.124   3.890  10.843  0.6753  0.0752  0.2398
  522MOL0     H70428   6.065   4.104  10.778  0.0978 -1.0327 -0.4428
  522MOL0     H70429   5.998   4.138  10.941  0.7265 -2.3543  1.6722
  522MOL0     H70430   5.692   3.907  10.716 -1.8038  1.2300 -1.0985
  522MOL0     H70431   5.461   3.999  10.687 -3.7732  3.0482 -0.8172
  522MOL0     H70432   5.397   3.856  10.767 -0.5541  1.4552 -1.9295
  522MOL0     H70433   5.355   4.027  10.819 -0.1025  0.3673  0.5454
  522MOL0     H70434   5.284   3.757  11.298  0.7366  2.3073 -3.1871
  522MOL0     H70435   5.123   3.763  11.502  0.6870  0.0731  1.4767
  522MOL0     H70436   4.906   4.019  11.490  1.6526  0.2493 -1.2104
  522MOL0     H70437   4.900   3.860  11.564  1.8514  1.0504 -3.4960
  522MOL0     H70438   4.826   3.995  11.789  0.9466  1.8348  1.1528
  522MOL0     H70439   4.813   4.127  11.680  2.5086 -0.6984 -1.9369
  522MOL0     H70440   4.658   3.867  11.669 -1.6177 -0.1984  2.2186
  522MOL0     H70441   4.626   3.973  11.549  3.5674 -2.6225 -0.5709
  522MOL0     H70442   4.591   4.023  11.845 -0.8024 -2.2376 -0.7604
  522MOL0     H70443   4.560   4.142  11.707  1.5020 -0.1165 -2.5709
  522MOL0     H70444   4.362   4.037  11.806 -1.6468  0.2096 -0.2205
  522MOL0     H70445   4.405   3.892  11.706  2.4683 -0.8513  0.0511
  522MOL0     H70446   4.398   4.160  11.567 -1.0040  1.3621  1.8823
  522MOL0     H70447   4.386   4.005  11.499 -2.1344 -1.2536 -0.9855
  522MOL0     H70448   4.178   4.169  11.652  2.7792  0.0812  0.1276
  522MOL0     H70449   4.141   4.000  11.623 -0.3008  0.9406  2.9202
  522MOL0     H70450   4.169   4.211  11.401  1.5723 -0.8841  0.0612
  522MOL0     H70451   4.020   4.136  11.449 -1.5150 -0.5097 -2.4930
  522MOL0     H70452   5.186   4.179  11.546  0.4006  0.1869 -1.1066
  522MOL0     H70453   5.364   4.173  11.374 -1.1153  1.3892  1.0497
  522MOL0     H70454   5.657   4.022  11.192 -0.4748  1.6447 -0.4972
  522MOL0     H70455   5.875   4.031  11.080  0.3409  2.3462 -1.1872
  522MOL0     H70456   7.405   4.727  10.586  0.6442 -0.3768  1.6227
  522MOL0     H70457   7.645   4.720  10.626 -1.8089 -1.5106  0.5574
  522MOL0     H70458   8.019   4.981  10.781 -1.2231  0.0776  1.1525
  522MOL0     H70459   8.245   4.990  10.834 -0.5077 -0.6735 -2.3053
  522MOL0     H70460   8.450   4.742  10.857  3.0866 -0.1004 -1.4953
  522MOL0     H70461   8.453   4.914  10.866 -1.2341 -3.5835 -3.4090
  522MOL0     H70462   8.650   4.890  11.037 -0.8601  0.3891  1.8385
  522MOL0     H70463   8.675   4.799  10.883  2.1949  2.0485  1.3696
  522MOL0     H70464   8.588   4.601  10.975  0.8646  1.7431 -1.3405
  522MOL0     H70465   8.589   4.670  11.143  2.5315 -3.7855  0.7567
  522MOL0     H70466   8.826   4.687  10.961 -0.9472  0.1329 -0.9609
  522MOL0     H70467   8.787   4.533  11.052 -3.6527 -1.1453  1.1935
  522MOL0     H70468   8.924   4.823  11.335  2.9622 -4.3426  1.3383
  522MOL0     H70469   8.207   4.693  11.136  1.1561  0.2418 -1.4562
  522MOL0     H70470   7.955   4.725  11.125 -0.7446  0.1558 -0.0470
  523MOL0     O70471   6.163   7.186   4.966  0.2816 -0.4711  1.0018
  523MOL0     C70472   6.085   7.100   5.012  0.2410 -0.4112  0.7041
  523MOL0     O70473   5.987   7.022   4.936 -0.1842  0.0290 -0.6719
  523MOL0     C70474   5.976   7.036   4.803 -0.3514  0.4234  0.4666
  523MOL0     C70475   5.849   7.032   4.740  0.0301 -0.6356  0.1132
  523MOL0     C70476   5.834   7.042   4.600 -0.0566 -0.9211 -0.0325
  523MOL0     C70477   5.952   7.026   4.523 -0.1873  0.3698 -0.2725
  523MOL0     O70478   5.931   7.019   4.386  0.2608  0.1006 -0.0612
  523MOL0     C70479   6.041   7.057   4.300  0.1246  0.3606  0.9048
  523MOL0     C70480   6.007   7.020   4.149  0.3321  0.0643 -0.1730
  523MOL0     C70481   6.119   7.071   4.062 -0.7901  0.1659 -0.9332
  523MOL0     C70482   6.078   7.046   3.916  0.0177 -0.1326  0.0625
  523MOL0     C70483   6.169   7.111   3.813  0.3076 -0.2164 -0.4522
  523MOL0     C70484   6.155   7.267   3.826  0.0247  0.8045 -0.1106
  523MOL0     C70485   6.238   7.351   3.730 -0.7098 -0.5656 -1.3061
  523MOL0     C70486   6.203   7.330   3.588 -0.2059 -0.4351 -1.0348
  523MOL0     N70487   6.070   7.302   3.540  0.1990  0.6056 -0.7432
  523MOL0     C70488   5.957   7.375   3.553  0.6314  0.0294 -0.8510
  523MOL0     C70489   5.865   7.308   3.489 -0.1058  0.5279 -0.1112
  523MOL0     C70490   5.726   7.360   3.478 -0.0473 -0.6274 -0.5400
  523MOL0     C70491   5.610   7.263   3.487  0.3119  0.1007  0.7381
  523MOL0     C70492   5.576   7.190   3.361 -0.7506  0.0431 -0.3278
  523MOL0     C70493   5.429   7.146   3.377  0.5610 -0.2769 -0.5816
  523MOL0     O70494   5.327   7.252   3.369 -0.1210  0.0579  0.3034
  523MOL0     C70495   5.197   7.217   3.403 -0.2483 -0.2625 -0.2478
  523MOL0     C70496   5.148   7.087   3.380 -0.1265 -0.0349  0.1499
  523MOL0     C70497   5.022   7.050   3.418  1.1710 -0.3361 -1.1645
  523MOL0     C70498   4.983   6.904   3.377  0.1126  0.0527  0.2213
  523MOL0     C70499   4.943   7.137   3.494 -0.1210 -0.2176 -0.2448
  523MOL0     C70500   4.814   7.100   3.566 -0.1789  0.6102  0.6480
  523MOL0     O70501   4.708   7.189   3.573 -0.3513 -0.0739 -0.0109
  523MOL0     C70502   4.701   7.285   3.482  0.7163  0.3298  0.5153
  523MOL0     C70503   4.701   7.259   3.337 -0.1670  0.6103  0.9716
  523MOL0     C70504   4.707   7.353   3.235  0.2638 -0.2008  0.9528
  523MOL0     C70505   4.709   7.488   3.271 -0.2601  0.2782  0.3251
  523MOL0     O70506   4.732   7.586   3.170 -0.1452  0.1722 -0.3825
  523MOL0     C70507   4.794   7.713   3.208  0.0469  0.2317 -0.0219
  523MOL0     C70508   4.699   7.823   3.168 -0.0205  0.0006  0.9942
  523MOL0     C70509   4.567   7.817   3.239 -0.0443  0.5934 -0.5091
  523MOL0     C70510   4.470   7.916   3.182  0.1261  0.2370  0.0118
  523MOL0     C70511   4.335   7.890   3.249  0.2161  1.3618  0.1831
  523MOL0     C70512   4.224   7.982   3.195 -0.4134  0.0333  0.4701
  523MOL0     C70513   4.202   7.962   3.052 -0.6876  0.6423  0.4336
  523MOL0     C70514   4.083   8.037   3.009 -0.2072  0.1892  0.2402
  523MOL0    Cl70515   4.042   8.008   2.842 -0.3112  0.2187  0.1119
  523MOL0     C70516   4.696   7.520   3.412 -0.2765  0.0080 -0.2384
  523MOL0     C70517   4.692   7.420   3.513 -0.2432 -1.3305  0.1264
  523MOL0     O70518   4.828   7.003   3.639 -0.2607 -0.1200 -0.2457
  523MOL0     C70519   4.988   7.267   3.516 -1.2103 -0.1076  0.6131
  523MOL0     C70520   5.115   7.314   3.461  0.3180  0.1608  0.2358
  523MOL0     N70521   5.911   7.180   3.447 -0.6132 -0.0689  0.0990
  523MOL0     N70522   6.040   7.186   3.474  0.3639  0.6493  0.0338
  523MOL0     C70523   6.075   7.034   4.585 -0.5729  0.0016 -0.4391
  523MOL0     C70524   6.091   7.053   4.719 -0.2635 -0.1975  0.1323
  523MOL0     C70525   6.096   7.074   5.153  0.1204  0.0562 -0.2576
  523MOL0     C70526   6.054   6.940   5.203  0.3566 -0.3803  0.1492
  523MOL0     C70527   6.081   6.902   5.334  0.1815  0.1031 -0.3187
  523MOL0     C70528   6.126   6.992   5.428 -0.5397 -0.4384 -0.0284
  523MOL0     O70529   6.143   6.971   5.569 -0.1557 -0.3953 -0.2537
  523MOL0     C70530   6.115   6.848   5.627 -0.7153 -0.1278  0.3324
  523MOL0     C70531   5.971   6.832   5.678  0.4934  0.3797  0.2306
  523MOL0     C70532   5.925   6.953   5.765  0.4340 -1.0321  0.7949
  523MOL0     C70533   5.882   6.904   5.903  1.1042  0.6744 -0.0054
  523MOL0     C70534   6.007   6.873   5.983  0.4015 -0.3957  0.7784
  523MOL0     C70535   6.108   6.860   6.040  0.1630  0.6857 -0.0381
  523MOL0     C70536   6.153   7.124   5.381  0.0584  0.8540 -0.1271
  523MOL0     C70537   6.146   7.161   5.247 -1.0915 -0.4456  0.2249
  523MOL0     H70538   5.762   7.029   4.804  0.5653  0.7117  0.9419
  523MOL0     H70539   5.734   7.035   4.557 -0.1354 -1.3026  0.2033
  523MOL0     H70540   6.052   7.165   4.311  2.0739  0.7757 -3.1502
  523MOL0     H70541   6.141   7.021   4.326  0.3024 -1.8959 -2.2535
  523MOL0     H70542   5.985   6.914   4.137 -1.4823  0.5309 -1.4243
  523MOL0     H70543   5.909   7.065   4.133  0.2930 -0.5635 -1.9338
  523MOL0     H70544   6.123   7.178   4.081  2.2616 -0.1860  0.9820
  523MOL0     H70545   6.216   7.024   4.080 -0.2022  1.5783 -0.2963
  523MOL0     H70546   6.068   6.938   3.905 -1.5606 -0.1744  1.3477
  523MOL0     H70547   5.980   7.085   3.885  1.2529  1.1477 -2.5225
  523MOL0     H70548   6.272   7.080   3.831 -0.9221 -2.4700  4.2917
  523MOL0     H70549   6.130   7.086   3.713 -0.6836 -2.7936  0.4892
  523MOL0     H70550   6.052   7.298   3.844 -0.1053  0.1220  0.3837
  523MOL0     H70551   6.204   7.290   3.922 -0.1523 -0.2148  0.2376
  523MOL0     H70552   6.208   7.455   3.745 -3.0247 -0.9730 -2.6081
  523MOL0     H70553   6.347   7.349   3.741 -0.7040  1.0400 -0.8376
  523MOL0     H70554   6.277   7.257   3.555  0.8166 -0.1378  0.4842
  523MOL0     H70555   6.234   7.422   3.536  1.2816 -0.7523 -0.7640
  523MOL0     H70556   5.947   7.464   3.614 -1.4887 -0.6949 -0.0435
  523MOL0     H70557   5.718   7.417   3.571  0.6313 -3.5057  1.4217
  523MOL0     H70558   5.720   7.420   3.387 -2.5780  0.2200  0.0894
  523MOL0     H70559   5.518   7.317   3.509  0.8192  0.7064  1.4652
  523MOL0     H70560   5.628   7.189   3.565  3.9618 -0.6534 -0.5887
  523MOL0     H70561   5.651   7.110   3.362 -1.3299 -0.5308 -1.1471
  523MOL0     H70562   5.578   7.256   3.273 -2.1548  0.8612  0.2264
  523MOL0     H70563   5.422   7.103   3.478 -0.5576 -0.6875 -0.8113
  523MOL0     H70564   5.411   7.058   3.313  1.4176 -2.7354  2.3020
  523MOL0     H70565   5.208   7.019   3.320  0.5748  1.1640 -0.5546
  523MOL0     H70566   4.933   6.843   3.454  0.9574 -0.5590  0.2962
  523MOL0     H70567   4.919   6.913   3.288  3.0715 -0.2175 -2.0815
  523MOL0     H70568   5.077   6.855   3.349  1.3361  1.4343  1.7503
  523MOL0     H70569   4.700   7.153   3.315  0.8493  0.5753  1.0358
  523MOL0     H70570   4.718   7.328   3.131 -0.6518 -0.8571  0.9988
  523MOL0     H70571   4.817   7.712   3.315  2.3686 -3.6520 -0.3609
  523MOL0     H70572   4.890   7.716   3.156 -0.2817  0.5802 -0.6193
  523MOL0     H70573   4.750   7.920   3.173  0.7856 -0.3916  0.4379
  523MOL0     H70574   4.679   7.801   3.063  2.0122 -1.3628  0.8484
  523MOL0     H70575   4.589   7.822   3.346  0.1700 -2.5284 -0.3049
  523MOL0     H70576   4.510   7.724   3.228 -0.5835  0.6448  1.4452
  523MOL0     H70577   4.493   8.021   3.200  0.8604  0.1877 -0.5895
  523MOL0     H70578   4.473   7.896   3.074  1.0085 -2.9261  0.5175
  523MOL0     H70579   4.357   7.910   3.354 -0.0629 -2.2989  1.0646
  523MOL0     H70580   4.298   7.788   3.231  1.3868  0.6595  1.5619
  523MOL0     H70581   4.136   7.953   3.253 -0.8041 -0.3078 -0.2899
  523MOL0     H70582   4.258   8.082   3.224  2.6627 -0.7925  0.0641
  523MOL0     H70583   4.194   7.853   3.048  3.2575  0.1501  1.7058
  523MOL0     H70584   4.289   7.997   2.996 -0.7698 -1.3315 -1.0500
  523MOL0     H70585   4.078   8.146   3.018 -4.5071  0.1987 -0.1307
  523MOL0     H70586   4.001   7.993   3.066 -1.7186  2.3277 -0.1464
  523MOL0     H70587   4.690   7.623   3.443  1.8100  0.2092 -0.3895
  523MOL0     H70588   4.677   7.445   3.617  0.4249  1.3912 -0.3496
  523MOL0     H70589   4.940   7.340   3.581  0.2667 -1.0445  2.8922
  523MOL0     H70590   5.162   7.410   3.481  0.7387 -0.2181  1.1698
  523MOL0     H70591   6.166   7.026   4.525 -0.8266 -1.8456 -0.6550
  523MOL0     H70592   6.183   7.067   4.775  0.4400 -2.3616 -0.3957
  523MOL0     H70593   6.016   6.854   5.147  0.6857  0.2909 -1.1400
  523MOL0     H70594   6.049   6.801   5.356  2.5100 -1.0354 -1.7656
  523MOL0     H70595   6.150   6.768   5.562  1.8245  0.8249  0.4244
  523MOL0     H70596   6.192   6.841   5.705  0.1568 -2.4843 -0.6633
  523MOL0     H70597   5.956   6.736   5.728  0.1594  0.0005 -0.5857
  523MOL0     H70598   5.907   6.837   5.589  2.9301 -0.6715 -1.6876
  523MOL0     H70599   5.834   6.994   5.718  0.0300 -1.6782  1.0031
  523MOL0     H70600   6.001   7.031   5.768  0.0514 -0.3693 -2.6226
  523MOL0     H70601   5.823   6.813   5.893  0.5152  1.2261 -1.9284
  523MOL0     H70602   5.818   6.981   5.948  0.0517  1.6564 -2.9453
  523MOL0     H70603   6.182   6.836   6.114  0.0847  1.1854  0.2054
  523MOL0     H70604   6.202   7.184   5.457  0.4076 -0.8776  1.0891
  523MOL0     H70605   6.180   7.259   5.215  0.7314 -1.1811 -0.2081
  524MOL0     O70606   6.486   4.523  10.242 -0.0074  0.2356 -0.2966
  524MOL0     C70607   6.574   4.455  10.283 -0.2465  0.4903 -0.1686
  524MOL0     O70608   6.567   4.319  10.322 -0.5509 -0.1167  0.6708
  524MOL0     C70609   6.458   4.240  10.345 -0.0377  0.5205  0.3612
  524MOL0     C70610   6.332   4.297  10.368  0.0108 -0.3862 -0.0169
  524MOL0     C70611   6.217   4.219  10.390 -0.4628 -0.2349  0.5151
  524MOL0     C70612   6.228   4.085  10.422 -0.4554  0.0969 -0.6052
  524MOL0     O70613   6.127   4.000  10.449 -0.0936 -0.8698  0.1184
  524MOL0     C70614   5.999   4.058  10.480  0.9925 -0.0563  0.6624
  524MOL0     C70615   5.897   3.948  10.516 -0.4233 -0.2087 -0.6126
  524MOL0     C70616   5.815   3.905  10.400 -0.8273  0.5534 -0.2534
  524MOL0     C70617   5.903   3.817  10.321 -0.1275  0.5438  0.3406
  524MOL0     C70618   5.825   3.711  10.236  0.4381 -0.4874  0.2567
  524MOL0     C70619   5.761   3.785  10.110 -0.9057 -0.1522 -0.1506
  524MOL0     C70620   5.689   3.667  10.033 -1.0175 -1.0673 -0.8735
  524MOL0     C70621   5.564   3.611  10.090 -0.0184  0.0633  1.6841
  524MOL0     N70622   5.456   3.709  10.105 -0.1694  0.3742 -0.1821
  524MOL0     C70623   5.389   3.797  10.011  0.4145  0.2354  0.2915
  524MOL0     C70624   5.315   3.874  10.083 -0.0239  0.0697 -0.3327
  524MOL0     C70625   5.237   3.980  10.019  0.2769  0.1979  0.0998
  524MOL0     C70626   5.261   4.028   9.885 -0.7834 -0.5400  0.7188
  524MOL0     C70627   5.150   4.115   9.826 -0.3106  0.0926 -0.0795
  524MOL0     C70628   5.019   4.043   9.777 -0.2390  0.4420  0.0686
  524MOL0     O70629   4.941   4.130   9.685  0.6541 -0.2541 -0.0390
  524MOL0     C70630   4.815   4.082   9.642  0.0805 -0.5133  0.2898
  524MOL0     C70631   4.750   4.157   9.546  0.3127 -0.2852  0.2887
  524MOL0     C70632   4.616   4.146   9.504  0.5613  0.3881  0.6438
  524MOL0     C70633   4.546   4.251   9.420 -0.2263  0.0328 -0.3907
  524MOL0     C70634   4.550   4.027   9.552  0.1845 -0.0344 -0.2072
  524MOL0     C70635   4.407   3.990   9.525  0.4770 -0.3344  0.4286
  524MOL0     O70636   4.303   4.077   9.565 -0.0253 -0.3669  0.2029
  524MOL0     C70637   4.171   4.044   9.549 -0.2915 -0.3339  0.1472
  524MOL0     C70638   4.094   4.134   9.475  0.4749  1.1466 -0.8772
  524MOL0     C70639   3.957   4.110   9.464  0.2831  0.0980 -0.3402
  524MOL0     C70640   3.905   4.005   9.536  0.0619 -0.4302  0.6698
  524MOL0     O70641   3.763   3.989   9.534  0.2198  0.9129  0.2509
  524MOL0     C70642   3.710   3.882   9.614 -1.0462  1.4863  0.1844
  524MOL0     C70643   3.566   3.870   9.586  0.6213 -0.2086 -0.2553
  524MOL0     C70644   3.518   3.754   9.670 -0.0077 -0.4010 -0.1041
  524MOL0     C70645   3.356   3.742   9.675 -0.0997 -0.2463 -0.2290
  524MOL0     C70646   3.332   3.609   9.753  0.5433 -0.7142  0.5650
  524MOL0     C70647   3.174   3.588   9.780 -0.9516 -0.1908  0.1761
  524MOL0     C70648   3.143   3.455   9.860  0.6307  0.1410  0.8387
  524MOL0     C70649   2.995   3.477   9.898 -0.0863 -0.3470  0.0153
  524MOL0    Cl70650   2.927   3.332   9.970  0.4098  0.1823  0.3879
  524MOL0     C70651   3.983   3.927   9.618  0.0625 -0.7529 -0.6394
  524MOL0     C70652   4.119   3.940   9.607 -0.2163 -0.0297 -0.1782
  524MOL0     O70653   4.390   3.880   9.474  0.2688 -0.3995  0.8389
  524MOL0     C70654   4.620   3.939   9.640 -0.3958  0.2531 -0.1700
  524MOL0     C70655   4.753   3.967   9.686  0.0655  0.9105 -0.3291
  524MOL0     N70656   5.336   3.854  10.221  0.1364 -0.3259  0.2382
  524MOL0     N70657   5.425   3.759  10.229  1.1234  0.4369 -0.1052
  524MOL0     C70658   6.355   4.027  10.410 -0.2903 -0.4582 -0.0518
  524MOL0     C70659   6.461   4.103  10.363  0.3938  0.6844 -0.0536
  524MOL0     C70660   6.712   4.514  10.283  0.7924  0.1872 -0.3743
  524MOL0     C70661   6.731   4.644  10.246  0.6430 -0.5321  0.0586
  524MOL0     C70662   6.859   4.690  10.243  0.1985 -0.8089  0.2529
  524MOL0     C70663   6.970   4.624  10.282  0.1777 -0.6619 -0.1608
  524MOL0     O70664   7.087   4.673  10.281 -0.5163 -0.0705 -0.4359
  524MOL0     C70665   7.200   4.592  10.328 -0.1203  0.1576  0.3516
  524MOL0     C70666   7.322   4.666  10.278  0.8450  0.3162 -0.1411
  524MOL0     C70667   7.339   4.680  10.127  0.3768 -1.0338 -0.7959
  524MOL0     C70668   7.315   4.558  10.049 -0.5210 -0.1428 -0.2056
  524MOL0     C70669   7.453   4.493  10.038  0.1216  0.5138  0.2211
  524MOL0     C70670   7.556   4.432  10.035  0.0162 -0.8265 -1.6571
  524MOL0     C70671   6.949   4.500  10.337 -0.5229  0.1235  0.9007
  524MOL0     C70672   6.822   4.447  10.331  0.0798  0.3526  0.5709
  524MOL0     H70673   6.323   4.405  10.359 -0.6573 -0.5260 -1.2631
  524MOL0     H70674   6.117   4.261  10.380 -0.8553 -0.3373  3.3778
  524MOL0     H70675   6.014   4.128  10.563  0.7540 -0.1131  0.7567
  524MOL0     H70676   5.957   4.107  10.392 -1.4168 -2.4540  0.3425
  524MOL0     H70677   5.939   3.869  10.579 -2.5886  0.3185  1.6728
  524MOL0     H70678   5.831   4.008  10.580  1.2801  0.9374  0.1319
  524MOL0     H70679   5.729   3.844  10.427 -0.5981  0.3545  0.0317
  524MOL0     H70680   5.771   3.993  10.352 -0.7792  1.3542  1.1270
  524MOL0     H70681   5.961   3.875  10.249 -1.4701  1.7473  0.1769
  524MOL0     H70682   5.958   3.757  10.394  0.7090 -2.2847 -2.3778
  524MOL0     H70683   5.897   3.633  10.208  1.8864  0.4770  1.1651
  524MOL0     H70684   5.751   3.658  10.297  0.6188  0.5809  1.4582
  524MOL0     H70685   5.686   3.859  10.137 -1.3001 -1.5823  3.1585
  524MOL0     H70686   5.840   3.821  10.043  0.7421 -2.0228  0.6764
  524MOL0     H70687   5.658   3.715   9.939 -2.4743 -0.3955 -0.0816
  524MOL0     H70688   5.758   3.582  10.024 -0.0266 -0.2494 -1.1772
  524MOL0     H70689   5.584   3.556  10.182  1.7713 -0.1816  1.1963
  524MOL0     H70690   5.530   3.539  10.015 -0.0152  1.0105  0.7425
  524MOL0     H70691   5.410   3.809   9.906 -0.4601 -0.1277  0.0674
  524MOL0     H70692   5.134   3.944  10.023  0.6163 -0.7728  0.2754
  524MOL0     H70693   5.243   4.062  10.091  2.1946  0.4488 -0.2901
  524MOL0     H70694   5.294   3.948   9.819  0.0936 -0.1975  0.7356
  524MOL0     H70695   5.339   4.105   9.897 -1.3877  0.0310  1.1018
  524MOL0     H70696   5.194   4.173   9.744 -0.5639 -1.5045 -1.3846
  524MOL0     H70697   5.126   4.176   9.913 -0.2716  1.4107 -0.9661
  524MOL0     H70698   4.963   4.001   9.861  1.3953 -2.4370 -0.1423
  524MOL0     H70699   5.045   3.953   9.719 -0.4576  0.0098  0.6286
  524MOL0     H70700   4.796   4.246   9.505  0.9212 -1.1582 -0.9927
  524MOL0     H70701   4.584   4.265   9.318  2.7955 -1.8524  0.3446
  524MOL0     H70702   4.439   4.228   9.411  0.1064 -1.5832 -0.4707
  524MOL0     H70703   4.540   4.342   9.480  0.7245  0.4136 -0.8535
  524MOL0     H70704   4.137   4.219   9.422  0.3135  0.1056 -2.7746
  524MOL0     H70705   3.894   4.177   9.406 -0.0266 -0.8100 -1.0823
  524MOL0     H70706   3.757   3.790   9.580 -1.4662  1.6692 -0.9452
  524MOL0     H70707   3.736   3.908   9.717  2.4195  1.8431 -0.6604
  524MOL0     H70708   3.505   3.955   9.617  0.4890 -0.1353 -0.7038
  524MOL0     H70709   3.557   3.851   9.478 -1.8285 -5.0771  0.5244
  524MOL0     H70710   3.559   3.764   9.770 -2.9477 -0.0140  1.1560
  524MOL0     H70711   3.557   3.664   9.621  4.0451  2.3279 -2.4913
  524MOL0     H70712   3.313   3.832   9.720 -0.9025 -0.2896 -0.8928
  524MOL0     H70713   3.310   3.736   9.576 -0.3027  0.3519 -0.1785
  524MOL0     H70714   3.372   3.610   9.855  1.7092 -0.1737  0.1188
  524MOL0     H70715   3.372   3.524   9.697  1.8502 -1.9794  3.2503
  524MOL0     H70716   3.143   3.668   9.849  0.7270  1.1009 -0.4955
  524MOL0     H70717   3.119   3.583   9.686 -2.7287 -4.3160  1.2213
  524MOL0     H70718   3.213   3.455   9.944  0.5244 -1.1166  0.9531
  524MOL0     H70719   3.158   3.367   9.797 -1.7706 -1.5992  2.5216
  524MOL0     H70720   2.933   3.511   9.814  1.7896  0.7514 -1.0140
  524MOL0     H70721   3.009   3.554   9.974 -1.8247  0.5216 -0.4907
  524MOL0     H70722   3.949   3.849   9.686  1.5395 -0.0487  0.9891
  524MOL0     H70723   4.175   3.867   9.664 -0.1808  0.4823  0.4597
  524MOL0     H70724   4.559   3.855   9.672 -0.7437  0.6397  0.1937
  524MOL0     H70725   4.804   3.888   9.739 -0.7078 -0.6960 -1.8886
  524MOL0     H70726   6.370   3.920  10.419  0.3380 -0.6766 -2.6641
  524MOL0     H70727   6.552   4.048  10.338 -0.3215  0.4478 -2.3442
  524MOL0     H70728   6.650   4.710  10.218  2.2512  3.4281  3.6758
  524MOL0     H70729   6.872   4.790  10.203 -2.1004 -1.1034 -1.4162
  524MOL0     H70730   7.199   4.591  10.438  0.5669 -1.0233  0.3631
  524MOL0     H70731   7.204   4.487  10.298  0.4351 -0.0472  1.0990
  524MOL0     H70732   7.412   4.620  10.321 -0.4337 -0.8422  1.4509
  524MOL0     H70733   7.311   4.763  10.328 -0.4130 -0.1413  0.5292
  524MOL0     H70734   7.430   4.730  10.094  0.5104  0.8484  2.1044
  524MOL0     H70735   7.253   4.744  10.108 -1.7143 -2.9623  1.4450
  524MOL0     H70736   7.285   4.599   9.953  1.3881  1.5850 -0.1443
  524MOL0     H70737   7.250   4.481  10.092  0.0763 -0.8959 -0.6023
  524MOL0     H70738   7.645   4.372  10.041  2.5444  2.7261 -0.1155
  524MOL0     H70739   7.028   4.434  10.369  0.9666 -0.7856 -3.8457
  524MOL0     H70740   6.805   4.341  10.350 -2.8605  0.1814 -2.1713
  525MOL0     O70741   1.627   6.695   2.761 -0.5509  0.9928 -0.0035
  525MOL0     C70742   1.530   6.630   2.732 -0.2108  0.1583 -0.3480
  525MOL0     O70743   1.423   6.600   2.819 -0.0579  0.9036 -0.6083
  525MOL0     C70744   1.412   6.660   2.939  0.0757 -0.9493 -1.3190
  525MOL0     C70745   1.303   6.735   2.979  0.0012  0.4203  0.6236
  525MOL0     C70746   1.298   6.797   3.102 -0.4428 -0.5221 -0.0843
  525MOL0     C70747   1.398   6.770   3.196 -0.8754 -0.8814  0.0713
  525MOL0     O70748   1.368   6.810   3.320 -0.7312 -0.1936  0.2326
  525MOL0     C70749   1.465   6.907   3.378  0.2043 -0.0127 -0.5446
  525MOL0     C70750   1.546   6.843   3.493 -0.1158 -0.4513 -0.0339
  525MOL0     C70751   1.623   6.931   3.582  0.0573 -0.5895 -0.1522
  525MOL0     C70752   1.542   6.995   3.696  0.5436 -0.9861  0.4416
  525MOL0     C70753   1.556   7.142   3.705 -0.3065  0.5562  0.1372
  525MOL0     C70754   1.687   7.183   3.745 -1.1115 -0.2540 -0.1700
  525MOL0     C70755   1.684   7.327   3.797 -0.1158 -0.8976 -0.6760
  525MOL0     C70756   1.816   7.376   3.862  0.4137 -0.2632  0.6724
  525MOL0     N70757   1.807   7.468   3.976 -0.4925 -0.7574  0.7889
  525MOL0     C70758   1.778   7.436   4.108 -0.3750  0.1472 -0.0762
  525MOL0     C70759   1.751   7.560   4.164 -0.0808 -0.1005  0.6938
  525MOL0     C70760   1.694   7.586   4.294 -0.1210  0.3613 -1.6518
  525MOL0     C70761   1.545   7.586   4.320  0.0969 -0.1902  0.6138
  525MOL0     C70762   1.469   7.702   4.254 -0.9094 -0.3885 -0.1691
  525MOL0     C70763   1.345   7.762   4.321 -0.4160 -0.3146 -0.9051
  525MOL0     O70764   1.237   7.663   4.325  0.6695 -0.1279 -0.0800
  525MOL0     C70765   1.110   7.704   4.356  0.0317 -0.6557 -0.1933
  525MOL0     C70766   1.004   7.620   4.312 -0.0155 -0.6299  0.9308
  525MOL0     C70767   0.870   7.650   4.338  0.3878  0.4295 -0.5587
  525MOL0     C70768   0.771   7.553   4.281 -0.5783  0.8655  0.8069
  525MOL0     C70769   0.837   7.779   4.393 -0.3345 -0.5114 -0.5549
  525MOL0     C70770   0.701   7.844   4.399 -0.0187  0.2834  0.4268
  525MOL0     O70771   0.699   7.971   4.437 -0.0388  0.2008 -0.6904
  525MOL0     C70772   0.584   8.031   4.471 -0.3322  0.4564 -0.3443
  525MOL0     C70773   0.455   8.027   4.417  0.6774  0.6034 -0.1397
  525MOL0     C70774   0.346   8.114   4.450  0.5027  0.4961 -0.8566
  525MOL0     C70775   0.377   8.213   4.538  0.1147 -0.0145  0.6818
  525MOL0     O70776   0.290   8.317   4.566  0.6594 -0.4030 -0.3163
  525MOL0     C70777   0.167   8.332   4.496 -0.3674  0.9918  0.7001
  525MOL0     C70778   0.082   8.435   4.575  0.3266  0.0998 -0.2410
  525MOL0     C70779  -0.062   8.461   4.524 -0.2567  0.3076  0.8487
  525MOL0     C70780  -0.144   8.551   4.613 -0.1172  0.4312 -0.0407
  525MOL0     C70781  -0.291   8.554   4.558 -0.5242  0.5220 -0.0742
  525MOL0     C70782  -0.371   8.663   4.640 -0.4252 -0.3870  0.6641
  525MOL0     C70783  -0.518   8.660   4.582  0.1736  1.1730 -0.7439
  525MOL0     C70784  -0.606   8.722   4.680  0.4553 -0.2934  0.0781
  525MOL0    Cl70785  -0.618   8.623   4.832  0.3117  0.0685 -0.3580
  525MOL0     C70786   0.506   8.222   4.586 -0.4697  0.1157 -0.1846
  525MOL0     C70787   0.608   8.132   4.551 -0.1887 -0.1590 -0.4955
  525MOL0     O70788   0.605   7.773   4.389  0.0169  0.6738 -0.3301
  525MOL0     C70789   0.947   7.860   4.434  0.1846  0.2432 -0.5337
  525MOL0     C70790   1.080   7.823   4.420 -0.1907  0.3271  0.6237
  525MOL0     N70791   1.760   7.660   4.061 -0.0251 -0.5896 -0.6694
  525MOL0     N70792   1.798   7.601   3.954 -0.2530  0.4313 -0.4786
  525MOL0     C70793   1.514   6.699   3.160  0.2300 -0.0687  0.1041
  525MOL0     C70794   1.514   6.643   3.035  0.0251  0.2617 -0.3415
  525MOL0     C70795   1.536   6.572   2.597 -0.5096 -0.0498 -0.3254
  525MOL0     C70796   1.651   6.560   2.522  0.2334 -0.2906  0.6551
  525MOL0     C70797   1.654   6.503   2.393  0.3255 -0.3798 -0.4286
  525MOL0     C70798   1.534   6.465   2.329  0.3385  0.2083 -0.4491
  525MOL0     O70799   1.532   6.401   2.203 -0.6061  0.2490 -0.1741
  525MOL0     C70800   1.655   6.394   2.125  0.1335 -0.5834 -0.2588
  525MOL0     C70801   1.617   6.306   2.013 -0.2313 -0.5069  0.0562
  525MOL0     C70802   1.748   6.257   1.941  0.2840 -1.0669  0.4694
  525MOL0     C70803   1.727   6.252   1.785 -0.3532  0.2458 -0.2816
  525MOL0     C70804   1.678   6.118   1.753  0.2462 -0.0551  0.2755
  525MOL0     C70805   1.626   6.009   1.726 -0.2608  0.4290  0.3686
  525MOL0     C70806   1.412   6.485   2.402  0.2610 -0.2829 -0.0899
  525MOL0     C70807   1.419   6.526   2.537 -0.2219  0.2229  1.4974
  525MOL0     H70808   1.224   6.731   2.905  1.1677 -1.2746 -0.6151
  525MOL0     H70809   1.219   6.867   3.127  4.1301  4.8720  1.0828
  525MOL0     H70810   1.533   6.942   3.299  0.0388 -2.2808 -1.7907
  525MOL0     H70811   1.404   6.990   3.414  1.2423  1.5281 -2.1535
  525MOL0     H70812   1.488   6.785   3.565  0.3806  2.3655  2.8701
  525MOL0     H70813   1.625   6.774   3.462  1.5830 -1.2800  5.1332
  525MOL0     H70814   1.717   6.879   3.605 -0.0116 -0.9350 -0.6194
  525MOL0     H70815   1.644   7.008   3.507  0.5746 -1.1973 -0.6509
  525MOL0     H70816   1.438   6.991   3.663  1.0844  0.0057 -1.5636
  525MOL0     H70817   1.558   6.959   3.798  3.6793  0.7187  0.6809
  525MOL0     H70818   1.537   7.191   3.608 -1.4365 -0.1538 -0.0245
  525MOL0     H70819   1.484   7.173   3.781  2.1681 -0.9327  3.2879
  525MOL0     H70820   1.731   7.121   3.824  0.0001 -0.0938 -0.6342
  525MOL0     H70821   1.753   7.177   3.657 -0.5639 -0.7294  0.2579
  525MOL0     H70822   1.659   7.408   3.728 -1.2874  1.3764  2.2155
  525MOL0     H70823   1.602   7.334   3.869  1.5811 -0.3097  1.2844
  525MOL0     H70824   1.885   7.407   3.783  2.5007 -2.9911  1.3012
  525MOL0     H70825   1.867   7.291   3.908 -0.1033 -3.0585 -3.3430
  525MOL0     H70826   1.773   7.333   4.143 -0.6583  0.0143 -0.5070
  525MOL0     H70827   1.719   7.503   4.361 -0.9494  0.3133 -1.3978
  525MOL0     H70828   1.750   7.672   4.331  0.7566 -0.7403 -0.3124
  525MOL0     H70829   1.533   7.588   4.429 -0.4691 -3.0902  0.6941
  525MOL0     H70830   1.507   7.486   4.296  2.2023 -1.1329  0.9889
  525MOL0     H70831   1.442   7.670   4.153 -1.4183  0.4816 -0.3246
  525MOL0     H70832   1.551   7.774   4.252  1.3193 -2.5399  3.0362
  525MOL0     H70833   1.317   7.853   4.267 -2.5674 -0.0119  0.6118
  525MOL0     H70834   1.377   7.796   4.420  2.8240 -1.3074 -1.4894
  525MOL0     H70835   1.031   7.529   4.260 -3.1144 -1.4089  0.4408
  525MOL0     H70836   0.680   7.602   4.247  0.2359  1.6312 -0.3447
  525MOL0     H70837   0.801   7.492   4.195 -2.0334  1.0126  0.1621
  525MOL0     H70838   0.754   7.484   4.364  1.6504  1.2415  1.6498
  525MOL0     H70839   0.429   7.956   4.339 -3.4946  0.2060  1.3630
  525MOL0     H70840   0.255   8.103   4.391  0.6639 -3.1921 -0.6700
  525MOL0     H70841   0.181   8.383   4.400 -1.0994 -0.6855 -0.3417
  525MOL0     H70842   0.122   8.233   4.483  0.3592  0.6270  0.9561
  525MOL0     H70843   0.064   8.384   4.671 -1.6429 -0.4222 -0.8459
  525MOL0     H70844   0.132   8.531   4.587  0.1624  0.0322  1.1467
  525MOL0     H70845  -0.106   8.368   4.485  3.6151 -1.3672 -0.0257
  525MOL0     H70846  -0.041   8.526   4.439 -2.0941 -1.6039 -1.2023
  525MOL0     H70847  -0.153   8.516   4.716 -3.4298 -0.8582 -0.6735
  525MOL0     H70848  -0.093   8.648   4.601  0.6575  0.0577  0.1636
  525MOL0     H70849  -0.338   8.455   4.562  0.2337  0.1913  1.1556
  525MOL0     H70850  -0.292   8.573   4.450  2.2326  0.3674 -0.1860
  525MOL0     H70851  -0.370   8.642   4.747  0.3620 -1.1396  0.5176
  525MOL0     H70852  -0.319   8.758   4.629  5.6139 -3.2518  0.3165
  525MOL0     H70853  -0.543   8.554   4.570  1.7971  0.8237 -1.3627
  525MOL0     H70854  -0.522   8.705   4.482  0.8769 -0.7063 -1.6848
  525MOL0     H70855  -0.707   8.735   4.640 -0.0718  1.8672  1.8928
  525MOL0     H70856  -0.568   8.821   4.709 -1.9490  0.3482  1.2990
  525MOL0     H70857   0.522   8.293   4.667  3.0051  0.5233 -1.0766
  525MOL0     H70858   0.705   8.145   4.598 -0.9133  0.6971  0.8238
  525MOL0     H70859   0.935   7.956   4.483  2.7334 -0.2978  1.3790
  525MOL0     H70860   1.164   7.881   4.458 -2.0384  0.6836  4.7231
  525MOL0     H70861   1.589   6.686   3.237  1.3143  0.2998 -0.8743
  525MOL0     H70862   1.603   6.583   3.016 -0.4537 -1.8535  3.0483
  525MOL0     H70863   1.746   6.593   2.562  1.2319  0.7546 -2.3083
  525MOL0     H70864   1.752   6.475   2.354  1.9303  3.2356  0.5087
  525MOL0     H70865   1.672   6.499   2.099 -1.2981 -0.5121 -0.9859
  525MOL0     H70866   1.733   6.355   2.190  2.7915  1.0905 -2.2568
  525MOL0     H70867   1.549   6.357   1.944  0.7819  1.0488  0.1754
  525MOL0     H70868   1.568   6.214   2.047  1.3345 -3.3726 -4.4894
  525MOL0     H70869   1.773   6.163   1.990 -1.8356 -0.7398  2.3549
  525MOL0     H70870   1.825   6.330   1.967 -1.1242  0.6813 -0.0985
  525MOL0     H70871   1.827   6.259   1.740  0.1586 -3.8769 -0.1946
  525MOL0     H70872   1.663   6.328   1.739 -0.0729  0.1842 -0.7804
  525MOL0     H70873   1.570   5.919   1.710 -1.1740  0.9023  0.8336
  525MOL0     H70874   1.314   6.458   2.366 -0.2365 -0.4047  1.3044
  525MOL0     H70875   1.321   6.527   2.583 -1.3773  1.0604 -0.8124
  526MOL0     O70876   4.772   3.861   2.679  0.0177  1.3956 -0.0275
  526MOL0     C70877   4.860   3.931   2.732  0.0744  0.2597 -0.5629
  526MOL0     O70878   4.851   4.057   2.774 -0.5799 -0.1005  0.5145
  526MOL0     C70879   4.724   4.111   2.793  0.6491  0.1346  0.2356
  526MOL0     C70880   4.642   4.159   2.690 -1.1620 -0.3408  0.6497
  526MOL0     C70881   4.523   4.222   2.716  0.4899 -0.0759  0.3292
  526MOL0     C70882   4.483   4.240   2.855 -0.3224 -0.1506  0.9583
  526MOL0     O70883   4.371   4.292   2.899  0.4561 -0.4656 -0.3909
  526MOL0     C70884   4.275   4.321   2.800  0.2942  0.3895  0.2928
  526MOL0     C70885   4.154   4.373   2.871 -0.4035  0.0146  0.0049
  526MOL0     C70886   4.024   4.377   2.789  0.0164 -0.7790  0.0693
  526MOL0     C70887   3.907   4.424   2.877  1.0097 -0.5728  0.6889
  526MOL0     C70888   3.933   4.561   2.941  1.0352 -0.5307  0.0840
  526MOL0     C70889   3.807   4.618   3.016  1.1487  0.1588  0.1099
  526MOL0     C70890   3.837   4.766   3.044  0.7731 -0.1963  0.2311
  526MOL0     C70891   3.755   4.814   3.175  0.0025  0.1123 -0.5051
  526MOL0     N70892   3.720   4.958   3.167 -0.3044  0.3705 -0.8224
  526MOL0     C70893   3.637   5.009   3.071 -0.2482  0.5371  0.9306
  526MOL0     C70894   3.623   5.141   3.091 -0.1729 -0.2591 -0.3457
  526MOL0     C70895   3.557   5.228   2.993 -0.5389 -0.5601  0.1209
  526MOL0     C70896   3.647   5.288   2.882 -0.8295 -0.6311  0.3661
  526MOL0     C70897   3.785   5.333   2.939 -0.3416  0.1205 -1.0683
  526MOL0     C70898   3.860   5.413   2.834 -0.3500  1.1964  0.8503
  526MOL0     O70899   3.776   5.525   2.777  0.1779  0.1641 -0.0556
  526MOL0     C70900   3.830   5.627   2.699  0.6364  0.2749 -0.5793
  526MOL0     C70901   3.739   5.711   2.634 -0.9319  0.3251 -0.1606
  526MOL0     C70902   3.782   5.799   2.532 -0.6514 -0.7938 -0.3970
  526MOL0     C70903   3.675   5.857   2.447 -0.3912 -0.0313  1.0027
  526MOL0     C70904   3.924   5.826   2.510  0.3639  0.1918 -0.5424
  526MOL0     C70905   3.986   5.939   2.424 -0.0379  0.1941 -0.2434
  526MOL0     O70906   4.122   5.954   2.433  0.2154 -0.3614  0.2974
  526MOL0     C70907   4.179   6.059   2.369 -0.0673 -0.5588 -0.3515
  526MOL0     C70908   4.196   6.056   2.236  0.0745  0.4777 -0.8304
  526MOL0     C70909   4.286   6.150   2.173  0.6881  0.8524  0.5908
  526MOL0     C70910   4.339   6.254   2.242  0.0618 -0.3946  0.4941
  526MOL0     O70911   4.408   6.362   2.196 -0.2097 -0.1887  0.3640
  526MOL0     C70912   4.421   6.367   2.055 -0.4882 -0.4574  0.9330
  526MOL0     C70913   4.539   6.465   2.016  0.5060 -0.4354  0.4937
  526MOL0     C70914   4.650   6.468   2.121 -0.2526  0.7136 -0.2547
  526MOL0     C70915   4.779   6.541   2.067 -0.6093  0.0713  0.3367
  526MOL0     C70916   4.755   6.680   2.007 -0.9068 -0.5369  0.6229
  526MOL0     C70917   4.733   6.778   2.116  0.3849  0.1191  0.9049
  526MOL0     C70918   4.692   6.918   2.066 -0.1496 -0.2352  0.2540
  526MOL0     C70919   4.628   6.996   2.174  0.0354 -0.6250  0.8774
  526MOL0    Cl70920   4.565   7.146   2.112 -0.0272 -0.1368 -0.1210
  526MOL0     C70921   4.311   6.260   2.379  0.5382 -0.2095  0.0486
  526MOL0     C70922   4.232   6.168   2.445 -0.4886 -0.1492 -0.2284
  526MOL0     O70923   3.919   6.010   2.355  1.0990 -1.0189 -0.1907
  526MOL0     C70924   4.013   5.748   2.585  0.5066  0.4849  0.1183
  526MOL0     C70925   3.964   5.648   2.667  0.7255 -0.3218 -0.2174
  526MOL0     N70926   3.695   5.178   3.208 -0.2795  0.1432 -0.5154
  526MOL0     N70927   3.752   5.063   3.249  0.2236 -0.2068 -0.2311
  526MOL0     C70928   4.569   4.188   2.953  0.0916 -0.5186  0.6225
  526MOL0     C70929   4.693   4.136   2.923 -0.9539  0.0710  0.3646
  526MOL0     C70930   4.998   3.873   2.719  0.3340 -0.6818  0.8242
  526MOL0     C70931   5.034   3.743   2.735  0.6150  0.3168 -0.0092
  526MOL0     C70932   5.170   3.705   2.731 -0.3304  0.2389 -0.7721
  526MOL0     C70933   5.272   3.794   2.711  1.1243 -0.3430  0.3428
  526MOL0     O70934   5.399   3.735   2.711  0.2875 -0.1123 -0.0748
  526MOL0     C70935   5.510   3.822   2.708  0.2416 -0.6686  0.5661
  526MOL0     C70936   5.636   3.745   2.737  0.3471  0.7704 -0.6234
  526MOL0     C70937   5.761   3.843   2.733  0.1697  0.9702 -0.4232
  526MOL0     C70938   5.892   3.773   2.753 -0.1783 -0.4381 -0.0345
  526MOL0     C70939   5.927   3.711   2.629 -1.0532  0.4625  0.0990
  526MOL0     C70940   5.960   3.666   2.525 -0.8654 -0.7038  1.1255
  526MOL0     C70941   5.237   3.929   2.675  0.3391  0.1363  0.6841
  526MOL0     C70942   5.099   3.969   2.690 -0.6747 -0.9480 -0.0058
  526MOL0     H70943   4.681   4.148   2.590  1.0065  2.3928  1.0585
  526MOL0     H70944   4.455   4.253   2.637 -1.6162 -1.8322  1.3398
  526MOL0     H70945   4.315   4.398   2.733  1.9554  1.0028  1.9107
  526MOL0     H70946   4.251   4.231   2.743 -0.7594  0.5512  0.4694
  526MOL0     H70947   4.123   4.301   2.947  0.6969  0.0630  0.5138
  526MOL0     H70948   4.178   4.466   2.923  2.0691  0.0627 -1.0763
  526MOL0     H70949   4.034   4.433   2.696 -3.6474  3.4705  1.8703
  526MOL0     H70950   3.997   4.278   2.752  1.8243 -1.2193 -0.1432
  526MOL0     H70951   3.817   4.437   2.817  1.4756  0.8427  0.2757
  526MOL0     H70952   3.889   4.350   2.957 -0.9595  0.7053  1.5143
  526MOL0     H70953   4.021   4.564   3.006  1.8023  0.5006 -0.9595
  526MOL0     H70954   3.959   4.633   2.863 -1.4520  1.4678  0.9604
  526MOL0     H70955   3.722   4.614   2.947  2.0827 -0.6275 -1.0351
  526MOL0     H70956   3.792   4.573   3.114 -2.2539  2.0317  0.6072
  526MOL0     H70957   3.943   4.779   3.066  0.3264  2.9629  0.9771
  526MOL0     H70958   3.825   4.828   2.955  0.2460 -2.8363 -1.6778
  526MOL0     H70959   3.812   4.787   3.265 -0.4573 -2.0079 -0.8055
  526MOL0     H70960   3.661   4.759   3.169 -0.1768  0.1405  1.2884
  526MOL0     H70961   3.623   4.961   2.974  2.7238  0.7298  0.3090
  526MOL0     H70962   3.484   5.161   2.945 -1.6642  1.8321 -1.6990
  526MOL0     H70963   3.506   5.317   3.030  0.7461  0.3040 -0.1174
  526MOL0     H70964   3.603   5.373   2.828  1.5391 -0.3698 -1.3088
  526MOL0     H70965   3.667   5.210   2.809 -1.7115  1.4816 -2.3353
  526MOL0     H70966   3.847   5.248   2.970 -1.4784 -0.0043  1.1064
  526MOL0     H70967   3.772   5.393   3.029 -1.7079 -0.5871 -0.7594
  526MOL0     H70968   3.893   5.354   2.748 -3.1754 -0.9112  1.0453
  526MOL0     H70969   3.945   5.451   2.890  1.0981 -1.6097  0.7334
  526MOL0     H70970   3.632   5.702   2.641 -1.1199  1.5308 -1.0682
  526MOL0     H70971   3.576   5.835   2.488 -0.0136 -0.2755  1.7901
  526MOL0     H70972   3.687   5.965   2.430  1.4858 -0.3133  0.1802
  526MOL0     H70973   3.681   5.813   2.347 -0.5128 -2.0617  1.8398
  526MOL0     H70974   4.156   5.966   2.189  1.1585 -0.8915  0.7598
  526MOL0     H70975   4.297   6.136   2.065 -0.1040  0.7001  0.5275
  526MOL0     H70976   4.443   6.270   2.011  0.2488  1.2347 -2.7941
  526MOL0     H70977   4.330   6.405   2.009  0.4984  0.3073 -0.4558
  526MOL0     H70978   4.582   6.438   1.920 -3.1900 -0.0765 -1.4388
  526MOL0     H70979   4.498   6.564   1.995  0.6085 -0.4251  0.3478
  526MOL0     H70980   4.693   6.370   2.145  0.6885  1.9729  3.9771
  526MOL0     H70981   4.602   6.508   2.210 -0.2640  0.5455 -0.1863
  526MOL0     H70982   4.845   6.552   2.153  0.9897 -0.1093 -0.8286
  526MOL0     H70983   4.822   6.474   1.992 -1.1363 -0.8650  0.8469
  526MOL0     H70984   4.680   6.679   1.927  1.2774  0.3083 -1.5790
  526MOL0     H70985   4.849   6.709   1.959 -0.2466  0.0074  2.1588
  526MOL0     H70986   4.647   6.738   2.170 -0.6973  1.2826  0.1084
  526MOL0     H70987   4.824   6.790   2.174  1.7896  0.2038 -1.2089
  526MOL0     H70988   4.622   6.916   1.982 -0.8596  2.1555  0.7381
  526MOL0     H70989   4.779   6.977   2.035 -0.3063 -0.6554 -1.0768
  526MOL0     H70990   4.693   7.013   2.260 -1.3225  1.8457  1.5064
  526MOL0     H70991   4.532   6.948   2.193 -1.5516  0.7743 -2.7056
  526MOL0     H70992   4.361   6.337   2.438  1.2748 -0.8375  0.2690
  526MOL0     H70993   4.226   6.178   2.553  0.2591  0.5008 -0.2347
  526MOL0     H70994   4.118   5.772   2.572  0.2928  2.0105  1.0125
  526MOL0     H70995   4.031   5.579   2.717  1.7004  1.0848  0.4814
  526MOL0     H70996   4.540   4.203   3.056  0.5158 -0.4662  0.7341
  526MOL0     H70997   4.761   4.106   3.002 -0.4567  0.9555  0.2815
  526MOL0     H70998   4.963   3.662   2.749  1.3829 -0.4849 -0.6286
  526MOL0     H70999   5.187   3.598   2.731  0.0901  0.2605  1.1368
  526MOL0     H71000   5.529   3.850   2.604  2.8883  2.5203  1.7259
  526MOL0     H71001   5.495   3.913   2.766 -0.3755  1.4525 -2.6917
  526MOL0     H71002   5.653   3.680   2.651  3.6652 -0.9317  1.1283
  526MOL0     H71003   5.625   3.692   2.832  0.2467  1.2053 -0.3908
  526MOL0     H71004   5.753   3.914   2.816 -1.7682 -0.3742  0.6187
  526MOL0     H71005   5.759   3.902   2.641 -1.1112 -2.0089 -2.4415
  526MOL0     H71006   5.867   3.687   2.816 -0.4982 -3.5280 -4.0046
  526MOL0     H71007   5.971   3.844   2.781 -2.5185  2.1441  0.4556
  526MOL0     H71008   5.992   3.629   2.430 -1.1472 -1.6466  1.3793
  526MOL0     H71009   5.309   4.000   2.635  0.4262 -0.9705 -1.2696
  526MOL0     H71010   5.072   4.065   2.647 -2.0009 -1.0381  0.5518
  527MOL0     O71011   5.060   9.880   9.300 -0.1972  0.9053 -0.0762
  527MOL0     C71012   5.081   9.912   9.416 -0.3501 -0.0755  1.0501
  527MOL0     O71013   4.986   9.941   9.510  0.5795  0.7372  1.0102
  527MOL0     C71014   4.844   9.952   9.509 -0.0457 -0.2747  0.7327
  527MOL0     C71015   4.783   9.988   9.621  0.7391 -0.0670 -1.1484
  527MOL0     C71016   4.643   9.992   9.633 -0.7629  0.4351  0.0188
  527MOL0     C71017   4.566   9.966   9.521  0.5281 -0.1460  0.2093
  527MOL0     O71018   4.434   9.991   9.529  0.1499 -0.8667 -0.2633
  527MOL0     C71019   4.363   9.990   9.406 -0.1660  0.0578 -0.2109
  527MOL0     C71020   4.214  10.028   9.443 -0.2662  0.8155 -0.4516
  527MOL0     C71021   4.117  10.044   9.321 -0.1020 -0.4845  0.9260
  527MOL0     C71022   3.998  10.136   9.366 -0.4349  0.0615  0.9585
  527MOL0     C71023   3.871  10.089   9.287 -0.0772  0.2567  1.3419
  527MOL0     C71024   3.760  10.194   9.280 -0.7771 -0.8276  0.5822
  527MOL0     C71025   3.722  10.260   9.413  0.2709 -0.3941  0.2995
  527MOL0     C71026   3.795  10.396   9.430 -0.0269 -0.1514 -0.5519
  527MOL0     N71027   3.730  10.477   9.537 -0.8544  0.4438  0.1511
  527MOL0     C71028   3.691  10.418   9.647 -0.6188 -0.3029  0.5501
  527MOL0     C71029   3.595  10.502   9.695 -0.6980 -0.2520 -0.3161
  527MOL0     C71030   3.479  10.470   9.793 -0.6985  0.0420 -0.9852
  527MOL0     C71031   3.522  10.381   9.907 -0.1631 -0.4365  0.6623
  527MOL0     C71032   3.527  10.229   9.886  0.8379 -0.6318  0.3411
  527MOL0     C71033   3.619  10.155   9.979  0.5425 -0.2418  0.8802
  527MOL0     O71034   3.660  10.023   9.938 -0.3888  0.1773  0.7119
  527MOL0     C71035   3.567   9.942   9.870  0.1007  0.3600 -0.0141
  527MOL0     C71036   3.575   9.916   9.737  0.6578 -0.2248 -0.0253
  527MOL0     C71037   3.471   9.854   9.665 -1.1672 -1.0196 -1.1059
  527MOL0     C71038   3.496   9.868   9.513  0.2480 -0.3257  0.0730
  527MOL0     C71039   3.371   9.794   9.736  0.6821 -1.0952  0.3913
  527MOL0     C71040   3.250   9.728   9.671  0.4181  0.0239 -0.7889
  527MOL0     O71041   3.237   9.751   9.537 -0.1032  0.3091  0.0207
  527MOL0     C71042   3.123   9.714   9.480  0.5066 -0.0462  0.6251
  527MOL0     C71043   2.993   9.758   9.527 -0.2690 -0.3900 -0.1416
  527MOL0     C71044   2.871   9.706   9.479 -0.2839 -0.3661  0.4970
  527MOL0     C71045   2.861   9.616   9.377 -0.3841 -0.7384  0.7781
  527MOL0     O71046   2.744   9.563   9.328 -0.0217  0.5538  0.7814
  527MOL0     C71047   2.716   9.589   9.186  0.3929  0.0332  0.0436
  527MOL0     C71048   2.691   9.734   9.164 -0.6268  0.5722  0.1851
  527MOL0     C71049   2.563   9.758   9.086  1.0346 -0.5517  0.3064
  527MOL0     C71050   2.552   9.898   9.021 -0.0586  0.0815 -0.1670
  527MOL0     C71051   2.410   9.922   8.966 -0.0775 -0.8696  0.2094
  527MOL0     C71052   2.295   9.910   9.061  0.7149  0.5258 -0.0972
  527MOL0     C71053   2.155   9.933   9.001 -0.1516 -0.3136  1.0414
  527MOL0     C71054   2.043   9.962   9.106  0.5035  0.0261 -0.0285
  527MOL0    Cl71055   2.079  10.075   9.233 -0.0298  0.0669  0.0943
  527MOL0     C71056   2.981   9.572   9.318 -0.5187 -0.3968 -0.2731
  527MOL0     C71057   3.108   9.619   9.371  0.3672 -0.0673  0.6561
  527MOL0     O71058   3.174   9.657   9.740 -0.0454 -0.9904  0.1221
  527MOL0     C71059   3.359   9.817   9.878 -0.4136  0.1051 -0.3414
  527MOL0     C71060   3.459   9.886   9.949  0.9164 -0.4995 -0.4376
  527MOL0     N71061   3.586  10.613   9.619 -0.2639 -1.0198  0.8567
  527MOL0     N71062   3.671  10.596   9.520  0.6388 -0.2888  0.4126
  527MOL0     C71063   4.634   9.924   9.408 -0.3022 -0.4679 -0.9683
  527MOL0     C71064   4.765   9.921   9.402 -0.1002 -0.1757  0.0860
  527MOL0     C71065   5.226   9.907   9.446 -0.3849 -0.8705  0.2443
  527MOL0     C71066   5.263   9.990   9.552 -0.6436  0.2067  0.5629
  527MOL0     C71067   5.396   9.994   9.592  0.4685 -0.5772  0.2774
  527MOL0     C71068   5.487   9.908   9.530  0.3156  0.0735  0.4017
  527MOL0     O71069   5.608   9.911   9.593 -0.2387  0.4419 -0.0476
  527MOL0     C71070   5.714   9.825   9.548  0.9129  0.3126 -0.7087
  527MOL0     C71071   5.809   9.821   9.667 -0.3766  0.1985 -0.0056
  527MOL0     C71072   5.745   9.754   9.799  0.1320 -1.0421  0.0788
  527MOL0     C71073   5.826   9.778   9.920  0.0079  0.3015 -0.5757
  527MOL0     C71074   5.965   9.726   9.915 -0.1617  0.6273  0.0745
  527MOL0     C71075   6.087   9.702   9.923  0.3858  0.9988 -0.5211
  527MOL0     C71076   5.448   9.824   9.416 -0.9004  0.2399  0.2183
  527MOL0     C71077   5.313   9.824   9.376 -0.3991  0.8585 -0.3098
  527MOL0     H71078   4.847  10.011   9.706  2.3359  0.8288 -2.5273
  527MOL0     H71079   4.607  10.038   9.724  0.7304  1.6442  0.0453
  527MOL0     H71080   4.399  10.058   9.328 -1.0667  0.1551 -0.5615
  527MOL0     H71081   4.359   9.894   9.353 -1.9289  1.9135 -3.7606
  527MOL0     H71082   4.174   9.962   9.520 -0.7721  0.2666 -1.1742
  527MOL0     H71083   4.202  10.129   9.483  0.6058  0.2083  1.4475
  527MOL0     H71084   4.169  10.089   9.236  2.9781 -0.3278  2.7382
  527MOL0     H71085   4.070   9.947   9.303 -2.7641  0.1747  3.6019
  527MOL0     H71086   3.977  10.143   9.473 -0.6081  3.3284  0.8069
  527MOL0     H71087   4.032  10.235   9.332  1.5638 -1.2263 -1.1323
  527MOL0     H71088   3.894  10.080   9.181 -2.9186  3.5104  0.2698
  527MOL0     H71089   3.823   9.992   9.306  3.6225 -2.2453 -0.8988
  527MOL0     H71090   3.799  10.272   9.215  0.6698 -0.7365  1.5303
  527MOL0     H71091   3.669  10.154   9.234 -1.1464  2.5980 -2.0373
  527MOL0     H71092   3.615  10.283   9.408  0.0412 -1.5942 -0.7070
  527MOL0     H71093   3.741  10.196   9.499  0.8526 -0.8726 -0.1807
  527MOL0     H71094   3.783  10.459   9.341  0.4435  0.7069 -0.0234
  527MOL0     H71095   3.900  10.380   9.458 -0.7982 -3.0765  1.0911
  527MOL0     H71096   3.725  10.327   9.695 -1.2343 -1.4294 -1.0496
  527MOL0     H71097   3.433  10.562   9.829  0.5620 -0.5711  2.5574
  527MOL0     H71098   3.401  10.426   9.731 -0.8639 -0.5411 -0.3763
  527MOL0     H71099   3.448  10.393   9.986  1.8132 -0.5348  2.6110
  527MOL0     H71100   3.623  10.407   9.941  0.5876 -2.1265 -0.1056
  527MOL0     H71101   3.555  10.210   9.782  0.9243  1.6035 -0.0942
  527MOL0     H71102   3.424  10.191   9.894  0.3595  0.2649 -1.1855
  527MOL0     H71103   3.578  10.138  10.079 -2.9804 -2.2320 -0.7326
  527MOL0     H71104   3.710  10.215   9.985 -0.6068  1.7713 -0.6710
  527MOL0     H71105   3.651   9.969   9.681 -0.4462  1.9404  0.4543
  527MOL0     H71106   3.420   9.926   9.460  0.2696 -2.5387 -2.6042
  527MOL0     H71107   3.595   9.911   9.495  0.0242  1.5965  2.9075
  527MOL0     H71108   3.492   9.767   9.470 -0.7367 -0.4573  0.4561
  527MOL0     H71109   2.989   9.822   9.614  0.5006 -1.1692  0.4812
  527MOL0     H71110   2.779   9.752   9.516 -0.0630 -0.8087  1.6369
  527MOL0     H71111   2.796   9.557   9.120  0.3642 -2.0847  0.9497
  527MOL0     H71112   2.625   9.534   9.157  0.9639 -1.0602  0.2544
  527MOL0     H71113   2.690   9.792   9.257  0.8929  0.4649  0.2998
  527MOL0     H71114   2.774   9.778   9.108  0.4166  0.1244  1.3522
  527MOL0     H71115   2.477   9.742   9.151  0.7055 -1.6479 -0.3696
  527MOL0     H71116   2.567   9.687   9.003 -1.2736 -1.0657  0.5821
  527MOL0     H71117   2.577   9.972   9.098  1.8890  2.9569 -3.3146
  527MOL0     H71118   2.622   9.920   8.940  0.0123  0.6924  0.0529
  527MOL0     H71119   2.399   9.854   8.882  3.0414 -1.9076  0.5079
  527MOL0     H71120   2.409  10.024   8.926  0.5738 -0.6304  0.7592
  527MOL0     H71121   2.290   9.804   9.088 -1.0088  0.5368 -0.2584
  527MOL0     H71122   2.305   9.964   9.155  0.4232 -2.7389  1.9567
  527MOL0     H71123   2.130   9.847   8.937 -1.0113  1.2902 -0.8711
  527MOL0     H71124   2.153  10.019   8.934  2.1960 -0.2030  1.0469
  527MOL0     H71125   2.015   9.863   9.142  1.9614 -1.1151 -1.9126
  527MOL0     H71126   1.957   9.996   9.048  1.4805 -1.2185 -2.3243
  527MOL0     H71127   2.972   9.501   9.236  0.2065  0.1791 -0.8720
  527MOL0     H71128   3.189   9.578   9.312  2.3675  3.1023  0.9734
  527MOL0     H71129   3.279   9.793   9.946  2.2994  0.1186  3.0982
  527MOL0     H71130   3.450   9.896  10.057  1.2419  3.5531 -0.6355
  527MOL0     H71131   4.576   9.896   9.321  0.9091 -3.7913 -0.8296
  527MOL0     H71132   4.806   9.911   9.302  0.4174 -0.3985  0.3115
  527MOL0     H71133   5.192  10.042   9.615  0.2992  5.1328 -1.9727
  527MOL0     H71134   5.438  10.060   9.668  2.1336 -0.8418 -0.3637
  527MOL0     H71135   5.672   9.729   9.518 -0.7939  0.6327  0.4652
  527MOL0     H71136   5.771   9.860   9.461  2.8720 -1.3175 -0.1504
  527MOL0     H71137   5.830   9.924   9.697  0.2034  1.2135 -3.4094
  527MOL0     H71138   5.904   9.776   9.634 -0.6502 -0.5361  0.1917
  527MOL0     H71139   5.729   9.646   9.783 -0.0337 -1.1408  0.8877
  527MOL0     H71140   5.654   9.806   9.829  1.2413  0.2846  1.2145
  527MOL0     H71141   5.778   9.744  10.012 -3.1658  0.6044 -2.0030
  527MOL0     H71142   5.843   9.884   9.941  0.4137  0.5274 -1.9834
  527MOL0     H71143   6.192   9.683   9.921  0.2532 -0.7466  2.4497
  527MOL0     H71144   5.515   9.747   9.380 -1.3332 -0.1125  0.1585
  527MOL0     H71145   5.276   9.754   9.301  0.2883 -1.1463  1.1329
  528MOL0     O71146   5.513  10.011   4.846  0.2610 -0.0898  0.2674
  528MOL0     C71147   5.433  10.085   4.904  0.1506  0.4290 -0.1202
  528MOL0     O71148   5.302  10.110   4.860  0.2344 -0.9300  0.6716
  528MOL0     C71149   5.280  10.080   4.729  0.8278 -0.4332 -0.2560
  528MOL0     C71150   5.177   9.989   4.710  0.3261  0.5880  0.4162
  528MOL0     C71151   5.139   9.947   4.581  0.4849 -0.1244 -0.9265
  528MOL0     C71152   5.198  10.008   4.473  0.0791 -0.5340  0.9562
  528MOL0     O71153   5.154   9.989   4.340 -0.6442  0.4155 -0.8241
  528MOL0     C71154   5.089   9.863   4.317  1.8018  0.0020 -1.1473
  528MOL0     C71155   5.095   9.848   4.163  0.3546  0.4116 -0.5333
  528MOL0     C71156   5.019   9.733   4.105  0.1735  0.2607 -0.0192
  528MOL0     C71157   4.862   9.742   4.105 -1.3296  0.5845  0.3593
  528MOL0     C71158   4.808   9.598   4.070 -0.2768 -1.0223  0.8953
  528MOL0     C71159   4.656   9.589   4.059  0.7764 -0.1293  0.2658
  528MOL0     C71160   4.565   9.686   4.143 -0.5099  0.5086 -1.0884
  528MOL0     C71161   4.486   9.791   4.059 -0.4125  0.0452  0.8421
  528MOL0     N71162   4.369   9.743   3.983  0.1346 -0.8245  1.2385
  528MOL0     C71163   4.313   9.617   3.992  0.4714 -0.1521 -0.3004
  528MOL0     C71164   4.188   9.629   3.944 -0.3267  0.9470  0.5666
  528MOL0     C71165   4.081   9.523   3.950  0.6401  0.3614  0.0699
  528MOL0     C71166   3.994   9.525   4.086 -0.4305 -0.4651  0.0896
  528MOL0     C71167   4.091   9.512   4.211  0.2685 -0.0328  1.0186
  528MOL0     C71168   4.059   9.609   4.326  0.6679  0.3709  0.2634
  528MOL0     O71169   3.921   9.587   4.365  0.1919 -0.1956 -0.0799
  528MOL0     C71170   3.860   9.687   4.428 -0.0831 -0.4174  0.1194
  528MOL0     C71171   3.922   9.754   4.534  0.5789 -0.4920 -0.0314
  528MOL0     C71172   3.857   9.860   4.606  0.4023 -0.0150 -0.6574
  528MOL0     C71173   3.941   9.922   4.725  0.2633  0.2170  0.1560
  528MOL0     C71174   3.741   9.914   4.556  1.0379 -0.1088  0.8147
  528MOL0     C71175   3.670  10.044   4.598  1.2729  0.3228  0.0501
  528MOL0     O71176   3.722  10.136   4.686 -0.3043 -0.1813  0.3409
  528MOL0     C71177   3.659  10.252   4.721  0.3745 -0.7300 -0.4631
  528MOL0     C71178   3.548  10.314   4.663 -1.0932 -0.1866  0.4377
  528MOL0     C71179   3.492  10.429   4.713  0.2443  0.0633  0.0264
  528MOL0     C71180   3.534  10.482   4.836  1.0592 -0.4764  0.6419
  528MOL0     O71181   3.475  10.589   4.891 -0.7207 -0.2823 -0.2985
  528MOL0     C71182   3.352  10.638   4.836  0.5565 -0.2712 -0.3402
  528MOL0     C71183   3.225  10.564   4.835 -0.0323 -0.3096  0.5046
  528MOL0     C71184   3.126  10.640   4.741  1.0332 -0.9776 -0.1278
  528MOL0     C71185   3.120  10.614   4.592 -0.6873  1.1990  0.2995
  528MOL0     C71186   3.020  10.686   4.510 -0.6611 -0.3469  0.3274
  528MOL0     C71187   3.003  10.622   4.372 -0.6004 -0.1345  0.4027
  528MOL0     C71188   2.894  10.694   4.288 -0.5289  0.0216  0.1742
  528MOL0     C71189   2.934  10.684   4.141 -1.2315  0.1796  0.1518
  528MOL0    Cl71190   2.800  10.691   4.018 -0.2285  0.1553 -0.2686
  528MOL0     C71191   3.648  10.425   4.895  0.0881  0.2250  0.6139
  528MOL0     C71192   3.704  10.309   4.844 -0.5987 -0.6346  0.8839
  528MOL0     O71193   3.566  10.059   4.533 -0.2432 -0.0173 -0.1501
  528MOL0     C71194   3.695   9.853   4.438  0.7183  0.2172 -0.5682
  528MOL0     C71195   3.747   9.738   4.376  0.0998  0.0388  0.3738
  528MOL0     N71196   4.166   9.757   3.896 -0.5383  1.0278  0.6801
  528MOL0     N71197   4.278   9.821   3.924 -0.3787 -0.3584  0.5002
  528MOL0     C71198   5.306  10.092   4.491 -1.2560  0.0839  0.5327
  528MOL0     C71199   5.347  10.133   4.616  1.0763  0.0580 -1.0268
  528MOL0     C71200   5.452  10.128   5.043 -0.1586  0.8848  0.2319
  528MOL0     C71201   5.340  10.163   5.125 -0.5407 -0.1425  0.7706
  528MOL0     C71202   5.371  10.230   5.244 -0.3117  0.6440  0.0259
  528MOL0     C71203   5.499  10.247   5.303 -0.2717 -0.6131  0.5538
  528MOL0     O71204   5.515  10.312   5.427  0.3451 -0.2358  0.6491
  528MOL0     C71205   5.650  10.314   5.478 -0.0856 -0.0294 -0.2265
  528MOL0     C71206   5.657  10.401   5.602 -0.0486 -0.6125 -0.0563
  528MOL0     C71207   5.798  10.394   5.660  0.7505  0.4657  1.2597
  528MOL0     C71208   5.842  10.518   5.747  0.0212 -1.2815  0.0804
  528MOL0     C71209   5.984  10.500   5.778 -0.0681  0.3044 -1.4428
  528MOL0     C71210   6.092  10.472   5.820  0.4988 -0.2584 -0.1449
  528MOL0     C71211   5.609  10.190   5.227  0.9551 -0.4432 -1.4934
  528MOL0     C71212   5.581  10.131   5.106  0.1602  0.3482  0.2412
  528MOL0     H71213   5.137   9.942   4.800  2.1565 -1.1205  0.4209
  528MOL0     H71214   5.043   9.899   4.569  0.3424  0.1263 -0.8056
  528MOL0     H71215   5.113   9.776   4.378  0.2084 -0.2800 -0.8868
  528MOL0     H71216   4.984   9.881   4.341  2.3690  2.2080 -0.0221
  528MOL0     H71217   5.053   9.940   4.121 -2.6392  0.4453  2.1132
  528MOL0     H71218   5.200   9.842   4.135  0.3684 -0.5611 -0.3133
  528MOL0     H71219   5.046   9.713   4.001 -0.2702  0.2495 -0.1359
  528MOL0     H71220   5.047   9.641   4.157 -0.1198 -0.7572 -1.5846
  528MOL0     H71221   4.833   9.778   4.203 -1.2128 -0.1783  0.6815
  528MOL0     H71222   4.822   9.818   4.037  1.1349  3.1928  1.6313
  528MOL0     H71223   4.856   9.568   3.976  3.3613  2.8251  1.1967
  528MOL0     H71224   4.843   9.535   4.152  2.6052  1.6493  1.9104
  528MOL0     H71225   4.636   9.610   3.953 -3.5287 -5.3606 -0.4049
  528MOL0     H71226   4.633   9.482   4.066  0.5555 -0.1109 -0.1550
  528MOL0     H71227   4.493   9.620   4.194  0.1180 -0.0548 -0.9073
  528MOL0     H71228   4.631   9.714   4.225 -0.6097 -2.5243  0.1692
  528MOL0     H71229   4.563   9.840   3.998 -0.7787 -1.1917 -0.6602
  528MOL0     H71230   4.468   9.872   4.131 -0.3151 -0.0212  0.9425
  528MOL0     H71231   4.367   9.532   4.033 -2.0611 -0.6864  2.3121
  528MOL0     H71232   4.003   9.532   3.873 -0.1518 -0.0707  0.8015
  528MOL0     H71233   4.117   9.423   3.928  0.6881 -0.1683  2.2940
  528MOL0     H71234   3.919   9.447   4.101  1.0815 -2.1953 -1.0008
  528MOL0     H71235   3.936   9.618   4.086  1.5505  0.8256 -0.8314
  528MOL0     H71236   4.193   9.533   4.178 -0.7617  3.4384 -0.5694
  528MOL0     H71237   4.081   9.409   4.245 -1.2344 -1.5234 -3.2341
  528MOL0     H71238   4.087   9.710   4.293  1.9129 -0.3412 -1.0059
  528MOL0     H71239   4.122   9.574   4.408  2.6513 -1.9740 -2.0878
  528MOL0     H71240   4.015   9.716   4.575  1.1035 -0.7872 -1.4537
  528MOL0     H71241   3.871   9.952   4.804  0.8858  0.2624  0.7027
  528MOL0     H71242   4.003   9.843   4.768  1.5102  0.8136 -0.5146
  528MOL0     H71243   4.002  10.009   4.700  3.9055 -1.7059  1.6371
  528MOL0     H71244   3.511  10.285   4.565  0.3727 -0.7420  0.0238
  528MOL0     H71245   3.403  10.466   4.663  0.9394  0.8540 -0.6475
  528MOL0     H71246   3.334  10.730   4.893 -0.3843 -1.4668  1.3548
  528MOL0     H71247   3.381  10.677   4.737  0.4144 -0.9514 -0.6519
  528MOL0     H71248   3.246  10.460   4.808  2.4386  0.0593  0.7185
  528MOL0     H71249   3.187  10.571   4.937  0.5304  0.9634  0.6513
  528MOL0     H71250   3.117  10.748   4.755 -0.9567 -1.2110  0.6691
  528MOL0     H71251   3.032  10.596   4.775  0.1022  1.0350  0.0189
  528MOL0     H71252   3.218  10.644   4.554 -0.8065  3.3821  1.5267
  528MOL0     H71253   3.105  10.508   4.568 -1.3599  1.5074 -0.7092
  528MOL0     H71254   3.058  10.788   4.495 -4.0970  0.7476 -2.5103
  528MOL0     H71255   2.926  10.678   4.566 -1.1315 -0.7792 -0.5108
  528MOL0     H71256   3.104  10.638   4.336 -1.0880  2.2404 -0.0788
  528MOL0     H71257   2.998  10.513   4.373  2.4817 -0.3479  0.4123
  528MOL0     H71258   2.882  10.800   4.308  1.6516  0.0858  1.4892
  528MOL0     H71259   2.799  10.650   4.321 -0.1150  1.5576  3.8762
  528MOL0     H71260   2.983  10.589   4.120  0.8280  1.4427 -1.1483
  528MOL0     H71261   3.011  10.758   4.117 -3.4563  3.0115  1.0439
  528MOL0     H71262   3.701  10.466   4.980 -1.3938  2.7856  0.4135
  528MOL0     H71263   3.788  10.279   4.905 -0.7776  0.5015  1.7292
  528MOL0     H71264   3.599   9.872   4.389 -0.1138  0.8197  1.2129
  528MOL0     H71265   3.696   9.696   4.290 -0.5363 -0.2806  0.8972
  528MOL0     H71266   5.355  10.131   4.402 -1.3819 -0.3862  0.2498
  528MOL0     H71267   5.429  10.200   4.637  1.4843 -0.9990  1.1010
  528MOL0     H71268   5.236  10.154   5.095 -0.2351  1.6630 -1.0338
  528MOL0     H71269   5.299  10.277   5.311  0.7905 -0.0917  1.8016
  528MOL0     H71270   5.670  10.208   5.500  0.8213  0.1746 -0.0541
  528MOL0     H71271   5.724  10.349   5.406  1.9798 -1.2261  1.2078
  528MOL0     H71272   5.596  10.359   5.682  1.1955 -1.7233  0.3453
  528MOL0     H71273   5.617  10.502   5.585  1.4355  0.3385  1.7236
  528MOL0     H71274   5.868  10.375   5.578 -0.4961 -1.0704  0.4796
  528MOL0     H71275   5.803  10.303   5.721 -0.4746 -1.3671 -1.1601
  528MOL0     H71276   5.793  10.513   5.845 -2.4684 -1.7686 -1.1191
  528MOL0     H71277   5.822  10.609   5.690 -1.5927 -0.6446  1.5665
  528MOL0     H71278   6.188  10.450   5.863  0.1285 -1.6215  0.0166
  528MOL0     H71279   5.708  10.182   5.270  0.8486 -1.8705 -1.4774
  528MOL0     H71280   5.659  10.091   5.042 -0.9554 -1.2795 -0.1597
  529MOL0     O71281  10.408   7.641   4.884  0.0452 -0.2325  0.2990
  529MOL0     C71282  10.386   7.524   4.864  1.1431 -0.1619  0.3924
  529MOL0     O71283  10.289   7.448   4.929  0.6960 -0.0700 -0.1879
  529MOL0     C71284  10.183   7.491   5.011  0.1724  0.0175  0.1919
  529MOL0     C71285  10.155   7.630   5.050  0.0012 -0.2082 -0.2501
  529MOL0     C71286  10.041   7.653   5.132  0.9456  0.1655  0.4151
  529MOL0     C71287   9.966   7.553   5.190  0.0375  0.9865  0.7264
  529MOL0     O71288   9.861   7.587   5.272 -0.7441  0.0308  0.1475
  529MOL0     C71289   9.728   7.576   5.209  0.0709 -0.6592 -0.2161
  529MOL0     C71290   9.663   7.712   5.192  0.0687  0.5203 -0.6026
  529MOL0     C71291   9.714   7.772   5.069 -1.1040 -0.3202  0.7844
  529MOL0     C71292   9.658   7.909   5.066  0.6856 -0.1720  0.0928
  529MOL0     C71293   9.690   7.987   4.943 -0.0344  0.6175  1.3039
  529MOL0     C71294   9.637   7.931   4.815  0.2558  0.7532 -0.1213
  529MOL0     C71295   9.657   8.006   4.688 -0.2828  0.4636 -0.0117
  529MOL0     C71296   9.808   8.039   4.673  0.7601 -1.0414 -0.3042
  529MOL0     N71297   9.816   8.118   4.555 -0.0776  0.6843  0.7822
  529MOL0     C71298   9.820   8.055   4.435  0.6045  0.2447 -0.4878
  529MOL0     C71299   9.837   8.156   4.347  1.0500  0.0229 -0.2232
  529MOL0     C71300   9.861   8.149   4.194 -0.7136  0.2630  0.7619
  529MOL0     C71301   9.740   8.083   4.133 -0.3131  0.1129  0.1872
  529MOL0     C71302   9.701   8.139   3.992 -0.9063  0.4830  0.0734
  529MOL0     C71303   9.574   8.076   3.929 -0.0142  0.7315  0.4647
  529MOL0     O71304   9.586   7.930   3.930 -0.5455  0.1407 -0.5701
  529MOL0     C71305   9.647   7.875   3.824  0.6326 -0.2080 -0.5604
  529MOL0     C71306   9.641   7.738   3.824  0.0596  0.4562  0.5426
  529MOL0     C71307   9.700   7.652   3.726 -0.3552 -0.2523  0.4175
  529MOL0     C71308   9.666   7.511   3.746 -0.7253  0.1430  0.5236
  529MOL0     C71309   9.773   7.716   3.618 -0.8770 -0.8140 -0.5813
  529MOL0     C71310   9.838   7.641   3.505  0.3228  0.1396  0.9964
  529MOL0     O71311   9.896   7.704   3.399  0.1211  0.0527  1.0005
  529MOL0     C71312   9.936   7.647   3.291  1.0308  0.4930  0.0782
  529MOL0     C71313   9.883   7.526   3.229 -0.2420 -0.1300 -0.5922
  529MOL0     C71314   9.951   7.477   3.113  0.4748 -0.6210  0.8616
  529MOL0     C71315  10.061   7.545   3.058 -0.8421  0.0253  0.5768
  529MOL0     O71316  10.143   7.504   2.951  0.5224  0.0390  0.4927
  529MOL0     C71317  10.118   7.369   2.896  0.1863 -0.0946 -0.0232
  529MOL0     C71318  10.011   7.372   2.783  0.3166  0.3670  0.6253
  529MOL0     C71319  10.059   7.431   2.654 -0.4282 -0.1161 -0.4034
  529MOL0     C71320  10.111   7.331   2.552 -0.4888 -0.5569  0.5293
  529MOL0     C71321  10.261   7.285   2.574  0.0782 -0.1420  0.2568
  529MOL0     C71322  10.315   7.230   2.439 -0.3721 -0.5137  0.2010
  529MOL0     C71323  10.457   7.196   2.460 -0.8351 -1.3125 -0.4727
  529MOL0     C71324  10.506   7.129   2.335  0.0187  0.1908 -0.7096
  529MOL0    Cl71325  10.668   7.078   2.368  0.0557  0.4557  0.4715
  529MOL0     C71326  10.115   7.656   3.130 -0.6655 -0.0531  0.5090
  529MOL0     C71327  10.051   7.705   3.240 -0.6829  0.8125 -0.4407
  529MOL0     O71328   9.839   7.516   3.515  0.1600  0.2625  0.1268
  529MOL0     C71329   9.785   7.856   3.625 -0.2350 -0.3083 -0.2672
  529MOL0     C71330   9.728   7.936   3.724 -0.7824  0.1101 -0.8842
  529MOL0     N71331   9.852   8.276   4.415 -1.0592  0.1500  0.4502
  529MOL0     N71332   9.843   8.251   4.545 -0.5923  0.1038 -0.0964
  529MOL0     C71333   9.987   7.421   5.154  0.5942  0.5555 -0.1014
  529MOL0     C71334  10.092   7.390   5.058  0.3951 -1.4567 -1.0925
  529MOL0     C71335  10.467   7.468   4.758 -0.7231  0.7133  0.1161
  529MOL0     C71336  10.474   7.326   4.746 -0.1200 -0.0419  0.5472
  529MOL0     C71337  10.543   7.268   4.647  0.0042  0.1906  0.5753
  529MOL0     C71338  10.612   7.346   4.550  0.2965 -0.0703 -0.8175
  529MOL0     O71339  10.696   7.294   4.453  0.3636  0.1184 -0.1360
  529MOL0     C71340  10.673   7.149   4.431  0.5448 -0.9633 -0.0832
  529MOL0     C71341  10.774   7.097   4.326 -0.2258 -0.6264  0.1328
  529MOL0     C71342  10.926   7.098   4.390  0.5063  0.8441  0.3688
  529MOL0     C71343  11.033   7.088   4.278 -0.1254 -0.3666  0.7028
  529MOL0     C71344  11.074   6.947   4.246 -0.8568 -0.6956 -0.3870
  529MOL0     C71345  11.110   6.842   4.203  0.7036  0.5537 -1.5864
  529MOL0     C71346  10.607   7.485   4.568  0.2957 -0.0219  1.3377
  529MOL0     C71347  10.544   7.546   4.670  0.1882 -0.1643 -0.4325
  529MOL0     H71348  10.231   7.707   5.041 -3.1066  3.4042  1.6577
  529MOL0     H71349  10.029   7.755   5.166  3.6750 -0.5522  4.2334
  529MOL0     H71350   9.725   7.512   5.120  1.0950  0.4453 -1.0709
  529MOL0     H71351   9.668   7.536   5.291  0.8378  1.0494  1.2467
  529MOL0     H71352   9.554   7.714   5.183  0.0414  0.0685 -0.3705
  529MOL0     H71353   9.693   7.774   5.277  0.9024  2.0712 -1.9525
  529MOL0     H71354   9.823   7.773   5.063 -1.0498  0.6922  1.7572
  529MOL0     H71355   9.680   7.707   4.987 -1.7034  2.1807 -1.0652
  529MOL0     H71356   9.549   7.909   5.071  0.6275  3.2071  0.8957
  529MOL0     H71357   9.700   7.962   5.152  2.6536 -1.6132  0.0829
  529MOL0     H71358   9.641   8.083   4.962  0.8047  0.8003  2.6943
  529MOL0     H71359   9.799   7.996   4.941  0.0203  0.0505 -0.2506
  529MOL0     H71360   9.692   7.837   4.805  1.5623  1.5817 -0.9414
  529MOL0     H71361   9.530   7.909   4.827  0.5639 -1.1210 -0.4238
  529MOL0     H71362   9.648   7.943   4.599  4.8139  0.6025 -0.9157
  529MOL0     H71363   9.594   8.094   4.672 -2.0431 -0.9537 -1.2875
  529MOL0     H71364   9.858   7.942   4.685 -1.3082 -1.8471  3.6554
  529MOL0     H71365   9.842   8.104   4.754  2.3981  1.1857 -2.6111
  529MOL0     H71366   9.794   7.953   4.409 -0.9366  0.2670  0.8199
  529MOL0     H71367   9.870   8.250   4.153 -3.8893 -0.3372 -1.7958
  529MOL0     H71368   9.947   8.093   4.157 -0.9847  1.3557 -1.7329
  529MOL0     H71369   9.649   8.075   4.193  0.6393 -1.5205  1.4989
  529MOL0     H71370   9.784   7.983   4.131  1.8714  0.9995  0.7570
  529MOL0     H71371   9.783   8.136   3.920 -0.7906 -0.7920  0.2331
  529MOL0     H71372   9.673   8.244   4.007  1.4359  0.7096  4.8301
  529MOL0     H71373   9.560   8.117   3.829 -2.4023  3.0546  1.6314
  529MOL0     H71374   9.490   8.108   3.992  0.5740  3.6379 -0.1361
  529MOL0     H71375   9.585   7.701   3.909  1.7650  2.6631  2.7731
  529MOL0     H71376   9.752   7.445   3.736 -0.9118 -0.3099  1.7390
  529MOL0     H71377   9.630   7.497   3.848  1.4814 -0.2768  1.3047
  529MOL0     H71378   9.589   7.489   3.671  0.5130  0.5089 -0.9135
  529MOL0     H71379   9.805   7.466   3.275  1.0368 -1.1672  0.3083
  529MOL0     H71380   9.903   7.389   3.071  0.8566 -1.6330  2.4156
  529MOL0     H71381  10.210   7.322   2.858 -0.5558 -0.2935 -1.6905
  529MOL0     H71382  10.096   7.299   2.977  1.2123 -2.0379 -1.3258
  529MOL0     H71383   9.965   7.273   2.767 -1.3210  0.8962  1.7183
  529MOL0     H71384   9.919   7.426   2.810 -1.6248 -0.4486 -3.4945
  529MOL0     H71385  10.136   7.507   2.668  0.5533 -0.3852 -3.5993
  529MOL0     H71386   9.974   7.476   2.601 -1.7590 -2.8594 -0.7890
  529MOL0     H71387  10.046   7.242   2.551 -0.7870 -0.3391 -0.7455
  529MOL0     H71388  10.098   7.371   2.451 -2.5331 -0.7468  0.6697
  529MOL0     H71389  10.268   7.207   2.651  4.3631  1.6598  2.0048
  529MOL0     H71390  10.327   7.362   2.615 -0.2423 -0.8157  2.1339
  529MOL0     H71391  10.261   7.140   2.409 -1.8960  0.6426 -0.6532
  529MOL0     H71392  10.298   7.304   2.360  0.2667 -0.1475  0.3972
  529MOL0     H71393  10.466   7.128   2.545 -1.4487 -1.2227 -0.3348
  529MOL0     H71394  10.518   7.284   2.482  0.8112 -1.8044 -2.6735
  529MOL0     H71395  10.504   7.206   2.257  3.8412  0.3449 -0.8270
  529MOL0     H71396  10.448   7.042   2.302  0.1943  0.9115 -3.0880
  529MOL0     H71397  10.212   7.701   3.113 -0.6237 -0.1998  0.3524
  529MOL0     H71398  10.088   7.786   3.302 -2.5994  1.6085 -0.2549
  529MOL0     H71399   9.847   7.904   3.550  0.4853 -0.7169  0.0543
  529MOL0     H71400   9.752   8.042   3.725 -2.7970  0.6237  0.9051
  529MOL0     H71401   9.916   7.343   5.179  0.4905  1.4645  2.7603
  529MOL0     H71402  10.115   7.292   5.018  3.4009 -1.4291  0.3027
  529MOL0     H71403  10.413   7.267   4.812 -1.9478 -1.4814 -2.2321
  529MOL0     H71404  10.533   7.160   4.649 -5.5891  0.4344  2.1124
  529MOL0     H71405  10.676   7.090   4.523 -2.2446 -1.3616 -0.1674
  529MOL0     H71406  10.580   7.130   4.378  2.3220 -0.3330 -3.7105
  529MOL0     H71407  10.765   7.157   4.235  2.8226  0.4939  0.4530
  529MOL0     H71408  10.745   6.995   4.301  2.2204 -1.1861 -0.7139
  529MOL0     H71409  10.930   7.007   4.451 -0.8578  0.2254 -0.3906
  529MOL0     H71410  10.944   7.194   4.439  2.3594  1.5515 -1.5566
  529MOL0     H71411  11.117   7.147   4.314  0.6453  0.6672 -2.4715
  529MOL0     H71412  11.009   7.134   4.182  4.7934  0.1450 -0.5015
  529MOL0     H71413  11.138   6.742   4.178  1.5822 -0.3858  2.4009
  529MOL0     H71414  10.651   7.542   4.486  0.3792 -2.7507 -0.6335
  529MOL0     H71415  10.542   7.654   4.682 -2.3838  0.1805 -2.8200
  530MOL0     O71416   2.345   9.890   3.918  0.6971  0.2779 -0.2037
  530MOL0     C71417   2.456   9.944   3.915  0.1856 -0.4211 -0.0535
  530MOL0     O71418   2.482  10.056   3.846  0.0082 -0.1231  0.1493
  530MOL0     C71419   2.375  10.123   3.789 -0.1267 -0.3736 -0.4737
  530MOL0     C71420   2.385  10.166   3.651  0.3586  0.5389 -0.1598
  530MOL0     C71421   2.279  10.237   3.586  0.1466 -0.5071 -0.2330
  530MOL0     C71422   2.165  10.276   3.660 -0.3255  0.9566  0.0896
  530MOL0     O71423   2.065  10.340   3.599  0.0241  0.2049  0.3044
  530MOL0     C71424   1.984  10.417   3.691  0.3530  0.0969 -0.0366
  530MOL0     C71425   1.881  10.492   3.607  1.2950 -0.1194 -0.6663
  530MOL0     C71426   1.934  10.552   3.486  0.1677  0.0294  0.8578
  530MOL0     C71427   1.830  10.604   3.390 -0.2537 -0.2888 -0.2123
  530MOL0     C71428   1.888  10.642   3.251 -0.1979  0.8509  0.1104
  530MOL0     C71429   1.976  10.532   3.185 -0.7453  0.5632  0.2708
  530MOL0     C71430   2.068  10.581   3.071  0.3808  0.0367 -0.2641
  530MOL0     C71431   2.182  10.678   3.121  0.2323 -0.0899 -0.4262
  530MOL0     N71432   2.286  10.619   3.206 -0.1601 -0.4122 -0.2668
  530MOL0     C71433   2.397  10.538   3.175  0.3726 -0.0761 -0.3200
  530MOL0     C71434   2.431  10.472   3.294 -0.5469  1.0437 -0.4457
  530MOL0     C71435   2.534  10.359   3.314  0.6719  0.1768 -0.2983
  530MOL0     C71436   2.673  10.381   3.251  0.5289 -0.7255 -0.2491
  530MOL0     C71437   2.774  10.278   3.305  0.4877 -0.0438  0.2346
  530MOL0     C71438   2.898  10.292   3.223  0.4850 -0.3954 -0.3128
  530MOL0     O71439   3.024  10.231   3.283  0.3742 -0.3523 -0.9619
  530MOL0     C71440   3.146  10.261   3.237  0.6216  0.5459  0.0419
  530MOL0     C71441   3.163  10.325   3.112  0.7748  0.0618 -0.1411
  530MOL0     C71442   3.297  10.348   3.061 -0.4704  0.5818  0.6587
  530MOL0     C71443   3.323  10.408   2.929  0.0642  0.0738  1.8057
  530MOL0     C71444   3.407  10.309   3.139  0.5696  0.0124  0.3701
  530MOL0     C71445   3.546  10.342   3.094  0.5474 -0.2030  0.9237
  530MOL0     O71446   3.626  10.404   3.192  0.0802 -0.7314  0.4240
  530MOL0     C71447   3.752  10.449   3.159 -0.1931 -0.7865 -0.3373
  530MOL0     C71448   3.852  10.366   3.202 -1.0170 -0.3844 -0.0363
  530MOL0     C71449   3.981  10.411   3.178  0.2330 -0.4782 -0.2005
  530MOL0     C71450   4.010  10.528   3.111  0.0640  0.2389 -0.2941
  530MOL0     O71451   4.138  10.571   3.091  0.1094 -0.1204  0.5434
  530MOL0     C71452   4.229  10.478   3.021  0.0253 -0.0370 -0.5066
  530MOL0     C71453   4.366  10.517   3.065 -0.2349  0.7122 -1.4600
  530MOL0     C71454   4.481  10.489   2.966  0.1943 -0.7744  0.9345
  530MOL0     C71455   4.619  10.527   3.022  0.1695 -1.1460  0.3932
  530MOL0     C71456   4.721  10.540   2.907 -0.6153 -0.6448  0.4977
  530MOL0     C71457   4.738  10.415   2.818 -0.6187  0.4642 -0.1543
  530MOL0     C71458   4.787  10.296   2.897 -1.0529  0.5031  0.1133
  530MOL0     C71459   4.787  10.167   2.809  0.9449 -0.1657  0.2273
  530MOL0    Cl71460   4.627  10.131   2.748  0.5490  0.1783  0.4182
  530MOL0     C71461   3.903  10.615   3.073  0.5649  0.1149  0.1774
  530MOL0     C71462   3.770  10.580   3.107  0.0470 -0.1686  1.7304
  530MOL0     O71463   3.586  10.312   2.979  0.4591  0.0207  0.0012
  530MOL0     C71464   3.390  10.259   3.268  1.0511  0.3121  0.0220
  530MOL0     C71465   3.259  10.236   3.316  1.0997  0.0283 -0.9923
  530MOL0     N71466   2.339  10.506   3.389  0.4951  0.7348 -0.1320
  530MOL0     N71467   2.257  10.600   3.345  0.0605  0.2106  0.0122
  530MOL0     C71468   2.159  10.230   3.795 -0.0104  0.6548  0.0621
  530MOL0     C71469   2.260  10.159   3.856 -0.2950 -0.2693  0.0009
  530MOL0     C71470   2.557   9.885   4.003  0.3992 -1.0311 -0.5836
  530MOL0     C71471   2.669   9.962   4.034  0.8459 -0.8190 -0.1114
  530MOL0     C71472   2.769   9.912   4.115  0.4343 -0.0232  0.8803
  530MOL0     C71473   2.768   9.776   4.154  0.1018  0.5779 -0.4001
  530MOL0     O71474   2.877   9.730   4.221 -0.4248 -0.5160 -0.0610
  530MOL0     C71475   2.855   9.731   4.373 -0.5004  1.1056  0.5510
  530MOL0     C71476   2.938   9.612   4.424  0.6895  0.3539 -0.3500
  530MOL0     C71477   3.090   9.641   4.442 -0.5411  1.1172  0.8841
  530MOL0     C71478   3.161   9.513   4.492  0.2313  0.0327  0.7170
  530MOL0     C71479   3.305   9.538   4.526  0.7462  0.0352 -0.1872
  530MOL0     C71480   3.425   9.552   4.538  1.1782 -0.3322 -0.6202
  530MOL0     C71481   2.654   9.704   4.134  0.1809  0.3149  0.3624
  530MOL0     C71482   2.545   9.764   4.063 -0.4061 -0.4697 -0.8067
  530MOL0     H71483   2.459  10.128   3.582  1.1296  1.6975 -0.0014
  530MOL0     H71484   2.289  10.251   3.479 -0.8766 -1.4163 -0.4681
  530MOL0     H71485   1.929  10.349   3.755  2.6125 -1.1043  0.7454
  530MOL0     H71486   2.044  10.488   3.750  2.5232 -0.1500 -1.8174
  530MOL0     H71487   1.807  10.416   3.581  0.2977  1.0773 -1.4347
  530MOL0     H71488   1.824  10.566   3.664  1.3294  0.2822 -1.1450
  530MOL0     H71489   1.999  10.637   3.511  2.1847  0.1059 -3.6350
  530MOL0     H71490   1.984  10.468   3.438  3.3793  0.8735  2.4084
  530MOL0     H71491   1.745  10.539   3.364 -2.4757  1.7130  1.5108
  530MOL0     H71492   1.786  10.687   3.446 -0.1305  0.3459 -1.0439
  530MOL0     H71493   1.808  10.658   3.178  1.9073  0.0153 -2.5520
  530MOL0     H71494   1.959  10.724   3.266  0.1373  0.6456 -0.3028
  530MOL0     H71495   2.041  10.473   3.248 -0.0989 -1.5425 -2.2013
  530MOL0     H71496   1.913  10.450   3.149 -1.3818  1.2332 -0.1946
  530MOL0     H71497   2.106  10.500   3.009 -0.9683  0.4969 -1.7638
  530MOL0     H71498   2.009  10.643   3.003  0.5243  1.5905  0.9486
  530MOL0     H71499   2.127  10.759   3.169 -1.3496 -0.4721 -1.5099
  530MOL0     H71500   2.224  10.724   3.031  2.2599  0.4114  0.7000
  530MOL0     H71501   2.450  10.527   3.081 -2.5630 -0.5744 -2.0308
  530MOL0     H71502   2.552  10.356   3.422  2.3275  2.2249 -0.4599
  530MOL0     H71503   2.502  10.263   3.272  0.0377  1.1761 -2.2046
  530MOL0     H71504   2.711  10.482   3.267  0.4357 -0.0937 -3.4839
  530MOL0     H71505   2.662  10.364   3.144  0.1523 -1.5811 -0.0854
  530MOL0     H71506   2.734  10.177   3.289 -0.0694 -0.1207  1.9528
  530MOL0     H71507   2.788  10.291   3.413 -3.0649  1.4787  0.6646
  530MOL0     H71508   2.923  10.394   3.192 -0.3998 -0.6943 -2.2078
  530MOL0     H71509   2.865  10.233   3.136 -0.4609 -0.9964  0.4254
  530MOL0     H71510   3.089  10.344   3.034  0.6331 -0.2513 -0.0826
  530MOL0     H71511   3.360  10.330   2.861 -0.3981 -1.3820  3.1819
  530MOL0     H71512   3.232  10.449   2.884  1.2657  1.7051  0.7575
  530MOL0     H71513   3.392  10.493   2.940  3.3090 -2.3638  1.7398
  530MOL0     H71514   3.830  10.283   3.268 -1.0750  0.8544  1.5908
  530MOL0     H71515   4.061  10.361   3.231 -0.6023  0.0540  1.6689
  530MOL0     H71516   4.206  10.372   3.035  0.1395 -0.1284 -1.0132
  530MOL0     H71517   4.231  10.506   2.916  1.1102  5.1066  0.5971
  530MOL0     H71518   4.374  10.621   3.099  0.8551 -0.1449  1.1071
  530MOL0     H71519   4.371  10.450   3.151 -3.1080  2.4857  0.2656
  530MOL0     H71520   4.459  10.548   2.877  1.1281 -2.7598 -0.7034
  530MOL0     H71521   4.485  10.381   2.945 -2.1470 -1.3455  2.9366
  530MOL0     H71522   4.618  10.627   3.067  1.2023 -1.2473  0.6608
  530MOL0     H71523   4.651  10.454   3.096 -1.9697 -1.1544  1.3941
  530MOL0     H71524   4.813  10.578   2.951 -0.9283  1.0301 -0.2161
  530MOL0     H71525   4.693  10.621   2.839 -1.5736  1.2174  2.9666
  530MOL0     H71526   4.639  10.386   2.780 -1.3749  1.9014  0.6312
  530MOL0     H71527   4.812  10.442   2.743 -0.4637  0.9782  0.1864
  530MOL0     H71528   4.721  10.282   2.983  0.8323 -0.1177  1.5516
  530MOL0     H71529   4.885  10.309   2.945 -0.7110 -2.8457  0.5571
  530MOL0     H71530   4.841  10.083   2.852 -0.6994 -1.5889 -0.3292
  530MOL0     H71531   4.853  10.175   2.722  1.9918 -1.7579  0.8189
  530MOL0     H71532   3.916  10.716   3.037 -1.4373  0.3884  0.0967
  530MOL0     H71533   3.679  10.638   3.093  1.7841  2.3476 -0.0339
  530MOL0     H71534   3.475  10.218   3.322  1.6725 -0.0723 -1.2179
  530MOL0     H71535   3.249  10.195   3.416  0.7507 -1.6605 -1.6760
  530MOL0     H71536   2.076  10.262   3.858  0.1632 -0.2399  0.7736
  530MOL0     H71537   2.251  10.121   3.958  0.3491 -2.6403 -0.7573
  530MOL0     H71538   2.658  10.066   4.005  0.0502 -1.1260 -0.9879
  530MOL0     H71539   2.841   9.987   4.144  0.2705  0.6487 -0.3818
  530MOL0     H71540   2.892   9.822   4.422  2.7260 -0.4312  1.2404
  530MOL0     H71541   2.752   9.706   4.400 -0.6279  0.2155 -0.6776
  530MOL0     H71542   2.926   9.524   4.360  2.6298 -0.2491  0.0734
  530MOL0     H71543   2.894   9.587   4.521  1.4646  0.8407  0.1409
  530MOL0     H71544   3.094   9.720   4.518  1.4326  3.0836 -1.1101
  530MOL0     H71545   3.136   9.674   4.349 -4.6096  1.7984 -1.1266
  530MOL0     H71546   3.168   9.438   4.414 -0.7828 -0.0881  0.7274
  530MOL0     H71547   3.116   9.483   4.588  1.3216 -0.0001  1.2380
  530MOL0     H71548   3.529   9.577   4.539  1.6417 -2.0790  0.5363
  530MOL0     H71549   2.653   9.606   4.180 -1.0620  0.4610  0.6793
  530MOL0     H71550   2.459   9.704   4.034 -1.1267 -0.1876  0.6894
  531MOL0     O71551   6.852  10.244   5.337  0.5661  0.3191 -0.6286
  531MOL0     C71552   6.960  10.295   5.346 -0.5945 -0.0317 -0.0393
  531MOL0     O71553   7.076  10.237   5.305  0.2717 -0.1199  0.3110
  531MOL0     C71554   7.055  10.116   5.233 -0.9108  0.3179  0.2834
  531MOL0     C71555   7.065   9.994   5.300 -0.0596 -0.5787 -0.5510
  531MOL0     C71556   7.058   9.880   5.233 -0.3736 -0.4079  1.3562
  531MOL0     C71557   7.012   9.871   5.102 -0.1638 -0.5709 -0.0685
  531MOL0     O71558   7.009   9.743   5.053 -0.3944  0.6182  0.4215
  531MOL0     C71559   6.903   9.726   4.957  0.0294  0.5090  0.0843
  531MOL0     C71560   6.886   9.578   4.915  0.1876  0.8224  0.7332
  531MOL0     C71561   6.939   9.474   5.021  0.2644  1.1340  0.0953
  531MOL0     C71562   6.947   9.332   4.956  0.2845 -0.4981  0.5745
  531MOL0     C71563   7.030   9.221   5.030  0.4453  0.3542 -0.3208
  531MOL0     C71564   6.969   9.185   5.172  0.1221 -0.0817  0.1519
  531MOL0     C71565   7.058   9.083   5.247 -1.1722  0.8220 -0.0699
  531MOL0     C71566   6.981   9.044   5.380  0.4701  0.1399  0.3311
  531MOL0     N71567   6.996   9.133   5.506 -0.5322 -0.8578  0.5366
  531MOL0     C71568   7.105   9.166   5.575  0.0372 -0.0003  0.0767
  531MOL0     C71569   7.057   9.261   5.662 -0.2884 -0.2725 -0.4326
  531MOL0     C71570   7.156   9.313   5.772  0.0467 -0.2776  0.6304
  531MOL0     C71571   7.088   9.312   5.913 -0.3639 -0.0763 -0.4775
  531MOL0     C71572   7.014   9.435   5.967  0.4127  0.2615 -0.3578
  531MOL0     C71573   6.910   9.508   5.879  0.1748 -0.2682  0.0160
  531MOL0     O71574   6.837   9.593   5.968 -0.8072  0.0036 -0.0067
  531MOL0     C71575   6.734   9.531   6.036  0.3819 -0.6729  0.3307
  531MOL0     C71576   6.683   9.611   6.140  0.7443 -0.8541  0.4937
  531MOL0     C71577   6.593   9.559   6.234 -0.2524  0.6299  0.0132
  531MOL0     C71578   6.546   9.650   6.342 -0.1177  0.1467  0.1042
  531MOL0     C71579   6.563   9.416   6.223  0.4052 -0.3908  0.1061
  531MOL0     C71580   6.465   9.367   6.315  0.4346  0.2826  0.3064
  531MOL0     O71581   6.499   9.256   6.370 -0.0925 -0.2592 -0.0287
  531MOL0     C71582   6.403   9.164   6.397 -0.0800  0.1971  1.5306
  531MOL0     C71583   6.369   9.136   6.523  0.2046  1.3077 -1.2013
  531MOL0     C71584   6.291   9.017   6.561 -0.1043  0.9580 -0.2086
  531MOL0     C71585   6.257   8.927   6.458 -1.0579 -0.2233 -0.5899
  531MOL0     O71586   6.184   8.821   6.499  0.4422  0.8937 -1.0123
  531MOL0     C71587   6.184   8.705   6.405  0.0711  0.8741 -0.0846
  531MOL0     C71588   6.116   8.576   6.480  0.5864  0.0878  0.7312
  531MOL0     C71589   5.993   8.618   6.562  0.2113  0.9460 -0.6653
  531MOL0     C71590   5.904   8.494   6.591  0.3284  0.8976  0.4000
  531MOL0     C71591   5.785   8.519   6.685 -1.3285 -0.2573  0.8807
  531MOL0     C71592   5.722   8.389   6.720  0.6680 -0.5088  0.2840
  531MOL0     C71593   5.793   8.321   6.846  0.5367  0.2040  0.8387
  531MOL0     C71594   5.774   8.383   6.988 -0.2086 -0.0773  0.6050
  531MOL0    Cl71595   5.613   8.380   7.045 -0.2171 -0.2489  0.1755
  531MOL0     C71596   6.286   8.965   6.330 -0.8711  0.2532  0.6046
  531MOL0     C71597   6.353   9.090   6.298 -0.7392  0.1639  0.0551
  531MOL0     O71598   6.351   9.421   6.324  0.0187  0.3655  0.0441
  531MOL0     C71599   6.605   9.337   6.114 -0.6453 -0.3322 -0.6251
  531MOL0     C71600   6.689   9.396   6.016  0.1011 -0.4131  0.1927
  531MOL0     N71601   6.923   9.272   5.650 -0.1321  1.2489 -0.0070
  531MOL0     N71602   6.883   9.201   5.549  0.0591  0.3163  0.1971
  531MOL0     C71603   7.008   9.985   5.024  0.8061  0.2057 -0.2035
  531MOL0     C71604   7.027  10.110   5.086 -0.3205  0.0078 -0.4427
  531MOL0     C71605   6.970  10.422   5.417  0.6053 -0.1735  0.7084
  531MOL0     C71606   6.860  10.499   5.433 -0.0482 -0.2331  0.0542
  531MOL0     C71607   6.868  10.629   5.488 -0.0931  0.7751  0.2753
  531MOL0     C71608   6.986  10.678   5.545  0.4147 -0.1095  0.3146
  531MOL0     O71609   7.003  10.797   5.610 -0.0758  0.3652 -0.4123
  531MOL0     C71610   6.900  10.893   5.599 -0.0593 -0.0088 -1.2610
  531MOL0     C71611   6.794  10.885   5.715  0.4709  0.7332  0.2742
  531MOL0     C71612   6.863  10.890   5.852  0.6206  0.0870 -0.2812
  531MOL0     C71613   6.905  11.038   5.892 -0.2100 -0.5744  0.3629
  531MOL0     C71614   7.001  11.106   5.814 -0.7881 -0.2440  0.7569
  531MOL0     C71615   7.085  11.167   5.755 -0.4580 -1.0391 -0.6123
  531MOL0     C71616   7.101  10.594   5.539  0.2932  0.6375  0.6211
  531MOL0     C71617   7.102  10.468   5.473  0.1673 -0.4847  0.4247
  531MOL0     H71618   7.080   9.981   5.407  0.7012  0.7035 -0.4739
  531MOL0     H71619   7.093   9.792   5.286  1.4146  1.3360  3.2292
  531MOL0     H71620   6.816   9.760   5.014 -0.0469  1.0927 -0.3710
  531MOL0     H71621   6.918   9.784   4.865  1.9458  1.6701  1.0554
  531MOL0     H71622   6.779   9.558   4.904  0.0352  0.7829  2.1085
  531MOL0     H71623   6.932   9.561   4.818 -2.1883 -0.5031 -0.2596
  531MOL0     H71624   7.031   9.495   5.077 -1.6036 -0.5998  4.2196
  531MOL0     H71625   6.866   9.469   5.102 -0.2474  0.4526 -0.3996
  531MOL0     H71626   6.846   9.291   4.949  0.7394 -1.4826 -1.0711
  531MOL0     H71627   6.983   9.342   4.853 -3.0768 -2.2716 -0.9580
  531MOL0     H71628   7.047   9.126   4.979 -0.7739 -0.0159 -0.0775
  531MOL0     H71629   7.129   9.266   5.039  0.6424  0.8447 -3.7962
  531MOL0     H71630   6.956   9.270   5.240 -4.9694 -0.4505  0.0510
  531MOL0     H71631   6.867   9.146   5.173  0.9110 -2.3911  2.9788
  531MOL0     H71632   7.069   8.996   5.182  1.2127  1.0080  0.0154
  531MOL0     H71633   7.153   9.133   5.265 -0.3727 -0.8938  0.6147
  531MOL0     H71634   7.001   8.941   5.412 -0.7073 -0.2964 -0.2876
  531MOL0     H71635   6.876   9.035   5.352  0.2334  0.0651  1.2286
  531MOL0     H71636   7.203   9.122   5.557  0.4743 -0.5925  3.3441
  531MOL0     H71637   7.246   9.251   5.780 -1.1691 -1.9416  2.4000
  531MOL0     H71638   7.183   9.417   5.748 -4.1404  0.5779 -1.2705
  531MOL0     H71639   7.171   9.296   5.982 -0.4303  0.2052 -0.3349
  531MOL0     H71640   7.029   9.219   5.920  0.8167 -0.9668 -1.7162
  531MOL0     H71641   7.084   9.510   6.004 -0.0620 -0.1371  1.4077
  531MOL0     H71642   6.959   9.407   6.057  0.2984  3.6951  0.7712
  531MOL0     H71643   6.849   9.439   5.821  1.7850 -0.6731 -1.2681
  531MOL0     H71644   6.966   9.571   5.810  0.4171 -2.3189 -1.7435
  531MOL0     H71645   6.715   9.713   6.159 -0.5401 -0.6066  1.4014
  531MOL0     H71646   6.581   9.753   6.331 -1.7222  0.9236  1.7571
  531MOL0     H71647   6.440   9.660   6.364 -0.0686 -0.1429  0.5016
  531MOL0     H71648   6.600   9.614   6.430  0.5487  1.4502  0.2536
  531MOL0     H71649   6.416   9.190   6.605 -0.3609 -0.9275  0.6734
  531MOL0     H71650   6.273   8.997   6.666  2.0909  0.2802  0.0803
  531MOL0     H71651   6.131   8.731   6.313 -0.0980 -0.5568 -0.4095
  531MOL0     H71652   6.285   8.671   6.380 -0.3265 -0.0182 -0.5149
  531MOL0     H71653   6.085   8.501   6.407 -0.4752  0.2838  0.9593
  531MOL0     H71654   6.190   8.546   6.555  1.0710  1.7525  0.9529
  531MOL0     H71655   5.931   8.686   6.504  0.1385  1.0852 -0.4259
  531MOL0     H71656   6.020   8.674   6.652 -0.0946 -1.6231  1.1436
  531MOL0     H71657   5.867   8.446   6.500 -1.2413 -0.5886  1.7521
  531MOL0     H71658   5.965   8.418   6.643  0.4748 -0.3639 -1.5280
  531MOL0     H71659   5.719   8.582   6.624 -1.0620 -0.9252 -0.1195
  531MOL0     H71660   5.814   8.581   6.770  0.0748  0.2875  0.0428
  531MOL0     H71661   5.617   8.416   6.735  0.3283 -0.4504 -1.8805
  531MOL0     H71662   5.723   8.316   6.639  1.4730 -1.8361  1.4580
  531MOL0     H71663   5.899   8.319   6.819  0.2278  0.5612 -0.5139
  531MOL0     H71664   5.764   8.217   6.862 -2.3300  1.1717  2.6670
  531MOL0     H71665   5.808   8.487   6.986 -0.9516  0.2020  1.6522
  531MOL0     H71666   5.834   8.324   7.058  1.6966  1.0832  0.0147
  531MOL0     H71667   6.268   8.912   6.237  1.5143 -0.7723  0.6401
  531MOL0     H71668   6.382   9.120   6.197 -1.6296 -0.5355 -0.4140
  531MOL0     H71669   6.572   9.236   6.095  0.0260 -0.3742 -1.6073
  531MOL0     H71670   6.715   9.328   5.935  1.3225  1.8867 -1.4611
  531MOL0     H71671   7.011   9.968   4.917  3.0261  1.1950 -0.3519
  531MOL0     H71672   7.040  10.206   5.036  0.7640 -0.2445 -0.6854
  531MOL0     H71673   6.761  10.467   5.403 -1.8661  1.6691  3.4732
  531MOL0     H71674   6.778  10.690   5.491 -1.0250 -0.5015 -0.5499
  531MOL0     H71675   6.946  10.992   5.593 -0.2205  0.1923  0.5243
  531MOL0     H71676   6.843  10.892   5.505  0.4637  0.9294 -1.6004
  531MOL0     H71677   6.736  10.792   5.707 -0.4569  1.3662 -0.5680
  531MOL0     H71678   6.727  10.971   5.709 -3.1603 -1.7327  1.7186
  531MOL0     H71679   6.942  10.814   5.848 -1.7818 -2.5555 -0.9112
  531MOL0     H71680   6.793  10.854   5.928 -1.1207 -0.3533 -2.0131
  531MOL0     H71681   6.936  11.028   5.996 -2.0430  0.2334  1.0298
  531MOL0     H71682   6.813  11.096   5.891 -0.6115 -1.1009  2.4559
  531MOL0     H71683   7.177  11.203   5.712  0.8321 -2.0916  1.1528
  531MOL0     H71684   7.175  10.628   5.610  0.4680  0.8019  0.3607
  531MOL0     H71685   7.185  10.400   5.487 -0.1409 -0.8351  0.5380
  532MOL0     O71686   2.738   1.248   2.584  0.3000  0.1038 -0.2129
  532MOL0     C71687   2.819   1.168   2.525 -0.9687 -0.1650 -0.2267
  532MOL0     O71688   2.897   1.078   2.579 -0.2065 -1.0726  0.0593
  532MOL0     C71689   2.883   1.072   2.712 -0.8304  0.5573 -0.3534
  532MOL0     C71690   2.987   1.133   2.793  1.3762  0.4114 -0.6910
  532MOL0     C71691   2.975   1.118   2.932  0.2982  0.3574 -0.3717
  532MOL0     C71692   2.861   1.066   2.996 -0.2277 -0.2931 -0.2182
  532MOL0     O71693   2.845   1.043   3.131 -0.0946 -0.4518  0.1279
  532MOL0     C71694   2.916   1.136   3.220 -0.3366 -0.3704 -1.3564
  532MOL0     C71695   2.861   1.122   3.366  0.5588 -0.8151 -1.0522
  532MOL0     C71696   2.897   1.245   3.448  0.8473  0.1274 -0.4011
  532MOL0     C71697   2.818   1.232   3.584 -0.0539  0.1217  0.0150
  532MOL0     C71698   2.893   1.133   3.673 -0.0075  0.6214  0.0330
  532MOL0     C71699   2.858   1.173   3.818  0.1889 -0.5213 -0.6944
  532MOL0     C71700   2.952   1.126   3.914  0.0724 -0.2723 -0.0947
  532MOL0     C71701   3.098   1.168   3.903  0.1010 -0.1791  0.0339
  532MOL0     N71702   3.115   1.300   3.841 -0.6263 -0.5847  0.3739
  532MOL0     C71703   3.071   1.423   3.886  0.2591  0.4044  0.3479
  532MOL0     C71704   3.099   1.512   3.789 -0.6022 -1.0523 -0.4979
  532MOL0     C71705   3.070   1.659   3.789 -1.4525  0.0291  0.7175
  532MOL0     C71706   3.044   1.717   3.648  0.1311  0.3542 -0.5579
  532MOL0     C71707   2.944   1.640   3.559 -0.3470  0.2520 -0.3637
  532MOL0     C71708   2.803   1.696   3.548 -0.0263  0.2733 -0.1294
  532MOL0     O71709   2.730   1.659   3.431  0.6940  0.0090 -0.3186
  532MOL0     C71710   2.627   1.566   3.426  0.4315 -0.1430 -0.1329
  532MOL0     C71711   2.544   1.528   3.527 -0.1396 -0.2010 -0.5010
  532MOL0     C71712   2.424   1.448   3.508  0.0087  0.4303 -0.1214
  532MOL0     C71713   2.352   1.417   3.630  0.4988 -0.1307  0.6387
  532MOL0     C71714   2.379   1.428   3.374  0.2806 -1.0793  0.5713
  532MOL0     C71715   2.244   1.370   3.337  0.7994  0.5188 -0.7460
  532MOL0     O71716   2.170   1.415   3.243  0.2261 -0.9012  0.3057
  532MOL0     C71717   2.075   1.332   3.189  0.0743  0.3733 -2.0828
  532MOL0     C71718   1.960   1.305   3.262 -0.0766 -0.1848  0.1421
  532MOL0     C71719   1.855   1.235   3.213 -0.3272  1.0444  0.2130
  532MOL0     C71720   1.860   1.173   3.088 -0.5056  0.0667 -0.0674
  532MOL0     O71721   1.752   1.107   3.027  0.0420  0.3799 -0.2377
  532MOL0     C71722   1.696   1.005   3.110 -0.0922 -0.8381  0.8006
  532MOL0     C71723   1.648   0.890   3.039 -0.0093 -0.2544  0.7932
  532MOL0     C71724   1.548   0.908   2.927  0.9834  0.0039 -0.3849
  532MOL0     C71725   1.411   0.918   2.979  0.4751 -0.4415  0.1791
  532MOL0     C71726   1.305   0.905   2.861 -0.0135  0.0903 -0.2726
  532MOL0     C71727   1.165   0.902   2.923  0.3865  0.3911 -0.5517
  532MOL0     C71728   1.057   0.893   2.821 -0.6333  0.0860 -0.1226
  532MOL0     C71729   0.997   0.754   2.812 -0.5047  0.4124  0.1860
  532MOL0    Cl71730   0.922   0.717   2.654 -0.3167 -0.7355 -0.0183
  532MOL0     C71731   1.980   1.205   3.016  0.4245  0.2358  0.1160
  532MOL0     C71732   2.080   1.286   3.061  0.1894  0.3584  0.5782
  532MOL0     O71733   2.206   1.280   3.419  0.1317 -0.3956 -0.2727
  532MOL0     C71734   2.460   1.479   3.271 -0.3718 -0.2335  0.2574
  532MOL0     C71735   2.584   1.536   3.299 -0.1990 -0.1917  0.7700
  532MOL0     N71736   3.183   1.436   3.694 -0.0490 -0.6639 -0.3795
  532MOL0     N71737   3.190   1.316   3.726  0.1291  0.5825 -0.2276
  532MOL0     C71738   2.761   1.027   2.912  0.0347 -0.1944  0.0574
  532MOL0     C71739   2.775   1.015   2.774  0.2551 -0.0811  0.7642
  532MOL0     C71740   2.827   1.186   2.377  0.4737  0.2203 -1.1969
  532MOL0     C71741   2.775   1.303   2.319 -0.8724  0.1813  0.4458
  532MOL0     C71742   2.789   1.324   2.176 -0.7510 -0.9891 -0.1915
  532MOL0     C71743   2.861   1.237   2.097 -0.3576  0.3336  0.0016
  532MOL0     O71744   2.871   1.280   1.966 -0.6682  0.2667  0.3761
  532MOL0     C71745   2.928   1.204   1.860  0.8638  0.4673  0.6436
  532MOL0     C71746   2.817   1.157   1.765  0.4434 -0.6337  0.2194
  532MOL0     C71747   2.749   1.278   1.698  0.3430  0.6221 -0.5279
  532MOL0     C71748   2.681   1.214   1.573  0.1046 -0.0844  0.0857
  532MOL0     C71749   2.636   1.319   1.480 -0.0766  0.0722 -0.0641
  532MOL0     C71750   2.603   1.408   1.413 -0.6557 -0.0520  1.1777
  532MOL0     C71751   2.917   1.114   2.155  0.0579 -0.3045  0.3937
  532MOL0     C71752   2.898   1.092   2.291 -0.2557 -0.6944 -0.1707
  532MOL0     H71753   3.075   1.180   2.751  4.1476 -3.3406  0.3314
  532MOL0     H71754   3.066   1.146   2.985  0.1430  0.8360 -0.3529
  532MOL0     H71755   3.019   1.102   3.225 -0.7722 -1.6371 -0.2077
  532MOL0     H71756   2.905   1.235   3.175  0.7935  1.2938  1.7617
  532MOL0     H71757   2.752   1.113   3.371  0.0099  3.7178  0.0227
  532MOL0     H71758   2.915   1.038   3.411  1.7001  0.9599  1.1094
  532MOL0     H71759   3.003   1.251   3.478 -0.2402 -2.8227  5.4658
  532MOL0     H71760   2.869   1.333   3.390  1.7591  2.5185  2.4951
  532MOL0     H71761   2.836   1.335   3.615 -1.0314  0.0256  0.9480
  532MOL0     H71762   2.714   1.202   3.570  0.4041 -1.6110  0.0672
  532MOL0     H71763   2.864   1.031   3.645 -1.8343  1.0029  0.4054
  532MOL0     H71764   3.002   1.142   3.678 -0.1837  2.1264  3.8073
  532MOL0     H71765   2.849   1.280   3.840  0.2334 -0.1826 -2.1986
  532MOL0     H71766   2.757   1.133   3.834  0.1678 -0.3604 -0.4193
  532MOL0     H71767   2.907   1.149   4.011  1.1186 -3.1842  1.2073
  532MOL0     H71768   2.963   1.018   3.924  0.9972 -0.0489  2.0457
  532MOL0     H71769   3.148   1.099   3.834 -2.6170  0.0742 -2.3610
  532MOL0     H71770   3.142   1.151   4.002  1.0738  4.2043  0.5236
  532MOL0     H71771   3.027   1.445   3.983  0.0513  0.9902  0.1277
  532MOL0     H71772   2.976   1.676   3.842 -1.0938  0.0399  1.3576
  532MOL0     H71773   3.157   1.698   3.842  0.1337  0.0841 -1.7842
  532MOL0     H71774   3.142   1.729   3.601  0.7954  3.3913  1.2902
  532MOL0     H71775   3.013   1.820   3.668  3.9651  1.5803  0.0092
  532MOL0     H71776   2.950   1.536   3.594  3.6196  0.3905 -0.0896
  532MOL0     H71777   2.980   1.637   3.455 -0.1264  1.6720 -0.3367
  532MOL0     H71778   2.838   1.799   3.537  0.4105  0.1747  0.3317
  532MOL0     H71779   2.752   1.666   3.640 -0.6735 -0.3615 -0.6766
  532MOL0     H71780   2.564   1.556   3.630  1.2730 -1.2180 -0.4728
  532MOL0     H71781   2.247   1.443   3.612  0.6690 -0.7026 -1.4816
  532MOL0     H71782   2.345   1.310   3.646  0.0303 -0.2695 -0.3901
  532MOL0     H71783   2.399   1.474   3.711  2.5168  2.6027 -2.2097
  532MOL0     H71784   1.953   1.335   3.366  0.8262  0.4338  0.0386
  532MOL0     H71785   1.770   1.227   3.280  0.9358 -0.9036  1.6785
  532MOL0     H71786   1.765   0.962   3.183 -0.7529 -1.0478  1.3060
  532MOL0     H71787   1.609   1.049   3.159  1.9034  2.5710  1.6101
  532MOL0     H71788   1.735   0.849   2.987 -1.2245  0.6459 -2.2196
  532MOL0     H71789   1.613   0.829   3.122 -3.5461  3.1401  2.1222
  532MOL0     H71790   1.549   0.822   2.860  1.0414 -0.6209  0.4102
  532MOL0     H71791   1.578   0.991   2.862  2.1045 -0.1446 -0.0795
  532MOL0     H71792   1.383   0.831   3.040 -0.0548 -0.5418 -0.2088
  532MOL0     H71793   1.396   1.008   3.039  1.2334  1.5641 -2.4720
  532MOL0     H71794   1.322   0.815   2.800 -0.4551 -0.7044  0.7540
  532MOL0     H71795   1.310   0.997   2.801 -4.9808  0.3725 -0.7316
  532MOL0     H71796   1.167   0.819   2.995 -2.2441  0.4671 -0.3073
  532MOL0     H71797   1.148   0.993   2.981 -0.1937 -0.5824  0.8652
  532MOL0     H71798   1.089   0.911   2.718  0.5501 -1.7335 -0.1243
  532MOL0     H71799   0.987   0.971   2.851 -2.0896 -2.4750  4.1371
  532MOL0     H71800   0.923   0.749   2.893  1.2435  2.5263  2.0675
  532MOL0     H71801   1.081   0.686   2.831  1.3620  1.9416 -2.0590
  532MOL0     H71802   1.998   1.156   2.921  1.0278  3.0039 -1.2760
  532MOL0     H71803   2.161   1.297   2.989  0.5996  1.2075  1.1562
  532MOL0     H71804   2.421   1.476   3.169 -0.2022  2.4095  0.0453
  532MOL0     H71805   2.639   1.562   3.209  0.0934 -1.0672  0.6892
  532MOL0     H71806   2.668   1.003   2.962  0.3207 -1.9289 -0.1479
  532MOL0     H71807   2.701   0.962   2.715 -0.7012  0.8250  1.1038
  532MOL0     H71808   2.727   1.378   2.382 -0.5327  0.5176  0.3116
  532MOL0     H71809   2.754   1.419   2.136  3.7965  1.2334  0.5029
  532MOL0     H71810   3.000   1.262   1.802 -0.6966  1.4799 -0.3756
  532MOL0     H71811   2.980   1.114   1.893 -0.3538  0.2226  1.9713
  532MOL0     H71812   2.753   1.093   1.825  0.2636 -0.7668 -0.1107
  532MOL0     H71813   2.870   1.097   1.690  1.0996 -1.3262  1.2100
  532MOL0     H71814   2.824   1.352   1.669 -0.4658  0.7871 -2.3836
  532MOL0     H71815   2.678   1.327   1.765  1.0349  0.6681  0.1895
  532MOL0     H71816   2.600   1.144   1.592  0.2809 -0.1205  0.7186
  532MOL0     H71817   2.747   1.154   1.510  1.6036  0.1950  1.3364
  532MOL0     H71818   2.573   1.492   1.353 -0.6895 -0.0113  1.2514
  532MOL0     H71819   2.966   1.038   2.096  0.8726 -0.2198  0.9483
  532MOL0     H71820   2.948   1.007   2.335  2.1414  0.7315 -0.0120
  533MOL0     O71821   6.897   1.435   3.777  0.3109 -0.9151 -0.0131
  533MOL0     C71822   6.823   1.377   3.858  0.3150 -0.5951  0.6773
  533MOL0     O71823   6.794   1.425   3.986  0.5073  1.0043  0.5562
  533MOL0     C71824   6.828   1.544   4.038 -0.6188  0.2411  0.3796
  533MOL0     C71825   6.727   1.617   4.091  0.2149  0.5882 -1.0888
  533MOL0     C71826   6.764   1.744   4.144 -0.4205 -0.5330  0.2653
  533MOL0     C71827   6.897   1.795   4.143  0.0956  0.0125 -0.8857
  533MOL0     O71828   6.912   1.929   4.187 -0.1299 -0.4489  0.0179
  533MOL0     C71829   7.019   1.979   4.258 -0.5518 -0.6597 -0.5350
  533MOL0     C71830   6.965   1.995   4.397 -0.5087  0.6033 -0.7284
  533MOL0     C71831   6.994   2.129   4.474 -0.3867 -0.0136  0.2104
  533MOL0     C71832   6.952   2.128   4.622  0.4856 -0.3226 -0.4719
  533MOL0     C71833   6.975   2.267   4.695 -0.4066 -0.0780  0.2539
  533MOL0     C71834   6.927   2.285   4.834  0.4234  0.4016 -0.2114
  533MOL0     C71835   6.775   2.270   4.854 -0.0656 -0.2242  0.0830
  533MOL0     C71836   6.698   2.367   4.769 -0.6431 -0.1061 -0.6183
  533MOL0     N71837   6.553   2.347   4.765 -0.1396  1.1036 -0.2767
  533MOL0     C71838   6.469   2.412   4.677 -0.3402 -0.9338  0.3183
  533MOL0     C71839   6.349   2.335   4.681 -0.2644  0.3872  0.4531
  533MOL0     C71840   6.224   2.338   4.597  0.0425  0.2663 -0.1994
  533MOL0     C71841   6.113   2.400   4.667  0.2453 -1.4402  0.3716
  533MOL0     C71842   5.972   2.346   4.618 -0.1090 -0.8147 -0.6497
  533MOL0     C71843   5.856   2.410   4.691 -0.0993 -0.2541  0.2610
  533MOL0     O71844   5.847   2.548   4.661  0.0393 -0.3461 -0.1068
  533MOL0     C71845   5.761   2.635   4.730  0.0029 -0.3548 -0.0614
  533MOL0     C71846   5.793   2.760   4.710 -0.9441 -1.4683  0.2476
  533MOL0     C71847   5.711   2.864   4.757 -0.8365  0.6495  0.5496
  533MOL0     C71848   5.752   3.014   4.726 -0.2713 -0.5654  1.0728
  533MOL0     C71849   5.592   2.823   4.829 -0.6356 -0.2706 -0.3153
  533MOL0     C71850   5.487   2.915   4.879  0.2828 -0.4451  0.5829
  533MOL0     O71851   5.428   2.999   4.790 -0.2124  0.0491 -0.7708
  533MOL0     C71852   5.320   3.077   4.830 -0.2490 -0.2083 -0.5550
  533MOL0     C71853   5.345   3.216   4.820  0.1016  0.4246 -0.0836
  533MOL0     C71854   5.245   3.299   4.857 -0.2472 -0.0675 -0.6321
  533MOL0     C71855   5.125   3.257   4.904 -0.9859  0.0365  0.8840
  533MOL0     O71856   5.027   3.348   4.930  0.6388 -0.0230  0.4765
  533MOL0     C71857   4.886   3.312   4.950  0.7060 -0.4342 -0.1599
  533MOL0     C71858   4.795   3.435   4.963 -0.1871  0.8136  1.0224
  533MOL0     C71859   4.816   3.541   4.856  0.4365  0.2321 -0.4460
  533MOL0     C71860   4.712   3.648   4.853  0.4553  0.4341  0.1862
  533MOL0     C71861   4.577   3.610   4.786  0.2163 -0.0671  0.2839
  533MOL0     C71862   4.484   3.734   4.784 -0.6142  0.8399 -0.4281
  533MOL0     C71863   4.340   3.683   4.764  0.1260 -0.6879 -0.5488
  533MOL0     C71864   4.232   3.794   4.758 -0.0488 -0.8736 -0.2061
  533MOL0    Cl71865   4.242   3.892   4.907  0.2890 -0.3808  0.0674
  533MOL0     C71866   5.098   3.113   4.915  0.4109  0.4584 -0.1092
  533MOL0     C71867   5.195   3.027   4.877  0.1962 -0.0016  0.5551
  533MOL0     O71868   5.461   2.906   5.000 -0.6852 -0.1283 -0.2514
  533MOL0     C71869   5.572   2.685   4.860 -0.1818  0.3215 -0.1383
  533MOL0     C71870   5.651   2.588   4.807 -0.1767 -0.2515  0.1371
  533MOL0     N71871   6.363   2.248   4.790  0.5177 -0.5278  0.1716
  533MOL0     N71872   6.483   2.256   4.836  0.6920 -0.1382  0.2527
  533MOL0     C71873   6.998   1.713   4.094 -0.9241  0.3273  0.5577
  533MOL0     C71874   6.959   1.588   4.027 -0.3136  0.8487  0.7763
  533MOL0     C71875   6.758   1.244   3.819 -0.7099  0.0128  0.7459
  533MOL0     C71876   6.625   1.215   3.845  0.2664  0.1543 -0.4637
  533MOL0     C71877   6.575   1.084   3.826  0.7008 -0.4625  0.4638
  533MOL0     C71878   6.644   0.992   3.748  0.2188  0.9060  0.8156
  533MOL0     O71879   6.589   0.870   3.718  0.6559  0.2627 -0.7340
  533MOL0     C71880   6.665   0.768   3.644  0.1449 -0.4720 -0.8520
  533MOL0     C71881   6.567   0.645   3.643  0.0383 -0.0241 -0.3709
  533MOL0     C71882   6.436   0.684   3.569  0.4646  1.2737 -0.1498
  533MOL0     C71883   6.356   0.555   3.551  0.5646  1.1121 -0.5341
  533MOL0     C71884   6.323   0.494   3.678  0.4050  0.7462 -0.1282
  533MOL0     C71885   6.295   0.427   3.772  0.0427 -0.1717 -0.5929
  533MOL0     C71886   6.763   1.035   3.692  0.4564  0.6265 -0.6280
  533MOL0     C71887   6.823   1.153   3.733  0.4840  0.3958 -0.5060
  533MOL0     H71888   6.626   1.579   4.088  0.7379 -0.8163 -1.6581
  533MOL0     H71889   6.692   1.816   4.180 -2.1236 -2.3342  0.6234
  533MOL0     H71890   7.102   1.908   4.257  0.2438  0.2335  0.3989
  533MOL0     H71891   7.048   2.076   4.217 -1.8278 -0.5953 -1.3584
  533MOL0     H71892   6.857   1.979   4.395 -0.1582 -2.3956 -0.4190
  533MOL0     H71893   7.005   1.914   4.460  2.1539  1.9006 -0.6247
  533MOL0     H71894   7.103   2.138   4.467 -0.2964 -1.6993 -0.9895
  533MOL0     H71895   6.957   2.218   4.422  0.9705  0.6790  0.3632
  533MOL0     H71896   6.846   2.101   4.634  0.8298 -0.5823  2.7940
  533MOL0     H71897   7.002   2.049   4.678 -1.0218 -1.7402 -1.0334
  533MOL0     H71898   7.080   2.299   4.692 -0.7963  1.6169  2.4623
  533MOL0     H71899   6.919   2.343   4.640 -0.4891 -0.8463 -0.7561
  533MOL0     H71900   6.971   2.209   4.899  2.0820  1.1151 -0.4482
  533MOL0     H71901   6.958   2.380   4.876  0.5867  0.0524  0.4661
  533MOL0     H71902   6.747   2.169   4.822  0.7596 -0.5402  0.3254
  533MOL0     H71903   6.747   2.286   4.959  4.4151 -0.1343  1.4828
  533MOL0     H71904   6.733   2.346   4.668  1.7129 -2.8511  0.6388
  533MOL0     H71905   6.722   2.468   4.803  3.1466 -0.9655 -0.3544
  533MOL0     H71906   6.494   2.494   4.611  0.6905 -2.5119 -1.3506
  533MOL0     H71907   6.228   2.394   4.503  0.1883  1.1519  0.3207
  533MOL0     H71908   6.196   2.235   4.575  1.9211 -0.5592  1.0129
  533MOL0     H71909   6.123   2.509   4.667  2.2546 -1.4579  4.1698
  533MOL0     H71910   6.122   2.369   4.772  0.8420  2.8461  1.7693
  533MOL0     H71911   5.974   2.237   4.617  3.4100 -0.8569 -1.1564
  533MOL0     H71912   5.970   2.382   4.515  1.2465 -0.5221 -0.5916
  533MOL0     H71913   5.877   2.383   4.795  3.8734  0.8681 -0.0597
  533MOL0     H71914   5.764   2.367   4.651  0.8701  0.3977 -3.0002
  533MOL0     H71915   5.868   2.790   4.637  0.6882 -0.9816  2.0533
  533MOL0     H71916   5.855   3.022   4.691 -0.7331  2.3883  0.1139
  533MOL0     H71917   5.677   3.051   4.655 -0.0930 -1.7669  0.2210
  533MOL0     H71918   5.744   3.069   4.820 -2.4003 -0.2559  0.7698
  533MOL0     H71919   5.434   3.249   4.768  0.6730 -2.2470 -0.9551
  533MOL0     H71920   5.270   3.405   4.853  0.1790  0.0189  2.0953
  533MOL0     H71921   4.847   3.246   4.872 -2.3976 -3.2148  3.3687
  533MOL0     H71922   4.866   3.264   5.046  2.4606  0.3152  0.6347
  533MOL0     H71923   4.696   3.390   4.958 -0.6678  1.6589  2.4462
  533MOL0     H71924   4.807   3.466   5.067  0.9001 -0.3414  1.2688
  533MOL0     H71925   4.825   3.502   4.754 -2.2463  1.5421 -1.2492
  533MOL0     H71926   4.912   3.587   4.881  1.5090 -1.3600 -1.4248
  533MOL0     H71927   4.698   3.682   4.956 -1.5116 -1.0596  0.4561
  533MOL0     H71928   4.753   3.733   4.797  2.2322  1.0335  2.2370
  533MOL0     H71929   4.520   3.535   4.841 -2.0667  1.4266  0.0867
  533MOL0     H71930   4.583   3.580   4.681 -5.4891 -1.0607 -0.0976
  533MOL0     H71931   4.493   3.783   4.882  1.0614  2.4038 -1.3006
  533MOL0     H71932   4.510   3.805   4.705  1.7983  0.1411 -0.3578
  533MOL0     H71933   4.317   3.612   4.844 -2.4234  2.0046  1.3126
  533MOL0     H71934   4.335   3.626   4.671  3.6262 -0.1582 -1.1852
  533MOL0     H71935   4.131   3.754   4.748  0.4514 -1.8392 -1.7882
  533MOL0     H71936   4.244   3.854   4.667  0.0332 -1.7279 -0.7689
  533MOL0     H71937   5.004   3.077   4.956 -1.3561  2.5532 -2.0463
  533MOL0     H71938   5.184   2.920   4.887  2.5187 -0.3851 -0.3242
  533MOL0     H71939   5.496   2.648   4.929  1.3541 -0.3769  1.2529
  533MOL0     H71940   5.630   2.484   4.829  1.3654  0.1445  4.6626
  533MOL0     H71941   7.104   1.736   4.095 -0.9907  0.9891 -1.5741
  533MOL0     H71942   7.032   1.520   3.984 -1.9351 -0.0561 -0.6810
  533MOL0     H71943   6.550   1.286   3.879 -2.1115 -2.2174 -0.4569
  533MOL0     H71944   6.469   1.073   3.847  0.4745  1.0314  0.2394
  533MOL0     H71945   6.687   0.801   3.542 -0.7601  1.2268 -0.5315
  533MOL0     H71946   6.755   0.735   3.697 -1.0950 -2.6353  0.0572
  533MOL0     H71947   6.554   0.606   3.745 -0.6329 -0.7241 -0.7196
  533MOL0     H71948   6.613   0.566   3.583 -0.6884 -0.1737 -0.7349
  533MOL0     H71949   6.465   0.733   3.476  1.4320 -0.8284 -1.0342
  533MOL0     H71950   6.381   0.753   3.633 -0.8869 -0.8243  1.0986
  533MOL0     H71951   6.418   0.491   3.487 -0.7767 -1.1742  0.3379
  533MOL0     H71952   6.262   0.569   3.497  0.8661 -0.9019 -1.6816
  533MOL0     H71953   6.293   0.370   3.863 -0.8519  1.1436  0.2484
  533MOL0     H71954   6.819   0.976   3.621  1.9383  2.6414 -1.2232
  533MOL0     H71955   6.922   1.164   3.691  1.2848  1.9813  1.6358
  534MOL0     O71956   5.404   3.623   9.051 -0.2008  0.0198 -0.5389
  534MOL0     C71957   5.311   3.549   9.027 -0.3107  0.2534 -0.9993
  534MOL0     O71958   5.195   3.577   8.946 -0.6133 -0.0511 -0.0110
  534MOL0     C71959   5.188   3.693   8.874 -0.3380 -0.3003 -0.1488
  534MOL0     C71960   5.078   3.710   8.787  0.0459 -0.0172 -0.2505
  534MOL0     C71961   5.058   3.838   8.714  0.1416 -0.0129  0.4963
  534MOL0     C71962   5.149   3.942   8.731  0.4827 -0.1069  1.2667
  534MOL0     O71963   5.136   4.062   8.684  1.0254 -0.4564 -0.0159
  534MOL0     C71964   5.056   4.088   8.566 -0.2844 -0.4335  0.1273
  534MOL0     C71965   4.907   4.114   8.592 -1.4983  0.2934  0.5787
  534MOL0     C71966   4.874   4.216   8.696 -0.6948 -0.0405 -0.0368
  534MOL0     C71967   4.726   4.209   8.739  0.2394 -0.0748 -0.8499
  534MOL0     C71968   4.695   4.318   8.836  0.0172  0.6384 -0.6873
  534MOL0     C71969   4.563   4.292   8.910  0.4918 -0.2766  0.2897
  534MOL0     C71970   4.440   4.278   8.815 -0.2146 -0.0892  0.1412
  534MOL0     C71971   4.312   4.295   8.882  0.4253 -0.1573 -0.3744
  534MOL0     N71972   4.205   4.256   8.800  0.1107  0.8560  0.2229
  534MOL0     C71973   4.185   4.124   8.750 -0.0643 -0.3992  1.0581
  534MOL0     C71974   4.095   4.146   8.646 -0.4559 -0.2305  0.1810
  534MOL0     C71975   4.029   4.044   8.559 -0.1417  0.1553 -0.1906
  534MOL0     C71976   3.875   4.044   8.585  0.6968 -0.4430  0.2311
  534MOL0     C71977   3.819   3.930   8.667  0.0486  0.4498  0.1450
  534MOL0     C71978   3.682   3.961   8.726  0.4887  0.0068 -0.1048
  534MOL0     O71979   3.609   3.966   8.600  0.2999 -0.8800 -0.2351
  534MOL0     C71980   3.472   3.985   8.612 -0.1317 -0.0723 -0.2485
  534MOL0     C71981   3.425   4.096   8.677 -0.3439 -0.2109 -0.9568
  534MOL0     C71982   3.294   4.109   8.694  0.7389  0.7948 -0.5711
  534MOL0     C71983   3.238   4.222   8.777 -0.2297  0.2056 -0.3754
  534MOL0     C71984   3.205   4.013   8.633  0.6458  0.2789 -0.0511
  534MOL0     C71985   3.062   4.029   8.634 -0.2242  0.1041 -0.2606
  534MOL0     O71986   2.986   3.910   8.655 -0.2823  0.1048 -0.4255
  534MOL0     C71987   2.851   3.935   8.687 -0.8116 -0.3269 -0.4301
  534MOL0     C71988   2.743   3.902   8.603 -0.3758 -0.7857  0.2858
  534MOL0     C71989   2.610   3.915   8.643  0.3510 -0.2786  0.0430
  534MOL0     C71990   2.576   3.969   8.773  0.0524  0.2634  1.3903
  534MOL0     O71991   2.453   4.002   8.817  0.1794 -0.7533 -0.3172
  534MOL0     C71992   2.341   3.999   8.736  0.8049 -0.0082 -0.3802
  534MOL0     C71993   2.332   4.131   8.650 -1.1154 -0.5519  0.0586
  534MOL0     C71994   2.330   4.250   8.743 -0.3301 -0.4176 -1.1846
  534MOL0     C71995   2.216   4.241   8.845  0.4053  0.0099  0.4927
  534MOL0     C71996   2.201   4.374   8.924 -0.7216 -0.3514  1.1520
  534MOL0     C71997   2.070   4.373   8.996  0.0021 -0.0072 -0.0748
  534MOL0     C71998   2.044   4.503   9.087  0.0455  0.1385 -0.6464
  534MOL0     C71999   1.934   4.478   9.197  0.3454  0.3444  0.8255
  534MOL0    Cl72000   1.777   4.419   9.125 -0.2061 -0.3524  0.2705
  534MOL0     C72001   2.685   4.009   8.856  1.4010  0.5628  0.6102
  534MOL0     C72002   2.822   3.989   8.814 -0.6097  0.3527 -0.6638
  534MOL0     O72003   3.012   4.143   8.623 -0.4352  0.0749  0.2104
  534MOL0     C72004   3.255   3.894   8.580 -0.5304 -0.7910 -0.2517
  534MOL0     C72005   3.395   3.874   8.580  0.7859  0.2506 -0.5790
  534MOL0     N72006   4.063   4.282   8.635  0.1578 -0.1581 -0.2723
  534MOL0     N72007   4.128   4.343   8.731 -0.2419 -0.2127 -0.1265
  534MOL0     C72008   5.254   3.917   8.813 -0.4410  0.2188  0.5964
  534MOL0     C72009   5.279   3.801   8.883 -0.2994 -0.1018 -0.3563
  534MOL0     C72010   5.340   3.414   9.096 -0.3119 -0.3176 -0.9287
  534MOL0     C72011   5.237   3.313   9.094  0.0157  0.4068  0.2643
  534MOL0     C72012   5.269   3.182   9.115 -0.4264 -0.2749  0.0983
  534MOL0     C72013   5.393   3.148   9.180  0.3134 -0.0396  0.2041
  534MOL0     O72014   5.433   3.019   9.220 -0.2704 -0.1826  0.0177
  534MOL0     C72015   5.359   2.913   9.157 -0.6007 -0.4877  0.0566
  534MOL0     C72016   5.391   2.893   9.013  1.5130  0.8573 -0.1756
  534MOL0     C72017   5.540   2.863   8.980  0.4659  0.0890 -0.0825
  534MOL0     C72018   5.579   2.720   9.016  0.3620  0.0688  1.0493
  534MOL0     C72019   5.683   2.660   8.928  0.6763 -0.4233 -0.8330
  534MOL0     C72020   5.759   2.602   8.858  0.1937  0.5402  0.2927
  534MOL0     C72021   5.483   3.249   9.215 -0.0489 -0.1990 -0.2082
  534MOL0     C72022   5.457   3.385   9.171 -0.8625  0.9816  0.8915
  534MOL0     H72023   5.014   3.623   8.788  2.5736 -2.0612  2.5015
  534MOL0     H72024   4.983   3.848   8.637 -0.0379  0.3961  0.7227
  534MOL0     H72025   5.101   4.184   8.540  0.3483 -0.7261  0.1308
  534MOL0     H72026   5.084   4.014   8.490  3.6520  2.0193 -1.0775
  534MOL0     H72027   4.862   4.158   8.503 -1.7651  0.5557  0.8430
  534MOL0     H72028   4.843   4.031   8.624 -0.2649 -0.5766  0.9172
  534MOL0     H72029   4.926   4.199   8.791 -1.4417 -0.6845  0.2657
  534MOL0     H72030   4.904   4.315   8.660  1.9245 -1.0204 -0.8246
  534MOL0     H72031   4.668   4.222   8.647  0.0596  2.0645 -0.4858
  534MOL0     H72032   4.706   4.113   8.789  0.8432 -0.6340 -1.6559
  534MOL0     H72033   4.773   4.314   8.913 -1.5040 -1.3354  0.8977
  534MOL0     H72034   4.695   4.413   8.783 -1.9715  0.5440 -0.9485
  534MOL0     H72035   4.560   4.214   8.986  0.0998  0.6304  1.2184
  534MOL0     H72036   4.551   4.388   8.960 -1.2724 -1.1389  1.6524
  534MOL0     H72037   4.455   4.352   8.735  5.4926  0.8605  1.6467
  534MOL0     H72038   4.452   4.180   8.768  2.2621 -1.5709  3.4744
  534MOL0     H72039   4.318   4.399   8.915  3.6557 -0.3076 -0.1518
  534MOL0     H72040   4.301   4.239   8.976 -1.3600  4.7898  2.7480
  534MOL0     H72041   4.220   4.024   8.777 -0.2899 -0.2301  2.0127
  534MOL0     H72042   4.040   4.063   8.452  0.7581 -0.5471 -0.2347
  534MOL0     H72043   4.062   3.944   8.587  0.0244  0.7192  1.7529
  534MOL0     H72044   3.835   4.022   8.486  1.6136 -0.4741 -0.1435
  534MOL0     H72045   3.845   4.145   8.612  0.6625  0.3891 -2.5486
  534MOL0     H72046   3.872   3.910   8.761 -0.2570 -2.8778 -0.2919
  534MOL0     H72047   3.837   3.842   8.606  2.1105  3.9973 -5.0747
  534MOL0     H72048   3.684   4.056   8.780  1.2055  0.2229 -0.4939
  534MOL0     H72049   3.653   3.875   8.787  4.1982 -1.0261  0.4205
  534MOL0     H72050   3.492   4.172   8.716 -0.2876  0.5589 -2.4582
  534MOL0     H72051   3.147   4.194   8.831  0.5004  1.0462  1.3931
  534MOL0     H72052   3.311   4.237   8.857 -1.8561 -1.2655  1.4839
  534MOL0     H72053   3.224   4.313   8.718 -1.2944  0.2128 -0.1304
  534MOL0     H72054   2.757   3.842   8.514 -0.7697 -0.8288  0.2533
  534MOL0     H72055   2.529   3.875   8.582  0.3484 -0.0492 -0.1069
  534MOL0     H72056   2.345   3.911   8.672 -0.0270  0.0503 -0.5174
  534MOL0     H72057   2.252   3.982   8.797  1.3752 -0.8806  0.2416
  534MOL0     H72058   2.429   4.135   8.600 -0.2353 -0.3838  1.6811
  534MOL0     H72059   2.250   4.134   8.579  0.5910 -0.1046 -1.9859
  534MOL0     H72060   2.314   4.339   8.681 -0.0655  0.8480  0.5215
  534MOL0     H72061   2.423   4.267   8.797 -1.4551 -0.1994  0.7670
  534MOL0     H72062   2.121   4.211   8.801 -0.5607  2.5111  0.6910
  534MOL0     H72063   2.263   4.174   8.917  5.4937  0.9442 -1.5240
  534MOL0     H72064   2.198   4.457   8.852  0.9022 -2.2955 -1.3396
  534MOL0     H72065   2.292   4.385   8.984 -0.3148 -2.7378  1.0719
  534MOL0     H72066   1.990   4.383   8.922  0.4749 -2.5001 -1.0332
  534MOL0     H72067   2.050   4.284   9.057  1.6130 -0.1309  0.3134
  534MOL0     H72068   2.004   4.567   9.008 -2.3705 -2.8988 -2.1451
  534MOL0     H72069   2.138   4.540   9.128  1.4540 -1.1219 -2.5353
  534MOL0     H72070   1.915   4.573   9.248 -1.3163  0.6393 -0.2470
  534MOL0     H72071   1.978   4.409   9.269  1.6959 -0.8511 -1.0455
  534MOL0     H72072   2.653   4.055   8.949  2.7971  0.7123  1.0400
  534MOL0     H72073   2.897   4.031   8.880 -1.1245 -1.5944  1.2793
  534MOL0     H72074   3.187   3.817   8.544 -1.8048 -0.9861  2.3706
  534MOL0     H72075   3.415   3.781   8.529 -3.9978 -0.9951 -0.6632
  534MOL0     H72076   5.325   3.999   8.822 -1.3259  1.6660 -3.2397
  534MOL0     H72077   5.380   3.796   8.923  0.4164  3.1833 -1.4950
  534MOL0     H72078   5.144   3.336   9.043  0.2592  2.9155  0.8538
  534MOL0     H72079   5.198   3.101   9.112  1.3548 -1.8804 -0.6934
  534MOL0     H72080   5.390   2.817   9.198  4.2812  0.2690 -1.1758
  534MOL0     H72081   5.253   2.921   9.184 -0.1820  0.2986  1.5678
  534MOL0     H72082   5.353   2.978   8.956 -0.2694 -0.7970 -1.5925
  534MOL0     H72083   5.323   2.818   8.972 -1.8513  4.2302 -1.3036
  534MOL0     H72084   5.597   2.941   9.031  0.9203 -0.5649  0.4248
  534MOL0     H72085   5.535   2.878   8.872 -0.8866 -3.0152 -0.5664
  534MOL0     H72086   5.484   2.667   9.020  0.5804 -0.4546 -0.3982
  534MOL0     H72087   5.619   2.731   9.117 -0.5462  0.8612  1.3426
  534MOL0     H72088   5.831   2.542   8.807 -0.9022  0.5702 -1.3683
  534MOL0     H72089   5.572   3.221   9.270 -1.4926 -2.3861  1.1740
  534MOL0     H72090   5.529   3.460   9.202  0.9583 -1.5672  3.2555
  535MOL0     O72091   1.578   6.778   8.123 -0.3973  0.0787  0.0811
  535MOL0     C72092   1.681   6.705   8.103  0.0954 -0.0152  0.2797
  535MOL0     O72093   1.693   6.607   8.008  0.0190 -0.4852  0.0721
  535MOL0     C72094   1.624   6.637   7.892 -0.5259  0.7972 -0.5145
  535MOL0     C72095   1.640   6.752   7.826 -0.5296  0.3758  0.0534
  535MOL0     C72096   1.576   6.795   7.709 -0.3196  0.1653  0.6058
  535MOL0     C72097   1.470   6.714   7.667  0.1651  0.3190  1.0048
  535MOL0     O72098   1.407   6.757   7.551 -0.3616  0.9250 -0.1955
  535MOL0     C72099   1.378   6.670   7.438 -0.7316 -0.0589  0.4878
  535MOL0     C72100   1.234   6.700   7.397 -0.6412 -0.8181  0.1478
  535MOL0     C72101   1.198   6.839   7.352  0.0829 -0.1045  0.6862
  535MOL0     C72102   1.123   6.839   7.224  0.2522 -0.2187  0.3692
  535MOL0     C72103   0.969   6.802   7.252  0.2108 -0.3352  0.5665
  535MOL0     C72104   0.903   6.797   7.114 -0.0973 -0.0965  0.1505
  535MOL0     C72105   0.770   6.870   7.114 -0.1395 -0.0359  0.3219
  535MOL0     C72106   0.718   6.868   6.970 -0.1097 -0.7515 -1.5272
  535MOL0     N72107   0.604   6.970   6.960 -0.1073  1.1581 -0.1623
  535MOL0     C72108   0.479   6.947   7.019 -0.0425 -1.5711 -0.2740
  535MOL0     C72109   0.414   7.063   6.992 -0.4240 -0.5645  0.2351
  535MOL0     C72110   0.272   7.087   7.025 -0.3311 -0.0565  0.7552
  535MOL0     C72111   0.240   7.174   7.145  0.2310  0.7456 -0.1085
  535MOL0     C72112   0.294   7.313   7.131  0.3094  0.4967  0.1721
  535MOL0     C72113   0.222   7.404   7.234  0.3774  0.1184  0.1277
  535MOL0     O72114   0.205   7.349   7.366 -0.3889 -0.2700  0.1985
  535MOL0     C72115   0.139   7.410   7.472  0.1360  0.3062  0.3335
  535MOL0     C72116   0.123   7.546   7.480  0.3823 -0.1027  0.2682
  535MOL0     C72117   0.050   7.602   7.586  0.5228  0.2343 -0.1111
  535MOL0     C72118   0.055   7.750   7.590  0.1882 -0.2202 -0.8359
  535MOL0     C72119  -0.026   7.517   7.677  0.5681  0.3205 -0.0467
  535MOL0     C72120  -0.117   7.568   7.786  0.4990 -0.2282 -0.5198
  535MOL0     O72121  -0.149   7.487   7.888 -0.2322 -0.2926  0.0921
  535MOL0     C72122  -0.241   7.513   7.991  0.2840 -0.4042 -0.2636
  535MOL0     C72123  -0.210   7.590   8.101 -0.5834  1.2075 -0.8592
  535MOL0     C72124  -0.296   7.619   8.204  0.4091  0.4959 -0.7410
  535MOL0     C72125  -0.423   7.561   8.207  0.4626  0.4300 -0.3493
  535MOL0     O72126  -0.527   7.569   8.294  0.5378 -0.0263 -0.2728
  535MOL0     C72127  -0.502   7.666   8.406  0.3570  0.4454  0.5664
  535MOL0     C72128  -0.605   7.786   8.384  0.0501  0.5960 -0.0934
  535MOL0     C72129  -0.602   7.848   8.242 -0.3817  0.6687  0.5073
  535MOL0     C72130  -0.688   7.968   8.224  0.2895  0.7611 -0.5027
  535MOL0     C72131  -0.685   8.029   8.087  0.3375 -0.2040  0.5487
  535MOL0     C72132  -0.553   8.096   8.046  0.2974 -0.2716 -0.2175
  535MOL0     C72133  -0.493   8.200   8.140  0.1462  0.6649 -0.8725
  535MOL0     C72134  -0.389   8.288   8.059 -0.4063  0.5255 -0.2898
  535MOL0    Cl72135  -0.471   8.413   7.964 -0.1152 -0.2003 -0.1476
  535MOL0     C72136  -0.461   7.504   8.084 -1.0613  0.1606 -0.0456
  535MOL0     C72137  -0.370   7.477   7.978 -0.1613  0.0793 -0.5474
  535MOL0     O72138  -0.175   7.677   7.771 -0.1964  0.3482  0.2687
  535MOL0     C72139  -0.013   7.378   7.658  0.3928 -0.2498  0.2218
  535MOL0     C72140   0.069   7.331   7.558  0.2716  0.9445 -1.0143
  535MOL0     N72141   0.494   7.142   6.911 -0.4088  0.1894  1.2234
  535MOL0     N72142   0.608   7.088   6.907  1.0281 -0.1975  0.8463
  535MOL0     C72143   1.459   6.585   7.719  1.1852  0.4408  0.4731
  535MOL0     C72144   1.531   6.547   7.832  0.7086  0.1554 -0.3018
  535MOL0     C72145   1.795   6.717   8.197  0.5421  0.4722 -0.0576
  535MOL0     C72146   1.924   6.698   8.147 -0.5003 -0.4007 -0.7453
  535MOL0     C72147   2.034   6.703   8.232  0.2712  0.1178 -0.6550
  535MOL0     C72148   2.017   6.722   8.368  0.3800  0.6474  0.1309
  535MOL0     O72149   2.124   6.701   8.449 -0.1244 -0.5148 -0.2187
  535MOL0     C72150   2.109   6.770   8.576  0.1606  0.0955  0.5510
  535MOL0     C72151   2.242   6.773   8.651  1.0151 -0.6388  0.3624
  535MOL0     C72152   2.226   6.839   8.785  0.1215  0.4180 -0.6099
  535MOL0     C72153   2.354   6.821   8.872  1.1661 -0.1248 -0.2830
  535MOL0     C72154   2.383   6.943   8.944  0.0823  0.2366  0.0651
  535MOL0     C72155   2.415   7.036   9.015  0.0337  0.5927  0.5535
  535MOL0     C72156   1.890   6.754   8.409 -0.5288 -0.1478 -0.7719
  535MOL0     C72157   1.778   6.750   8.333 -0.3414  0.3502  1.9044
  535MOL0     H72158   1.722   6.820   7.850 -0.3858  1.7270 -3.5894
  535MOL0     H72159   1.602   6.883   7.652  0.9153 -0.3213  0.3891
  535MOL0     H72160   1.457   6.678   7.362 -0.0097 -0.6854  1.1452
  535MOL0     H72161   1.386   6.563   7.458 -0.8461 -0.6100 -2.0863
  535MOL0     H72162   1.215   6.626   7.319  3.6382 -3.2945  1.1043
  535MOL0     H72163   1.189   6.684   7.496  2.4039 -1.7592  1.5048
  535MOL0     H72164   1.144   6.895   7.428  0.6197  0.3174  0.7666
  535MOL0     H72165   1.291   6.897   7.346 -0.3829  0.5965  0.1990
  535MOL0     H72166   1.137   6.936   7.175  1.1196  0.9127  2.6949
  535MOL0     H72167   1.159   6.755   7.165  0.0344 -1.2265  1.6176
  535MOL0     H72168   0.944   6.704   7.295 -1.8196 -0.0502  0.1377
  535MOL0     H72169   0.927   6.887   7.306  3.1180  1.0577  0.8178
  535MOL0     H72170   0.974   6.845   7.046  2.8071 -0.0128  2.9909
  535MOL0     H72171   0.896   6.695   7.075  0.7389  0.3373 -1.2052
  535MOL0     H72172   0.710   6.812   7.184  1.7783 -1.7760  0.6012
  535MOL0     H72173   0.783   6.978   7.131 -4.0386  1.0452 -2.1744
  535MOL0     H72174   0.674   6.770   6.948 -0.8981 -0.0409 -3.2637
  535MOL0     H72175   0.799   6.889   6.899  1.3102  3.8433  1.0322
  535MOL0     H72176   0.443   6.862   7.076 -0.0756 -0.4190  1.4876
  535MOL0     H72177   0.223   7.128   6.936 -0.1220  0.7106  0.9822
  535MOL0     H72178   0.227   6.992   7.055  1.3620 -0.7083  1.2944
  535MOL0     H72179   0.286   7.130   7.234  2.1839 -0.7966 -1.7825
  535MOL0     H72180   0.133   7.193   7.156  0.2463 -0.2836  2.2897
  535MOL0     H72181   0.262   7.352   7.034 -2.3944 -2.3548 -0.2384
  535MOL0     H72182   0.402   7.327   7.143  0.5837 -1.0624 -0.2163
  535MOL0     H72183   0.126   7.435   7.191 -0.2910  1.8436  2.6409
  535MOL0     H72184   0.276   7.498   7.249  0.3994  0.9610 -3.8787
  535MOL0     H72185   0.171   7.625   7.423 -0.6955 -0.8981 -1.8647
  535MOL0     H72186   0.144   7.790   7.540  0.5213 -0.1512 -0.1951
  535MOL0     H72187  -0.039   7.782   7.546 -0.8445 -2.4927 -0.4433
  535MOL0     H72188   0.053   7.799   7.688 -0.6689 -1.0946 -0.3958
  535MOL0     H72189  -0.108   7.625   8.111 -0.3218  0.6233 -1.4484
  535MOL0     H72190  -0.254   7.689   8.276 -0.2095  0.0534  0.0584
  535MOL0     H72191  -0.536   7.620   8.499 -0.3492 -1.2652 -0.4905
  535MOL0     H72192  -0.405   7.716   8.401  0.1824  0.7127 -0.1830
  535MOL0     H72193  -0.703   7.740   8.401  1.6577 -2.6758  1.1729
  535MOL0     H72194  -0.596   7.859   8.465  0.3614  1.0066 -0.4937
  535MOL0     H72195  -0.640   7.767   8.179  0.1212 -0.1591  1.2512
  535MOL0     H72196  -0.500   7.871   8.210  0.4690 -2.0888  0.9813
  535MOL0     H72197  -0.790   7.944   8.254  0.3716 -0.8066 -1.3495
  535MOL0     H72198  -0.662   8.044   8.298  1.2594  1.1175 -1.1817
  535MOL0     H72199  -0.754   8.115   8.092  0.1105 -0.1844 -1.8099
  535MOL0     H72200  -0.712   7.962   8.005  2.5493 -0.8981  0.3134
  535MOL0     H72201  -0.477   8.023   8.015 -1.7000 -0.9703 -4.1093
  535MOL0     H72202  -0.581   8.154   7.958 -0.3576  1.0583  0.8285
  535MOL0     H72203  -0.450   8.152   8.228  0.0710  0.3685 -0.9970
  535MOL0     H72204  -0.580   8.258   8.171 -0.1698 -1.4483  2.7666
  535MOL0     H72205  -0.336   8.225   7.988  0.0715 -0.1914  0.6734
  535MOL0     H72206  -0.318   8.327   8.133 -0.2516 -2.9487  1.6000
  535MOL0     H72207  -0.563   7.473   8.067 -0.3695 -2.8823  0.7524
  535MOL0     H72208  -0.406   7.435   7.885 -1.0556  0.7129 -0.4993
  535MOL0     H72209  -0.074   7.316   7.722  0.0461  1.2864  1.4517
  535MOL0     H72210   0.066   7.223   7.550 -2.8738  0.7826  0.4837
  535MOL0     H72211   1.397   6.512   7.669  1.5086 -1.1896  2.3526
  535MOL0     H72212   1.524   6.446   7.870  1.4620 -0.2368 -1.1749
  535MOL0     H72213   1.936   6.689   8.040 -1.2955 -2.0049 -0.7402
  535MOL0     H72214   2.134   6.673   8.204  0.8871  1.0720  0.4262
  535MOL0     H72215   2.087   6.876   8.561 -2.0772  0.1943  3.6066
  535MOL0     H72216   2.036   6.718   8.638 -1.8212  1.4698 -0.5238
  535MOL0     H72217   2.316   6.837   8.600 -2.0293 -0.3468 -4.3265
  535MOL0     H72218   2.278   6.670   8.655 -0.5398 -1.1983  0.3452
  535MOL0     H72219   2.147   6.782   8.835 -0.0303 -1.0061 -2.3572
  535MOL0     H72220   2.202   6.944   8.765 -0.3951 -0.0453 -2.6287
  535MOL0     H72221   2.442   6.801   8.810 -0.6127 -1.7139 -2.4772
  535MOL0     H72222   2.343   6.730   8.931  0.7497 -1.1904 -1.9369
  535MOL0     H72223   2.438   7.127   9.066 -0.7317  0.0741  1.8792
  535MOL0     H72224   1.868   6.782   8.511 -0.7649  1.8469 -1.3073
  535MOL0     H72225   1.680   6.779   8.370 -0.7074  2.4979 -0.5286
  536MOL0     O72226   3.868  10.724   1.830 -0.5670  0.1394  0.1091
  536MOL0     C72227   3.909  10.719   1.950 -0.2718  0.0338  0.3792
  536MOL0     O72228   4.041  10.723   1.984  0.1456 -0.0890 -0.2080
  536MOL0     C72229   4.127  10.724   1.878 -0.0018 -0.4046  0.4079
  536MOL0     C72230   4.228  10.823   1.864  0.3081  0.1797  0.2125
  536MOL0     C72231   4.321  10.819   1.761  0.0919 -0.4176 -1.0132
  536MOL0     C72232   4.335  10.698   1.685 -0.4311 -0.1263 -0.7860
  536MOL0     O72233   4.438  10.700   1.590 -0.4562 -0.6306 -0.0480
  536MOL0     C72234   4.414  10.605   1.485  0.2583  0.3483 -0.0065
  536MOL0     C72235   4.520  10.622   1.373 -0.3801 -0.7233 -0.5105
  536MOL0     C72236   4.662  10.628   1.421 -1.0834  0.7676 -0.3711
  536MOL0     C72237   4.742  10.507   1.364 -0.0518 -0.1054 -0.1929
  536MOL0     C72238   4.693  10.381   1.440  0.0428  0.8059 -0.5172
  536MOL0     C72239   4.777  10.253   1.422  0.3728  0.1440  0.3882
  536MOL0     C72240   4.691  10.130   1.419 -0.7141  0.4565 -0.4433
  536MOL0     C72241   4.647  10.084   1.562 -0.3899 -0.4590  0.4419
  536MOL0     N72242   4.562   9.964   1.557 -0.2196 -0.0552  0.4336
  536MOL0     C72243   4.499   9.903   1.446  0.1166 -0.6048 -0.4363
  536MOL0     C72244   4.431   9.797   1.496 -0.1968  0.2420  0.2120
  536MOL0     C72245   4.360   9.685   1.428 -0.7133 -0.5143  0.4269
  536MOL0     C72246   4.380   9.671   1.272 -0.2765  0.3627 -0.0403
  536MOL0     C72247   4.256   9.671   1.182  0.3298 -0.0519  0.4903
  536MOL0     C72248   4.290   9.700   1.034 -0.1941  0.3458  0.9284
  536MOL0     O72249   4.176   9.716   0.945 -0.0951 -0.6969  0.2937
  536MOL0     C72250   4.170   9.818   0.849 -0.3121  0.2397  0.2712
  536MOL0     C72251   4.251   9.940   0.840  0.1799 -0.2883  0.0004
  536MOL0     C72252   4.220  10.046   0.752  0.2553  1.0768 -0.9436
  536MOL0     C72253   4.316  10.156   0.738 -0.5875 -0.2497 -0.7827
  536MOL0     C72254   4.107  10.029   0.663 -0.1152 -0.2286  0.4694
  536MOL0     C72255   4.083  10.134   0.558 -0.0639 -0.1798  0.5040
  536MOL0     O72256   4.109  10.262   0.587 -0.3320 -0.8623  0.5735
  536MOL0     C72257   4.089  10.362   0.496 -0.8475 -0.0146 -0.1058
  536MOL0     C72258   3.977  10.449   0.504  0.2080 -0.3139  1.2883
  536MOL0     C72259   3.967  10.561   0.408 -0.1620  0.4938 -0.2060
  536MOL0     C72260   4.064  10.582   0.300  0.0465 -0.0343 -0.8425
  536MOL0     O72261   4.057  10.696   0.213 -0.1802  0.0914 -0.2059
  536MOL0     C72262   4.079  10.666   0.071  1.2564 -0.0644  0.1726
  536MOL0     C72263   4.061  10.793  -0.006 -0.1356 -0.0067 -0.7856
  536MOL0     C72264   4.177  10.890   0.017 -0.1403 -0.0150  0.1701
  536MOL0     C72265   4.140  11.023  -0.048 -0.8406  0.2081  0.1075
  536MOL0     C72266   4.274  11.095  -0.077  0.5599  0.2993  0.1754
  536MOL0     C72267   4.368  11.122   0.042 -0.2882  0.1247  0.8822
  536MOL0     C72268   4.285  11.193   0.156  0.4284 -0.1830 -0.7364
  536MOL0     C72269   4.374  11.257   0.258  1.0384  0.3891 -0.1706
  536MOL0    Cl72270   4.446  11.404   0.205  0.2220 -0.1193 -0.2375
  536MOL0     C72271   4.162  10.478   0.288 -0.5218  0.3144  0.6335
  536MOL0     C72272   4.172  10.378   0.382  0.2711  0.4481 -0.6647
  536MOL0     O72273   4.025  10.095   0.452  0.4281 -0.2264  0.9865
  536MOL0     C72274   4.047   9.904   0.659  0.5664 -1.3972  0.4900
  536MOL0     C72275   4.071   9.805   0.754  0.2460  1.6735  0.0311
  536MOL0     N72276   4.462   9.786   1.628  0.5349 -0.0094 -0.3600
  536MOL0     N72277   4.538   9.889   1.664 -0.1901 -0.0301 -0.6840
  536MOL0     C72278   4.242  10.589   1.716 -0.6157  0.0924  0.0249
  536MOL0     C72279   4.140  10.605   1.811  0.0185 -1.0914 -0.6025
  536MOL0     C72280   3.810  10.727   2.062 -0.1514  1.0169 -0.2991
  536MOL0     C72281   3.863  10.702   2.197  1.5495  1.0698  0.3115
  536MOL0     C72282   3.770  10.680   2.300 -0.0510  0.2672 -0.2111
  536MOL0     C72283   3.636  10.681   2.271 -0.0610 -0.2433 -0.5688
  536MOL0     O72284   3.560  10.648   2.385  0.3061  0.3903  0.0441
  536MOL0     C72285   3.421  10.628   2.372 -0.4468  0.1422 -0.5700
  536MOL0     C72286   3.322  10.741   2.390 -0.1966 -0.7100  0.0331
  536MOL0     C72287   3.314  10.775   2.540 -0.0064  0.2390  0.2832
  536MOL0     C72288   3.248  10.907   2.576 -0.0646  1.1439 -0.2922
  536MOL0     C72289   3.103  10.887   2.574 -0.0950 -0.3085  0.1716
  536MOL0     C72290   2.985  10.871   2.566 -0.3492  1.3209 -0.5714
  536MOL0     C72291   3.586  10.711   2.148  0.4543 -0.8129 -0.8964
  536MOL0     C72292   3.672  10.732   2.040 -0.4781  0.2879 -0.4591
  536MOL0     H72293   4.228  10.915   1.922 -0.0716  1.6974 -2.0700
  536MOL0     H72294   4.380  10.908   1.743 -1.9644  1.3124  0.3570
  536MOL0     H72295   4.433  10.500   1.508  1.8406  1.0056  1.9882
  536MOL0     H72296   4.318  10.629   1.439  0.1420  0.3936  0.2559
  536MOL0     H72297   4.499  10.542   1.302 -1.0665 -0.5147 -0.5413
  536MOL0     H72298   4.504  10.722   1.330  5.3269  1.1084  0.6758
  536MOL0     H72299   4.714  10.719   1.390  1.5744  0.2384  2.0884
  536MOL0     H72300   4.669  10.627   1.530 -3.6362  2.2892 -0.1232
  536MOL0     H72301   4.726  10.504   1.255  0.6419 -2.0271 -0.2740
  536MOL0     H72302   4.847  10.535   1.377 -0.0184 -0.0234 -0.6254
  536MOL0     H72303   4.685  10.400   1.547 -0.2345  2.6103 -0.8230
  536MOL0     H72304   4.594  10.357   1.400 -2.2793  0.7441  4.4801
  536MOL0     H72305   4.820  10.266   1.322  1.9875 -0.4530  0.9659
  536MOL0     H72306   4.861  10.245   1.492 -0.4018 -0.5457  1.2589
  536MOL0     H72307   4.603  10.147   1.356 -0.0050  0.0242 -1.5754
  536MOL0     H72308   4.740  10.044   1.372 -0.7306 -0.5800  1.3456
  536MOL0     H72309   4.597  10.169   1.611  3.0294  0.8295  2.0687
  536MOL0     H72310   4.737  10.063   1.622 -0.0246 -1.0914 -0.3179
  536MOL0     H72311   4.515   9.937   1.344  1.6125  1.8508  0.5045
  536MOL0     H72312   4.378   9.589   1.477 -3.7608 -2.6022 -2.1952
  536MOL0     H72313   4.254   9.704   1.445 -1.0514 -1.9232  0.0099
  536MOL0     H72314   4.401   9.564   1.258 -6.0516 -0.8130 -2.6277
  536MOL0     H72315   4.466   9.727   1.235 -0.5078  0.4195 -0.4989
  536MOL0     H72316   4.182   9.746   1.211  0.6003 -0.2460  1.7494
  536MOL0     H72317   4.206   9.573   1.187 -2.3110  1.1286 -0.7813
  536MOL0     H72318   4.360   9.635   0.980 -1.5448  0.8238 -1.5421
  536MOL0     H72319   4.349   9.792   1.034 -1.4952  1.2263 -0.7329
  536MOL0     H72320   4.335   9.959   0.906  0.9792  0.7166 -1.2548
  536MOL0     H72321   4.409  10.135   0.792  0.0623 -0.7508 -2.0481
  536MOL0     H72322   4.348  10.171   0.635  1.5225  3.7424  0.2021
  536MOL0     H72323   4.275  10.248   0.781  1.3104  0.1572  0.2666
  536MOL0     H72324   3.902  10.441   0.582 -0.7675  3.2439  0.8746
  536MOL0     H72325   3.899  10.644   0.425 -1.4422 -0.7131  0.7524
  536MOL0     H72326   4.181  10.628   0.058  0.7517 -1.9803  1.3598
  536MOL0     H72327   4.012  10.585   0.041  0.1882 -0.4891  3.3158
  536MOL0     H72328   4.045  10.775  -0.113  0.4004  0.6800 -0.9874
  536MOL0     H72329   3.969  10.839   0.032  0.6465 -0.9566  2.5719
  536MOL0     H72330   4.278  10.862  -0.012  0.3107  1.6270  0.0807
  536MOL0     H72331   4.179  10.907   0.125 -1.8094  1.2648  0.0519
  536MOL0     H72332   4.085  11.010  -0.142  2.2224 -1.8237 -1.6016
  536MOL0     H72333   4.076  11.083   0.017 -1.8433 -1.3504  0.6152
  536MOL0     H72334   4.247  11.187  -0.131  1.5418 -0.2403 -1.2908
  536MOL0     H72335   4.329  11.037  -0.151 -1.8596 -1.2367 -0.5411
  536MOL0     H72336   4.413  11.026   0.068 -1.6896 -0.9235 -0.3791
  536MOL0     H72337   4.451  11.185   0.009  0.5568 -1.3749  0.0278
  536MOL0     H72338   4.222  11.115   0.201 -0.4498  0.1458 -1.3721
  536MOL0     H72339   4.221  11.269   0.111 -1.0571 -1.3458 -0.6500
  536MOL0     H72340   4.449  11.189   0.300 -2.6634 -2.9705  1.6934
  536MOL0     H72341   4.305  11.270   0.342  1.5033 -0.6886  0.3947
  536MOL0     H72342   4.249  10.500   0.226  0.5336 -3.0822  0.6797
  536MOL0     H72343   4.267  10.324   0.386  2.7538  4.4534  0.4759
  536MOL0     H72344   3.961   9.897   0.593 -0.1058 -0.2174  1.2190
  536MOL0     H72345   4.018   9.711   0.743  0.6708  1.5486 -1.1056
  536MOL0     H72346   4.259  10.495   1.666 -0.3002  1.6387 -2.9935
  536MOL0     H72347   4.072  10.525   1.839  0.8950 -0.5088  3.9569
  536MOL0     H72348   3.968  10.682   2.216  1.4147 -0.5710 -0.4658
  536MOL0     H72349   3.820  10.662   2.395  0.4710  2.7094  0.0461
  536MOL0     H72350   3.402  10.597   2.269 -1.5442 -1.8313  0.1836
  536MOL0     H72351   3.402  10.542   2.437  2.8277  0.0037  0.3941
  536MOL0     H72352   3.222  10.735   2.345  0.3150  3.0745 -1.9968
  536MOL0     H72353   3.362  10.828   2.338  0.0552 -1.1645 -0.5404
  536MOL0     H72354   3.418  10.784   2.572 -0.1814  3.2083  0.2212
  536MOL0     H72355   3.272  10.700   2.607 -0.7141  0.8952  0.5843
  536MOL0     H72356   3.288  10.983   2.509  2.0402  0.3633  0.0194
  536MOL0     H72357   3.282  10.927   2.678 -0.0083 -1.2128  0.2259
  536MOL0     H72358   2.880  10.870   2.587  0.2663 -0.6489  3.5438
  536MOL0     H72359   3.479  10.715   2.129 -0.1229  1.8588  2.0592
  536MOL0     H72360   3.640  10.753   1.938 -1.2466 -2.3091 -0.8179
  537MOL0     O72361   3.321   3.525   0.865 -0.3513 -0.2849 -0.2741
  537MOL0     C72362   3.413   3.460   0.923 -0.0767 -0.2379 -0.7720
  537MOL0     O72363   3.414   3.433   1.067 -0.1335 -0.3262 -0.5082
  537MOL0     C72364   3.338   3.507   1.148  0.1770  0.1063 -0.4679
  537MOL0     C72365   3.197   3.487   1.159 -0.0155 -0.1848  0.0753
  537MOL0     C72366   3.128   3.548   1.267  0.2637  1.0057 -0.0545
  537MOL0     C72367   3.202   3.629   1.360  1.3700 -0.5306 -0.0913
  537MOL0     O72368   3.138   3.690   1.469  0.1741 -0.2297 -0.1286
  537MOL0     C72369   3.005   3.739   1.442  0.5233 -0.0039  0.7608
  537MOL0     C72370   2.965   3.835   1.557  0.0793  0.2835 -0.1144
  537MOL0     C72371   2.824   3.886   1.522  0.1205 -0.2381 -1.3353
  537MOL0     C72372   2.781   3.980   1.635 -0.7472  0.4970 -0.6414
  537MOL0     C72373   2.684   4.084   1.588 -0.4571 -0.3374  0.1740
  537MOL0     C72374   2.564   4.025   1.512  0.0049  0.4225 -0.2651
  537MOL0     C72375   2.466   4.123   1.461  0.7115  0.8250  0.0531
  537MOL0     C72376   2.346   4.152   1.563 -0.2728 -0.3984 -0.2038
  537MOL0     N72377   2.262   4.040   1.583 -0.2007 -0.1871 -0.6080
  537MOL0     C72378   2.222   3.990   1.705 -0.3565 -0.5168 -0.0723
  537MOL0     C72379   2.114   3.911   1.678  1.2140 -0.1552  0.4384
  537MOL0     C72380   2.036   3.832   1.776  0.6926 -0.1734 -0.1026
  537MOL0     C72381   1.952   3.722   1.719  0.8522  0.2968 -0.6728
  537MOL0     C72382   1.820   3.777   1.666 -0.9116  0.3254  0.5015
  537MOL0     C72383   1.737   3.864   1.757  0.2834  0.4862 -0.1009
  537MOL0     O72384   1.673   3.785   1.860 -0.1337  0.3360  0.0265
  537MOL0     C72385   1.543   3.797   1.896  0.1605 -0.2437 -0.8975
  537MOL0     C72386   1.499   3.719   1.998 -0.3741 -0.3615  0.1155
  537MOL0     C72387   1.373   3.732   2.051  0.8970 -0.1793  0.3626
  537MOL0     C72388   1.325   3.630   2.152  0.1867  0.1243  0.4985
  537MOL0     C72389   1.291   3.839   2.005  0.2455 -0.7162  1.0277
  537MOL0     C72390   1.146   3.859   2.038  0.0554  0.2582  0.8694
  537MOL0     O72391   1.072   3.923   1.944  0.0869  0.4966  0.1398
  537MOL0     C72392   0.958   3.986   1.975  0.9568 -0.0663  0.2927
  537MOL0     C72393   0.946   4.090   2.073  0.1196 -1.4352 -0.1854
  537MOL0     C72394   0.825   4.161   2.079  0.2064  0.3593 -0.5830
  537MOL0     C72395   0.715   4.121   2.014  0.2181 -0.0147  0.9107
  537MOL0     O72396   0.599   4.194   2.021  0.6515  0.7766  0.1577
  537MOL0     C72397   0.537   4.256   2.140 -0.1906 -0.1582 -0.4183
  537MOL0     C72398   0.404   4.183   2.169  0.5455  0.9512 -0.4609
  537MOL0     C72399   0.426   4.030   2.196  1.0901 -0.4514  0.1314
  537MOL0     C72400   0.295   3.955   2.224  0.0129 -0.0997 -0.3174
  537MOL0     C72401   0.307   3.797   2.238  0.5994  1.2456  0.3619
  537MOL0     C72402   0.172   3.726   2.231 -1.0080  0.0367  0.7022
  537MOL0     C72403   0.100   3.745   2.363  0.2080  0.3735  0.0891
  537MOL0     C72404  -0.026   3.662   2.391 -0.7996 -0.0823 -0.3786
  537MOL0    Cl72405  -0.144   3.680   2.256 -0.0263 -0.2316  0.1863
  537MOL0     C72406   0.726   4.022   1.922 -0.0391  1.0726  0.4577
  537MOL0     C72407   0.841   3.951   1.896 -0.6301  0.1029  0.1779
  537MOL0     O72408   1.094   3.809   2.137 -0.7794  0.7769 -1.0042
  537MOL0     C72409   1.339   3.929   1.910 -0.1892  0.3391  0.2378
  537MOL0     C72410   1.466   3.912   1.861 -0.8336  0.5435  0.3924
  537MOL0     N72411   2.073   3.931   1.544  0.4952  1.1008 -0.3098
  537MOL0     N72412   2.171   3.993   1.490  0.0339 -0.0884 -0.1558
  537MOL0     C72413   3.341   3.647   1.345  0.0309 -0.7325 -0.2029
  537MOL0     C72414   3.410   3.580   1.243  0.4532  0.1615  0.0022
  537MOL0     C72415   3.509   3.403   0.827 -1.4202  0.7864  0.0618
  537MOL0     C72416   3.604   3.313   0.878 -0.0881 -0.5524  0.3143
  537MOL0     C72417   3.686   3.240   0.795 -0.2861  0.5381  0.3598
  537MOL0     C72418   3.686   3.256   0.659  0.4999 -0.1886  0.3450
  537MOL0     O72419   3.771   3.184   0.574  0.2110  0.2217  0.0247
  537MOL0     C72420   3.879   3.115   0.636  0.1900 -0.0581 -0.5796
  537MOL0     C72421   3.965   3.054   0.527  0.4183 -0.0664  1.0013
  537MOL0     C72422   4.105   3.120   0.526  0.1225  0.2183  0.5956
  537MOL0     C72423   4.202   3.029   0.451 -0.0683 -0.2283 -0.1699
  537MOL0     C72424   4.341   3.076   0.471  0.8655 -0.4071  0.4189
  537MOL0     C72425   4.450   3.108   0.506 -0.7354 -0.4470 -0.2610
  537MOL0     C72426   3.595   3.348   0.603 -0.1516  0.0417 -0.2548
  537MOL0     C72427   3.509   3.422   0.685 -1.1578 -0.7193  0.1490
  537MOL0     H72428   3.134   3.425   1.096 -1.3280 -1.5969  2.6224
  537MOL0     H72429   3.019   3.540   1.267  0.3480 -3.5155 -2.4232
  537MOL0     H72430   3.000   3.774   1.338 -3.6590  0.3539  0.8975
  537MOL0     H72431   2.935   3.656   1.428  0.8415  0.2656 -4.3964
  537MOL0     H72432   2.954   3.789   1.655  3.2796  2.5273  1.4560
  537MOL0     H72433   3.052   3.901   1.562  0.7771 -0.7270  2.8257
  537MOL0     H72434   2.824   3.935   1.424 -2.7296  0.9978 -0.8126
  537MOL0     H72435   2.752   3.804   1.520  0.0189 -0.6465  4.1737
  537MOL0     H72436   2.742   3.918   1.716 -2.0100  0.1849 -1.4533
  537MOL0     H72437   2.866   4.030   1.681 -1.1483  1.5687 -1.0397
  537MOL0     H72438   2.645   4.139   1.674  1.9330 -1.6363  2.2178
  537MOL0     H72439   2.750   4.152   1.532 -0.6101  0.1172  0.5442
  537MOL0     H72440   2.604   3.980   1.421  1.3090  0.8367  0.0795
  537MOL0     H72441   2.506   3.949   1.564  1.3827 -0.7567 -0.4064
  537MOL0     H72442   2.522   4.207   1.419  4.0669 -2.3151 -2.4156
  537MOL0     H72443   2.421   4.071   1.376  0.6459 -0.3886  0.8069
  537MOL0     H72444   2.284   4.236   1.533  0.0902 -0.5756 -1.5438
  537MOL0     H72445   2.393   4.178   1.658  0.2760 -1.9191 -0.0154
  537MOL0     H72446   2.267   4.023   1.799  0.4362  2.5697 -1.4134
  537MOL0     H72447   2.102   3.790   1.853 -1.3694 -0.6084  1.5320
  537MOL0     H72448   1.985   3.904   1.840  0.2812 -1.8624  1.5810
  537MOL0     H72449   1.926   3.645   1.793 -3.0196 -1.3742 -3.4604
  537MOL0     H72450   2.012   3.671   1.643 -0.6362  0.6497 -2.1384
  537MOL0     H72451   1.763   3.688   1.637 -0.6267 -0.5812  2.5561
  537MOL0     H72452   1.837   3.826   1.570 -0.5012 -0.7465  0.0064
  537MOL0     H72453   1.665   3.907   1.686  0.1468  0.7538  0.1978
  537MOL0     H72454   1.794   3.946   1.800  2.8688 -0.7654 -0.9583
  537MOL0     H72455   1.569   3.637   2.012  0.0995 -0.0647 -0.4636
  537MOL0     H72456   1.268   3.551   2.103 -0.4868  0.4457  0.7465
  537MOL0     H72457   1.404   3.573   2.202  0.9327 -1.5977 -2.3825
  537MOL0     H72458   1.270   3.678   2.233  1.3158  2.7692 -0.1778
  537MOL0     H72459   1.033   4.122   2.130 -0.4714 -0.5085  0.2300
  537MOL0     H72460   0.821   4.243   2.150  1.8705 -0.2936  0.3445
  537MOL0     H72461   0.594   4.235   2.231 -1.2860  0.0731  0.3455
  537MOL0     H72462   0.517   4.364   2.140  0.3426  0.0553  2.9808
  537MOL0     H72463   0.351   4.221   2.257  0.1444  1.8574 -1.0811
  537MOL0     H72464   0.349   4.201   2.076 -0.8216 -0.9920 -0.0879
  537MOL0     H72465   0.487   4.012   2.286 -0.5911  1.8481  1.8707
  537MOL0     H72466   0.478   3.985   2.111  1.1433  0.0853 -0.1216
  537MOL0     H72467   0.237   3.996   2.307  1.4243  0.7779  0.2742
  537MOL0     H72468   0.226   3.969   2.140 -2.6364 -0.0352  1.7437
  537MOL0     H72469   0.367   3.752   2.318 -2.2476 -1.3398  1.2570
  537MOL0     H72470   0.361   3.774   2.146 -1.8740  1.6862 -1.3146
  537MOL0     H72471   0.112   3.769   2.151  1.1824  1.5882 -0.2037
  537MOL0     H72472   0.192   3.619   2.219 -1.0579 -0.2334  2.6600
  537MOL0     H72473   0.078   3.850   2.385  2.4805  0.9842 -0.2142
  537MOL0     H72474   0.158   3.702   2.445 -0.6196 -2.6383 -0.7693
  537MOL0     H72475  -0.069   3.671   2.492  2.2478  0.8884  0.9505
  537MOL0     H72476   0.010   3.559   2.388 -0.1925  0.1386 -0.7143
  537MOL0     H72477   0.634   4.003   1.867  1.8715  2.5845 -3.7513
  537MOL0     H72478   0.840   3.860   1.838  1.8216 -0.2992  0.6586
  537MOL0     H72479   1.273   4.006   1.871 -0.0435 -0.2915 -1.3419
  537MOL0     H72480   1.500   3.985   1.788  1.0258  0.7377  1.3924
  537MOL0     H72481   3.408   3.702   1.410 -2.4053  0.2242  1.6560
  537MOL0     H72482   3.518   3.578   1.235  0.5102  0.0566  0.7607
  537MOL0     H72483   3.607   3.279   0.981  2.3283  0.9139  0.7983
  537MOL0     H72484   3.735   3.159   0.848  1.3929  1.1620 -0.1535
  537MOL0     H72485   3.938   3.183   0.698 -1.4804  0.6570  0.2778
  537MOL0     H72486   3.847   3.030   0.697 -0.5221  1.0579  0.6669
  537MOL0     H72487   3.920   3.080   0.431  0.6699  2.1724  1.4321
  537MOL0     H72488   3.968   2.950   0.559 -1.8685  0.2326  2.4130
  537MOL0     H72489   4.128   3.130   0.632  1.8187 -3.2727  0.6797
  537MOL0     H72490   4.114   3.215   0.473  0.9864 -0.5252 -0.6596
  537MOL0     H72491   4.172   3.020   0.346  2.7712 -4.4489 -0.8858
  537MOL0     H72492   4.191   2.925   0.484  1.4471 -2.3371 -5.3257
  537MOL0     H72493   4.548   3.138   0.537 -0.3612 -1.8879  0.0113
  537MOL0     H72494   3.590   3.359   0.495 -0.3845 -0.6109 -0.3133
  537MOL0     H72495   3.427   3.472   0.634 -0.9477  0.0675  0.5679
  538MOL0     O72496   1.523   7.767   0.989 -0.3670  1.1732 -0.2553
  538MOL0     C72497   1.568   7.746   1.106 -0.3857  1.1355  0.2053
  538MOL0     O72498   1.495   7.699   1.210  0.1950  0.5552  0.6990
  538MOL0     C72499   1.355   7.713   1.198 -0.2538 -0.6462  0.4755
  538MOL0     C72500   1.271   7.603   1.204 -1.1695 -0.1440  0.9190
  538MOL0     C72501   1.136   7.619   1.192  0.7597 -0.4851 -0.1895
  538MOL0     C72502   1.076   7.742   1.181 -0.5049  0.8204  0.0837
  538MOL0     O72503   0.937   7.742   1.170  0.3290 -0.0394  0.1974
  538MOL0     C72504   0.865   7.861   1.134 -0.2880  0.1676  0.2834
  538MOL0     C72505   0.712   7.838   1.150 -0.2218 -0.0164 -0.4977
  538MOL0     C72506   0.682   7.707   1.074 -0.1513  0.7065 -0.9988
  538MOL0     C72507   0.535   7.700   1.049 -1.1661  0.1614  0.0791
  538MOL0     C72508   0.505   7.606   0.933  0.5913  0.3549 -0.1180
  538MOL0     C72509   0.366   7.544   0.952 -0.1193  0.2780 -0.0204
  538MOL0     C72510   0.344   7.441   0.841  0.6895  0.1381 -0.3638
  538MOL0     C72511   0.205   7.377   0.826  0.1337 -0.1456  0.1518
  538MOL0     N72512   0.189   7.280   0.714 -0.4072  0.0890 -0.4750
  538MOL0     C72513   0.199   7.144   0.719 -0.1454  0.1024  0.4870
  538MOL0     C72514   0.175   7.105   0.592  1.2298 -0.0229 -0.1499
  538MOL0     C72515   0.136   6.959   0.556 -0.2514  0.5926  0.9246
  538MOL0     C72516  -0.016   6.937   0.547  0.3502 -0.4756  0.0141
  538MOL0     C72517  -0.089   7.018   0.438 -0.0012  0.1289  0.1419
  538MOL0     C72518  -0.231   6.978   0.413 -0.5321  0.0332  0.6905
  538MOL0     O72519  -0.221   6.854   0.347  0.0846  0.3627  0.6859
  538MOL0     C72520  -0.341   6.797   0.294 -0.4357  0.1909 -0.0793
  538MOL0     C72521  -0.322   6.691   0.202 -0.1987  0.2773 -0.5697
  538MOL0     C72522  -0.424   6.595   0.184  0.1465  0.9112  0.5407
  538MOL0     C72523  -0.387   6.475   0.094 -0.1491  0.2031  1.1456
  538MOL0     C72524  -0.546   6.606   0.245 -0.8579  0.3484 -0.5207
  538MOL0     C72525  -0.656   6.504   0.239  0.1053 -0.0708  0.1521
  538MOL0     O72526  -0.770   6.569   0.275  0.2200 -0.4160 -0.8133
  538MOL0     C72527  -0.883   6.498   0.309 -0.7216  0.3293 -0.3851
  538MOL0     C72528  -0.998   6.551   0.264  1.0212 -0.0596 -0.5012
  538MOL0     C72529  -1.126   6.506   0.307  0.6505 -0.1000 -0.1636
  538MOL0     C72530  -1.133   6.391   0.386 -0.9199  0.6537  0.2717
  538MOL0     O72531  -1.253   6.353   0.439  0.5285 -0.4321  0.1240
  538MOL0     C72532  -1.271   6.213   0.431 -0.7199  0.1290 -0.5955
  538MOL0     C72533  -1.401   6.171   0.356 -0.8401 -0.5227 -0.0105
  538MOL0     C72534  -1.518   6.222   0.447  0.1364 -0.7492 -0.3250
  538MOL0     C72535  -1.660   6.149   0.413  0.5999 -0.5044 -0.2048
  538MOL0     C72536  -1.724   6.225   0.290 -0.2782 -0.4392 -0.1934
  538MOL0     C72537  -1.813   6.334   0.326  0.4247 -0.7700 -0.6386
  538MOL0     C72538  -1.948   6.279   0.363  0.6655  0.1797 -0.3245
  538MOL0     C72539  -2.033   6.392   0.402 -0.2894 -1.5704  0.3178
  538MOL0    Cl72540  -2.190   6.335   0.394  0.1894 -0.2394  0.5094
  538MOL0     C72541  -1.010   6.343   0.443  0.2511  0.2702  1.1184
  538MOL0     C72542  -0.888   6.391   0.403  0.2409 -0.2962  0.2784
  538MOL0     O72543  -0.647   6.385   0.212 -0.1289  0.9057 -0.3066
  538MOL0     C72544  -0.564   6.723   0.330  0.1722 -0.8754  1.1127
  538MOL0     C72545  -0.467   6.812   0.350  0.0606 -1.1435 -0.0686
  538MOL0     N72546   0.173   7.221   0.514 -0.4161 -0.5578  0.4129
  538MOL0     N72547   0.181   7.325   0.587 -0.1029  0.6384  0.0034
  538MOL0     C72548   1.157   7.856   1.159 -0.0629 -0.0569 -0.7562
  538MOL0     C72549   1.296   7.841   1.177 -0.6190  0.9019  0.5776
  538MOL0     C72550   1.709   7.769   1.133 -0.5850  0.4524  0.2629
  538MOL0     C72551   1.758   7.768   1.266  0.1598  0.0323 -0.4895
  538MOL0     C72552   1.893   7.818   1.294  0.6357 -0.1380  0.7527
  538MOL0     C72553   1.977   7.872   1.196  0.6319 -0.3579 -0.7620
  538MOL0     O72554   2.087   7.938   1.219  0.5132  0.2629 -0.1314
  538MOL0     C72555   2.203   7.848   1.250  0.5597  0.2168 -0.1605
  538MOL0     C72556   2.330   7.929   1.290  0.5777  0.2653 -0.9256
  538MOL0     C72557   2.370   8.024   1.178 -1.0162 -0.4157 -0.5192
  538MOL0     C72558   2.520   8.033   1.170 -0.8516  0.0273 -0.0158
  538MOL0     C72559   2.553   8.061   1.027 -0.4478 -0.2821  0.0892
  538MOL0     C72560   2.584   8.069   0.910  1.2701 -1.2925 -0.2444
  538MOL0     C72561   1.923   7.878   1.070  0.4638  0.4397  0.5342
  538MOL0     C72562   1.801   7.810   1.037 -0.2519 -0.5370  0.4248
  538MOL0     H72563   1.307   7.503   1.225  2.1495  0.4833 -1.1956
  538MOL0     H72564   1.068   7.535   1.202  0.7234 -0.4301  0.0496
  538MOL0     H72565   0.894   7.950   1.190  4.0862 -0.1525 -1.1220
  538MOL0     H72566   0.894   7.875   1.030 -0.6033 -2.6529 -0.2851
  538MOL0     H72567   0.689   7.836   1.257 -3.4644  4.4058 -0.8267
  538MOL0     H72568   0.652   7.920   1.109  0.3208  0.1294 -1.0042
  538MOL0     H72569   0.727   7.721   0.975 -1.4888  1.4669 -1.5392
  538MOL0     H72570   0.720   7.616   1.121 -1.6666 -0.1914 -1.4410
  538MOL0     H72571   0.492   7.665   1.143 -2.0838  0.1935 -0.3222
  538MOL0     H72572   0.493   7.800   1.042 -0.8736  0.3651  1.0319
  538MOL0     H72573   0.508   7.670   0.845 -2.3125  2.4686  1.1584
  538MOL0     H72574   0.567   7.517   0.949 -0.4372  0.0167  2.5542
  538MOL0     H72575   0.363   7.487   1.045 -0.3295 -0.2349 -0.3353
  538MOL0     H72576   0.279   7.611   0.960 -1.6833 -1.7591  0.9339
  538MOL0     H72577   0.359   7.491   0.745  0.1038 -1.0604 -1.1003
  538MOL0     H72578   0.427   7.370   0.850 -1.6042 -2.4809  2.3859
  538MOL0     H72579   0.138   7.459   0.802 -2.2333 -2.1480 -0.5110
  538MOL0     H72580   0.180   7.326   0.920 -2.2490 -0.4755 -0.6041
  538MOL0     H72581   0.189   7.083   0.808  1.7850 -0.4111  0.3937
  538MOL0     H72582   0.183   6.949   0.458 -0.3313  2.0115  0.7167
  538MOL0     H72583   0.187   6.886   0.620  0.8916 -0.7658 -1.4054
  538MOL0     H72584  -0.060   6.960   0.645 -0.8797  0.8063 -0.7976
  538MOL0     H72585  -0.037   6.831   0.534  1.9703 -1.1966  2.6471
  538MOL0     H72586  -0.032   7.007   0.345  1.5926  1.2301  0.9507
  538MOL0     H72587  -0.092   7.122   0.471  4.1254  1.3012 -2.3590
  538MOL0     H72588  -0.268   7.053   0.342 -0.0329 -0.4703 -0.1168
  538MOL0     H72589  -0.290   6.954   0.501 -1.5312 -2.6514 -0.5932
  538MOL0     H72590  -0.224   6.681   0.155 -0.5327 -4.3384 -0.7188
  538MOL0     H72591  -0.419   6.381   0.141  1.0845 -1.9774 -1.9636
  538MOL0     H72592  -0.440   6.489  -0.001  0.0877  4.1799  1.4557
  538MOL0     H72593  -0.283   6.456   0.066 -0.3220  0.7322  0.0799
  538MOL0     H72594  -0.988   6.627   0.187 -2.6593 -0.7471 -1.8636
  538MOL0     H72595  -1.227   6.530   0.276  0.4613 -0.5053  0.1229
  538MOL0     H72596  -1.190   6.163   0.377 -2.0000 -1.8442 -0.7874
  538MOL0     H72597  -1.277   6.180   0.535  1.6265  1.8050  0.1464
  538MOL0     H72598  -1.403   6.209   0.254  3.8043  2.7504  0.8298
  538MOL0     H72599  -1.423   6.063   0.351 -0.2107 -0.7989  2.1778
  538MOL0     H72600  -1.530   6.331   0.450 -0.3786 -0.8315  1.3379
  538MOL0     H72601  -1.500   6.192   0.551  1.5399 -0.4198 -0.4516
  538MOL0     H72602  -1.640   6.042   0.395  1.9496 -0.1683 -0.8464
  538MOL0     H72603  -1.725   6.147   0.501  1.7527  1.0174  0.7325
  538MOL0     H72604  -1.791   6.164   0.229 -4.1634  0.5045  2.7262
  538MOL0     H72605  -1.651   6.263   0.218 -1.3904  0.7287 -0.7427
  538MOL0     H72606  -1.776   6.399   0.407  0.5267  0.0852 -1.3578
  538MOL0     H72607  -1.822   6.390   0.233 -2.1090 -4.6844 -3.0246
  538MOL0     H72608  -1.940   6.198   0.437  1.9101  0.5098 -0.0845
  538MOL0     H72609  -1.988   6.221   0.279  1.4222 -1.9211  0.6960
  538MOL0     H72610  -2.024   6.470   0.326  2.1389 -0.1163  1.9707
  538MOL0     H72611  -2.021   6.446   0.496 -0.3778 -1.2247  0.1318
  538MOL0     H72612  -1.017   6.273   0.526 -2.1575  0.0508  0.7871
  538MOL0     H72613  -0.794   6.351   0.440  0.4105 -1.1719 -1.0361
  538MOL0     H72614  -0.660   6.743   0.378  1.2298  2.2280  2.1584
  538MOL0     H72615  -0.500   6.900   0.403 -0.0524 -0.0128 -1.9427
  538MOL0     H72616   1.118   7.952   1.126 -2.8966 -0.8557  0.0031
  538MOL0     H72617   1.351   7.934   1.177 -1.6937  1.6255 -1.6621
  538MOL0     H72618   1.694   7.728   1.344  2.2551  0.3169  1.4684
  538MOL0     H72619   1.919   7.837   1.398 -0.7569 -2.2808  1.5673
  538MOL0     H72620   2.172   7.778   1.329 -1.7671  0.1902 -1.0056
  538MOL0     H72621   2.224   7.785   1.163  1.4820 -0.0302  0.2355
  538MOL0     H72622   2.414   7.869   1.324  0.5242  0.8050  0.2022
  538MOL0     H72623   2.300   7.988   1.377 -1.1131 -2.5013  0.4839
  538MOL0     H72624   2.321   8.121   1.186  3.0239  1.9367 -1.4075
  538MOL0     H72625   2.334   7.980   1.084  0.1798 -3.0732  0.1750
  538MOL0     H72626   2.568   7.938   1.197  0.1271 -0.2642 -2.5431
  538MOL0     H72627   2.559   8.107   1.241 -1.1561 -0.0932  0.2815
  538MOL0     H72628   2.623   8.063   0.811  0.6496 -0.8491 -0.5210
  538MOL0     H72629   1.976   7.926   0.988 -0.1496  1.5038  0.7473
  538MOL0     H72630   1.777   7.811   0.931  3.0594  2.6803 -0.4872
  539MOL0     O72631  11.255  10.670   6.659 -0.4668 -0.0230 -0.3888
  539MOL0     C72632  11.331  10.606   6.727 -0.1082 -0.7568 -0.4942
  539MOL0     O72633  11.305  10.559   6.850  1.1334 -0.1127  0.4002
  539MOL0     C72634  11.189  10.605   6.918 -0.8367 -0.2517 -0.3921
  539MOL0     C72635  11.107  10.514   6.983 -0.0620 -0.6402 -0.1133
  539MOL0     C72636  10.995  10.553   7.055  0.0247 -0.3022  0.2032
  539MOL0     C72637  10.969  10.690   7.078 -0.1468  0.2508 -0.0471
  539MOL0     O72638  10.853  10.726   7.140 -1.1312 -0.8696 -0.0149
  539MOL0     C72639  10.793  10.853   7.110  0.1201 -0.3021 -0.0304
  539MOL0     C72640  10.643  10.849   7.148  0.3069  0.0242 -0.8161
  539MOL0     C72641  10.615  10.840   7.297  0.8102  0.0442 -0.2467
  539MOL0     C72642  10.470  10.797   7.335 -0.4065 -0.1967  0.5495
  539MOL0     C72643  10.374  10.917   7.340 -0.6141 -0.7755  0.4869
  539MOL0     C72644  10.232  10.879   7.388 -0.6289  0.2023  0.0761
  539MOL0     C72645  10.154  10.812   7.280  0.2014  0.3350 -0.2437
  539MOL0     C72646  10.065  10.900   7.193  0.5462  0.2058 -0.1653
  539MOL0     N72647   9.954  10.937   7.274 -0.7312 -0.1069 -1.0397
  539MOL0     C72648   9.861  10.849   7.334  1.0661  0.3563 -0.4480
  539MOL0     C72649   9.762  10.926   7.400 -0.5969 -0.6306  0.1946
  539MOL0     C72650   9.656  10.884   7.503  0.7827 -0.1483 -0.0444
  539MOL0     C72651   9.526  10.984   7.500 -0.8924 -0.0375 -0.1771
  539MOL0     C72652   9.559  11.100   7.590 -0.2600 -0.4744  0.0927
  539MOL0     C72653   9.427  11.182   7.609  0.2451 -0.1509  0.2757
  539MOL0     O72654   9.409  11.258   7.488  0.1667 -0.0032 -0.5773
  539MOL0     C72655   9.281  11.318   7.468  0.6811 -0.2404 -0.3383
  539MOL0     C72656   9.252  11.368   7.338 -0.0742  0.0675  0.6565
  539MOL0     C72657   9.127  11.414   7.304 -0.2300 -0.1835  0.8301
  539MOL0     C72658   9.114  11.467   7.162 -0.6952 -0.4175 -0.6481
  539MOL0     C72659   9.014  11.415   7.388  0.0858  0.3532 -0.0814
  539MOL0     C72660   8.878  11.475   7.375  0.7032 -0.2632 -0.9304
  539MOL0     O72661   8.790  11.472   7.483 -0.7335  0.2241 -0.4499
  539MOL0     C72662   8.660  11.512   7.476 -0.3642 -0.6949 -0.6024
  539MOL0     C72663   8.593  11.599   7.385 -0.9506  0.0829 -0.5084
  539MOL0     C72664   8.458  11.631   7.400  1.0132 -0.7626 -0.6221
  539MOL0     C72665   8.393  11.588   7.507 -0.2079  0.0224 -0.5477
  539MOL0     O72666   8.263  11.601   7.542  0.3618  0.5358  0.2747
  539MOL0     C72667   8.168  11.678   7.459  0.1526 -0.2213 -0.7736
  539MOL0     C72668   8.093  11.595   7.358  0.5554 -0.1514 -0.2505
  539MOL0     C72669   8.001  11.484   7.416  0.3249  0.7374 -0.5230
  539MOL0     C72670   7.898  11.553   7.506  0.2734 -0.1344 -0.4190
  539MOL0     C72671   7.748  11.504   7.479  0.5395 -0.0574 -0.7851
  539MOL0     C72672   7.637  11.597   7.528  0.4242 -0.1174  0.4088
  539MOL0     C72673   7.495  11.537   7.526 -0.1016 -0.3690  0.9616
  539MOL0     C72674   7.391  11.652   7.513 -1.3600  0.2414 -0.2670
  539MOL0    Cl72675   7.410  11.768   7.655  0.3132 -0.0232  0.3541
  539MOL0     C72676   8.455  11.503   7.598 -0.1086  0.6031  0.1959
  539MOL0     C72677   8.590  11.475   7.587 -0.6477 -0.1345  0.0030
  539MOL0     O72678   8.863  11.534   7.269  1.0142  0.6844 -0.5378
  539MOL0     C72679   9.044  11.358   7.512  0.0746 -0.0553  1.0788
  539MOL0     C72680   9.171  11.321   7.558  0.3509  0.3458  0.2166
  539MOL0     N72681   9.819  11.054   7.400 -0.3995 -0.7388  0.8022
  539MOL0     N72682   9.931  11.059   7.325  0.8424 -1.0429  1.0914
  539MOL0     C72683  11.062  10.783   7.032  0.4903  0.1401  0.0131
  539MOL0     C72684  11.167  10.743   6.948  1.3333  0.8877  0.0336
  539MOL0     C72685  11.457  10.569   6.666 -0.0684 -0.0847 -0.4702
  539MOL0     C72686  11.510  10.652   6.559  0.6812  0.2083 -0.4910
  539MOL0     C72687  11.634  10.627   6.503 -0.8208  0.2816 -0.6723
  539MOL0     C72688  11.706  10.520   6.552 -0.5317  0.2366 -1.0561
  539MOL0     O72689  11.833  10.506   6.498 -0.2530 -0.1368  0.4478
  539MOL0     C72690  11.924  10.609   6.523 -0.2369 -0.2071  0.0524
  539MOL0     C72691  12.067  10.567   6.473  0.1615 -0.3947 -0.7959
  539MOL0     C72692  12.172  10.677   6.486  0.3544 -0.3918  0.9719
  539MOL0     C72693  12.303  10.606   6.453 -0.7805 -0.0849 -0.2736
  539MOL0     C72694  12.418  10.690   6.485 -0.3491 -0.6393  0.3432
  539MOL0     C72695  12.516  10.760   6.509 -0.1434 -0.3105  0.1295
  539MOL0     C72696  11.657  10.431   6.647  0.1922  0.6171 -1.2151
  539MOL0     C72697  11.535  10.457   6.703  0.6972 -0.1626  0.4340
  539MOL0     H72698  11.124  10.407   6.988  0.9889 -0.4551  1.0052
  539MOL0     H72699  10.929  10.473   7.087 -0.5316 -0.1298 -0.4920
  539MOL0     H72700  10.844  10.925   7.175 -2.5531 -1.5356  3.7343
  539MOL0     H72701  10.812  10.877   7.005  1.1937 -0.5683  0.0937
  539MOL0     H72702  10.607  10.938   7.097  1.3667  0.2919 -1.1170
  539MOL0     H72703  10.601  10.762   7.095  0.3188 -1.2131  1.0946
  539MOL0     H72704  10.676  10.752   7.317  2.5491  1.1233 -0.6301
  539MOL0     H72705  10.652  10.925   7.355 -0.4972  0.8560 -0.5544
  539MOL0     H72706  10.446  10.725   7.256  1.7085 -1.8523  1.3257
  539MOL0     H72707  10.472  10.749   7.433 -5.0192  2.5565  2.3387
  539MOL0     H72708  10.418  10.990   7.408  0.9097  0.7980 -1.9968
  539MOL0     H72709  10.373  10.975   7.247 -0.0289 -0.8142  0.4515
  539MOL0     H72710  10.243  10.804   7.468  1.2038 -0.1049 -0.4107
  539MOL0     H72711  10.175  10.968   7.417 -0.1432  0.6233 -0.2561
  539MOL0     H72712  10.212  10.758   7.205 -3.0222  0.4635 -3.0603
  539MOL0     H72713  10.093  10.732   7.321  1.1882  0.9848  2.7461
  539MOL0     H72714  10.033  10.862   7.096 -2.6267  0.3095  0.7157
  539MOL0     H72715  10.121  10.988   7.160  0.1790  0.5261  0.0582
  539MOL0     H72716   9.852  10.743   7.353  2.5610  0.8221  4.1064
  539MOL0     H72717   9.627  10.788   7.459  1.1490  0.9669 -2.9820
  539MOL0     H72718   9.695  10.863   7.603 -0.6658 -1.0806  0.3501
  539MOL0     H72719   9.449  10.913   7.529 -1.5935  0.2564 -1.2630
  539MOL0     H72720   9.511  11.022   7.399 -1.0778 -0.5857 -0.3606
  539MOL0     H72721   9.640  11.164   7.552 -0.7789  0.9710  1.2945
  539MOL0     H72722   9.600  11.064   7.685 -0.2339 -0.6439  0.0168
  539MOL0     H72723   9.435  11.253   7.691  1.5258  2.4609 -1.9366
  539MOL0     H72724   9.337  11.121   7.616  1.3621 -1.8549  0.2248
  539MOL0     H72725   9.333  11.370   7.266 -0.6948  0.2457 -0.0541
  539MOL0     H72726   9.202  11.436   7.105 -1.1425 -1.2162 -0.9155
  539MOL0     H72727   9.025  11.437   7.105 -0.9225  0.5505 -0.8296
  539MOL0     H72728   9.127  11.575   7.172  0.6468 -0.3271 -2.7469
  539MOL0     H72729   8.643  11.645   7.300  1.7885  2.1349  2.0112
  539MOL0     H72730   8.420  11.700   7.325  0.8434 -1.2439 -0.9811
  539MOL0     H72731   8.098  11.725   7.528  0.8917 -0.3564  0.0877
  539MOL0     H72732   8.232  11.750   7.408  1.1468 -0.7498 -0.2993
  539MOL0     H72733   8.038  11.654   7.285  1.0294 -2.7613 -2.9322
  539MOL0     H72734   8.158  11.542   7.287 -1.1922 -1.3793 -0.9893
  539MOL0     H72735   8.044  11.402   7.474  0.9849  0.7310 -1.0198
  539MOL0     H72736   7.951  11.434   7.332 -3.6459  1.7777  0.9684
  539MOL0     H72737   7.925  11.542   7.612 -1.9157 -0.5011  0.1551
  539MOL0     H72738   7.880  11.655   7.470 -1.5714  0.1075  1.0151
  539MOL0     H72739   7.729  11.406   7.523 -5.0828  1.0189 -0.0502
  539MOL0     H72740   7.739  11.492   7.371  0.2606  1.3561 -0.9357
  539MOL0     H72741   7.643  11.636   7.631 -4.9478  1.0265  0.6211
  539MOL0     H72742   7.640  11.685   7.463  0.2961  1.2581  2.1453
  539MOL0     H72743   7.480  11.480   7.618 -3.5271 -2.2341 -0.5421
  539MOL0     H72744   7.472  11.483   7.434  0.0676  0.1263  0.6273
  539MOL0     H72745   7.296  11.599   7.527 -1.1998  0.2733  1.0531
  539MOL0     H72746   7.396  11.705   7.418 -1.7823  0.5581 -0.1157
  539MOL0     H72747   8.411  11.471   7.692 -0.4456 -1.0066 -0.4855
  539MOL0     H72748   8.629  11.409   7.664 -0.4999  2.9030  2.7583
  539MOL0     H72749   8.961  11.373   7.581  1.3426  1.3757  2.3704
  539MOL0     H72750   9.182  11.313   7.666  3.5372  0.8838  0.0311
  539MOL0     H72751  11.054  10.888   7.057  0.0571 -0.1906  1.3959
  539MOL0     H72752  11.227  10.822   6.905  1.1612  0.6704 -0.6046
  539MOL0     H72753  11.444  10.728   6.518  1.3061  0.5500 -0.8698
  539MOL0     H72754  11.674  10.686   6.421 -1.4745  3.4385  1.1423
  539MOL0     H72755  11.896  10.693   6.460  0.5699  0.8069  1.0112
  539MOL0     H72756  11.928  10.643   6.627 -1.1547 -2.3913  0.8640
  539MOL0     H72757  12.061  10.548   6.366 -3.3347 -0.1978 -0.7620
  539MOL0     H72758  12.091  10.472   6.522 -0.2851 -0.2415 -0.2715
  539MOL0     H72759  12.189  10.709   6.589  2.0102 -0.4123  0.7436
  539MOL0     H72760  12.157  10.761   6.419  3.9873 -1.6319 -1.7461
  539MOL0     H72761  12.304  10.588   6.345  1.0868 -0.1770 -0.2712
  539MOL0     H72762  12.318  10.515   6.511  1.6724  0.5978  0.3034
  539MOL0     H72763  12.597  10.825   6.534 -0.7902  1.4509 -2.0239
  539MOL0     H72764  11.703  10.342   6.689 -1.0363  0.7488  0.4955
  539MOL0     H72765  11.488  10.392   6.777 -2.7291  1.5124 -0.0736
  540MOL0     O72766   1.828   6.040   5.718 -0.1201 -0.0197 -0.0003
  540MOL0     C72767   1.747   6.129   5.678  0.0205  0.6473 -1.3459
  540MOL0     O72768   1.641   6.162   5.756  0.6388 -0.1589 -0.5271
  540MOL0     C72769   1.602   6.066   5.848  0.4581  0.2079 -0.6121
  540MOL0     C72770   1.564   5.931   5.832  0.3461 -1.1882  0.7739
  540MOL0     C72771   1.524   5.856   5.938  0.9057  0.0519  0.4509
  540MOL0     C72772   1.524   5.910   6.068  0.0532 -0.0169  0.6640
  540MOL0     O72773   1.515   5.821   6.175  0.3223 -0.2052 -0.1709
  540MOL0     C72774   1.378   5.769   6.181  0.4841 -0.2535  0.3321
  540MOL0     C72775   1.307   5.799   6.318 -0.0700  0.4471 -0.2056
  540MOL0     C72776   1.280   5.952   6.334 -0.1358  0.2166 -0.5767
  540MOL0     C72777   1.293   5.998   6.485  1.0504 -0.0669 -0.0790
  540MOL0     C72778   1.209   5.915   6.575 -0.1435  0.6447 -0.6518
  540MOL0     C72779   1.188   5.983   6.708 -1.1183  0.1517 -0.3991
  540MOL0     C72780   1.069   5.935   6.789  1.4760 -0.5616  1.0178
  540MOL0     C72781   1.080   5.966   6.936  0.8060  0.3971 -0.2627
  540MOL0     N72782   0.949   5.960   7.001  0.1262  0.0024 -0.1875
  540MOL0     C72783   0.926   5.891   7.122 -0.2505 -0.0230  0.6016
  540MOL0     C72784   0.801   5.925   7.152 -0.7007 -0.8376  0.1699
  540MOL0     C72785   0.722   5.844   7.247  0.6403 -0.1730 -0.4054
  540MOL0     C72786   0.578   5.890   7.263 -1.2703 -0.1870 -0.6933
  540MOL0     C72787   0.567   6.000   7.367 -0.1924 -0.0473  0.2939
  540MOL0     C72788   0.419   6.047   7.392  0.2163 -0.2056  0.0951
  540MOL0     O72789   0.345   5.939   7.445 -0.0354 -0.2032  0.2951
  540MOL0     C72790   0.225   5.958   7.509 -0.9094  0.1989 -0.5013
  540MOL0     C72791   0.169   6.080   7.551 -0.7248 -0.1038 -0.9048
  540MOL0     C72792   0.050   6.077   7.623  0.3972 -0.3582  0.0159
  540MOL0     C72793  -0.011   6.216   7.653  0.2140  0.8423  0.3366
  540MOL0     C72794  -0.003   5.958   7.681  0.2484  0.4226 -0.6263
  540MOL0     C72795  -0.106   5.945   7.784 -0.3710  0.3290  0.0426
  540MOL0     O72796  -0.128   6.060   7.873 -0.3972  0.8643  0.5029
  540MOL0     C72797  -0.213   6.029   7.972  0.4600 -0.9119 -0.9386
  540MOL0     C72798  -0.243   5.907   8.037  0.3520  1.0806  0.7300
  540MOL0     C72799  -0.342   5.901   8.134  0.2842 -0.9475  0.0095
  540MOL0     C72800  -0.403   6.016   8.178 -0.3344 -0.2886 -0.8992
  540MOL0     O72801  -0.498   6.009   8.276  0.4433  0.5715  0.0518
  540MOL0     C72802  -0.599   5.906   8.242 -0.3363 -0.2419 -0.1513
  540MOL0     C72803  -0.703   5.950   8.337  0.9555  0.6371  0.4973
  540MOL0     C72804  -0.789   6.073   8.306  0.0809 -0.3648  0.0786
  540MOL0     C72805  -0.706   6.205   8.313 -0.5487  0.2211  0.0701
  540MOL0     C72806  -0.805   6.323   8.300 -0.8976 -1.7414  0.2349
  540MOL0     C72807  -0.742   6.460   8.321 -0.8482  0.2576 -0.8228
  540MOL0     C72808  -0.663   6.476   8.461  0.0506  0.4038  0.9230
  540MOL0     C72809  -0.608   6.618   8.492 -0.2054  0.0312  0.1251
  540MOL0    Cl72810  -0.748   6.703   8.572  0.1341  0.2104 -0.1346
  540MOL0     C72811  -0.373   6.141   8.116 -0.9821  0.1842  0.7572
  540MOL0     C72812  -0.274   6.151   8.023  0.0176 -0.0282 -0.2025
  540MOL0     O72813  -0.167   5.841   7.776  0.0728 -0.2168 -0.1275
  540MOL0     C72814   0.052   5.836   7.637  1.0368  0.8504 -0.8079
  540MOL0     C72815   0.170   5.839   7.557 -0.1864  0.1834 -0.9911
  540MOL0     N72816   0.761   6.035   7.081  0.0951 -0.4523  0.0947
  540MOL0     N72817   0.851   6.064   6.999  0.1755 -0.8341  0.7212
  540MOL0     C72818   1.552   6.043   6.089  0.2485 -0.7449  0.5264
  540MOL0     C72819   1.589   6.124   5.976  0.6482  0.4881 -0.0389
  540MOL0     C72820   1.799   6.227   5.582 -0.1302  0.7223  0.7418
  540MOL0     C72821   1.896   6.197   5.484  0.4894 -0.4752 -0.4545
  540MOL0     C72822   1.933   6.287   5.382  0.1605 -0.8085 -0.2352
  540MOL0     C72823   1.877   6.417   5.368  0.9075  0.2955 -0.1665
  540MOL0     O72824   1.913   6.504   5.268 -0.0375  0.1306  0.4781
  540MOL0     C72825   1.924   6.457   5.134  0.5012  0.1195 -0.3226
  540MOL0     C72826   1.789   6.389   5.091 -0.3104 -0.9228 -0.9443
  540MOL0     C72827   1.786   6.363   4.935  0.3164 -0.0931 -0.2684
  540MOL0     C72828   1.754   6.498   4.851  0.1827  0.7207  0.1251
  540MOL0     C72829   1.621   6.560   4.869  0.3764 -0.8368 -0.6284
  540MOL0     C72830   1.524   6.628   4.901 -0.4829  0.7484  0.4879
  540MOL0     C72831   1.778   6.444   5.458 -0.6292 -1.4022 -0.0299
  540MOL0     C72832   1.739   6.357   5.567  0.5774  0.0786 -0.0950
  540MOL0     H72833   1.562   5.891   5.731  0.9808  1.1974 -0.2529
  540MOL0     H72834   1.501   5.751   5.919 -0.8863  0.2545  1.2922
  540MOL0     H72835   1.314   5.817   6.106  3.1273 -1.4982 -2.9562
  540MOL0     H72836   1.394   5.663   6.160 -1.9890 -0.9922  1.7793
  540MOL0     H72837   1.214   5.742   6.321  1.1456 -1.6019  0.5974
  540MOL0     H72838   1.372   5.768   6.400 -1.1103  0.6766  0.7255
  540MOL0     H72839   1.349   6.005   6.268 -1.0787  1.2850 -0.7341
  540MOL0     H72840   1.178   5.978   6.305  0.0310  3.4121  1.2550
  540MOL0     H72841   1.393   5.982   6.528  0.0946 -1.0691  1.9084
  540MOL0     H72842   1.274   6.105   6.475  2.6102  0.0987 -2.1777
  540MOL0     H72843   1.114   5.898   6.523  0.4205  1.2507 -1.9297
  540MOL0     H72844   1.254   5.819   6.600  0.2873  1.2607  1.1109
  540MOL0     H72845   1.274   5.958   6.772 -0.3409 -0.4046 -1.6257
  540MOL0     H72846   1.187   6.090   6.687  1.3343 -0.0987 -2.2915
  540MOL0     H72847   0.980   5.989   6.754  1.2848 -2.0264 -0.9118
  540MOL0     H72848   1.052   5.827   6.782  2.2399 -0.5881 -3.0564
  540MOL0     H72849   1.120   6.068   6.940  0.9587  0.3555 -0.6648
  540MOL0     H72850   1.144   5.890   6.981 -1.6056 -2.3414 -1.1463
  540MOL0     H72851   0.976   5.805   7.167 -3.9231 -2.9507 -0.3711
  540MOL0     H72852   0.720   5.743   7.205 -0.7224 -1.4999  2.5399
  540MOL0     H72853   0.774   5.846   7.343  0.4477 -0.7577 -0.2819
  540MOL0     H72854   0.509   5.809   7.290 -0.4831 -1.1528 -1.5315
  540MOL0     H72855   0.544   5.921   7.164  0.4370 -0.1324 -1.2966
  540MOL0     H72856   0.611   6.092   7.329 -0.7781  1.0778  2.2053
  540MOL0     H72857   0.608   5.967   7.463  2.4954 -1.7924 -1.3290
  540MOL0     H72858   0.364   6.074   7.301  0.6274  1.1950  0.2359
  540MOL0     H72859   0.429   6.129   7.464  0.9632 -0.0543 -0.1683
  540MOL0     H72860   0.194   6.180   7.518 -2.9367  0.9032  0.2202
  540MOL0     H72861   0.018   6.299   7.588 -0.5701  0.4240 -0.5666
  540MOL0     H72862  -0.120   6.219   7.639  0.3822 -2.0862 -2.7032
  540MOL0     H72863   0.004   6.248   7.757 -0.7717  0.8187  0.5005
  540MOL0     H72864  -0.193   5.816   8.005 -3.8822 -2.1290  2.2989
  540MOL0     H72865  -0.370   5.804   8.174  0.0104 -1.5451 -1.5677
  540MOL0     H72866  -0.632   5.908   8.138  0.8322 -1.8973 -0.5898
  540MOL0     H72867  -0.558   5.806   8.262  4.7930  1.4699 -0.7049
  540MOL0     H72868  -0.781   5.875   8.354 -0.9880  2.3926 -0.1627
  540MOL0     H72869  -0.664   5.947   8.439  1.0766 -0.7803  0.4341
  540MOL0     H72870  -0.872   6.075   8.378 -1.1590  0.4961 -1.3187
  540MOL0     H72871  -0.844   6.077   8.211 -1.2539 -2.2673  0.6985
  540MOL0     H72872  -0.643   6.200   8.401  0.5649 -3.1954 -0.7735
  540MOL0     H72873  -0.639   6.219   8.228 -4.5260  1.8575 -3.1576
  540MOL0     H72874  -0.891   6.317   8.367 -0.8103  2.3673  0.9681
  540MOL0     H72875  -0.838   6.314   8.196 -2.5077 -4.0497  0.8576
  540MOL0     H72876  -0.674   6.477   8.236 -0.7666 -0.5965 -0.9417
  540MOL0     H72877  -0.821   6.535   8.316 -2.0407 -0.9454 -0.3451
  540MOL0     H72878  -0.575   6.413   8.453  2.4246  3.2058  2.8319
  540MOL0     H72879  -0.721   6.435   8.544 -0.2870 -0.0635  0.4630
  540MOL0     H72880  -0.560   6.659   8.403  0.4130 -2.7035 -0.9225
  540MOL0     H72881  -0.539   6.621   8.576 -0.9266  2.1672  0.6973
  540MOL0     H72882  -0.413   6.238   8.145  0.2517  0.3681  1.9866
  540MOL0     H72883  -0.256   6.241   7.965  1.3155  0.8154  1.4386
  540MOL0     H72884   0.022   5.736   7.667  2.1505  0.6278 -0.3869
  540MOL0     H72885   0.224   5.749   7.532  1.6638  1.0397 -0.2383
  540MOL0     H72886   1.527   6.080   6.188  1.4283 -1.5469  1.1518
  540MOL0     H72887   1.596   6.232   5.986  3.0323  0.5445 -1.7264
  540MOL0     H72888   1.946   6.101   5.476 -1.6202 -1.5744 -1.3788
  540MOL0     H72889   2.017   6.269   5.316 -0.1823  0.1691 -0.9642
  540MOL0     H72890   1.953   6.539   5.067 -0.6100  0.0103 -0.9526
  540MOL0     H72891   2.001   6.383   5.113 -0.8882 -2.1035  1.8420
  540MOL0     H72892   1.705   6.452   5.121  0.8654  0.3623 -0.2347
  540MOL0     H72893   1.774   6.290   5.136  0.3992 -1.5299 -1.9899
  540MOL0     H72894   1.714   6.287   4.904 -3.4317  3.4631 -1.0785
  540MOL0     H72895   1.883   6.322   4.905  1.2325  1.9838 -0.3260
  540MOL0     H72896   1.760   6.471   4.745 -3.5617 -2.3525  0.5075
  540MOL0     H72897   1.828   6.572   4.885 -2.8457  2.8900  2.5178
  540MOL0     H72898   1.430   6.675   4.920 -0.7362  1.0828 -1.3730
  540MOL0     H72899   1.730   6.541   5.450 -0.9837 -1.7176 -2.1542
  540MOL0     H72900   1.655   6.386   5.630  0.9467  0.3988  0.2600
  541MOL0     O72901   6.891   4.201   6.842  0.3661 -0.0989 -0.9380
  541MOL0     C72902   6.973   4.284   6.874 -0.0602  0.3060 -0.9616
  541MOL0     O72903   7.038   4.288   6.995 -0.7340  0.4178 -0.1068
  541MOL0     C72904   6.990   4.211   7.099  0.7708 -0.3855  0.3244
  541MOL0     C72905   6.845   4.206   7.115 -0.4449 -0.3480 -0.0534
  541MOL0     C72906   6.800   4.130   7.226  0.8030  0.0078  0.2487
  541MOL0     C72907   6.886   4.063   7.306 -0.2028 -0.0564  0.1460
  541MOL0     O72908   6.821   3.999   7.409  0.0195  0.2311  0.8009
  541MOL0     C72909   6.822   3.855   7.410  0.7804 -0.3060  0.3299
  541MOL0     C72910   6.731   3.788   7.512  0.2064 -0.9318  0.0142
  541MOL0     C72911   6.590   3.838   7.514  0.9968  0.1163 -0.4078
  541MOL0     C72912   6.481   3.733   7.480  0.8030  0.0457 -0.4943
  541MOL0     C72913   6.349   3.792   7.437  0.1445 -0.4312 -0.5440
  541MOL0     C72914   6.246   3.822   7.539 -0.1415 -0.9351  0.2847
  541MOL0     C72915   6.109   3.831   7.475  0.0711 -0.5171 -0.0571
  541MOL0     C72916   6.005   3.814   7.579  0.5318 -0.4927 -0.0792
  541MOL0     N72917   5.889   3.766   7.512  0.8977 -0.0152 -0.6929
  541MOL0     C72918   5.813   3.822   7.412  0.6013 -0.1178 -0.2354
  541MOL0     C72919   5.730   3.721   7.372  0.8703 -0.2884 -0.2034
  541MOL0     C72920   5.638   3.726   7.243  0.1458 -0.2513 -0.6386
  541MOL0     C72921   5.720   3.668   7.127 -0.3937  0.1714 -0.7374
  541MOL0     C72922   5.738   3.514   7.127 -0.0308 -0.6607 -0.4267
  541MOL0     C72923   5.875   3.475   7.080 -0.3354 -0.5323 -0.6032
  541MOL0     O72924   5.875   3.505   6.943 -0.1439 -0.2314 -0.1183
  541MOL0     C72925   5.990   3.479   6.872 -0.3007 -0.5187 -1.4714
  541MOL0     C72926   6.117   3.461   6.922  0.6012 -0.3472  0.6649
  541MOL0     C72927   6.228   3.439   6.842 -0.7534  0.3072 -0.3844
  541MOL0     C72928   6.357   3.428   6.914 -0.0293 -0.7705 -0.4463
  541MOL0     C72929   6.217   3.439   6.707  0.3145 -0.2347  0.8240
  541MOL0     C72930   6.333   3.432   6.606  0.4942 -0.0716 -0.7103
  541MOL0     O72931   6.292   3.409   6.477  0.3194  0.1965  0.2722
  541MOL0     C72932   6.387   3.421   6.380  0.3420  1.1043 -0.5667
  541MOL0     C72933   6.396   3.540   6.306 -0.5273 -0.0587 -0.0057
  541MOL0     C72934   6.477   3.543   6.190 -0.5651  0.1509 -0.3796
  541MOL0     C72935   6.562   3.436   6.166 -0.7679  0.4843  0.2433
  541MOL0     O72936   6.663   3.446   6.070 -0.4958  0.5608  0.0989
  541MOL0     C72937   6.760   3.343   6.030  0.9750 -0.7897 -0.5190
  541MOL0     C72938   6.868   3.406   5.936  0.0470  0.4770  0.5520
  541MOL0     C72939   6.979   3.310   5.898 -0.4350  0.6849 -0.3339
  541MOL0     C72940   6.921   3.190   5.812  0.0889  0.4496 -1.0386
  541MOL0     C72941   6.992   3.050   5.838 -0.0019 -0.4180 -0.0866
  541MOL0     C72942   6.953   2.939   5.744 -0.0469  0.2877  0.0208
  541MOL0     C72943   6.809   2.892   5.754  0.7504 -0.4313 -0.8216
  541MOL0     C72944   6.744   2.884   5.893  0.6321 -0.6773 -0.2033
  541MOL0    Cl72945   6.845   2.775   5.991 -0.1905  0.2107  0.4861
  541MOL0     C72946   6.555   3.320   6.242 -1.0087  1.2818 -0.4511
  541MOL0     C72947   6.465   3.304   6.351  0.4812  0.4030  0.5311
  541MOL0     O72948   6.447   3.441   6.645 -0.5233  0.5657 -0.2542
  541MOL0     C72949   6.091   3.462   6.650  0.9372  0.0897 -0.2398
  541MOL0     C72950   5.977   3.484   6.737  0.1773 -0.0354 -0.5005
  541MOL0     N72951   5.756   3.608   7.449  0.4560 -0.0913  0.4923
  541MOL0     N72952   5.858   3.631   7.527  0.0192 -0.2790  0.2775
  541MOL0     C72953   7.025   4.062   7.283 -0.4913 -0.0646 -0.2356
  541MOL0     C72954   7.072   4.130   7.177  0.0743  0.3179 -0.8451
  541MOL0     C72955   6.997   4.392   6.786 -1.3150  0.9254 -0.2250
  541MOL0     C72956   7.087   4.492   6.818  0.1602 -0.3083 -0.1421
  541MOL0     C72957   7.121   4.590   6.725  0.7406  0.5393  0.6288
  541MOL0     C72958   7.058   4.605   6.600 -0.5105  0.4435  0.1343
  541MOL0     O72959   7.112   4.695   6.517  0.8323 -0.8914  0.1357
  541MOL0     C72960   7.083   4.686   6.374 -0.1590  0.1378  0.0434
  541MOL0     C72961   7.170   4.576   6.309  0.3380 -1.0916 -0.0256
  541MOL0     C72962   7.324   4.594   6.329 -0.2297  0.6123 -0.2837
  541MOL0     C72963   7.430   4.513   6.240  0.7001 -0.4343 -0.4229
  541MOL0     C72964   7.404   4.370   6.221  0.2067  1.5229  0.0358
  541MOL0     C72965   7.398   4.248   6.208  0.2118 -0.7514 -0.6576
  541MOL0     C72966   6.946   4.508   6.576 -0.0127  0.8279  0.3507
  541MOL0     C72967   6.920   4.405   6.670  0.1986 -0.5256  0.6269
  541MOL0     H72968   6.777   4.260   7.050 -1.9495 -2.2811 -0.1462
  541MOL0     H72969   6.693   4.138   7.243  0.4459 -1.1458 -1.2414
  541MOL0     H72970   6.785   3.817   7.314  0.3872 -0.3722  0.5078
  541MOL0     H72971   6.925   3.821   7.425  1.4203  1.7099  0.8194
  541MOL0     H72972   6.739   3.679   7.506  1.8781 -0.8267 -0.1721
  541MOL0     H72973   6.785   3.820   7.601 -0.3256  2.0014 -0.6151
  541MOL0     H72974   6.580   3.886   7.612  3.5405  1.8172 -0.8825
  541MOL0     H72975   6.577   3.927   7.450  1.0982  0.2551 -0.2348
  541MOL0     H72976   6.526   3.674   7.400 -1.0338 -1.9752 -0.1200
  541MOL0     H72977   6.466   3.665   7.564 -1.3489  2.1298  0.9342
  541MOL0     H72978   6.375   3.884   7.384  1.5003 -0.1430  0.5597
  541MOL0     H72979   6.327   3.719   7.359  1.5621 -0.8532 -0.5685
  541MOL0     H72980   6.245   3.743   7.614  1.4243  1.1214  2.6099
  541MOL0     H72981   6.275   3.915   7.589  0.6410 -0.9446 -0.1328
  541MOL0     H72982   6.103   3.927   7.423 -1.3416 -0.2264  0.6117
  541MOL0     H72983   6.103   3.746   7.407  1.0416 -1.5660  1.1079
  541MOL0     H72984   5.992   3.904   7.639 -1.7596  0.8495 -2.3730
  541MOL0     H72985   6.037   3.737   7.651 -1.1608  2.5586  4.3825
  541MOL0     H72986   5.837   3.916   7.363  2.0052 -0.2913  0.0925
  541MOL0     H72987   5.544   3.674   7.256  0.5733 -0.7456  0.6369
  541MOL0     H72988   5.621   3.830   7.212 -0.1356 -0.6327 -1.7817
  541MOL0     H72989   5.824   3.701   7.141  0.3595 -1.7400 -1.4152
  541MOL0     H72990   5.686   3.697   7.027 -2.1990  3.2854  0.6553
  541MOL0     H72991   5.652   3.473   7.073 -1.9658  1.4471  0.8789
  541MOL0     H72992   5.721   3.482   7.230 -1.1769 -0.2124 -0.4600
  541MOL0     H72993   5.896   3.368   7.082 -0.7543 -0.6218 -0.8978
  541MOL0     H72994   5.953   3.524   7.139 -0.9719 -2.2356  1.7510
  541MOL0     H72995   6.128   3.470   7.030 -1.5597  0.5630  0.8551
  541MOL0     H72996   6.407   3.523   6.891 -2.3083 -0.3632 -4.7637
  541MOL0     H72997   6.360   3.406   7.021 -0.4969 -0.2336 -0.3153
  541MOL0     H72998   6.414   3.353   6.858 -0.0013 -0.2947 -1.0698
  541MOL0     H72999   6.325   3.614   6.342 -0.5533 -1.5389  3.2547
  541MOL0     H73000   6.475   3.633   6.130 -1.4852  1.5838  1.6558
  541MOL0     H73001   6.806   3.314   6.125 -0.6456 -0.8796  0.2761
  541MOL0     H73002   6.700   3.262   5.987 -0.0379 -0.6076  0.5034
  541MOL0     H73003   6.822   3.435   5.841 -0.6507 -3.8422 -0.6450
  541MOL0     H73004   6.903   3.495   5.988 -1.5777  0.2510  2.1222
  541MOL0     H73005   7.027   3.280   5.992  0.6017 -0.7860 -1.2932
  541MOL0     H73006   7.070   3.357   5.860  2.2239 -0.9531  3.3597
  541MOL0     H73007   6.813   3.193   5.830  0.4642  5.1480  2.1652
  541MOL0     H73008   6.941   3.205   5.705  2.3170 -1.0551 -0.8912
  541MOL0     H73009   6.969   3.011   5.937 -3.6311 -1.2853 -1.1125
  541MOL0     H73010   7.098   3.077   5.840  0.3467 -1.7580  1.1519
  541MOL0     H73011   6.972   2.986   5.647  2.4259  0.9208  0.7364
  541MOL0     H73012   7.013   2.851   5.769 -0.2297  0.5445  1.4842
  541MOL0     H73013   6.799   2.792   5.711 -0.2027 -0.6986 -0.0093
  541MOL0     H73014   6.753   2.963   5.693  1.6117  0.8308 -0.1999
  541MOL0     H73015   6.645   2.845   5.866  0.9568 -1.9276  0.3159
  541MOL0     H73016   6.740   2.980   5.943  1.9759 -0.7100  0.0005
  541MOL0     H73017   6.633   3.244   6.236 -1.3305  1.0495 -2.2096
  541MOL0     H73018   6.462   3.216   6.414  0.7061  0.7838  1.0762
  541MOL0     H73019   6.074   3.471   6.543 -1.1898 -2.4090 -0.2168
  541MOL0     H73020   5.878   3.498   6.695  0.2836  0.9210 -0.4506
  541MOL0     H73021   7.081   3.990   7.342  3.7766  1.5029 -2.0235
  541MOL0     H73022   7.179   4.130   7.157 -0.2155 -1.1176 -2.6239
  541MOL0     H73023   7.149   4.492   6.907 -0.1839  0.0595  0.0964
  541MOL0     H73024   7.203   4.660   6.734  0.3057  1.0242  0.8837
  541MOL0     H73025   6.976   4.676   6.354 -0.5017  2.7273  0.1843
  541MOL0     H73026   7.117   4.784   6.338  1.7624 -0.0024  1.3081
  541MOL0     H73027   7.156   4.584   6.201  1.9444 -0.8685 -0.2348
  541MOL0     H73028   7.152   4.473   6.342 -0.9200 -0.8427  0.1265
  541MOL0     H73029   7.337   4.557   6.432 -5.5551 -2.5431 -0.3769
  541MOL0     H73030   7.346   4.701   6.321  0.5654  0.5236  0.4892
  541MOL0     H73031   7.526   4.518   6.293  0.9412  0.8833 -0.9367
  541MOL0     H73032   7.438   4.558   6.141  2.2139  0.6358  0.1587
  541MOL0     H73033   7.391   4.141   6.202 -1.6247 -0.6397 -1.0288
  541MOL0     H73034   6.882   4.528   6.491 -0.8125  1.7545  1.1405
  541MOL0     H73035   6.837   4.336   6.655 -0.6123  0.4862  0.3990
  542MOL0     O73036  10.403   7.515   6.170 -0.0665  1.5823 -0.4027
  542MOL0     C73037  10.497   7.510   6.249  0.1578 -0.3330 -0.2714
  542MOL0     O73038  10.526   7.604   6.343 -0.4995  0.1767  0.6856
  542MOL0     C73039  10.470   7.725   6.339  0.1925 -0.0118 -0.7157
  542MOL0     C73040  10.404   7.774   6.450 -0.1207  0.6102  0.2301
  542MOL0     C73041  10.372   7.910   6.474  0.6023 -0.0504  0.7958
  542MOL0     C73042  10.402   8.003   6.368 -0.4202  0.0300  0.8794
  542MOL0     O73043  10.369   8.129   6.404 -0.3442 -0.1096 -0.9591
  542MOL0     C73044  10.322   8.209   6.296  0.2292 -0.6389 -0.2704
  542MOL0     C73045  10.250   8.334   6.345  0.2035 -0.2964 -0.4945
  542MOL0     C73046  10.243   8.443   6.241  0.9052  0.8229 -0.9876
  542MOL0     C73047  10.150   8.555   6.289  1.0893  0.5470 -0.2213
  542MOL0     C73048  10.169   8.685   6.203 -1.1323 -0.4578  0.3140
  542MOL0     C73049  10.100   8.798   6.279  0.7542 -1.6293 -1.3019
  542MOL0     C73050  10.104   8.932   6.197 -0.2092  0.9677  0.2211
  542MOL0     C73051  10.024   8.915   6.068  0.2740  0.1913  0.2402
  542MOL0     N73052   9.881   8.882   6.081  0.0815  0.2973  0.5306
  542MOL0     C73053   9.788   8.946   6.162  0.2072 -0.7267 -0.5763
  542MOL0     C73054   9.678   8.871   6.174 -0.3194 -0.6478  0.0187
  542MOL0     C73055   9.576   8.886   6.281 -0.1168  0.6998 -0.7534
  542MOL0     C73056   9.450   8.957   6.239 -0.2086  0.3518  0.2699
  542MOL0     C73057   9.350   8.857   6.176 -0.5791 -0.2413 -0.4927
  542MOL0     C73058   9.224   8.930   6.127  1.1751 -0.0258 -0.3011
  542MOL0     O73059   9.193   8.885   5.996  0.4579  0.4559 -0.0268
  542MOL0     C73060   9.074   8.910   5.937  0.2398  0.2052 -0.2523
  542MOL0     C73061   9.070   8.981   5.826 -0.7211  0.2759  0.1238
  542MOL0     C73062   8.957   9.018   5.765  0.4870  0.7618  0.8484
  542MOL0     C73063   8.981   9.109   5.656 -0.3528 -1.1181  0.2445
  542MOL0     C73064   8.837   8.959   5.804  0.7434  0.4624 -0.3031
  542MOL0     C73065   8.708   8.997   5.745 -0.2509 -0.9059  0.2138
  542MOL0     O73066   8.699   9.111   5.673 -0.6256  0.3954 -0.4451
  542MOL0     C73067   8.590   9.152   5.612 -0.2577  0.0713  0.8420
  542MOL0     C73068   8.491   9.222   5.677  0.8609 -0.6105  0.5083
  542MOL0     C73069   8.377   9.276   5.600  0.0568 -0.1388 -0.2984
  542MOL0     C73070   8.372   9.263   5.455 -0.1741  0.7831 -0.2830
  542MOL0     O73071   8.266   9.313   5.376 -0.9473 -0.1118  0.3369
  542MOL0     C73072   8.135   9.325   5.435  0.1047  0.7361  0.3282
  542MOL0     C73073   8.030   9.388   5.346  0.3685  1.5115 -0.5072
  542MOL0     C73074   8.089   9.519   5.297 -1.2948  0.8290 -0.6654
  542MOL0     C73075   7.995   9.589   5.196  0.1892 -0.0422  0.0921
  542MOL0     C73076   8.024   9.731   5.175 -0.8304 -0.0271  0.1240
  542MOL0     C73077   8.094   9.760   5.036  0.3902  0.4103 -0.2794
  542MOL0     C73078   8.148   9.897   5.031 -0.5660  0.3673  0.1359
  542MOL0     C73079   8.294   9.883   4.969  0.2511 -0.0129 -0.0427
  542MOL0    Cl73080   8.414   9.839   5.095  0.0170 -0.0018 -0.4515
  542MOL0     C73081   8.475   9.192   5.400  0.2997  0.7524  1.5814
  542MOL0     C73082   8.580   9.135   5.470  0.3339  0.3369  1.1110
  542MOL0     O73083   8.614   8.927   5.772  0.2681  0.6506 -0.3862
  542MOL0     C73084   8.836   8.860   5.907  0.4856  0.3619  0.3417
  542MOL0     C73085   8.958   8.835   5.969  0.3398 -0.3299 -0.4816
  542MOL0     N73086   9.706   8.768   6.084  0.7745  0.7572 -0.1879
  542MOL0     N73087   9.828   8.766   6.035  0.5471  0.1381 -0.4094
  542MOL0     C73088  10.447   7.958   6.255 -0.4357  0.4568  0.4047
  542MOL0     C73089  10.482   7.818   6.235 -0.0219 -0.4305 -0.2820
  542MOL0     C73090  10.553   7.377   6.287  0.6152 -0.4777 -0.5928
  542MOL0     C73091  10.585   7.334   6.424  0.4511 -1.9064 -0.4350
  542MOL0     C73092  10.599   7.202   6.439 -0.6038 -0.0428  0.2045
  542MOL0     C73093  10.597   7.111   6.330 -0.9085  0.4462  0.4015
  542MOL0     O73094  10.616   6.974   6.358 -0.3542  0.1046  0.2388
  542MOL0     C73095  10.685   6.893   6.258 -0.7000  0.3057  0.0203
  542MOL0     C73096  10.789   6.811   6.328 -0.3201 -0.6359  0.0622
  542MOL0     C73097  10.781   6.798   6.482 -0.5972 -0.1358  0.1998
  542MOL0     C73098  10.834   6.669   6.541  0.3441 -0.4722  0.2177
  542MOL0     C73099  10.753   6.556   6.507 -0.4475  0.6102  0.0663
  542MOL0     C73100  10.681   6.465   6.494 -0.5349 -0.7109  0.1942
  542MOL0     C73101  10.592   7.161   6.199 -0.3385 -0.1732  0.0402
  542MOL0     C73102  10.555   7.292   6.179 -0.8096 -0.2029  0.8132
  542MOL0     H73103  10.372   7.704   6.526 -3.2971  1.4669 -0.1817
  542MOL0     H73104  10.343   7.925   6.577  1.4682 -3.8803  1.7585
  542MOL0     H73105  10.409   8.233   6.234 -0.5098 -1.7880 -1.8286
  542MOL0     H73106  10.251   8.153   6.235 -0.7342 -1.1087  1.2219
  542MOL0     H73107  10.149   8.309   6.377 -0.0243  2.3429  1.1677
  542MOL0     H73108  10.305   8.372   6.432  1.7268  0.4921 -1.7450
  542MOL0     H73109  10.342   8.479   6.210  1.7949 -0.3227  0.3722
  542MOL0     H73110  10.193   8.408   6.150 -3.0745  0.0619  1.2625
  542MOL0     H73111  10.045   8.531   6.270  0.0080  3.1022  1.9473
  542MOL0     H73112  10.163   8.575   6.396 -1.3955  4.1318 -0.4152
  542MOL0     H73113  10.275   8.700   6.183 -1.3805 -0.7184 -1.2524
  542MOL0     H73114  10.119   8.669   6.108  2.4403  0.5022 -1.9124
  542MOL0     H73115   9.994   8.774   6.293  0.7312 -0.7253  0.3485
  542MOL0     H73116  10.154   8.815   6.373 -0.1917 -1.1077 -0.8402
  542MOL0     H73117  10.065   9.018   6.251  0.8789  1.1426  0.7488
  542MOL0     H73118  10.210   8.957   6.186  1.5850 -5.5168 -1.7866
  542MOL0     H73119  10.063   8.838   6.002 -1.4578 -0.9019  0.4234
  542MOL0     H73120  10.038   9.007   6.010  0.6713  0.3913  0.6432
  542MOL0     H73121   9.812   9.038   6.215 -1.5929  0.9681 -2.5461
  542MOL0     H73122   9.552   8.780   6.292  2.8434 -0.0439 -0.4443
  542MOL0     H73123   9.620   8.929   6.371 -2.1327  0.6303  0.3087
  542MOL0     H73124   9.466   9.036   6.165 -0.3988 -0.6685 -0.9022
  542MOL0     H73125   9.407   9.008   6.325 -1.1783 -1.0817  0.6710
  542MOL0     H73126   9.326   8.786   6.257 -0.0383  1.0816  0.8730
  542MOL0     H73127   9.394   8.801   6.094  0.2978 -0.8695  0.3792
  542MOL0     H73128   9.229   9.035   6.155  2.0501  0.0867 -0.8319
  542MOL0     H73129   9.141   8.888   6.184  1.8564 -1.4484 -0.3121
  542MOL0     H73130   9.165   9.014   5.784 -0.8561  0.5957  0.0662
  542MOL0     H73131   8.912   9.194   5.649 -0.2959 -1.1880 -3.2566
  542MOL0     H73132   9.079   9.158   5.666 -1.1992  0.5119  0.9504
  542MOL0     H73133   8.992   9.051   5.564  0.3586 -1.5219  0.5746
  542MOL0     H73134   8.480   9.218   5.785 -0.1404 -1.9703  0.3713
  542MOL0     H73135   8.290   9.317   5.650  2.8983  3.3711  2.3126
  542MOL0     H73136   8.094   9.229   5.468  0.0065  1.2019  1.6278
  542MOL0     H73137   8.138   9.391   5.523  1.5196 -1.0077  1.6577
  542MOL0     H73138   7.993   9.319   5.270 -0.6467  2.0390 -0.5148
  542MOL0     H73139   7.936   9.415   5.396 -2.7170 -1.7739 -3.9384
  542MOL0     H73140   8.177   9.490   5.239  1.2310 -1.4709  3.8238
  542MOL0     H73141   8.123   9.578   5.382  0.5640 -1.0135 -0.0322
  542MOL0     H73142   7.983   9.533   5.102 -1.5289 -0.8731  0.7613
  542MOL0     H73143   7.893   9.588   5.234 -0.0032  4.5250  0.2186
  542MOL0     H73144   8.081   9.769   5.260  1.7198 -0.3057 -1.3646
  542MOL0     H73145   7.937   9.798   5.180  0.3825  1.5678  0.8191
  542MOL0     H73146   8.163   9.678   5.016  0.0774 -0.4232  1.7975
  542MOL0     H73147   8.007   9.757   4.970  0.4097 -0.4258 -0.2692
  542MOL0     H73148   8.149   9.942   5.131 -2.2137  0.7443  0.0074
  542MOL0     H73149   8.095   9.967   4.965  0.9793  2.1819  0.7269
  542MOL0     H73150   8.316   9.982   4.928 -3.7838  0.7335 -0.8326
  542MOL0     H73151   8.303   9.812   4.887  2.1653  0.6999 -0.5002
  542MOL0     H73152   8.467   9.183   5.292 -3.3890  0.6451  1.7218
  542MOL0     H73153   8.664   9.084   5.424 -1.1837 -0.4158 -0.9623
  542MOL0     H73154   8.743   8.827   5.953 -1.5810 -0.0201 -3.6222
  542MOL0     H73155   8.963   8.774   6.058  0.5446  0.9522  0.4272
  542MOL0     H73156  10.477   8.027   6.176 -0.2122 -1.6961 -1.4796
  542MOL0     H73157  10.536   7.807   6.141 -1.6429 -0.3861 -1.2498
  542MOL0     H73158  10.583   7.398   6.512 -1.1967 -4.0866  1.2367
  542MOL0     H73159  10.623   7.162   6.538 -2.0175 -0.3360  0.4488
  542MOL0     H73160  10.612   6.835   6.202 -0.9211 -3.2178  3.5090
  542MOL0     H73161  10.744   6.952   6.187  1.7757 -0.7540  1.0741
  542MOL0     H73162  10.889   6.853   6.316 -0.4074  1.6631  5.1208
  542MOL0     H73163  10.780   6.717   6.272 -1.1474 -0.9313  0.6702
  542MOL0     H73164  10.678   6.810   6.516 -0.9938 -0.1238 -0.9540
  542MOL0     H73165  10.847   6.871   6.532 -1.6374  1.0016 -0.0347
  542MOL0     H73166  10.846   6.660   6.649 -3.3971 -1.8171  0.6527
  542MOL0     H73167  10.933   6.644   6.501  0.6791  0.1603  0.6163
  542MOL0     H73168  10.622   6.377   6.479 -1.9179 -0.0255  1.4379
  542MOL0     H73169  10.584   7.086   6.121 -2.6808  0.7776 -0.7059
  542MOL0     H73170  10.538   7.322   6.076  0.5083 -1.0985  0.2966
  543MOL0     O73171   7.808   1.945   9.389 -0.0463  0.2676 -0.0879
  543MOL0     C73172   7.827   1.999   9.500 -0.8515 -0.2621 -0.2983
  543MOL0     O73173   7.785   1.960   9.622 -0.5262  0.1086  0.3531
  543MOL0     C73174   7.697   1.863   9.625  0.4599  0.2651  0.0531
  543MOL0     C73175   7.727   1.737   9.684 -0.6266 -0.1088 -0.6583
  543MOL0     C73176   7.635   1.631   9.686  0.0232 -0.4233  0.2682
  543MOL0     C73177   7.509   1.648   9.638  1.0713  0.7028 -0.5599
  543MOL0     O73178   7.402   1.563   9.646  0.2448 -0.2142  0.0195
  543MOL0     C73179   7.429   1.434   9.588  0.3557  0.0403 -0.1133
  543MOL0     C73180   7.293   1.376   9.587 -0.3514  0.5237  0.0924
  543MOL0     C73181   7.288   1.220   9.548  0.3549 -0.6733 -0.4805
  543MOL0     C73182   7.142   1.180   9.537  0.3207  0.7186 -0.1326
  543MOL0     C73183   7.116   1.037   9.484 -0.1483 -0.2492  0.2152
  543MOL0     C73184   7.122   0.926   9.587 -0.5253  0.6237  0.4423
  543MOL0     C73185   7.006   0.923   9.695  0.4172 -0.1356  0.4309
  543MOL0     C73186   6.888   0.829   9.649 -0.0782 -0.0321  0.1548
  543MOL0     N73187   6.794   0.809   9.747  1.1522 -0.7272 -0.7976
  543MOL0     C73188   6.739   0.914   9.829  0.4565 -0.5345 -0.6520
  543MOL0     C73189   6.658   0.845   9.915 -0.4984 -0.3143 -0.1044
  543MOL0     C73190   6.570   0.910  10.024  1.0755 -0.1180  0.2298
  543MOL0     C73191   6.494   1.032   9.980 -0.4192 -1.0474  0.0030
  543MOL0     C73192   6.438   1.098  10.108  0.2724 -0.0357 -0.2446
  543MOL0     C73193   6.286   1.108  10.106 -0.3743 -0.1256 -0.4908
  543MOL0     O73194   6.236   1.151   9.970  0.4175  0.7344 -0.4864
  543MOL0     C73195   6.102   1.165   9.951  0.0770  0.9391  0.4517
  543MOL0     C73196   6.076   1.228   9.828 -0.0968 -0.0682 -0.9961
  543MOL0     C73197   5.944   1.259   9.794  0.5974  0.3792 -0.5311
  543MOL0     C73198   5.928   1.341   9.670  0.0880  0.0427  0.8340
  543MOL0     C73199   5.831   1.211   9.877  0.2305 -1.0184 -0.8483
  543MOL0     C73200   5.693   1.252   9.859  0.1708  0.8563  0.0036
  543MOL0     O73201   5.604   1.184   9.934 -0.3788 -0.0151  0.0389
  543MOL0     C73202   5.473   1.213   9.920  1.1287 -0.3287  0.4470
  543MOL0     C73203   5.404   1.213   9.801 -0.2869 -0.5971 -0.0298
  543MOL0     C73204   5.271   1.239   9.794 -0.0342 -0.4021  0.7069
  543MOL0     C73205   5.200   1.266   9.908 -0.8056 -0.5192 -0.9171
  543MOL0     O73206   5.065   1.264   9.930  0.1564  0.1623 -0.2076
  543MOL0     C73207   4.996   1.175   9.848 -0.0380  0.0828  0.0823
  543MOL0     C73208   4.872   1.146   9.922 -0.3716  0.8808 -0.1333
  543MOL0     C73209   4.769   1.078   9.841  1.0547  0.0565 -1.1583
  543MOL0     C73210   4.650   1.039   9.943  0.3814  0.1034 -0.1257
  543MOL0     C73211   4.524   0.995   9.872 -0.0416 -0.2558  0.3136
  543MOL0     C73212   4.441   0.913   9.976 -0.5882 -0.3774  0.3769
  543MOL0     C73213   4.326   0.876   9.885 -0.8432 -0.0609  0.3344
  543MOL0     C73214   4.230   0.784   9.967 -0.2710 -1.0903  0.0024
  543MOL0    Cl73215   4.100   0.886  10.045  0.1711  0.1586  0.1856
  543MOL0     C73216   5.263   1.264  10.030 -0.8929  0.4935 -0.6581
  543MOL0     C73217   5.402   1.243  10.036 -0.0664  0.1729 -0.2744
  543MOL0     O73218   5.664   1.360   9.812  0.2166 -0.3808  0.0216
  543MOL0     C73219   5.867   1.137   9.993  0.0518 -0.1249  0.5899
  543MOL0     C73220   6.005   1.108  10.026  1.1743  0.2905 -1.6151
  543MOL0     N73221   6.681   0.718   9.908  0.2532 -0.5473  0.1574
  543MOL0     N73222   6.762   0.698   9.812 -0.0817  0.2192 -0.2840
  543MOL0     C73223   7.470   1.772   9.591 -0.2276  0.0074  0.2308
  543MOL0     C73224   7.557   1.877   9.574 -0.4378 -0.3965  0.1512
  543MOL0     C73225   7.900   2.128   9.502  0.8596  0.1412 -0.2448
  543MOL0     C73226   8.015   2.144   9.430 -0.2552  0.5708  0.5422
  543MOL0     C73227   8.093   2.264   9.441  0.2331 -0.2464  0.4041
  543MOL0     C73228   8.047   2.367   9.518 -0.1288 -0.3993 -0.1506
  543MOL0     O73229   8.095   2.493   9.539  0.7152  0.0810 -0.3848
  543MOL0     C73230   8.236   2.504   9.532  0.4734  0.7564  0.0787
  543MOL0     C73231   8.301   2.466   9.667  0.3127  0.0371 -1.0460
  543MOL0     C73232   8.294   2.571   9.780 -0.1162 -0.4531 -0.4556
  543MOL0     C73233   8.357   2.524   9.908  0.5907 -0.0628 -0.7319
  543MOL0     C73234   8.273   2.431   9.980  0.1317  0.7285 -0.0083
  543MOL0     C73235   8.192   2.370  10.047  0.9523 -0.6271  0.3484
  543MOL0     C73236   7.927   2.352   9.593  0.0007 -0.3792  0.1754
  543MOL0     C73237   7.860   2.226   9.588 -0.1095  0.1718  0.3650
  543MOL0     H73238   7.824   1.712   9.726 -1.5604 -0.5298  1.3845
  543MOL0     H73239   7.674   1.537   9.723  0.3399 -0.0835  0.8050
  543MOL0     H73240   7.488   1.437   9.496 -0.0071  0.5847 -0.3371
  543MOL0     H73241   7.486   1.379   9.663 -0.1592 -0.9094 -0.4056
  543MOL0     H73242   7.248   1.392   9.686  0.6310 -0.6534  0.7543
  543MOL0     H73243   7.238   1.426   9.507  0.6237 -0.3632 -1.1874
  543MOL0     H73244   7.336   1.218   9.450  0.7944  2.9458 -0.4601
  543MOL0     H73245   7.342   1.167   9.627  0.4870  0.7064  0.3792
  543MOL0     H73246   7.095   1.194   9.634  1.2027 -2.2700  0.8185
  543MOL0     H73247   7.091   1.239   9.459 -0.6126 -0.8780 -0.7677
  543MOL0     H73248   7.015   1.029   9.443 -0.5519  2.0697  0.6346
  543MOL0     H73249   7.189   1.026   9.403  1.6536  0.3353  1.7032
  543MOL0     H73250   7.108   0.837   9.525  0.5416  1.8539 -1.7100
  543MOL0     H73251   7.219   0.933   9.637  0.0274 -0.7748 -0.3617
  543MOL0     H73252   7.046   0.884   9.789 -0.9405  1.8178  1.9165
  543MOL0     H73253   6.967   1.024   9.713  0.4507  0.2312 -1.4102
  543MOL0     H73254   6.934   0.731   9.629 -0.8731 -0.0429 -1.8980
  543MOL0     H73255   6.826   0.861   9.564  0.6120 -3.7789 -1.9906
  543MOL0     H73256   6.751   1.021   9.814  1.4276 -0.6251 -0.6195
  543MOL0     H73257   6.485   0.844  10.044  1.3659  0.0924  2.3484
  543MOL0     H73258   6.638   0.919  10.109  1.0870  2.2431  0.0241
  543MOL0     H73259   6.419   1.003   9.906  0.1517 -1.3937 -0.4484
  543MOL0     H73260   6.558   1.107   9.933 -2.4825  0.9929  0.2502
  543MOL0     H73261   6.479   1.198  10.122  3.1672 -0.9288 -1.5840
  543MOL0     H73262   6.464   1.039  10.197  0.5254 -2.3462 -1.7614
  543MOL0     H73263   6.247   1.178  10.180 -2.5937 -2.9173  1.2005
  543MOL0     H73264   6.249   1.007  10.127 -2.5766  1.0901  2.0517
  543MOL0     H73265   6.161   1.253   9.765 -0.4471 -1.9728 -2.2957
  543MOL0     H73266   5.933   1.448   9.692  0.0517  0.2833 -0.3011
  543MOL0     H73267   6.005   1.315   9.596 -1.9761  1.6132 -2.0566
  543MOL0     H73268   5.834   1.320   9.619  0.8869  1.8889 -1.5771
  543MOL0     H73269   5.452   1.181   9.710 -0.2647 -1.5799  0.3137
  543MOL0     H73270   5.225   1.228   9.696  1.5982  0.9378 -0.2578
  543MOL0     H73271   4.963   1.223   9.756  1.7151  1.5937  0.1758
  543MOL0     H73272   5.045   1.080   9.823 -0.5498  0.4414 -2.4579
  543MOL0     H73273   4.890   1.085  10.011 -0.7315 -0.3933 -0.9114
  543MOL0     H73274   4.827   1.241   9.953 -1.3346  0.0797  1.0290
  543MOL0     H73275   4.804   0.986   9.793  1.3517 -0.6051  0.2742
  543MOL0     H73276   4.733   1.153   9.770  0.7731 -1.7923 -3.0621
  543MOL0     H73277   4.680   0.957  10.010 -2.6703 -0.4030  0.7755
  543MOL0     H73278   4.632   1.121  10.013  1.8042  0.7888 -0.5196
  543MOL0     H73279   4.558   0.941   9.784  3.1304  0.7327  0.8210
  543MOL0     H73280   4.474   1.088   9.844 -0.7003 -1.0172 -1.1731
  543MOL0     H73281   4.494   0.824  10.012  3.4848  1.5897 -0.1409
  543MOL0     H73282   4.424   0.976  10.063 -1.1566 -0.2740  0.1963
  543MOL0     H73283   4.358   0.806   9.807 -0.1236  0.0287  0.5478
  543MOL0     H73284   4.271   0.958   9.837 -0.0668 -1.2181 -2.7804
  543MOL0     H73285   4.283   0.727  10.044 -2.7152 -0.0778  2.6389
  543MOL0     H73286   4.177   0.720   9.897 -1.1301 -2.1092  1.5168
  543MOL0     H73287   5.211   1.274  10.125  0.3587  1.9079 -0.0860
  543MOL0     H73288   5.458   1.255  10.129 -2.7139  1.1609  1.3181
  543MOL0     H73289   5.787   1.095  10.054  1.5168 -1.7410  1.4840
  543MOL0     H73290   6.033   1.044  10.109 -3.9095 -1.1022 -0.6270
  543MOL0     H73291   7.368   1.784   9.555 -0.0784  1.0205  0.1126
  543MOL0     H73292   7.524   1.969   9.527 -1.3520 -0.8908 -0.1954
  543MOL0     H73293   8.050   2.068   9.361  2.9150  2.1629  0.1933
  543MOL0     H73294   8.177   2.277   9.373 -0.1374 -1.6607 -0.3660
  543MOL0     H73295   8.279   2.433   9.461  1.8989  0.9230  0.7427
  543MOL0     H73296   8.266   2.605   9.504  1.5958  0.0079 -1.5778
  543MOL0     H73297   8.408   2.453   9.649  1.2085  3.1420  1.2801
  543MOL0     H73298   8.246   2.380   9.706 -0.7009  0.8167 -0.7288
  543MOL0     H73299   8.193   2.609   9.795 -0.5593 -1.3118 -1.1519
  543MOL0     H73300   8.354   2.657   9.749 -0.6434 -0.3581 -1.2554
  543MOL0     H73301   8.373   2.613   9.970 -0.7117 -1.2310  1.3755
  543MOL0     H73302   8.451   2.473   9.884  0.7620  0.4839 -1.2714
  543MOL0     H73303   8.117   2.324  10.107  0.2168  0.3917  0.2431
  543MOL0     H73304   7.890   2.436   9.651  0.5459 -0.6194  0.8892
  543MOL0     H73305   7.776   2.207   9.654 -0.4890 -1.1717 -0.4656
  544MOL0     O73306   4.504   3.977   8.959  0.3056  0.1493  0.1195
  544MOL0     C73307   4.522   3.943   9.079 -0.1742  0.0678 -0.2316
  544MOL0     O73308   4.419   3.910   9.164 -0.3150 -0.4068  0.0582
  544MOL0     C73309   4.289   3.931   9.125  0.0311 -0.5689  0.3600
  544MOL0     C73310   4.217   4.025   9.194 -1.4707 -0.3114  0.4416
  544MOL0     C73311   4.081   4.043   9.155 -0.5275  0.2041 -0.3252
  544MOL0     C73312   4.021   3.968   9.058 -0.5278  0.1658 -0.5949
  544MOL0     O73313   3.886   3.966   9.039  0.1286  0.2248 -0.6940
  544MOL0     C73314   3.805   4.030   9.143 -0.5173  0.2604  0.4854
  544MOL0     C73315   3.657   4.026   9.106  0.4312 -0.2992 -0.8270
  544MOL0     C73316   3.586   3.889   9.147  0.1887  0.2239 -0.0818
  544MOL0     C73317   3.437   3.906   9.129  1.2200  0.5791  0.1794
  544MOL0     C73318   3.373   3.953   9.267  0.6828  0.0841  0.3736
  544MOL0     C73319   3.219   3.979   9.246  0.1785 -0.2421 -0.5697
  544MOL0     C73320   3.195   4.126   9.202  0.2565 -0.1967 -0.3967
  544MOL0     C73321   3.061   4.192   9.240 -0.4475  0.4222  0.0671
  544MOL0     N73322   3.033   4.179   9.385  0.4635 -0.1239  0.9739
  544MOL0     C73323   3.086   4.250   9.491 -0.4605 -0.1762  0.7646
  544MOL0     C73324   3.040   4.180   9.606  0.3925  0.1107  0.0652
  544MOL0     C73325   3.050   4.199   9.754 -0.2421 -0.6191  0.0409
  544MOL0     C73326   3.180   4.150   9.812 -0.4087 -0.2498 -0.1394
  544MOL0     C73327   3.172   4.162   9.964  0.3606  0.6139  0.7363
  544MOL0     C73328   3.316   4.151  10.022 -0.2219  0.4733 -0.3885
  544MOL0     O73329   3.385   4.030   9.988  0.2468 -0.1999  0.3594
  544MOL0     C73330   3.522   4.019   9.988  0.4327 -0.1179  1.2783
  544MOL0     C73331   3.567   3.892   9.988 -0.0764 -0.6879 -0.0601
  544MOL0     C73332   3.701   3.868   9.998 -0.9133  0.8292  0.2609
  544MOL0     C73333   3.751   3.723   9.987  0.4028 -0.0472 -0.9886
  544MOL0     C73334   3.786   3.976  10.027 -0.5699 -0.3745  0.7213
  544MOL0     C73335   3.930   3.963  10.042  0.1703  1.2315 -0.0594
  544MOL0     O73336   4.004   3.951   9.931 -0.0036 -0.4450  0.6199
  544MOL0     C73337   4.136   3.905   9.955  0.5655  0.5545  0.2422
  544MOL0     C73338   4.170   3.772   9.916 -0.0878  0.2502  0.8039
  544MOL0     C73339   4.306   3.732   9.920  0.3334  0.2515  0.2643
  544MOL0     C73340   4.402   3.819   9.969 -0.5961 -0.2976 -0.5509
  544MOL0     O73341   4.531   3.776   9.958  0.7371 -0.2676  0.0468
  544MOL0     C73342   4.614   3.791  10.077  1.1024  0.0679  0.3925
  544MOL0     C73343   4.716   3.906  10.059 -0.9500 -0.0040  0.1850
  544MOL0     C73344   4.798   3.951  10.187 -0.4733 -0.3881 -0.1938
  544MOL0     C73345   4.881   3.835  10.238  0.3175  0.0515  0.2207
  544MOL0     C73346   4.954   3.875  10.371  0.1083  0.0022 -0.4461
  544MOL0     C73347   5.008   3.756  10.458 -0.5273 -0.1570  0.0188
  544MOL0     C73348   5.061   3.800  10.593  0.1169  0.5816 -0.4200
  544MOL0     C73349   5.101   3.686  10.690  0.7604  0.0340 -0.3003
  544MOL0    Cl73350   5.113   3.787  10.840  0.4240  0.0803  0.0509
  544MOL0     C73351   4.368   3.952  10.010  0.4597  0.6913  0.3549
  544MOL0     C73352   4.232   3.992  10.005 -0.1957  0.2829 -0.5767
  544MOL0     O73353   3.972   3.970  10.152 -0.5997 -0.2292 -0.6963
  544MOL0     C73354   3.746   4.108  10.018 -0.7775 -0.0819 -0.2724
  544MOL0     C73355   3.613   4.125   9.995  0.5310 -0.0554  0.7698
  544MOL0     N73356   2.956   4.078   9.557 -0.6597 -0.0192 -0.0220
  544MOL0     N73357   2.955   4.082   9.434  0.5253  0.5061  0.5077
  544MOL0     C73358   4.099   3.883   8.982 -0.1678 -0.8387 -0.0639
  544MOL0     C73359   4.230   3.851   9.022  0.1118 -0.6395 -0.7289
  544MOL0     C73360   4.666   3.941   9.127 -0.6595  1.0583  0.0776
  544MOL0     C73361   4.705   3.938   9.261  0.7467 -0.2958 -0.3397
  544MOL0     C73362   4.837   3.946   9.307  0.3452 -0.6772 -0.8638
  544MOL0     C73363   4.946   3.956   9.216  0.1746  0.0323  0.0042
  544MOL0     O73364   5.068   3.975   9.282  0.1681  0.4006 -0.2958
  544MOL0     C73365   5.181   3.943   9.208 -0.7454  0.1160  0.2117
  544MOL0     C73366   5.313   3.904   9.278 -0.6780 -0.3115  0.4526
  544MOL0     C73367   5.437   3.945   9.187  0.3889 -0.7751  1.2300
  544MOL0     C73368   5.564   3.969   9.267 -0.3282 -0.0672 -0.2231
  544MOL0     C73369   5.622   3.836   9.298 -0.2958 -0.9836 -0.8958
  544MOL0     C73370   5.667   3.724   9.318 -0.2167 -0.3552 -0.5748
  544MOL0     C73371   4.914   3.954   9.081  1.0192 -0.1676 -0.9315
  544MOL0     C73372   4.780   3.940   9.030  0.2940  0.5963 -0.6520
  544MOL0     H73373   4.261   4.099   9.260  0.3603  0.2194 -1.2724
  544MOL0     H73374   4.023   4.109   9.219 -0.0029  0.1679  0.2040
  544MOL0     H73375   3.834   3.984   9.239  1.7200  1.1838  0.3011
  544MOL0     H73376   3.817   4.138   9.153 -4.3298  0.7844  1.1509
  544MOL0     H73377   3.603   4.105   9.158 -0.5618 -0.8365 -1.0168
  544MOL0     H73378   3.646   4.049   8.999 -0.7672 -1.9967 -1.1122
  544MOL0     H73379   3.634   3.818   9.080  3.8258 -0.5795  3.0415
  544MOL0     H73380   3.616   3.853   9.246  3.0900 -0.5370 -1.1412
  544MOL0     H73381   3.416   3.982   9.053  1.6171 -0.6025 -1.1501
  544MOL0     H73382   3.388   3.815   9.093  0.4169  0.1602  2.2169
  544MOL0     H73383   3.397   3.871   9.336  2.0722  1.0757  1.1209
  544MOL0     H73384   3.426   4.034   9.316  1.4806 -0.3406  0.2216
  544MOL0     H73385   3.191   3.909   9.167  2.3902 -1.8930  0.0116
  544MOL0     H73386   3.174   3.942   9.339 -1.7891  2.8450 -0.1087
  544MOL0     H73387   3.260   4.179   9.272 -1.5412  0.5569  0.7822
  544MOL0     H73388   3.214   4.138   9.095 -1.0341 -0.1645 -0.6408
  544MOL0     H73389   2.979   4.152   9.180 -2.3800  4.5411 -0.4176
  544MOL0     H73390   3.058   4.298   9.212 -1.9963  0.4895  0.4269
  544MOL0     H73391   3.150   4.337   9.480 -0.8657 -0.1715 -2.4255
  544MOL0     H73392   3.026   4.304   9.776 -1.4074 -0.4883 -1.6475
  544MOL0     H73393   2.969   4.143   9.801 -1.4914  0.1564 -1.1054
  544MOL0     H73394   3.260   4.217   9.779 -1.8532  0.2333 -2.9634
  544MOL0     H73395   3.197   4.045   9.788 -0.4346 -0.5131  0.9432
  544MOL0     H73396   3.103   4.091  10.010  0.3099 -1.8286 -2.6754
  544MOL0     H73397   3.142   4.262   9.996  0.9752  1.3313 -0.8148
  544MOL0     H73398   3.304   4.152  10.131 -1.8724  0.9191 -0.5627
  544MOL0     H73399   3.363   4.244   9.990 -0.9141  0.2008 -2.2891
  544MOL0     H73400   3.483   3.829   9.962 -2.5662  1.8193  1.3986
  544MOL0     H73401   3.824   3.704  10.067  0.3290 -0.3558 -0.9966
  544MOL0     H73402   3.672   3.648   9.993  0.0993  0.3697  1.5398
  544MOL0     H73403   3.810   3.721   9.895 -1.5727 -1.0178 -2.2989
  544MOL0     H73404   4.092   3.708   9.876  1.4949 -0.3719 -1.5751
  544MOL0     H73405   4.333   3.631   9.892  0.5301  0.9020 -2.0447
  544MOL0     H73406   4.570   3.797  10.177 -0.0654  4.4811 -0.1590
  544MOL0     H73407   4.676   3.701  10.079  1.0549  0.0205  2.6658
  544MOL0     H73408   4.785   3.862   9.986  0.9839  0.8567  1.4287
  544MOL0     H73409   4.670   3.996  10.018 -0.6429  0.5908  1.1181
  544MOL0     H73410   4.723   3.988  10.258 -0.3564  3.1579 -1.7034
  544MOL0     H73411   4.856   4.037  10.152 -0.1220 -0.2618  0.6794
  544MOL0     H73412   4.811   3.751  10.246 -0.7395  0.7681 -1.2442
  544MOL0     H73413   4.952   3.790  10.167  0.1062  0.7369 -0.4287
  544MOL0     H73414   4.882   3.914  10.443 -1.4362 -1.6470 -1.0276
  544MOL0     H73415   5.029   3.953  10.353 -1.3391  1.1734 -1.5558
  544MOL0     H73416   4.924   3.687  10.470 -0.7079 -0.0826 -0.7434
  544MOL0     H73417   5.086   3.706  10.400  1.0846  1.2280  0.8985
  544MOL0     H73418   4.993   3.870  10.643  2.7989  2.2710  1.1466
  544MOL0     H73419   5.148   3.865  10.577 -1.0673  1.6813 -3.0550
  544MOL0     H73420   5.196   3.645  10.654  0.5862 -1.0026  0.3725
  544MOL0     H73421   5.022   3.614  10.715 -0.2017  1.1197 -0.1336
  544MOL0     H73422   4.457   4.008  10.039  3.1709 -2.1033 -1.8186
  544MOL0     H73423   4.192   4.086  10.040 -1.5071 -1.2988  2.5310
  544MOL0     H73424   3.823   4.182  10.038  0.9317 -1.9052  0.3628
  544MOL0     H73425   3.570   4.225  10.000  0.5275 -0.0467  0.5896
  544MOL0     H73426   4.061   3.820   8.902  1.3339 -0.4416 -1.1536
  544MOL0     H73427   4.277   3.767   8.972 -2.6501 -2.9036  0.1504
  544MOL0     H73428   4.624   3.930   9.333  1.9885  1.9012  1.4179
  544MOL0     H73429   4.861   3.969   9.411  0.8575 -0.1357 -1.0989
  544MOL0     H73430   5.160   3.860   9.140  0.6917  0.2116 -0.3943
  544MOL0     H73431   5.188   4.028   9.138 -1.7058 -0.0508 -0.0954
  544MOL0     H73432   5.315   3.795   9.288 -2.3053 -0.6714 -2.1090
  544MOL0     H73433   5.317   3.968   9.366  0.8485  1.2578 -0.6971
  544MOL0     H73434   5.414   4.037   9.134  0.3135 -0.1238  2.3756
  544MOL0     H73435   5.446   3.861   9.118 -1.3370 -0.5307  0.6689
  544MOL0     H73436   5.559   4.043   9.347  1.8359 -0.2751  0.1594
  544MOL0     H73437   5.634   4.021   9.201 -1.2640  0.2496 -0.9995
  544MOL0     H73438   5.703   3.626   9.342  0.0480  0.2173  1.6030
  544MOL0     H73439   4.994   3.953   9.007  1.0725 -0.8422 -0.8730
  544MOL0     H73440   4.748   3.915   8.929 -2.6702 -1.5714  0.6912
  545MOL0     O73441   9.256   4.541   9.755  0.4677 -0.0839 -0.5399
  545MOL0     C73442   9.257   4.439   9.815  0.3553 -0.4195  0.0754
  545MOL0     O73443   9.142   4.367   9.852  0.4009  0.0578 -0.2110
  545MOL0     C73444   9.017   4.416   9.815  0.3537 -0.5099 -0.2774
  545MOL0     C73445   8.985   4.434   9.680  1.2777 -0.1051  0.9057
  545MOL0     C73446   8.860   4.479   9.645 -0.3810 -0.1247  0.2081
  545MOL0     C73447   8.751   4.480   9.740 -0.1327 -1.3647 -0.4593
  545MOL0     O73448   8.624   4.527   9.704  0.3662 -0.0123 -0.6375
  545MOL0     C73449   8.560   4.430   9.616  0.5607 -0.5371  0.0640
  545MOL0     C73450   8.402   4.449   9.621 -0.3125  0.3045 -0.3917
  545MOL0     C73451   8.346   4.588   9.604 -0.1937  0.1279 -0.3015
  545MOL0     C73452   8.363   4.644   9.457 -0.8123 -0.4637 -0.2782
  545MOL0     C73453   8.314   4.551   9.345 -0.6203  0.6270 -0.0370
  545MOL0     C73454   8.261   4.623   9.224  0.0890  0.2619  0.4428
  545MOL0     C73455   8.264   4.526   9.103 -0.4217  0.2026  0.8091
  545MOL0     C73456   8.223   4.585   8.974 -0.2221 -0.2064  0.0403
  545MOL0     N73457   8.172   4.496   8.874 -0.7027  0.0352  0.4776
  545MOL0     C73458   8.041   4.460   8.860  0.7825  0.9718  0.0979
  545MOL0     C73459   8.047   4.356   8.778  0.1867 -1.4183  0.1275
  545MOL0     C73460   7.928   4.286   8.721 -0.6596 -0.0741 -0.5145
  545MOL0     C73461   7.874   4.176   8.805  0.3105 -1.0992  0.1864
  545MOL0     C73462   7.855   4.195   8.960 -0.8312 -0.1432  0.3603
  545MOL0     C73463   7.823   4.060   9.019 -0.2704  0.3042  0.2639
  545MOL0     O73464   7.829   4.084   9.160  0.3368 -0.3736  0.6947
  545MOL0     C73465   7.739   4.034   9.249  0.3870  0.6623 -0.4258
  545MOL0     C73466   7.777   3.941   9.346 -0.7972  0.2684  0.8519
  545MOL0     C73467   7.692   3.898   9.447 -1.2618  0.2382 -0.5161
  545MOL0     C73468   7.748   3.818   9.564  0.6706 -0.3225 -0.3617
  545MOL0     C73469   7.561   3.950   9.438  0.1940  0.0476 -0.2651
  545MOL0     C73470   7.460   3.915   9.544 -0.0974  0.3923  0.9171
  545MOL0     O73471   7.327   3.913   9.503  0.6517 -0.2261  0.7528
  545MOL0     C73472   7.232   3.887   9.595 -0.8800  0.0625 -0.1816
  545MOL0     C73473   7.149   3.991   9.629 -0.0481 -0.3858 -0.6325
  545MOL0     C73474   7.044   3.973   9.722 -0.2991 -0.2609 -0.2674
  545MOL0     C73475   7.026   3.854   9.787 -0.6902 -0.0144  0.0173
  545MOL0     O73476   6.921   3.848   9.880 -0.2854  0.4971  0.7743
  545MOL0     C73477   6.919   3.737   9.963 -0.2531  0.0025 -0.2992
  545MOL0     C73478   6.841   3.782  10.100  0.5340 -0.1757  0.0640
  545MOL0     C73479   6.779   3.665  10.186  0.2680 -0.6742 -0.2209
  545MOL0     C73480   6.891   3.592  10.271  0.3680 -0.1929 -0.5323
  545MOL0     C73481   6.837   3.481  10.365  0.7664 -0.1970 -0.0920
  545MOL0     C73482   6.950   3.423  10.454 -0.5965 -0.8661 -0.5534
  545MOL0     C73483   6.892   3.304  10.529  0.2624  0.6046  0.7090
  545MOL0     C73484   6.968   3.268  10.654  0.3327 -0.1934 -0.0106
  545MOL0    Cl73485   6.907   3.362  10.796  0.2054 -0.0499  0.1144
  545MOL0     C73486   7.106   3.748   9.739  0.1267  1.3851 -0.5139
  545MOL0     C73487   7.197   3.760   9.646 -0.3067  0.3449 -0.1723
  545MOL0     O73488   7.493   3.879   9.654 -0.1712 -0.6027  0.1730
  545MOL0     C73489   7.523   4.037   9.337  0.8101  0.1394 -0.7299
  545MOL0     C73490   7.606   4.074   9.236 -0.5415  0.6743  0.4822
  545MOL0     N73491   8.179   4.323   8.743  0.3969 -0.0363  0.1298
  545MOL0     N73492   8.248   4.408   8.800  0.5769 -0.5761  0.3335
  545MOL0     C73493   8.782   4.438   9.871 -0.3643 -0.0002  0.0119
  545MOL0     C73494   8.917   4.416   9.909  0.4630  0.8047 -0.7142
  545MOL0     C73495   9.387   4.387   9.867 -0.3361 -0.0175 -0.3571
  545MOL0     C73496   9.506   4.441   9.850 -0.9017 -0.2111  0.0646
  545MOL0     C73497   9.630   4.380   9.883  0.4135 -0.0475  0.0471
  545MOL0     C73498   9.617   4.265   9.966 -0.0463 -0.3599  0.2954
  545MOL0     O73499   9.729   4.210  10.024  0.5010  0.2086 -0.2972
  545MOL0     C73500   9.867   4.227  10.000  0.7440 -0.5631  0.2035
  545MOL0     C73501   9.951   4.141  10.090  0.6741 -0.8346 -0.5022
  545MOL0     C73502   9.969   4.205  10.232 -1.4019  0.8464  0.6902
  545MOL0     C73503  10.047   4.104  10.316  0.2771 -0.8115  0.0984
  545MOL0     C73504   9.966   4.011  10.396  0.6570  0.5407 -0.3481
  545MOL0     C73505   9.888   3.935  10.451  0.5320  0.9665  0.0823
  545MOL0     C73506   9.491   4.201   9.979  1.0949 -0.6857  0.5405
  545MOL0     C73507   9.378   4.259   9.925  0.8523 -0.1267 -0.1270
  545MOL0     H73508   9.062   4.424   9.604  0.6166 -0.0020  0.2116
  545MOL0     H73509   8.838   4.503   9.541  0.7698  2.1725  0.4309
  545MOL0     H73510   8.595   4.438   9.513 -1.6485 -1.9008 -0.8861
  545MOL0     H73511   8.588   4.331   9.655  0.3021 -1.4932 -2.0274
  545MOL0     H73512   8.347   4.387   9.551 -2.4151  1.3667  0.2346
  545MOL0     H73513   8.370   4.413   9.719 -1.0832  0.0360 -0.7407
  545MOL0     H73514   8.238   4.593   9.620 -0.5558  0.2861 -2.5301
  545MOL0     H73515   8.401   4.655   9.672  0.4189 -1.0342  0.3722
  545MOL0     H73516   8.314   4.741   9.447 -1.2152 -0.9168 -6.4250
  545MOL0     H73517   8.468   4.654   9.428 -0.3106 -2.6227  0.5955
  545MOL0     H73518   8.397   4.483   9.321 -1.7054 -0.4851 -0.7784
  545MOL0     H73519   8.232   4.497   9.393  0.3190 -1.2463 -0.4397
  545MOL0     H73520   8.158   4.656   9.240 -0.6677 -1.0078 -1.3923
  545MOL0     H73521   8.323   4.708   9.195  0.0637  0.2484  0.3451
  545MOL0     H73522   8.366   4.487   9.095 -1.7351 -3.1848 -2.4338
  545MOL0     H73523   8.211   4.433   9.127 -2.7331  1.1609 -0.2834
  545MOL0     H73524   8.315   4.631   8.937 -0.0187 -1.5123 -1.1433
  545MOL0     H73525   8.142   4.657   8.985 -2.3417 -1.6177 -4.1823
  545MOL0     H73526   7.959   4.497   8.920  0.7844 -0.3321  0.9415
  545MOL0     H73527   7.848   4.353   8.689 -1.5209 -1.5368 -1.5478
  545MOL0     H73528   7.951   4.230   8.629 -1.2366  0.7411 -1.1708
  545MOL0     H73529   7.925   4.079   8.800  0.2389 -1.1025 -0.5076
  545MOL0     H73530   7.772   4.172   8.765 -0.6204 -0.3183  2.2946
  545MOL0     H73531   7.769   4.258   8.988 -1.1232 -0.9647  1.3763
  545MOL0     H73532   7.953   4.217   9.003 -0.5764 -1.4394  0.4824
  545MOL0     H73533   7.907   3.998   8.986 -0.0584  0.2945  0.8151
  545MOL0     H73534   7.730   4.024   8.974  0.4420  2.0599 -2.9880
  545MOL0     H73535   7.880   3.907   9.349  0.3889  3.5614  1.1939
  545MOL0     H73536   7.854   3.800   9.547  0.2874 -0.3576 -3.2512
  545MOL0     H73537   7.724   3.876   9.654 -0.7455  0.8968 -1.4765
  545MOL0     H73538   7.716   3.715   9.582  0.9696  0.1318  3.8354
  545MOL0     H73539   7.180   4.082   9.579 -1.2037  1.0806  1.1979
  545MOL0     H73540   6.985   4.056   9.758 -1.8854 -0.6601 -1.7666
  545MOL0     H73541   6.864   3.657   9.914 -0.6714  1.3381 -2.1305
  545MOL0     H73542   7.022   3.707   9.983 -0.1394  0.4806 -0.1629
  545MOL0     H73543   6.906   3.850  10.156 -0.0828  1.4379 -1.1097
  545MOL0     H73544   6.758   3.849  10.075 -0.3098 -1.4230 -0.5812
  545MOL0     H73545   6.741   3.592  10.114  0.7368 -2.4651  1.2522
  545MOL0     H73546   6.703   3.701  10.256  2.1686  2.7354  0.3135
  545MOL0     H73547   6.967   3.547  10.206  2.0728 -0.9529  1.8329
  545MOL0     H73548   6.939   3.669  10.332 -1.9363 -0.0526  1.2533
  545MOL0     H73549   6.783   3.403  10.310  1.1539  0.6999 -1.7871
  545MOL0     H73550   6.761   3.520  10.433  1.2008 -0.0347  0.3053
  545MOL0     H73551   7.036   3.393  10.392  0.6868  0.4529  0.5037
  545MOL0     H73552   6.989   3.498  10.524  1.9861 -1.4815 -1.2224
  545MOL0     H73553   6.900   3.229  10.449 -3.3425  0.7189  0.0738
  545MOL0     H73554   6.790   3.330  10.557 -0.4638  0.6526 -1.7366
  545MOL0     H73555   7.074   3.295  10.653  0.2155  0.2998 -1.5996
  545MOL0     H73556   6.944   3.166  10.686 -1.3072 -0.0316 -0.5991
  545MOL0     H73557   7.080   3.649   9.775  0.3834  1.9013  1.1764
  545MOL0     H73558   7.256   3.673   9.618 -0.1585 -0.2747  1.9014
  545MOL0     H73559   7.425   4.079   9.353  0.6843 -0.5592  0.4222
  545MOL0     H73560   7.572   4.144   9.160  0.0161 -0.7868 -1.1750
  545MOL0     H73561   8.701   4.438   9.945  1.4128 -3.6952  2.2655
  545MOL0     H73562   8.943   4.388  10.011  1.2977 -0.6053 -1.2826
  545MOL0     H73563   9.507   4.546   9.822  1.9738 -0.5076 -1.3833
  545MOL0     H73564   9.730   4.420   9.867  0.7300 -1.8778 -3.5843
  545MOL0     H73565   9.882   4.208   9.893 -1.1208 -1.5671  0.0796
  545MOL0     H73566   9.882   4.336   9.998 -2.2828  0.1079 -4.8803
  545MOL0     H73567  10.048   4.128  10.041  1.0221 -0.0217 -0.0440
  545MOL0     H73568   9.906   4.042  10.104  4.0214 -2.5191 -0.4203
  545MOL0     H73569   9.871   4.237  10.268 -1.5049  4.6690 -2.2900
  545MOL0     H73570  10.040   4.288  10.226  0.1955 -0.2319  3.2384
  545MOL0     H73571  10.114   4.163  10.378  0.7988 -0.7989 -0.4714
  545MOL0     H73572  10.120   4.043  10.261 -0.4451 -1.2676 -0.3878
  545MOL0     H73573   9.816   3.875  10.502  1.3998 -1.0647 -0.9401
  545MOL0     H73574   9.487   4.110  10.037  2.4446 -1.0655  0.0684
  545MOL0     H73575   9.289   4.198   9.929  1.1912 -0.6085  0.1029
  546MOL0     O73576  11.334   9.200   8.112 -0.6965 -0.0820 -0.1337
  546MOL0     C73577  11.242   9.270   8.126 -0.0409 -0.9170 -0.4658
  546MOL0     O73578  11.121   9.230   8.140 -0.6481 -0.1948 -0.0033
  546MOL0     C73579  11.104   9.111   8.199  0.1833  0.4591 -0.3068
  546MOL0     C73580  11.119   9.092   8.333 -0.0535  0.6527 -0.2869
  546MOL0     C73581  11.103   8.965   8.380 -1.1866  0.7801 -0.5399
  546MOL0     C73582  11.059   8.860   8.298  0.1968 -1.1639  0.1497
  546MOL0     O73583  11.039   8.740   8.362  0.3894 -0.2852  0.1607
  546MOL0     C73584  11.057   8.624   8.289 -0.2796 -0.5092  0.2972
  546MOL0     C73585  11.097   8.512   8.395  0.9142  0.1370  0.4256
  546MOL0     C73586  10.993   8.478   8.506  0.8387  0.8801 -0.1029
  546MOL0     C73587  10.924   8.347   8.485 -1.4197  1.0183 -0.2674
  546MOL0     C73588  10.817   8.312   8.586  0.0109  0.4168  0.0813
  546MOL0     C73589  10.859   8.331   8.735 -0.5790  0.0951  0.4557
  546MOL0     C73590  10.754   8.292   8.836  0.3919 -0.3685  0.6833
  546MOL0     C73591  10.616   8.357   8.807  0.6686 -0.7668 -0.6840
  546MOL0     N73592  10.623   8.502   8.795 -0.5934  0.8627 -0.2011
  546MOL0     C73593  10.518   8.565   8.739 -0.0255 -0.4204 -0.0000
  546MOL0     C73594  10.526   8.688   8.798  0.1653  0.4575 -0.3226
  546MOL0     C73595  10.432   8.809   8.774 -0.3868 -0.1170 -0.0505
  546MOL0     C73596  10.307   8.780   8.685 -0.2327 -0.2919  0.4910
  546MOL0     C73597  10.188   8.754   8.770 -0.5998 -0.0582  0.2488
  546MOL0     C73598  10.052   8.717   8.684  0.0305 -1.0861  0.3323
  546MOL0     O73599  10.030   8.842   8.610 -0.7070 -0.7209 -0.2222
  546MOL0     C73600   9.921   8.850   8.534  0.0062 -0.2438 -0.9151
  546MOL0     C73601   9.950   8.879   8.398  0.3965 -0.2121 -1.1165
  546MOL0     C73602   9.841   8.870   8.308  0.3214  0.4751 -0.9913
  546MOL0     C73603   9.870   8.903   8.169  0.4807  0.1702 -0.0062
  546MOL0     C73604   9.713   8.836   8.345 -0.8755 -0.0324 -0.6438
  546MOL0     C73605   9.597   8.820   8.258  0.4380  0.0804  0.0768
  546MOL0     O73606   9.613   8.763   8.130 -0.3890 -0.3216  0.4304
  546MOL0     C73607   9.516   8.794   8.037 -0.3803 -0.9919 -0.6234
  546MOL0     C73608   9.471   8.925   8.016  0.3641 -0.6013  0.6510
  546MOL0     C73609   9.382   8.947   7.904  0.1574 -0.5247  0.2597
  546MOL0     C73610   9.325   8.843   7.834  0.1721 -0.1929 -0.1375
  546MOL0     O73611   9.230   8.856   7.731 -0.6708 -0.0651 -0.1346
  546MOL0     C73612   9.161   8.971   7.695  0.1328 -0.3455  0.5172
  546MOL0     C73613   9.084   8.935   7.569  0.1669  0.5783  0.2291
  546MOL0     C73614   9.040   9.068   7.508  0.2049  0.8786 -0.5473
  546MOL0     C73615   8.931   9.063   7.401  0.5310 -0.3733 -0.3484
  546MOL0     C73616   8.974   8.987   7.272 -0.1187 -0.2421 -0.6302
  546MOL0     C73617   8.833   8.955   7.207  0.6887  0.1403 -0.7040
  546MOL0     C73618   8.854   8.848   7.096 -0.3575  0.3230  0.7056
  546MOL0     C73619   8.713   8.832   7.025 -0.2853 -0.4158 -0.9484
  546MOL0    Cl73620   8.582   8.783   7.125 -0.0931 -0.2142  0.1528
  546MOL0     C73621   9.372   8.713   7.857  0.0217 -0.8827  0.0377
  546MOL0     C73622   9.467   8.692   7.950  0.0947  0.2657 -1.7392
  546MOL0     O73623   9.486   8.852   8.300 -0.2406  0.3988  0.2591
  546MOL0     C73624   9.690   8.799   8.490 -0.0764  0.0402  0.8316
  546MOL0     C73625   9.797   8.817   8.578 -0.1971  0.7924  0.7600
  546MOL0     N73626  10.636   8.700   8.882 -0.0434  1.3359  0.3874
  546MOL0     N73627  10.686   8.576   8.891 -0.0617  0.4078  0.3898
  546MOL0     C73628  11.049   8.886   8.159  0.4425 -0.2749 -0.1934
  546MOL0     C73629  11.075   9.008   8.114  0.1269 -1.0626  0.3316
  546MOL0     C73630  11.252   9.414   8.132 -0.4446 -0.3817 -0.5649
  546MOL0     C73631  11.147   9.491   8.183 -0.8693 -0.1897  0.7167
  546MOL0     C73632  11.146   9.625   8.164 -0.2269  0.1302 -0.8061
  546MOL0     C73633  11.257   9.695   8.119 -0.8549  0.0726  0.5415
  546MOL0     O73634  11.250   9.836   8.114 -0.3754  0.4137  0.4985
  546MOL0     C73635  11.356   9.899   8.050 -0.3193 -0.3070  0.4598
  546MOL0     C73636  11.335  10.047   8.016 -0.6370  0.0849 -0.4469
  546MOL0     C73637  11.308  10.130   8.147  0.8119 -0.3244  0.7262
  546MOL0     C73638  11.169  10.116   8.191  0.0587 -0.4479  0.3519
  546MOL0     C73639  11.137  10.226   8.283 -1.5546 -0.3125 -0.5907
  546MOL0     C73640  11.145  10.313   8.373  0.1021  0.9698 -0.7615
  546MOL0     C73641  11.374   9.619   8.083 -0.2418  0.1887  0.7615
  546MOL0     C73642  11.368   9.472   8.096 -0.3332 -0.5034  0.7993
  546MOL0     H73643  11.142   9.168   8.407 -0.4744 -0.5193  1.1173
  546MOL0     H73644  11.118   8.942   8.485 -1.7375  1.9005 -0.1993
  546MOL0     H73645  10.972   8.595   8.227 -0.0589  1.5608 -1.0519
  546MOL0     H73646  11.145   8.632   8.225  0.4006 -0.0330  1.2690
  546MOL0     H73647  11.111   8.419   8.339 -2.4833 -1.0413  1.3180
  546MOL0     H73648  11.190   8.542   8.445 -0.9507  3.0634  2.4796
  546MOL0     H73649  11.037   8.468   8.605 -2.4047  0.3167  1.4085
  546MOL0     H73650  10.908   8.546   8.505 -2.9635 -3.3588 -0.3032
  546MOL0     H73651  10.882   8.354   8.384 -1.1224 -0.2413 -0.5023
  546MOL0     H73652  11.000   8.269   8.492 -1.4007  1.1243  0.8932
  546MOL0     H73653  10.723   8.369   8.577 -2.4346 -3.3686 -0.4103
  546MOL0     H73654  10.785   8.213   8.554  2.8905  0.3463 -3.1273
  546MOL0     H73655  10.946   8.267   8.754  1.0882  2.1747  0.2278
  546MOL0     H73656  10.885   8.437   8.743 -0.1015  0.1812 -1.6013
  546MOL0     H73657  10.738   8.184   8.829 -3.3350  0.1411 -1.7787
  546MOL0     H73658  10.780   8.317   8.939  0.3362  1.0426  0.3816
  546MOL0     H73659  10.553   8.343   8.895 -2.4012  1.2197 -2.3891
  546MOL0     H73660  10.560   8.317   8.722 -3.3230 -2.3026  2.3500
  546MOL0     H73661  10.438   8.533   8.674 -2.7029 -0.2215  2.9374
  546MOL0     H73662  10.402   8.840   8.875  4.4176  1.2751  1.1727
  546MOL0     H73663  10.491   8.892   8.734  0.9401 -0.8377  0.3648
  546MOL0     H73664  10.310   8.689   8.624 -1.6453  0.3820 -0.6572
  546MOL0     H73665  10.293   8.866   8.618 -1.4232 -2.8712 -2.8668
  546MOL0     H73666  10.163   8.844   8.826  2.9296  1.0095  0.3515
  546MOL0     H73667  10.209   8.678   8.845  2.0709  0.1076 -0.2329
  546MOL0     H73668   9.971   8.684   8.749  0.7140 -3.6152  0.0238
  546MOL0     H73669  10.065   8.636   8.610 -1.7512  0.8546 -2.2977
  546MOL0     H73670  10.052   8.900   8.369  0.0906  0.2443 -1.8903
  546MOL0     H73671   9.797   8.968   8.121  0.7039 -0.0430 -0.6545
  546MOL0     H73672   9.954   8.971   8.155  2.1131 -2.1976 -3.3237
  546MOL0     H73673   9.884   8.814   8.107 -1.1890 -1.4663  1.8337
  546MOL0     H73674   9.496   8.994   8.095 -0.4180  0.4395  0.0069
  546MOL0     H73675   9.357   9.049   7.877 -1.4331 -1.9846 -4.7385
  546MOL0     H73676   9.091   8.995   7.776  1.9641 -1.7958  2.6645
  546MOL0     H73677   9.229   9.053   7.674 -0.1506 -0.2290  0.0356
  546MOL0     H73678   9.141   8.879   7.494  0.6908  2.2662 -0.6677
  546MOL0     H73679   8.992   8.881   7.597  0.3970 -0.7893 -1.4543
  546MOL0     H73680   9.120   9.125   7.460 -1.5242  1.8873 -2.4111
  546MOL0     H73681   9.003   9.127   7.592 -0.0451  1.3065 -0.9481
  546MOL0     H73682   8.839   9.017   7.438  1.3610 -2.5957 -0.9027
  546MOL0     H73683   8.925   9.171   7.387 -0.6642  0.2363  3.5462
  546MOL0     H73684   9.031   8.900   7.306  1.6303  1.7093  1.7894
  546MOL0     H73685   9.027   9.052   7.202 -2.2996  0.4426 -1.7563
  546MOL0     H73686   8.766   8.918   7.285  1.0939  3.5286  1.4416
  546MOL0     H73687   8.783   9.047   7.177  1.7529  2.5806  3.9847
  546MOL0     H73688   8.887   8.755   7.141  0.3068 -1.0805 -2.3806
  546MOL0     H73689   8.929   8.882   7.024 -0.1861  0.0429  0.7514
  546MOL0     H73690   8.723   8.765   6.938  3.1597  1.9768 -2.6195
  546MOL0     H73691   8.685   8.931   6.988  2.3445  0.5369 -0.6161
  546MOL0     H73692   9.341   8.627   7.798  2.0612 -1.5475 -0.1545
  546MOL0     H73693   9.509   8.596   7.977  1.2591  1.1094 -0.3742
  546MOL0     H73694   9.592   8.770   8.527  0.8497 -3.6309  0.7360
  546MOL0     H73695   9.781   8.789   8.682  0.3022 -2.3937  0.0853
  546MOL0     H73696  11.020   8.797   8.105  0.9381 -1.0579  0.7988
  546MOL0     H73697  11.077   9.028   8.008 -1.5827  1.4597  0.6778
  546MOL0     H73698  11.070   9.438   8.239  1.6023 -2.1993  2.4644
  546MOL0     H73699  11.072   9.683   8.218 -0.4342 -2.0870  1.4955
  546MOL0     H73700  11.444   9.901   8.115 -0.3354 -1.5304  0.5327
  546MOL0     H73701  11.397   9.853   7.960  1.7103  1.7202  0.2627
  546MOL0     H73702  11.258  10.056   7.940 -1.2697  0.2394  0.2086
  546MOL0     H73703  11.433  10.083   7.982  0.8706 -0.4867  2.9006
  546MOL0     H73704  11.342  10.230   8.120  0.6894 -0.1600  1.1727
  546MOL0     H73705  11.366  10.098   8.234  1.9153  2.4840  1.1293
  546MOL0     H73706  11.151  10.022   8.243 -0.6610 -0.9648 -0.7957
  546MOL0     H73707  11.097  10.125   8.109  0.5132  1.7341  0.1379
  546MOL0     H73708  11.124  10.371   8.461 -2.8558 -0.1472 -0.6174
  546MOL0     H73709  11.474   9.660   8.071 -0.3174 -0.0597 -0.9398
  546MOL0     H73710  11.458   9.421   8.062  1.7349  2.4163  1.5355
  547MOL0     O73711  10.578   3.147   2.517  1.2263  0.1163 -0.9377
  547MOL0     C73712  10.657   3.132   2.608  0.2631  0.6419 -0.3853
  547MOL0     O73713  10.621   3.110   2.735  1.0560  0.0214  0.2813
  547MOL0     C73714  10.491   3.121   2.787 -0.5151  0.0424 -0.0728
  547MOL0     C73715  10.370   3.141   2.722 -0.0563 -0.2412  0.1135
  547MOL0     C73716  10.254   3.124   2.794 -0.0153 -0.5827  0.2657
  547MOL0     C73717  10.245   3.107   2.938 -0.9144 -0.4934 -0.3107
  547MOL0     O73718  10.126   3.115   3.013 -0.5155  0.0161  0.0657
  547MOL0     C73719  10.009   3.173   2.945 -0.4541 -0.8340 -0.5404
  547MOL0     C73720   9.928   3.069   2.863  0.1904 -0.2503  0.0477
  547MOL0     C73721   9.810   3.135   2.792  0.5876 -0.3444 -0.3832
  547MOL0     C73722   9.703   3.045   2.754  0.3336 -0.4527  0.8532
  547MOL0     C73723   9.615   3.124   2.654 -0.4171 -0.5471 -0.2506
  547MOL0     C73724   9.493   3.052   2.612  0.9229  0.3872  0.3707
  547MOL0     C73725   9.391   3.150   2.544 -0.4427 -0.1572 -0.6495
  547MOL0     C73726   9.269   3.070   2.516 -0.5653 -0.4527 -0.1872
  547MOL0     N73727   9.170   3.140   2.431 -0.1669  0.5074  0.6415
  547MOL0     C73728   9.046   3.181   2.464 -0.1916  0.9339 -0.1009
  547MOL0     C73729   8.973   3.209   2.351  0.2467 -0.1496  0.5802
  547MOL0     C73730   8.837   3.260   2.313  0.6793  0.9094 -1.2438
  547MOL0     C73731   8.769   3.320   2.438 -1.1844  0.1466 -0.9997
  547MOL0     C73732   8.622   3.375   2.410 -0.5900  0.1579  0.0949
  547MOL0     C73733   8.588   3.392   2.263 -1.0781  0.2317  0.0333
  547MOL0     O73734   8.475   3.482   2.253  0.1527  0.3684 -0.5414
  547MOL0     C73735   8.387   3.473   2.151 -0.6473  0.1054  1.2227
  547MOL0     C73736   8.310   3.588   2.132 -0.1425 -0.5621  0.4798
  547MOL0     C73737   8.228   3.609   2.024 -0.5226  0.6007  0.4794
  547MOL0     C73738   8.161   3.744   2.015  0.1126  0.0111 -0.0233
  547MOL0     C73739   8.215   3.507   1.932  0.7180  0.1074  0.4084
  547MOL0     C73740   8.105   3.514   1.822 -0.3127 -0.5330  0.0211
  547MOL0     O73741   8.132   3.437   1.719 -0.2684 -0.0720 -0.0748
  547MOL0     C73742   8.082   3.469   1.590 -0.4048 -0.0936 -0.2929
  547MOL0     C73743   8.170   3.477   1.487  0.4829 -0.0831  0.5221
  547MOL0     C73744   8.120   3.525   1.363 -0.4006 -0.7154 -0.1346
  547MOL0     C73745   7.987   3.565   1.330 -0.5299 -0.0550  0.4187
  547MOL0     O73746   7.932   3.610   1.213  0.0005  0.1402 -0.3500
  547MOL0     C73747   8.010   3.594   1.098 -0.1937  0.1126  0.3807
  547MOL0     C73748   7.906   3.560   0.987 -0.8942 -0.3103 -0.0434
  547MOL0     C73749   7.969   3.556   0.849 -0.5757  0.4560  0.2436
  547MOL0     C73750   7.866   3.519   0.741 -0.6963  0.1628  0.5002
  547MOL0     C73751   7.934   3.503   0.604 -0.1151  0.0180  0.6226
  547MOL0     C73752   8.011   3.383   0.592 -0.6766  0.3662  0.1915
  547MOL0     C73753   8.074   3.368   0.448 -0.3734 -0.7938 -0.4155
  547MOL0     C73754   8.111   3.226   0.432  0.7355 -0.1954 -0.1864
  547MOL0    Cl73755   7.955   3.136   0.415  0.1268 -0.2287 -0.0764
  547MOL0     C73756   7.898   3.555   1.436  0.9920  0.0205  0.3830
  547MOL0     C73757   7.950   3.516   1.561 -0.1875 -0.7022  0.3370
  547MOL0     O73758   8.014   3.598   1.818 -0.0121 -0.0032  0.0254
  547MOL0     C73759   8.284   3.389   1.952 -0.1888 -0.0087  0.2041
  547MOL0     C73760   8.374   3.373   2.046  0.0050 -0.5711  0.0629
  547MOL0     N73761   9.051   3.154   2.254  0.1830 -0.0967 -0.5804
  547MOL0     N73762   9.163   3.110   2.296 -0.2478 -0.1701 -0.4664
  547MOL0     C73763  10.370   3.094   3.003  0.1435 -0.5153  0.0587
  547MOL0     C73764  10.484   3.109   2.926 -1.3172 -0.3019  0.8494
  547MOL0     C73765  10.799   3.139   2.582  0.4684 -1.0889 -0.0979
  547MOL0     C73766  10.860   3.176   2.460  0.6253 -0.7498 -0.8349
  547MOL0     C73767  10.997   3.168   2.449  0.0767 -0.0518  0.0542
  547MOL0     C73768  11.079   3.132   2.556 -0.7131  0.3800 -0.0545
  547MOL0     O73769  11.210   3.131   2.531  0.0308  0.0219 -0.1343
  547MOL0     C73770  11.315   3.148   2.631 -0.2589  0.2394 -0.4123
  547MOL0     C73771  11.455   3.128   2.559 -0.3730 -0.3201  0.7203
  547MOL0     C73772  11.500   3.253   2.472  0.5146  0.2790 -0.4480
  547MOL0     C73773  11.545   3.364   2.574 -0.1577 -0.7508 -0.2533
  547MOL0     C73774  11.693   3.380   2.560 -0.0424  0.1178 -0.6980
  547MOL0     C73775  11.813   3.379   2.576 -0.1311  0.5619  1.0847
  547MOL0     C73776  11.021   3.095   2.675  1.2097 -0.4976 -0.4970
  547MOL0     C73777  10.882   3.109   2.686 -0.5667  0.8586  0.2569
  547MOL0     H73778  10.361   3.165   2.616 -2.5511  1.1686  0.5806
  547MOL0     H73779  10.163   3.158   2.746  1.8486  1.5556 -1.9890
  547MOL0     H73780   9.943   3.208   3.025  2.8383  3.2972  0.7123
  547MOL0     H73781  10.028   3.262   2.885 -0.6346 -0.2294  0.2837
  547MOL0     H73782   9.988   3.021   2.785  1.3051  0.8059  0.2294
  547MOL0     H73783   9.902   2.986   2.930  0.2046  0.6069  1.1447
  547MOL0     H73784   9.771   3.216   2.855  0.5212 -1.0631  0.5206
  547MOL0     H73785   9.854   3.181   2.703  3.1529  2.1658  1.9784
  547MOL0     H73786   9.749   2.961   2.701  0.1071  0.5511 -0.9828
  547MOL0     H73787   9.637   3.006   2.832 -2.8710 -1.8390 -2.2849
  547MOL0     H73788   9.584   3.221   2.693  2.2411 -0.0218  0.7969
  547MOL0     H73789   9.681   3.147   2.570  0.7217 -4.3540 -0.5754
  547MOL0     H73790   9.532   2.980   2.539  0.7545  0.2702  0.3974
  547MOL0     H73791   9.447   2.996   2.693  0.0237 -0.4547 -0.6841
  547MOL0     H73792   9.373   3.245   2.596 -2.2954  0.6438 -2.6149
  547MOL0     H73793   9.439   3.177   2.450  3.2072 -1.1199  0.7256
  547MOL0     H73794   9.214   3.049   2.608  0.0170 -1.3162 -0.0290
  547MOL0     H73795   9.303   2.983   2.458 -1.6840 -2.7227  2.3539
  547MOL0     H73796   9.020   3.207   2.566  1.1595  2.4976 -0.1066
  547MOL0     H73797   8.866   3.336   2.240  4.1894 -1.7473 -2.9130
  547MOL0     H73798   8.766   3.187   2.274  0.0942  0.5111  0.4580
  547MOL0     H73799   8.822   3.407   2.477 -1.4957  0.0202 -0.2833
  547MOL0     H73800   8.769   3.251   2.523 -0.0962  1.1572 -0.1434
  547MOL0     H73801   8.633   3.480   2.437  1.6298  0.0157 -0.0364
  547MOL0     H73802   8.565   3.320   2.485  0.7848 -1.2551  0.1607
  547MOL0     H73803   8.571   3.295   2.217  1.3078  0.5193 -1.6574
  547MOL0     H73804   8.674   3.444   2.219 -0.5206  0.5816  1.4827
  547MOL0     H73805   8.335   3.668   2.201 -1.5720 -2.0698  2.8685
  547MOL0     H73806   8.152   3.780   1.912 -0.7497  1.9964  0.6924
  547MOL0     H73807   8.060   3.729   2.052  1.3467 -0.3573  3.6116
  547MOL0     H73808   8.220   3.815   2.074  0.4924  0.1880 -0.6071
  547MOL0     H73809   8.275   3.460   1.510  1.4308  2.0129 -1.8213
  547MOL0     H73810   8.190   3.533   1.281 -2.0077  0.7824 -1.4378
  547MOL0     H73811   8.078   3.674   1.068  0.9250 -1.1443 -0.5312
  547MOL0     H73812   8.072   3.504   1.104  0.2312  0.3831  0.0968
  547MOL0     H73813   7.863   3.462   1.004  0.2052 -1.2456 -2.2929
  547MOL0     H73814   7.825   3.633   0.990 -1.7559 -1.1918 -1.2314
  547MOL0     H73815   8.041   3.474   0.840 -1.9234 -0.8609  0.9285
  547MOL0     H73816   8.025   3.649   0.841 -0.3829  0.3480  0.3301
  547MOL0     H73817   7.811   3.428   0.765 -1.4741  0.5092  0.0886
  547MOL0     H73818   7.788   3.595   0.729 -0.0085  0.7054 -0.7649
  547MOL0     H73819   7.986   3.599   0.598  0.5410 -0.0983  3.2561
  547MOL0     H73820   7.859   3.498   0.524  1.5305  1.7261 -1.1407
  547MOL0     H73821   8.097   3.384   0.660 -2.5747 -2.1389  2.8404
  547MOL0     H73822   7.956   3.295   0.627  1.0624 -0.0118  2.1782
  547MOL0     H73823   8.163   3.431   0.445 -1.1738  0.3442 -1.5945
  547MOL0     H73824   8.001   3.394   0.370 -1.5041  1.2716  1.1991
  547MOL0     H73825   8.161   3.185   0.520  0.3436  0.4446  0.3374
  547MOL0     H73826   8.181   3.213   0.348  1.4668  1.1747  0.1874
  547MOL0     H73827   7.797   3.592   1.425  1.7810  1.7350 -1.7661
  547MOL0     H73828   7.879   3.518   1.643 -0.1030  1.7893  0.4309
  547MOL0     H73829   8.256   3.309   1.883 -2.2184  0.7114  0.1283
  547MOL0     H73830   8.426   3.278   2.058  0.9382 -0.2828 -1.4377
  547MOL0     H73831  10.374   3.065   3.108 -0.5485 -2.6148 -0.4522
  547MOL0     H73832  10.582   3.098   2.970 -1.0701 -2.7260 -0.1581
  547MOL0     H73833  10.797   3.186   2.372 -0.8900  1.9432  0.4333
  547MOL0     H73834  11.044   3.191   2.354  3.4559 -1.5055  1.2162
  547MOL0     H73835  11.325   3.247   2.676  2.6641 -0.7590  1.4190
  547MOL0     H73836  11.292   3.080   2.714  0.6617  0.4982  0.0724
  547MOL0     H73837  11.450   3.046   2.487  3.1593  0.5644 -0.7617
  547MOL0     H73838  11.530   3.112   2.637 -0.3584 -1.4941  0.4789
  547MOL0     H73839  11.412   3.298   2.424  1.8587  2.3983 -1.0581
  547MOL0     H73840  11.576   3.228   2.398  0.3572  1.0782 -0.8980
  547MOL0     H73841  11.504   3.343   2.673 -1.8040 -1.5670 -1.0701
  547MOL0     H73842  11.499   3.461   2.551 -0.9375 -0.9118  0.5909
  547MOL0     H73843  11.917   3.353   2.584  0.1394  0.1567 -2.2539
  547MOL0     H73844  11.078   3.062   2.761 -0.3064 -1.4532  0.1816
  547MOL0     H73845  10.843   3.088   2.785  0.1536  2.2612  0.8662
  548MOL0     O73846   2.543   1.676  10.265  0.9857  0.1456 -0.8337
  548MOL0     C73847   2.508   1.570  10.308  0.9396 -0.1069 -0.4961
  548MOL0     O73848   2.519   1.533  10.443  0.2346 -0.1723  0.2679
  548MOL0     C73849   2.629   1.595  10.502  0.2025  0.6219  0.9295
  548MOL0     C73850   2.760   1.579  10.456  0.8170  0.4181 -0.5409
  548MOL0     C73851   2.863   1.641  10.519  0.1713 -0.6392  0.4641
  548MOL0     C73852   2.844   1.720  10.634 -0.5778 -0.0394 -0.4006
  548MOL0     O73853   2.964   1.766  10.686 -0.1180  0.8634 -0.3986
  548MOL0     C73854   3.001   1.724  10.816  0.1662 -0.7160  0.7885
  548MOL0     C73855   3.154   1.738  10.817  0.6769 -0.1427  0.2903
  548MOL0     C73856   3.226   1.736  10.955 -0.6863  0.1607 -0.0349
  548MOL0     C73857   3.153   1.650  11.057  0.9163 -0.0513 -0.1920
  548MOL0     C73858   3.219   1.638  11.185 -0.1724  0.0202 -0.5878
  548MOL0     C73859   3.162   1.520  11.263  0.8582 -0.4269  0.0832
  548MOL0     C73860   3.207   1.519  11.408  0.2325  0.3404 -0.4691
  548MOL0     C73861   3.134   1.420  11.494  0.5444 -0.5023  0.7967
  548MOL0     N73862   3.157   1.274  11.469  0.6781 -0.0444 -0.0458
  548MOL0     C73863   3.262   1.223  11.390 -0.2896 -1.0120 -0.6314
  548MOL0     C73864   3.278   1.096  11.435  0.5524  0.1378  0.2539
  548MOL0     C73865   3.362   0.981  11.383  0.5486 -1.0597  0.5549
  548MOL0     C73866   3.421   0.992  11.241 -0.6903  0.1617  0.0446
  548MOL0     C73867   3.333   0.906  11.144  1.6978 -0.3954 -0.5686
  548MOL0     C73868   3.371   0.932  10.996 -0.0972 -0.8207 -0.3385
  548MOL0     O73869   3.314   0.836  10.916  0.4458  0.2943 -0.1807
  548MOL0     C73870   3.295   0.856  10.780  0.2960 -0.2197 -0.5774
  548MOL0     C73871   3.351   0.962  10.710  0.9943  0.3194 -0.5565
  548MOL0     C73872   3.329   0.984  10.572 -0.3077 -0.7036 -0.2018
  548MOL0     C73873   3.413   1.093  10.498  0.4741 -0.5641 -0.6757
  548MOL0     C73874   3.240   0.900  10.499 -0.2579  0.0481 -1.1167
  548MOL0     C73875   3.216   0.909  10.350 -0.7222 -1.4222  0.8771
  548MOL0     O73876   3.153   0.809  10.292  0.0476 -0.6272 -0.2935
  548MOL0     C73877   3.101   0.835  10.171  0.1132  0.0401  0.4037
  548MOL0     C73878   3.014   0.941  10.136 -0.3669  0.1603  0.0215
  548MOL0     C73879   2.990   0.976  10.002  0.1267 -0.2607  0.5777
  548MOL0     C73880   3.058   0.905   9.900  0.0358  0.4737  0.6059
  548MOL0     O73881   3.054   0.935   9.768 -0.0638 -0.0159 -0.2026
  548MOL0     C73882   3.018   1.073   9.723 -1.1952  0.0617  0.9856
  548MOL0     C73883   3.132   1.120   9.641 -0.4383 -0.0834  0.1854
  548MOL0     C73884   3.254   1.166   9.721 -0.3616  0.4918 -0.1015
  548MOL0     C73885   3.381   1.203   9.643 -0.7491  0.4730 -1.5640
  548MOL0     C73886   3.515   1.197   9.726 -0.0290 -0.8643 -1.3854
  548MOL0     C73887   3.508   1.267   9.856 -0.2640  0.6684 -0.8107
  548MOL0     C73888   3.473   1.411   9.861  0.2265 -0.8802  0.3220
  548MOL0     C73889   3.491   1.452  10.008 -0.3293  0.3554  0.8853
  548MOL0    Cl73890   3.359   1.391  10.105 -0.0538  0.2570  0.4621
  548MOL0     C73891   3.143   0.801   9.931 -0.2447  0.0407 -0.4687
  548MOL0     C73892   3.166   0.768  10.061  0.5513 -0.7704 -0.2096
  548MOL0     O73893   3.250   1.010  10.292  0.0486 -0.8567  0.2220
  548MOL0     C73894   3.190   0.796  10.575  0.1983  0.6003  0.4640
  548MOL0     C73895   3.216   0.770  10.704  0.6540 -0.0626 -0.3804
  548MOL0     N73896   3.184   1.073  11.538 -0.7880 -0.4279  0.4060
  548MOL0     N73897   3.121   1.177  11.560  0.8198  0.1257 -0.2373
  548MOL0     C73898   2.708   1.740  10.678 -0.8864  0.1490  0.6573
  548MOL0     C73899   2.607   1.671  10.617  0.1751  0.4381  0.2509
  548MOL0     C73900   2.446   1.472  10.217 -0.3020 -0.0270  0.1088
  548MOL0     C73901   2.443   1.495  10.085 -0.4843  0.4755 -0.0612
  548MOL0     C73902   2.399   1.399   9.992 -0.0060 -0.6411 -1.1119
  548MOL0     C73903   2.348   1.279  10.043 -0.3570  0.1534 -0.6309
  548MOL0     O73904   2.293   1.175   9.974 -0.0049 -0.8482 -0.3709
  548MOL0     C73905   2.294   1.157   9.827 -0.7409  0.0752  0.0209
  548MOL0     C73906   2.438   1.123   9.791 -0.7366 -0.8981 -0.3437
  548MOL0     C73907   2.441   1.135   9.637  0.2139  0.4545  0.1913
  548MOL0     C73908   2.571   1.070   9.581 -0.1588  0.1587  0.7747
  548MOL0     C73909   2.601   1.108   9.435  0.3441  0.4458 -0.7876
  548MOL0     C73910   2.619   1.166   9.333 -0.1201 -0.8829  0.4681
  548MOL0     C73911   2.350   1.261  10.178 -0.0815 -1.4405 -0.2465
  548MOL0     C73912   2.398   1.355  10.262 -0.3173  0.3604 -1.0212
  548MOL0     H73913   2.772   1.528  10.361  0.1387 -1.4939  0.3358
  548MOL0     H73914   2.958   1.647  10.467 -0.0049  0.6715  0.2641
  548MOL0     H73915   2.955   1.789  10.891 -1.9725  0.8551 -1.7071
  548MOL0     H73916   2.986   1.617  10.837  0.6130 -0.9397  0.0149
  548MOL0     H73917   3.199   1.674  10.742  2.9126  1.0775  0.5047
  548MOL0     H73918   3.169   1.837  10.772  1.2661  1.0768  2.9250
  548MOL0     H73919   3.327   1.697  10.939 -0.5048 -0.2806  1.9619
  548MOL0     H73920   3.231   1.835  11.001 -0.8513  0.8613 -1.4672
  548MOL0     H73921   3.051   1.687  11.068  0.2138 -1.5404 -1.3835
  548MOL0     H73922   3.144   1.553  11.008  3.2938 -0.4125 -0.0477
  548MOL0     H73923   3.324   1.621  11.159 -0.7669 -1.1245 -2.4835
  548MOL0     H73924   3.189   1.725  11.244 -1.1964  0.7540 -2.0930
  548MOL0     H73925   3.054   1.509  11.243  1.1470 -3.8905 -0.2371
  548MOL0     H73926   3.191   1.430  11.208  2.6380  1.0111 -1.4783
  548MOL0     H73927   3.313   1.492  11.407  1.6380  4.9224  0.0848
  548MOL0     H73928   3.191   1.612  11.463 -0.5704 -0.0208 -0.0760
  548MOL0     H73929   3.026   1.439  11.498  0.3628 -1.0048 -0.8525
  548MOL0     H73930   3.155   1.431  11.600 -1.4236 -0.2123  1.1943
  548MOL0     H73931   3.306   1.276  11.306  0.8717  0.4113  0.8209
  548MOL0     H73932   3.440   0.972  11.459  1.1311 -1.5469 -0.0885
  548MOL0     H73933   3.308   0.887  11.391  1.6063 -1.9305 -1.6767
  548MOL0     H73934   3.523   0.951  11.239  0.7769  3.4087  1.5153
  548MOL0     H73935   3.423   1.097  11.214 -1.8221  0.2591  0.2786
  548MOL0     H73936   3.227   0.928  11.158  2.2123  1.2529  1.1512
  548MOL0     H73937   3.344   0.800  11.171 -1.3889 -1.2643 -2.2602
  548MOL0     H73938   3.480   0.922  10.995 -0.2440 -2.8309 -0.6451
  548MOL0     H73939   3.342   1.031  10.958 -0.2517 -0.2859  1.1284
  548MOL0     H73940   3.420   1.037  10.747  3.9378 -1.5447 -1.8379
  548MOL0     H73941   3.487   1.050  10.430 -0.5141 -1.4939 -1.2023
  548MOL0     H73942   3.339   1.153  10.444 -1.8255 -1.5841  1.1449
  548MOL0     H73943   3.473   1.151  10.569 -0.7440 -0.4214  0.2697
  548MOL0     H73944   2.968   0.996  10.217 -2.1052 -3.6986  1.9029
  548MOL0     H73945   2.927   1.061   9.977 -1.4961 -1.7487 -0.6368
  548MOL0     H73946   2.936   1.054   9.653 -0.7100  1.4442  0.0051
  548MOL0     H73947   2.985   1.150   9.794 -3.9670 -1.2211  1.2075
  548MOL0     H73948   3.169   1.043   9.572 -0.0183 -0.1333  0.4595
  548MOL0     H73949   3.108   1.204   9.575  1.0535  0.3378  0.1191
  548MOL0     H73950   3.283   1.081   9.783  1.2969  0.5695 -0.7279
  548MOL0     H73951   3.220   1.251   9.783 -0.7574  1.9442 -2.2031
  548MOL0     H73952   3.396   1.126   9.567 -0.2690 -0.8015 -0.2191
  548MOL0     H73953   3.372   1.304   9.601  0.6611  0.7095 -1.3544
  548MOL0     H73954   3.596   1.242   9.667 -0.1681  2.5538  0.7178
  548MOL0     H73955   3.539   1.092   9.743  1.9806 -0.4160 -1.1113
  548MOL0     H73956   3.432   1.224   9.922  0.2656  3.7359  2.0742
  548MOL0     H73957   3.601   1.253   9.912 -1.0231  1.4417  0.6829
  548MOL0     H73958   3.368   1.423   9.833 -0.1672  0.8785  2.2439
  548MOL0     H73959   3.536   1.482   9.806  0.8728 -1.7514 -0.0779
  548MOL0     H73960   3.480   1.561  10.011 -0.1230  0.3872  0.5415
  548MOL0     H73961   3.595   1.432  10.036 -0.2374  1.0341  1.0600
  548MOL0     H73962   3.199   0.744   9.858  0.0288  2.7680 -2.5684
  548MOL0     H73963   3.240   0.693  10.088  0.5934 -0.4820  0.4895
  548MOL0     H73964   3.108   0.737  10.534 -0.4575  0.9103  1.3008
  548MOL0     H73965   3.157   0.691  10.750 -0.4596  0.8633 -0.1912
  548MOL0     H73966   2.693   1.799  10.768  0.1504  1.0507  0.2610
  548MOL0     H73967   2.511   1.677  10.667  0.2606 -1.1638  0.6729
  548MOL0     H73968   2.488   1.585  10.045 -1.3599 -1.0492 -5.2053
  548MOL0     H73969   2.406   1.410   9.884  1.3620  0.6782 -0.9326
  548MOL0     H73970   2.246   1.061   9.807 -0.1644  0.2344 -2.4485
  548MOL0     H73971   2.247   1.242   9.777 -4.2588 -2.6153 -1.6497
  548MOL0     H73972   2.464   1.029   9.839 -1.1706 -0.4686  0.7772
  548MOL0     H73973   2.502   1.199   9.838 -3.4515  0.6917  1.0526
  548MOL0     H73974   2.437   1.242   9.614  1.3614  0.4802  0.0567
  548MOL0     H73975   2.349   1.096   9.592  0.0954  0.0181  0.8038
  548MOL0     H73976   2.556   0.962   9.589 -3.1679  0.4032 -0.4934
  548MOL0     H73977   2.663   1.098   9.634 -0.3266  1.9749  0.1590
  548MOL0     H73978   2.625   1.227   9.245  0.4009  0.0249  1.1140
  548MOL0     H73979   2.301   1.170  10.213 -0.6270 -1.8754 -2.0381
  548MOL0     H73980   2.396   1.332  10.368  1.8199  0.7281 -0.8647
  549MOL0     O73981  11.003   8.912  10.177  0.1523 -0.3871 -0.0801
  549MOL0     C73982  11.095   8.985  10.218  0.8070 -0.0883 -0.8930
  549MOL0     O73983  11.163   8.974  10.340  0.1820 -0.2143  0.1785
  549MOL0     C73984  11.125   8.857  10.403 -0.0823  0.1477 -0.0370
  549MOL0     C73985  11.000   8.841  10.468 -0.7532  0.2226 -0.1479
  549MOL0     C73986  10.974   8.723  10.541 -0.3248 -0.7559 -0.1682
  549MOL0     C73987  11.064   8.615  10.543 -0.2583 -0.4160 -0.1641
  549MOL0     O73988  11.009   8.494  10.589 -0.6342 -0.3464 -0.2171
  549MOL0     C73989  11.098   8.407  10.658 -0.0841 -1.0913 -0.4151
  549MOL0     C73990  11.062   8.256  10.654  0.3550 -0.4915 -0.5245
  549MOL0     C73991  11.177   8.168  10.724  0.3063 -1.5389 -0.4022
  549MOL0     C73992  11.170   8.196  10.876  0.0906  0.2061  0.7108
  549MOL0     C73993  11.274   8.117  10.950 -0.7059  0.8231  0.3194
  549MOL0     C73994  11.303   8.174  11.087  0.6198 -0.9962 -0.7309
  549MOL0     C73995  11.437   8.126  11.132 -0.6175  0.1019  0.6391
  549MOL0     C73996  11.443   7.992  11.201 -0.6239 -0.9158  0.2063
  549MOL0     N73997  11.576   7.942  11.201  0.4473  0.5048 -0.1862
  549MOL0     C73998  11.625   7.858  11.100  0.8059 -0.6191  0.4574
  549MOL0     C73999  11.734   7.804  11.150 -0.4379 -0.2386 -0.7711
  549MOL0     C74000  11.797   7.682  11.097  0.4343 -0.4845 -0.5014
  549MOL0     C74001  11.944   7.709  11.083  0.4903  0.7114  0.4022
  549MOL0     C74002  12.005   7.565  11.069 -0.4341  0.2559 -0.1232
  549MOL0     C74003  12.150   7.568  11.092 -0.4120  0.4646 -0.5115
  549MOL0     O74004  12.202   7.616  10.971 -0.1901 -0.1025 -0.8310
  549MOL0     C74005  12.334   7.665  10.965  0.0694  0.7949  0.6623
  549MOL0     C74006  12.357   7.731  10.847 -1.0503 -0.0343  0.3966
  549MOL0     C74007  12.481   7.794  10.819  0.2609  0.1005 -0.7663
  549MOL0     C74008  12.496   7.889  10.702 -0.3485  0.1220 -1.0206
  549MOL0     C74009  12.586   7.757  10.903 -0.5137  0.4528  0.6033
  549MOL0     C74010  12.728   7.786  10.870 -0.0864 -0.0393 -0.0157
  549MOL0     O74011  12.796   7.853  10.961 -0.6799  0.4298 -0.5101
  549MOL0     C74012  12.930   7.873  10.937  0.1526  0.1409  0.4807
  549MOL0     C74013  12.980   7.969  10.844 -0.3000  0.3236  0.0307
  549MOL0     C74014  13.120   7.976  10.818  0.8826 -0.3362 -1.3167
  549MOL0     C74015  13.215   7.914  10.899  0.4440 -0.0713 -0.8740
  549MOL0     O74016  13.349   7.929  10.869  0.2572 -0.1341 -0.1947
  549MOL0     C74017  13.435   7.889  10.973 -0.0972  0.7561 -0.5757
  549MOL0     C74018  13.573   7.939  10.916  0.7965  0.1199 -1.2357
  549MOL0     C74019  13.687   7.884  10.997  0.1837 -0.5898  0.1246
  549MOL0     C74020  13.815   7.955  10.961  0.0193  0.1779 -0.0612
  549MOL0     C74021  13.932   7.921  11.059 -0.1494  0.4087 -0.0149
  549MOL0     C74022  13.904   7.969  11.200 -0.4588  0.3897 -0.3964
  549MOL0     C74023  14.022   7.965  11.293  0.1623 -0.2651  0.6792
  549MOL0     C74024  13.993   8.043  11.419  0.0180 -0.1546 -0.5837
  549MOL0    Cl74025  14.131   8.005  11.527  0.2754  0.2427  0.1761
  549MOL0     C74026  13.168   7.823  10.995  0.0070 -0.1737  0.3193
  549MOL0     C74027  13.023   7.805  11.016  0.0833 -0.8647  0.2997
  549MOL0     O74028  12.768   7.756  10.758  0.5457  0.0279  0.2807
  549MOL0     C74029  12.557   7.689  11.024  0.2154  0.3219  0.1499
  549MOL0     C74030  12.433   7.651  11.061  0.0721  0.4893 -0.5054
  549MOL0     N74031  11.742   7.849  11.286 -1.0084  0.1753 -0.0052
  549MOL0     N74032  11.652   7.944  11.316  0.4624  0.3699  0.6602
  549MOL0     C74033  11.183   8.632  10.471  0.2365 -0.2227 -0.5716
  549MOL0     C74034  11.213   8.747  10.405 -0.1667  0.0943 -0.2015
  549MOL0     C74035  11.141   9.084  10.123 -0.5767 -0.0935 -0.4242
  549MOL0     C74036  11.124   9.078   9.982  1.1590 -1.0146 -0.1385
  549MOL0     C74037  11.198   9.167   9.903  0.3674  0.9747 -0.1682
  549MOL0     C74038  11.292   9.254   9.953 -0.5646 -1.5621 -0.5514
  549MOL0     O74039  11.386   9.331   9.889 -0.6619 -0.0231  0.4005
  549MOL0     C74040  11.389   9.323   9.742  0.2107 -0.4669  0.1466
  549MOL0     C74041  11.526   9.365   9.686  0.1354 -0.1827 -0.0121
  549MOL0     C74042  11.663   9.298   9.740 -0.3891 -0.0721  0.4365
  549MOL0     C74043  11.789   9.382   9.703 -0.3986 -0.7697  0.7615
  549MOL0     C74044  11.915   9.309   9.742  0.3418 -0.6961 -0.1913
  549MOL0     C74045  12.015   9.246   9.766 -0.1515  0.6390  0.3475
  549MOL0     C74046  11.304   9.272  10.095  0.4148  0.1796  0.3961
  549MOL0     C74047  11.239   9.175  10.178  1.0151 -0.6398  0.5973
  549MOL0     H74048  10.927   8.921  10.462  0.0406  1.4566  3.4496
  549MOL0     H74049  10.876   8.719  10.586 -1.3447  3.1004 -1.7170
  549MOL0     H74050  11.201   8.418  10.624 -0.4591  0.9871 -0.9804
  549MOL0     H74051  11.099   8.440  10.762  0.0185  0.6671 -0.9549
  549MOL0     H74052  10.969   8.242  10.710 -1.3488  0.5578 -2.9156
  549MOL0     H74053  11.048   8.221  10.551 -1.8215 -3.0464  0.4969
  549MOL0     H74054  11.163   8.062  10.701 -0.6492 -1.2289 -1.2845
  549MOL0     H74055  11.273   8.192  10.678 -0.3610  1.4581 -0.4448
  549MOL0     H74056  11.170   8.302  10.903 -2.7421  0.1117  1.3772
  549MOL0     H74057  11.072   8.171  10.916 -0.7693 -0.1768 -1.5293
  549MOL0     H74058  11.228   8.019  10.965  0.0526  0.0857 -1.7862
  549MOL0     H74059  11.361   8.115  10.884  0.4769  0.8648  1.8288
  549MOL0     H74060  11.315   8.281  11.064  0.5883 -0.7437  0.4025
  549MOL0     H74061  11.222   8.144  11.153 -0.9018 -1.3548 -2.6843
  549MOL0     H74062  11.503   8.126  11.044 -1.5425  0.2005 -0.0763
  549MOL0     H74063  11.473   8.202  11.201  1.3623  0.8648 -1.1133
  549MOL0     H74064  11.377   7.915  11.159 -1.1211 -0.7938  0.7528
  549MOL0     H74065  11.412   8.014  11.304 -0.7993  4.0597 -0.6638
  549MOL0     H74066  11.578   7.849  11.003  0.0029  2.0563  0.5226
  549MOL0     H74067  11.796   7.601  11.171  1.2148 -2.2890 -2.3803
  549MOL0     H74068  11.747   7.657  11.003  0.8040  1.6016 -1.3127
  549MOL0     H74069  11.991   7.760  11.168  1.1869  0.1304  0.3821
  549MOL0     H74070  11.961   7.762  10.989 -0.0471  1.2202  0.5914
  549MOL0     H74071  11.981   7.518  10.973  0.1663 -0.4931  0.0877
  549MOL0     H74072  11.973   7.492  11.144  2.5363  0.7856  1.8129
  549MOL0     H74073  12.180   7.463  11.103 -2.0463 -0.0682 -0.8089
  549MOL0     H74074  12.171   7.636  11.175 -1.5293  1.5120 -1.0499
  549MOL0     H74075  12.274   7.741  10.778 -1.5511 -1.3609  0.7851
  549MOL0     H74076  12.598   7.889  10.661  0.0968 -0.3273  0.0592
  549MOL0     H74077  12.437   7.852  10.618  0.6761  1.1537 -2.2561
  549MOL0     H74078  12.462   7.990  10.727 -0.7761 -0.7367  2.2813
  549MOL0     H74079  12.909   8.028  10.787 -4.6990 -1.3362  3.1983
  549MOL0     H74080  13.152   8.053  10.748  1.0313  1.6562  0.8206
  549MOL0     H74081  13.417   7.956  11.058  1.7051 -1.7629  1.9710
  549MOL0     H74082  13.447   7.785  11.004  1.2738  1.7251  2.5602
  549MOL0     H74083  13.572   7.917  10.809 -0.3365  1.5990 -1.5785
  549MOL0     H74084  13.572   8.048  10.930 -1.8683  0.0911 -0.6593
  549MOL0     H74085  13.708   7.780  10.969 -1.3829 -1.2372  1.2030
  549MOL0     H74086  13.652   7.898  11.100 -2.8631 -3.1440 -0.3818
  549MOL0     H74087  13.843   7.930  10.858  1.3038 -1.0049  0.5366
  549MOL0     H74088  13.782   8.059  10.975 -3.0750 -0.6466 -0.4686
  549MOL0     H74089  14.024   7.965  11.018  0.4034 -0.0257  0.7418
  549MOL0     H74090  13.936   7.812  11.054  0.1006  0.3536  1.1268
  549MOL0     H74091  13.859   8.069  11.205 -0.1328  0.6033 -1.4135
  549MOL0     H74092  13.828   7.903  11.242  1.3143 -0.6430  1.3683
  549MOL0     H74093  14.104   8.016  11.241  1.3243 -0.4498  2.2591
  549MOL0     H74094  14.049   7.860  11.311 -0.9458 -1.6616 -4.1196
  549MOL0     H74095  13.898   8.015  11.467 -0.8678  0.7350 -1.7741
  549MOL0     H74096  13.979   8.148  11.393 -1.2798  0.6537  2.8460
  549MOL0     H74097  13.230   7.762  11.059 -1.8007 -1.6145  0.7932
  549MOL0     H74098  12.983   7.753  11.102  2.1633 -0.5487  1.5219
  549MOL0     H74099  12.636   7.664  11.094  0.4851 -2.6665 -1.0951
  549MOL0     H74100  12.410   7.596  11.152 -1.6415  0.0139 -1.1860
  549MOL0     H74101  11.248   8.551  10.441  0.4826 -1.1859  2.2533
  549MOL0     H74102  11.304   8.741  10.347 -0.2172 -0.4783 -0.2278
  549MOL0     H74103  11.063   8.996   9.947  2.6918 -2.1804 -0.1857
  549MOL0     H74104  11.162   9.159   9.801 -4.7141  0.2472  1.4176
  549MOL0     H74105  11.354   9.227   9.704  1.8801 -2.1024  2.4289
  549MOL0     H74106  11.325   9.404   9.707 -0.1004  1.1509  3.9059
  549MOL0     H74107  11.527   9.471   9.710  0.4200 -0.1049 -0.3481
  549MOL0     H74108  11.520   9.351   9.578  0.1474 -0.9966  0.0882
  549MOL0     H74109  11.673   9.194   9.707 -0.0691 -0.1647  0.8277
  549MOL0     H74110  11.662   9.292   9.849 -3.0872 -0.3111  0.4827
  549MOL0     H74111  11.785   9.479   9.753  1.8416  0.2363 -0.8297
  549MOL0     H74112  11.793   9.401   9.595  0.5846 -2.1856  0.5213
  549MOL0     H74113  12.115   9.209   9.773 -0.0575  0.6147 -0.8609
  549MOL0     H74114  11.367   9.350  10.135 -1.8123  2.1176  0.3166
  549MOL0     H74115  11.257   9.169  10.285  2.3606 -0.7342  0.3846
  550MOL0     O74116   3.231   4.327   7.299  0.4521  0.1116  0.4284
  550MOL0     C74117   3.292   4.223   7.309 -0.5886  0.0070  0.1661
  550MOL0     O74118   3.241   4.093   7.288 -0.1978 -0.1301  0.4000
  550MOL0     C74119   3.130   4.085   7.210  0.0959  0.2215 -0.0500
  550MOL0     C74120   3.116   4.161   7.092 -0.1319  0.9302 -0.6558
  550MOL0     C74121   2.998   4.158   7.021 -0.4728 -0.2852 -0.7270
  550MOL0     C74122   2.892   4.069   7.060  0.0911 -0.1035  0.0294
  550MOL0     O74123   2.797   4.054   6.966  0.5206 -0.1549  0.3438
  550MOL0     C74124   2.675   4.100   7.020  0.6509 -0.0399  0.0160
  550MOL0     C74125   2.547   4.077   6.936 -0.1066  0.0950  0.2886
  550MOL0     C74126   2.479   4.204   6.884  0.4875 -1.0293 -0.3472
  550MOL0     C74127   2.558   4.288   6.788  0.0258  0.2214  0.3528
  550MOL0     C74128   2.530   4.446   6.814  0.0711 -1.0034  0.1575
  550MOL0     C74129   2.377   4.467   6.778  0.7507  0.0833 -0.4186
  550MOL0     C74130   2.341   4.615   6.790  0.7805  0.2563 -0.2224
  550MOL0     C74131   2.187   4.619   6.769  0.1536  0.4155  0.4298
  550MOL0     N74132   2.125   4.750   6.748  0.2669 -0.2176  0.8969
  550MOL0     C74133   2.099   4.860   6.825 -0.7554 -0.2456 -0.4342
  550MOL0     C74134   2.029   4.947   6.757 -0.1323  0.6424  0.5795
  550MOL0     C74135   1.975   5.074   6.799  0.1439 -0.6819  0.3562
  550MOL0     C74136   1.822   5.064   6.838 -1.0990  0.2626  0.4784
  550MOL0     C74137   1.780   4.978   6.959 -0.2233 -0.3227 -1.0532
  550MOL0     C74138   1.631   4.944   6.955 -1.1890 -0.3427 -0.1473
  550MOL0     O74139   1.576   5.054   7.037 -0.0759 -0.5071  0.5792
  550MOL0     C74140   1.446   5.086   7.014 -0.3915  0.7165  0.0389
  550MOL0     C74141   1.410   5.196   7.083 -0.7369 -0.3670  0.5346
  550MOL0     C74142   1.285   5.253   7.086 -0.2512 -0.0521  0.3601
  550MOL0     C74143   1.250   5.357   7.191 -0.6297 -0.5016 -0.0398
  550MOL0     C74144   1.195   5.201   6.989  0.4784 -0.2540 -0.4909
  550MOL0     C74145   1.066   5.260   6.947  1.0103  0.4376  0.3598
  550MOL0     O74146   1.054   5.387   6.991 -0.3268  0.2223  0.6710
  550MOL0     C74147   0.933   5.452   6.977  1.0644 -0.1309 -1.0647
  550MOL0     C74148   0.918   5.571   6.909  0.3077  0.2927 -0.7151
  550MOL0     C74149   0.786   5.628   6.894 -0.7193 -0.3623 -0.3210
  550MOL0     C74150   0.686   5.574   6.981  0.2761 -0.8203  0.3794
  550MOL0     O74151   0.553   5.613   6.979 -0.2920  0.4241 -0.9210
  550MOL0     C74152   0.508   5.736   6.933 -0.2637  0.3151  0.2938
  550MOL0     C74153   0.362   5.764   6.986 -0.4028  0.0573  1.1423
  550MOL0     C74154   0.262   5.668   6.934 -1.2297  0.0309 -0.5805
  550MOL0     C74155   0.135   5.650   7.019 -0.4276  0.2660 -0.2755
  550MOL0     C74156   0.010   5.729   6.975 -0.0321 -0.1495  1.2228
  550MOL0     C74157  -0.112   5.713   7.072 -0.3043  0.5158  0.2172
  550MOL0     C74158  -0.233   5.797   7.014  0.3651  0.2405 -1.0930
  550MOL0     C74159  -0.254   5.939   7.064 -0.5801 -0.0479  0.8624
  550MOL0    Cl74160  -0.289   5.940   7.243  0.0801  0.2992 -0.2460
  550MOL0     C74161   0.704   5.467   7.064  0.2330  0.2724  0.4081
  550MOL0     C74162   0.823   5.406   7.057  0.9660 -0.2347  0.9086
  550MOL0     O74163   0.976   5.196   6.884 -1.1147 -0.1964 -0.0862
  550MOL0     C74164   1.235   5.102   6.895 -0.5470 -0.0630  0.5950
  550MOL0     C74165   1.362   5.035   6.911  0.2624  0.4195 -0.7603
  550MOL0     N74166   2.009   4.882   6.636  0.1583 -0.2674  0.0975
  550MOL0     N74167   2.077   4.773   6.625 -1.2997  0.0903  0.1815
  550MOL0     C74168   2.916   3.986   7.171 -0.4431 -0.6102 -0.7009
  550MOL0     C74169   3.034   3.990   7.239  0.1452 -0.3060 -0.1456
  550MOL0     C74170   3.436   4.232   7.344  0.0953 -0.6172 -0.2905
  550MOL0     C74171   3.534   4.131   7.317  1.0048 -1.0604  0.3351
  550MOL0     C74172   3.657   4.145   7.361  0.2415  0.3907  0.0092
  550MOL0     C74173   3.706   4.254   7.425 -1.5374 -0.0709 -0.5929
  550MOL0     O74174   3.841   4.252   7.433  0.6434 -0.0229  0.4294
  550MOL0     C74175   3.904   4.379   7.443  0.1980 -0.5264  0.1562
  550MOL0     C74176   4.045   4.349   7.470 -1.1427 -0.0032 -0.0641
  550MOL0     C74177   4.136   4.459   7.511 -0.5934 -0.5591  0.6484
  550MOL0     C74178   4.284   4.413   7.509 -0.6634  0.1754 -0.0168
  550MOL0     C74179   4.377   4.506   7.565 -0.1882 -0.5498  0.5022
  550MOL0     C74180   4.443   4.592   7.621 -0.2900  0.8000 -0.0515
  550MOL0     C74181   3.619   4.358   7.452  0.7441  0.4537  0.5389
  550MOL0     C74182   3.485   4.348   7.407  0.2691 -0.0998 -0.0792
  550MOL0     H74183   3.194   4.230   7.059 -0.6864  0.7950 -2.3394
  550MOL0     H74184   2.999   4.207   6.924 -0.4540  1.7988  0.2749
  550MOL0     H74185   2.648   4.050   7.113  0.0088 -2.9241 -1.5865
  550MOL0     H74186   2.692   4.205   7.042  1.8005 -0.3884  0.9027
  550MOL0     H74187   2.569   4.019   6.845  1.1931 -0.9272  1.2066
  550MOL0     H74188   2.478   4.020   6.999 -0.8580  1.6128  0.8881
  550MOL0     H74189   2.391   4.174   6.826 -0.4121  0.8799 -0.0538
  550MOL0     H74190   2.448   4.271   6.965 -4.3342  0.4522 -3.0331
  550MOL0     H74191   2.660   4.265   6.820 -0.1168 -0.6886  0.1891
  550MOL0     H74192   2.555   4.250   6.686 -4.5906  1.6300 -0.2801
  550MOL0     H74193   2.553   4.487   6.913 -0.4757 -1.5728  0.5304
  550MOL0     H74194   2.599   4.498   6.748 -2.5623 -0.9909 -2.7986
  550MOL0     H74195   2.365   4.424   6.678  1.3564 -2.9444  0.7294
  550MOL0     H74196   2.324   4.414   6.857 -1.0822  1.7996 -0.4177
  550MOL0     H74197   2.373   4.647   6.889 -2.2040 -1.2260  1.3430
  550MOL0     H74198   2.389   4.671   6.709  1.3907 -0.3447 -0.2890
  550MOL0     H74199   2.138   4.580   6.859 -1.0880  0.4824 -0.1962
  550MOL0     H74200   2.166   4.549   6.687 -0.6325 -0.0609  1.0217
  550MOL0     H74201   2.128   4.869   6.929 -3.2913  1.4824  0.2051
  550MOL0     H74202   2.037   5.120   6.876 -1.5736  2.2062  0.1578
  550MOL0     H74203   1.970   5.137   6.710  1.1868 -3.3733 -1.7607
  550MOL0     H74204   1.765   5.018   6.758 -1.3762 -0.5084  1.1025
  550MOL0     H74205   1.779   5.160   6.867 -1.8761  0.1750 -0.3537
  550MOL0     H74206   1.819   5.022   7.051  1.2432 -3.9873  0.2965
  550MOL0     H74207   1.832   4.884   6.935 -0.5878 -0.3240 -1.8818
  550MOL0     H74208   1.604   4.851   7.005 -2.9557  0.0101 -0.3973
  550MOL0     H74209   1.600   4.931   6.851 -0.0340  4.4804 -1.3345
  550MOL0     H74210   1.480   5.231   7.159  0.1608 -2.8765  0.9359
  550MOL0     H74211   1.320   5.363   7.275  0.7341  0.2865 -1.1680
  550MOL0     H74212   1.250   5.450   7.134 -1.1828 -0.5482 -0.1202
  550MOL0     H74213   1.149   5.353   7.232 -1.3293  0.4747 -1.5825
  550MOL0     H74214   1.007   5.618   6.866  0.1452  1.7434  0.4596
  550MOL0     H74215   0.776   5.712   6.825  0.1306  0.7937  0.9116
  550MOL0     H74216   0.576   5.819   6.955 -0.3475  0.5410 -0.2798
  550MOL0     H74217   0.516   5.713   6.826  0.6164  2.6641 -0.2033
  550MOL0     H74218   0.356   5.779   7.095 -1.4950  3.2946  0.7406
  550MOL0     H74219   0.323   5.855   6.940  0.4633  0.3819  1.0302
  550MOL0     H74220   0.305   5.568   6.922  1.0415  1.0214 -1.2719
  550MOL0     H74221   0.240   5.705   6.833  3.6158  0.0768 -1.8907
  550MOL0     H74222   0.096   5.548   7.007  2.7870 -0.9936 -0.8561
  550MOL0     H74223   0.161   5.663   7.124  2.5811 -1.0262 -0.7609
  550MOL0     H74224  -0.014   5.694   6.874  0.9758 -0.5085  1.0938
  550MOL0     H74225   0.042   5.833   6.966  1.8844 -0.6723  1.6123
  550MOL0     H74226  -0.135   5.606   7.070  1.1886  0.1859 -1.2273
  550MOL0     H74227  -0.083   5.759   7.167 -0.2268  0.8544  0.0331
  550MOL0     H74228  -0.328   5.747   7.034 -0.0706  1.8625  1.4028
  550MOL0     H74229  -0.221   5.787   6.906  4.7089  0.3454 -0.8009
  550MOL0     H74230  -0.335   5.988   7.009  0.8950  0.3424 -1.0756
  550MOL0     H74231  -0.164   6.000   7.053 -0.1094 -0.4570  2.1626
  550MOL0     H74232   0.626   5.437   7.133  0.7287 -0.0856  0.8112
  550MOL0     H74233   0.846   5.314   7.109 -1.8641 -0.6839  1.5351
  550MOL0     H74234   1.156   5.067   6.829  0.9124 -2.7451  0.1288
  550MOL0     H74235   1.383   4.962   6.834  0.5002  0.2313 -0.5154
  550MOL0     H74236   2.856   3.897   7.188 -0.4189 -1.0030 -2.4216
  550MOL0     H74237   3.069   3.915   7.310  0.8287 -1.5610 -1.7409
  550MOL0     H74238   3.520   4.048   7.248  0.1157  0.1590 -1.0130
  550MOL0     H74239   3.729   4.067   7.335  1.0442  1.2687 -0.4873
  550MOL0     H74240   3.892   4.439   7.353 -2.1083  1.3366  1.5864
  550MOL0     H74241   3.870   4.423   7.537 -0.8004 -1.4481  0.2498
  550MOL0     H74242   4.078   4.300   7.379 -2.7101  0.7617 -1.0938
  550MOL0     H74243   4.032   4.281   7.555  2.6678 -0.9559 -0.0793
  550MOL0     H74244   4.105   4.498   7.608 -0.0197 -2.1293  1.4963
  550MOL0     H74245   4.122   4.542   7.442  0.0773 -1.4735 -0.6349
  550MOL0     H74246   4.313   4.395   7.405  2.0369 -1.2655  0.8689
  550MOL0     H74247   4.285   4.314   7.555  0.1965  0.0690 -0.2408
  550MOL0     H74248   4.501   4.673   7.659 -1.8106  1.3501  1.1875
  550MOL0     H74249   3.647   4.449   7.505 -0.7040  0.2507  1.7318
  550MOL0     H74250   3.420   4.433   7.422  0.4432  0.2278 -1.0764
  551MOL0     O74251   8.388   4.074   1.965 -0.3776  0.7897  0.4309
  551MOL0     C74252   8.377   4.061   1.840 -0.9639  0.1804 -0.5787
  551MOL0     O74253   8.256   4.042   1.782 -0.0722  0.2984  0.0396
  551MOL0     C74254   8.143   4.112   1.825 -0.3090 -0.7699  0.1019
  551MOL0     C74255   8.142   4.239   1.890 -0.0807  0.1439 -0.4563
  551MOL0     C74256   8.019   4.294   1.919  0.1825 -0.7698  0.5524
  551MOL0     C74257   7.893   4.237   1.888  0.0520  0.1482 -0.2430
  551MOL0     O74258   7.782   4.304   1.929  0.2475 -0.5755  0.6296
  551MOL0     C74259   7.663   4.256   1.865 -0.4821 -0.3418  1.1294
  551MOL0     C74260   7.548   4.353   1.900 -0.1336 -0.5805  0.1800
  551MOL0     C74261   7.421   4.281   1.863 -0.5274  0.0872  0.0729
  551MOL0     C74262   7.296   4.338   1.931  0.3367  0.1099 -0.1533
  551MOL0     C74263   7.209   4.426   1.829 -0.4505  0.0185  0.6478
  551MOL0     C74264   7.252   4.566   1.844 -0.6458  0.6420 -0.0812
  551MOL0     C74265   7.157   4.666   1.765  0.1657 -0.5981 -0.8621
  551MOL0     C74266   7.206   4.814   1.763 -0.0759  0.1876 -0.1657
  551MOL0     N74267   7.145   4.892   1.660  0.0170  0.4664  0.1839
  551MOL0     C74268   7.136   4.851   1.525 -0.8277 -0.2666  0.0678
  551MOL0     C74269   7.085   4.966   1.459  0.3178 -0.2428  0.3654
  551MOL0     C74270   7.044   4.981   1.316  0.0079  0.6318 -0.8147
  551MOL0     C74271   6.886   4.947   1.296  0.0500 -0.5836  0.2882
  551MOL0     C74272   6.801   5.070   1.344 -0.4962  0.1610  0.2162
  551MOL0     C74273   6.653   5.042   1.295 -0.7019  0.0146  0.4280
  551MOL0     O74274   6.582   4.954   1.377  0.7472  0.1929  0.3729
  551MOL0     C74275   6.445   4.969   1.349  0.6561  0.2340 -0.5579
  551MOL0     C74276   6.357   4.897   1.433  0.5070 -0.6259  0.1737
  551MOL0     C74277   6.214   4.887   1.413 -0.5474  0.4198  0.3423
  551MOL0     C74278   6.126   4.817   1.521 -0.3613 -0.0306  0.1428
  551MOL0     C74279   6.149   4.964   1.305 -0.9699  0.6162  0.5882
  551MOL0     C74280   6.008   4.973   1.279 -0.6712  0.8444  0.2515
  551MOL0     O74281   5.949   4.851   1.252  0.1822  0.5438  0.2147
  551MOL0     C74282   5.815   4.841   1.265 -0.6986 -0.2501  0.0279
  551MOL0     C74283   5.758   4.801   1.386  0.5457 -0.3659 -0.3137
  551MOL0     C74284   5.616   4.802   1.395 -0.9385 -1.1522  0.0499
  551MOL0     C74285   5.536   4.837   1.290  0.3193 -0.2461  0.6481
  551MOL0     O74286   5.392   4.836   1.281 -0.0593  0.2201 -0.3375
  551MOL0     C74287   5.312   4.746   1.370  0.2058  0.1141  0.0889
  551MOL0     C74288   5.162   4.757   1.329  0.0643  0.5736 -0.1586
  551MOL0     C74289   5.103   4.899   1.346 -0.0813 -0.5084  0.4451
  551MOL0     C74290   4.981   4.921   1.264  0.0558 -0.2373 -0.3838
  551MOL0     C74291   4.891   5.016   1.334  1.2528 -0.8658  0.3645
  551MOL0     C74292   4.753   5.024   1.267  0.4677 -0.2604 -0.2391
  551MOL0     C74293   4.669   5.156   1.303  0.6999 -0.1101  0.1608
  551MOL0     C74294   4.520   5.129   1.274  0.6042 -0.1648 -0.0760
  551MOL0    Cl74295   4.486   5.055   1.436 -0.2995  0.4266  0.5561
  551MOL0     C74296   5.599   4.875   1.173 -0.6262  0.1994 -0.0116
  551MOL0     C74297   5.740   4.878   1.157  0.1516 -0.5699  0.1458
  551MOL0     O74298   5.970   5.082   1.258  0.6723  0.1675 -1.1213
  551MOL0     C74299   6.248   5.024   1.216  0.9103 -0.8340  0.6945
  551MOL0     C74300   6.384   5.030   1.235  0.0499  0.4339  0.0085
  551MOL0     N74301   7.067   5.070   1.556  0.3068 -0.1072  0.2136
  551MOL0     N74302   7.107   5.024   1.668 -0.2624  0.3176  0.0761
  551MOL0     C74303   7.896   4.114   1.838  0.3933 -0.4896  0.0459
  551MOL0     C74304   8.017   4.054   1.800  0.1439  0.4185 -0.6441
  551MOL0     C74305   8.499   4.058   1.761 -0.0591  0.0099  0.1809
  551MOL0     C74306   8.499   4.086   1.627  0.4603 -0.4965  0.4569
  551MOL0     C74307   8.609   4.091   1.546 -0.7051  0.0241 -0.0431
  551MOL0     C74308   8.734   4.066   1.599 -0.4132  0.1372  0.1183
  551MOL0     O74309   8.836   4.081   1.512 -0.6640  0.0769  0.1804
  551MOL0     C74310   8.953   4.101   1.588 -0.3548 -0.4895  0.0816
  551MOL0     C74311   9.021   3.964   1.616  0.3512  0.7293  0.2423
  551MOL0     C74312   9.074   3.904   1.489  0.4345  0.2074 -0.0429
  551MOL0     C74313   9.133   3.984   1.382  0.4890 -0.3253  0.5727
  551MOL0     C74314   9.252   4.048   1.429 -0.5437 -0.1201 -0.5636
  551MOL0     C74315   9.353   4.076   1.489  0.0438 -1.0150  0.3177
  551MOL0     C74316   8.740   4.022   1.735 -0.3250 -0.5618  0.0791
  551MOL0     C74317   8.621   4.025   1.815 -0.3366  0.3149  0.4839
  551MOL0     H74318   8.229   4.297   1.917 -1.1082  0.6394  2.0777
  551MOL0     H74319   8.012   4.395   1.958 -1.4146  0.7778 -3.2599
  551MOL0     H74320   7.683   4.261   1.757 -0.0057  1.6650  1.2815
  551MOL0     H74321   7.634   4.151   1.879  0.7120 -0.8231  0.2410
  551MOL0     H74322   7.550   4.379   2.006  2.7145  1.0771 -0.1770
  551MOL0     H74323   7.544   4.448   1.846  1.2089  0.3446  1.6120
  551MOL0     H74324   7.421   4.262   1.755  0.7265  1.5629 -0.2127
  551MOL0     H74325   7.429   4.179   1.902 -2.4374  0.3585  1.3049
  551MOL0     H74326   7.236   4.257   1.973  1.5493 -0.6654  0.1390
  551MOL0     H74327   7.335   4.403   2.011  2.2827  1.6694 -2.2471
  551MOL0     H74328   7.222   4.387   1.728 -3.0453 -2.1046  1.0353
  551MOL0     H74329   7.102   4.417   1.853 -0.3899 -0.5025  0.7321
  551MOL0     H74330   7.248   4.584   1.951  1.2883  0.5359  0.0485
  551MOL0     H74331   7.358   4.575   1.816  0.2933 -0.1067  2.8502
  551MOL0     H74332   7.133   4.630   1.665  2.1771 -3.2159 -0.5155
  551MOL0     H74333   7.066   4.673   1.826  0.7015  1.8319 -0.2429
  551MOL0     H74334   7.315   4.817   1.755  0.2275  0.8972  3.0315
  551MOL0     H74335   7.178   4.860   1.858  0.3621  1.0338 -0.4355
  551MOL0     H74336   7.149   4.750   1.485  3.1697 -0.4342  1.2858
  551MOL0     H74337   7.069   5.081   1.278 -0.4168  0.5287 -1.3789
  551MOL0     H74338   7.104   4.908   1.261 -1.0552 -0.8394 -0.0889
  551MOL0     H74339   6.861   4.862   1.361  2.7994 -1.7475 -0.0375
  551MOL0     H74340   6.860   4.928   1.191 -0.7079  0.6884  0.2287
  551MOL0     H74341   6.816   5.162   1.287 -1.1950  0.5806  0.6988
  551MOL0     H74342   6.806   5.091   1.451 -0.6869 -0.5405  0.3696
  551MOL0     H74343   6.669   5.008   1.192  2.0831 -1.0622  1.1218
  551MOL0     H74344   6.595   5.135   1.301 -1.8927 -0.6550 -0.3512
  551MOL0     H74345   6.390   4.828   1.510 -2.0725 -1.6464  0.4889
  551MOL0     H74346   6.040   4.768   1.474 -0.1917 -0.8258  0.6370
  551MOL0     H74347   6.194   4.754   1.580  2.1618  3.8622  1.7837
  551MOL0     H74348   6.081   4.890   1.590  0.3389 -1.0259  1.7066
  551MOL0     H74349   5.817   4.777   1.474 -0.2156  2.1632  1.0013
  551MOL0     H74350   5.558   4.769   1.481 -1.7179 -4.1100 -1.4583
  551MOL0     H74351   5.340   4.640   1.364 -1.5225 -0.3887  0.2636
  551MOL0     H74352   5.315   4.771   1.477 -0.4769  2.5840 -0.4118
  551MOL0     H74353   5.154   4.738   1.221 -0.1608 -0.0472 -0.0351
  551MOL0     H74354   5.097   4.688   1.384  0.3376 -0.2157 -0.8032
  551MOL0     H74355   5.179   4.971   1.314 -0.2583  0.4330  1.9999
  551MOL0     H74356   5.084   4.920   1.452 -0.6042 -0.7197  0.3947
  551MOL0     H74357   5.005   4.960   1.165 -3.7603  0.0989 -1.3111
  551MOL0     H74358   4.940   4.820   1.263  2.0012 -1.1588  2.1390
  551MOL0     H74359   4.937   5.115   1.332 -2.2568  0.9563 -2.3025
  551MOL0     H74360   4.871   4.987   1.437 -3.0449  2.4569  0.7283
  551MOL0     H74361   4.774   5.029   1.159  0.7565  3.1095 -0.1297
  551MOL0     H74362   4.705   4.927   1.282 -2.0052  0.3173 -3.2918
  551MOL0     H74363   4.700   5.237   1.238  0.1006  0.8342  1.0234
  551MOL0     H74364   4.687   5.194   1.404  1.7879  2.5393 -0.9663
  551MOL0     H74365   4.515   5.066   1.185 -0.9807 -0.3379  0.1055
  551MOL0     H74366   4.468   5.223   1.257 -2.6474 -1.4361  1.8986
  551MOL0     H74367   5.533   4.910   1.095 -1.2352  2.3452  1.3904
  551MOL0     H74368   5.781   4.912   1.062 -1.7143  1.4060 -0.0372
  551MOL0     H74369   6.223   5.081   1.127 -0.7268  0.5683  1.9671
  551MOL0     H74370   6.444   5.091   1.169  0.5295  0.8985  0.8549
  551MOL0     H74371   7.810   4.049   1.821  0.3443 -0.9510  1.8924
  551MOL0     H74372   8.017   3.955   1.756 -0.2531  1.1488 -2.3817
  551MOL0     H74373   8.409   4.130   1.587 -0.4181 -1.2629  1.5244
  551MOL0     H74374   8.597   4.134   1.447 -0.2887 -0.0867 -0.1404
  551MOL0     H74375   9.020   4.168   1.533 -2.1719  1.2765 -0.0887
  551MOL0     H74376   8.943   4.158   1.681  2.1865 -0.2752  0.3176
  551MOL0     H74377   8.952   3.890   1.657  1.2310 -0.3243 -0.1111
  551MOL0     H74378   9.099   3.978   1.691  1.0326  1.7257 -0.6112
  551MOL0     H74379   8.996   3.838   1.451  2.2251 -0.4294 -2.9483
  551MOL0     H74380   9.152   3.836   1.524  0.7179  0.6523  0.1989
  551MOL0     H74381   9.061   4.062   1.356  1.7311  0.4526 -0.7610
  551MOL0     H74382   9.149   3.920   1.294 -1.9326 -1.0012  0.5514
  551MOL0     H74383   9.440   4.118   1.535 -0.9078  0.3599  0.9270
  551MOL0     H74384   8.833   3.993   1.783  0.8712  1.1587 -1.0826
  551MOL0     H74385   8.642   4.010   1.921  2.7701  1.4747  0.1322
  552MOL0     O74386   8.699   2.574   3.675 -0.5283 -0.9977 -0.8893
  552MOL0     C74387   8.692   2.466   3.731  0.8730  0.2910 -0.5829
  552MOL0     O74388   8.634   2.358   3.676 -0.6596  0.0111 -0.1234
  552MOL0     C74389   8.545   2.375   3.565 -0.1297  0.8763 -0.2062
  552MOL0     C74390   8.531   2.263   3.486  0.2214 -0.7877  0.6728
  552MOL0     C74391   8.431   2.250   3.389  0.5700 -0.3859 -0.6462
  552MOL0     C74392   8.341   2.357   3.368 -0.1734 -0.3427 -0.4150
  552MOL0     O74393   8.238   2.331   3.288  0.4117  0.4323 -0.1162
  552MOL0     C74394   8.230   2.423   3.175  0.6397 -0.3361 -0.0160
  552MOL0     C74395   8.112   2.408   3.076  0.5899  0.2037  0.2601
  552MOL0     C74396   7.981   2.411   3.145 -0.0355  0.6931  0.0342
  552MOL0     C74397   7.859   2.396   3.048 -0.1371 -0.4815 -0.0257
  552MOL0     C74398   7.742   2.320   3.111  0.1092 -1.0747  0.9785
  552MOL0     C74399   7.613   2.357   3.038 -0.4376  0.3340  0.1978
  552MOL0     C74400   7.488   2.295   3.103  0.5989  0.1496 -0.2710
  552MOL0     C74401   7.374   2.237   3.010 -0.1502 -0.0331 -0.5397
  552MOL0     N74402   7.306   2.341   2.935 -0.2251 -0.4247 -0.5744
  552MOL0     C74403   7.227   2.442   2.996 -0.1153  0.6849 -0.1191
  552MOL0     C74404   7.154   2.489   2.896  1.1817 -0.4006 -0.7065
  552MOL0     C74405   7.056   2.607   2.921 -0.4503  0.3822  0.4367
  552MOL0     C74406   6.978   2.646   2.793 -0.2952  0.3716 -0.7490
  552MOL0     C74407   6.867   2.543   2.774 -1.0107  0.3256  0.4566
  552MOL0     C74408   6.784   2.559   2.648  0.5478 -0.6857  0.2468
  552MOL0     O74409   6.669   2.624   2.696  0.2067 -0.2497 -0.1102
  552MOL0     C74410   6.566   2.551   2.750 -0.1525 -0.0050 -0.8366
  552MOL0     C74411   6.455   2.622   2.770  0.3793  0.1315 -0.2921
  552MOL0     C74412   6.340   2.559   2.825  0.4132  0.5428  0.3231
  552MOL0     C74413   6.229   2.658   2.860 -0.1648  0.4345  0.7951
  552MOL0     C74414   6.333   2.420   2.844 -0.1003 -0.1409  0.2729
  552MOL0     C74415   6.212   2.369   2.891 -1.0068  0.8907 -0.7080
  552MOL0     O74416   6.193   2.365   3.029  0.2805 -0.2475  0.9945
  552MOL0     C74417   6.058   2.350   3.064  0.4529  0.3809 -0.6905
  552MOL0     C74418   5.988   2.230   3.044 -0.1711 -0.3369  0.9694
  552MOL0     C74419   5.852   2.212   3.081 -0.1045  0.2452  0.1489
  552MOL0     C74420   5.769   2.328   3.116  0.2424  0.2462 -0.0362
  552MOL0     O74421   5.641   2.304   3.148 -0.5385  0.4543 -1.1336
  552MOL0     C74422   5.553   2.415   3.164 -0.1682  0.5345 -0.7134
  552MOL0     C74423   5.408   2.369   3.166  0.6934 -0.1729 -1.0376
  552MOL0     C74424   5.308   2.487   3.181  1.7335  0.2487 -0.2511
  552MOL0     C74425   5.178   2.443   3.236  1.0983  0.5079 -0.3175
  552MOL0     C74426   5.052   2.524   3.204  0.2440  0.3382  0.0396
  552MOL0     C74427   4.936   2.482   3.298  0.4223 -0.8448  0.4244
  552MOL0     C74428   4.801   2.552   3.285  0.8493 -0.6196 -0.2227
  552MOL0     C74429   4.712   2.532   3.414 -0.5976  0.5182  0.6567
  552MOL0    Cl74430   4.648   2.373   3.414 -0.1843 -0.4512  0.0448
  552MOL0     C74431   5.837   2.443   3.127 -0.0199 -1.2424 -1.1199
  552MOL0     C74432   5.977   2.454   3.104 -1.0790 -1.1149 -0.5949
  552MOL0     O74433   6.127   2.320   2.819 -0.9444 -0.0134  0.6444
  552MOL0     C74434   6.444   2.344   2.814 -0.3417  0.5986 -0.0631
  552MOL0     C74435   6.561   2.409   2.767  0.5897 -0.1495 -0.2940
  552MOL0     N74436   7.187   2.421   2.776 -0.1507  0.1095 -0.3800
  552MOL0     N74437   7.269   2.328   2.808 -0.1628  0.1219 -0.1392
  552MOL0     C74438   8.354   2.482   3.436 -0.4674  0.5504 -0.9328
  552MOL0     C74439   8.459   2.491   3.536 -0.1354 -0.7097  0.7444
  552MOL0     C74440   8.729   2.440   3.873 -1.2103  0.5510  0.1057
  552MOL0     C74441   8.790   2.544   3.952  0.3772  0.6857 -0.2614
  552MOL0     C74442   8.822   2.519   4.083  0.2958 -0.2605 -0.3594
  552MOL0     C74443   8.818   2.389   4.132 -0.0713  0.8185 -0.2039
  552MOL0     O74444   8.852   2.350   4.258 -0.0722 -0.2320 -0.4708
  552MOL0     C74445   8.979   2.278   4.249 -0.1378  0.0919  0.5615
  552MOL0     C74446   9.051   2.321   4.371 -0.8211 -0.3387 -0.8313
  552MOL0     C74447   9.113   2.458   4.350 -0.5868 -0.7934 -1.4270
  552MOL0     C74448   9.185   2.497   4.487  0.7099 -0.2959 -0.1338
  552MOL0     C74449   9.306   2.418   4.500 -1.1501  0.7492 -0.3991
  552MOL0     C74450   9.410   2.354   4.522 -0.3842  0.3015 -0.9800
  552MOL0     C74451   8.751   2.285   4.064 -0.4027  0.0598 -1.0816
  552MOL0     C74452   8.720   2.312   3.933 -0.4078 -0.0991  0.6561
  552MOL0     H74453   8.597   2.178   3.480 -0.3683 -1.1759 -1.6560
  552MOL0     H74454   8.425   2.157   3.335 -1.2257 -1.8534  1.8448
  552MOL0     H74455   8.223   2.528   3.206  2.2782 -0.5464  1.2488
  552MOL0     H74456   8.323   2.430   3.117  1.0620  2.4051  0.8551
  552MOL0     H74457   8.117   2.489   3.003  1.1754 -1.7903 -2.0563
  552MOL0     H74458   8.140   2.311   3.034  5.1143  2.0974 -1.8281
  552MOL0     H74459   7.971   2.324   3.209  0.0334  1.0950  0.5987
  552MOL0     H74460   7.971   2.492   3.217  2.6034  0.0176  1.2766
  552MOL0     H74461   7.818   2.493   3.016  1.9141 -0.5369 -3.3057
  552MOL0     H74462   7.896   2.341   2.961  0.1004  1.5134 -1.2459
  552MOL0     H74463   7.752   2.212   3.123 -2.1608 -1.3582  0.8920
  552MOL0     H74464   7.736   2.363   3.211 -1.2015  1.3274 -0.0342
  552MOL0     H74465   7.605   2.464   3.017 -0.8711  0.0432 -1.2064
  552MOL0     H74466   7.615   2.310   2.939 -0.6961 -2.4349  1.4002
  552MOL0     H74467   7.529   2.212   3.160 -0.3879 -0.6929 -0.7528
  552MOL0     H74468   7.446   2.351   3.187  1.3441 -2.8541  2.2588
  552MOL0     H74469   7.302   2.175   3.064  0.3731  0.9305  1.3467
  552MOL0     H74470   7.415   2.175   2.929  1.5056 -1.2222  1.1056
  552MOL0     H74471   7.233   2.486   3.095 -2.1274  2.1047 -0.5570
  552MOL0     H74472   6.988   2.591   3.005 -1.0976  2.0389  0.2794
  552MOL0     H74473   7.112   2.691   2.965 -3.6429  1.7797  2.1721
  552MOL0     H74474   7.045   2.661   2.708  1.3545  0.3325  0.4962
  552MOL0     H74475   6.930   2.744   2.807  3.0098  2.5091 -2.8644
  552MOL0     H74476   6.805   2.532   2.863 -1.0133  0.5729  0.4870
  552MOL0     H74477   6.919   2.449   2.757 -1.3970  0.5548 -2.5589
  552MOL0     H74478   6.766   2.459   2.608  2.1223 -0.9171  0.0745
  552MOL0     H74479   6.838   2.619   2.573 -1.7856 -0.9060 -1.7475
  552MOL0     H74480   6.469   2.730   2.764 -3.5233  0.8587  0.5495
  552MOL0     H74481   6.126   2.623   2.858 -0.9564  2.6073  1.0686
  552MOL0     H74482   6.233   2.704   2.959 -1.2966  3.3604 -0.4355
  552MOL0     H74483   6.229   2.744   2.793 -2.2374 -0.1309 -0.0086
  552MOL0     H74484   6.037   2.135   3.026  0.1956 -0.5561  2.8733
  552MOL0     H74485   5.800   2.118   3.063 -0.3867 -0.0909  2.3487
  552MOL0     H74486   5.567   2.468   3.258 -0.1855  2.1182 -1.5660
  552MOL0     H74487   5.570   2.483   3.080  0.5930  1.2400 -0.0064
  552MOL0     H74488   5.389   2.328   3.066  3.0702 -3.0709 -0.4205
  552MOL0     H74489   5.389   2.296   3.244 -0.0906  0.4020 -0.6709
  552MOL0     H74490   5.290   2.535   3.084 -1.4097  1.4255  0.7840
  552MOL0     H74491   5.349   2.560   3.251  0.5189 -0.3613  1.1324
  552MOL0     H74492   5.151   2.344   3.196 -0.3586  0.2981  1.1095
  552MOL0     H74493   5.185   2.454   3.344 -0.7207 -1.8171  0.1128
  552MOL0     H74494   5.020   2.502   3.102  1.2645  0.2412 -0.2672
  552MOL0     H74495   5.068   2.632   3.203 -4.0144  1.1592 -0.3308
  552MOL0     H74496   4.920   2.375   3.317  2.7261 -1.0517  1.5237
  552MOL0     H74497   4.969   2.523   3.394  0.0431  0.0227  0.1984
  552MOL0     H74498   4.739   2.518   3.201  0.2918 -0.0358 -0.0627
  552MOL0     H74499   4.819   2.660   3.278  4.2773 -1.0837  0.0276
  552MOL0     H74500   4.633   2.608   3.407 -0.5232  0.4547 -1.3665
  552MOL0     H74501   4.769   2.542   3.506 -2.3386  0.1712  1.8302
  552MOL0     H74502   5.775   2.526   3.159  0.9094 -1.0701  0.3080
  552MOL0     H74503   6.022   2.553   3.103 -0.5074 -1.3525  0.4478
  552MOL0     H74504   6.441   2.237   2.834 -0.9361  0.4436 -0.9119
  552MOL0     H74505   6.645   2.345   2.742  0.6608  0.0150 -0.4889
  552MOL0     H74506   8.282   2.563   3.441 -2.2023 -0.7390 -3.2431
  552MOL0     H74507   8.464   2.580   3.598  0.4660  0.5901 -1.0997
  552MOL0     H74508   8.810   2.644   3.916  0.0271  0.5083 -0.9644
  552MOL0     H74509   8.859   2.601   4.144 -1.7064 -0.0720  0.7004
  552MOL0     H74510   8.960   2.171   4.236 -1.6212  0.4619 -0.6352
  552MOL0     H74511   9.034   2.307   4.159  1.4446 -2.5449  0.5575
  552MOL0     H74512   9.125   2.243   4.393  0.4570  1.6635  2.7879
  552MOL0     H74513   8.995   2.319   4.465 -0.2102 -0.6729 -0.4667
  552MOL0     H74514   9.033   2.529   4.329 -2.2166 -2.4222 -0.9748
  552MOL0     H74515   9.191   2.462   4.274  0.2730  0.3542 -0.5236
  552MOL0     H74516   9.117   2.489   4.573  1.7207  4.2684  1.4064
  552MOL0     H74517   9.214   2.602   4.494 -0.1480  0.0555 -1.4899
  552MOL0     H74518   9.485   2.278   4.531 -2.4741 -1.8212 -0.3252
  552MOL0     H74519   8.735   2.191   4.115 -0.8210  0.4083 -0.5484
  552MOL0     H74520   8.676   2.235   3.871 -1.4882  0.8967  0.1533
  553MOL0     O74521   3.959   5.164   6.929  0.1022 -0.0685  0.1976
  553MOL0     C74522   4.019   5.077   6.864  0.0347 -0.4132  0.4993
  553MOL0     O74523   3.954   4.994   6.778  0.7708 -0.3523  1.4363
  553MOL0     C74524   3.822   4.992   6.736 -0.7075  0.1492  0.0409
  553MOL0     C74525   3.786   4.892   6.641  0.0325  0.1163 -0.1230
  553MOL0     C74526   3.659   4.871   6.602  0.6340  0.3853  0.2488
  553MOL0     C74527   3.555   4.965   6.640 -0.1281 -1.0887 -0.1232
  553MOL0     O74528   3.427   4.951   6.599  0.2998 -0.8226  0.1542
  553MOL0     C74529   3.387   5.024   6.482  0.1105  0.4721  0.4790
  553MOL0     C74530   3.261   5.111   6.530  0.3066  0.3319 -0.6085
  553MOL0     C74531   3.168   5.138   6.412 -0.0120  0.3267 -0.0936
  553MOL0     C74532   3.051   5.225   6.447 -0.0864  0.0021 -0.4435
  553MOL0     C74533   2.981   5.271   6.318 -0.3326  1.1609 -0.0054
  553MOL0     C74534   2.878   5.371   6.361  0.5371 -0.7345 -0.3403
  553MOL0     C74535   2.810   5.433   6.239  0.5769 -0.1750 -0.0389
  553MOL0     C74536   2.891   5.559   6.195 -0.3450  0.5049  0.0984
  553MOL0     N74537   2.907   5.588   6.056 -0.1030 -0.6249 -0.3386
  553MOL0     C74538   3.025   5.594   5.987  0.1210  0.7654 -0.1891
  553MOL0     C74539   3.001   5.611   5.860  0.1733  0.0838 -0.5676
  553MOL0     C74540   3.093   5.646   5.754 -0.8035 -0.3128 -0.0265
  553MOL0     C74541   3.230   5.700   5.796  0.0746 -0.7125 -0.1569
  553MOL0     C74542   3.212   5.843   5.859 -0.5369  0.5020 -1.1723
  553MOL0     C74543   3.349   5.903   5.902  0.4253 -0.4362  0.6787
  553MOL0     O74544   3.399   5.832   6.019  0.3370 -0.5945  0.9582
  553MOL0     C74545   3.495   5.894   6.093 -0.1038 -0.3150  0.5679
  553MOL0     C74546   3.521   5.837   6.228 -0.0327 -0.3886  0.5757
  553MOL0     C74547   3.627   5.888   6.303 -0.5438  1.3410 -1.0965
  553MOL0     C74548   3.642   5.812   6.431 -0.7340 -0.8818 -0.0636
  553MOL0     C74549   3.722   5.981   6.255 -0.1162 -0.4248  0.7520
  553MOL0     C74550   3.852   6.026   6.311 -0.4082  0.0846  0.5936
  553MOL0     O74551   3.928   6.120   6.245  0.3421  0.0870 -0.7603
  553MOL0     C74552   4.052   6.155   6.290 -0.3225  0.3633 -0.1266
  553MOL0     C74553   4.068   6.278   6.356  0.2846 -0.5354 -0.4529
  553MOL0     C74554   4.203   6.313   6.385 -0.5350  1.1888 -0.3591
  553MOL0     C74555   4.309   6.225   6.360  0.5253  1.1900 -0.0476
  553MOL0     O74556   4.439   6.252   6.392  0.4507  0.9405  0.2948
  553MOL0     C74557   4.483   6.384   6.426 -0.0757 -0.1968 -0.3598
  553MOL0     C74558   4.629   6.374   6.483 -0.7681  0.2191  0.0635
  553MOL0     C74559   4.657   6.481   6.588  0.8752 -0.1508 -0.5366
  553MOL0     C74560   4.723   6.407   6.709 -0.3361  0.2991 -0.7111
  553MOL0     C74561   4.774   6.508   6.806  0.9389 -1.0342  0.8503
  553MOL0     C74562   4.828   6.441   6.930  0.3650  0.0616  0.5489
  553MOL0     C74563   4.970   6.403   6.908  0.5731 -0.1162  0.0816
  553MOL0     C74564   5.036   6.288   6.985  0.4962  0.6934  0.4819
  553MOL0    Cl74565   5.039   6.328   7.157  0.1111  0.1686 -0.0892
  553MOL0     C74566   4.282   6.105   6.294 -0.5172 -0.3279  0.2789
  553MOL0     C74567   4.154   6.073   6.261 -0.0225  0.3164 -0.3122
  553MOL0     O74568   3.894   5.972   6.408  0.0230 -0.8276 -0.0818
  553MOL0     C74569   3.676   6.044   6.127 -0.1218  0.6011  0.6517
  553MOL0     C74570   3.574   5.997   6.046 -0.1287  0.1030  0.3151
  553MOL0     N74571   2.861   5.615   5.848  0.3152  0.2773  0.4087
  553MOL0     N74572   2.804   5.600   5.968 -1.1232 -0.1088  0.4544
  553MOL0     C74573   3.591   5.072   6.722  0.9396  0.5494 -0.3021
  553MOL0     C74574   3.724   5.091   6.768 -0.1609  0.5085  0.2507
  553MOL0     C74575   4.161   5.071   6.875 -0.2223 -0.3924  1.2800
  553MOL0     C74576   4.227   4.959   6.814  0.5359 -0.7850 -0.2623
  553MOL0     C74577   4.365   4.947   6.815  1.0992 -0.0007  0.7898
  553MOL0     C74578   4.451   5.032   6.881  0.3925 -0.1094  0.7283
  553MOL0     O74579   4.583   5.010   6.863  0.7682 -0.1588  0.1032
  553MOL0     C74580   4.672   5.121   6.886 -0.6911 -0.5891 -0.6007
  553MOL0     C74581   4.819   5.087   6.857  0.5638  0.5911 -0.0312
  553MOL0     C74582   4.832   5.041   6.713 -0.5959 -0.0692  0.5492
  553MOL0     C74583   4.981   5.003   6.681  0.6201  0.1123 -0.1931
  553MOL0     C74584   5.019   4.858   6.703 -0.7952 -0.6558  0.4485
  553MOL0     C74585   5.062   4.743   6.710 -0.4307  0.0939  0.2065
  553MOL0     C74586   4.393   5.148   6.942  0.6748 -0.0192 -0.4808
  553MOL0     C74587   4.248   5.163   6.943 -0.4995 -0.2794  0.1188
  553MOL0     H74588   3.865   4.821   6.616  0.0708  0.8903 -2.4366
  553MOL0     H74589   3.636   4.795   6.528  0.7213  0.7287 -0.1315
  553MOL0     H74590   3.476   5.072   6.441  2.8885 -1.5522  3.5493
  553MOL0     H74591   3.354   4.972   6.392  0.9614 -1.4621  1.2198
  553MOL0     H74592   3.209   5.062   6.613  0.1619 -0.5851 -1.2205
  553MOL0     H74593   3.304   5.204   6.569 -2.0174  1.3082 -0.2403
  553MOL0     H74594   3.231   5.188   6.339  1.0612 -1.8685 -0.7567
  553MOL0     H74595   3.134   5.043   6.369  4.7776 -0.9096 -1.7137
  553MOL0     H74596   2.988   5.166   6.515  2.4154  1.6406  3.6903
  553MOL0     H74597   3.083   5.316   6.498 -3.0071 -0.0272  1.7047
  553MOL0     H74598   3.052   5.322   6.252 -0.9330  1.1858 -0.6361
  553MOL0     H74599   2.942   5.187   6.261  0.3064  0.7110  0.2148
  553MOL0     H74600   2.800   5.326   6.424 -0.4185 -1.1394 -1.7505
  553MOL0     H74601   2.915   5.443   6.434  0.3663 -0.1097 -0.8550
  553MOL0     H74602   2.787   5.369   6.153 -1.5931  0.6222 -0.1198
  553MOL0     H74603   2.709   5.458   6.272  0.1905 -2.4768  0.7013
  553MOL0     H74604   2.992   5.554   6.238  0.2954 -0.6353 -1.4570
  553MOL0     H74605   2.852   5.643   6.252 -1.5064 -2.1112  3.5018
  553MOL0     H74606   3.128   5.591   6.021  0.0254 -1.1666  0.0784
  553MOL0     H74607   3.103   5.555   5.695 -2.2547 -1.4246  1.3837
  553MOL0     H74608   3.045   5.730   5.702 -0.0606  1.7854  2.4653
  553MOL0     H74609   3.295   5.719   5.710  0.1251 -0.3095 -0.0337
  553MOL0     H74610   3.283   5.635   5.866  1.2985 -0.5588 -0.8977
  553MOL0     H74611   3.139   5.844   5.941 -0.9105 -1.1303 -1.4450
  553MOL0     H74612   3.167   5.908   5.784  0.6010  0.8493 -1.5654
  553MOL0     H74613   3.332   6.007   5.929  3.1452  0.2328  0.1237
  553MOL0     H74614   3.421   5.895   5.819  0.5242 -0.5969  0.7782
  553MOL0     H74615   3.444   5.766   6.254 -0.4573 -0.2635 -0.2996
  553MOL0     H74616   3.546   5.776   6.470  0.9131 -2.3338  3.0843
  553MOL0     H74617   3.712   5.728   6.434  2.0663  1.3046  2.4820
  553MOL0     H74618   3.684   5.885   6.501  2.6266 -1.9119 -0.8211
  553MOL0     H74619   3.983   6.337   6.388 -0.0071 -1.5258  0.7035
  553MOL0     H74620   4.224   6.404   6.440 -1.0383  1.6535 -0.9181
  553MOL0     H74621   4.478   6.454   6.342 -1.8986 -2.3220 -2.1504
  553MOL0     H74622   4.415   6.419   6.504 -0.9942 -1.4211 -0.5779
  553MOL0     H74623   4.644   6.267   6.500  0.0030 -0.2481 -2.9556
  553MOL0     H74624   4.704   6.388   6.405  0.8066 -1.0501  1.2668
  553MOL0     H74625   4.563   6.526   6.619 -0.3714 -2.3036 -1.0122
  553MOL0     H74626   4.729   6.554   6.550 -0.3875  1.5259  0.1577
  553MOL0     H74627   4.667   6.328   6.760 -0.8207  0.0068 -1.6628
  553MOL0     H74628   4.812   6.350   6.679  0.9670  0.8348  1.8770
  553MOL0     H74629   4.691   6.574   6.834 -0.0791 -2.4493  1.2655
  553MOL0     H74630   4.844   6.584   6.769 -1.7433 -0.5213 -3.9704
  553MOL0     H74631   4.821   6.511   7.014 -2.7447  0.8726 -0.2462
  553MOL0     H74632   4.774   6.349   6.957 -0.7310  0.5168 -0.0234
  553MOL0     H74633   5.022   6.498   6.929  0.1898  0.8893 -2.9887
  553MOL0     H74634   4.986   6.382   6.802 -0.9209  0.6408 -0.3291
  553MOL0     H74635   5.134   6.253   6.952  0.0292 -0.1120 -0.1009
  553MOL0     H74636   4.957   6.214   6.965 -3.2044  3.0378  4.5371
  553MOL0     H74637   4.367   6.044   6.263 -0.8720  0.1126 -1.6805
  553MOL0     H74638   4.124   5.990   6.197  0.1709  0.4608 -0.5952
  553MOL0     H74639   3.733   6.133   6.102  0.4494 -0.0010 -0.2341
  553MOL0     H74640   3.563   6.021   5.941 -0.7666  0.6774  0.5059
  553MOL0     H74641   3.507   5.136   6.748  1.1155  0.4078  0.6498
  553MOL0     H74642   3.745   5.169   6.840 -0.8513  0.2944  0.6968
  553MOL0     H74643   4.166   4.878   6.776  2.9209 -3.1340  0.5782
  553MOL0     H74644   4.411   4.862   6.766 -1.8241 -0.8269 -0.7723
  553MOL0     H74645   4.639   5.212   6.834 -3.7241 -1.4123 -0.3507
  553MOL0     H74646   4.677   5.140   6.994 -0.1033 -0.9637 -0.5622
  553MOL0     H74647   4.859   5.005   6.916 -4.2516 -3.1501 -1.2622
  553MOL0     H74648   4.879   5.176   6.875 -0.9777  2.1017 -1.9468
  553MOL0     H74649   4.800   5.130   6.658  1.3198  0.2872 -0.0850
  553MOL0     H74650   4.776   4.952   6.686  1.2758  0.0783 -4.8986
  553MOL0     H74651   5.056   5.059   6.739  1.2518 -0.4090 -0.4913
  553MOL0     H74652   4.991   5.015   6.573 -0.2930 -4.9663 -1.0600
  553MOL0     H74653   5.111   4.648   6.711 -0.2510 -0.0377 -3.5981
  553MOL0     H74654   4.451   5.225   6.992  1.0340 -1.0517  0.7336
  553MOL0     H74655   4.205   5.251   6.992  0.9754 -0.4273  1.7781
  554MOL0     O74656   6.664   9.196   1.810  0.2273 -0.0044 -0.1065
  554MOL0     C74657   6.733   9.266   1.884  0.9197  0.6392 -0.2025
  554MOL0     O74658   6.795   9.385   1.858 -0.3661 -0.0235 -1.3785
  554MOL0     C74659   6.793   9.448   1.731  0.0765 -0.2663 -0.4488
  554MOL0     C74660   6.717   9.405   1.623  0.1931  0.1776  0.7915
  554MOL0     C74661   6.700   9.496   1.515 -0.6928  0.4234  0.0896
  554MOL0     C74662   6.773   9.615   1.508  0.3633  0.1692 -0.5088
  554MOL0     O74663   6.738   9.674   1.389  0.7086  0.6414  0.3455
  554MOL0     C74664   6.814   9.782   1.345 -0.2176  0.5763  0.0995
  554MOL0     C74665   6.758   9.909   1.414 -1.1026 -0.1101 -0.1348
  554MOL0     C74666   6.644   9.976   1.338  0.0761 -1.1606 -0.8127
  554MOL0     C74667   6.672  10.125   1.311 -0.4777 -0.1133 -0.2501
  554MOL0     C74668   6.545  10.191   1.261 -0.0876 -1.0773  0.9024
  554MOL0     C74669   6.571  10.330   1.206  0.4998  0.8346 -0.1209
  554MOL0     C74670   6.455  10.388   1.118  0.2102  0.0380  0.3305
  554MOL0     C74671   6.314  10.375   1.186  0.0630 -0.5118 -0.4459
  554MOL0     N74672   6.301  10.467   1.304 -0.2462  0.8896 -0.0633
  554MOL0     C74673   6.291  10.601   1.309  0.1147  0.0772  1.0785
  554MOL0     C74674   6.253  10.639   1.441 -0.2972 -0.5530 -0.0828
  554MOL0     C74675   6.222  10.772   1.488 -0.5566 -0.2648 -0.8281
  554MOL0     C74676   6.075  10.804   1.461 -0.5929 -0.7636 -1.5524
  554MOL0     C74677   6.038  10.956   1.470 -0.3648  0.1760  0.5475
  554MOL0     C74678   5.886  10.981   1.466  0.3074 -0.2779 -1.1248
  554MOL0     O74679   5.809  10.904   1.567  0.6644 -0.2319  0.3030
  554MOL0     C74680   5.807  10.931   1.698  0.1060 -0.0754 -0.7843
  554MOL0     C74681   5.863  11.050   1.756 -0.1319  0.4434  0.0297
  554MOL0     C74682   5.862  11.065   1.898 -0.2233  0.7158  0.1493
  554MOL0     C74683   5.911  11.203   1.937  0.2755  0.3717 -0.8076
  554MOL0     C74684   5.803  10.968   1.979  0.6265  0.4202 -0.0907
  554MOL0     C74685   5.777  10.982   2.133 -0.2007  0.5637 -0.5119
  554MOL0     O74686   5.737  10.874   2.207  0.5035 -0.1818  0.0712
  554MOL0     C74687   5.790  10.853   2.331  0.1884 -0.1040 -0.5199
  554MOL0     C74688   5.926  10.871   2.362  0.1930  0.5766 -0.7174
  554MOL0     C74689   5.970  10.840   2.483 -0.5476  0.5346  0.3854
  554MOL0     C74690   5.891  10.799   2.588  0.5995  0.0277  0.1731
  554MOL0     O74691   5.950  10.795   2.711 -0.0088  0.1691 -0.0090
  554MOL0     C74692   5.881  10.850   2.817  1.2887  0.5277  0.5226
  554MOL0     C74693   5.807  10.737   2.885  0.3137  1.1055 -0.4608
  554MOL0     C74694   5.698  10.801   2.969 -1.2216 -0.0744  0.2759
  554MOL0     C74695   5.602  10.694   3.032 -0.1750  0.6707 -0.0460
  554MOL0     C74696   5.492  10.762   3.123 -0.0997 -0.6781 -0.2210
  554MOL0     C74697   5.367  10.675   3.131  0.0700 -0.1228 -0.1964
  554MOL0     C74698   5.265  10.746   3.226 -0.3793  0.1682 -0.3515
  554MOL0     C74699   5.136  10.668   3.261  0.6897  0.2305  0.4104
  554MOL0    Cl74700   5.032  10.692   3.121  0.0451 -0.2190 -0.1038
  554MOL0     C74701   5.752  10.790   2.559 -0.3018  0.5328 -0.6653
  554MOL0     C74702   5.704  10.811   2.431  0.4609 -0.3487 -1.0225
  554MOL0     O74703   5.824  11.084   2.189  0.5096 -0.9558 -0.1017
  554MOL0     C74704   5.758  10.847   1.925 -0.2337 -0.2096 -1.5130
  554MOL0     C74705   5.751  10.838   1.787  0.1982  0.0037 -0.6390
  554MOL0     N74706   6.253  10.514   1.511 -0.2568 -0.5364  0.6199
  554MOL0     N74707   6.277  10.420   1.433 -0.5314  0.6107  0.5615
  554MOL0     C74708   6.850   9.653   1.616 -0.1893  0.3690 -0.2300
  554MOL0     C74709   6.851   9.572   1.728  0.2564 -0.8650  0.0981
  554MOL0     C74710   6.734   9.209   2.021 -0.0777  0.8627  0.4494
  554MOL0     C74711   6.813   9.278   2.115 -0.7237 -0.7419  0.0466
  554MOL0     C74712   6.840   9.225   2.244 -0.1294  0.3034  0.5229
  554MOL0     C74713   6.781   9.102   2.273  0.0881 -0.2201  0.1236
  554MOL0     O74714   6.794   9.026   2.385 -0.3442  0.3877 -0.3601
  554MOL0     C74715   6.893   9.063   2.480  0.1395  0.1702  0.3316
  554MOL0     C74716   6.949   8.949   2.566  0.6282 -0.1238  0.1293
  554MOL0     C74717   6.841   8.915   2.676 -0.0015 -0.0774 -0.7556
  554MOL0     C74718   6.892   8.809   2.765 -0.9537  0.2205 -0.0756
  554MOL0     C74719   7.003   8.853   2.848 -0.4370 -0.6205 -0.2530
  554MOL0     C74720   7.103   8.880   2.903  0.2163  0.1477  0.0151
  554MOL0     C74721   6.689   9.041   2.192  0.7541 -0.5296 -0.0995
  554MOL0     C74722   6.679   9.091   2.058  0.4316 -0.4139 -0.4447
  554MOL0     H74723   6.654   9.317   1.616 -0.8589  0.6161  3.4532
  554MOL0     H74724   6.632   9.471   1.434 -2.4384 -1.3730  1.9839
  554MOL0     H74725   6.920   9.771   1.374 -0.8805  1.7583  3.4813
  554MOL0     H74726   6.819   9.796   1.237 -0.2599  3.4254  0.3831
  554MOL0     H74727   6.730   9.890   1.518  0.7413  0.4994  0.5103
  554MOL0     H74728   6.834   9.986   1.428  0.3339 -1.6280  0.7304
  554MOL0     H74729   6.622   9.926   1.243 -1.8331 -0.5914 -0.7051
  554MOL0     H74730   6.550   9.965   1.393 -1.6255  0.7445 -3.1565
  554MOL0     H74731   6.714  10.190   1.388 -0.1417 -1.6825  0.9407
  554MOL0     H74732   6.739  10.128   1.225 -2.0774  1.7033 -1.5307
  554MOL0     H74733   6.489  10.135   1.185  1.4613 -0.3915 -0.8159
  554MOL0     H74734   6.475  10.192   1.345 -2.1594 -0.0261 -0.7365
  554MOL0     H74735   6.595  10.401   1.286  1.9542 -0.8858  1.0489
  554MOL0     H74736   6.656  10.315   1.138 -0.0524 -0.4487 -0.5727
  554MOL0     H74737   6.489  10.490   1.100  3.9977 -0.9105  1.1334
  554MOL0     H74738   6.446  10.331   1.025  1.8980  1.5069 -0.8031
  554MOL0     H74739   6.304  10.273   1.224  1.0181  0.4320  2.5785
  554MOL0     H74740   6.232  10.398   1.116  1.3610  2.4085 -1.1803
  554MOL0     H74741   6.308  10.666   1.224  2.0704 -2.0156 -0.2443
  554MOL0     H74742   6.234  10.784   1.596 -2.1655  1.6347 -0.7842
  554MOL0     H74743   6.283  10.854   1.448  0.7094  0.6883  2.6361
  554MOL0     H74744   6.011  10.755   1.536  0.8644 -0.4385 -0.0435
  554MOL0     H74745   6.039  10.768   1.364  0.4006 -2.7615 -1.2265
  554MOL0     H74746   6.086  11.007   1.386 -0.4273  0.6012  0.7671
  554MOL0     H74747   6.071  10.994   1.567 -2.1872  2.6692  0.2854
  554MOL0     H74748   5.855  10.949   1.366  2.6654 -1.8068 -1.4504
  554MOL0     H74749   5.850  11.084   1.471 -1.1877 -0.8109 -0.1668
  554MOL0     H74750   5.893  11.132   1.692  1.5073  1.1081  1.5711
  554MOL0     H74751   5.992  11.191   2.009 -0.5978 -0.8536  0.0210
  554MOL0     H74752   5.941  11.259   1.848 -0.8133 -1.3938 -2.3548
  554MOL0     H74753   5.826  11.244   1.993  0.1270 -0.3493 -0.4887
  554MOL0     H74754   5.994  10.888   2.279  1.8323 -1.1182  0.2055
  554MOL0     H74755   6.076  10.844   2.509  0.1818 -0.4330 -2.1758
  554MOL0     H74756   5.947  10.905   2.885  1.1145  1.2221  0.1344
  554MOL0     H74757   5.816  10.930   2.779  0.9832 -0.1420 -0.4092
  554MOL0     H74758   5.761  10.665   2.817 -3.1222  0.3582  2.3594
  554MOL0     H74759   5.874  10.675   2.946 -2.7649 -1.8394  0.1890
  554MOL0     H74760   5.642  10.870   2.905  0.4776  1.7026  0.5999
  554MOL0     H74761   5.740  10.860   3.051 -2.1400  2.4645 -0.9845
  554MOL0     H74762   5.553  10.634   2.955 -2.3221 -0.1452  1.8576
  554MOL0     H74763   5.665  10.627   3.091 -2.0801 -1.2500 -0.0590
  554MOL0     H74764   5.465  10.862   3.088  1.7894  0.9046  2.4454
  554MOL0     H74765   5.516  10.768   3.230 -0.9018  1.7103 -0.1078
  554MOL0     H74766   5.315  10.666   3.035 -0.6044 -1.8477  0.2921
  554MOL0     H74767   5.398  10.575   3.163  1.1721 -0.3690 -1.9360
  554MOL0     H74768   5.237  10.841   3.180 -3.2550  1.3921  3.4064
  554MOL0     H74769   5.303  10.782   3.322 -0.8032  2.3139 -0.9449
  554MOL0     H74770   5.075  10.716   3.339 -2.8857  1.6803 -2.9685
  554MOL0     H74771   5.158  10.563   3.283 -2.4455 -0.6551 -0.1400
  554MOL0     H74772   5.671  10.768   2.627 -0.7378 -0.0635 -1.3597
  554MOL0     H74773   5.599  10.803   2.407 -0.4236  1.3850  1.8002
  554MOL0     H74774   5.730  10.768   1.993  0.5189  0.2967 -0.5950
  554MOL0     H74775   5.702  10.748   1.751  1.0842 -0.0454 -1.7949
  554MOL0     H74776   6.895   9.751   1.624  1.2413 -0.0420 -2.5278
  554MOL0     H74777   6.903   9.607   1.816  0.5454 -1.0277 -0.0033
  554MOL0     H74778   6.849   9.378   2.093  1.1138 -1.1072  1.2141
  554MOL0     H74779   6.902   9.266   2.323 -1.5500  2.6023  0.5389
  554MOL0     H74780   6.976   9.110   2.426 -1.1101  1.2307 -0.7218
  554MOL0     H74781   6.847   9.130   2.554  2.5293  0.4126  1.7329
  554MOL0     H74782   7.037   8.990   2.615  0.0440  3.7240 -1.6113
  554MOL0     H74783   6.988   8.864   2.510 -2.3967  0.1395 -2.7076
  554MOL0     H74784   6.749   8.882   2.627 -0.6685 -0.3308  0.6155
  554MOL0     H74785   6.803   8.998   2.735 -0.9647  0.7374 -2.4524
  554MOL0     H74786   6.927   8.723   2.707  0.2486  2.3589 -2.7935
  554MOL0     H74787   6.811   8.785   2.834 -1.5183  2.0270 -0.0499
  554MOL0     H74788   7.194   8.911   2.952  0.1497  2.7703 -1.3324
  554MOL0     H74789   6.656   8.941   2.219 -0.2754 -0.1692 -0.0102
  554MOL0     H74790   6.634   9.027   1.983  0.6932 -0.2995 -0.6996
  555MOL0     O74791   9.918  10.919   2.885 -0.1687  0.1419 -0.6825
  555MOL0     C74792   9.894  10.896   3.005  0.3624  0.6195 -0.0567
  555MOL0     O74793   9.959  10.962   3.110  0.1219  0.5271 -0.5059
  555MOL0     C74794  10.061  11.044   3.068  0.9896  0.5653  0.5900
  555MOL0     C74795  10.185  11.003   3.104 -0.3725  0.5767  0.0243
  555MOL0     C74796  10.296  11.083   3.092  0.0943 -0.2987  0.7988
  555MOL0     C74797  10.281  11.210   3.031  0.5404 -0.1227  0.2187
  555MOL0     O74798  10.398  11.290   3.028  0.4541  0.2843  0.3289
  555MOL0     C74799  10.413  11.394   2.926 -0.2224  0.2167 -0.4563
  555MOL0     C74800  10.379  11.530   2.992  0.1859 -0.2553 -0.9611
  555MOL0     C74801  10.487  11.587   3.088 -0.5028 -0.3182 -0.8623
  555MOL0     C74802  10.482  11.549   3.237 -0.5455 -0.0210 -0.4313
  555MOL0     C74803  10.585  11.623   3.321  0.0013 -0.3411 -0.2224
  555MOL0     C74804  10.592  11.580   3.468  0.2131  0.3851  0.0256
  555MOL0     C74805  10.659  11.441   3.493 -0.0572 -0.7562  0.4708
  555MOL0     C74806  10.786  11.444   3.577 -0.0297 -0.4176 -0.3600
  555MOL0     N74807  10.901  11.510   3.501 -0.4997 -0.4559 -0.7190
  555MOL0     C74808  10.971  11.462   3.390  0.1544 -0.7631  0.2211
  555MOL0     C74809  11.041  11.573   3.341 -0.1307 -0.2088  0.2075
  555MOL0     C74810  11.140  11.566   3.233  0.1526  0.2112  0.8386
  555MOL0     C74811  11.071  11.505   3.100 -1.1896  0.3355  0.1601
  555MOL0     C74812  10.932  11.560   3.053  0.0753 -0.1509  0.0196
  555MOL0     C74813  10.938  11.711   3.043  0.3759  0.1769  0.5982
  555MOL0     O74814  10.803  11.744   3.009  0.2020 -0.0360 -0.6284
  555MOL0     C74815  10.796  11.878   2.995  0.5142  0.0942  0.3996
  555MOL0     C74816  10.745  11.920   2.875 -0.7472 -0.2032  0.3904
  555MOL0     C74817  10.758  12.055   2.839  0.2852 -0.0732 -0.1055
  555MOL0     C74818  10.706  12.092   2.700  0.0593 -0.2451  0.4113
  555MOL0     C74819  10.788  12.154   2.940 -0.2379 -0.1891  0.8228
  555MOL0     C74820  10.798  12.307   2.919  0.4273 -0.2302 -0.1998
  555MOL0     O74821  10.791  12.351   2.795 -0.8562 -0.4969  0.4553
  555MOL0     C74822  10.798  12.491   2.771  0.8269 -0.1249 -0.6334
  555MOL0     C74823  10.921  12.559   2.775  0.0846 -0.6231  0.1292
  555MOL0     C74824  10.929  12.690   2.743 -0.0183 -0.6929 -1.1615
  555MOL0     C74825  10.818  12.773   2.713 -0.4766  0.2205  0.1395
  555MOL0     O74826  10.836  12.906   2.700 -0.0162 -0.0637 -0.5497
  555MOL0     C74827  10.742  12.973   2.615 -0.0650  0.0735  0.7282
  555MOL0     C74828  10.801  13.113   2.600  0.6523  0.2359  0.1119
  555MOL0     C74829  10.705  13.208   2.539  0.7173  0.9846  0.4557
  555MOL0     C74830  10.721  13.210   2.389  0.5239 -0.0160  0.9249
  555MOL0     C74831  10.838  13.296   2.346  0.0777 -0.0347 -0.5839
  555MOL0     C74832  10.897  13.269   2.207  0.4449 -0.0241 -0.7459
  555MOL0     C74833  11.024  13.350   2.167  0.1775  0.0946  0.3120
  555MOL0     C74834  11.003  13.503   2.151  0.5248  0.5351 -0.6100
  555MOL0    Cl74835  11.157  13.596   2.106  0.0281 -0.2135 -0.2083
  555MOL0     C74836  10.692  12.704   2.716 -0.6872 -0.4004 -0.7340
  555MOL0     C74837  10.684  12.563   2.736 -0.2811 -0.3220  0.1417
  555MOL0     O74838  10.794  12.380   3.019 -0.5020  0.6943  0.2818
  555MOL0     C74839  10.827  12.103   3.065 -0.6774 -0.5522 -0.3849
  555MOL0     C74840  10.836  11.965   3.090  0.2687 -0.1894 -0.3566
  555MOL0     N74841  11.016  11.682   3.431 -0.3367 -0.3354  0.2846
  555MOL0     N74842  10.926  11.647   3.514 -0.1716  0.5626  0.0791
  555MOL0     C74843  10.151  11.255   2.994 -0.5861 -0.5630  0.2086
  555MOL0     C74844  10.050  11.171   3.008 -0.6725 -0.3798 -0.1490
  555MOL0     C74845   9.769  10.823   3.036  1.2324 -0.9848 -0.2013
  555MOL0     C74846   9.678  10.802   2.930  0.2162 -0.3632  0.7097
  555MOL0     C74847   9.552  10.740   2.952 -0.4184  0.4860  0.5210
  555MOL0     C74848   9.520  10.691   3.074  0.0778 -0.5869 -0.6675
  555MOL0     O74849   9.410  10.619   3.077  0.1628 -0.7071  0.2886
  555MOL0     C74850   9.372  10.546   3.192  1.2782 -0.9308  0.5431
  555MOL0     C74851   9.257  10.441   3.175 -0.7206 -0.1308  0.3414
  555MOL0     C74852   9.303  10.315   3.095 -0.5352 -1.1956 -0.4570
  555MOL0     C74853   9.297  10.189   3.192 -0.1413 -0.2270 -0.1162
  555MOL0     C74854   9.391  10.182   3.310  0.3543 -0.9417  0.3103
  555MOL0     C74855   9.465  10.181   3.408 -0.4928 -0.0733  0.2064
  555MOL0     C74856   9.603  10.719   3.183 -0.3773  1.1855  0.3089
  555MOL0     C74857   9.727  10.779   3.161  0.2639  0.3068  1.3099
  555MOL0     H74858  10.203  10.909   3.154  1.7463  2.6840  3.7649
  555MOL0     H74859  10.397  11.052   3.116  1.6041  1.2953 -2.7581
  555MOL0     H74860  10.516  11.394   2.890 -0.2231  0.7663 -0.4741
  555MOL0     H74861  10.345  11.382   2.841 -2.9199  2.0091  1.2850
  555MOL0     H74862  10.375  11.600   2.908 -2.2534  0.6593 -0.1689
  555MOL0     H74863  10.282  11.524   3.042 -1.2547 -1.0510 -3.6689
  555MOL0     H74864  10.580  11.552   3.043  0.5500  0.3169  0.7402
  555MOL0     H74865  10.483  11.697   3.085  1.8387  0.0431  3.0622
  555MOL0     H74866  10.383  11.555   3.284  0.7602  0.2762  2.4763
  555MOL0     H74867  10.506  11.442   3.230 -0.5282  0.0532 -1.9352
  555MOL0     H74868  10.684  11.611   3.275  1.2278 -0.3450  2.2646
  555MOL0     H74869  10.557  11.729   3.316  5.6874  1.4829 -0.7520
  555MOL0     H74870  10.646  11.659   3.521 -1.2067  2.8535 -1.9846
  555MOL0     H74871  10.493  11.560   3.509  0.6899  1.5299  1.8253
  555MOL0     H74872  10.585  11.376   3.541 -1.8130  1.2739  0.6839
  555MOL0     H74873  10.690  11.409   3.393 -0.1938  1.6150 -0.4008
  555MOL0     H74874  10.818  11.353   3.628 -1.4214  0.3447  2.0441
  555MOL0     H74875  10.781  11.512   3.663  1.0263  0.5201 -1.0128
  555MOL0     H74876  10.963  11.357   3.364 -3.5919 -0.1087 -2.1770
  555MOL0     H74877  11.186  11.662   3.208  1.7916 -1.0536 -1.4077
  555MOL0     H74878  11.211  11.490   3.266  0.0670  0.2596  1.1410
  555MOL0     H74879  11.068  11.396   3.112  1.1077  0.1092 -0.7928
  555MOL0     H74880  11.143  11.530   3.022  1.5212  0.1647  2.4649
  555MOL0     H74881  10.850  11.542   3.123  0.0867  1.6835  0.5598
  555MOL0     H74882  10.908  11.511   2.959 -2.1854  1.4363 -0.3010
  555MOL0     H74883  11.004  11.735   2.959  0.9868 -0.5227  0.8720
  555MOL0     H74884  10.973  11.743   3.141 -2.0398  1.9906  0.9827
  555MOL0     H74885  10.712  11.841   2.809  2.7484 -1.0179 -0.5628
  555MOL0     H74886  10.779  12.161   2.657 -1.8201  2.8406  1.8609
  555MOL0     H74887  10.703  12.008   2.630 -1.6301  0.6415 -0.6569
  555MOL0     H74888  10.606  12.136   2.701  1.0668  2.2345  1.3102
  555MOL0     H74889  11.012  12.521   2.821 -0.0824  0.9284  1.8535
  555MOL0     H74890  11.024  12.743   2.745  0.7836 -2.0757 -1.2208
  555MOL0     H74891  10.733  12.930   2.515  1.7652 -2.8006  1.6629
  555MOL0     H74892  10.642  12.987   2.658 -1.2289  1.6864 -2.1483
  555MOL0     H74893  10.831  13.140   2.702  1.6570 -0.6417  0.0614
  555MOL0     H74894  10.889  13.101   2.537  0.2397  1.6302 -0.7998
  555MOL0     H74895  10.724  13.311   2.573  1.8514  1.2453 -0.8805
  555MOL0     H74896  10.602  13.185   2.568  0.2945  2.3422  0.1148
  555MOL0     H74897  10.729  13.104   2.363 -1.0073  0.0355  0.0969
  555MOL0     H74898  10.629  13.239   2.338  0.2159 -3.3257 -0.6964
  555MOL0     H74899  10.914  13.287   2.424 -2.1026  2.6298  2.0916
  555MOL0     H74900  10.823  13.403   2.363  2.2618 -0.0147  1.6527
  555MOL0     H74901  10.917  13.162   2.206 -0.3036 -0.2025  0.6543
  555MOL0     H74902  10.832  13.285   2.120  1.0798  1.1696 -1.0220
  555MOL0     H74903  11.049  13.315   2.067 -1.2581 -0.0614 -0.0104
  555MOL0     H74904  11.111  13.327   2.230  0.3510 -1.6938 -0.5211
  555MOL0     H74905  10.967  13.548   2.244  3.2363 -1.0189  1.3470
  555MOL0     H74906  10.931  13.514   2.070 -1.4857 -0.1698  0.9842
  555MOL0     H74907  10.602  12.763   2.702  0.1268  0.8443 -0.9023
  555MOL0     H74908  10.590  12.509   2.728  0.4552 -1.8082  1.0296
  555MOL0     H74909  10.856  12.176   3.140  0.8295 -1.5831  0.0658
  555MOL0     H74910  10.862  11.928   3.188  1.3777  0.3903 -0.4134
  555MOL0     H74911  10.146  11.354   2.951 -0.0623 -0.1055  1.1911
  555MOL0     H74912   9.950  11.201   2.976  0.0556 -0.0328 -2.2456
  555MOL0     H74913   9.708  10.837   2.832 -2.2968  1.4973  0.4910
  555MOL0     H74914   9.487  10.706   2.872 -1.7635  0.0127  1.7763
  555MOL0     H74915   9.460  10.493   3.232  4.0024  2.1597 -0.9362
  555MOL0     H74916   9.340  10.623   3.262 -0.6714 -2.9818  2.0509
  555MOL0     H74917   9.176  10.496   3.127 -0.2090 -0.5511 -1.0461
  555MOL0     H74918   9.232  10.417   3.279  2.3201 -0.9418  0.9869
  555MOL0     H74919   9.403  10.322   3.051 -0.3725  1.3025  0.2014
  555MOL0     H74920   9.232  10.293   3.015  1.7203 -4.1192 -1.8831
  555MOL0     H74921   9.323  10.099   3.135  1.5406 -0.8080  1.4618
  555MOL0     H74922   9.192  10.169   3.214  0.0951 -1.5087 -0.0667
  555MOL0     H74923   9.514  10.164   3.502  1.0299  0.9709 -0.3583
  555MOL0     H74924   9.585  10.686   3.285  2.4158 -0.5061  0.3781
  555MOL0     H74925   9.796  10.773   3.243  2.6701  0.0876 -0.6167
  556MOL0     O74926   0.760  10.958   4.548 -0.5996  0.4026 -0.1951
  556MOL0     C74927   0.808  10.894   4.647  0.9204  0.1694  0.7997
  556MOL0     O74928   0.752  10.878   4.775 -0.2729 -0.1065 -0.6788
  556MOL0     C74929   0.638  10.946   4.817  0.2932  0.4053  0.4198
  556MOL0     C74930   0.547  10.880   4.906 -0.8682  0.0883 -0.0531
  556MOL0     C74931   0.432  10.938   4.943 -0.4032 -0.2021 -0.7599
  556MOL0     C74932   0.419  11.078   4.908  1.4131 -0.0212 -0.3049
  556MOL0     O74933   0.309  11.135   4.953  0.5947  0.0757  0.0381
  556MOL0     C74934   0.206  11.152   4.856  0.5584 -0.0430  0.9160
  556MOL0     C74935   0.108  11.278   4.887 -0.3715 -0.4741  0.1082
  556MOL0     C74936   0.071  11.276   5.041 -0.0137  0.5670 -0.8290
  556MOL0     C74937  -0.045  11.366   5.075 -0.1391 -0.7047 -0.1569
  556MOL0     C74938  -0.175  11.285   5.077  0.4819 -0.1646 -0.0447
  556MOL0     C74939  -0.291  11.377   5.123 -0.4802  1.0447 -0.1334
  556MOL0     C74940  -0.423  11.308   5.127  1.1424  0.5446  0.3178
  556MOL0     C74941  -0.547  11.407   5.150  0.5204 -0.3675  0.4561
  556MOL0     N74942  -0.661  11.332   5.208  0.2972 -0.4095  0.0015
  556MOL0     C74943  -0.746  11.254   5.126 -1.0475 -0.7105 -0.6095
  556MOL0     C74944  -0.873  11.283   5.170 -0.1126  0.3260 -0.1207
  556MOL0     C74945  -1.005  11.233   5.104  0.6453  0.8812  0.1073
  556MOL0     C74946  -1.116  11.213   5.195 -0.3206  0.0130 -0.0168
  556MOL0     C74947  -1.230  11.167   5.103 -0.0058  0.6849 -0.2478
  556MOL0     C74948  -1.375  11.166   5.175 -0.1339 -0.0535 -0.6787
  556MOL0     O74949  -1.386  11.060   5.270  0.1683  0.2830  0.5468
  556MOL0     C74950  -1.505  11.036   5.336 -0.8976  0.2097 -0.4961
  556MOL0     C74951  -1.489  10.939   5.425 -1.4035 -0.2062 -0.9582
  556MOL0     C74952  -1.596  10.894   5.512  0.1263  0.1987 -0.2925
  556MOL0     C74953  -1.551  10.773   5.594  0.2789 -0.0899 -0.1589
  556MOL0     C74954  -1.722  10.953   5.512  0.2169 -0.5361 -0.3037
  556MOL0     C74955  -1.838  10.923   5.615 -0.5625 -0.5877  0.6563
  556MOL0     O74956  -1.951  10.984   5.580  0.0161 -0.9585 -0.2089
  556MOL0     C74957  -2.057  10.964   5.658  0.2709 -0.2843 -0.3800
  556MOL0     C74958  -2.080  11.042   5.765 -0.4414  0.5976  0.9352
  556MOL0     C74959  -2.188  11.015   5.855 -0.2247 -0.6964  0.5001
  556MOL0     C74960  -2.270  10.913   5.830 -0.0375  0.2089  0.2292
  556MOL0     O74961  -2.379  10.879   5.914  0.0183 -0.3002  0.0852
  556MOL0     C74962  -2.399  10.953   6.042  0.4834  0.4786  0.3279
  556MOL0     C74963  -2.539  10.931   6.093  0.4172 -0.3799 -0.3564
  556MOL0     C74964  -2.555  10.788   6.147 -0.0262 -0.6221 -0.3443
  556MOL0     C74965  -2.691  10.761   6.206  0.3926 -0.2213  0.6879
  556MOL0     C74966  -2.690  10.630   6.288  0.0598  0.8100 -0.1148
  556MOL0     C74967  -2.600  10.632   6.408  0.3287 -0.2745  0.0381
  556MOL0     C74968  -2.608  10.496   6.479  0.4540 -0.3888 -0.4429
  556MOL0     C74969  -2.563  10.507   6.623  0.0491  0.3013 -0.3216
  556MOL0    Cl74970  -2.673  10.620   6.710 -0.0261  0.0557  0.0042
  556MOL0     C74971  -2.254  10.831   5.718 -0.0207 -0.0990 -0.2938
  556MOL0     C74972  -2.141  10.858   5.634 -0.6758  0.0389 -0.5719
  556MOL0     O74973  -1.824  10.849   5.710 -0.3383  0.1365  0.1705
  556MOL0     C74974  -1.742  11.049   5.408  0.2884  0.1535  0.1957
  556MOL0     C74975  -1.635  11.094   5.325  0.5710  0.4897  0.0553
  556MOL0     N74976  -0.861  11.363   5.285  0.3675 -0.4654 -0.6993
  556MOL0     N74977  -0.734  11.385   5.309  0.4480  0.0922  0.7308
  556MOL0     C74978   0.502  11.148   4.820  0.0445 -0.5414 -0.0390
  556MOL0     C74979   0.621  11.084   4.781 -0.2026  0.0071  0.0145
  556MOL0     C74980   0.932  10.817   4.616  0.2450  0.8228  0.4593
  556MOL0     C74981   1.021  10.770   4.717 -0.1081 -0.8970  0.5434
  556MOL0     C74982   1.146  10.723   4.697 -0.3381 -0.1267 -0.3348
  556MOL0     C74983   1.192  10.711   4.567 -0.9281  0.1238  0.7482
  556MOL0     O74984   1.315  10.684   4.521  0.5911  0.1786  0.2601
  556MOL0     C74985   1.414  10.636   4.616 -0.2474 -0.1020 -0.3491
  556MOL0     C74986   1.514  10.553   4.540 -0.5073 -0.4178 -0.0588
  556MOL0     C74987   1.627  10.485   4.619 -0.1727  0.1152 -0.1625
  556MOL0     C74988   1.731  10.405   4.521  0.0008  0.3506  0.3911
  556MOL0     C74989   1.694  10.273   4.477  1.5987  0.6009  0.3179
  556MOL0     C74990   1.663  10.171   4.419  0.8191  0.2922  1.3516
  556MOL0     C74991   1.110  10.764   4.461  0.0646  0.5149 -0.5560
  556MOL0     C74992   0.986  10.813   4.486  0.1265  0.2274 -0.8093
  556MOL0     H74993   0.576  10.778   4.927  1.1245  0.9824  1.8774
  556MOL0     H74994   0.354  10.890   5.001 -0.8495  2.1849  0.7687
  556MOL0     H74995   0.239  11.172   4.754 -0.1505 -2.9029  0.0263
  556MOL0     H74996   0.144  11.062   4.862  0.6200 -0.0469  1.5436
  556MOL0     H74997   0.155  11.375   4.869 -2.5524  0.9882  1.6921
  556MOL0     H74998   0.014  11.278   4.831  0.5999 -1.4337 -1.5964
  556MOL0     H74999   0.049  11.174   5.073  0.0031  0.8702  0.1813
  556MOL0     H75000   0.163  11.306   5.093  0.1485  0.2405 -0.9252
  556MOL0     H75001  -0.028  11.422   5.168  1.7281 -3.0096  0.9711
  556MOL0     H75002  -0.055  11.435   4.991 -0.4359 -0.3593  0.1580
  556MOL0     H75003  -0.201  11.252   4.976  1.7031  0.2376 -0.5058
  556MOL0     H75004  -0.172  11.195   5.140 -0.3288 -2.3456 -2.9234
  556MOL0     H75005  -0.268  11.419   5.222  0.0749 -0.7632  0.5339
  556MOL0     H75006  -0.294  11.455   5.046 -1.4105 -0.4053 -1.6050
  556MOL0     H75007  -0.437  11.238   5.044  1.3442 -1.4140  1.8717
  556MOL0     H75008  -0.414  11.250   5.220 -0.4989  0.7295  0.6298
  556MOL0     H75009  -0.568  11.439   5.048  1.2095 -1.0017  0.0993
  556MOL0     H75010  -0.520  11.490   5.216  0.3013  0.0242  0.0483
  556MOL0     H75011  -0.715  11.193   5.041  0.3792 -0.1360 -0.5368
  556MOL0     H75012  -1.033  11.297   5.020 -2.3738 -1.6708 -1.0415
  556MOL0     H75013  -0.977  11.137   5.058 -0.5731  0.3279  0.4956
  556MOL0     H75014  -1.146  11.307   5.244  2.7277  0.7599  0.6209
  556MOL0     H75015  -1.088  11.141   5.272  1.3584 -0.6448 -1.2068
  556MOL0     H75016  -1.207  11.070   5.057  1.3197  0.8184  0.0838
  556MOL0     H75017  -1.239  11.228   5.013  1.1944  3.1471  1.2096
  556MOL0     H75018  -1.451  11.138   5.102 -1.4685 -4.0524  1.9328
  556MOL0     H75019  -1.397  11.259   5.228  1.4479 -1.4032  2.6327
  556MOL0     H75020  -1.390  10.894   5.429 -0.7621  1.2436  0.7234
  556MOL0     H75021  -1.573  10.681   5.538 -2.3322 -0.2896  1.0568
  556MOL0     H75022  -1.445  10.782   5.617  0.4526 -2.4753  0.3007
  556MOL0     H75023  -1.601  10.774   5.691  3.1658  2.1246  1.4491
  556MOL0     H75024  -1.999  11.111   5.781  3.2120 -3.0114 -0.1801
  556MOL0     H75025  -2.180  11.083   5.940 -0.1665  0.5014 -0.4283
  556MOL0     H75026  -2.325  10.909   6.109 -0.0532 -0.5643  0.2624
  556MOL0     H75027  -2.390  11.062   6.037  1.8491  0.3489 -0.3351
  556MOL0     H75028  -2.556  10.993   6.181  0.1948 -1.8389  0.6646
  556MOL0     H75029  -2.611  10.944   6.012 -1.7648 -0.7032  1.4574
  556MOL0     H75030  -2.470  10.758   6.209 -0.0025  2.2692  1.1532
  556MOL0     H75031  -2.531  10.724   6.061  3.4157  0.9666 -0.7246
  556MOL0     H75032  -2.717  10.847   6.268  0.3187  2.9369 -3.3891
  556MOL0     H75033  -2.771  10.738   6.136  0.1227  1.0368  0.5637
  556MOL0     H75034  -2.665  10.546   6.222  0.0521 -0.9749  2.0189
  556MOL0     H75035  -2.790  10.602   6.322  0.3369 -0.9899 -0.6749
  556MOL0     H75036  -2.492  10.642   6.396  0.6863  0.1643  2.8286
  556MOL0     H75037  -2.640  10.713   6.470 -1.5461 -1.5285  0.5771
  556MOL0     H75038  -2.555  10.417   6.426 -0.6762 -1.6454  0.2510
  556MOL0     H75039  -2.711  10.460   6.483 -0.5050  1.7844 -2.7901
  556MOL0     H75040  -2.469  10.559   6.641 -0.4961  1.0375  0.4806
  556MOL0     H75041  -2.548  10.406   6.661 -0.7560 -0.3303 -1.6045
  556MOL0     H75042  -2.314  10.742   5.702  0.9944 -0.6423 -1.2964
  556MOL0     H75043  -2.109  10.791   5.555  1.5190 -0.1631  0.4114
  556MOL0     H75044  -1.841  11.093   5.399  0.9121  1.7316  0.6505
  556MOL0     H75045  -1.652  11.155   5.237 -0.9505  0.0355  0.0137
  556MOL0     H75046   0.475  11.249   4.791  0.0761 -0.2023  1.0784
  556MOL0     H75047   0.685  11.141   4.715  1.6345 -0.3416  1.4111
  556MOL0     H75048   0.989  10.780   4.821 -0.2215 -0.1152  0.4403
  556MOL0     H75049   1.210  10.685   4.776 -1.8310 -0.1121  0.9088
  556MOL0     H75050   1.462  10.716   4.673  4.6263 -2.0997 -1.1060
  556MOL0     H75051   1.379  10.565   4.691 -1.7735  0.6351 -0.3314
  556MOL0     H75052   1.570  10.617   4.470  0.1256  0.7444  1.4478
  556MOL0     H75053   1.461  10.476   4.485 -3.9666  0.1573  2.1922
  556MOL0     H75054   1.582  10.418   4.693  2.2446 -2.0686 -0.4854
  556MOL0     H75055   1.683  10.564   4.669  0.8901  1.4777 -3.2725
  556MOL0     H75056   1.824  10.401   4.578 -1.4593 -0.4571  2.8848
  556MOL0     H75057   1.739  10.461   4.427  1.2595 -2.3509 -1.2404
  556MOL0     H75058   1.639  10.081   4.367 -1.2722  2.1544 -1.1474
  556MOL0     H75059   1.149  10.761   4.359  0.6905 -1.0121 -0.3096
  556MOL0     H75060   0.923  10.844   4.403 -1.2422 -1.2672 -0.3886
  557MOL0     O75061  11.234   3.013   0.340 -0.4334 -0.3654  1.1923
  557MOL0     C75062  11.291   3.023   0.452  0.9146  0.1420  0.2973
  557MOL0     O75063  11.396   2.948   0.498  0.2196  0.6772  0.2671
  557MOL0     C75064  11.463   2.854   0.426 -0.2760 -0.7446 -0.0988
  557MOL0     C75065  11.518   2.743   0.508 -0.4638 -0.0818  0.3513
  557MOL0     C75066  11.600   2.643   0.440 -0.8076 -0.7894 -0.1272
  557MOL0     C75067  11.629   2.656   0.299  0.7435 -0.3691  0.1866
  557MOL0     O75068  11.710   2.563   0.235 -0.3812  0.7015 -0.4678
  557MOL0     C75069  11.771   2.583   0.106  0.0491 -0.6215 -0.3350
  557MOL0     C75070  11.917   2.556   0.104 -0.3026  0.7894  0.6286
  557MOL0     C75071  11.998   2.621   0.217  0.5489 -0.1288  0.0061
  557MOL0     C75072  12.006   2.778   0.212  0.4451 -0.4865 -0.0064
  557MOL0     C75073  12.121   2.826   0.128 -0.7617 -0.3475  0.4749
  557MOL0     C75074  12.145   2.974   0.136  0.0851 -1.1222 -0.1144
  557MOL0     C75075  12.190   3.022   0.280  0.4273  0.8369 -0.5535
  557MOL0     C75076  12.151   3.167   0.313 -0.1190 -0.6127 -0.5967
  557MOL0     N75077  12.020   3.208   0.272 -0.6308 -0.4960 -0.2927
  557MOL0     C75078  11.907   3.154   0.305  0.7443  1.0544  1.2643
  557MOL0     C75079  11.800   3.227   0.247 -0.2586 -1.3032  0.1045
  557MOL0     C75080  11.648   3.201   0.260  0.2520  1.1609  0.2365
  557MOL0     C75081  11.580   3.256   0.391 -0.1791  0.9194 -0.7024
  557MOL0     C75082  11.603   3.396   0.429 -0.7250  0.0052 -0.7824
  557MOL0     C75083  11.546   3.495   0.324 -0.9573 -0.3734 -0.0639
  557MOL0     O75084  11.401   3.499   0.319  0.1579  0.0760  0.6681
  557MOL0     C75085  11.346   3.552   0.206  0.5563 -0.5030  0.0881
  557MOL0     C75086  11.375   3.498   0.085 -0.2629  0.0936  0.0199
  557MOL0     C75087  11.309   3.549  -0.031 -0.2889 -0.8830 -0.7643
  557MOL0     C75088  11.315   3.476  -0.166  0.1353 -0.6785  0.0626
  557MOL0     C75089  11.206   3.653  -0.025 -0.3883 -0.5772 -0.4132
  557MOL0     C75090  11.126   3.718  -0.142 -0.6314 -0.0456 -0.3979
  557MOL0     O75091  11.181   3.719  -0.266 -0.2316  0.7724  0.4242
  557MOL0     C75092  11.110   3.782  -0.367 -0.0032 -0.0008 -0.5124
  557MOL0     C75093  11.018   3.704  -0.443  0.3504  0.1268  0.1761
  557MOL0     C75094  10.963   3.757  -0.562  0.4179  0.4282 -0.1829
  557MOL0     C75095  10.988   3.895  -0.593 -0.2822 -0.0768 -0.9079
  557MOL0     O75096  10.927   3.962  -0.696  0.5326 -0.4730 -0.5949
  557MOL0     C75097  11.020   3.963  -0.808  0.8921 -0.0597  0.1899
  557MOL0     C75098  10.977   4.060  -0.913  0.7402  0.8178 -0.3233
  557MOL0     C75099  10.835   4.024  -0.960  0.1606 -0.0303 -0.1430
  557MOL0     C75100  10.793   4.126  -1.068 -0.9668  0.4135 -0.3465
  557MOL0     C75101  10.863   4.095  -1.208  1.4203 -0.4745 -0.5449
  557MOL0     C75102  10.777   4.156  -1.316  0.0645 -0.2962  1.0104
  557MOL0     C75103  10.823   4.129  -1.457  0.3623  0.9995  0.5063
  557MOL0     C75104  10.703   4.150  -1.556  0.2331  0.3664 -1.1158
  557MOL0    Cl75105  10.556   4.039  -1.520  0.2255 -0.2678  0.5712
  557MOL0     C75106  11.048   3.977  -0.501 -0.9227  0.5389  0.9545
  557MOL0     C75107  11.130   3.920  -0.392  0.4758 -0.3535  0.1886
  557MOL0     O75108  11.018   3.772  -0.111  0.0840  0.3191 -0.2714
  557MOL0     C75109  11.175   3.693   0.112  0.1043 -0.4706 -0.0929
  557MOL0     C75110  11.250   3.645   0.226  1.0978 -0.9850 -0.7800
  557MOL0     N75111  11.871   3.327   0.177 -0.2892  0.2318  0.7777
  557MOL0     N75112  11.989   3.328   0.213 -0.4673  1.0075 -0.1662
  557MOL0     C75113  11.566   2.761   0.233  0.2824  0.0082 -0.0507
  557MOL0     C75114  11.492   2.862   0.297 -0.9415 -1.1962 -0.1868
  557MOL0     C75115  11.254   3.132   0.538 -0.8106  0.3510  0.6873
  557MOL0     C75116  11.137   3.198   0.527 -0.2672  0.4927  0.4670
  557MOL0     C75117  11.109   3.303   0.606  0.2911 -0.5623 -0.9766
  557MOL0     C75118  11.197   3.346   0.708  0.0710 -0.5231  0.1347
  557MOL0     O75119  11.165   3.453   0.789 -0.4110  0.7066 -0.7191
  557MOL0     C75120  11.275   3.538   0.849  0.8934 -0.0055 -0.1084
  557MOL0     C75121  11.228   3.679   0.875 -0.0186  0.7418 -0.4932
  557MOL0     C75122  11.342   3.761   0.924 -0.5006 -0.1563  0.1829
  557MOL0     C75123  11.290   3.903   0.954 -0.0847 -0.3483  0.2486
  557MOL0     C75124  11.409   3.990   0.941  0.5872 -0.0551  0.3476
  557MOL0     C75125  11.500   4.065   0.927 -0.2536 -0.3874  0.5155
  557MOL0     C75126  11.317   3.274   0.728  0.2268  0.9966 -0.0738
  557MOL0     C75127  11.349   3.166   0.641 -0.4360 -0.1495 -0.0372
  557MOL0     H75128  11.479   2.746   0.609  0.1202 -1.5970  0.6467
  557MOL0     H75129  11.656   2.564   0.489  0.4723  0.1543 -0.0095
  557MOL0     H75130  11.709   2.531   0.032 -2.1617 -0.4875  1.2984
  557MOL0     H75131  11.759   2.687   0.075 -0.2116  1.0991  4.5956
  557MOL0     H75132  11.922   2.449   0.124  3.0939  0.0560 -2.8624
  557MOL0     H75133  11.960   2.568   0.004 -1.7370 -0.0178 -0.1141
  557MOL0     H75134  11.940   2.607   0.309 -2.0705 -1.3098 -1.6880
  557MOL0     H75135  12.092   2.568   0.231  1.2014  0.2507 -2.5435
  557MOL0     H75136  11.911   2.813   0.172 -0.6691 -1.8934  1.2733
  557MOL0     H75137  12.022   2.821   0.311  3.4357  1.3407 -1.1568
  557MOL0     H75138  12.209   2.772   0.165 -2.1891 -3.0750  0.1487
  557MOL0     H75139  12.108   2.792   0.024  1.6232 -2.0998  0.6624
  557MOL0     H75140  12.227   3.008   0.073 -0.7777 -0.2889 -0.8151
  557MOL0     H75141  12.056   3.024   0.095  0.7127  0.5803  0.5159
  557MOL0     H75142  12.141   2.963   0.357  1.5465  1.5163  0.7248
  557MOL0     H75143  12.296   3.009   0.305  0.0653  1.1539  1.2924
  557MOL0     H75144  12.220   3.232   0.259  0.1058 -0.8313 -0.5715
  557MOL0     H75145  12.162   3.179   0.421  0.7519  1.5471 -0.8844
  557MOL0     H75146  11.889   3.076   0.378 -0.6875  1.7668  1.7164
  557MOL0     H75147  11.588   3.246   0.181 -2.1079 -3.5455 -1.0184
  557MOL0     H75148  11.630   3.094   0.246  3.4083  0.5218  0.4028
  557MOL0     H75149  11.621   3.194   0.470  1.7262  2.5965 -0.3052
  557MOL0     H75150  11.473   3.233   0.379 -0.2710 -0.1613  1.7098
  557MOL0     H75151  11.708   3.426   0.430 -0.6867 -0.0407  1.5563
  557MOL0     H75152  11.561   3.423   0.526 -0.1173  2.8381 -1.2049
  557MOL0     H75153  11.585   3.484   0.222 -0.7877 -0.9895  0.0631
  557MOL0     H75154  11.574   3.597   0.353 -2.0909  0.4923 -1.8435
  557MOL0     H75155  11.446   3.418   0.068  3.8777  3.2270  0.9533
  557MOL0     H75156  11.217   3.434  -0.191  0.6509 -1.5432 -0.5630
  557MOL0     H75157  11.362   3.530  -0.249 -3.3633 -1.4647 -2.6530
  557MOL0     H75158  11.385   3.392  -0.152 -0.2580 -1.2992 -1.4379
  557MOL0     H75159  11.008   3.599  -0.422 -0.9040  0.4729  1.4378
  557MOL0     H75160  10.912   3.688  -0.628 -1.2373  1.3597  0.0619
  557MOL0     H75161  11.123   3.994  -0.786  1.5330 -0.9769 -1.3394
  557MOL0     H75162  11.018   3.858  -0.838  1.9064  0.3823 -1.5780
  557MOL0     H75163  10.981   4.159  -0.867  2.9349  0.7983 -0.3669
  557MOL0     H75164  11.054   4.052  -0.990  2.2054  4.2918  0.5854
  557MOL0     H75165  10.762   4.024  -0.878  1.2948 -0.8658  0.8995
  557MOL0     H75166  10.839   3.930  -1.016  4.0826  0.7197 -1.4297
  557MOL0     H75167  10.684   4.130  -1.074 -1.1545  3.3166  2.3876
  557MOL0     H75168  10.824   4.227  -1.041  1.6051 -0.2601 -0.4678
  557MOL0     H75169  10.866   3.986  -1.222 -1.4408 -0.6895 -0.0237
  557MOL0     H75170  10.967   4.129  -1.205  1.8292 -1.6696  2.1029
  557MOL0     H75171  10.674   4.119  -1.311 -1.4872  3.4423  0.3331
  557MOL0     H75172  10.772   4.265  -1.319 -4.5166 -0.3434 -0.8977
  557MOL0     H75173  10.847   4.022  -1.460 -4.1954 -0.2165 -0.1631
  557MOL0     H75174  10.909   4.189  -1.488  0.3424  1.9435  2.1293
  557MOL0     H75175  10.742   4.137  -1.658  4.9215 -1.4829  0.6488
  557MOL0     H75176  10.667   4.253  -1.554  1.9762  1.0252 -1.4381
  557MOL0     H75177  11.051   4.077  -0.544 -0.5927  0.3486  0.5347
  557MOL0     H75178  11.198   3.980  -0.332 -2.7060  1.2105  2.5650
  557MOL0     H75179  11.099   3.770   0.123  1.8291  1.9128 -3.2890
  557MOL0     H75180  11.227   3.681   0.326 -1.0881 -0.3683 -1.4484
  557MOL0     H75181  11.584   2.780   0.128  2.0500 -2.6974 -0.3469
  557MOL0     H75182  11.451   2.946   0.242 -2.2196 -1.6938 -0.0313
  557MOL0     H75183  11.067   3.183   0.446 -2.5657  0.6567  2.3070
  557MOL0     H75184  11.020   3.356   0.575 -0.4676 -1.8713 -1.1395
  557MOL0     H75185  11.314   3.497   0.943 -0.7241  0.7107  0.9244
  557MOL0     H75186  11.359   3.539   0.780  0.8320  0.4001 -0.1782
  557MOL0     H75187  11.154   3.681   0.955 -0.0766 -1.5026 -0.4196
  557MOL0     H75188  11.202   3.719   0.777  0.5938  1.4322 -0.3831
  557MOL0     H75189  11.427   3.757   0.854 -0.0615  0.7114  0.6530
  557MOL0     H75190  11.391   3.731   1.017  2.7473  2.2949 -0.5229
  557MOL0     H75191  11.248   3.905   1.054  0.9344  0.0482  0.6832
  557MOL0     H75192  11.202   3.941   0.901 -0.7877 -1.4757  0.5903
  557MOL0     H75193  11.583   4.132   0.912 -0.5032 -0.1314  0.2661
  557MOL0     H75194  11.393   3.293   0.804  1.9764  1.6393 -1.9061
  557MOL0     H75195  11.445   3.116   0.641 -0.5704 -0.4086 -0.0054
  558MOL0     O75196   6.888   2.580  10.411  0.2113  0.6567 -0.3382
  558MOL0     C75197   6.932   2.583  10.527 -0.3348 -0.5410  0.9903
  558MOL0     O75198   6.858   2.599  10.638 -0.4123 -0.7633 -0.7866
  558MOL0     C75199   6.729   2.569  10.633  0.8919 -0.5177 -0.1220
  558MOL0     C75200   6.622   2.653  10.601 -1.2471  0.3013 -0.2234
  558MOL0     C75201   6.493   2.606  10.591  0.1665 -0.1806 -0.4215
  558MOL0     C75202   6.454   2.482  10.639 -0.2962  0.6862  0.4664
  558MOL0     O75203   6.324   2.437  10.633 -0.0441 -0.2147 -0.1117
  558MOL0     C75204   6.254   2.480  10.506 -0.3117  0.0080 -0.0824
  558MOL0     C75205   6.140   2.387  10.488  0.2915 -0.6654  0.2992
  558MOL0     C75206   6.022   2.429  10.577  0.1300  0.6154  0.1147
  558MOL0     C75207   5.897   2.349  10.533  0.0644 -0.2200 -0.7326
  558MOL0     C75208   5.770   2.419  10.588 -0.2943  0.0352 -0.1482
  558MOL0     C75209   5.772   2.442  10.739  0.7182 -0.2220 -0.2769
  558MOL0     C75210   5.640   2.501  10.787 -0.7498  0.5846  0.9312
  558MOL0     C75211   5.516   2.411  10.773  0.4703  0.1687 -0.2546
  558MOL0     N75212   5.387   2.463  10.816  0.3876  0.7026 -1.4218
  558MOL0     C75213   5.343   2.473  10.949 -0.5616 -0.0327  0.6550
  558MOL0     C75214   5.215   2.504  10.931  0.5298  0.7192  0.6452
  558MOL0     C75215   5.113   2.523  11.039 -0.0707 -0.4947 -0.3457
  558MOL0     C75216   5.043   2.660  11.039  0.4176 -0.4744 -0.5179
  558MOL0     C75217   4.932   2.667  11.136  0.0029  0.3741 -0.6259
  558MOL0     C75218   4.844   2.789  11.133  0.8085  0.4063 -0.1553
  558MOL0     O75219   4.745   2.770  11.027 -0.2913  0.6764  0.2788
  558MOL0     C75220   4.633   2.697  11.059 -0.4617 -0.6267 -1.0280
  558MOL0     C75221   4.583   2.683  11.187  0.6789  0.5833  0.7895
  558MOL0     C75222   4.463   2.609  11.215 -0.2168  0.3171  0.4426
  558MOL0     C75223   4.418   2.611  11.361  0.3327  0.1691  0.6988
  558MOL0     C75224   4.377   2.562  11.113  0.3122 -0.1363  0.3028
  558MOL0     C75225   4.254   2.484  11.134  0.4447 -0.3076 -1.0627
  558MOL0     O75226   4.134   2.533  11.071 -0.4122 -0.0787  0.0634
  558MOL0     C75227   4.019   2.472  11.084  0.5358 -0.4032  0.1461
  558MOL0     C75228   4.008   2.328  11.069  0.6248 -0.0261 -0.1956
  558MOL0     C75229   3.880   2.271  11.054  0.1572  0.0965  0.2319
  558MOL0     C75230   3.759   2.347  11.061 -0.9946  0.1132  0.1166
  558MOL0     O75231   3.639   2.281  11.033 -0.3481  0.8493 -0.1346
  558MOL0     C75232   3.533   2.345  10.954 -0.2893  0.7567 -0.4439
  558MOL0     C75233   3.439   2.248  10.895  0.3992 -0.1491 -0.1753
  558MOL0     C75234   3.512   2.139  10.812 -0.2784  0.6046 -0.8937
  558MOL0     C75235   3.408   2.047  10.750  0.5207  0.6315  0.1262
  558MOL0     C75236   3.367   2.093  10.603 -0.9624  0.6347 -0.5234
  558MOL0     C75237   3.253   2.006  10.543 -0.2802  0.4012  0.4275
  558MOL0     C75238   3.209   2.028  10.394 -0.7350  0.1560  0.0710
  558MOL0     C75239   3.304   1.978  10.286  0.0087 -0.9034 -0.1922
  558MOL0    Cl75240   3.317   1.804  10.276  0.2088 -0.0106 -0.0009
  558MOL0     C75241   3.775   2.482  11.074 -0.8629 -0.1273  0.8390
  558MOL0     C75242   3.898   2.541  11.095 -0.7414 -1.0300  0.9040
  558MOL0     O75243   4.252   2.386  11.212 -0.1481 -0.3375  0.1440
  558MOL0     C75244   4.425   2.597  10.987  0.1758 -0.6692  0.4920
  558MOL0     C75245   4.546   2.660  10.958 -0.2493  0.6110 -0.4908
  558MOL0     N75246   5.178   2.506  10.796 -0.4903  0.0540  0.1772
  558MOL0     N75247   5.287   2.487  10.733 -0.1864  0.3119 -0.2060
  558MOL0     C75248   6.549   2.405  10.691 -0.3878 -0.0240 -0.6469
  558MOL0     C75249   6.685   2.447  10.687  0.2780 -0.0675  0.6341
  558MOL0     C75250   7.081   2.596  10.539 -0.1391 -0.7111 -0.4166
  558MOL0     C75251   7.167   2.562  10.430 -0.8024 -0.7213  0.1784
  558MOL0     C75252   7.308   2.568  10.436 -0.1517 -0.5213 -0.6473
  558MOL0     C75253   7.362   2.625  10.554  0.9285  0.3914  0.2725
  558MOL0     O75254   7.492   2.634  10.584 -0.5254  0.1411  1.0825
  558MOL0     C75255   7.588   2.585  10.486 -0.2564  0.1124 -0.3276
  558MOL0     C75256   7.731   2.585  10.551 -0.2358 -0.1908  0.7044
  558MOL0     C75257   7.827   2.493  10.473  0.4263 -0.2561  1.0499
  558MOL0     C75258   7.799   2.342  10.468 -0.1879 -0.8491 -0.0521
  558MOL0     C75259   7.910   2.275  10.405  0.4277  0.1402  0.0038
  558MOL0     C75260   7.998   2.217  10.351  0.5302  0.0221 -0.1448
  558MOL0     C75261   7.280   2.666  10.656 -0.4297  0.2824  0.4732
  558MOL0     C75262   7.139   2.652  10.650  0.1998 -0.2271 -0.5331
  558MOL0     H75263   6.648   2.756  10.582 -0.6175  0.2706  0.4179
  558MOL0     H75264   6.409   2.666  10.559 -1.5152 -0.3017  3.2610
  558MOL0     H75265   6.229   2.584  10.527  2.9785  0.3087  3.4721
  558MOL0     H75266   6.306   2.476  10.409  0.0543  1.5774  0.0328
  558MOL0     H75267   6.110   2.398  10.383 -2.7105  2.4071  1.2722
  558MOL0     H75268   6.180   2.290  10.518  1.1478 -0.4664 -0.1982
  558MOL0     H75269   6.048   2.401  10.679 -0.9430 -2.1949 -0.2696
  558MOL0     H75270   6.011   2.537  10.566 -0.8505  0.7009  1.7059
  558MOL0     H75271   5.890   2.359  10.424 -1.3718 -1.8240 -0.8199
  558MOL0     H75272   5.904   2.244  10.561  1.5088 -0.4131 -1.6687
  558MOL0     H75273   5.754   2.511  10.531 -0.4533 -0.6239 -1.1860
  558MOL0     H75274   5.688   2.352  10.564  0.3089 -1.5633  1.9392
  558MOL0     H75275   5.785   2.347  10.792 -1.4507  0.2122  1.1804
  558MOL0     H75276   5.857   2.508  10.757  0.2111  1.3262 -2.9663
  558MOL0     H75277   5.649   2.524  10.894 -1.0376  0.1935  1.0407
  558MOL0     H75278   5.622   2.602  10.750 -0.8502  1.0544  2.1935
  558MOL0     H75279   5.526   2.317  10.828 -1.1644 -1.3075 -2.2931
  558MOL0     H75280   5.502   2.389  10.666  0.9663 -1.4787 -0.0084
  558MOL0     H75281   5.388   2.467  11.047  1.1631  0.3175 -0.0749
  558MOL0     H75282   5.042   2.443  11.017 -0.0396 -0.8000  0.6186
  558MOL0     H75283   5.156   2.504  11.138  0.2597 -4.1459 -1.0625
  558MOL0     H75284   4.993   2.672  10.942 -0.4868  0.9880  0.1036
  558MOL0     H75285   5.116   2.742  11.043 -0.1797  0.0068  0.9992
  558MOL0     H75286   4.976   2.667  11.237  0.2683  0.0421 -0.7420
  558MOL0     H75287   4.870   2.577  11.142  0.0204  0.4321  1.4855
  558MOL0     H75288   4.903   2.879  11.111  0.6363  1.2861  2.5979
  558MOL0     H75289   4.791   2.802  11.228 -0.2610 -3.8113  0.0211
  558MOL0     H75290   4.635   2.724  11.273  3.4825 -2.4027  0.7150
  558MOL0     H75291   4.460   2.692  11.421  2.0461  1.3260 -1.9372
  558MOL0     H75292   4.308   2.611  11.367  0.3518  0.2087  1.0817
  558MOL0     H75293   4.463   2.519  11.400  2.1738 -0.1933 -2.0608
  558MOL0     H75294   4.103   2.281  11.044  1.0474  0.7593 -0.0745
  558MOL0     H75295   3.872   2.171  11.012 -1.4639 -0.4456  1.7074
  558MOL0     H75296   3.476   2.419  11.012 -0.9545 -1.1878  1.5273
  558MOL0     H75297   3.590   2.396  10.876  0.7041 -0.2224 -0.3854
  558MOL0     H75298   3.381   2.214  10.981 -0.2187  0.8701 -0.1714
  558MOL0     H75299   3.367   2.292  10.824 -0.8740  1.3680  1.9288
  558MOL0     H75300   3.565   2.064  10.872 -1.5592 -0.5512 -1.1615
  558MOL0     H75301   3.579   2.176  10.734  0.4633 -0.4280 -0.7763
  558MOL0     H75302   3.450   1.946  10.753 -0.2884  0.2505 -0.6657
  558MOL0     H75303   3.319   2.043  10.814  1.1206 -0.7560  0.9248
  558MOL0     H75304   3.456   2.105  10.541 -0.6846  1.9578  0.0868
  558MOL0     H75305   3.327   2.194  10.617  1.4307  1.2365  4.1665
  558MOL0     H75306   3.290   1.904  10.557 -0.9432  0.1311  0.2640
  558MOL0     H75307   3.163   2.012  10.605 -2.4312 -2.2080 -2.0928
  558MOL0     H75308   3.182   2.133  10.385  0.6483  0.6188  0.9683
  558MOL0     H75309   3.115   1.973  10.382 -0.4530  0.0707 -2.0449
  558MOL0     H75310   3.409   2.009  10.290 -0.6917  1.5087  1.8054
  558MOL0     H75311   3.264   2.023  10.194  0.0157 -0.7812 -0.1361
  558MOL0     H75312   3.683   2.538  11.063 -0.8162  0.2862  2.3139
  558MOL0     H75313   3.905   2.649  11.093 -0.6319 -0.9901 -2.3517
  558MOL0     H75314   4.366   2.557  10.905  2.0519  1.6496 -2.1874
  558MOL0     H75315   4.571   2.691  10.857  2.5936 -0.8982 -0.3387
  558MOL0     H75316   6.514   2.310  10.730 -1.0681 -0.7219 -2.8093
  558MOL0     H75317   6.767   2.388  10.728 -0.2778  0.0440  1.9800
  558MOL0     H75318   7.124   2.530  10.336 -0.8417 -1.7081  0.5167
  558MOL0     H75319   7.369   2.536  10.352 -1.1145 -1.9953 -0.8180
  558MOL0     H75320   7.575   2.477  10.471 -3.8236  0.2949  0.5772
  558MOL0     H75321   7.590   2.637  10.390  1.2109 -0.7244 -0.7812
  558MOL0     H75322   7.735   2.550  10.655 -0.5275 -3.5220 -0.2749
  558MOL0     H75323   7.766   2.688  10.551  0.1984 -0.3371  0.7691
  558MOL0     H75324   7.924   2.501  10.523  1.2552 -4.5243  0.4373
  558MOL0     H75325   7.834   2.532  10.371 -1.4510  0.3499  1.1074
  558MOL0     H75326   7.705   2.314  10.420 -1.1444  0.3803  1.0326
  558MOL0     H75327   7.799   2.312  10.573 -0.3617 -0.7579 -0.0259
  558MOL0     H75328   8.080   2.152  10.327 -1.4347 -3.1525  1.0714
  558MOL0     H75329   7.327   2.719  10.738 -0.8785  3.6491 -1.2555
  558MOL0     H75330   7.078   2.683  10.735  0.2892 -0.6413 -0.3180
  559MOL0     O75331   2.936  10.243   5.263  0.1401 -0.8059  0.5689
  559MOL0     C75332   2.921  10.201   5.146  0.0014 -0.0428 -0.3088
  559MOL0     O75333   3.012  10.137   5.069 -0.1243 -0.1840 -0.5432
  559MOL0     C75334   3.142  10.125   5.110 -0.8651 -0.1862  0.2640
  559MOL0     C75335   3.168  10.047   5.219  0.2641 -0.2217  0.1813
  559MOL0     C75336   3.294  10.020   5.265 -0.7822 -0.0623 -0.2850
  559MOL0     C75337   3.406  10.075   5.213  0.2746  0.3088 -0.0873
  559MOL0     O75338   3.525  10.033   5.269  0.3470  0.4275 -0.0724
  559MOL0     C75339   3.641  10.033   5.196 -0.3776 -0.8379 -0.1748
  559MOL0     C75340   3.748   9.952   5.256  0.6172 -0.2047  0.2762
  559MOL0     C75341   3.870   9.959   5.171 -0.1203 -0.8069  0.6906
  559MOL0     C75342   3.977   9.857   5.207  1.0443 -0.0161 -0.9574
  559MOL0     C75343   4.087   9.841   5.090 -0.6899  0.9306  0.1917
  559MOL0     C75344   4.155   9.700   5.101 -0.3119 -0.0598 -0.7316
  559MOL0     C75345   4.282   9.701   5.007 -0.8756  0.5599 -0.0518
  559MOL0     C75346   4.337   9.563   4.959  0.2338 -0.1439 -0.1641
  559MOL0     N75347   4.250   9.499   4.862  0.5419  0.2282  0.3511
  559MOL0     C75348   4.121   9.442   4.877  0.0989 -0.1670  0.3227
  559MOL0     C75349   4.074   9.427   4.756  0.5700 -0.3860  0.0006
  559MOL0     C75350   3.945   9.365   4.724 -0.1539  0.1874 -0.0869
  559MOL0     C75351   3.828   9.449   4.693  0.1535  0.1165  0.5635
  559MOL0     C75352   3.804   9.545   4.811  0.9397  0.3876 -0.3944
  559MOL0     C75353   3.663   9.598   4.792 -0.2915  0.2324  0.0474
  559MOL0     O75354   3.636   9.698   4.882 -0.1840 -0.5803 -0.0988
  559MOL0     C75355   3.515   9.765   4.856 -1.6793 -1.0378 -0.1612
  559MOL0     C75356   3.393   9.700   4.860  0.6816 -0.1806  0.4107
  559MOL0     C75357   3.272   9.765   4.860  0.2055 -1.0109 -0.1727
  559MOL0     C75358   3.156   9.670   4.890  0.3730  0.1132 -0.3034
  559MOL0     C75359   3.270   9.907   4.838 -1.3917 -0.3155 -0.3730
  559MOL0     C75360   3.144   9.981   4.820 -0.3297  0.7822  0.5257
  559MOL0     O75361   3.170  10.101   4.771  0.2260  0.3517  0.0028
  559MOL0     C75362   3.071  10.169   4.710  0.1142  0.3547  0.1508
  559MOL0     C75363   3.016  10.136   4.585  0.8064 -0.2128 -0.3415
  559MOL0     C75364   2.916  10.213   4.522 -0.4504 -0.1005 -0.0666
  559MOL0     C75365   2.859  10.317   4.590 -0.6403 -0.8155 -0.6590
  559MOL0     O75366   2.758  10.394   4.546 -0.6476  0.6266 -0.6668
  559MOL0     C75367   2.713  10.400   4.406  0.3794  0.1380  0.1121
  559MOL0     C75368   2.594  10.481   4.389  0.6973 -0.6763 -1.2514
  559MOL0     C75369   2.548  10.461   4.248  1.5080  0.4668 -0.1676
  559MOL0     C75370   2.427  10.541   4.212  0.7838  0.2513 -0.2248
  559MOL0     C75371   2.314  10.439   4.167  0.5671  0.5328 -0.2598
  559MOL0     C75372   2.175  10.519   4.164 -0.2846 -0.7111  0.4517
  559MOL0     C75373   2.067  10.449   4.086  0.2296  1.0839  0.6172
  559MOL0     C75374   1.927  10.515   4.085  0.1668 -0.2482 -0.3685
  559MOL0    Cl75375   1.799  10.392   4.102  0.1612  0.1445 -0.4935
  559MOL0     C75376   2.916  10.349   4.710  0.6150 -0.0924  0.3321
  559MOL0     C75377   3.023  10.279   4.769  0.0799  0.7201 -0.0462
  559MOL0     O75378   3.032   9.934   4.841 -0.8854  0.9640  0.3830
  559MOL0     C75379   3.396   9.976   4.828  0.3135 -1.3752 -0.4124
  559MOL0     C75380   3.515   9.903   4.854  0.1535  0.0848 -0.2296
  559MOL0     N75381   4.161   9.485   4.672  0.2766 -0.1839  0.5968
  559MOL0     N75382   4.271   9.509   4.729 -0.3016  0.5822  0.0784
  559MOL0     C75383   3.393  10.170   5.105 -0.2501 -0.0023 -0.4547
  559MOL0     C75384   3.257  10.189   5.052  0.0708  0.1090 -0.3341
  559MOL0     C75385   2.788  10.232   5.090  0.3821 -0.2063 -0.7322
  559MOL0     C75386   2.699  10.331   5.145 -0.4606  0.9000  0.3779
  559MOL0     C75387   2.578  10.366   5.091  0.6121 -0.9781  1.0570
  559MOL0     C75388   2.539  10.312   4.968  0.0297  0.4060 -0.4948
  559MOL0     O75389   2.430  10.370   4.905 -0.5719 -0.6185  0.0240
  559MOL0     C75390   2.369  10.308   4.791  0.2407  0.0274  0.2608
  559MOL0     C75391   2.266  10.409   4.727 -0.3645 -0.4345 -0.6532
  559MOL0     C75392   2.150  10.340   4.668  0.1061 -0.2469  0.2497
  559MOL0     C75393   2.176  10.232   4.557  0.1135  0.6376  0.8375
  559MOL0     C75394   2.071  10.222   4.449  0.3011 -0.2400  0.0690
  559MOL0     C75395   1.989  10.222   4.362 -0.0031 -1.0760 -0.1330
  559MOL0     C75396   2.614  10.212   4.918 -0.8724  1.7855 -0.0724
  559MOL0     C75397   2.742  10.168   4.973 -0.6302  0.6123 -0.2605
  559MOL0     H75398   3.082  10.013   5.275  0.4759  1.0568  1.3135
  559MOL0     H75399   3.308   9.956   5.352 -1.7996 -0.1499 -0.1793
  559MOL0     H75400   3.609   9.985   5.103 -0.1923  2.0162 -1.8304
  559MOL0     H75401   3.679  10.134   5.179  1.0859 -1.3299 -0.0284
  559MOL0     H75402   3.778  10.007   5.345  0.4335  1.9263 -0.9033
  559MOL0     H75403   3.717   9.849   5.275  0.4570 -0.5779 -1.7421
  559MOL0     H75404   3.845   9.942   5.066  0.5956 -0.4792  0.4621
  559MOL0     H75405   3.918  10.057   5.176 -0.6628 -0.4001 -1.1536
  559MOL0     H75406   4.034   9.875   5.299  0.4829 -1.2115 -0.3462
  559MOL0     H75407   3.933   9.757   5.221 -0.2204  0.5630 -0.6129
  559MOL0     H75408   4.050   9.865   4.989  0.3582 -2.3429 -1.0878
  559MOL0     H75409   4.167   9.916   5.098 -1.1002  1.7950 -2.6098
  559MOL0     H75410   4.183   9.677   5.204  0.4684  0.7741 -0.7448
  559MOL0     H75411   4.088   9.618   5.071  1.6906 -0.8979 -3.2347
  559MOL0     H75412   4.268   9.760   4.916 -0.1513  0.1875 -0.4102
  559MOL0     H75413   4.361   9.740   5.072 -0.2969 -0.5982 -0.0344
  559MOL0     H75414   4.345   9.495   5.045  0.7024 -0.8176 -0.7333
  559MOL0     H75415   4.441   9.574   4.929  0.8114 -4.0980 -0.1944
  559MOL0     H75416   4.071   9.414   4.969 -1.2994  0.5636 -0.1861
  559MOL0     H75417   3.975   9.303   4.639  3.2756  0.3363  0.8549
  559MOL0     H75418   3.918   9.297   4.806 -2.0790  0.9161 -0.0634
  559MOL0     H75419   3.744   9.383   4.673 -1.2691  2.1133 -0.3305
  559MOL0     H75420   3.837   9.511   4.603 -1.7255 -1.9327 -1.1319
  559MOL0     H75421   3.876   9.627   4.820  1.0153  0.3736 -0.8260
  559MOL0     H75422   3.808   9.492   4.906  0.3697 -0.5891 -0.8928
  559MOL0     H75423   3.602   9.508   4.804  2.2622 -1.5977  0.1710
  559MOL0     H75424   3.653   9.644   4.693 -2.9434 -1.6187 -0.6617
  559MOL0     H75425   3.385   9.595   4.885 -1.9105  0.2808  1.8840
  559MOL0     H75426   3.061   9.692   4.840 -0.3362  0.3306  1.1043
  559MOL0     H75427   3.185   9.567   4.867  1.0457  0.4823 -1.1801
  559MOL0     H75428   3.141   9.673   4.998  0.0773  1.5570 -0.3646
  559MOL0     H75429   3.052  10.052   4.527  0.5531  0.3231 -1.3009
  559MOL0     H75430   2.886  10.196   4.419 -1.5048 -1.1957  0.4012
  559MOL0     H75431   2.795  10.440   4.347 -0.3769  0.7438 -0.5531
  559MOL0     H75432   2.686  10.299   4.375 -0.0511  1.0598 -2.7493
  559MOL0     H75433   2.515  10.435   4.449 -1.3988  1.7572 -1.9976
  559MOL0     H75434   2.613  10.584   4.418 -0.6676 -0.8817  0.5383
  559MOL0     H75435   2.520  10.359   4.221  1.9115  0.4197 -0.4244
  559MOL0     H75436   2.631  10.491   4.183  0.5671 -1.2740 -2.3035
  559MOL0     H75437   2.387  10.592   4.301 -1.6610  0.8134 -1.5499
  559MOL0     H75438   2.452  10.612   4.132 -2.3749  1.3612 -0.3626
  559MOL0     H75439   2.305  10.361   4.244 -0.9811 -2.3856 -3.1294
  559MOL0     H75440   2.341  10.388   4.075  1.3093 -2.1562  1.3389
  559MOL0     H75441   2.132  10.534   4.264 -0.1922 -0.2282  0.4212
  559MOL0     H75442   2.202  10.617   4.124  2.1705 -1.6855 -0.4501
  559MOL0     H75443   2.064  10.346   4.124  2.7948 -0.5514 -2.9572
  559MOL0     H75444   2.087  10.437   3.979 -0.6977  3.5742  0.1064
  559MOL0     H75445   1.923  10.561   3.986  1.7123 -0.5699 -0.5976
  559MOL0     H75446   1.914  10.594   4.160 -1.3462  1.0108 -1.8796
  559MOL0     H75447   2.876  10.433   4.767 -0.0896  0.4366 -0.9054
  559MOL0     H75448   3.065  10.315   4.863  0.4651 -3.3199  1.4973
  559MOL0     H75449   3.396  10.084   4.815 -0.2076 -1.5966 -2.5852
  559MOL0     H75450   3.611   9.954   4.860  0.4997 -0.7139  1.6313
  559MOL0     H75451   3.477  10.216   5.054 -0.2275  0.8155  0.3043
  559MOL0     H75452   3.244  10.251   4.964  2.1798  0.5103 -0.4125
  559MOL0     H75453   2.730  10.380   5.237  2.2677  1.6026 -0.8026
  559MOL0     H75454   2.519  10.439   5.146 -0.3634  0.8967 -2.2021
  559MOL0     H75455   2.446  10.286   4.717 -1.1978 -1.6929 -0.8115
  559MOL0     H75456   2.318  10.215   4.819  0.3752 -1.0966 -2.8871
  559MOL0     H75457   2.322  10.468   4.654 -1.9455  1.1773 -0.6190
  559MOL0     H75458   2.236  10.478   4.806  1.6839  1.2032 -1.2198
  559MOL0     H75459   2.085  10.417   4.624  0.7159 -1.4508 -3.0700
  559MOL0     H75460   2.090  10.310   4.754 -0.0423 -2.2057 -0.4803
  559MOL0     H75461   2.190  10.134   4.602  2.0432  1.4501  2.1270
  559MOL0     H75462   2.266  10.266   4.505  1.0542  0.1991  2.1530
  559MOL0     H75463   1.915  10.222   4.284 -2.1754 -2.3947  1.8070
  559MOL0     H75464   2.583  10.155   4.831  1.1422 -1.5027  1.1660
  559MOL0     H75465   2.804  10.090   4.930 -0.8523  0.3823 -0.1663
  560MOL0     O75466   8.043   5.116  10.501 -1.0605 -0.6889 -0.6636
  560MOL0     C75467   8.131   5.170  10.431 -0.1034  0.0021  0.1146
  560MOL0     O75468   8.263   5.151  10.436 -0.7936 -0.7102  0.2865
  560MOL0     C75469   8.312   5.038  10.491  0.1621  0.4105  1.0018
  560MOL0     C75470   8.437   5.049  10.550  0.4272 -0.0946 -0.7514
  560MOL0     C75471   8.497   4.931  10.603 -0.1257  0.4000  0.5112
  560MOL0     C75472   8.448   4.799  10.574  0.1430  1.0777 -0.0802
  560MOL0     O75473   8.531   4.695  10.620  0.0350 -0.2771 -0.9223
  560MOL0     C75474   8.522   4.572  10.559  0.5661  1.2410 -0.1728
  560MOL0     C75475   8.652   4.501  10.598 -0.0487  0.0899  0.1233
  560MOL0     C75476   8.779   4.579  10.580 -0.7112 -0.4282 -0.2640
  560MOL0     C75477   8.892   4.481  10.604  0.6464  0.1680  0.0581
  560MOL0     C75478   8.910   4.454  10.753 -0.3239 -0.6745 -0.2327
  560MOL0     C75479   9.043   4.375  10.767 -0.3837  0.0956 -0.5623
  560MOL0     C75480   9.085   4.321  10.908  0.7654  0.1837  0.6745
  560MOL0     C75481   9.200   4.210  10.912  1.4344 -0.0416 -0.1932
  560MOL0     N75482   9.245   4.159  11.048 -0.4807 -0.7262  0.7960
  560MOL0     C75483   9.215   4.216  11.166  0.0165 -0.2063  0.4080
  560MOL0     C75484   9.279   4.139  11.253 -0.4250  0.6928  0.5160
  560MOL0     C75485   9.266   4.168  11.403 -0.2685 -0.5438  0.3648
  560MOL0     C75486   9.208   4.054  11.481 -0.3952 -0.6404  0.4978
  560MOL0     C75487   9.075   4.006  11.435 -0.1675 -0.3990 -0.7258
  560MOL0     C75488   8.977   4.124  11.439 -0.4981  0.3067 -0.4418
  560MOL0     O75489   8.841   4.086  11.413 -0.2695  1.0719 -0.4084
  560MOL0     C75490   8.747   4.067  11.513 -0.4922 -0.0589  0.5805
  560MOL0     C75491   8.780   3.994  11.629  1.1518 -0.0429  0.0707
  560MOL0     C75492   8.690   3.978  11.728  0.2875 -0.1627 -0.0632
  560MOL0     C75493   8.720   3.883  11.838 -0.4020  0.0571 -0.5997
  560MOL0     C75494   8.556   4.045  11.716  0.0426  0.0524 -0.2291
  560MOL0     C75495   8.446   4.025  11.817 -0.0641 -0.5238  0.1560
  560MOL0     O75496   8.461   3.919  11.895 -0.0352 -0.4070  0.7767
  560MOL0     C75497   8.408   3.919  12.019 -0.4035  0.1033  0.5626
  560MOL0     C75498   8.419   4.024  12.109 -0.3012 -1.2613 -0.6015
  560MOL0     C75499   8.362   4.017  12.238 -0.3202  0.1593  0.2297
  560MOL0     C75500   8.297   3.900  12.278 -0.3146  0.0193 -0.2713
  560MOL0     O75501   8.264   3.860  12.407  0.3430 -0.7245  0.4330
  560MOL0     C75502   8.279   3.957  12.511  0.1780 -1.1704 -0.5480
  560MOL0     C75503   8.221   3.890  12.634  0.6208 -1.1262  0.2701
  560MOL0     C75504   8.265   3.962  12.757 -0.1234  0.5775 -0.1573
  560MOL0     C75505   8.188   4.091  12.774 -0.1156 -0.8328  0.2842
  560MOL0     C75506   8.024   4.090  12.775  0.2778 -0.6133 -0.2722
  560MOL0     C75507   7.980   3.973  12.880 -0.1095 -0.9200 -1.2425
  560MOL0     C75508   7.825   3.982  12.927  0.5879  0.6482 -0.1746
  560MOL0     C75509   7.737   3.939  12.809 -0.6469  0.4011  0.2397
  560MOL0    Cl75510   7.581   3.897  12.869 -0.0519  0.1285  0.1145
  560MOL0     C75511   8.296   3.789  12.197 -0.8325 -0.6014  0.3625
  560MOL0     C75512   8.347   3.794  12.061  0.0567  0.3415 -0.1318
  560MOL0     O75513   8.346   4.094  11.815 -0.0368 -0.5213  0.4989
  560MOL0     C75514   8.537   4.129  11.604 -0.0333  0.1165 -0.7002
  560MOL0     C75515   8.631   4.133  11.502  0.0696 -1.0078  0.1577
  560MOL0     N75516   9.353   4.038  11.188  0.2954  0.4161  0.0875
  560MOL0     N75517   9.324   4.040  11.060 -0.1307 -0.4615  0.7989
  560MOL0     C75518   8.317   4.784  10.517 -0.0555  0.6513 -0.3269
  560MOL0     C75519   8.253   4.907  10.478  0.2060 -0.1518  0.5822
  560MOL0     C75520   8.086   5.251  10.321 -0.1834 -0.3686  0.6186
  560MOL0     C75521   8.177   5.329  10.242 -0.0633 -0.0859 -0.3186
  560MOL0     C75522   8.144   5.425  10.148  0.7059  0.8472 -0.1634
  560MOL0     C75523   8.007   5.442  10.114  0.0973  0.4064  0.2909
  560MOL0     O75524   7.978   5.539  10.020  0.4618  0.4241 -0.2321
  560MOL0     C75525   7.845   5.570   9.985  0.3813 -0.1381 -0.3027
  560MOL0     C75526   7.857   5.665   9.858  0.0316 -0.0018 -0.0637
  560MOL0     C75527   7.873   5.590   9.731  0.6665  0.0925  0.7592
  560MOL0     C75528   7.918   5.684   9.615 -0.2706  0.0462  1.1544
  560MOL0     C75529   7.930   5.610   9.486  0.9730  0.5031  0.1602
  560MOL0     C75530   7.939   5.540   9.386  0.3156 -0.5097 -0.0310
  560MOL0     C75531   7.918   5.373  10.194 -0.6248 -0.1557  0.5711
  560MOL0     C75532   7.950   5.275  10.293  0.1771 -0.8705  0.0810
  560MOL0     H75533   8.476   5.150  10.562 -1.2285  0.5222 -0.3834
  560MOL0     H75534   8.586   4.938  10.665  0.1164 -0.2728  0.2409
  560MOL0     H75535   8.439   4.516  10.602  2.3182 -0.3220  1.3703
  560MOL0     H75536   8.521   4.571  10.449  0.0430 -0.9626 -0.2126
  560MOL0     H75537   8.642   4.480  10.705  1.7148 -1.3518  0.0541
  560MOL0     H75538   8.651   4.401  10.552  0.8696  1.4979 -3.2732
  560MOL0     H75539   8.787   4.620  10.478 -0.7085  2.5871  0.8344
  560MOL0     H75540   8.782   4.661  10.652  0.4930 -1.7977  1.3112
  560MOL0     H75541   8.879   4.379  10.567  1.0526  0.6702 -1.5481
  560MOL0     H75542   8.980   4.533  10.565 -0.5088  4.6428  2.7377
  560MOL0     H75543   8.913   4.552  10.800  0.2960 -0.1231 -1.3754
  560MOL0     H75544   8.822   4.396  10.783 -2.0768  0.2564 -3.1476
  560MOL0     H75545   9.055   4.292  10.696  2.9837 -1.2703  1.3359
  560MOL0     H75546   9.126   4.441  10.739  1.1090 -2.0085 -1.3861
  560MOL0     H75547   9.120   4.405  10.970 -2.2232  1.0169  1.4104
  560MOL0     H75548   8.995   4.278  10.953 -0.3351  0.6625 -0.9887
  560MOL0     H75549   9.286   4.233  10.848  1.4033  2.0436  0.4273
  560MOL0     H75550   9.154   4.120  10.872  3.2808 -3.4204  4.3447
  560MOL0     H75551   9.177   4.316  11.181  1.3828  0.3814  0.0604
  560MOL0     H75552   9.370   4.186  11.433  0.5714 -1.8809 -1.5373
  560MOL0     H75553   9.209   4.261  11.417 -2.6017 -1.7011 -0.9498
  560MOL0     H75554   9.199   4.082  11.587 -2.2098  0.8832  0.0076
  560MOL0     H75555   9.279   3.971  11.479 -0.0693 -0.4341  2.0207
  560MOL0     H75556   9.060   3.920  11.501 -0.7158 -0.6190 -1.1216
  560MOL0     H75557   9.088   3.966  11.334  0.2471 -0.7596 -0.5345
  560MOL0     H75558   8.999   4.190  11.355 -1.6532 -0.3161 -1.2495
  560MOL0     H75559   8.982   4.177  11.534  2.3905 -0.5175 -0.0281
  560MOL0     H75560   8.870   3.934  11.639  0.9998  0.0671  2.7299
  560MOL0     H75561   8.667   3.789  11.821  1.1258 -1.5492  2.6344
  560MOL0     H75562   8.825   3.853  11.845 -0.9343 -1.7940 -0.0114
  560MOL0     H75563   8.696   3.922  11.938  1.5145 -2.6040  1.0288
  560MOL0     H75564   8.475   4.114  12.084  0.2578 -1.4996 -0.2454
  560MOL0     H75565   8.372   4.101  12.305  0.3640 -0.3254  0.7396
  560MOL0     H75566   8.385   3.981  12.513  0.7225 -3.2111 -2.0644
  560MOL0     H75567   8.221   4.049  12.493  2.3044  0.9890  2.5950
  560MOL0     H75568   8.112   3.897  12.627  0.7453  3.4425 -0.7570
  560MOL0     H75569   8.245   3.784  12.638 -1.0128 -1.4895  1.2094
  560MOL0     H75570   8.371   3.986  12.760 -0.0444  0.1457  1.0991
  560MOL0     H75571   8.243   3.884  12.830 -2.7218  2.1065  0.8470
  560MOL0     H75572   8.225   4.119  12.873  2.0617  0.7223 -0.8821
  560MOL0     H75573   8.215   4.171  12.704 -0.3536 -0.5099  0.5563
  560MOL0     H75574   7.989   4.068  12.674 -0.5423  0.1364 -0.1744
  560MOL0     H75575   7.999   4.190  12.813  3.3226 -0.2886  1.1600
  560MOL0     H75576   7.988   3.871  12.841 -4.4110 -2.0990  0.3125
  560MOL0     H75577   8.049   3.993  12.962 -0.8760  0.2231 -0.8453
  560MOL0     H75578   7.808   4.084  12.963  0.5542  0.2885  0.8699
  560MOL0     H75579   7.809   3.914  13.011  2.8110  1.6292  1.1652
  560MOL0     H75580   7.769   3.859  12.742 -1.4716  2.1792 -2.4135
  560MOL0     H75581   7.730   4.019  12.735  0.6142 -0.7235 -1.1750
  560MOL0     H75582   8.265   3.689  12.226  0.0033 -1.3504 -1.2218
  560MOL0     H75583   8.363   3.711  11.993  1.1195 -0.8108  1.4346
  560MOL0     H75584   8.447   4.189  11.591 -0.6529 -0.6271  0.0452
  560MOL0     H75585   8.625   4.208  11.423 -0.3358 -1.0604  0.1370
  560MOL0     H75586   8.265   4.689  10.511  2.7670 -1.1532  1.1454
  560MOL0     H75587   8.153   4.910  10.436  0.5945  0.6613 -0.3310
  560MOL0     H75588   8.282   5.314  10.266 -0.8069 -0.5069  3.1536
  560MOL0     H75589   8.224   5.477  10.097  0.8195  2.6399  1.7415
  560MOL0     H75590   7.781   5.485   9.959 -0.3941 -0.1597  1.5272
  560MOL0     H75591   7.802   5.616  10.074  0.6074  0.6725 -0.6085
  560MOL0     H75592   7.941   5.733   9.875 -3.0431  3.8275  1.4636
  560MOL0     H75593   7.771   5.733   9.851  0.3733  0.2352 -3.5377
  560MOL0     H75594   7.775   5.544   9.713 -0.1446  1.7172  0.7938
  560MOL0     H75595   7.945   5.510   9.750 -0.7366 -1.3160  0.3897
  560MOL0     H75596   8.017   5.716   9.647  0.2558  1.3734 -1.5162
  560MOL0     H75597   7.853   5.772   9.602 -1.4986 -0.5978  2.5104
  560MOL0     H75598   7.939   5.477   9.299 -0.1190 -1.8752  0.9208
  560MOL0     H75599   7.812   5.395  10.189 -0.8272  0.0945  3.8454
  560MOL0     H75600   7.863   5.237  10.346  1.1255 -3.2605  0.0363
  561MOL0     O75601  11.004   5.688   3.751  0.2774  0.3720  0.7141
  561MOL0     C75602  10.907   5.757   3.710 -0.1098  1.0116 -0.6313
  561MOL0     O75603  10.804   5.796   3.787  0.0721 -0.1268 -0.2061
  561MOL0     C75604  10.819   5.775   3.926  0.2793 -0.3679 -0.1561
  561MOL0     C75605  10.716   5.694   3.989 -0.7847 -0.8980 -0.5469
  561MOL0     C75606  10.729   5.670   4.131  0.3571  0.9610  0.3725
  561MOL0     C75607  10.840   5.724   4.202  0.7857 -0.2380 -0.2996
  561MOL0     O75608  10.850   5.722   4.340  0.4491  0.2369  0.3757
  561MOL0     C75609  10.734   5.685   4.417  0.7156 -0.4109  0.0133
  561MOL0     C75610  10.740   5.546   4.458  0.4300 -0.4084 -0.3511
  561MOL0     C75611  10.625   5.507   4.551 -0.2704  0.2199  0.0045
  561MOL0     C75612  10.494   5.500   4.485 -0.3624 -0.8815  0.2682
  561MOL0     C75613  10.375   5.486   4.583  0.2674  0.0339 -0.5284
  561MOL0     C75614  10.339   5.335   4.627  0.4983 -0.1251  0.0075
  561MOL0     C75615  10.195   5.326   4.690 -0.3026 -0.0261  0.0308
  561MOL0     C75616  10.154   5.187   4.708 -0.4318 -0.0846  0.2193
  561MOL0     N75617  10.015   5.169   4.761 -0.2307  0.3712  0.1964
  561MOL0     C75618   9.968   5.202   4.888 -0.0091  0.2344 -0.5127
  561MOL0     C75619   9.832   5.198   4.877  0.2701 -0.0579  0.0927
  561MOL0     C75620   9.730   5.254   4.977 -0.4761 -0.5097  0.1058
  561MOL0     C75621   9.611   5.161   4.995  0.3417 -0.3810  0.4293
  561MOL0     C75622   9.648   5.026   5.069 -0.2667 -0.4338  0.2079
  561MOL0     C75623   9.684   5.044   5.219  0.1418  0.2082  0.2020
  561MOL0     O75624   9.811   5.105   5.247 -0.4175  0.5506 -0.1402
  561MOL0     C75625   9.876   5.065   5.359  0.0281  0.6228  0.1943
  561MOL0     C75626  10.015   5.064   5.362 -0.1483  0.0503  0.6746
  561MOL0     C75627  10.090   5.018   5.474 -1.3275  0.9812  0.2425
  561MOL0     C75628  10.240   5.038   5.475 -0.4693  0.0594  0.6228
  561MOL0     C75629  10.027   4.979   5.588 -0.2006  0.0264  0.5884
  561MOL0     C75630  10.084   4.930   5.714 -0.4399 -0.3326  1.2043
  561MOL0     O75631   9.992   4.893   5.817 -0.0718 -0.3303 -0.3583
  561MOL0     C75632  10.057   4.854   5.932 -0.3812  0.3575  0.5835
  561MOL0     C75633  10.053   4.932   6.056  0.2130  0.6092 -0.2612
  561MOL0     C75634  10.115   4.883   6.171  0.7753 -0.7675 -0.0718
  561MOL0     C75635  10.177   4.751   6.171 -0.0631 -1.1254 -0.8955
  561MOL0     O75636  10.213   4.689   6.295 -0.6343 -0.3570  0.3940
  561MOL0     C75637  10.340   4.620   6.306  0.6225  0.0816 -0.0198
  561MOL0     C75638  10.453   4.715   6.280  0.0459  0.2465 -0.4613
  561MOL0     C75639  10.595   4.658   6.281 -0.1175  0.3772 -0.3261
  561MOL0     C75640  10.645   4.620   6.419 -0.6132 -0.0240  0.0863
  561MOL0     C75641  10.772   4.549   6.410 -0.4853 -0.1330  1.1162
  561MOL0     C75642  10.828   4.509   6.541 -0.2378 -0.0192  0.1198
  561MOL0     C75643  10.987   4.492   6.534  0.0497  0.0620  0.6273
  561MOL0     C75644  11.034   4.385   6.432  0.1271 -0.6309  0.6452
  561MOL0    Cl75645  10.976   4.215   6.465  0.0938  0.4096 -0.0189
  561MOL0     C75646  10.172   4.674   6.056  0.1182  0.2650  0.6881
  561MOL0     C75647  10.118   4.726   5.936  0.5439 -0.1437 -0.8643
  561MOL0     O75648  10.209   4.912   5.722 -0.0453 -0.6777  0.4393
  561MOL0     C75649   9.888   4.978   5.584 -0.5781  0.6611 -0.3969
  561MOL0     C75650   9.814   5.019   5.473 -0.3472  0.0127 -0.5351
  561MOL0     N75651   9.802   5.162   4.745 -0.1121  0.3284  0.1785
  561MOL0     N75652   9.910   5.130   4.680  0.0997 -0.1829 -1.1201
  561MOL0     C75653  10.933   5.804   4.139 -0.4732  0.3241 -1.0103
  561MOL0     C75654  10.924   5.833   4.010  0.1798 -0.6374  1.1005
  561MOL0     C75655  10.916   5.799   3.576  0.2014 -0.0841  1.1473
  561MOL0     C75656  11.026   5.781   3.490  0.3770 -0.4006  0.3629
  561MOL0     C75657  11.038   5.821   3.359 -0.3040  0.0304 -1.3464
  561MOL0     C75658  10.922   5.887   3.308  0.3108 -0.2872 -1.3874
  561MOL0     O75659  10.932   5.912   3.174 -0.2643  0.3407 -0.6792
  561MOL0     C75660  10.859   6.024   3.125 -0.1900 -0.4515  0.1533
  561MOL0     C75661  10.892   6.020   2.977  0.4730 -0.1008  0.5720
  561MOL0     C75662  11.028   6.090   2.943  0.3278  0.2668 -0.0720
  561MOL0     C75663  11.060   6.075   2.791 -0.1340 -0.3597 -0.0175
  561MOL0     C75664  11.198   6.124   2.760  0.0116  0.4065 -0.2375
  561MOL0     C75665  11.312   6.166   2.750  0.5047 -1.1317 -0.1290
  561MOL0     C75666  10.812   5.919   3.394 -0.1825  0.7942  0.8352
  561MOL0     C75667  10.809   5.872   3.525 -0.1913 -0.2426  0.2275
  561MOL0     H75668  10.636   5.638   3.942 -1.8809 -1.5078  1.9022
  561MOL0     H75669  10.661   5.602   4.181 -1.9078 -1.0546 -4.6698
  561MOL0     H75670  10.750   5.740   4.511  2.1791 -0.8698  0.0558
  561MOL0     H75671  10.639   5.723   4.378  0.4199 -0.4693  0.6652
  561MOL0     H75672  10.749   5.476   4.374 -1.2491 -1.0763 -0.0128
  561MOL0     H75673  10.825   5.534   4.526 -0.8813 -2.9332  1.0218
  561MOL0     H75674  10.658   5.413   4.596  1.1513  0.7674  0.1471
  561MOL0     H75675  10.615   5.569   4.640  0.1984  1.1738 -0.5818
  561MOL0     H75676  10.472   5.587   4.422 -0.5242 -0.8242  0.4005
  561MOL0     H75677  10.500   5.415   4.417 -2.3252  0.9466 -2.3679
  561MOL0     H75678  10.399   5.544   4.673  2.6629 -3.4703  1.3095
  561MOL0     H75679  10.286   5.526   4.532 -0.3782  1.4868  1.5912
  561MOL0     H75680  10.327   5.268   4.542 -1.9958 -1.3893  1.2430
  561MOL0     H75681  10.421   5.299   4.690  0.9935 -1.8825 -1.5565
  561MOL0     H75682  10.201   5.372   4.789  4.3895 -1.0282  0.4251
  561MOL0     H75683  10.118   5.368   4.623 -0.0069 -0.6021 -0.6739
  561MOL0     H75684  10.211   5.118   4.771 -1.1273 -2.2262 -1.3378
  561MOL0     H75685  10.153   5.141   4.609 -0.0895  1.8487 -0.7261
  561MOL0     H75686  10.025   5.243   4.970 -1.8854  2.6016 -0.2810
  561MOL0     H75687   9.775   5.272   5.075  1.8108 -0.0946 -0.9577
  561MOL0     H75688   9.694   5.351   4.944  0.6688 -1.1752 -3.5318
  561MOL0     H75689   9.569   5.139   4.897 -0.6282  2.0379  0.2122
  561MOL0     H75690   9.536   5.212   5.058  1.7891  0.4987  1.5215
  561MOL0     H75691   9.734   4.975   5.025 -0.8478 -0.8432 -0.4761
  561MOL0     H75692   9.555   4.970   5.055  0.3744 -1.8895  1.3763
  561MOL0     H75693   9.681   4.947   5.269 -5.3173 -0.5421 -0.9005
  561MOL0     H75694   9.600   5.098   5.265 -1.9939 -0.0577 -3.0499
  561MOL0     H75695  10.064   5.103   5.273 -2.0122  1.2495  0.0818
  561MOL0     H75696  10.281   5.085   5.385 -2.6023  1.5158  0.3561
  561MOL0     H75697  10.277   5.106   5.552 -2.1437  0.7933  0.8124
  561MOL0     H75698  10.302   4.948   5.482  1.8461  1.6663  2.3152
  561MOL0     H75699   9.993   5.022   6.065 -4.5310 -1.7702 -3.6040
  561MOL0     H75700  10.110   4.941   6.262 -0.1598  0.4508 -0.8695
  561MOL0     H75701  10.341   4.584   6.409 -1.4630 -2.2469 -0.7028
  561MOL0     H75702  10.337   4.521   6.260 -2.8101  0.3309 -0.6066
  561MOL0     H75703  10.440   4.746   6.176 -1.0042  1.8340  0.1076
  561MOL0     H75704  10.439   4.799   6.349 -2.7573 -1.0079  0.6460
  561MOL0     H75705  10.665   4.730   6.237 -2.2716 -0.2803 -5.5456
  561MOL0     H75706  10.599   4.576   6.209  0.0712 -0.4463  0.5860
  561MOL0     H75707  10.643   4.706   6.486 -1.6787  0.1703 -0.1659
  561MOL0     H75708  10.576   4.548   6.465 -0.1255  1.8441  4.1736
  561MOL0     H75709  10.834   4.622   6.358 -1.1720 -0.8135 -0.7716
  561MOL0     H75710  10.769   4.468   6.336 -0.1833  2.2487 -1.6477
  561MOL0     H75711  10.808   4.587   6.615 -1.7618  0.0867 -0.3838
  561MOL0     H75712  10.777   4.417   6.568  1.9325 -1.4009 -0.1975
  561MOL0     H75713  11.035   4.461   6.626  0.5054 -0.3342  0.2606
  561MOL0     H75714  11.022   4.593   6.510 -1.0012  0.6278  1.3710
  561MOL0     H75715  11.141   4.401   6.414  0.2690 -2.8593 -0.9852
  561MOL0     H75716  10.991   4.401   6.333 -0.8454  2.6208  1.4800
  561MOL0     H75717  10.206   4.572   6.047 -0.3413  0.2620 -1.8106
  561MOL0     H75718  10.102   4.672   5.844 -1.3687  0.2631 -0.8100
  561MOL0     H75719   9.817   4.949   5.661 -0.7143  2.5370  0.2235
  561MOL0     H75720   9.706   5.022   5.480 -0.4448 -1.1078 -1.3489
  561MOL0     H75721  11.001   5.857   4.204 -2.6291  3.5854 -1.1779
  561MOL0     H75722  10.985   5.910   3.964 -1.7470  0.9595  1.0501
  561MOL0     H75723  11.121   5.754   3.533  2.6234  1.7880 -2.8114
  561MOL0     H75724  11.133   5.821   3.307 -1.2090  1.4933 -3.1214
  561MOL0     H75725  10.751   6.024   3.139 -0.1168 -0.9166  0.7622
  561MOL0     H75726  10.897   6.111   3.179  0.2284 -0.0942 -0.6958
  561MOL0     H75727  10.810   6.080   2.935  1.1806  0.2882 -0.3026
  561MOL0     H75728  10.888   5.918   2.936 -0.9717  0.7745 -1.6570
  561MOL0     H75729  11.113   6.042   2.994 -1.8133 -3.2116  0.5414
  561MOL0     H75730  11.025   6.195   2.974 -3.6283  0.6610 -1.2745
  561MOL0     H75731  11.004   6.135   2.718  0.8764 -2.5693 -2.7969
  561MOL0     H75732  11.061   5.970   2.760 -0.0352 -0.5361  0.5773
  561MOL0     H75733  11.414   6.199   2.750  0.0846  0.2862 -0.9232
  561MOL0     H75734  10.740   5.993   3.361  0.0286  1.6447  2.1731
  561MOL0     H75735  10.726   5.903   3.588 -3.3908 -3.2352 -2.0861
  562MOL0     O75736   4.353   9.566   3.185 -0.0537  0.2100 -0.3078
  562MOL0     C75737   4.402   9.650   3.107 -0.3073  0.0917  0.0970
  562MOL0     O75738   4.339   9.687   2.995 -0.4501  0.2403  0.2851
  562MOL0     C75739   4.201   9.666   2.985 -0.1077  0.2776  0.1539
  562MOL0     C75740   4.151   9.602   2.871 -0.2728 -0.2414 -0.0889
  562MOL0     C75741   4.018   9.593   2.842 -0.1996 -0.3862 -0.1127
  562MOL0     C75742   3.930   9.641   2.945  0.4358 -0.3111  0.1306
  562MOL0     O75743   3.794   9.629   2.918 -0.2341 -0.4449  0.5522
  562MOL0     C75744   3.695   9.652   3.019 -0.4526  0.3224 -0.4037
  562MOL0     C75745   3.555   9.611   2.980 -0.1066 -0.6498 -0.7595
  562MOL0     C75746   3.539   9.474   2.934  0.0954 -0.0044  0.1722
  562MOL0     C75747   3.392   9.439   2.923 -0.5540  0.5043  1.0484
  562MOL0     C75748   3.369   9.301   2.860 -0.3844 -0.2081  0.0372
  562MOL0     C75749   3.444   9.189   2.936  0.8258 -0.1468 -0.6133
  562MOL0     C75750   3.415   9.186   3.085  0.1242 -0.0556  0.2369
  562MOL0     C75751   3.492   9.079   3.162  0.6796  0.5212  0.0107
  562MOL0     N75752   3.641   9.115   3.164 -0.2705 -0.2313  1.3772
  562MOL0     C75753   3.705   9.209   3.231 -0.1621  0.5001 -0.3324
  562MOL0     C75754   3.838   9.201   3.200  0.5068  0.0517  0.0913
  562MOL0     C75755   3.946   9.300   3.243  0.0157  0.0453  0.9573
  562MOL0     C75756   3.915   9.373   3.374  0.1072  0.3965  0.3608
  562MOL0     C75757   4.034   9.476   3.425 -0.4890 -0.1288  0.4484
  562MOL0     C75758   4.181   9.416   3.464  0.5251 -0.6274 -0.8670
  562MOL0     O75759   4.220   9.468   3.588  0.1928 -0.2568  0.2190
  562MOL0     C75760   4.350   9.502   3.605 -0.7441  0.1179  0.0996
  562MOL0     C75761   4.467   9.421   3.594 -0.0778 -0.4181 -0.4446
  562MOL0     C75762   4.596   9.469   3.629 -0.1731 -0.5634 -0.1404
  562MOL0     C75763   4.709   9.370   3.639 -0.2914 -0.5377  0.4144
  562MOL0     C75764   4.617   9.611   3.647  0.0696  0.2132 -0.2554
  562MOL0     C75765   4.749   9.684   3.653  0.9229  0.2558  0.1271
  562MOL0     O75766   4.851   9.630   3.592 -0.0114  0.8044  0.3438
  562MOL0     C75767   4.973   9.696   3.583  0.3388  0.2494  0.0303
  562MOL0     C75768   4.980   9.822   3.517  0.2460 -0.0343 -0.5973
  562MOL0     C75769   5.103   9.893   3.524 -0.2684 -0.0667  0.1940
  562MOL0     C75770   5.219   9.838   3.577  1.0164 -0.5909 -0.9438
  562MOL0     O75771   5.330   9.908   3.568 -0.4312 -0.1499  0.3377
  562MOL0     C75772   5.409   9.887   3.452 -0.0428 -0.8569  0.0759
  562MOL0     C75773   5.560   9.913   3.472 -0.5979 -0.0792 -0.1331
  562MOL0     C75774   5.630   9.905   3.337  0.8791  1.1839 -0.4382
  562MOL0     C75775   5.772   9.947   3.355  0.9742  0.7136 -0.8295
  562MOL0     C75776   5.838   9.936   3.215  0.5249 -0.2250 -0.1755
  562MOL0     C75777   5.961  10.017   3.220 -0.6278 -0.1764  0.6282
  562MOL0     C75778   6.058   9.976   3.100  0.4830 -0.3478 -0.2684
  562MOL0     C75779   5.981  10.000   2.968 -0.3167  0.0345  0.2102
  562MOL0    Cl75780   6.106   9.986   2.843  0.2946 -0.2432 -0.1113
  562MOL0     C75781   5.216   9.715   3.638  0.3763  0.3701  0.8115
  562MOL0     C75782   5.095   9.634   3.633  0.6947  0.3817  0.2704
  562MOL0     O75783   4.762   9.794   3.712  0.0031  0.6635  0.0268
  562MOL0     C75784   4.493   9.690   3.654 -0.9082  0.4819 -0.2416
  562MOL0     C75785   4.369   9.640   3.626  0.0422  0.3258  0.4368
  562MOL0     N75786   3.849   9.093   3.113  0.6041  0.0250 -0.4466
  562MOL0     N75787   3.727   9.048   3.085  0.5111 -0.2631  0.5053
  562MOL0     C75788   3.982   9.699   3.071 -0.5104  0.6189  0.3789
  562MOL0     C75789   4.118   9.714   3.079 -0.4780  0.3733 -0.6753
  562MOL0     C75790   4.538   9.690   3.135  0.5225  1.1707  0.0657
  562MOL0     C75791   4.611   9.647   3.245 -0.0914 -0.5162  0.0635
  562MOL0     C75792   4.741   9.703   3.276 -0.4078 -1.2032  0.1548
  562MOL0     C75793   4.796   9.802   3.190 -0.2529 -0.0279 -0.1464
  562MOL0     O75794   4.918   9.858   3.203 -0.0776 -0.7049 -0.6916
  562MOL0     C75795   5.036   9.775   3.199 -0.1406 -0.2460 -0.3507
  562MOL0     C75796   5.149   9.867   3.153  0.4786  0.4602 -0.2946
  562MOL0     C75797   5.281   9.786   3.119 -0.5997 -1.4026 -0.0024
  562MOL0     C75798   5.381   9.873   3.054  0.8976  0.2400 -0.2630
  562MOL0     C75799   5.505   9.804   3.013 -0.0264  0.2148 -0.2187
  562MOL0     C75800   5.609   9.765   2.976  0.1342  0.0917 -0.0270
  562MOL0     C75801   4.730   9.832   3.073 -0.7251 -0.9201 -0.1347
  562MOL0     C75802   4.605   9.768   3.039  0.1770 -0.8800  0.4516
  562MOL0     H75803   4.225   9.573   2.796  1.7426  0.2736  1.6132
  562MOL0     H75804   3.976   9.537   2.760  0.6737 -0.3203 -0.6164
  562MOL0     H75805   3.725   9.598   3.110 -0.3216 -0.2049 -0.7524
  562MOL0     H75806   3.701   9.759   3.041  0.7786  0.5268 -1.6042
  562MOL0     H75807   3.491   9.635   3.066 -0.6089  0.3399 -1.3777
  562MOL0     H75808   3.515   9.686   2.910  0.3181  1.1521  0.8276
  562MOL0     H75809   3.592   9.473   2.839 -0.8785 -0.0140 -0.3887
  562MOL0     H75810   3.596   9.410   3.002 -2.9503  1.0495  4.1462
  562MOL0     H75811   3.344   9.447   3.021 -1.2320  0.8789  0.6921
  562MOL0     H75812   3.342   9.506   2.853  2.2741  2.3280  0.6395
  562MOL0     H75813   3.263   9.276   2.850 -0.3630  0.2660 -1.5394
  562MOL0     H75814   3.416   9.296   2.762  1.3668  1.2317  0.7407
  562MOL0     H75815   3.411   9.093   2.896  1.0738 -0.9204  0.9580
  562MOL0     H75816   3.553   9.193   2.929  1.2440  1.2003  3.8006
  562MOL0     H75817   3.447   9.277   3.137  0.8271 -0.2901  0.2210
  562MOL0     H75818   3.308   9.169   3.105  0.5004  0.2762  2.8174
  562MOL0     H75819   3.468   8.978   3.130 -2.4857  1.0708  0.3319
  562MOL0     H75820   3.459   9.091   3.266  0.2608  0.3608 -0.1039
  562MOL0     H75821   3.664   9.294   3.286 -3.9839 -0.1884 -1.7954
  562MOL0     H75822   4.047   9.258   3.247 -0.5158 -1.5816 -0.9092
  562MOL0     H75823   3.964   9.368   3.159  0.3088 -3.6246 -2.2395
  562MOL0     H75824   3.896   9.303   3.455  3.7348 -1.1514  0.0638
  562MOL0     H75825   3.824   9.431   3.358 -0.3651  0.0236  1.6023
  562MOL0     H75826   3.989   9.520   3.515 -0.7713 -0.4006  0.4419
  562MOL0     H75827   4.040   9.558   3.353  0.6170 -0.8039 -0.2602
  562MOL0     H75828   4.241   9.469   3.390  3.2449 -2.3976 -0.0812
  562MOL0     H75829   4.199   9.311   3.439 -1.9940 -1.3279  0.0359
  562MOL0     H75830   4.441   9.319   3.568  0.2372 -0.1468 -1.8968
  562MOL0     H75831   4.672   9.268   3.648 -1.9461 -0.1923 -1.6612
  562MOL0     H75832   4.777   9.372   3.553 -0.7598  0.4831  0.0516
  562MOL0     H75833   4.771   9.388   3.728  1.1925 -2.4501 -0.1624
  562MOL0     H75834   4.890   9.861   3.472  0.2791  1.8273  0.8317
  562MOL0     H75835   5.105   9.993   3.482 -1.1622  1.5147  3.5760
  562MOL0     H75836   5.406   9.784   3.416  2.4867 -0.5387 -1.3116
  562MOL0     H75837   5.372   9.947   3.368  0.3300 -1.7102 -0.7101
  562MOL0     H75838   5.575  10.010   3.521  4.9112 -2.0838  3.1206
  562MOL0     H75839   5.606   9.840   3.540 -0.3987  3.2596  3.7047
  562MOL0     H75840   5.591   9.967   3.256 -0.0494 -0.2653 -1.1220
  562MOL0     H75841   5.626   9.804   3.296 -0.0910  0.8494  0.4620
  562MOL0     H75842   5.768  10.051   3.391 -0.6710  0.9185 -1.5212
  562MOL0     H75843   5.825   9.888   3.430 -2.5038  0.6631  1.8508
  562MOL0     H75844   5.779   9.963   3.127 -0.5963 -5.3232 -1.2602
  562MOL0     H75845   5.870   9.832   3.204 -0.3352 -0.3001 -2.3577
  562MOL0     H75846   5.960  10.126   3.228  1.7469  0.1471 -2.0857
  562MOL0     H75847   6.013   9.982   3.310 -0.6514  1.6634  1.3996
  562MOL0     H75848   6.084   9.870   3.111 -0.1791 -0.2479  4.5265
  562MOL0     H75849   6.150  10.034   3.101 -0.3534  1.1083  2.0566
  562MOL0     H75850   5.932  10.097   2.959 -2.8413 -1.1140  0.7795
  562MOL0     H75851   5.903   9.925   2.955  1.4153 -2.1723  1.7005
  562MOL0     H75852   5.304   9.682   3.692  1.0939  0.7377 -0.0906
  562MOL0     H75853   5.087   9.532   3.670  2.2241 -0.3502 -1.2581
  562MOL0     H75854   4.495   9.798   3.660 -1.6871  0.4809  0.1831
  562MOL0     H75855   4.285   9.707   3.642  0.3725  1.4385 -2.1186
  562MOL0     H75856   3.911   9.741   3.142 -1.7300  0.6201 -0.8034
  562MOL0     H75857   4.166   9.760   3.164  1.6574 -0.3421 -1.4422
  562MOL0     H75858   4.578   9.578   3.323 -1.0667  0.8297  0.8854
  562MOL0     H75859   4.802   9.685   3.364 -2.4658  0.8611  2.1443
  562MOL0     H75860   5.058   9.717   3.289 -2.7210  0.7867  1.0437
  562MOL0     H75861   5.015   9.694   3.129 -2.5745 -3.4029  3.5804
  562MOL0     H75862   5.168   9.922   3.245 -0.9398  1.1454 -0.3824
  562MOL0     H75863   5.116   9.932   3.071 -0.2535 -0.4595 -0.7505
  562MOL0     H75864   5.254   9.697   3.061  0.2676  0.7400 -4.0681
  562MOL0     H75865   5.322   9.752   3.215  0.2218 -0.0678  0.1430
  562MOL0     H75866   5.407   9.956   3.120  0.5763  2.0605 -2.3184
  562MOL0     H75867   5.343   9.918   2.962  2.4213  0.0339 -1.0187
  562MOL0     H75868   5.702   9.722   2.942  1.5263  2.5472  0.4350
  562MOL0     H75869   4.783   9.900   3.007  1.5864 -1.1820  1.3150
  562MOL0     H75870   4.556   9.800   2.948 -1.2990 -0.5102  1.3406
  563MOL0     O75871   5.303   4.342   5.972 -0.7338 -0.1827 -0.1142
  563MOL0     C75872   5.340   4.396   6.081 -0.6794  0.5494 -0.9626
  563MOL0     O75873   5.437   4.491   6.098 -0.0326  0.4473 -0.2523
  563MOL0     C75874   5.520   4.542   6.002 -0.6007 -0.8258 -0.5066
  563MOL0     C75875   5.513   4.517   5.864  0.2741 -1.0088 -0.7142
  563MOL0     C75876   5.611   4.587   5.777 -0.5858 -0.0340 -0.3731
  563MOL0     C75877   5.723   4.662   5.828 -0.1566 -0.3411 -0.7862
  563MOL0     O75878   5.804   4.730   5.739 -0.3182  0.2718  0.0771
  563MOL0     C75879   5.942   4.755   5.770  0.9080 -0.1582  0.0407
  563MOL0     C75880   5.996   4.844   5.648  0.0399 -0.2822 -0.6581
  563MOL0     C75881   6.145   4.854   5.657 -0.7996 -0.1350  0.3776
  563MOL0     C75882   6.199   4.893   5.516 -0.4204  0.7374  0.3055
  563MOL0     C75883   6.354   4.920   5.510  0.7390  0.7026  0.1624
  563MOL0     C75884   6.431   4.796   5.461  0.6946 -0.0696 -0.4634
  563MOL0     C75885   6.577   4.814   5.446 -0.9480  0.0196  1.2554
  563MOL0     C75886   6.644   4.729   5.337  0.0046  0.3685  0.1315
  563MOL0     N75887   6.787   4.752   5.349  0.3269  0.3189  0.1032
  563MOL0     C75888   6.855   4.859   5.301  0.7664 -0.6914 -1.1550
  563MOL0     C75889   6.980   4.825   5.308 -0.8386  0.1896 -0.2037
  563MOL0     C75890   7.092   4.912   5.265  0.6567 -0.2300 -0.1870
  563MOL0     C75891   7.156   4.970   5.388  0.6931 -0.0699 -0.1086
  563MOL0     C75892   7.234   4.869   5.477 -0.5654  0.0217  0.5557
  563MOL0     C75893   7.296   4.924   5.605  0.3530  0.2188  0.7119
  563MOL0     O75894   7.389   5.032   5.571  0.3177  0.6048 -0.2636
  563MOL0     C75895   7.462   5.078   5.678 -0.5919  1.4329  0.2757
  563MOL0     C75896   7.559   5.172   5.650 -0.1495  0.1859 -1.1251
  563MOL0     C75897   7.638   5.233   5.743 -1.2655  0.6193 -1.1198
  563MOL0     C75898   7.741   5.336   5.693  0.9942  0.1527 -1.0153
  563MOL0     C75899   7.615   5.197   5.881 -0.1290 -0.5124  0.1131
  563MOL0     C75900   7.696   5.253   5.998 -0.1967 -0.8232  0.3538
  563MOL0     O75901   7.646   5.207   6.115 -0.5041 -0.3502  0.0201
  563MOL0     C75902   7.718   5.245   6.226  0.4466  0.5901 -0.3040
  563MOL0     C75903   7.648   5.284   6.346  0.1831 -0.5467  0.9007
  563MOL0     C75904   7.724   5.313   6.459 -0.6171 -0.5589  1.1537
  563MOL0     C75905   7.861   5.295   6.464  0.2977 -0.0830 -0.3969
  563MOL0     O75906   7.935   5.317   6.578 -0.0829 -0.4654  0.8897
  563MOL0     C75907   7.881   5.359   6.698  0.1992 -0.1600 -0.4377
  563MOL0     C75908   7.864   5.511   6.699  0.1091 -1.5412 -0.1795
  563MOL0     C75909   7.806   5.560   6.821  0.0482 -0.2757 -0.0071
  563MOL0     C75910   7.660   5.535   6.830  1.0716 -0.0154  0.4984
  563MOL0     C75911   7.609   5.539   6.978 -0.4103  0.2442  0.4474
  563MOL0     C75912   7.649   5.679   7.037 -0.0372 -0.1177 -0.7056
  563MOL0     C75913   7.568   5.699   7.163 -0.8828 -0.4177 -1.1065
  563MOL0     C75914   7.571   5.851   7.204 -0.3192  0.4232  0.5536
  563MOL0    Cl75915   7.734   5.893   7.261 -0.2344 -0.3973 -0.5287
  563MOL0     C75916   7.926   5.262   6.338 -0.0224  0.2755 -0.5498
  563MOL0     C75917   7.852   5.222   6.224 -0.2589 -0.0558 -0.1757
  563MOL0     O75918   7.778   5.344   5.979  0.0932  0.4467  0.7764
  563MOL0     C75919   7.510   5.101   5.910  0.4118  0.7358 -0.0718
  563MOL0     C75920   7.435   5.042   5.810 -0.2008 -0.3000 -0.0268
  563MOL0     N75921   6.991   4.695   5.349  0.8664  0.7429  0.3532
  563MOL0     N75922   6.879   4.651   5.375  0.3768 -0.8122  0.4552
  563MOL0     C75923   5.727   4.685   5.968 -0.3616 -1.0707 -0.8361
  563MOL0     C75924   5.618   4.628   6.049 -0.6460 -0.3094  0.5884
  563MOL0     C75925   5.266   4.368   6.211 -0.2707 -0.9660 -0.0127
  563MOL0     C75926   5.138   4.321   6.212  0.3900  0.1843 -0.2291
  563MOL0     C75927   5.069   4.291   6.330  0.0568  0.0955 -0.1395
  563MOL0     C75928   5.127   4.318   6.459  0.2153  0.0431 -0.2194
  563MOL0     O75929   5.061   4.285   6.577  0.5046  0.4024  0.0412
  563MOL0     C75930   4.946   4.203   6.572  0.4514 -0.2708  0.3405
  563MOL0     C75931   4.917   4.128   6.703 -1.6709 -0.6006  0.8272
  563MOL0     C75932   4.898   4.220   6.827  0.2642 -0.8678  0.0534
  563MOL0     C75933   4.807   4.337   6.807 -0.5662 -1.2632  0.6340
  563MOL0     C75934   4.678   4.304   6.742 -0.6606  0.6623  0.1596
  563MOL0     C75935   4.581   4.309   6.687  0.0907 -0.0548 -0.7458
  563MOL0     C75936   5.251   4.372   6.463 -0.9416  0.3953  0.9764
  563MOL0     C75937   5.319   4.390   6.339  0.4652 -0.1321  0.6722
  563MOL0     H75938   5.438   4.463   5.808 -3.1507  3.8964 -1.5509
  563MOL0     H75939   5.611   4.559   5.672 -0.9721 -2.7221  0.2608
  563MOL0     H75940   5.950   4.809   5.865  2.6348 -1.4951  0.6917
  563MOL0     H75941   6.002   4.664   5.779 -0.3233 -1.0889 -0.7658
  563MOL0     H75942   5.964   4.790   5.558  3.3822 -1.5266 -1.2426
  563MOL0     H75943   5.952   4.944   5.651  0.1772 -0.2161 -0.8290
  563MOL0     H75944   6.176   4.920   5.739  1.2859 -0.8666  0.2425
  563MOL0     H75945   6.190   4.760   5.691 -0.5842 -0.2263 -0.1579
  563MOL0     H75946   6.168   4.823   5.438  1.5476  0.1552 -0.0141
  563MOL0     H75947   6.150   4.988   5.493 -1.6285 -0.2338 -1.3888
  563MOL0     H75948   6.360   5.001   5.436 -1.4132  1.8229  1.1137
  563MOL0     H75949   6.383   4.960   5.607  1.5298  0.1396  0.1630
  563MOL0     H75950   6.426   4.712   5.531 -1.3545  1.1215  0.9369
  563MOL0     H75951   6.382   4.756   5.372 -1.9600 -1.1457  1.3341
  563MOL0     H75952   6.601   4.919   5.431  1.9242 -0.7181 -0.0755
  563MOL0     H75953   6.626   4.778   5.538 -1.5348  0.4351  1.7339
  563MOL0     H75954   6.607   4.766   5.241  0.1528 -0.5345 -0.2833
  563MOL0     H75955   6.625   4.623   5.356  0.9563 -0.0630 -1.2058
  563MOL0     H75956   6.810   4.947   5.255 -0.0253 -0.8408 -0.6931
  563MOL0     H75957   7.165   4.869   5.196  0.6558  1.1447 -1.0882
  563MOL0     H75958   7.047   4.995   5.208  0.5436 -1.0825 -1.3835
  563MOL0     H75959   7.084   5.008   5.461  2.6363  2.8233  0.4924
  563MOL0     H75960   7.225   5.053   5.367  1.5326 -0.7774 -0.1945
  563MOL0     H75961   7.313   4.817   5.422 -2.2810 -1.2198 -0.8444
  563MOL0     H75962   7.163   4.795   5.516 -0.5970  0.6870  1.8301
  563MOL0     H75963   7.345   4.839   5.653  0.3603 -0.3781 -0.3335
  563MOL0     H75964   7.212   4.956   5.667  0.2704 -0.8003  1.1348
  563MOL0     H75965   7.567   5.187   5.543 -3.3031  1.1971 -1.3312
  563MOL0     H75966   7.707   5.393   5.606  2.4424 -0.8136 -2.2944
  563MOL0     H75967   7.757   5.413   5.768 -1.8600  1.1336 -1.2808
  563MOL0     H75968   7.839   5.293   5.669  1.5856  2.4517 -3.1159
  563MOL0     H75969   7.540   5.289   6.344  0.2278  0.2727 -1.2417
  563MOL0     H75970   7.684   5.354   6.552 -2.9460  0.2960 -0.1471
  563MOL0     H75971   7.786   5.311   6.722  0.3435 -0.5843 -0.6990
  563MOL0     H75972   7.943   5.319   6.780  1.0897 -0.4169 -1.2202
  563MOL0     H75973   7.960   5.558   6.677 -0.1452 -0.4422  0.9235
  563MOL0     H75974   7.800   5.548   6.619  2.6892  1.1099 -1.2021
  563MOL0     H75975   7.820   5.669   6.824  2.2206 -0.5224  0.1367
  563MOL0     H75976   7.855   5.506   6.902 -0.5180 -2.4962 -1.0770
  563MOL0     H75977   7.600   5.599   6.766 -1.7615 -0.8284  2.1744
  563MOL0     H75978   7.637   5.434   6.794  2.2338 -0.2798  0.4403
  563MOL0     H75979   7.658   5.467   7.045  0.0801  2.4201  2.5528
  563MOL0     H75980   7.502   5.517   6.989 -0.6890  2.1565  2.3354
  563MOL0     H75981   7.753   5.665   7.069 -0.6241 -0.7654  1.0389
  563MOL0     H75982   7.623   5.764   6.974  0.6440  2.2375  1.9537
  563MOL0     H75983   7.616   5.647   7.247 -2.4541 -0.2555 -0.0625
  563MOL0     H75984   7.467   5.661   7.145 -0.3758 -3.7555  1.9009
  563MOL0     H75985   7.506   5.868   7.291 -0.6297  0.0741  0.3922
  563MOL0     H75986   7.532   5.906   7.118  1.9513  0.8737 -0.2442
  563MOL0     H75987   8.035   5.258   6.335 -0.0256 -0.0406 -3.6860
  563MOL0     H75988   7.903   5.163   6.149  0.8176 -0.9689  1.2270
  563MOL0     H75989   7.486   5.074   6.012 -1.2959 -0.6863 -0.7961
  563MOL0     H75990   7.360   4.965   5.830 -1.5051 -0.4257 -4.3625
  563MOL0     H75991   5.806   4.749   6.006 -0.7404  0.0819 -1.9218
  563MOL0     H75992   5.622   4.654   6.154 -1.3252 -1.7510  0.9897
  563MOL0     H75993   5.079   4.304   6.122  0.3442  2.9981 -0.8030
  563MOL0     H75994   4.972   4.250   6.306  0.5629 -0.6973 -0.8674
  563MOL0     H75995   4.860   4.267   6.552 -0.8382 -1.3655  2.1281
  563MOL0     H75996   4.957   4.129   6.493  0.2629 -2.4571  2.2674
  563MOL0     H75997   4.997   4.064   6.740 -2.1521 -1.7862 -0.1122
  563MOL0     H75998   4.830   4.063   6.686 -0.2809 -2.6466  1.2003
  563MOL0     H75999   4.994   4.255   6.867 -1.0117  2.1701  0.7562
  563MOL0     H76000   4.865   4.159   6.912  0.5628  0.5645  1.2398
  563MOL0     H76001   4.861   4.411   6.748 -0.1958 -0.6749  1.6806
  563MOL0     H76002   4.787   4.379   6.907  1.1394 -1.0415  0.9112
  563MOL0     H76003   4.496   4.332   6.625 -3.3468  0.0759  3.5479
  563MOL0     H76004   5.300   4.368   6.560 -0.1158  0.0650  0.5605
  563MOL0     H76005   5.422   4.422   6.353  0.3730  0.1113  0.8109
  564MOL0     O76006   3.421   6.389   2.616 -0.5412 -0.1228  0.3662
  564MOL0     C76007   3.542   6.377   2.645 -0.5868  0.8198 -0.8998
  564MOL0     O76008   3.640   6.309   2.577  0.4796  0.3157  0.5457
  564MOL0     C76009   3.613   6.301   2.446 -0.5855 -0.0545 -0.0327
  564MOL0     C76010   3.725   6.316   2.366  0.1215  0.6442 -1.0386
  564MOL0     C76011   3.713   6.312   2.226  0.0811 -0.4376  0.2700
  564MOL0     C76012   3.586   6.286   2.165  0.6981  0.1824 -0.1915
  564MOL0     O76013   3.586   6.270   2.023  0.8522 -0.3758 -0.3052
  564MOL0     C76014   3.478   6.240   1.945 -0.0287 -0.3313  0.5855
  564MOL0     C76015   3.493   6.085   1.933 -0.3626  0.3390 -0.6738
  564MOL0     C76016   3.539   6.042   1.803 -0.2375 -0.8981  0.1770
  564MOL0     C76017   3.548   5.891   1.785 -0.4034 -0.1279 -0.7516
  564MOL0     C76018   3.558   5.850   1.624 -0.2007 -0.6528  0.0031
  564MOL0     C76019   3.640   5.952   1.539 -0.3974  0.6184 -0.5543
  564MOL0     C76020   3.790   5.952   1.590  0.1113  0.0586  0.0037
  564MOL0     C76021   3.884   6.031   1.497 -0.0570 -0.1289 -0.0485
  564MOL0     N76022   3.836   6.168   1.462 -0.0698 -0.2440  0.2637
  564MOL0     C76023   3.849   6.268   1.545  0.8279 -0.0976 -0.0619
  564MOL0     C76024   3.784   6.371   1.495  0.8446 -0.3311 -0.6965
  564MOL0     C76025   3.756   6.506   1.562  0.3793 -0.1861 -0.3543
  564MOL0     C76026   3.659   6.499   1.688  0.0444 -0.4218 -0.5971
  564MOL0     C76027   3.630   6.638   1.757 -0.4381  0.0178  0.2878
  564MOL0     C76028   3.565   6.606   1.897 -0.3820  0.2759  0.0667
  564MOL0     O76029   3.672   6.582   1.991 -0.0204  0.5345 -0.6152
  564MOL0     C76030   3.735   6.688   2.054  0.2817 -0.1091 -0.5565
  564MOL0     C76031   3.711   6.827   2.031  0.6126  0.6774 -0.2287
  564MOL0     C76032   3.768   6.919   2.117  0.2541  0.3107 -0.3932
  564MOL0     C76033   3.730   7.067   2.083  0.3553 -0.2866  0.2762
  564MOL0     C76034   3.866   6.882   2.216  0.5100 -0.5970 -1.0100
  564MOL0     C76035   3.940   6.976   2.311  0.0179  0.3481  0.2249
  564MOL0     O76036   4.077   6.947   2.315 -0.4421  0.1330 -0.6061
  564MOL0     C76037   4.155   7.045   2.351 -0.3670  0.0076 -0.6392
  564MOL0     C76038   4.144   7.175   2.291  0.8680  0.0745 -0.2463
  564MOL0     C76039   4.244   7.268   2.313 -0.0558 -0.0882 -0.0093
  564MOL0     C76040   4.365   7.229   2.374 -0.0384 -0.9198  0.7914
  564MOL0     O76041   4.474   7.311   2.390  0.5680  0.3043  0.1540
  564MOL0     C76042   4.483   7.432   2.314  0.2459 -0.1860  0.2805
  564MOL0     C76043   4.618   7.505   2.326  0.1503  0.0390 -0.1853
  564MOL0     C76044   4.735   7.405   2.333 -0.2405 -0.3507 -1.0132
  564MOL0     C76045   4.869   7.486   2.369 -0.1393  0.0712 -0.9396
  564MOL0     C76046   5.000   7.401   2.375  0.1742  0.4626 -0.9390
  564MOL0     C76047   5.034   7.357   2.238 -0.4633  0.4179  0.0609
  564MOL0     C76048   5.181   7.331   2.230  0.5169  0.1722  0.3067
  564MOL0     C76049   5.232   7.295   2.090  1.1983  0.9490 -0.6194
  564MOL0    Cl76050   5.406   7.335   2.081 -0.4117 -0.0538  0.4473
  564MOL0     C76051   4.373   7.108   2.432  0.6563  0.5904 -0.4089
  564MOL0     C76052   4.267   7.011   2.425 -0.5784 -0.5150  0.4928
  564MOL0     O76053   3.885   7.064   2.377 -0.6218  0.4253 -0.1763
  564MOL0     C76054   3.893   6.745   2.230  0.1379 -0.3233  0.2995
  564MOL0     C76055   3.827   6.646   2.150 -1.4246  0.5858 -0.5076
  564MOL0     N76056   3.729   6.335   1.376  0.2461 -0.0498 -0.2947
  564MOL0     N76057   3.767   6.215   1.355 -0.7009 -0.0331  0.0490
  564MOL0     C76058   3.487   6.244   2.248  0.5101  0.5665 -0.2193
  564MOL0     C76059   3.500   6.244   2.389  0.0235  0.6040  0.1423
  564MOL0     C76060   3.589   6.450   2.767  0.4399 -0.6002 -0.0097
  564MOL0     C76061   3.728   6.441   2.803  0.5325 -0.1718 -0.1997
  564MOL0     C76062   3.770   6.518   2.919  0.4905 -1.3376 -0.0603
  564MOL0     C76063   3.680   6.600   2.995  0.4002  0.3355  0.0181
  564MOL0     O76064   3.712   6.655   3.116  0.4204 -0.1814  0.2908
  564MOL0     C76065   3.626   6.624   3.227 -0.5527 -0.4139 -0.0222
  564MOL0     C76066   3.701   6.656   3.356 -0.0389  0.1464  0.1327
  564MOL0     C76067   3.634   6.607   3.487  0.7381 -0.0511  0.1010
  564MOL0     C76068   3.503   6.682   3.524  0.2477 -0.2533 -0.7606
  564MOL0     C76069   3.386   6.622   3.454 -0.4024  0.4496  0.5071
  564MOL0     C76070   3.296   6.580   3.389  0.0730  1.4685 -0.0769
  564MOL0     C76071   3.548   6.598   2.957 -0.8595  0.8701  0.7041
  564MOL0     C76072   3.505   6.527   2.841 -0.3405  0.2257 -0.3406
  564MOL0     H76073   3.826   6.316   2.407 -1.4479 -3.1460  3.7033
  564MOL0     H76074   3.801   6.321   2.162  1.4020  0.4073  2.1187
  564MOL0     H76075   3.385   6.283   1.985  0.7267  0.8956  1.0686
  564MOL0     H76076   3.480   6.291   1.849 -1.7593 -0.7501  0.2898
  564MOL0     H76077   3.562   6.038   2.004 -0.2109  0.4309 -0.7596
  564MOL0     H76078   3.394   6.041   1.950  0.0374 -0.6988 -0.9402
  564MOL0     H76079   3.462   6.069   1.730  1.5046 -2.3121 -2.3145
  564MOL0     H76080   3.633   6.094   1.785 -0.5447  0.0587  1.1409
  564MOL0     H76081   3.642   5.854   1.828  1.7671  2.9825 -2.4026
  564MOL0     H76082   3.462   5.840   1.828 -0.0713 -0.1470 -0.0989
  564MOL0     H76083   3.593   5.747   1.612  1.6942  0.0367 -0.5985
  564MOL0     H76084   3.457   5.845   1.580 -0.7417 -0.1322  1.1491
  564MOL0     H76085   3.643   5.924   1.433 -1.5177  1.2293 -0.7644
  564MOL0     H76086   3.602   6.054   1.542  4.4413  2.6605  0.1068
  564MOL0     H76087   3.792   6.009   1.683  1.6036  3.9869 -2.2374
  564MOL0     H76088   3.825   5.850   1.613  1.0649  1.0115  3.3022
  564MOL0     H76089   3.902   5.989   1.398 -1.7058  1.1020 -0.9149
  564MOL0     H76090   3.979   6.030   1.551 -0.0699  1.3241  0.0255
  564MOL0     H76091   3.888   6.266   1.646 -2.0270  1.4277  1.1796
  564MOL0     H76092   3.857   6.532   1.593  0.0745  1.7455 -0.8553
  564MOL0     H76093   3.714   6.574   1.487 -0.8676 -2.8811 -2.2294
  564MOL0     H76094   3.706   6.429   1.758  0.4179  0.8181  0.4314
  564MOL0     H76095   3.558   6.462   1.668  0.5764 -2.1007 -0.3447
  564MOL0     H76096   3.561   6.693   1.691 -0.1039 -1.3036 -1.2274
  564MOL0     H76097   3.728   6.685   1.774 -1.2934  1.2345  2.1500
  564MOL0     H76098   3.499   6.519   1.898 -0.3306  0.2337 -0.1730
  564MOL0     H76099   3.504   6.691   1.929 -0.4134 -0.2814  1.5545
  564MOL0     H76100   3.634   6.860   1.962 -0.3322  0.4943  0.7172
  564MOL0     H76101   3.816   7.132   2.101  1.1408 -0.3124 -2.7523
  564MOL0     H76102   3.715   7.065   1.974 -0.5607 -3.9493  0.3208
  564MOL0     H76103   3.638   7.097   2.134  0.1087 -2.3919  1.1669
  564MOL0     H76104   4.054   7.194   2.234 -0.9650 -1.3565  1.9659
  564MOL0     H76105   4.238   7.364   2.262 -0.5874  0.7975  1.6368
  564MOL0     H76106   4.490   7.389   2.213  4.1822  0.7611 -0.0165
  564MOL0     H76107   4.398   7.499   2.323 -2.8879 -3.7030 -0.3311
  564MOL0     H76108   4.622   7.581   2.247 -0.3274  0.2314 -0.0238
  564MOL0     H76109   4.616   7.564   2.418 -0.6819 -2.5101  1.5304
  564MOL0     H76110   4.738   7.358   2.234  1.6890  1.5670 -1.9378
  564MOL0     H76111   4.721   7.339   2.419 -2.2732  3.0233  1.5050
  564MOL0     H76112   4.879   7.587   2.328 -2.2499  1.1501  1.0221
  564MOL0     H76113   4.846   7.530   2.466 -2.3584  0.3692 -1.5324
  564MOL0     H76114   4.991   7.310   2.435 -0.6721  0.4760 -1.0338
  564MOL0     H76115   5.072   7.473   2.414  0.5164  0.3101 -1.2782
  564MOL0     H76116   4.982   7.271   2.195  0.0835 -0.1422  0.5133
  564MOL0     H76117   5.001   7.443   2.178  0.7316  2.0263  1.5849
  564MOL0     H76118   5.196   7.243   2.295 -1.0022 -1.7318 -1.7861
  564MOL0     H76119   5.234   7.417   2.272  0.8363 -0.1259  0.5288
  564MOL0     H76120   5.173   7.345   2.013 -1.4215  0.9619  1.2383
  564MOL0     H76121   5.222   7.187   2.076 -0.1849  0.8297  0.9804
  564MOL0     H76122   4.459   7.064   2.482  0.6526  0.0393 -0.8712
  564MOL0     H76123   4.267   6.909   2.463 -3.0824 -0.3460  1.1662
  564MOL0     H76124   3.944   6.717   2.322  0.2629 -0.3134  0.2336
  564MOL0     H76125   3.853   6.540   2.155  0.1548  0.8089 -2.7260
  564MOL0     H76126   3.394   6.216   2.200 -0.4988 -0.6810  2.2436
  564MOL0     H76127   3.423   6.206   2.455  1.1969 -0.5023  0.9408
  564MOL0     H76128   3.793   6.396   2.729 -0.2646  1.3898 -1.9668
  564MOL0     H76129   3.872   6.511   2.956  0.2265 -0.3133  0.9417
  564MOL0     H76130   3.538   6.688   3.218  1.5099  2.6488 -0.0170
  564MOL0     H76131   3.593   6.520   3.222  0.3425 -0.8553  2.0342
  564MOL0     H76132   3.720   6.764   3.357  1.0800 -0.0196 -0.6518
  564MOL0     H76133   3.801   6.613   3.343  0.3783  1.2048 -0.3080
  564MOL0     H76134   3.704   6.628   3.569  0.2189  1.2106  0.2350
  564MOL0     H76135   3.618   6.501   3.508 -1.2478  0.2629  0.2909
  564MOL0     H76136   3.511   6.791   3.512 -1.8276  0.0371  0.1104
  564MOL0     H76137   3.484   6.670   3.631  0.4616  3.2827 -0.1965
  564MOL0     H76138   3.218   6.512   3.360  0.4254  0.5229  1.0893
  564MOL0     H76139   3.462   6.630   3.015 -1.5464 -3.2875  2.2865
  564MOL0     H76140   3.400   6.511   2.821 -0.1373 -0.6979 -0.7269
  565MOL0     O76141  10.531   5.979   4.465  0.5165  0.0225 -0.6737
  565MOL0     C76142  10.643   6.002   4.505  0.4221  0.1681 -0.1454
  565MOL0     O76143  10.684   5.980   4.639 -0.0637  0.0470  0.0259
  565MOL0     C76144  10.598   5.983   4.746  0.1761  0.4370 -0.1400
  565MOL0     C76145  10.468   6.030   4.748 -0.1248 -0.9698  0.0247
  565MOL0     C76146  10.394   6.040   4.868 -0.0128 -0.4100  0.5575
  565MOL0     C76147  10.442   5.990   4.990 -0.0637  0.9583  0.0634
  565MOL0     O76148  10.344   5.979   5.082  0.0319  0.3599  0.6530
  565MOL0     C76149  10.324   5.840   5.135 -0.2932 -0.6921 -0.0777
  565MOL0     C76150  10.214   5.847   5.246 -0.3677 -0.0490 -0.4116
  565MOL0     C76151  10.072   5.885   5.199  0.2708 -0.6337  0.7989
  565MOL0     C76152  10.020   5.996   5.290 -0.7409  0.1039  1.0704
  565MOL0     C76153  10.082   6.132   5.276 -0.0767 -0.1518  0.5732
  565MOL0     C76154  10.027   6.210   5.159  0.3368  1.2165 -0.6504
  565MOL0     C76155  10.097   6.348   5.138  0.1848  0.1012 -0.3020
  565MOL0     C76156  10.202   6.323   5.030 -0.6859 -0.9553 -0.3599
  565MOL0     N76157  10.298   6.431   5.022 -0.4321 -0.1405  0.7185
  565MOL0     C76158  10.389   6.462   5.114  0.3161 -0.5288 -0.1355
  565MOL0     C76159  10.438   6.586   5.083  0.9783  0.0838 -0.0105
  565MOL0     C76160  10.540   6.651   5.155 -0.1574  0.3564 -0.7904
  565MOL0     C76161  10.661   6.650   5.064  0.4702 -0.1113 -0.3565
  565MOL0     C76162  10.779   6.725   5.128  0.3277  0.8280 -0.0913
  565MOL0     C76163  10.907   6.686   5.072  0.1228  0.7620 -0.7587
  565MOL0     O76164  11.002   6.781   5.133 -0.0169  0.8402 -0.2556
  565MOL0     C76165  11.138   6.755   5.109 -0.6784  0.7681  1.2580
  565MOL0     C76166  11.204   6.625   5.060  0.1175  1.0409  0.2284
  565MOL0     C76167  11.341   6.624   5.038 -0.8594  0.7856 -0.4309
  565MOL0     C76168  11.403   6.493   4.990 -1.0163 -0.4890 -0.5266
  565MOL0     C76169  11.417   6.733   5.082  0.1257 -0.9710  0.4318
  565MOL0     C76170  11.559   6.733   5.087  0.6697 -0.0259 -1.0828
  565MOL0     O76171  11.615   6.800   4.978 -0.2480 -0.0310  0.0439
  565MOL0     C76172  11.749   6.768   4.957 -0.9708  0.2165  0.0967
  565MOL0     C76173  11.849   6.826   5.032 -0.3249  0.4680 -0.4737
  565MOL0     C76174  11.982   6.805   4.998 -0.7423 -0.3287  0.9676
  565MOL0     C76175  12.016   6.736   4.881  0.6368 -0.2866 -0.3190
  565MOL0     O76176  12.148   6.741   4.853  0.0789  0.9788  0.4475
  565MOL0     C76177  12.198   6.655   4.749  0.4479  1.0485 -0.3950
  565MOL0     C76178  12.162   6.685   4.609 -0.4428  0.3245  0.0637
  565MOL0     C76179  12.251   6.620   4.490  0.4896 -1.1875  0.0123
  565MOL0     C76180  12.402   6.648   4.503 -0.3167  0.1887 -0.1718
  565MOL0     C76181  12.474   6.605   4.372 -0.6623  0.1870  0.1014
  565MOL0     C76182  12.631   6.594   4.393 -0.3482  0.2523  0.0780
  565MOL0     C76183  12.691   6.732   4.441  0.2521 -0.3792  0.6569
  565MOL0     C76184  12.847   6.733   4.484  0.6556 -0.6007 -0.6393
  565MOL0    Cl76185  12.934   6.654   4.363 -0.4486 -0.3998  0.0520
  565MOL0     C76186  11.923   6.659   4.824  0.5539  0.0719 -0.3746
  565MOL0     C76187  11.784   6.678   4.855  0.1188 -0.5848 -0.3329
  565MOL0     O76188  11.619   6.665   5.167  0.5443 -1.2203  0.8478
  565MOL0     C76189  11.353   6.852   5.119 -0.1228 -0.3257 -0.1840
  565MOL0     C76190  11.215   6.861   5.137  0.4995  0.0470 -0.4905
  565MOL0     N76191  10.368   6.622   4.964  0.1387 -0.0945  0.3596
  565MOL0     N76192  10.279   6.533   4.936  0.5331  0.2958 -0.5852
  565MOL0     C76193  10.571   5.931   4.986 -0.2208  0.3961 -0.0223
  565MOL0     C76194  10.643   5.924   4.868 -0.8941 -0.1919  0.0466
  565MOL0     C76195  10.748   6.060   4.411  0.1005 -0.4548  0.2683
  565MOL0     C76196  10.702   6.143   4.315 -0.4291  0.4685  0.1633
  565MOL0     C76197  10.791   6.215   4.235  0.8950 -0.1673 -0.4591
  565MOL0     C76198  10.933   6.205   4.243  0.6681 -0.5210  0.0682
  565MOL0     O76199  11.026   6.267   4.154  0.3197  0.4679 -0.4243
  565MOL0     C76200  10.976   6.352   4.044 -0.1956 -0.5944 -0.2514
  565MOL0     C76201  10.953   6.497   4.093  0.0167 -0.0145  0.6031
  565MOL0     C76202  10.895   6.588   3.986 -0.1984  0.1017 -0.3672
  565MOL0     C76203  10.751   6.646   4.019 -0.1527  0.5410 -1.3442
  565MOL0     C76204  10.663   6.566   4.108 -0.2718  0.9203 -1.1558
  565MOL0     C76205  10.606   6.496   4.188  0.0034 -0.0202  0.9666
  565MOL0     C76206  10.984   6.103   4.327 -0.6755  0.1984  0.4787
  565MOL0     C76207  10.891   6.037   4.411  0.1859  0.7564  0.9145
  565MOL0     H76208  10.442   6.092   4.662  1.2325  0.4656  0.6054
  565MOL0     H76209  10.294   6.078   4.857  0.5597  1.0164  0.1139
  565MOL0     H76210  10.285   5.775   5.057  1.1804 -0.7919 -0.7577
  565MOL0     H76211  10.412   5.797   5.183  0.1992  0.8588  0.4693
  565MOL0     H76212  10.202   5.752   5.297 -1.0221 -0.6771 -1.6850
  565MOL0     H76213  10.254   5.919   5.318 -1.8949  0.1778  0.2509
  565MOL0     H76214  10.068   5.910   5.092 -0.6022  1.0517  1.1910
  565MOL0     H76215  10.014   5.793   5.209 -0.9357 -0.0594 -0.5890
  565MOL0     H76216   9.912   5.991   5.272 -1.1687 -1.4143  3.5977
  565MOL0     H76217  10.040   5.965   5.393  3.5024 -1.6220 -0.0443
  565MOL0     H76218  10.073   6.187   5.370  0.0460  0.3174  0.3147
  565MOL0     H76219  10.190   6.123   5.260 -0.5597 -0.4298 -3.5618
  565MOL0     H76220  10.034   6.159   5.062  0.4217  2.3822 -1.2741
  565MOL0     H76221   9.924   6.236   5.183  0.5165  0.2263  1.4428
  565MOL0     H76222  10.014   6.412   5.105 -0.6707 -0.2018  1.1588
  565MOL0     H76223  10.142   6.382   5.232 -1.2755  0.8039  0.1903
  565MOL0     H76224  10.151   6.297   4.937 -4.1613  0.1555  1.0780
  565MOL0     H76225  10.272   6.244   5.061 -0.3099 -0.5232 -0.1018
  565MOL0     H76226  10.437   6.409   5.196  2.2786 -1.3311 -1.7117
  565MOL0     H76227  10.518   6.755   5.183 -2.1524 -0.0970 -0.5492
  565MOL0     H76228  10.563   6.598   5.248 -0.4208  1.6740  0.0574
  565MOL0     H76229  10.632   6.709   4.976 -0.6703 -0.5424 -0.2898
  565MOL0     H76230  10.687   6.549   5.033  1.8700 -0.3099  1.3224
  565MOL0     H76231  10.784   6.696   5.234  1.5980  0.0252 -0.3509
  565MOL0     H76232  10.769   6.834   5.128  3.2506  1.2225 -2.7282
  565MOL0     H76233  10.904   6.695   4.963  0.9551 -0.0159 -0.8536
  565MOL0     H76234  10.926   6.580   5.087 -1.2676  0.5233 -0.5174
  565MOL0     H76235  11.139   6.547   5.022 -0.6244  1.9561 -0.4394
  565MOL0     H76236  11.328   6.414   4.996 -1.9243  0.3876  0.0654
  565MOL0     H76237  11.420   6.514   4.884 -1.5087  2.9788 -0.0448
  565MOL0     H76238  11.495   6.468   5.044  0.6959  3.7846 -1.0211
  565MOL0     H76239  11.798   6.883   5.109 -0.5485  1.0484 -1.0442
  565MOL0     H76240  12.065   6.847   5.055 -0.6582  0.6227  0.1803
  565MOL0     H76241  12.307   6.654   4.752  0.6073 -1.4310 -2.9347
  565MOL0     H76242  12.172   6.553   4.777  1.7653  0.4513 -1.2502
  565MOL0     H76243  12.058   6.659   4.590 -0.2514 -0.5148  0.1046
  565MOL0     H76244  12.180   6.792   4.622 -0.1109  0.0798  1.8296
  565MOL0     H76245  12.208   6.651   4.394  0.4715  1.2297  0.7184
  565MOL0     H76246  12.236   6.512   4.487  1.3921 -1.2982 -1.6038
  565MOL0     H76247  12.421   6.753   4.525 -1.0486  1.2102 -3.6636
  565MOL0     H76248  12.449   6.599   4.588  1.1926 -0.5712 -1.4048
  565MOL0     H76249  12.447   6.665   4.285 -2.8451 -0.4615  0.2826
  565MOL0     H76250  12.440   6.506   4.340 -2.7849  0.3976  1.5053
  565MOL0     H76251  12.663   6.520   4.468 -0.2173  0.0385 -0.1885
  565MOL0     H76252  12.679   6.561   4.301 -1.8327  0.8826 -0.9663
  565MOL0     H76253  12.634   6.764   4.528  0.3762 -0.5710  0.8114
  565MOL0     H76254  12.679   6.805   4.361  0.6630  1.1767  1.9466
  565MOL0     H76255  12.865   6.692   4.584 -2.1683  1.2584  0.7635
  565MOL0     H76256  12.871   6.839   4.486 -0.1539 -0.4108  1.8464
  565MOL0     H76257  11.961   6.583   4.756  0.3272  0.9876 -1.5521
  565MOL0     H76258  11.705   6.623   4.804 -0.4013  0.5939 -0.8327
  565MOL0     H76259  11.417   6.937   5.143  4.4486 -3.6132  0.5823
  565MOL0     H76260  11.166   6.951   5.173  1.6039  0.7991 -0.7841
  565MOL0     H76261  10.616   5.877   5.069  1.2144 -2.4746 -2.4666
  565MOL0     H76262  10.741   5.877   4.873 -0.0267  1.5952  1.7799
  565MOL0     H76263  10.597   6.165   4.298  0.2894  2.6658 -1.9650
  565MOL0     H76264  10.755   6.284   4.160  1.3157  0.5785  0.0094
  565MOL0     H76265  11.054   6.364   3.968 -2.2107  0.6566 -2.2503
  565MOL0     H76266  10.882   6.318   4.000 -1.6455  0.7950  1.6266
  565MOL0     H76267  11.050   6.541   4.118 -0.0861  1.2231 -1.0159
  565MOL0     H76268  10.890   6.494   4.182 -1.1564  1.1750 -0.1562
  565MOL0     H76269  10.896   6.540   3.887  0.5474 -1.2809  0.2874
  565MOL0     H76270  10.975   6.663   3.983 -1.3447  1.4004  0.3684
  565MOL0     H76271  10.696   6.661   3.925 -1.3573 -2.0365 -1.1401
  565MOL0     H76272  10.769   6.744   4.064 -0.3807  0.8263 -1.8695
  565MOL0     H76273  10.552   6.428   4.251 -2.9651 -0.3190 -1.6629
  565MOL0     H76274  11.089   6.090   4.349 -0.5272  0.3432 -0.1215
  565MOL0     H76275  10.933   5.964   4.480  0.2203 -1.8926 -1.7167
  566MOL0     O76276   9.745   1.735  10.478 -0.5127  0.4145  0.8070
  566MOL0     C76277   9.846   1.804  10.473  0.5015  0.4841 -0.8514
  566MOL0     O76278   9.949   1.799  10.553  0.0294  0.0004 -0.4971
  566MOL0     C76279   9.945   1.767  10.688 -0.2039 -1.0547  0.3312
  566MOL0     C76280  10.058   1.701  10.735  0.2487  0.1402  0.1264
  566MOL0     C76281  10.071   1.661  10.871 -0.4332 -0.1100  0.6011
  566MOL0     C76282   9.969   1.682  10.964 -0.2018  0.1350 -0.0535
  566MOL0     O76283   9.980   1.625  11.088  0.2680  0.1913 -0.0911
  566MOL0     C76284   9.881   1.648  11.191  0.1686 -0.1893 -0.1633
  566MOL0     C76285   9.928   1.619  11.327  0.5591  0.1435 -0.3255
  566MOL0     C76286   9.811   1.659  11.421 -0.0996 -1.1937 -0.7526
  566MOL0     C76287   9.850   1.613  11.561 -0.0169 -0.5657 -0.1694
  566MOL0     C76288   9.742   1.651  11.661 -0.7957  0.4711 -0.2147
  566MOL0     C76289   9.729   1.549  11.775  1.0025  0.1147  0.0275
  566MOL0     C76290   9.857   1.537  11.874 -1.1134  0.3070  0.1403
  566MOL0     C76291   9.894   1.664  11.940  0.7937 -0.6647  0.1818
  566MOL0     N76292   9.974   1.649  12.057 -0.7461  0.2852  0.2140
  566MOL0     C76293   9.933   1.620  12.184 -0.1141 -0.1367 -0.9842
  566MOL0     C76294  10.039   1.597  12.258 -0.6830 -0.2832  0.1564
  566MOL0     C76295  10.053   1.552  12.397 -0.0187  0.1447 -0.5304
  566MOL0     C76296  10.107   1.655  12.495 -0.4209 -0.4909 -0.1548
  566MOL0     C76297  10.121   1.597  12.641  0.7325 -0.1970  0.1588
  566MOL0     C76298  10.148   1.703  12.734  0.0916  0.8260 -0.2497
  566MOL0     O76299  10.028   1.787  12.765 -1.1017 -0.6301  0.7304
  566MOL0     C76300  10.052   1.905  12.833  0.0826  0.2228  0.1522
  566MOL0     C76301  10.181   1.926  12.904  0.7344  0.4424  0.4501
  566MOL0     C76302  10.213   2.050  12.955 -0.5015 -0.6537  0.2939
  566MOL0     C76303  10.363   2.064  12.985  0.2029  0.3993  0.7094
  566MOL0     C76304  10.118   2.152  12.969  0.3994  0.0864  0.1423
  566MOL0     C76305  10.127   2.275  13.045 -0.1846 -0.5411 -0.8372
  566MOL0     O76306  10.032   2.369  13.032  0.1212  0.6010 -0.1514
  566MOL0     C76307  10.049   2.488  13.101  0.4361 -1.3724  0.6303
  566MOL0     C76308   9.963   2.507  13.208 -0.4122  0.3358  0.0794
  566MOL0     C76309   9.963   2.627  13.272 -0.5852  0.1746  0.0510
  566MOL0     C76310  10.050   2.731  13.239  0.7495 -0.5076  1.1251
  566MOL0     O76311  10.037   2.845  13.305  0.0871 -0.4077 -0.2665
  566MOL0     C76312  10.150   2.921  13.338 -0.1224 -0.3174  0.1153
  566MOL0     C76313  10.106   3.044  13.422  0.2108  0.0929  0.0522
  566MOL0     C76314  10.221   3.127  13.473  0.1596 -0.6705  0.3500
  566MOL0     C76315  10.325   3.054  13.554  0.2995  0.0659  0.5988
  566MOL0     C76316  10.443   3.138  13.605 -1.1163 -0.2832  0.5048
  566MOL0     C76317  10.535   3.169  13.482 -0.4068 -0.1017  0.3271
  566MOL0     C76318  10.648   3.266  13.521 -0.2146  0.8709  0.0744
  566MOL0     C76319  10.731   3.303  13.396 -0.4541 -0.2902 -0.3648
  566MOL0    Cl76320  10.650   3.447  13.310  0.1135 -0.4430 -0.3664
  566MOL0     C76321  10.131   2.712  13.129  0.3638 -0.3157 -0.8285
  566MOL0     C76322  10.135   2.588  13.066 -0.0138 -0.0308 -0.1396
  566MOL0     O76323  10.224   2.287  13.116 -0.1055 -0.3634 -0.4743
  566MOL0     C76324   9.998   2.129  12.901 -0.2168 -0.4232  0.1352
  566MOL0     C76325   9.964   2.013  12.829  1.0018 -0.0336  0.5279
  566MOL0     N76326  10.152   1.618  12.176  0.0083 -0.1883  0.1052
  566MOL0     N76327  10.114   1.652  12.060 -0.2420 -0.0840 -0.3386
  566MOL0     C76328   9.852   1.747  10.919 -0.3013  0.0945 -0.3050
  566MOL0     C76329   9.844   1.781  10.781 -0.7332  0.6766 -0.6832
  566MOL0     C76330   9.862   1.916  10.387  0.2057  0.0206 -0.7794
  566MOL0     C76331   9.990   1.967  10.348  0.1706  0.0496 -0.0996
  566MOL0     C76332  10.004   2.048  10.231  0.2319  0.5205  0.1462
  566MOL0     C76333   9.895   2.085  10.157 -0.8919 -0.0911 -0.2475
  566MOL0     O76334   9.916   2.176  10.062  0.8330 -0.0246  1.4164
  566MOL0     C76335   9.810   2.215   9.974  0.0691 -0.1848  0.5282
  566MOL0     C76336   9.865   2.327   9.887  0.1395 -0.7056 -0.2917
  566MOL0     C76337   9.967   2.278   9.779  0.0368  0.3184  0.6156
  566MOL0     C76338  10.009   2.380   9.674  1.0575 -0.4839 -0.0713
  566MOL0     C76339   9.904   2.424   9.586  0.1359 -0.0598  0.0378
  566MOL0     C76340   9.812   2.445   9.511  0.2500  0.8665  0.6373
  566MOL0     C76341   9.769   2.043  10.202 -0.1406  0.1811 -1.0228
  566MOL0     C76342   9.756   1.947  10.303  0.2043 -0.7001 -0.1723
  566MOL0     H76343  10.131   1.683  10.657 -0.2716 -2.1391  0.0956
  566MOL0     H76344  10.152   1.592  10.892  2.6658  2.8495 -0.7867
  566MOL0     H76345   9.870   1.757  11.189 -1.8421 -0.3466 -1.6986
  566MOL0     H76346   9.783   1.604  11.170 -0.0006  0.2229 -0.2403
  566MOL0     H76347   9.961   1.516  11.336 -1.5132 -0.4532  1.2524
  566MOL0     H76348  10.017   1.680  11.347 -0.7240  1.7246  0.8235
  566MOL0     H76349   9.804   1.768  11.415  0.4728 -1.2465 -3.9592
  566MOL0     H76350   9.717   1.616  11.385  0.5886 -1.7836 -1.9230
  566MOL0     H76351   9.871   1.506  11.560 -1.1340 -0.7928 -0.8763
  566MOL0     H76352   9.950   1.651  11.584 -0.0067 -2.6556  4.1957
  566MOL0     H76353   9.764   1.751  11.699 -0.7465  0.5142 -0.3530
  566MOL0     H76354   9.650   1.643  11.603 -0.9758 -0.6259  0.2032
  566MOL0     H76355   9.639   1.564  11.835  0.5678 -1.4694 -0.1851
  566MOL0     H76356   9.721   1.459  11.713  1.6694 -1.0056  1.5079
  566MOL0     H76357   9.839   1.463  11.952 -0.1910  0.0979  0.1650
  566MOL0     H76358   9.949   1.510  11.822  0.5833  5.3559 -0.0219
  566MOL0     H76359   9.806   1.719  11.976  1.5367  1.4810 -1.1126
  566MOL0     H76360   9.952   1.720  11.866 -2.7433  0.2817 -2.1452
  566MOL0     H76361   9.828   1.604  12.205 -0.6072 -2.3786 -4.2484
  566MOL0     H76362   9.950   1.528  12.424 -0.2212 -1.8602 -2.7750
  566MOL0     H76363  10.104   1.455  12.402 -0.7545 -0.2653 -0.8116
  566MOL0     H76364  10.041   1.742  12.497 -1.3379 -1.1526 -0.7228
  566MOL0     H76365  10.205   1.687  12.457 -0.1641  2.8460  2.8266
  566MOL0     H76366  10.184   1.508  12.645 -1.0065 -1.4450  1.3591
  566MOL0     H76367  10.022   1.556  12.662  1.3021 -3.1081 -2.1902
  566MOL0     H76368  10.229   1.767  12.697  0.7600  1.7217  2.4765
  566MOL0     H76369  10.184   1.662  12.829  0.7035  0.4641 -0.6315
  566MOL0     H76370  10.262   1.853  12.898  1.0967  0.9434 -2.8030
  566MOL0     H76371  10.394   2.166  13.009  2.8972 -0.3829  0.8231
  566MOL0     H76372  10.380   1.997  13.069 -1.9400 -0.6011  0.4084
  566MOL0     H76373  10.431   2.032  12.906  3.2419 -0.0739  3.3253
  566MOL0     H76374   9.892   2.428  13.230 -1.0807  1.1213  0.7772
  566MOL0     H76375   9.877   2.637  13.338 -2.0033 -2.7552 -1.1938
  566MOL0     H76376  10.225   2.852  13.378 -2.2749 -2.4970  0.6047
  566MOL0     H76377  10.197   2.954  13.245 -3.9203  2.0893 -1.1492
  566MOL0     H76378  10.061   3.108  13.346  0.4245  0.0039 -0.1486
  566MOL0     H76379  10.026   3.017  13.492 -0.7301 -0.9227 -1.3511
  566MOL0     H76380  10.179   3.207  13.534 -0.8273 -2.0574  1.5777
  566MOL0     H76381  10.274   3.167  13.386  2.1153 -0.1289  1.7233
  566MOL0     H76382  10.270   3.014  13.639 -1.1542  0.5078 -0.1038
  566MOL0     H76383  10.364   2.975  13.489  0.1470  2.1738 -2.2380
  566MOL0     H76384  10.494   3.074  13.678 -1.9421  0.6457  1.9437
  566MOL0     H76385  10.423   3.233  13.656 -2.5145 -0.3534  0.1230
  566MOL0     H76386  10.587   3.077  13.453 -3.7959 -1.5316 -1.8507
  566MOL0     H76387  10.485   3.210  13.394 -1.2347  0.3374  0.9864
  566MOL0     H76388  10.709   3.223  13.601 -0.9854  0.0514  0.2408
  566MOL0     H76389  10.602   3.355  13.563 -2.0131  0.9219 -1.8548
  566MOL0     H76390  10.725   3.215  13.332 -0.6038  0.0705 -0.8577
  566MOL0     H76391  10.836   3.326  13.418 -0.7020  0.9252 -0.3885
  566MOL0     H76392  10.196   2.794  13.100 -1.8773  1.5362 -0.9082
  566MOL0     H76393  10.197   2.589  12.976 -0.1099  3.5886 -0.3177
  566MOL0     H76394   9.925   2.209  12.903 -2.4182 -2.2561  3.5358
  566MOL0     H76395   9.870   2.002  12.777  2.7032 -0.1474 -2.7797
  566MOL0     H76396   9.769   1.782  10.980  0.4665  2.5793 -0.6004
  566MOL0     H76397   9.752   1.819  10.738 -0.8241  0.5309 -0.6219
  566MOL0     H76398  10.085   1.935  10.391  2.6467  2.5651 -3.1630
  566MOL0     H76399  10.101   2.090  10.206 -0.2615  1.0345 -0.9305
  566MOL0     H76400   9.780   2.136   9.904  1.2568  0.9554 -1.3787
  566MOL0     H76401   9.715   2.244  10.021  0.0240  0.3297  0.1384
  566MOL0     H76402   9.920   2.395   9.953 -1.4206 -1.6662  2.1771
  566MOL0     H76403   9.780   2.384   9.846  0.3540  1.4999  2.0258
  566MOL0     H76404   9.914   2.200   9.725  0.2546  0.4793  0.1675
  566MOL0     H76405  10.062   2.242   9.821  0.8772 -0.5575 -1.8600
  566MOL0     H76406  10.088   2.331   9.616  0.2681  0.4754 -2.0381
  566MOL0     H76407  10.054   2.472   9.714  1.1379 -0.4524 -0.2303
  566MOL0     H76408   9.728   2.454   9.446 -0.9479 -0.3192  1.9347
  566MOL0     H76409   9.688   2.095  10.151  1.7250  1.7239 -2.5608
  566MOL0     H76410   9.658   1.903  10.316 -0.4618  1.1626  1.6743
  567MOL0     O76411   2.319   5.873   1.814 -0.0939 -0.2452 -0.1631
  567MOL0     C76412   2.383   5.935   1.735 -0.6968  0.1005  0.6118
  567MOL0     O76413   2.343   5.948   1.601 -0.2851 -0.2126  0.2501
  567MOL0     C76414   2.213   5.938   1.563 -0.6091  0.1181 -0.8086
  567MOL0     C76415   2.090   5.962   1.635  0.0732  0.0530  0.6131
  567MOL0     C76416   1.970   5.968   1.567  0.0572  0.8721  0.2425
  567MOL0     C76417   1.967   5.961   1.427  0.3967  0.0422  0.5074
  567MOL0     O76418   1.850   5.974   1.362  0.4471 -0.3419 -0.1529
  567MOL0     C76419   1.817   6.117   1.367  0.0517 -0.1402  0.6687
  567MOL0     C76420   1.682   6.138   1.298 -0.6107  0.3375 -0.3574
  567MOL0     C76421   1.681   6.116   1.145  0.5208 -0.8250 -0.6051
  567MOL0     C76422   1.552   6.039   1.111 -0.5517  0.6884 -0.3890
  567MOL0     C76423   1.543   6.046   0.957  0.1670  0.1397 -0.6266
  567MOL0     C76424   1.445   5.948   0.884 -0.2424  0.0376  0.1567
  567MOL0     C76425   1.486   5.800   0.895  0.6622  0.0813 -0.4563
  567MOL0     C76426   1.616   5.765   0.834 -0.5461 -0.0072 -0.1987
  567MOL0     N76427   1.610   5.767   0.686  0.3701 -0.0605 -0.0731
  567MOL0     C76428   1.660   5.864   0.609  0.4163 -0.9185  0.2538
  567MOL0     C76429   1.633   5.829   0.476 -0.2019 -0.2316  0.5272
  567MOL0     C76430   1.634   5.920   0.353 -0.3864  0.5042  0.3190
  567MOL0     C76431   1.775   5.970   0.311  1.0649  0.2855 -0.1791
  567MOL0     C76432   1.816   6.095   0.399 -0.4134  0.2205 -0.5641
  567MOL0     C76433   1.910   6.189   0.325  0.7503  0.6579 -1.2446
  567MOL0     O76434   1.944   6.297   0.416 -0.0246 -0.4536 -0.3085
  567MOL0     C76435   2.057   6.287   0.494  1.2192 -0.2380  0.7773
  567MOL0     C76436   2.143   6.175   0.506  0.3832  0.3268 -0.1144
  567MOL0     C76437   2.261   6.182   0.583  1.2783  0.9608  0.5270
  567MOL0     C76438   2.333   6.048   0.591  0.2625  0.3868 -0.0214
  567MOL0     C76439   2.294   6.297   0.652 -0.4719 -0.0768  0.0009
  567MOL0     C76440   2.410   6.310   0.732 -0.1202  1.0664  0.0582
  567MOL0     O76441   2.492   6.196   0.741 -1.0981  0.2819 -0.7257
  567MOL0     C76442   2.619   6.214   0.799  0.4679 -0.0149 -0.3558
  567MOL0     C76443   2.637   6.284   0.925 -0.6504 -0.3778 -0.0651
  567MOL0     C76444   2.765   6.300   0.983 -1.2544 -0.5982 -0.6242
  567MOL0     C76445   2.875   6.254   0.919  0.5237 -0.3744  0.7583
  567MOL0     O76446   3.003   6.284   0.960 -0.5677 -0.2436  0.1343
  567MOL0     C76447   3.097   6.178   0.967  0.0468 -0.3375 -0.0138
  567MOL0     C76448   3.214   6.212   1.058 -0.8014  0.6186 -0.5057
  567MOL0     C76449   3.273   6.090   1.138 -0.3278  0.1034  0.4336
  567MOL0     C76450   3.300   5.970   1.054 -0.5914  0.2958  0.1598
  567MOL0     C76451   3.345   5.847   1.135 -0.5866  0.2009  0.6344
  567MOL0     C76452   3.434   5.740   1.060 -0.6090 -0.0757  0.7462
  567MOL0     C76453   3.528   5.669   1.159  0.3861 -0.4970  0.4965
  567MOL0     C76454   3.458   5.608   1.283  0.3047 -0.3592 -0.6041
  567MOL0    Cl76455   3.329   5.495   1.235  0.0307 -0.8034 -0.2407
  567MOL0     C76456   2.857   6.173   0.798 -0.5449  0.1768 -0.0013
  567MOL0     C76457   2.734   6.148   0.745  1.1423  1.0406 -0.0470
  567MOL0     O76458   2.429   6.423   0.772 -0.8373  0.9116  0.3280
  567MOL0     C76459   2.207   6.411   0.634 -0.3798  0.1194 -0.9569
  567MOL0     C76460   2.087   6.405   0.561  0.4018 -0.9081 -0.1098
  567MOL0     N76461   1.580   5.703   0.483  0.1659  0.3959  0.4649
  567MOL0     N76462   1.576   5.664   0.605  0.0008 -1.1458  0.1469
  567MOL0     C76463   2.082   5.932   1.361  0.6291 -0.5915 -1.1424
  567MOL0     C76464   2.198   5.916   1.425  0.6587 -0.1204  0.1789
  567MOL0     C76465   2.521   5.988   1.761 -0.9462  0.1304 -0.3452
  567MOL0     C76466   2.583   5.954   1.879  0.2700  0.4175  0.1206
  567MOL0     C76467   2.717   5.999   1.896  0.4618 -0.3302 -0.1794
  567MOL0     C76468   2.779   6.092   1.820 -0.5026 -0.8805  0.3942
  567MOL0     O76469   2.916   6.133   1.838  0.2092 -0.0300  0.7020
  567MOL0     C76470   3.010   6.063   1.754  0.3698 -0.1268 -0.0136
  567MOL0     C76471   3.144   6.133   1.786  0.2694  0.0887 -1.2649
  567MOL0     C76472   3.139   6.275   1.725 -0.8191  0.2740  0.2537
  567MOL0     C76473   3.131   6.283   1.560  0.3043 -0.6066 -0.8352
  567MOL0     C76474   3.264   6.242   1.500 -0.1415  0.3454  0.3922
  567MOL0     C76475   3.362   6.180   1.460  0.7290 -0.1825  0.5900
  567MOL0     C76476   2.703   6.149   1.711 -0.2571 -0.5111 -0.3459
  567MOL0     C76477   2.580   6.095   1.681 -0.2155  0.1486 -1.0577
  567MOL0     H76478   2.100   5.966   1.743  1.2565  0.9280  0.4862
  567MOL0     H76479   1.875   5.986   1.617  1.0964  0.1524  2.6249
  567MOL0     H76480   1.806   6.158   1.467 -1.3833  2.5370 -0.4666
  567MOL0     H76481   1.899   6.164   1.312 -1.5106  1.0770 -0.7284
  567MOL0     H76482   1.606   6.077   1.348 -2.8149  0.6773 -3.0643
  567MOL0     H76483   1.657   6.241   1.324 -0.5533  0.4672 -0.8015
  567MOL0     H76484   1.687   6.218   1.105 -0.2725  0.4621  2.3014
  567MOL0     H76485   1.772   6.059   1.127  0.9230 -0.4911  0.3026
  567MOL0     H76486   1.556   5.935   1.146  2.1668  0.3871 -1.3328
  567MOL0     H76487   1.456   6.074   1.149  0.6850  3.5643  0.3120
  567MOL0     H76488   1.529   6.146   0.916  1.7293  0.0546 -1.4213
  567MOL0     H76489   1.646   6.037   0.922 -0.0482  3.1548 -2.2974
  567MOL0     H76490   1.352   5.971   0.936  0.8530  0.9607  1.8265
  567MOL0     H76491   1.446   5.970   0.777 -0.9286 -1.1386 -0.1134
  567MOL0     H76492   1.487   5.784   1.004 -1.6641  2.9836  0.1057
  567MOL0     H76493   1.405   5.745   0.847  0.9097 -0.0687 -0.7049
  567MOL0     H76494   1.650   5.663   0.853 -0.8333  0.0782  0.8538
  567MOL0     H76495   1.691   5.835   0.871  0.2698 -1.9514  2.0921
  567MOL0     H76496   1.698   5.956   0.653  2.1236 -0.3105 -2.2634
  567MOL0     H76497   1.591   5.878   0.261 -1.0791  0.6817  0.5578
  567MOL0     H76498   1.576   6.011   0.369  2.3607  1.9574  2.9810
  567MOL0     H76499   1.782   5.999   0.206 -1.8827  1.8089 -0.0699
  567MOL0     H76500   1.844   5.886   0.326  2.1396  1.3695  1.2600
  567MOL0     H76501   1.860   6.080   0.498  1.3897  5.3745 -0.3054
  567MOL0     H76502   1.728   6.153   0.430 -1.0498 -1.1029  0.1879
  567MOL0     H76503   1.858   6.234   0.240  0.6088 -1.6064 -2.4259
  567MOL0     H76504   1.998   6.142   0.282  1.7210 -1.7039  2.7685
  567MOL0     H76505   2.119   6.091   0.440  2.0269  1.6215 -2.4859
  567MOL0     H76506   2.329   5.994   0.687 -1.5639  0.9813  0.2830
  567MOL0     H76507   2.281   5.977   0.526  1.6967 -0.6314 -0.1048
  567MOL0     H76508   2.439   6.043   0.563  0.9621 -0.0073  2.4224
  567MOL0     H76509   2.546   6.320   0.974 -1.4146  3.8704 -3.9654
  567MOL0     H76510   2.787   6.348   1.078  2.1342 -1.2453 -0.9388
  567MOL0     H76511   3.050   6.080   0.977 -0.5737 -0.5870 -3.8551
  567MOL0     H76512   3.138   6.179   0.866  0.7433 -0.2220  0.2605
  567MOL0     H76513   3.284   6.238   0.979 -1.0153  1.3210 -0.4669
  567MOL0     H76514   3.201   6.298   1.125 -5.2509  0.6737 -1.1402
  567MOL0     H76515   3.198   6.063   1.213 -3.7948  1.0759 -2.3833
  567MOL0     H76516   3.369   6.120   1.181  0.6293 -2.0613 -0.0442
  567MOL0     H76517   3.207   5.939   1.005 -2.0361  0.3290  2.7218
  567MOL0     H76518   3.369   5.990   0.971 -2.5625 -0.0640 -1.6705
  567MOL0     H76519   3.273   5.788   1.192  2.3040 -2.4860  1.8221
  567MOL0     H76520   3.407   5.904   1.204 -0.5710  0.7221  0.1952
  567MOL0     H76521   3.379   5.673   0.994  2.2668 -1.7831 -0.0801
  567MOL0     H76522   3.502   5.777   0.983 -0.4963  0.4466  1.0895
  567MOL0     H76523   3.609   5.734   1.192 -0.9357  0.5804  1.7787
  567MOL0     H76524   3.585   5.591   1.108  2.6945 -1.3661  4.0610
  567MOL0     H76525   3.408   5.672   1.356 -1.9089 -2.5149 -0.0753
  567MOL0     H76526   3.539   5.559   1.339  0.4651  1.4115  0.8093
  567MOL0     H76527   2.934   6.135   0.732 -0.5939 -1.9161  1.0627
  567MOL0     H76528   2.714   6.085   0.658 -0.1732 -1.2704  1.7830
  567MOL0     H76529   2.236   6.499   0.691 -0.9076  1.5521 -2.7917
  567MOL0     H76530   2.010   6.482   0.557  0.1008 -1.2157 -0.4298
  567MOL0     H76531   2.080   5.925   1.253  2.5844  1.6558 -1.3944
  567MOL0     H76532   2.285   5.895   1.363  0.6535 -0.3822  0.2595
  567MOL0     H76533   2.542   5.879   1.945  2.9371 -0.9219  0.3811
  567MOL0     H76534   2.758   5.939   1.978 -1.7673 -2.7885 -0.7103
  567MOL0     H76535   3.017   5.957   1.779 -0.3724 -0.4426 -1.0644
  567MOL0     H76536   2.979   6.072   1.649 -1.5268  6.7110  0.6093
  567MOL0     H76537   3.231   6.080   1.746  2.4873 -0.3774  3.4532
  567MOL0     H76538   3.165   6.138   1.893 -1.9415 -1.3709 -0.7125
  567MOL0     H76539   3.226   6.331   1.760 -0.1373 -1.0214  0.6751
  567MOL0     H76540   3.056   6.332   1.766  1.1104  1.8879  2.1508
  567MOL0     H76541   3.125   6.388   1.529 -3.6303 -0.3557  0.3199
  567MOL0     H76542   3.051   6.215   1.530 -1.1264  0.4284  0.5305
  567MOL0     H76543   3.451   6.147   1.412  0.5043  2.5287 -1.9157
  567MOL0     H76544   2.754   6.220   1.646  2.8274  1.8225  4.1348
  567MOL0     H76545   2.525   6.150   1.606 -2.8236 -2.4137 -1.1999
  568MOL0     O76546   2.743   9.545   4.778 -0.0346  0.1292  0.0587
  568MOL0     C76547   2.748   9.642   4.854  0.4649 -0.1041 -0.3027
  568MOL0     O76548   2.690   9.768   4.826 -0.0510  0.3591  0.1451
  568MOL0     C76549   2.613   9.792   4.719 -0.3085 -0.0452  0.0872
  568MOL0     C76550   2.642   9.918   4.659  0.5091  1.0392  0.5124
  568MOL0     C76551   2.563   9.966   4.555  0.1066  0.5434 -0.1073
  568MOL0     C76552   2.466   9.887   4.496 -0.3570 -0.0913  1.2241
  568MOL0     O76553   2.398   9.945   4.391 -0.0868 -0.6149  0.5239
  568MOL0     C76554   2.262   9.903   4.371  0.2093  0.5319  0.2696
  568MOL0     C76555   2.204   9.956   4.254  0.2942 -0.1741  0.3661
  568MOL0     C76556   2.057   9.925   4.250  0.7437  0.3067  0.2563
  568MOL0     C76557   2.013   9.972   4.111  0.7526 -0.9264  1.0232
  568MOL0     C76558   1.860   9.953   4.085 -1.1831 -0.4331 -0.3178
  568MOL0     C76559   1.832   9.971   3.937 -0.5795  0.0591  0.0958
  568MOL0     C76560   1.678   9.969   3.913  0.9506  0.7500  0.1228
  568MOL0     C76561   1.613   9.834   3.904 -0.4827  0.4720 -0.3125
  568MOL0     N76562   1.481   9.841   3.834  0.5635  0.0593 -1.1681
  568MOL0     C76563   1.394   9.945   3.834 -0.8833  0.0326 -0.6563
  568MOL0     C76564   1.277   9.898   3.780  0.8656 -0.6775  0.0676
  568MOL0     C76565   1.157   9.979   3.753  0.3053  0.4047 -0.0581
  568MOL0     C76566   1.035   9.890   3.713 -0.4719 -0.5061  0.1287
  568MOL0     C76567   0.903   9.955   3.741  0.3763 -0.2400 -0.3774
  568MOL0     C76568   0.855   9.939   3.892 -0.8411 -0.5145  0.5042
  568MOL0     O76569   0.761   9.836   3.909  0.3009 -0.4355  0.2654
  568MOL0     C76570   0.629   9.859   3.915  1.1511  0.0733 -0.3507
  568MOL0     C76571   0.550   9.748   3.957 -0.7357 -0.1514 -0.7585
  568MOL0     C76572   0.413   9.752   3.957  0.0913 -0.6283  0.5097
  568MOL0     C76573   0.330   9.646   4.021 -0.0006 -0.0007  0.6728
  568MOL0     C76574   0.347   9.874   3.905  0.8743  0.1160  0.2395
  568MOL0     C76575   0.197   9.899   3.881 -0.3817  0.7054 -0.3257
  568MOL0     O76576   0.166  10.013   3.815 -0.4452 -0.2424  0.0117
  568MOL0     C76577   0.038  10.058   3.790 -1.1711  0.1020 -0.1529
  568MOL0     C76578   0.029  10.195   3.762 -0.4095 -1.0501 -0.1504
  568MOL0     C76579  -0.087  10.250   3.712  0.4765 -0.2741 -0.2642
  568MOL0     C76580  -0.199  10.172   3.694  0.3049  1.5537  0.6743
  568MOL0     O76581  -0.311  10.228   3.636  0.3758 -0.0098 -0.0328
  568MOL0     C76582  -0.390  10.142   3.547 -1.0395 -0.0995 -0.6075
  568MOL0     C76583  -0.496  10.226   3.474  0.1644 -0.0945 -0.0256
  568MOL0     C76584  -0.447  10.322   3.367 -0.3314  0.1230 -0.1797
  568MOL0     C76585  -0.367  10.444   3.427  0.2950  0.2721  0.3335
  568MOL0     C76586  -0.310  10.532   3.320  0.0118  0.7188 -0.6823
  568MOL0     C76587  -0.177  10.461   3.274 -0.6699  0.3937  0.4442
  568MOL0     C76588  -0.124  10.532   3.151 -0.5819  0.0429 -0.6492
  568MOL0     C76589   0.010  10.461   3.112 -0.4815  0.2607  0.2099
  568MOL0    Cl76590   0.132  10.496   3.239  0.6171  0.1504  0.0342
  568MOL0     C76591  -0.199  10.033   3.736  0.4637  0.3413 -0.6900
  568MOL0     C76592  -0.075   9.978   3.784  0.8031  0.2651 -0.1651
  568MOL0     O76593   0.112   9.827   3.935 -0.3940  0.2228  0.0065
  568MOL0     C76594   0.435   9.974   3.856  0.6737  0.0402 -0.0481
  568MOL0     C76595   0.573   9.974   3.863 -0.3266 -0.4836 -0.1685
  568MOL0     N76596   1.294   9.769   3.738  0.5405  0.8820  0.2433
  568MOL0     N76597   1.411   9.736   3.787 -0.3493  0.7111 -0.0264
  568MOL0     C76598   2.442   9.757   4.552 -0.2977  0.4324  0.0153
  568MOL0     C76599   2.510   9.713   4.667  0.9253  0.2462  0.5758
  568MOL0     C76600   2.830   9.652   4.973 -0.6164  0.6149 -0.9765
  568MOL0     C76601   2.879   9.529   5.023 -0.1127  0.4663 -0.1268
  568MOL0     C76602   2.955   9.525   5.139  1.2860  0.3545  1.0974
  568MOL0     C76603   2.970   9.638   5.221 -0.9732 -0.3768  0.3792
  568MOL0     O76604   3.037   9.643   5.344 -0.0980 -0.2543  0.6298
  568MOL0     C76605   3.115   9.523   5.378 -0.4135  0.4353  0.3125
  568MOL0     C76606   3.250   9.522   5.311 -1.1711 -0.2515  0.1476
  568MOL0     C76607   3.319   9.655   5.300 -0.0287  0.2781  1.1217
  568MOL0     C76608   3.464   9.641   5.254  0.0923  0.3427  0.1605
  568MOL0     C76609   3.543   9.560   5.342 -0.0986  0.1526  0.2150
  568MOL0     C76610   3.594   9.468   5.398  0.9819  0.0214  0.6691
  568MOL0     C76611   2.929   9.764   5.174  0.1619  0.3723 -0.0896
  568MOL0     C76612   2.860   9.769   5.049 -0.0505 -0.5952 -0.2720
  568MOL0     H76613   2.719   9.975   4.709  1.2276  1.4100 -0.9523
  568MOL0     H76614   2.553  10.068   4.520 -0.8662  0.4809 -0.0309
  568MOL0     H76615   2.266   9.794   4.365  2.2963  0.6008 -0.0723
  568MOL0     H76616   2.199   9.922   4.459 -1.7421  0.0900 -0.9635
  568MOL0     H76617   2.225  10.063   4.266 -6.2714  1.3385  2.5543
  568MOL0     H76618   2.244   9.917   4.161 -0.5020 -1.1549  0.4135
  568MOL0     H76619   2.030   9.821   4.273 -3.5167  1.8176  3.1920
  568MOL0     H76620   2.006   9.986   4.324 -1.4388 -2.9180  1.6464
  568MOL0     H76621   2.040  10.076   4.092  1.0686 -0.8863  1.6595
  568MOL0     H76622   2.064   9.908   4.039 -2.0734 -0.2534 -1.8121
  568MOL0     H76623   1.832   9.853   4.120 -1.3637 -0.3916 -0.3417
  568MOL0     H76624   1.801  10.026   4.141  1.7622  1.5949  0.3407
  568MOL0     H76625   1.878  10.065   3.907  0.8431 -0.1622  1.4492
  568MOL0     H76626   1.884   9.905   3.867  1.5522  0.5711  1.1414
  568MOL0     H76627   1.627  10.030   3.989 -1.7140 -3.2981  1.9088
  568MOL0     H76628   1.659  10.008   3.813 -1.5849 -1.0150 -0.1552
  568MOL0     H76629   1.596   9.790   4.003  0.9238 -0.4992 -0.4824
  568MOL0     H76630   1.679   9.760   3.857 -0.7947  0.8422 -1.3653
  568MOL0     H76631   1.415  10.042   3.877  2.2507 -1.5742  1.9159
  568MOL0     H76632   1.132  10.042   3.839 -2.7911  2.2341 -2.1084
  568MOL0     H76633   1.180  10.047   3.671  2.6099 -2.7378 -2.3009
  568MOL0     H76634   1.037   9.789   3.756  2.0437 -1.1952 -1.3641
  568MOL0     H76635   1.047   9.886   3.604  3.1087  1.7403  0.2847
  568MOL0     H76636   0.831   9.899   3.680  0.0727  0.2104 -0.4400
  568MOL0     H76637   0.894  10.055   3.697  0.1599 -0.2612 -0.3836
  568MOL0     H76638   0.826  10.035   3.934 -0.0694  0.3118 -0.7657
  568MOL0     H76639   0.939   9.906   3.954 -0.2544 -0.0162 -0.0112
  568MOL0     H76640   0.593   9.652   3.983  2.6693  0.7241 -2.5849
  568MOL0     H76641   0.255   9.607   3.952  1.0209  0.6718 -0.8577
  568MOL0     H76642   0.390   9.561   4.054  0.7637  0.1495 -0.2995
  568MOL0     H76643   0.274   9.692   4.103  0.1506  0.0176  0.7635
  568MOL0     H76644   0.118  10.258   3.769 -0.2810 -1.2941  0.5141
  568MOL0     H76645  -0.093  10.352   3.677 -0.4268 -1.0002 -2.3602
  568MOL0     H76646  -0.322  10.095   3.475 -1.0204  0.0177 -0.6668
  568MOL0     H76647  -0.443  10.058   3.594 -1.7652 -1.0070 -2.8930
  568MOL0     H76648  -0.564  10.166   3.414  4.6695 -2.9055 -2.8698
  568MOL0     H76649  -0.552  10.293   3.541 -0.6173  1.7933 -2.4150
  568MOL0     H76650  -0.529  10.359   3.305 -1.1377 -1.5895 -0.1717
  568MOL0     H76651  -0.371  10.275   3.305  1.9163  0.7271  1.9904
  568MOL0     H76652  -0.426  10.497   3.502  0.1587 -2.0584  1.9670
  568MOL0     H76653  -0.283  10.417   3.492  1.0465  0.1665 -0.6534
  568MOL0     H76654  -0.297  10.636   3.352 -1.4208  0.5679  0.4945
  568MOL0     H76655  -0.381  10.536   3.237 -1.9776 -1.0757  0.8249
  568MOL0     H76656  -0.103  10.454   3.355 -3.6778  0.8186  3.4442
  568MOL0     H76657  -0.196  10.362   3.232 -0.1516  1.1924 -1.8492
  568MOL0     H76658  -0.114  10.636   3.184 -1.9939  0.8848 -2.6327
  568MOL0     H76659  -0.186  10.533   3.061  1.7064 -0.5020 -2.3321
  568MOL0     H76660   0.040  10.499   3.014 -3.5877 -0.9884 -1.3690
  568MOL0     H76661  -0.016  10.355   3.101  1.1710 -0.1051 -0.4553
  568MOL0     H76662  -0.282   9.964   3.724 -1.8603  2.4302  1.8330
  568MOL0     H76663  -0.077   9.871   3.799 -0.5781  0.1420 -1.1219
  568MOL0     H76664   0.392  10.064   3.814 -4.3058 -3.1831 -2.9174
  568MOL0     H76665   0.628  10.061   3.829  3.0308 -1.6527  1.7357
  568MOL0     H76666   2.365   9.696   4.506  0.0049  0.4432 -0.5172
  568MOL0     H76667   2.482   9.615   4.704 -0.3574 -0.5542 -2.2245
  568MOL0     H76668   2.855   9.439   4.966 -0.5437  0.8072 -0.4850
  568MOL0     H76669   2.983   9.421   5.156 -1.7786 -0.7772 -0.0300
  568MOL0     H76670   3.133   9.522   5.486 -1.0908  0.1370  0.4259
  568MOL0     H76671   3.066   9.427   5.355  1.6462 -0.2241 -1.7594
  568MOL0     H76672   3.245   9.475   5.212 -1.2926 -1.7720  0.8463
  568MOL0     H76673   3.309   9.458   5.377 -1.0057  1.7141  2.0008
  568MOL0     H76674   3.306   9.713   5.392  0.5699  1.0072  0.7611
  568MOL0     H76675   3.258   9.710   5.229 -2.7954 -2.0690  1.5015
  568MOL0     H76676   3.506   9.741   5.236  1.1830  0.0456  0.9951
  568MOL0     H76677   3.466   9.589   5.158  0.2556  4.1256 -2.1341
  568MOL0     H76678   3.645   9.386   5.445 -0.4867 -1.2447  0.1418
  568MOL0     H76679   2.937   9.857   5.230  3.1552  0.6381 -0.8062
  568MOL0     H76680   2.817   9.856   5.001  1.9872 -0.1746 -1.4409
  569MOL0     O76681   0.352   3.973   2.996 -0.2838 -1.1261 -0.6226
  569MOL0     C76682   0.309   4.091   3.014  0.6717 -0.5605  0.4608
  569MOL0     O76683   0.379   4.201   3.037  0.2392 -0.3320 -0.7867
  569MOL0     C76684   0.513   4.198   3.027 -0.2688  0.9983 -0.4070
  569MOL0     C76685   0.575   4.141   2.915 -0.6035  0.3918 -0.2014
  569MOL0     C76686   0.712   4.141   2.906 -0.2820 -0.2391 -0.9112
  569MOL0     C76687   0.789   4.199   3.010 -0.0267  0.5003  0.1554
  569MOL0     O76688   0.922   4.194   3.007 -0.1577 -0.1715  0.0396
  569MOL0     C76689   0.990   4.176   2.882 -0.2312  0.0794 -0.1954
  569MOL0     C76690   1.138   4.195   2.886 -0.6663 -0.1898  0.3258
  569MOL0     C76691   1.199   4.324   2.927  0.0994 -0.0462 -1.2712
  569MOL0     C76692   1.191   4.434   2.813  0.2689 -0.3674 -0.1892
  569MOL0     C76693   1.298   4.541   2.844 -0.5491  0.2137 -0.1255
  569MOL0     C76694   1.448   4.490   2.857 -0.0444  0.5849 -0.1226
  569MOL0     C76695   1.497   4.409   2.727 -0.3457 -0.2879 -0.0765
  569MOL0     C76696   1.620   4.322   2.761  0.5493  0.4128 -0.3298
  569MOL0     N76697   1.600   4.231   2.875  0.2509  1.1564  0.2898
  569MOL0     C76698   1.637   4.248   3.008  0.6358 -0.5956 -0.1302
  569MOL0     C76699   1.589   4.133   3.070 -0.8638  0.5682  0.8383
  569MOL0     C76700   1.609   4.105   3.214  0.3948  0.8050  0.2016
  569MOL0     C76701   1.520   3.988   3.274 -0.6823 -0.3861  0.7382
  569MOL0     C76702   1.503   3.981   3.423  0.0292  0.8503 -0.2923
  569MOL0     C76703   1.433   3.853   3.462 -0.5820  0.0228  0.0855
  569MOL0     O76704   1.317   3.820   3.386 -0.4698  0.8251  0.1359
  569MOL0     C76705   1.265   3.697   3.422  0.2942  0.0451 -0.1104
  569MOL0     C76706   1.179   3.640   3.325  0.7243 -0.0095 -0.3341
  569MOL0     C76707   1.125   3.512   3.328  0.7370  0.1968 -0.3295
  569MOL0     C76708   1.013   3.484   3.226  0.3344  0.1322 -0.6582
  569MOL0     C76709   1.154   3.427   3.434 -0.5785 -0.0890  0.9237
  569MOL0     C76710   1.124   3.286   3.413  0.2859 -0.1476  0.6626
  569MOL0     O76711   1.147   3.233   3.290  0.1859  0.3769 -0.4395
  569MOL0     C76712   1.060   3.136   3.252  0.2201  0.2359  0.2279
  569MOL0     C76713   1.098   3.060   3.140 -0.8567  0.8247  0.4191
  569MOL0     C76714   1.003   2.973   3.081  0.6088 -0.4025 -0.6696
  569MOL0     C76715   0.881   2.948   3.145 -0.4629  0.1361  0.2724
  569MOL0     O76716   0.802   2.850   3.094  0.3908 -0.6673  0.2790
  569MOL0     C76717   0.660   2.857   3.127  0.6262  0.4310  0.2760
  569MOL0     C76718   0.609   2.758   3.024 -0.0206 -0.2467 -0.8824
  569MOL0     C76719   0.456   2.757   3.017 -0.2880  0.4900 -0.4123
  569MOL0     C76720   0.377   2.718   3.150  0.0774  0.4884 -0.2072
  569MOL0     C76721   0.259   2.645   3.114 -0.5044 -1.2770 -0.4573
  569MOL0     C76722   0.150   2.737   3.061  0.2546 -0.6201  0.7075
  569MOL0     C76723   0.026   2.672   3.006 -0.0182 -0.2207  0.0743
  569MOL0     C76724  -0.083   2.775   2.961  0.4310 -0.0308 -0.8272
  569MOL0    Cl76725  -0.061   2.839   2.797  0.7996 -0.1771  0.2032
  569MOL0     C76726   0.840   3.031   3.243 -0.2210 -0.3469 -0.2657
  569MOL0     C76727   0.925   3.127   3.297 -0.1035 -0.0998  0.4050
  569MOL0     O76728   1.092   3.224   3.516  0.6867 -0.1916 -0.1192
  569MOL0     C76729   1.240   3.479   3.535 -0.4707 -0.0954 -0.6294
  569MOL0     C76730   1.286   3.610   3.528 -0.0563 -0.5291  0.0099
  569MOL0     N76731   1.535   4.045   2.970  0.3495  0.0857 -0.5998
  569MOL0     N76732   1.546   4.109   2.859 -0.8856  0.0688  0.5041
  569MOL0     C76733   0.719   4.269   3.115 -0.3905 -0.6195  0.0748
  569MOL0     C76734   0.579   4.279   3.114 -0.9591 -0.3232 -0.3908
  569MOL0     C76735   0.160   4.109   3.039 -0.3712 -0.1424  0.0043
  569MOL0     C76736   0.073   3.992   3.050 -0.9646 -0.7599 -0.3118
  569MOL0     C76737  -0.061   4.011   3.063  0.2827 -0.1783  0.4014
  569MOL0     C76738  -0.123   4.137   3.066  0.9293 -0.2517  0.3528
  569MOL0     O76739  -0.256   4.151   3.082  0.2035  0.0808  0.0209
  569MOL0     C76740  -0.316   4.278   3.055  0.1833 -0.0798  0.4692
  569MOL0     C76741  -0.465   4.262   3.008 -0.6563  0.4961 -0.0180
  569MOL0     C76742  -0.473   4.210   2.873  0.4450 -0.6843 -1.0301
  569MOL0     C76743  -0.627   4.200   2.830 -0.4192  0.1624  1.1003
  569MOL0     C76744  -0.683   4.061   2.840 -1.1447 -0.3117  0.9825
  569MOL0     C76745  -0.732   3.952   2.845 -0.0211  0.5714  0.1371
  569MOL0     C76746  -0.032   4.246   3.055 -0.1591  0.3409 -1.0418
  569MOL0     C76747   0.105   4.233   3.049  0.2609  0.0426  0.2366
  569MOL0     H76748   0.517   4.111   2.829 -1.7135  0.1749  0.6127
  569MOL0     H76749   0.757   4.098   2.818  0.6565 -1.5643  0.1579
  569MOL0     H76750   0.969   4.072   2.852 -0.4921  0.3419 -0.9486
  569MOL0     H76751   0.950   4.237   2.800 -0.4522 -0.6193 -0.6183
  569MOL0     H76752   1.173   4.116   2.952  1.2197 -1.5805 -2.1700
  569MOL0     H76753   1.177   4.171   2.787 -1.9765 -0.6338 -0.0946
  569MOL0     H76754   1.154   4.355   3.022 -2.7359 -3.6795 -1.2189
  569MOL0     H76755   1.300   4.297   2.958 -0.0986  1.7604  1.2790
  569MOL0     H76756   1.214   4.377   2.723  1.4680  0.4752 -0.4444
  569MOL0     H76757   1.095   4.485   2.796  1.2850  0.5658 -4.2538
  569MOL0     H76758   1.301   4.608   2.757 -2.0573  0.0039 -0.3537
  569MOL0     H76759   1.262   4.604   2.925 -2.3768  0.0441 -0.7777
  569MOL0     H76760   1.515   4.576   2.865  2.9064 -1.4747 -0.9919
  569MOL0     H76761   1.460   4.434   2.950  0.3291  2.1493  0.8067
  569MOL0     H76762   1.418   4.341   2.694 -1.6014  2.0484 -2.1050
  569MOL0     H76763   1.520   4.476   2.645  0.0098  0.5327  0.6769
  569MOL0     H76764   1.708   4.387   2.765  2.0265 -1.5403  2.3714
  569MOL0     H76765   1.650   4.263   2.674 -1.3260  2.6515 -2.6374
  569MOL0     H76766   1.689   4.331   3.057  0.0724 -0.2733 -0.0669
  569MOL0     H76767   1.711   4.076   3.243 -0.1025 -2.1977 -0.7522
  569MOL0     H76768   1.579   4.201   3.258 -3.1151  0.1855 -0.5898
  569MOL0     H76769   1.559   3.896   3.231 -1.9383 -0.4089 -0.4551
  569MOL0     H76770   1.421   4.010   3.231  0.5032  3.0886 -0.5756
  569MOL0     H76771   1.428   4.061   3.429 -0.8629 -0.0160  0.5465
  569MOL0     H76772   1.579   4.007   3.497  0.4625 -3.5620  1.1591
  569MOL0     H76773   1.416   3.861   3.570  5.6892  1.0217  1.3637
  569MOL0     H76774   1.501   3.767   3.461 -1.9513 -1.1264 -2.1659
  569MOL0     H76775   1.155   3.702   3.239 -0.4235 -0.4435 -0.3468
  569MOL0     H76776   1.042   3.413   3.149  0.7390  2.0014 -2.3295
  569MOL0     H76777   0.918   3.464   3.277  0.6700 -2.9659 -1.0833
  569MOL0     H76778   0.993   3.570   3.160  1.0313  1.4716  0.8099
  569MOL0     H76779   1.196   3.071   3.096 -0.3026  0.9818  1.6694
  569MOL0     H76780   1.033   2.920   2.992 -1.2838 -3.1141  0.1967
  569MOL0     H76781   0.642   2.821   3.229  1.8004  1.2287  0.7863
  569MOL0     H76782   0.614   2.955   3.112 -4.0291 -1.4472  0.4206
  569MOL0     H76783   0.643   2.778   2.922 -4.1152  2.0879 -2.0154
  569MOL0     H76784   0.649   2.664   3.065 -0.3065  0.6339  1.6460
  569MOL0     H76785   0.433   2.691   2.934  1.5704  0.4286 -0.9289
  569MOL0     H76786   0.433   2.855   2.973 -2.1789  0.6026  0.7126
  569MOL0     H76787   0.442   2.665   3.220 -1.2649  0.1742  0.8617
  569MOL0     H76788   0.342   2.810   3.199  0.8973  0.2063  0.9656
  569MOL0     H76789   0.231   2.585   3.201 -1.3642 -2.5372 -1.5581
  569MOL0     H76790   0.278   2.572   3.035 -0.9384 -0.9536 -0.8675
  569MOL0     H76791   0.121   2.801   3.145 -2.9331 -0.0293 -0.6869
  569MOL0     H76792   0.197   2.801   2.986 -1.0678  1.4224  1.5197
  569MOL0     H76793  -0.020   2.609   3.082 -1.8610  0.6231 -0.2856
  569MOL0     H76794   0.050   2.614   2.917  0.5587  2.7587 -1.8546
  569MOL0     H76795  -0.094   2.851   3.039  2.7797 -0.1876 -0.2794
  569MOL0     H76796  -0.186   2.737   2.960 -0.6262  2.6223 -2.4477
  569MOL0     H76797   0.747   3.015   3.296 -1.1310  1.4315 -1.2060
  569MOL0     H76798   0.879   3.184   3.377 -2.5525 -0.1375 -0.8625
  569MOL0     H76799   1.267   3.414   3.617 -1.0317 -0.5197 -0.7762
  569MOL0     H76800   1.344   3.654   3.609 -0.8135 -0.3450  0.4656
  569MOL0     H76801   0.776   4.312   3.197  0.3635  0.1691 -0.8463
  569MOL0     H76802   0.530   4.337   3.192 -0.2389 -2.7249  2.0021
  569MOL0     H76803   0.112   3.891   3.058  3.0135  0.4286 -1.8369
  569MOL0     H76804  -0.126   3.926   3.083 -2.2992  2.2344  3.1444
  569MOL0     H76805  -0.313   4.351   3.136  0.6946 -1.2775  1.5587
  569MOL0     H76806  -0.262   4.318   2.969  0.3564 -4.0285 -1.5113
  569MOL0     H76807  -0.506   4.363   3.017  2.4846  1.9011 -0.1266
  569MOL0     H76808  -0.519   4.196   3.076  1.0397 -0.8126  0.1290
  569MOL0     H76809  -0.423   4.113   2.870  2.6282  0.0970  2.9730
  569MOL0     H76810  -0.413   4.275   2.809 -2.9319  2.5531 -1.2580
  569MOL0     H76811  -0.637   4.244   2.731  3.0270 -3.3167 -1.0969
  569MOL0     H76812  -0.690   4.260   2.896  0.0099 -0.9645  2.6103
  569MOL0     H76813  -0.767   3.851   2.839  0.1121  0.4505  1.2205
  569MOL0     H76814  -0.059   4.351   3.059  1.0921  0.6908 -1.2341
  569MOL0     H76815   0.164   4.324   3.039 -1.0706  1.5278  4.1720
  570MOL0     O76816   4.989   9.645   5.413 -0.3339  0.4078 -0.0686
  570MOL0     C76817   5.106   9.669   5.460 -0.5587  0.1097  0.8704
  570MOL0     O76818   5.174   9.775   5.431 -0.6711 -0.5615 -0.3297
  570MOL0     C76819   5.122   9.868   5.345 -0.7507  0.5949  0.5068
  570MOL0     C76820   5.140   9.840   5.205 -0.4847 -0.7950 -0.0230
  570MOL0     C76821   5.081   9.934   5.118  0.5108  0.0089  0.6689
  570MOL0     C76822   4.991  10.037   5.166 -1.1124  0.6145 -0.1014
  570MOL0     O76823   4.930  10.130   5.092 -0.1254  0.8629 -0.0806
  570MOL0     C76824   4.920  10.111   4.948  0.1706 -0.5898 -0.4510
  570MOL0     C76825   4.863  10.230   4.874 -0.2776  0.3033 -0.4042
  570MOL0     C76826   4.935  10.260   4.745 -1.0369  0.0751 -1.0513
  570MOL0     C76827   4.862  10.381   4.682 -0.1826 -0.4641  0.2623
  570MOL0     C76828   4.915  10.397   4.529  0.8407  0.1545  0.3746
  570MOL0     C76829   4.827  10.504   4.461  1.0493  0.2918  0.0486
  570MOL0     C76830   4.671  10.457   4.446  0.4113 -0.5200 -0.3928
  570MOL0     C76831   4.584  10.530   4.341 -0.4207 -0.0609 -0.3645
  570MOL0     N76832   4.445  10.480   4.346  0.1000  0.2510 -0.1350
  570MOL0     C76833   4.396  10.355   4.302 -0.5689 -0.0988 -0.5412
  570MOL0     C76834   4.258  10.363   4.292  0.5737 -0.1451  0.3735
  570MOL0     C76835   4.161  10.253   4.242  0.1130 -0.0936  0.7440
  570MOL0     C76836   4.099  10.158   4.338  0.3175  0.6672  0.2264
  570MOL0     C76837   4.179  10.037   4.379  0.2465 -0.5404 -0.4043
  570MOL0     C76838   4.249   9.953   4.269 -0.0966 -0.0263  0.2333
  570MOL0     O76839   4.304   9.836   4.332  0.2359 -0.2762  0.0531
  570MOL0     C76840   4.428   9.852   4.399  0.5901  0.4397  0.5470
  570MOL0     C76841   4.524   9.951   4.388  0.2049 -0.3218  0.1203
  570MOL0     C76842   4.635   9.949   4.475  0.2607 -0.1581  1.4834
  570MOL0     C76843   4.735  10.066   4.457 -0.0542 -0.8108  0.2504
  570MOL0     C76844   4.641   9.854   4.571 -0.4149  0.1467 -0.0666
  570MOL0     C76845   4.760   9.834   4.658  0.5072 -1.4117 -0.0064
  570MOL0     O76846   4.781   9.698   4.683  0.1933 -0.0843  0.5378
  570MOL0     C76847   4.870   9.654   4.770  0.5074 -0.2293  1.0283
  570MOL0     C76848   5.008   9.666   4.750 -1.2161  0.4436  0.7677
  570MOL0     C76849   5.098   9.606   4.838 -0.4722  0.0725  0.1868
  570MOL0     C76850   5.060   9.544   4.956 -0.6187  0.5867  0.1554
  570MOL0     O76851   5.163   9.497   5.036 -0.2464 -0.3956 -0.2900
  570MOL0     C76852   5.127   9.410   5.142  0.4494 -0.0497  0.7630
  570MOL0     C76853   5.267   9.389   5.220 -0.9489 -0.6226  0.8965
  570MOL0     C76854   5.267   9.278   5.323 -0.1510 -0.3614 -0.0964
  570MOL0     C76855   5.388   9.316   5.408  0.4273 -0.6752 -0.2895
  570MOL0     C76856   5.404   9.205   5.507 -0.1684 -0.5471 -0.5704
  570MOL0     C76857   5.539   9.202   5.587  0.8965  0.3410  0.9142
  570MOL0     C76858   5.557   9.326   5.678  0.7397 -0.0601 -0.2571
  570MOL0     C76859   5.676   9.327   5.769  0.0030  0.7952 -0.0584
  570MOL0    Cl76860   5.696   9.479   5.852 -0.0045  0.2072  0.2510
  570MOL0     C76861   4.924   9.531   4.976  0.1174  0.9825  0.6474
  570MOL0     C76862   4.829   9.583   4.879 -0.5249 -0.6476  0.2085
  570MOL0     O76863   4.826   9.927   4.697 -1.0704 -0.2262  0.5880
  570MOL0     C76864   4.541   9.753   4.578  0.4734  0.3685 -0.7875
  570MOL0     C76865   4.433   9.745   4.493 -0.5972 -0.0923  0.9824
  570MOL0     N76866   4.232  10.493   4.330 -0.2087 -0.6526 -0.8188
  570MOL0     N76867   4.336  10.561   4.377  0.2144 -0.0277 -0.3528
  570MOL0     C76868   4.974  10.050   5.306  0.3516 -0.3253  0.1166
  570MOL0     C76869   5.038   9.958   5.396  0.7029 -0.1967 -0.0482
  570MOL0     C76870   5.152   9.588   5.571 -0.1623  0.0139 -0.2903
  570MOL0     C76871   5.259   9.624   5.650 -0.4422 -0.3795 -0.2631
  570MOL0     C76872   5.304   9.546   5.760 -0.7115 -0.5603 -0.0882
  570MOL0     C76873   5.227   9.431   5.786 -0.9933  0.1854  0.5285
  570MOL0     O76874   5.253   9.353   5.898 -0.5160  0.4020  0.1585
  570MOL0     C76875   5.166   9.250   5.944  1.0140  0.5471  0.3951
  570MOL0     C76876   5.219   9.120   5.884 -0.1276  0.2406 -0.4474
  570MOL0     C76877   5.353   9.077   5.959 -0.1067 -0.0366  0.2065
  570MOL0     C76878   5.331   9.010   6.094  0.2540 -0.3253 -0.2200
  570MOL0     C76879   5.300   8.872   6.068  0.5035 -0.0357 -0.7227
  570MOL0     C76880   5.269   8.759   6.036 -0.8507 -0.1437  0.4636
  570MOL0     C76881   5.122   9.391   5.703  0.8903 -0.9056  0.2804
  570MOL0     C76882   5.073   9.472   5.600 -0.5418 -0.5082 -0.1617
  570MOL0     H76883   5.199   9.759   5.164  0.7021 -1.3256  2.5409
  570MOL0     H76884   5.102   9.921   5.013  1.3779  2.4600  0.4681
  570MOL0     H76885   5.023  10.105   4.911  0.2887 -2.3752  0.0846
  570MOL0     H76886   4.862  10.022   4.924 -0.8020 -0.3076  0.7422
  570MOL0     H76887   4.755  10.221   4.856 -0.1769 -0.1532 -0.7881
  570MOL0     H76888   4.881  10.321   4.933  2.6590  2.3477 -4.0110
  570MOL0     H76889   5.035  10.294   4.774 -1.1644 -0.1077 -0.3836
  570MOL0     H76890   4.942  10.178   4.673  2.2637 -0.4681 -0.2741
  570MOL0     H76891   4.755  10.357   4.678 -0.0957 -0.7862 -0.1672
  570MOL0     H76892   4.892  10.470   4.739  2.0238 -1.1659  0.2853
  570MOL0     H76893   5.017  10.438   4.527  1.1854 -0.5332  2.0786
  570MOL0     H76894   4.910  10.300   4.479 -0.5614 -0.7761  2.2007
  570MOL0     H76895   4.827  10.601   4.513 -0.3087  0.5972 -0.4823
  570MOL0     H76896   4.866  10.511   4.359 -2.1347 -1.8433 -1.4539
  570MOL0     H76897   4.685  10.354   4.412  0.3896  0.0879 -2.4001
  570MOL0     H76898   4.622  10.473   4.542 -2.3780 -1.2922 -1.5775
  570MOL0     H76899   4.625  10.507   4.242 -2.4934  1.8894 -1.7734
  570MOL0     H76900   4.593  10.638   4.359  0.0929 -0.3137  1.0707
  570MOL0     H76901   4.458  10.268   4.283  0.8134  0.8458 -0.5687
  570MOL0     H76902   4.075  10.308   4.203 -1.1620 -0.6287  2.6395
  570MOL0     H76903   4.211  10.196   4.164  0.2003 -1.6756  1.9167
  570MOL0     H76904   4.012  10.116   4.285  0.8868  1.2384 -1.2077
  570MOL0     H76905   4.059  10.218   4.420 -2.6471  1.1999 -1.4487
  570MOL0     H76906   4.098   9.975   4.418  1.0088 -0.7624  0.8817
  570MOL0     H76907   4.250  10.078   4.451 -1.2265  3.1579 -0.8074
  570MOL0     H76908   4.328  10.017   4.228  0.7148 -1.8183 -1.1152
  570MOL0     H76909   4.176   9.922   4.193 -2.3163  2.7607  1.0410
  570MOL0     H76910   4.525  10.029   4.312  2.0061 -0.0130  0.4179
  570MOL0     H76911   4.736  10.123   4.550 -0.1286 -0.2924 -0.0652
  570MOL0     H76912   4.835  10.030   4.429 -0.4816 -3.0679  1.3741
  570MOL0     H76913   4.709  10.133   4.375  2.7127 -2.2940 -2.0281
  570MOL0     H76914   5.048   9.700   4.655 -0.3530 -0.5031  0.7782
  570MOL0     H76915   5.202   9.600   4.809 -0.8669  0.3247 -1.3828
  570MOL0     H76916   5.046   9.453   5.201 -1.0484  0.4665 -1.5195
  570MOL0     H76917   5.112   9.306   5.114  0.7934 -0.0380  0.5183
  570MOL0     H76918   5.358   9.371   5.161  1.4278  3.3535  2.8948
  570MOL0     H76919   5.298   9.484   5.265  0.6314 -0.1406 -1.0457
  570MOL0     H76920   5.268   9.184   5.267 -0.7353  0.2217 -1.1284
  570MOL0     H76921   5.174   9.291   5.379 -0.6274 -3.1187 -0.1256
  570MOL0     H76922   5.475   9.335   5.344  0.9465 -4.0238 -0.7652
  570MOL0     H76923   5.373   9.411   5.460 -1.5568 -0.7280 -0.6709
  570MOL0     H76924   5.392   9.115   5.447 -0.0434 -0.2771 -1.0107
  570MOL0     H76925   5.322   9.205   5.579  0.4788 -2.3914  0.2229
  570MOL0     H76926   5.552   9.109   5.643 -1.6188 -0.6682 -0.0542
  570MOL0     H76927   5.616   9.199   5.509  0.8196  0.1817  0.8455
  570MOL0     H76928   5.467   9.326   5.741 -0.4760 -3.0891 -1.7789
  570MOL0     H76929   5.558   9.410   5.608  0.7616  0.4595  0.3624
  570MOL0     H76930   5.767   9.315   5.710  1.7563 -0.1554  2.6495
  570MOL0     H76931   5.669   9.236   5.829  0.1062 -1.3261 -3.0924
  570MOL0     H76932   4.881   9.465   5.050  3.5246 -2.6543 -0.2568
  570MOL0     H76933   4.721   9.570   4.882 -0.4342 -1.6087 -0.3271
  570MOL0     H76934   4.541   9.678   4.656  1.6171 -0.4568 -1.5704
  570MOL0     H76935   4.367   9.660   4.502 -0.4504 -0.5024 -1.2613
  570MOL0     H76936   4.897  10.113   5.350  1.0824 -1.4164  3.2310
  570MOL0     H76937   5.009   9.968   5.500 -0.9999  1.3114 -0.6157
  570MOL0     H76938   5.300   9.721   5.625 -1.4433 -0.5361 -2.7375
  570MOL0     H76939   5.377   9.585   5.830  2.2388 -1.0802 -2.6982
  570MOL0     H76940   5.157   9.243   6.053  2.6628  0.9138  0.5782
  570MOL0     H76941   5.062   9.258   5.912  1.2801  3.3994 -0.0124
  570MOL0     H76942   5.217   9.136   5.775 -3.5402 -0.8758 -0.6575
  570MOL0     H76943   5.148   9.039   5.900 -2.6260  2.5239  0.7369
  570MOL0     H76944   5.428   9.154   5.977 -0.7499  1.6168 -3.2955
  570MOL0     H76945   5.400   9.008   5.888 -1.0128  0.6971 -1.1616
  570MOL0     H76946   5.265   9.065   6.162  3.8398  3.0419  0.9443
  570MOL0     H76947   5.423   9.006   6.152 -0.2174 -3.7107  0.5175
  570MOL0     H76948   5.247   8.659   6.007 -0.4028 -0.8573  2.4393
  570MOL0     H76949   5.067   9.298   5.715 -0.1074 -0.2588  0.8518
  570MOL0     H76950   4.992   9.439   5.535 -2.1781 -2.1052  2.4916
  571MOL0     O76951   9.903   1.904   4.750 -0.2217 -0.0474 -0.2851
  571MOL0     C76952   9.869   2.023   4.761  0.2569  0.1574 -0.3706
  571MOL0     O76953   9.769   2.071   4.845 -0.0935  0.9126  0.1881
  571MOL0     C76954   9.728   1.977   4.940 -0.8943 -0.0997 -0.5560
  571MOL0     C76955   9.822   1.922   5.040  0.3529  0.1610  0.3776
  571MOL0     C76956   9.777   1.817   5.124  0.3872  0.1531 -0.6068
  571MOL0     C76957   9.642   1.776   5.123  0.3101 -0.2118 -0.1967
  571MOL0     O76958   9.601   1.680   5.210  0.0325  0.0389  0.1228
  571MOL0     C76959   9.676   1.559   5.221  0.7344  0.0560  0.6331
  571MOL0     C76960   9.661   1.519   5.360  1.3616  0.6877 -0.6045
  571MOL0     C76961   9.715   1.620   5.466  0.0915  0.3429 -1.1659
  571MOL0     C76962   9.734   1.544   5.606 -0.1517 -0.8801 -0.2401
  571MOL0     C76963   9.800   1.640   5.708  0.2210  0.5267 -0.3013
  571MOL0     C76964   9.729   1.617   5.842 -0.4748 -0.3225 -0.5943
  571MOL0     C76965   9.801   1.722   5.940 -0.4030  0.2548  0.1791
  571MOL0     C76966   9.747   1.721   6.082  0.7291 -0.2231  0.1290
  571MOL0     N76967   9.802   1.620   6.168  0.8019  0.7060  0.2204
  571MOL0     C76968   9.752   1.494   6.172  0.2730  0.4044  0.8297
  571MOL0     C76969   9.830   1.430   6.264  0.8563  0.7070  0.5322
  571MOL0     C76970   9.817   1.293   6.323  0.6515  0.9525 -0.3212
  571MOL0     C76971   9.875   1.197   6.223  0.0385  0.1133 -0.3277
  571MOL0     C76972   9.795   1.175   6.094 -0.1638 -0.5685  0.9162
  571MOL0     C76973   9.652   1.131   6.107  0.4730  0.8854 -0.0805
  571MOL0     O76974   9.554   1.235   6.139  0.3914  0.2415  0.7284
  571MOL0     C76975   9.490   1.297   6.030 -0.2071 -0.2877 -0.2322
  571MOL0     C76976   9.401   1.403   6.065  0.6549  0.1544 -0.2721
  571MOL0     C76977   9.328   1.475   5.970  0.3685  0.0842 -0.7292
  571MOL0     C76978   9.223   1.560   6.024  0.5576 -0.2030  0.8863
  571MOL0     C76979   9.354   1.455   5.835 -1.5453  0.8696 -1.3414
  571MOL0     C76980   9.286   1.523   5.727  0.1635 -0.1330  0.5444
  571MOL0     O76981   9.303   1.454   5.600  0.4623 -1.2038 -0.1488
  571MOL0     C76982   9.248   1.506   5.479  0.6844  0.8665  0.4639
  571MOL0     C76983   9.299   1.615   5.411  0.6412 -0.9319  0.9059
  571MOL0     C76984   9.243   1.638   5.286  0.1595 -0.3876 -0.1351
  571MOL0     C76985   9.138   1.555   5.218 -0.7942 -0.4065 -1.0498
  571MOL0     O76986   9.118   1.595   5.091  0.3146  0.4147  0.5636
  571MOL0     C76987   9.018   1.535   5.022  0.3340 -0.3905  0.4922
  571MOL0     C76988   8.973   1.617   4.896 -0.8610 -0.4013 -0.1629
  571MOL0     C76989   9.041   1.574   4.766  0.4895 -0.1995  0.6084
  571MOL0     C76990   8.955   1.627   4.644  0.1588  0.2691 -1.5008
  571MOL0     C76991   8.982   1.775   4.614 -0.5064  0.2191  0.1480
  571MOL0     C76992   8.921   1.803   4.483  0.0602 -0.2844  1.0508
  571MOL0     C76993   8.918   1.960   4.456  1.1125  0.6463 -0.0084
  571MOL0     C76994   8.776   2.016   4.432  0.1958  0.4389  0.4412
  571MOL0    Cl76995   8.724   1.964   4.270  0.1077 -0.2455 -0.2817
  571MOL0     C76996   9.101   1.437   5.286 -0.2834  0.4967 -0.6822
  571MOL0     C76997   9.157   1.420   5.416  0.0886 -0.2657 -0.0280
  571MOL0     O76998   9.245   1.637   5.740  0.1377 -0.7056  0.1654
  571MOL0     C76999   9.444   1.344   5.796  1.9489 -0.7205 -0.3147
  571MOL0     C77000   9.512   1.279   5.897  0.1525  0.2841 -0.0190
  571MOL0     N77001   9.927   1.519   6.306 -0.1210  0.1012  0.7257
  571MOL0     N77002   9.909   1.633   6.258 -0.5367 -0.8728  0.3616
  571MOL0     C77003   9.558   1.845   5.033  0.3313 -0.2642 -0.6246
  571MOL0     C77004   9.597   1.936   4.940 -0.4248 -0.1821 -0.6392
  571MOL0     C77005   9.916   2.127   4.667  0.3936 -0.0678  0.5117
  571MOL0     C77006   9.869   2.260   4.682 -0.7352  0.5115  0.1399
  571MOL0     C77007   9.888   2.353   4.579  0.2516 -0.1484  0.5368
  571MOL0     C77008   9.976   2.325   4.468  0.8135 -0.5232 -0.2819
  571MOL0     O77009  10.017   2.428   4.381 -0.0379  0.3843  0.4847
  571MOL0     C77010   9.949   2.550   4.370  0.5331 -0.5657  0.3288
  571MOL0     C77011  10.018   2.667   4.304 -0.6522 -0.2342  0.1616
  571MOL0     C77012  10.072   2.638   4.165  0.2145 -0.4721  1.0792
  571MOL0     C77013  10.150   2.743   4.090  0.2597 -0.4559  0.1169
  571MOL0     C77014  10.157   2.698   3.950  0.0513  0.2103  0.0300
  571MOL0     C77015  10.173   2.683   3.828  0.2225 -0.3583 -0.2779
  571MOL0     C77016  10.045   2.199   4.474 -0.0830 -0.6939 -0.0403
  571MOL0     C77017  10.007   2.098   4.563 -0.2828  0.3127 -0.4262
  571MOL0     H77018   9.924   1.959   5.038  1.0239 -1.6023 -0.2432
  571MOL0     H77019   9.853   1.781   5.194 -0.5294  0.0554  0.3608
  571MOL0     H77020   9.642   1.481   5.153 -0.8830  1.5468 -0.3614
  571MOL0     H77021   9.778   1.570   5.185 -0.2429 -1.4054 -3.0010
  571MOL0     H77022   9.557   1.495   5.387  1.8207 -2.3402 -1.2412
  571MOL0     H77023   9.707   1.421   5.373 -1.2278 -0.5365 -0.0578
  571MOL0     H77024   9.816   1.656   5.440 -0.6959  3.2884 -0.5207
  571MOL0     H77025   9.660   1.713   5.479  1.6409  0.9613  2.0759
  571MOL0     H77026   9.632   1.511   5.628 -0.5718 -0.6179 -1.7366
  571MOL0     H77027   9.795   1.454   5.597  0.3309 -0.7197  1.1605
  571MOL0     H77028   9.908   1.623   5.704 -0.0171 -1.0665 -3.7068
  571MOL0     H77029   9.779   1.744   5.682 -1.8332  0.5583  1.2436
  571MOL0     H77030   9.622   1.634   5.830 -0.6290 -2.3070 -2.8308
  571MOL0     H77031   9.742   1.517   5.885 -2.2469  0.1611  1.2183
  571MOL0     H77032   9.907   1.699   5.928 -0.5776  0.4240 -2.2365
  571MOL0     H77033   9.785   1.828   5.918 -1.2953  0.0248 -0.3567
  571MOL0     H77034   9.638   1.708   6.074  0.4968  2.4606 -3.3773
  571MOL0     H77035   9.763   1.822   6.121 -0.1701 -0.7776  2.0690
  571MOL0     H77036   9.669   1.446   6.122  0.1449  1.0578  0.4132
  571MOL0     H77037   9.877   1.287   6.414  0.7093  0.7203 -0.3752
  571MOL0     H77038   9.713   1.274   6.350  1.2304 -4.2869 -0.7940
  571MOL0     H77039   9.898   1.100   6.267  0.5582  1.4366  2.4915
  571MOL0     H77040   9.974   1.232   6.189  1.9353 -2.5153  2.0598
  571MOL0     H77041   9.851   1.102   6.036 -1.1268  0.2927 -1.1981
  571MOL0     H77042   9.793   1.272   6.043  3.1754 -0.9484 -0.1300
  571MOL0     H77043   9.644   1.055   6.185 -0.4443  1.0362 -0.0174
  571MOL0     H77044   9.639   1.079   6.012  3.0730 -0.8745  0.4294
  571MOL0     H77045   9.383   1.415   6.171  0.2031 -1.4881 -0.1492
  571MOL0     H77046   9.124   1.517   6.004 -0.7030  1.9388  2.0126
  571MOL0     H77047   9.229   1.574   6.133 -2.2379  0.9013  0.9955
  571MOL0     H77048   9.221   1.659   5.977 -0.8881  0.1997  1.7067
  571MOL0     H77049   9.377   1.684   5.443  1.8119 -0.9600 -1.6636
  571MOL0     H77050   9.268   1.733   5.241 -0.4393  1.2105  2.6771
  571MOL0     H77051   9.052   1.437   4.987 -0.6601 -0.5469 -0.0503
  571MOL0     H77052   8.930   1.520   5.085  0.5762 -1.3717  0.6192
  571MOL0     H77053   8.868   1.589   4.881 -0.1734 -1.7152 -3.4870
  571MOL0     H77054   8.969   1.725   4.909 -1.0184 -0.4442  0.1576
  571MOL0     H77055   9.053   1.466   4.749 -0.0208  0.3054 -4.7996
  571MOL0     H77056   9.143   1.612   4.765  0.4086  0.0234 -0.7084
  571MOL0     H77057   8.993   1.569   4.559  2.1681  0.7563 -0.9760
  571MOL0     H77058   8.850   1.606   4.665  0.4610  0.9642  0.9303
  571MOL0     H77059   9.090   1.790   4.616 -0.2482 -1.3848 -0.4605
  571MOL0     H77060   8.938   1.848   4.682  0.8141  0.5369  0.6990
  571MOL0     H77061   8.977   1.761   4.399 -1.1975  1.5475 -0.8098
  571MOL0     H77062   8.819   1.761   4.480  0.9972 -2.6896 -1.2592
  571MOL0     H77063   8.978   1.982   4.368  0.4894  1.1147 -0.3253
  571MOL0     H77064   8.963   2.009   4.543  0.7867  2.9803 -1.0808
  571MOL0     H77065   8.776   2.125   4.422 -0.7568  0.3697 -0.4090
  571MOL0     H77066   8.699   2.000   4.508 -3.6437  1.8989 -2.8005
  571MOL0     H77067   9.018   1.378   5.249 -3.3746  2.3621  2.5575
  571MOL0     H77068   9.140   1.332   5.478  1.1676  0.9075  2.0592
  571MOL0     H77069   9.466   1.320   5.692  0.2910  0.6726 -1.0401
  571MOL0     H77070   9.583   1.204   5.863 -1.2450  0.4249 -3.7522
  571MOL0     H77071   9.453   1.815   5.031 -0.1663  1.3766 -1.1947
  571MOL0     H77072   9.539   1.987   4.864  3.9762  4.6911 -1.3689
  571MOL0     H77073   9.809   2.291   4.766 -1.8154 -2.9995  0.8347
  571MOL0     H77074   9.840   2.449   4.597  2.4896  0.6720  2.8980
  571MOL0     H77075   9.853   2.544   4.318  1.6830 -0.0486 -1.9844
  571MOL0     H77076   9.933   2.595   4.468  0.3283  1.9644 -0.7716
  571MOL0     H77077  10.088   2.702   4.380 -1.6299  4.4083 -0.7665
  571MOL0     H77078   9.940   2.743   4.300  0.8554  1.3847  0.3301
  571MOL0     H77079   9.986   2.612   4.102  1.6244 -0.8088 -0.8042
  571MOL0     H77080  10.131   2.546   4.161  0.8663 -0.0486  0.6855
  571MOL0     H77081  10.253   2.740   4.127  0.4112 -1.1468 -0.3380
  571MOL0     H77082  10.103   2.842   4.096 -1.1688 -1.1010 -0.1559
  571MOL0     H77083  10.186   2.673   3.722 -0.7599  0.6790 -0.5143
  571MOL0     H77084  10.122   2.163   4.407 -1.7841 -3.0374 -0.8584
  571MOL0     H77085  10.058   2.005   4.541  0.8097  0.9777 -0.7599
  572MOL0     O77086   2.307   5.435   1.456  0.7500 -0.0408 -0.3923
  572MOL0     C77087   2.265   5.533   1.396  0.2701 -0.5419  0.5976
  572MOL0     O77088   2.175   5.629   1.439 -0.7101  0.8912  0.3260
  572MOL0     C77089   2.094   5.578   1.534 -0.3458  1.2945  0.6371
  572MOL0     C77090   2.105   5.603   1.668  0.0188 -0.1749  0.1178
  572MOL0     C77091   2.005   5.544   1.756 -0.1331 -0.8305 -0.0989
  572MOL0     C77092   1.888   5.481   1.710  0.3686  0.5617  0.0741
  572MOL0     O77093   1.781   5.421   1.778 -0.7895  0.7023 -0.9113
  572MOL0     C77094   1.803   5.418   1.927  0.2257  0.7603  0.3359
  572MOL0     C77095   1.698   5.315   1.975 -0.9337 -0.4179 -0.3395
  572MOL0     C77096   1.564   5.333   1.900 -0.4159  0.2932 -0.0867
  572MOL0     C77097   1.446   5.259   1.972 -0.0512  0.3142  0.4179
  572MOL0     C77098   1.326   5.255   1.887  0.2063  0.1947 -0.9717
  572MOL0     C77099   1.295   5.392   1.818  0.6362 -0.0228  0.6956
  572MOL0     C77100   1.144   5.418   1.798 -0.1728 -0.4925  1.9751
  572MOL0     C77101   1.127   5.573   1.781  0.1814 -0.4902 -0.4902
  572MOL0     N77102   1.193   5.612   1.659  0.2530 -0.6312 -0.0373
  572MOL0     C77103   1.303   5.690   1.638 -1.6002 -0.1621 -0.4845
  572MOL0     C77104   1.299   5.720   1.505 -0.2491 -0.7037 -0.3292
  572MOL0     C77105   1.400   5.805   1.430 -0.9115 -0.1586  0.6877
  572MOL0     C77106   1.540   5.734   1.448 -0.2676  0.4773 -0.2608
  572MOL0     C77107   1.575   5.665   1.314  0.1491  0.6354  0.0018
  572MOL0     C77108   1.709   5.593   1.335  0.1383 -0.0995 -0.0436
  572MOL0     O77109   1.748   5.501   1.231  0.1443 -0.1262  0.2365
  572MOL0     C77110   1.820   5.556   1.131 -0.5867  0.6490 -0.4289
  572MOL0     C77111   1.871   5.691   1.117 -1.1411 -0.0468  0.3277
  572MOL0     C77112   1.928   5.732   0.991 -0.1654  0.5014  0.2213
  572MOL0     C77113   1.960   5.877   0.971  0.4012  1.3353 -0.9328
  572MOL0     C77114   1.955   5.639   0.895 -1.0838 -0.0651  1.4097
  572MOL0     C77115   2.022   5.672   0.760  0.3499  0.7293  0.6866
  572MOL0     O77116   1.945   5.637   0.652  0.3213 -0.1580 -0.6460
  572MOL0     C77117   1.996   5.596   0.529 -0.1553  0.7019 -0.4861
  572MOL0     C77118   1.904   5.579   0.426 -0.3769  0.2273  0.7532
  572MOL0     C77119   1.942   5.540   0.300 -0.7101  0.5984  0.6802
  572MOL0     C77120   2.079   5.544   0.267 -0.6061 -0.4951  0.0659
  572MOL0     O77121   2.114   5.507   0.138 -0.3198 -0.4127 -0.2102
  572MOL0     C77122   2.107   5.365   0.117 -0.9751 -1.0637 -0.7273
  572MOL0     C77123   2.198   5.325  -0.011 -0.8846 -0.1346 -0.2352
  572MOL0     C77124   2.116   5.335  -0.142  0.4099  0.0367 -0.7927
  572MOL0     C77125   2.190   5.287  -0.267 -0.6523 -0.3442 -0.9133
  572MOL0     C77126   2.098   5.311  -0.391 -0.0998 -0.5603  0.2703
  572MOL0     C77127   1.959   5.237  -0.384 -0.1837 -1.2894  0.9672
  572MOL0     C77128   1.979   5.086  -0.385  0.2939  0.0693  0.9189
  572MOL0     C77129   1.839   5.010  -0.368  0.3658 -0.4163 -0.4423
  572MOL0    Cl77130   1.720   5.059  -0.482 -0.0614  0.1002  0.0268
  572MOL0     C77131   2.171   5.551   0.370 -0.8156 -0.2410  0.6328
  572MOL0     C77132   2.134   5.581   0.502 -0.4257 -0.3287  0.1106
  572MOL0     O77133   2.139   5.705   0.750 -0.2904 -0.5918  0.0489
  572MOL0     C77134   1.901   5.512   0.906 -0.2007  0.0247 -0.2066
  572MOL0     C77135   1.837   5.466   1.020  0.7421 -1.1624  0.3622
  572MOL0     N77136   1.192   5.652   1.446 -0.3820  0.3196 -0.0899
  572MOL0     N77137   1.128   5.594   1.543 -0.5880  0.1966  0.2980
  572MOL0     C77138   1.891   5.444   1.572  0.0599 -0.1994  0.9132
  572MOL0     C77139   1.996   5.484   1.482 -1.4258 -1.4594 -0.7835
  572MOL0     C77140   2.342   5.568   1.273  0.6841 -0.0101 -0.5315
  572MOL0     C77141   2.302   5.666   1.177 -0.4878 -0.4032  0.0444
  572MOL0     C77142   2.369   5.697   1.067  0.1273  0.3070  0.5060
  572MOL0     C77143   2.479   5.625   1.030 -0.4330  0.3581  0.2412
  572MOL0     O77144   2.541   5.653   0.913  0.8475 -0.1557 -0.1987
  572MOL0     C77145   2.513   5.783   0.844 -0.0129 -0.8623  0.0403
  572MOL0     C77146   2.598   5.798   0.715  0.0374 -0.4312 -0.2557
  572MOL0     C77147   2.597   5.675   0.624  0.2089  0.5198  0.4844
  572MOL0     C77148   2.667   5.680   0.488 -0.2383  0.9610  0.1076
  572MOL0     C77149   2.645   5.551   0.419  0.4793 -0.5727 -0.4129
  572MOL0     C77150   2.640   5.441   0.373  0.3445  0.4111 -1.0668
  572MOL0     C77151   2.518   5.515   1.115 -0.7998  0.1336 -0.4360
  572MOL0     C77152   2.452   5.486   1.231  0.6563  0.4340 -0.9082
  572MOL0     H77153   2.191   5.649   1.716 -1.6777 -0.0824  3.3610
  572MOL0     H77154   2.020   5.577   1.858  1.7505  1.6274 -1.0660
  572MOL0     H77155   1.905   5.401   1.961 -0.1184  0.6351  1.3438
  572MOL0     H77156   1.762   5.512   1.966  0.0605  1.5285 -1.5916
  572MOL0     H77157   1.739   5.214   1.980 -0.1424 -0.0318  2.0270
  572MOL0     H77158   1.686   5.345   2.079  2.2292 -2.3477  0.7021
  572MOL0     H77159   1.546   5.440   1.884  1.1693  0.2984 -2.4150
  572MOL0     H77160   1.591   5.292   1.802  0.8920  1.2646 -0.1666
  572MOL0     H77161   1.461   5.161   2.020 -2.1730  0.1237  0.8022
  572MOL0     H77162   1.423   5.320   2.060 -2.7465  0.9113 -0.6238
  572MOL0     H77163   1.338   5.171   1.819  1.4892 -0.8852  0.5174
  572MOL0     H77164   1.244   5.237   1.958  0.9780  0.5933  0.0590
  572MOL0     H77165   1.332   5.474   1.880 -0.9127  2.0844 -1.0041
  572MOL0     H77166   1.347   5.405   1.723 -0.8535 -0.3249 -0.1931
  572MOL0     H77167   1.114   5.357   1.712  1.0046 -2.2104  2.7470
  572MOL0     H77168   1.093   5.381   1.887  1.0459 -0.7105  2.5973
  572MOL0     H77169   1.168   5.635   1.861  1.0890  2.3993 -3.0338
  572MOL0     H77170   1.021   5.596   1.771 -0.4517 -0.2010  4.5537
  572MOL0     H77171   1.370   5.721   1.718 -0.0956 -1.7629 -1.0591
  572MOL0     H77172   1.380   5.819   1.323 -0.0147  0.5222  0.5895
  572MOL0     H77173   1.405   5.908   1.467 -0.0736 -0.4382  1.3829
  572MOL0     H77174   1.529   5.652   1.519 -2.1052 -0.1286 -1.1707
  572MOL0     H77175   1.620   5.803   1.476 -0.1259 -0.2634  1.2251
  572MOL0     H77176   1.592   5.738   1.234  0.9090 -0.1141 -0.5332
  572MOL0     H77177   1.499   5.590   1.290  1.1888 -0.0209 -1.3640
  572MOL0     H77178   1.698   5.539   1.429  2.7972 -0.3057  0.2190
  572MOL0     H77179   1.786   5.665   1.364 -3.0818  2.3193  3.4425
  572MOL0     H77180   1.844   5.761   1.195  1.4064 -0.8775  2.0709
  572MOL0     H77181   2.059   5.902   1.012  0.0621  3.0779 -1.1197
  572MOL0     H77182   1.957   5.904   0.865  3.3856  2.9777 -0.7167
  572MOL0     H77183   1.899   5.947   1.029 -0.3180 -1.5468  2.1084
  572MOL0     H77184   1.797   5.590   0.439 -0.1451  1.4929  1.7952
  572MOL0     H77185   1.871   5.534   0.217  1.2118  0.3801 -1.0393
  572MOL0     H77186   2.141   5.316   0.208  1.2746  0.2327 -0.8132
  572MOL0     H77187   2.002   5.339   0.096 -1.1602 -1.9406  1.1045
  572MOL0     H77188   2.290   5.385  -0.009  0.4786 -2.0130  3.5413
  572MOL0     H77189   2.225   5.220   0.004  0.1712 -0.0388 -1.3031
  572MOL0     H77190   2.104   5.444  -0.141  0.3355  0.0238  0.7779
  572MOL0     H77191   2.026   5.278  -0.121  0.1362  1.2049  1.5359
  572MOL0     H77192   2.285   5.340  -0.269 -1.8354  2.0110  0.5417
  572MOL0     H77193   2.203   5.181  -0.244 -0.3241 -0.0267  0.4318
  572MOL0     H77194   2.149   5.274  -0.480 -1.2746 -2.2987  0.2759
  572MOL0     H77195   2.081   5.415  -0.421 -2.6191 -0.7257  0.9018
  572MOL0     H77196   1.910   5.259  -0.289  2.0692 -1.1079  2.1507
  572MOL0     H77197   1.901   5.265  -0.473  1.7715  1.5956  0.4667
  572MOL0     H77198   2.040   5.047  -0.302 -1.0841 -3.8699  0.3196
  572MOL0     H77199   2.020   5.050  -0.479 -3.1329 -4.4381  0.8144
  572MOL0     H77200   1.800   5.015  -0.266  0.0464  0.8786 -0.6088
  572MOL0     H77201   1.856   4.903  -0.382 -1.1531 -0.7230 -0.1279
  572MOL0     H77202   2.279   5.554   0.359 -0.8016  1.1103  0.9413
  572MOL0     H77203   2.217   5.588   0.571  1.1290  2.6499 -1.8721
  572MOL0     H77204   1.892   5.437   0.828  3.8235 -1.5226  0.5473
  572MOL0     H77205   1.795   5.366   1.032  0.7710 -1.0338  1.6882
  572MOL0     H77206   1.811   5.385   1.528 -1.8572  2.2764  0.9146
  572MOL0     H77207   1.985   5.463   1.376 -2.4671  3.8152 -1.9792
  572MOL0     H77208   2.207   5.717   1.190 -0.0554 -0.0451  2.2986
  572MOL0     H77209   2.327   5.770   0.999  1.1192  1.5151  1.1574
  572MOL0     H77210   2.408   5.783   0.814 -0.0146 -0.5480  0.0473
  572MOL0     H77211   2.534   5.860   0.919 -0.1118 -1.0528  0.2646
  572MOL0     H77212   2.702   5.825   0.728 -0.5609  1.8280  0.1893
  572MOL0     H77213   2.558   5.879   0.653 -0.4607 -0.0864  0.5013
  572MOL0     H77214   2.494   5.641   0.610 -0.0628  1.6848 -0.5385
  572MOL0     H77215   2.646   5.589   0.670  2.3146  2.0906  1.3794
  572MOL0     H77216   2.774   5.679   0.511 -0.8061 -0.0414  3.0928
  572MOL0     H77217   2.633   5.764   0.427 -0.9942  0.1727 -0.5817
  572MOL0     H77218   2.645   5.343   0.330 -0.9274 -0.6977  1.1172
  572MOL0     H77219   2.601   5.452   1.084 -0.8566  0.9026 -2.2396
  572MOL0     H77220   2.490   5.403   1.290 -1.1315  0.6496  0.6373
  573MOL0     O77221   1.697   5.124   6.212  0.0465 -0.3910  0.1058
  573MOL0     C77222   1.707   5.219   6.281 -0.0195  0.5175  0.1569
  573MOL0     O77223   1.701   5.217   6.420 -0.4493 -0.1472  0.2628
  573MOL0     C77224   1.644   5.096   6.470 -0.5515 -0.1715 -0.0160
  573MOL0     C77225   1.509   5.091   6.513  0.4887 -0.1612  0.3657
  573MOL0     C77226   1.434   4.980   6.547 -0.9133 -0.4541  0.1103
  573MOL0     C77227   1.501   4.853   6.557  0.1877 -1.0223  0.0857
  573MOL0     O77228   1.452   4.732   6.601  0.5355  0.0150  0.5456
  573MOL0     C77229   1.337   4.684   6.530  0.2408 -0.0869 -0.8999
  573MOL0     C77230   1.220   4.646   6.628  0.7940  0.5140 -0.1938
  573MOL0     C77231   1.232   4.495   6.666  0.3063  0.5292 -0.1593
  573MOL0     C77232   1.101   4.449   6.735 -0.8829 -0.0597  0.3594
  573MOL0     C77233   0.997   4.375   6.627  0.6961  0.7535 -0.8028
  573MOL0     C77234   0.862   4.339   6.697 -1.0607  0.5631 -0.1981
  573MOL0     C77235   0.760   4.455   6.731  0.2957  0.2207 -0.0860
  573MOL0     C77236   0.644   4.412   6.814 -0.3794 -0.0561  0.1526
  573MOL0     N77237   0.558   4.303   6.766 -0.0985  0.1304  0.2435
  573MOL0     C77238   0.521   4.288   6.630 -0.4480 -0.6827  0.3091
  573MOL0     C77239   0.416   4.196   6.631 -0.0181 -0.4201  0.0419
  573MOL0     C77240   0.355   4.124   6.514 -0.7330  0.1510  0.4076
  573MOL0     C77241   0.463   4.057   6.427 -0.0684  0.4131  0.2982
  573MOL0     C77242   0.403   4.003   6.293 -0.4677  0.5535 -0.4688
  573MOL0     C77243   0.345   3.854   6.316  0.4433 -0.8667 -0.9044
  573MOL0     O77244   0.248   3.822   6.207  0.0665 -0.4218  0.5825
  573MOL0     C77245   0.171   3.709   6.213 -0.5159  0.0558 -0.3466
  573MOL0     C77246   0.200   3.599   6.290 -0.0113 -0.1857  0.1958
  573MOL0     C77247   0.109   3.489   6.304 -0.3173 -0.2561  0.6239
  573MOL0     C77248   0.165   3.387   6.393 -0.7864  0.0413 -0.3956
  573MOL0     C77249  -0.014   3.498   6.237 -0.0647 -0.8494  0.3501
  573MOL0     C77250  -0.126   3.398   6.260 -0.7986 -0.2973  0.8008
  573MOL0     O77251  -0.229   3.431   6.183 -0.0546  1.5033  0.4227
  573MOL0     C77252  -0.323   3.336   6.164 -0.8816  0.8562  0.3102
  573MOL0     C77253  -0.308   3.209   6.099  0.3867  0.4471  0.5304
  573MOL0     C77254  -0.419   3.122   6.072 -0.5272  0.4581 -0.6455
  573MOL0     C77255  -0.545   3.168   6.103 -0.0370  0.0616  0.5400
  573MOL0     O77256  -0.665   3.100   6.099 -0.3213  0.1081  0.3662
  573MOL0     C77257  -0.663   2.961   6.048  0.3176 -0.4873  0.7650
  573MOL0     C77258  -0.788   2.882   6.085 -0.8906 -0.3610 -0.1181
  573MOL0     C77259  -0.820   2.895   6.234  0.1855  0.0137 -0.1970
  573MOL0     C77260  -0.701   2.844   6.332 -0.2228 -0.6561  0.1850
  573MOL0     C77261  -0.671   2.700   6.307  0.0431  0.5237 -0.1554
  573MOL0     C77262  -0.604   2.623   6.430  0.7813 -0.3194 -0.0922
  573MOL0     C77263  -0.679   2.609   6.557 -0.8331 -0.0687 -0.9981
  573MOL0     C77264  -0.793   2.514   6.546  0.0822 -0.3556  0.8113
  573MOL0    Cl77265  -0.847   2.499   6.722 -0.0605  0.9781 -0.0185
  573MOL0     C77266  -0.549   3.288   6.170  0.2432 -0.0138  0.0239
  573MOL0     C77267  -0.450   3.371   6.201  0.4752  0.2373  0.7198
  573MOL0     O77268  -0.113   3.308   6.341  0.3930  0.2858 -0.4580
  573MOL0     C77269  -0.030   3.602   6.139 -0.6772  0.3085  0.5463
  573MOL0     C77270   0.065   3.704   6.127  0.0968  0.3070  0.3818
  573MOL0     N77271   0.406   4.151   6.768 -0.3848 -0.2662  0.7953
  573MOL0     N77272   0.495   4.210   6.837 -0.0343 -0.9479 -0.0737
  573MOL0     C77273   1.635   4.845   6.516  0.5055 -0.1092  0.0001
  573MOL0     C77274   1.704   4.963   6.468 -0.5656  0.5426 -1.1058
  573MOL0     C77275   1.734   5.343   6.213 -0.1156 -1.4490 -0.4825
  573MOL0     C77276   1.717   5.472   6.278 -0.4044 -0.6021 -0.0062
  573MOL0     C77277   1.756   5.592   6.219  0.3541  0.3689  0.4480
  573MOL0     C77278   1.816   5.593   6.093 -0.0754  0.6292 -0.7726
  573MOL0     O77279   1.859   5.701   6.027  0.5246 -0.1829 -0.2710
  573MOL0     C77280   1.891   5.814   6.108 -0.0243 -0.3760  0.9215
  573MOL0     C77281   1.944   5.922   6.021  0.5918 -0.1222  0.6797
  573MOL0     C77282   1.977   6.037   6.114  0.2527  0.2961 -0.0570
  573MOL0     C77283   2.068   6.129   6.040 -0.2255  0.5949  0.2295
  573MOL0     C77284   2.073   6.252   6.122 -0.4173 -0.2351  0.0524
  573MOL0     C77285   2.085   6.344   6.205  0.1450  0.5532 -0.6193
  573MOL0     C77286   1.833   5.468   6.033 -0.2332 -0.0345  0.5315
  573MOL0     C77287   1.798   5.350   6.092 -0.2098 -0.2368 -0.4374
  573MOL0     H77288   1.457   5.186   6.517  1.8547  0.5863  0.9874
  573MOL0     H77289   1.330   4.996   6.570 -0.7362  2.4445 -0.7399
  573MOL0     H77290   1.290   4.758   6.466  1.0208 -0.0518 -1.4517
  573MOL0     H77291   1.364   4.595   6.473 -1.9921 -3.2264  2.4763
  573MOL0     H77292   1.206   4.721   6.707 -0.8805  1.0393 -0.9305
  573MOL0     H77293   1.129   4.663   6.569 -0.3733  0.9706  1.6446
  573MOL0     H77294   1.259   4.441   6.575  0.4879  2.3435 -1.2179
  573MOL0     H77295   1.317   4.481   6.733 -0.7269  2.2671  1.6342
  573MOL0     H77296   1.131   4.376   6.811  3.2912 -0.7763 -1.7387
  573MOL0     H77297   1.056   4.534   6.787  0.4349 -0.2665  1.8983
  573MOL0     H77298   0.972   4.431   6.537  0.6168 -0.9703 -1.9000
  573MOL0     H77299   1.045   4.280   6.599 -1.1572 -1.5852  2.9960
  573MOL0     H77300   0.815   4.276   6.621  1.1892  0.8362 -1.9256
  573MOL0     H77301   0.881   4.274   6.783 -0.5500  3.6523  2.2462
  573MOL0     H77302   0.819   4.532   6.781  2.7015 -0.6566 -1.3947
  573MOL0     H77303   0.713   4.485   6.637  0.9608 -0.3631 -0.6147
  573MOL0     H77304   0.585   4.504   6.825 -0.6312 -0.2559  0.5149
  573MOL0     H77305   0.670   4.382   6.916 -0.3230  1.2761  0.5496
  573MOL0     H77306   0.568   4.331   6.542  1.0636 -0.7680  1.0368
  573MOL0     H77307   0.290   4.050   6.562  1.7819 -1.0580  2.1358
  573MOL0     H77308   0.293   4.192   6.455  1.4490  3.0335  1.1798
  573MOL0     H77309   0.521   3.981   6.480 -1.6016 -2.1639 -1.5150
  573MOL0     H77310   0.536   4.131   6.393 -1.0963  0.4921 -1.9157
  573MOL0     H77311   0.488   3.976   6.230  0.1240 -3.8025  1.7794
  573MOL0     H77312   0.332   4.067   6.240 -2.1596  0.1503  1.2031
  573MOL0     H77313   0.301   3.847   6.415  3.3889  0.3679  0.6075
  573MOL0     H77314   0.423   3.778   6.329  0.2170 -1.2321 -1.6218
  573MOL0     H77315   0.291   3.602   6.349 -0.0236  0.6883  0.1867
  573MOL0     H77316   0.087   3.343   6.456  1.0319 -0.7708  1.4185
  573MOL0     H77317   0.203   3.296   6.347  0.8769 -1.0743  2.8216
  573MOL0     H77318   0.243   3.435   6.454 -0.6348  1.7097 -1.8355
  573MOL0     H77319  -0.207   3.175   6.077  0.2012 -1.0533  1.8418
  573MOL0     H77320  -0.404   3.032   6.014 -1.8368  0.4187 -0.9512
  573MOL0     H77321  -0.649   2.962   5.939 -2.4904  1.1063  0.3171
  573MOL0     H77322  -0.573   2.909   6.083  1.1305 -1.1230 -2.0397
  573MOL0     H77323  -0.876   2.921   6.034  0.7416  1.0296 -2.0528
  573MOL0     H77324  -0.769   2.778   6.056 -1.8243 -1.1229  1.8458
  573MOL0     H77325  -0.901   2.823   6.249 -1.2309  2.1124  3.4459
  573MOL0     H77326  -0.854   2.995   6.263  0.7809 -0.0345  0.7126
  573MOL0     H77327  -0.607   2.894   6.307 -0.2477 -0.5657  0.2723
  573MOL0     H77328  -0.731   2.854   6.436 -1.2859 -1.0630 -0.0724
  573MOL0     H77329  -0.617   2.680   6.214  1.3010  0.8152  0.4861
  573MOL0     H77330  -0.774   2.665   6.292 -0.1813  0.5214  1.2285
  573MOL0     H77331  -0.580   2.524   6.389  1.9166  0.3583 -1.0966
  573MOL0     H77332  -0.513   2.680   6.447 -1.2484  2.6073  1.9401
  573MOL0     H77333  -0.708   2.708   6.594  0.3308 -0.1122  0.0877
  573MOL0     H77334  -0.619   2.545   6.623  1.9962  3.0364 -0.3007
  573MOL0     H77335  -0.769   2.411   6.518 -3.5898 -1.0444 -0.3987
  573MOL0     H77336  -0.863   2.546   6.468  1.1406 -3.0001 -1.4010
  573MOL0     H77337  -0.648   3.317   6.205  0.2644 -0.9554  0.9382
  573MOL0     H77338  -0.471   3.453   6.268  0.5801  0.6118  0.2985
  573MOL0     H77339  -0.124   3.610   6.085 -0.6847 -0.6227  0.4080
  573MOL0     H77340   0.043   3.782   6.055 -0.4993 -0.0214  0.2023
  573MOL0     H77341   1.681   4.748   6.533 -1.7031 -1.5143 -1.5311
  573MOL0     H77342   1.810   4.952   6.444  0.1370  2.8078  0.6269
  573MOL0     H77343   1.692   5.475   6.383 -0.0842 -2.0954  0.1418
  573MOL0     H77344   1.754   5.684   6.277 -1.2744 -0.4322  1.7218
  573MOL0     H77345   1.792   5.852   6.136  0.1626  1.0972 -0.3246
  573MOL0     H77346   1.953   5.782   6.193  0.5239 -2.6720 -0.2573
  573MOL0     H77347   1.869   5.944   5.944 -0.1933 -2.2979  0.7473
  573MOL0     H77348   2.036   5.887   5.973  1.4065  1.7716  0.7680
  573MOL0     H77349   2.025   6.004   6.207 -2.4013  1.4727  1.8347
  573MOL0     H77350   1.887   6.080   6.157 -0.1856 -0.7485  0.0817
  573MOL0     H77351   2.043   6.149   5.936  2.2072  1.3266 -0.2791
  573MOL0     H77352   2.170   6.090   6.035 -0.3874  0.3535 -2.3901
  573MOL0     H77353   2.100   6.417   6.282  1.3489 -0.6025  0.2810
  573MOL0     H77354   1.894   5.461   5.944 -1.7511  1.4141 -0.6959
  573MOL0     H77355   1.843   5.259   6.053  0.2784 -0.8719  1.4822
  574MOL0     O77356   6.461   4.465   4.958  0.2502  0.6267  0.0648
  574MOL0     C77357   6.481   4.452   5.080 -0.0033 -0.6251 -0.1625
  574MOL0     O77358   6.601   4.469   5.145 -0.3753 -0.0544  0.8584
  574MOL0     C77359   6.710   4.526   5.081 -0.0245 -0.1477  0.0417
  574MOL0     C77360   6.695   4.648   5.000  0.2791  0.1379  0.4726
  574MOL0     C77361   6.809   4.711   4.955 -0.6007  0.1706  0.0587
  574MOL0     C77362   6.937   4.644   4.981  0.0534 -0.5672  0.6507
  574MOL0     O77363   7.056   4.711   4.935 -0.0288  0.1801  0.5027
  574MOL0     C77364   7.049   4.839   4.875 -0.6952  0.3266 -0.0609
  574MOL0     C77365   7.203   4.856   4.844  0.4578 -0.1535 -0.3005
  574MOL0     C77366   7.226   4.988   4.767  0.5045 -0.6502  0.8768
  574MOL0     C77367   7.377   5.020   4.750 -0.5972 -0.4039  0.2763
  574MOL0     C77368   7.403   5.139   4.647 -0.2367 -0.4770  0.1119
  574MOL0     C77369   7.326   5.265   4.683  0.6599 -0.6395 -0.3857
  574MOL0     C77370   7.371   5.387   4.597  0.6707 -0.2780  0.9249
  574MOL0     C77371   7.505   5.433   4.647  0.6622 -0.7097  0.7687
  574MOL0     N77372   7.529   5.578   4.622  0.5490 -0.3992  0.2496
  574MOL0     C77373   7.648   5.638   4.600 -0.2153 -0.3061 -0.2746
  574MOL0     C77374   7.633   5.770   4.613 -0.4648 -0.7396 -0.6534
  574MOL0     C77375   7.740   5.874   4.610  0.0174  0.9780 -1.1227
  574MOL0     C77376   7.806   5.893   4.749  0.2609 -0.7001 -0.3696
  574MOL0     C77377   7.901   6.011   4.742  0.0181 -0.4735 -0.3807
  574MOL0     C77378   7.848   6.150   4.732  0.3570  0.6730  0.6539
  574MOL0     O77379   7.948   6.244   4.760  0.3772  0.8098  0.4215
  574MOL0     C77380   7.923   6.376   4.744 -0.6916 -0.6358 -0.0198
  574MOL0     C77381   7.803   6.434   4.708 -0.7942  0.2723  0.1984
  574MOL0     C77382   7.786   6.573   4.714  0.1060  0.2340  0.0798
  574MOL0     C77383   7.654   6.626   4.653 -1.0260  0.1819  0.6722
  574MOL0     C77384   7.901   6.650   4.746 -0.5305 -0.1363 -0.6298
  574MOL0     C77385   7.890   6.792   4.751  0.1481 -0.4122 -0.9367
  574MOL0     O77386   7.980   6.851   4.676 -0.3026 -0.7901 -0.5356
  574MOL0     C77387   7.958   6.982   4.647 -0.0119  0.1230  1.1337
  574MOL0     C77388   7.877   7.030   4.540 -0.1507  0.5594  0.3972
  574MOL0     C77389   7.862   7.160   4.508  0.6865  0.5716 -0.2188
  574MOL0     C77390   7.922   7.253   4.594  0.6179 -0.4189  0.6290
  574MOL0     O77391   7.894   7.382   4.574 -0.5057 -0.6470 -0.3707
  574MOL0     C77392   7.933   7.447   4.448 -0.8125  1.0813  0.1408
  574MOL0     C77393   7.870   7.578   4.410 -0.4413 -1.2608 -0.3811
  574MOL0     C77394   7.719   7.569   4.416 -0.0633 -0.2056  0.3242
  574MOL0     C77395   7.637   7.494   4.303 -0.8001 -0.5382 -1.0104
  574MOL0     C77396   7.511   7.427   4.357  0.1877  0.4075 -0.7072
  574MOL0     C77397   7.401   7.525   4.414 -0.4681  0.6871 -0.4151
  574MOL0     C77398   7.287   7.451   4.486  0.2633  0.2488  0.2346
  574MOL0     C77399   7.156   7.532   4.485  0.4809  0.1224 -0.5923
  574MOL0    Cl77400   7.177   7.692   4.568  0.3545  0.0736  0.1838
  574MOL0     C77401   8.020   7.209   4.689  0.4803  0.2055 -0.1598
  574MOL0     C77402   8.037   7.080   4.708  0.0766  1.2137 -0.1772
  574MOL0     O77403   7.795   6.839   4.815  0.1510  0.7403 -0.8430
  574MOL0     C77404   8.023   6.598   4.777  0.3954 -0.6338 -0.4920
  574MOL0     C77405   8.037   6.458   4.774  0.2875 -0.3885  0.3002
  574MOL0     N77406   7.504   5.793   4.619  0.9505  0.1772 -0.6500
  574MOL0     N77407   7.434   5.681   4.633 -0.6395 -0.9450 -0.1188
  574MOL0     C77408   6.944   4.521   5.035  0.0254  0.1035 -0.4230
  574MOL0     C77409   6.832   4.463   5.091 -0.3920 -0.3668 -0.0334
  574MOL0     C77410   6.366   4.408   5.163  1.5514  0.7449 -0.3827
  574MOL0     C77411   6.246   4.349   5.100  0.5576 -0.5372  0.8963
  574MOL0     C77412   6.149   4.278   5.182  0.7372  0.3984 -0.0867
  574MOL0     C77413   6.170   4.262   5.319 -0.9153  0.4225 -0.0231
  574MOL0     O77414   6.079   4.194   5.404 -0.4536 -0.1671  1.0302
  574MOL0     C77415   5.967   4.125   5.351  0.3206 -0.0743  0.3257
  574MOL0     C77416   5.904   4.038   5.450  0.7971  1.3628  0.3224
  574MOL0     C77417   5.851   4.086   5.581 -0.3663  0.3452 -0.4170
  574MOL0     C77418   5.751   4.191   5.567  0.8438  0.1137  0.0007
  574MOL0     C77419   5.675   4.209   5.686  0.0023  0.0551 -1.5280
  574MOL0     C77420   5.618   4.220   5.791 -0.3598 -0.3490 -0.5335
  574MOL0     C77421   6.281   4.327   5.374  0.1252 -0.1805 -0.0820
  574MOL0     C77422   6.372   4.403   5.295  0.6108 -0.3158  0.1088
  574MOL0     H77423   6.599   4.693   4.973  0.4626  0.6454  0.6551
  574MOL0     H77424   6.793   4.802   4.898  3.6973 -0.6194 -2.8979
  574MOL0     H77425   6.983   4.838   4.789 -0.9251  1.9746  0.0493
  574MOL0     H77426   7.017   4.918   4.944  0.8770  1.4593 -0.5444
  574MOL0     H77427   7.264   4.849   4.935 -0.2828 -0.2045  0.2056
  574MOL0     H77428   7.223   4.767   4.785 -1.8096  1.3807 -3.7005
  574MOL0     H77429   7.179   4.994   4.669  0.2493 -0.7082  0.9957
  574MOL0     H77430   7.171   5.072   4.810 -1.4229 -0.6833 -1.3084
  574MOL0     H77431   7.421   5.039   4.848 -0.9640 -2.7522  0.9675
  574MOL0     H77432   7.422   4.929   4.708 -1.7746 -0.0068 -2.0625
  574MOL0     H77433   7.511   5.145   4.666  0.0170 -2.6100 -0.4226
  574MOL0     H77434   7.384   5.100   4.547 -2.6691  1.8004 -0.4157
  574MOL0     H77435   7.220   5.240   4.675  1.1661 -4.1110  1.4877
  574MOL0     H77436   7.347   5.287   4.788 -0.6612 -1.0326 -0.0245
  574MOL0     H77437   7.385   5.363   4.491 -3.2867 -1.5685  0.4987
  574MOL0     H77438   7.289   5.459   4.593 -2.1791 -3.2800 -1.4678
  574MOL0     H77439   7.582   5.370   4.603  1.7992  1.0373  0.1600
  574MOL0     H77440   7.523   5.415   4.754  0.9295  0.7224  0.9849
  574MOL0     H77441   7.743   5.589   4.582 -0.5099 -0.7659 -0.6156
  574MOL0     H77442   7.817   5.852   4.536 -1.3532 -2.3368 -1.7343
  574MOL0     H77443   7.693   5.967   4.578  2.5971  2.9803  0.4525
  574MOL0     H77444   7.864   5.805   4.778  2.1353 -0.5650 -3.2832
  574MOL0     H77445   7.725   5.914   4.819 -0.8218  0.4249 -1.8731
  574MOL0     H77446   7.972   5.993   4.661 -0.3803 -1.7765 -0.4663
  574MOL0     H77447   7.951   6.000   4.839 -0.7984 -1.4750 -0.0594
  574MOL0     H77448   7.767   6.166   4.804 -2.1271  2.2093 -2.2200
  574MOL0     H77449   7.803   6.162   4.633 -0.9737  5.3074  1.5344
  574MOL0     H77450   7.718   6.371   4.685  0.3488 -1.0790 -0.4328
  574MOL0     H77451   7.676   6.709   4.584  0.6248 -2.3422 -2.0761
  574MOL0     H77452   7.608   6.540   4.604 -3.6040  1.4083  0.8047
  574MOL0     H77453   7.582   6.660   4.728 -2.1850 -0.2349 -0.2205
  574MOL0     H77454   7.834   6.950   4.480  0.4191 -0.5858  1.4533
  574MOL0     H77455   7.797   7.187   4.425 -0.4689  0.8608  0.7616
  574MOL0     H77456   8.040   7.465   4.456 -0.8180  0.8017  0.9518
  574MOL0     H77457   7.917   7.373   4.369  0.7979  0.1727  0.6179
  574MOL0     H77458   7.903   7.651   4.484 -3.1984 -0.9775  0.6843
  574MOL0     H77459   7.903   7.596   4.307  0.6195 -3.0153 -0.3895
  574MOL0     H77460   7.686   7.674   4.414 -3.2578 -1.0205  2.6704
  574MOL0     H77461   7.691   7.516   4.507 -0.0930 -0.7270  0.0135
  574MOL0     H77462   7.614   7.570   4.227 -1.9121 -0.2317 -0.3947
  574MOL0     H77463   7.694   7.410   4.263 -0.3437 -1.2787  1.0776
  574MOL0     H77464   7.550   7.363   4.436 -2.0676  0.7265  0.7219
  574MOL0     H77465   7.462   7.364   4.282  1.9033 -1.7652 -0.0935
  574MOL0     H77466   7.439   7.596   4.488 -1.7866  1.0738 -0.0892
  574MOL0     H77467   7.371   7.596   4.336  0.2685  0.6984 -0.7047
  574MOL0     H77468   7.321   7.412   4.583  0.2935 -2.4934 -0.7805
  574MOL0     H77469   7.268   7.360   4.429 -1.4181 -0.4791  1.8434
  574MOL0     H77470   7.080   7.476   4.540 -0.2603  2.5532  1.0398
  574MOL0     H77471   7.121   7.543   4.382  1.5732 -0.6739 -1.0653
  574MOL0     H77472   8.058   7.288   4.752 -1.7605  1.2741 -0.0394
  574MOL0     H77473   8.110   7.050   4.782 -2.4921 -1.8239  1.3838
  574MOL0     H77474   8.103   6.666   4.803  2.1080 -2.5049 -0.6328
  574MOL0     H77475   8.132   6.415   4.806  1.1378  0.2673 -1.2580
  574MOL0     H77476   7.033   4.460   5.022 -1.0325 -1.2301 -1.8416
  574MOL0     H77477   6.829   4.378   5.159 -1.0050  0.8182  1.4884
  574MOL0     H77478   6.241   4.344   4.991  1.4648  0.1725  0.8096
  574MOL0     H77479   6.065   4.231   5.132 -0.7638  0.6929  2.0358
  574MOL0     H77480   5.892   4.193   5.309  2.1004  1.6955 -0.1482
  574MOL0     H77481   5.999   4.068   5.264  1.6289  0.4174  0.4671
  574MOL0     H77482   5.962   3.950   5.477 -3.6955 -2.7322 -1.7199
  574MOL0     H77483   5.823   3.982   5.401  2.4171 -0.0404 -0.8946
  574MOL0     H77484   5.934   4.126   5.641 -1.9426  3.5713 -0.1808
  574MOL0     H77485   5.807   4.001   5.635 -1.4286 -0.6044 -2.6703
  574MOL0     H77486   5.692   4.153   5.483 -0.7195 -0.5158  1.3223
  574MOL0     H77487   5.782   4.293   5.542 -2.4705  2.1551  3.2997
  574MOL0     H77488   5.573   4.224   5.888 -2.8541 -1.3191 -1.5752
  574MOL0     H77489   6.281   4.318   5.482 -1.2268 -0.5157 -0.0930
  574MOL0     H77490   6.455   4.443   5.352  0.1060 -2.0350  2.1745
  575MOL0     O77491   6.273   0.577   5.139 -0.4363 -0.0293  0.1979
  575MOL0     C77492   6.231   0.654   5.055 -0.0963 -0.8377 -0.3024
  575MOL0     O77493   6.113   0.665   5.001  0.4735  0.2694 -0.0439
  575MOL0     C77494   6.013   0.577   5.044  0.0827  0.0368 -0.1124
  575MOL0     C77495   5.897   0.620   5.112 -0.5018  0.3991  0.1422
  575MOL0     C77496   5.793   0.522   5.141 -0.4298 -0.2081 -0.2657
  575MOL0     C77497   5.814   0.390   5.092  0.0305  0.0318 -0.2932
  575MOL0     O77498   5.710   0.309   5.104  0.3685 -0.5193  0.2630
  575MOL0     C77499   5.752   0.195   5.183 -0.4122 -0.4266  1.0800
  575MOL0     C77500   5.621   0.136   5.238 -0.1591 -0.5655  0.3991
  575MOL0     C77501   5.585   0.003   5.174  0.1584 -0.5362 -0.2018
  575MOL0     C77502   5.462  -0.056   5.247 -1.3584 -0.0469 -0.2294
  575MOL0     C77503   5.422  -0.191   5.177  0.5635 -0.4906 -0.4839
  575MOL0     C77504   5.294  -0.235   5.242  0.4741 -0.7083  0.0609
  575MOL0     C77505   5.257  -0.364   5.179  0.6304  0.4553 -0.4028
  575MOL0     C77506   5.123  -0.413   5.231  0.0541 -0.0515  0.3331
  575MOL0     N77507   5.129  -0.526   5.319 -0.0881  0.2602  0.1777
  575MOL0     C77508   5.154  -0.655   5.285 -0.5509 -0.4704  0.0942
  575MOL0     C77509   5.163  -0.725   5.404  0.7795 -0.1479 -0.2130
  575MOL0     C77510   5.202  -0.875   5.421  0.7236 -1.2563 -0.7803
  575MOL0     C77511   5.072  -0.953   5.393 -0.3667  0.0633  0.1225
  575MOL0     C77512   4.950  -0.913   5.481 -0.4282 -0.4477  0.7118
  575MOL0     C77513   4.969  -0.959   5.624 -0.6411  0.0020 -0.2168
  575MOL0     O77514   4.994  -1.100   5.638  0.1540  0.5386  0.4142
  575MOL0     C77515   4.891  -1.186   5.668  0.2888 -0.0843 -0.0043
  575MOL0     C77516   4.923  -1.321   5.681  0.1161 -1.1568  0.3979
  575MOL0     C77517   4.830  -1.424   5.699 -0.3439  0.0621  0.8956
  575MOL0     C77518   4.872  -1.566   5.700 -0.1466 -0.3102  0.2428
  575MOL0     C77519   4.694  -1.392   5.702 -0.2214 -0.3647  0.3416
  575MOL0     C77520   4.588  -1.484   5.710 -0.2506  0.3250  0.2713
  575MOL0     O77521   4.484  -1.448   5.625 -0.5649 -0.2078  0.1121
  575MOL0     C77522   4.387  -1.541   5.588 -0.5595 -0.8984 -1.3461
  575MOL0     C77523   4.425  -1.670   5.559  0.4862  0.1634  0.6546
  575MOL0     C77524   4.326  -1.762   5.517  1.0812 -0.0581  0.0874
  575MOL0     C77525   4.197  -1.724   5.520  0.0668  0.3094  0.6589
  575MOL0     O77526   4.101  -1.815   5.505  0.5129 -0.7718  1.2811
  575MOL0     C77527   4.039  -1.847   5.628  0.6542 -0.2224  0.0977
  575MOL0     C77528   3.935  -1.957   5.620  0.1695 -0.1337 -0.8308
  575MOL0     C77529   3.891  -2.005   5.757 -0.0643  0.2490  0.1079
  575MOL0     C77530   3.819  -2.144   5.730  0.3275 -0.0743 -0.9420
  575MOL0     C77531   3.759  -2.220   5.842  0.4598  0.6235  0.7254
  575MOL0     C77532   3.747  -2.365   5.805  0.0681 -0.5085  0.0710
  575MOL0     C77533   3.665  -2.391   5.687  0.0691 -0.5316 -0.8701
  575MOL0     C77534   3.673  -2.532   5.624 -0.3446  0.8493 -0.0935
  575MOL0    Cl77535   3.841  -2.589   5.602 -0.3648 -0.0386  0.1791
  575MOL0     C77536   4.157  -1.590   5.537 -1.1175  0.9400  0.3161
  575MOL0     C77537   4.251  -1.491   5.565 -0.8388  0.4853  0.3074
  575MOL0     O77538   4.592  -1.574   5.790  0.1146 -0.8057  0.2225
  575MOL0     C77539   4.657  -1.254   5.699 -0.4010  0.4109  0.4121
  575MOL0     C77540   4.755  -1.155   5.670  0.4848 -0.0457 -0.0906
  575MOL0     N77541   5.141  -0.637   5.508 -0.5572 -0.3292 -0.1776
  575MOL0     N77542   5.115  -0.523   5.454 -0.7163  0.0005 -0.1161
  575MOL0     C77543   5.932   0.357   5.044  0.0164  0.6900 -0.4496
  575MOL0     C77544   6.037   0.450   5.018  0.0843 -0.1042  0.1133
  575MOL0     C77545   6.333   0.751   4.999  0.5599  0.0233  0.3215
  575MOL0     C77546   6.468   0.754   5.045 -0.0799 -0.1079  0.3260
  575MOL0     C77547   6.554   0.852   5.008 -0.4581  0.2216 -0.1387
  575MOL0     C77548   6.517   0.950   4.907  0.3058 -0.4957 -0.4287
  575MOL0     O77549   6.603   1.049   4.856  0.6953 -0.5666  0.3770
  575MOL0     C77550   6.690   1.120   4.948 -0.8251 -0.3478 -0.8562
  575MOL0     C77551   6.774   1.229   4.874  0.1070  1.1327  0.9300
  575MOL0     C77552   6.859   1.163   4.763 -0.7023 -0.2797  0.2781
  575MOL0     C77553   6.950   1.259   4.697  0.1306 -0.1324  0.1063
  575MOL0     C77554   7.034   1.197   4.591  0.0234 -0.6640  0.4312
  575MOL0     C77555   7.080   1.132   4.503  0.6795 -0.0903 -0.8542
  575MOL0     C77556   6.383   0.949   4.870  0.3870  0.1415 -0.1566
  575MOL0     C77557   6.287   0.857   4.923  0.0402  0.3493  0.3040
  575MOL0     H77558   5.881   0.725   5.134 -1.3477  0.8788 -2.3803
  575MOL0     H77559   5.710   0.552   5.205  1.0859  0.1242  1.6081
  575MOL0     H77560   5.799   0.115   5.125 -1.0782  0.8150 -1.2952
  575MOL0     H77561   5.820   0.232   5.260  0.2744  3.7050 -1.2112
  575MOL0     H77562   5.640   0.107   5.342 -0.0968 -2.7582 -0.1825
  575MOL0     H77563   5.546   0.215   5.227  2.5819  1.9690 -2.2426
  575MOL0     H77564   5.558   0.006   5.068  2.3261 -1.6860 -0.8526
  575MOL0     H77565   5.659  -0.077   5.177  0.9134  0.1060 -1.0429
  575MOL0     H77566   5.500  -0.068   5.349  0.9931  2.3851 -0.7126
  575MOL0     H77567   5.373   0.007   5.257  0.5185  2.4405  2.4800
  575MOL0     H77568   5.412  -0.167   5.070 -0.9937  0.9168 -0.0750
  575MOL0     H77569   5.490  -0.273   5.200  0.3533 -0.5565 -0.1022
  575MOL0     H77570   5.304  -0.236   5.351  2.5804 -0.8459 -0.0929
  575MOL0     H77571   5.221  -0.157   5.216  1.7058 -0.4809 -3.3099
  575MOL0     H77572   5.264  -0.356   5.070 -0.2790 -1.3491 -0.6393
  575MOL0     H77573   5.340  -0.428   5.209 -1.5172 -1.0397  3.0109
  575MOL0     H77574   5.066  -0.451   5.146  2.8725 -2.2774 -0.7081
  575MOL0     H77575   5.072  -0.330   5.282 -0.2816  1.6909 -2.6289
  575MOL0     H77576   5.175  -0.704   5.190 -2.2061 -3.3528  1.0815
  575MOL0     H77577   5.277  -0.905   5.348 -1.1933 -1.1051 -2.9126
  575MOL0     H77578   5.231  -0.887   5.526 -0.8250 -2.9928 -0.4990
  575MOL0     H77579   5.097  -1.058   5.408 -0.6023  0.1468  1.1127
  575MOL0     H77580   5.042  -0.934   5.289  0.5742  0.5401 -0.0808
  575MOL0     H77581   4.864  -0.972   5.447  1.1558 -2.4692 -0.0587
  575MOL0     H77582   4.944  -0.804   5.474 -0.6686 -0.5006  0.0208
  575MOL0     H77583   4.884  -0.922   5.682  1.1411 -1.3365  3.6248
  575MOL0     H77584   5.063  -0.917   5.662  0.1042 -1.0827 -0.7987
  575MOL0     H77585   5.027  -1.347   5.663 -0.0791 -1.1514 -0.8178
  575MOL0     H77586   4.845  -1.625   5.612  0.3844  3.8164 -2.9861
  575MOL0     H77587   4.981  -1.576   5.694 -0.1452  0.2909 -0.8626
  575MOL0     H77588   4.842  -1.611   5.796  0.4680 -0.4969  0.3580
  575MOL0     H77589   4.529  -1.698   5.561  0.0823 -1.6948 -1.2076
  575MOL0     H77590   4.351  -1.866   5.496 -0.9269 -0.7390  0.7626
  575MOL0     H77591   4.118  -1.878   5.697 -0.9756  0.3369  2.3442
  575MOL0     H77592   3.983  -1.762   5.667  1.3531  0.7788 -1.0176
  575MOL0     H77593   3.836  -1.934   5.581 -0.5002  1.0472  1.3801
  575MOL0     H77594   3.981  -2.037   5.560  0.8984 -0.8218  0.5948
  575MOL0     H77595   3.818  -1.936   5.800 -1.3177 -1.3362  0.6378
  575MOL0     H77596   3.975  -2.008   5.827  0.5524  1.9441 -0.5181
  575MOL0     H77597   3.741  -2.127   5.655  0.5485  0.2924 -1.0921
  575MOL0     H77598   3.899  -2.205   5.688  2.7979  2.0351  0.3753
  575MOL0     H77599   3.665  -2.175   5.877  1.0007  0.5797  2.3349
  575MOL0     H77600   3.823  -2.221   5.930  0.2718 -0.9534  0.8740
  575MOL0     H77601   3.845  -2.413   5.803  0.2364 -0.4933  2.9435
  575MOL0     H77602   3.697  -2.417   5.888  1.0420 -3.1489 -0.9046
  575MOL0     H77603   3.689  -2.323   5.605 -3.3798 -0.9055 -2.3482
  575MOL0     H77604   3.560  -2.373   5.711 -0.0362 -2.2240  0.1344
  575MOL0     H77605   3.638  -2.537   5.520  1.8656 -1.0831 -0.8230
  575MOL0     H77606   3.612  -2.592   5.692 -3.1185  4.0977  0.5826
  575MOL0     H77607   4.050  -1.574   5.530 -1.4467 -0.6504  1.2813
  575MOL0     H77608   4.207  -1.392   5.571  0.2621  1.0170 -0.0886
  575MOL0     H77609   4.553  -1.225   5.701 -1.0323 -1.5158 -1.0219
  575MOL0     H77610   4.734  -1.049   5.664  1.7485  0.3474  1.7280
  575MOL0     H77611   5.945   0.254   5.012  3.8747  1.4606 -2.0177
  575MOL0     H77612   6.132   0.409   4.984 -0.6163 -2.1301  0.5033
  575MOL0     H77613   6.493   0.672   5.111 -3.1013  0.5745  2.5481
  575MOL0     H77614   6.660   0.847   5.029 -0.9273 -0.4108  2.5923
  575MOL0     H77615   6.628   1.169   5.024 -0.3791  0.8010 -1.2067
  575MOL0     H77616   6.760   1.050   4.993 -0.1499  0.3281 -0.8271
  575MOL0     H77617   6.851   1.281   4.933  2.7754 -0.7906 -0.6327
  575MOL0     H77618   6.717   1.314   4.835 -0.4032  1.4575  2.2929
  575MOL0     H77619   6.801   1.102   4.693  1.5437 -1.3032 -0.7845
  575MOL0     H77620   6.927   1.095   4.815  2.9340  3.0486  0.2843
  575MOL0     H77621   7.018   1.312   4.764  0.3062  0.8879 -0.8329
  575MOL0     H77622   6.883   1.334   4.652 -0.6806  0.0380  1.5386
  575MOL0     H77623   7.118   1.068   4.426  0.4763  0.1566 -1.1623
  575MOL0     H77624   6.353   1.040   4.820 -1.8726 -0.7535 -0.5428
  575MOL0     H77625   6.183   0.876   4.898  0.1118 -0.6873 -0.9523
  576MOL0     O77626   2.605   3.070   6.219  0.2206 -0.6169 -0.3821
  576MOL0     C77627   2.703   3.105   6.165 -1.0670  0.2944 -0.0201
  576MOL0     O77628   2.810   3.032   6.131 -0.7568 -0.0927  0.1898
  576MOL0     C77629   2.812   2.903   6.169  0.1238  0.6929 -0.1954
  576MOL0     C77630   2.750   2.798   6.099  0.2073  0.1509 -0.5483
  576MOL0     C77631   2.760   2.666   6.151  0.4059  0.2222 -0.1724
  576MOL0     C77632   2.806   2.645   6.283  0.4817  0.2840  0.2182
  576MOL0     O77633   2.815   2.508   6.320  0.1896 -0.2160  0.8174
  576MOL0     C77634   2.940   2.456   6.367 -0.2819 -0.0379  0.8566
  576MOL0     C77635   3.037   2.414   6.241 -0.0154 -0.4617 -0.3293
  576MOL0     C77636   3.152   2.341   6.304 -0.4179 -0.5210  0.3291
  576MOL0     C77637   3.273   2.367   6.211 -0.0997 -0.5024 -0.0263
  576MOL0     C77638   3.243   2.321   6.067 -1.1658 -0.1354  0.0580
  576MOL0     C77639   3.223   2.165   6.064 -0.0583 -0.4556 -0.3073
  576MOL0     C77640   3.179   2.134   5.915 -0.8428  0.4106 -0.3428
  576MOL0     C77641   3.172   1.987   5.886  0.1909 -0.4465 -0.2661
  576MOL0     N77642   3.085   1.913   5.978 -0.3829 -0.8296  0.8756
  576MOL0     C77643   2.950   1.906   5.949  0.1790 -0.0884 -0.8356
  576MOL0     C77644   2.912   1.853   6.065  0.1025 -0.5986 -0.6652
  576MOL0     C77645   2.772   1.814   6.110  0.4135  0.1325 -0.7990
  576MOL0     C77646   2.744   1.663   6.132 -1.3701  0.0348 -0.0529
  576MOL0     C77647   2.744   1.584   6.006  0.3394  0.5636 -0.0030
  576MOL0     C77648   2.647   1.629   5.892 -1.1485 -0.1078 -0.6133
  576MOL0     O77649   2.586   1.502   5.853 -0.1128 -0.3277  0.2477
  576MOL0     C77650   2.456   1.505   5.815 -0.3463 -0.2782  0.3411
  576MOL0     C77651   2.412   1.569   5.697  0.1998  0.1335 -0.4037
  576MOL0     C77652   2.277   1.568   5.654 -0.1917 -0.7326  0.3949
  576MOL0     C77653   2.243   1.640   5.525  0.5812  0.0911  0.1589
  576MOL0     C77654   2.190   1.488   5.728 -0.5472  0.7243 -0.4189
  576MOL0     C77655   2.051   1.463   5.693 -0.0485 -0.4709 -0.3619
  576MOL0     O77656   1.978   1.380   5.777 -0.2462 -0.6548  0.1423
  576MOL0     C77657   1.846   1.367   5.757  0.3885 -0.1937 -0.7391
  576MOL0     C77658   1.790   1.342   5.632  0.6276  0.7756 -0.8435
  576MOL0     C77659   1.648   1.337   5.619  0.0195 -1.1129 -0.2749
  576MOL0     C77660   1.567   1.331   5.739 -0.2457 -0.8315  0.4471
  576MOL0     O77661   1.438   1.292   5.723  0.7272  0.2023 -0.0287
  576MOL0     C77662   1.414   1.151   5.726  1.1092  0.1110  0.2784
  576MOL0     C77663   1.290   1.116   5.811 -0.2979 -0.3873 -0.4049
  576MOL0     C77664   1.321   1.138   5.955  0.0619 -0.2134 -0.4126
  576MOL0     C77665   1.420   1.032   6.014 -0.9350 -0.5317 -0.6232
  576MOL0     C77666   1.396   0.984   6.161  0.8863 -0.0440  0.1340
  576MOL0     C77667   1.417   1.090   6.280  0.5959  0.1944 -0.1521
  576MOL0     C77668   1.562   1.128   6.297  0.6208 -1.2059  0.1685
  576MOL0     C77669   1.595   1.199   6.429  0.6966 -0.0751 -0.5864
  576MOL0    Cl77670   1.623   1.067   6.553  0.2259  0.0817  0.2899
  576MOL0     C77671   1.625   1.352   5.858 -0.2177 -0.5716 -0.5033
  576MOL0     C77672   1.767   1.362   5.869 -0.8249 -0.0220  0.2425
  576MOL0     O77673   2.004   1.521   5.598  0.9673  0.3933 -0.5404
  576MOL0     C77674   2.235   1.421   5.841  0.5085 -0.2379  0.7465
  576MOL0     C77675   2.367   1.429   5.880  0.0650 -0.1817 -0.0026
  576MOL0     N77676   3.019   1.818   6.145  0.4148  0.1534  0.2891
  576MOL0     N77677   3.125   1.841   6.089  0.2692 -0.8465  0.4216
  576MOL0     C77678   2.872   2.752   6.347  0.4796 -0.2846  0.6942
  576MOL0     C77679   2.884   2.872   6.281  0.1493 -0.4669  0.6966
  576MOL0     C77680   2.704   3.251   6.135 -0.3183 -0.3278 -0.2571
  576MOL0     C77681   2.823   3.297   6.076  0.1326 -0.2076  0.0524
  576MOL0     C77682   2.837   3.432   6.047  0.4135 -0.0625  0.1347
  576MOL0     C77683   2.729   3.513   6.029  0.5336  0.5577 -0.2596
  576MOL0     O77684   2.731   3.634   5.960 -0.6248 -0.2372 -0.0838
  576MOL0     C77685   2.692   3.630   5.821 -0.5496  0.2655 -0.2730
  576MOL0     C77686   2.681   3.770   5.762 -0.7182 -0.6217  0.2554
  576MOL0     C77687   2.560   3.846   5.821 -0.6902 -0.4182 -0.8597
  576MOL0     C77688   2.569   3.905   5.960  0.1902  0.0015 -1.1086
  576MOL0     C77689   2.456   3.994   5.996  0.0190  0.2372  0.1677
  576MOL0     C77690   2.353   4.056   6.034 -0.3495 -0.6006  0.7909
  576MOL0     C77691   2.610   3.479   6.087  0.0209  0.4307 -1.4653
  576MOL0     C77692   2.602   3.352   6.151 -0.0196  0.6813 -0.1241
  576MOL0     H77693   2.709   2.823   6.002 -0.2446  1.8913  0.0467
  576MOL0     H77694   2.723   2.588   6.086  0.8355  1.2293 -1.6723
  576MOL0     H77695   2.989   2.521   6.440  0.3639  1.2022 -0.6292
  576MOL0     H77696   2.922   2.361   6.419  0.1195 -1.2540 -1.1069
  576MOL0     H77697   2.980   2.348   6.175 -2.1879 -1.3326  2.1948
  576MOL0     H77698   3.066   2.511   6.200 -0.3649  0.9931  2.5989
  576MOL0     H77699   3.176   2.378   6.404  1.0000  2.0570 -0.8592
  576MOL0     H77700   3.133   2.236   6.325  1.1209 -0.4482  2.4340
  576MOL0     H77701   3.303   2.472   6.214 -0.9614 -0.2675  0.9628
  576MOL0     H77702   3.366   2.321   6.246 -0.3763 -0.1208  1.2297
  576MOL0     H77703   3.160   2.378   6.024 -1.5753 -0.7741 -0.0208
  576MOL0     H77704   3.322   2.332   5.992 -1.6461 -6.0809 -1.8450
  576MOL0     H77705   3.305   2.107   6.107 -1.0365  0.6010  3.3500
  576MOL0     H77706   3.136   2.148   6.128 -0.0572 -2.6660 -0.7890
  576MOL0     H77707   3.095   2.201   5.896 -0.4290  1.6523  1.9147
  576MOL0     H77708   3.252   2.168   5.841  1.8261 -1.1157  1.4436
  576MOL0     H77709   3.273   1.944   5.880 -0.9417 -3.2266 -0.5948
  576MOL0     H77710   3.125   1.967   5.790  0.3187  0.2021 -0.4737
  576MOL0     H77711   2.892   1.939   5.864 -1.7391  0.4286  0.6125
  576MOL0     H77712   2.759   1.866   6.205 -0.6227  0.5054 -1.1294
  576MOL0     H77713   2.692   1.865   6.055 -0.6980  0.9993  1.5016
  576MOL0     H77714   2.638   1.673   6.156 -1.6100  1.3104 -1.5332
  576MOL0     H77715   2.804   1.616   6.212 -2.2304  0.5666  0.9342
  576MOL0     H77716   2.716   1.480   6.024 -2.2067  1.2301  0.1903
  576MOL0     H77717   2.844   1.594   5.963  0.6091  0.7010  0.6342
  576MOL0     H77718   2.699   1.669   5.805  0.0094 -1.8162 -0.7463
  576MOL0     H77719   2.570   1.700   5.924 -1.6566 -2.0036  2.9806
  576MOL0     H77720   2.476   1.636   5.640  1.5215 -0.2817  0.5289
  576MOL0     H77721   2.328   1.704   5.499  2.3141 -0.9536  2.7919
  576MOL0     H77722   2.217   1.577   5.439 -0.0553 -0.1210  0.4981
  576MOL0     H77723   2.158   1.707   5.541  0.0362 -0.5917  0.1696
  576MOL0     H77724   1.848   1.332   5.541 -2.2971 -2.5522 -2.6191
  576MOL0     H77725   1.606   1.310   5.522 -1.6421  0.0721  0.0675
  576MOL0     H77726   1.400   1.121   5.622  3.1351 -0.2406  0.0639
  576MOL0     H77727   1.505   1.098   5.754  1.6150  0.2141 -1.1014
  576MOL0     H77728   1.208   1.185   5.790 -0.1362 -0.1874 -0.3814
  576MOL0     H77729   1.252   1.014   5.800  2.7352 -1.6958  0.2868
  576MOL0     H77730   1.224   1.127   6.004  0.0865 -1.6133 -0.6447
  576MOL0     H77731   1.364   1.236   5.979  0.4610 -0.9531  2.1275
  576MOL0     H77732   1.419   0.945   5.948  1.9606 -2.9048  2.1207
  576MOL0     H77733   1.521   1.075   6.014 -2.0102  2.4829  2.8772
  576MOL0     H77734   1.478   0.914   6.182 -0.6598 -0.9955  3.7314
  576MOL0     H77735   1.298   0.936   6.170  1.3379 -0.7908  1.4007
  576MOL0     H77736   1.354   1.176   6.255 -0.7334 -1.0233 -1.1574
  576MOL0     H77737   1.385   1.051   6.377  0.6483  3.0522  1.1016
  576MOL0     H77738   1.580   1.185   6.205 -4.2573 -0.9632 -0.9086
  576MOL0     H77739   1.621   1.036   6.288 -0.9723 -2.0824 -2.6084
  576MOL0     H77740   1.511   1.267   6.450 -1.2491 -1.6812 -2.7271
  576MOL0     H77741   1.688   1.256   6.427  2.9539 -3.5517 -1.4234
  576MOL0     H77742   1.565   1.348   5.948  0.0517 -3.6074 -0.3626
  576MOL0     H77743   1.827   1.380   5.958 -0.9628 -5.4588  1.7490
  576MOL0     H77744   2.173   1.351   5.897 -1.0925  0.1726 -0.4381
  576MOL0     H77745   2.411   1.366   5.957  3.7978  0.1078 -1.6605
  576MOL0     H77746   2.921   2.729   6.441  0.5110 -1.4432  0.4048
  576MOL0     H77747   2.938   2.956   6.324 -1.7783  2.1317 -1.5853
  576MOL0     H77748   2.912   3.236   6.070 -0.3730 -1.0939  1.1949
  576MOL0     H77749   2.935   3.462   6.011  0.3988 -0.9788 -0.7191
  576MOL0     H77750   2.776   3.586   5.768 -0.4420  1.5185 -1.1901
  576MOL0     H77751   2.604   3.568   5.802 -0.5680  0.5319 -1.0795
  576MOL0     H77752   2.681   3.754   5.654 -2.0972  0.2509  0.0977
  576MOL0     H77753   2.766   3.834   5.789 -1.3973  0.9327 -1.1012
  576MOL0     H77754   2.475   3.778   5.813  0.7573 -2.1580 -2.3236
  576MOL0     H77755   2.538   3.931   5.756 -0.0719  1.1278  0.8543
  576MOL0     H77756   2.664   3.960   5.967 -0.4901  1.2156 -1.1527
  576MOL0     H77757   2.565   3.825   6.035  1.0338 -0.5516 -1.6294
  576MOL0     H77758   2.268   4.122   6.039  2.3566  3.2497  0.1445
  576MOL0     H77759   2.530   3.552   6.079 -0.4595 -0.2895 -3.9782
  576MOL0     H77760   2.506   3.323   6.192  0.0640  1.0493  0.3306
  577MOL0     O77761  11.409   8.015   4.629  0.7606  0.2141  1.0632
  577MOL0     C77762  11.345   8.028   4.523  0.7300 -0.3243  0.8590
  577MOL0     O77763  11.235   8.109   4.507 -0.1694 -0.3957 -0.6985
  577MOL0     C77764  11.164   8.147   4.618 -0.1782  0.0396  0.3735
  577MOL0     C77765  11.224   8.222   4.716  0.1855 -0.1092  0.3612
  577MOL0     C77766  11.149   8.277   4.818 -0.3891  0.0038  0.3756
  577MOL0     C77767  11.009   8.253   4.836 -0.5046 -0.2369  0.9767
  577MOL0     O77768  10.946   8.317   4.943  0.2931  0.3983  0.0563
  577MOL0     C77769  10.798   8.294   4.955 -0.0472 -0.4537 -0.0176
  577MOL0     C77770  10.730   8.339   5.080  0.4867 -0.9668  0.0138
  577MOL0     C77771  10.785   8.287   5.216 -0.1776  0.2487  0.0198
  577MOL0     C77772  10.707   8.350   5.332  0.9580  0.1012 -0.6455
  577MOL0     C77773  10.757   8.309   5.479  0.3791  0.9897 -0.4426
  577MOL0     C77774  10.676   8.385   5.579  0.0969 -1.2114  1.0321
  577MOL0     C77775  10.735   8.406   5.718 -0.8576 -0.1685 -0.2103
  577MOL0     C77776  10.724   8.280   5.811 -0.1697  0.2521 -0.6156
  577MOL0     N77777  10.589   8.238   5.851  0.1506  0.9517 -0.6328
  577MOL0     C77778  10.527   8.129   5.791 -0.0314 -0.4836 -0.3803
  577MOL0     C77779  10.416   8.111   5.874 -1.0563 -0.5278 -0.3986
  577MOL0     C77780  10.309   7.997   5.881  0.4341 -0.3197  1.0447
  577MOL0     C77781  10.365   7.856   5.849  0.2803  0.1938 -0.7727
  577MOL0     C77782  10.273   7.751   5.914 -0.6153  0.0598 -0.7879
  577MOL0     C77783  10.325   7.599   5.900  0.1370  0.7402  0.8764
  577MOL0     O77784  10.327   7.555   5.752  0.3442 -0.4157 -0.6750
  577MOL0     C77785  10.227   7.475   5.697 -1.1472  0.3918  0.6705
  577MOL0     C77786  10.271   7.405   5.585 -0.2836 -0.4414 -0.3273
  577MOL0     C77787  10.181   7.319   5.515  0.0324  1.0790 -0.0676
  577MOL0     C77788  10.248   7.227   5.417  0.8606  0.4874 -0.7282
  577MOL0     C77789  10.051   7.295   5.562 -0.2380 -0.2006 -0.4815
  577MOL0     C77790   9.946   7.194   5.516 -0.6651  0.2669  1.3092
  577MOL0     O77791   9.827   7.196   5.582 -0.0678  0.5441  1.0243
  577MOL0     C77792   9.716   7.128   5.525 -0.7835 -0.0225 -0.2867
  577MOL0     C77793   9.601   7.204   5.506 -0.9878 -0.3480  0.0069
  577MOL0     C77794   9.482   7.132   5.470 -0.2471  0.0523  0.2402
  577MOL0     C77795   9.479   6.999   5.451 -0.2803 -0.2192 -0.5037
  577MOL0     O77796   9.362   6.952   5.400 -0.0380 -0.1662 -0.1923
  577MOL0     C77797   9.339   6.812   5.425 -0.5879  0.2069  0.2145
  577MOL0     C77798   9.193   6.790   5.402  0.7642 -0.0904  0.2169
  577MOL0     C77799   9.140   6.648   5.427 -0.1965 -0.7656  0.0368
  577MOL0     C77800   9.041   6.610   5.316 -0.2436 -0.2193  0.2368
  577MOL0     C77801   8.903   6.686   5.330 -0.1056  1.0813 -0.2123
  577MOL0     C77802   8.816   6.630   5.444  0.1813  0.1134 -0.3290
  577MOL0     C77803   8.668   6.678   5.429 -0.2859  0.3474 -0.0796
  577MOL0     C77804   8.567   6.652   5.540  0.1471  0.4339 -0.5535
  577MOL0    Cl77805   8.605   6.756   5.682  0.7289  0.2964 -0.0386
  577MOL0     C77806   9.599   6.924   5.475 -0.4735 -0.4090  0.6967
  577MOL0     C77807   9.717   6.986   5.508  0.1233 -0.5225 -0.8508
  577MOL0     O77808   9.972   7.119   5.424 -0.7059  0.2109  0.0300
  577MOL0     C77809  10.011   7.375   5.676  0.2666 -0.2852 -0.7570
  577MOL0     C77810  10.100   7.455   5.744  0.3618  1.2294 -0.5170
  577MOL0     N77811  10.420   8.206   5.976 -0.1337 -0.1178 -0.6369
  577MOL0     N77812  10.521   8.271   5.966  0.1351  0.9203  0.5489
  577MOL0     C77813  10.953   8.177   4.737  1.0449 -1.3396  0.1075
  577MOL0     C77814  11.022   8.121   4.623 -0.0851  0.2493 -0.8556
  577MOL0     C77815  11.400   7.961   4.406  0.1462 -0.5308 -0.6709
  577MOL0     C77816  11.528   7.893   4.412 -0.6311 -0.3494 -0.2972
  577MOL0     C77817  11.587   7.849   4.288 -0.0811  0.1689  0.2075
  577MOL0     C77818  11.524   7.866   4.162  0.1494 -0.2571  0.0138
  577MOL0     O77819  11.578   7.835   4.043  1.1382  0.0862  0.7764
  577MOL0     C77820  11.714   7.817   4.026 -0.1433  0.3601 -0.2166
  577MOL0     C77821  11.753   7.673   4.037 -0.1882 -0.5391  0.5797
  577MOL0     C77822  11.903   7.648   3.985  0.3341 -0.1411 -0.0726
  577MOL0     C77823  11.937   7.502   3.999 -0.7776  1.1830  0.0115
  577MOL0     C77824  11.846   7.419   3.909 -0.4607 -0.0146 -0.6769
  577MOL0     C77825  11.780   7.365   3.822  0.1591  0.0222 -0.5197
  577MOL0     C77826  11.405   7.925   4.155  0.2762  0.4707  0.4015
  577MOL0     C77827  11.342   7.972   4.282  0.0246 -0.1432  0.2820
  577MOL0     H77828  11.330   8.240   4.725 -0.3359  2.9101  1.6024
  577MOL0     H77829  11.194   8.329   4.902  0.2788 -0.0586  0.0595
  577MOL0     H77830  10.745   8.336   4.870 -0.0768 -0.3901  0.0322
  577MOL0     H77831  10.787   8.185   4.953  0.1953 -0.5215  1.2597
  577MOL0     H77832  10.744   8.448   5.084  0.4825 -0.9968  2.0060
  577MOL0     H77833  10.624   8.314   5.083 -0.1676  1.3103 -1.4490
  577MOL0     H77834  10.784   8.178   5.220  1.8140  0.1212 -1.7158
  577MOL0     H77835  10.891   8.309   5.228  0.2404 -1.7918  0.4847
  577MOL0     H77836  10.705   8.459   5.317  0.9452  0.2695  0.4440
  577MOL0     H77837  10.606   8.312   5.320  0.2854  1.6305 -0.1263
  577MOL0     H77838  10.746   8.202   5.496 -1.3777  1.2242 -0.0080
  577MOL0     H77839  10.862   8.340   5.483  0.0555  2.1425 -0.5230
  577MOL0     H77840  10.658   8.484   5.537  0.5104 -1.1374  1.0269
  577MOL0     H77841  10.578   8.338   5.590 -1.0227  0.0561 -2.1401
  577MOL0     H77842  10.834   8.448   5.736 -1.2192 -0.5532  3.3973
  577MOL0     H77843  10.663   8.479   5.757 -0.5497 -1.2367  2.6139
  577MOL0     H77844  10.793   8.304   5.893 -2.7058 -0.4809  1.8950
  577MOL0     H77845  10.776   8.198   5.762 -0.3431 -0.5677  0.5374
  577MOL0     H77846  10.568   8.080   5.704  1.5245 -1.3796  0.8270
  577MOL0     H77847  10.273   7.989   5.984 -0.2365  0.1270  0.8502
  577MOL0     H77848  10.220   8.010   5.819 -0.3733 -3.1484  1.4751
  577MOL0     H77849  10.460   7.837   5.899 -2.4624 -3.9789  3.7950
  577MOL0     H77850  10.371   7.847   5.740  1.7739 -1.4980 -0.6042
  577MOL0     H77851  10.174   7.761   5.868 -2.1128  0.3614  2.2371
  577MOL0     H77852  10.273   7.772   6.022  3.5806 -0.8887 -0.4598
  577MOL0     H77853  10.265   7.539   5.968  0.3334  3.3953  3.6284
  577MOL0     H77854  10.426   7.587   5.940  1.0655 -1.7799 -1.8951
  577MOL0     H77855  10.372   7.416   5.548 -0.5392  1.9947 -0.4673
  577MOL0     H77856  10.353   7.248   5.395  1.5049 -1.1116  0.5832
  577MOL0     H77857  10.256   7.123   5.450 -0.1104  0.3678 -0.8422
  577MOL0     H77858  10.196   7.241   5.322 -3.4237 -0.0453  1.3060
  577MOL0     H77859   9.597   7.312   5.523 -2.8447 -0.6968  2.3940
  577MOL0     H77860   9.393   7.190   5.449 -0.4564 -0.7094 -1.0628
  577MOL0     H77861   9.403   6.754   5.358 -0.7089  0.6401 -0.2798
  577MOL0     H77862   9.363   6.774   5.525 -1.4170 -2.8672 -0.6633
  577MOL0     H77863   9.141   6.871   5.454  0.9394  1.5901 -2.0632
  577MOL0     H77864   9.155   6.820   5.304 -3.4035 -0.9978  1.3585
  577MOL0     H77865   9.090   6.621   5.520 -1.5733  0.1703 -0.3970
  577MOL0     H77866   9.229   6.584   5.416  0.7784  0.9805 -4.1639
  577MOL0     H77867   9.079   6.631   5.216 -1.0231  0.6492  0.1133
  577MOL0     H77868   9.020   6.503   5.304 -2.6600  0.4708 -3.0067
  577MOL0     H77869   8.855   6.676   5.232  0.1381  3.6038 -0.6492
  577MOL0     H77870   8.911   6.793   5.350  3.0810  0.6295  1.6085
  577MOL0     H77871   8.821   6.521   5.444 -0.5211  0.0745 -0.0166
  577MOL0     H77872   8.855   6.669   5.538 -0.8712  0.0360  0.1647
  577MOL0     H77873   8.631   6.640   5.334  2.3571 -1.1377 -0.6112
  577MOL0     H77874   8.684   6.786   5.419  1.8428 -0.0641 -1.5391
  577MOL0     H77875   8.561   6.546   5.563  3.0333  0.0492 -1.2327
  577MOL0     H77876   8.469   6.682   5.501 -0.0184  3.2135  1.6502
  577MOL0     H77877   9.608   6.817   5.464  2.5929 -0.2266  0.7525
  577MOL0     H77878   9.808   6.934   5.537  1.2993  2.9072  2.3028
  577MOL0     H77879   9.910   7.376   5.715  0.4200 -1.6969 -0.2648
  577MOL0     H77880  10.068   7.514   5.829 -0.3779  0.5537 -0.3145
  577MOL0     H77881  10.846   8.157   4.739  0.3858  1.3728 -1.9792
  577MOL0     H77882  10.971   8.064   4.546  0.3051 -0.0110 -0.9197
  577MOL0     H77883  11.586   7.880   4.503 -2.1922  1.2718  1.0121
  577MOL0     H77884  11.690   7.815   4.288 -0.0942  0.1074 -0.5203
  577MOL0     H77885  11.746   7.865   3.932  0.8253  1.1974  0.5227
  577MOL0     H77886  11.768   7.868   4.106 -1.0685  0.5655  0.2946
  577MOL0     H77887  11.679   7.612   3.983  1.1694 -1.6288 -0.1222
  577MOL0     H77888  11.747   7.629   4.136 -0.9346 -0.9311  0.3694
  577MOL0     H77889  11.978   7.701   4.044 -0.1567  1.1142 -0.5513
  577MOL0     H77890  11.902   7.675   3.879  1.4997 -0.9621 -0.3200
  577MOL0     H77891  11.942   7.454   4.097  1.8014 -0.5272 -0.8466
  577MOL0     H77892  12.028   7.475   3.943 -1.9300 -1.2777 -0.8180
  577MOL0     H77893  11.711   7.327   3.750 -0.8234 -0.3026  0.5679
  577MOL0     H77894  11.354   7.932   4.060  1.9985  5.2477 -0.4367
  577MOL0     H77895  11.241   8.010   4.275  0.4119  0.9995  0.7227
  578MOL0     O77896   3.078  11.092   6.834 -0.7488 -0.2426  0.3655
  578MOL0     C77897   3.103  11.138   6.725 -0.0265 -0.1348  0.6354
  578MOL0     O77898   3.045  11.092   6.607 -0.2880 -0.2699  0.1096
  578MOL0     C77899   2.964  10.985   6.613  0.0899 -0.1954 -1.0982
  578MOL0     C77900   2.850  11.005   6.529 -0.2106 -0.4176 -0.3437
  578MOL0     C77901   2.763  10.902   6.509  0.1900  0.4353  1.3096
  578MOL0     C77902   2.783  10.772   6.568 -0.1300 -0.8538 -0.4066
  578MOL0     O77903   2.709  10.659   6.545  0.2989  0.4147 -0.1022
  578MOL0     C77904   2.576  10.675   6.496 -0.2210 -0.3487 -0.2225
  578MOL0     C77905   2.490  10.559   6.551  0.4714  0.8466  0.1966
  578MOL0     C77906   2.353  10.572   6.489 -1.3052 -0.3564 -0.6519
  578MOL0     C77907   2.266  10.463   6.550 -0.4844 -0.5281 -0.8871
  578MOL0     C77908   2.123  10.488   6.512 -0.2494 -0.6588 -0.5526
  578MOL0     C77909   2.017  10.402   6.587 -0.0672 -0.5317 -0.4539
  578MOL0     C77910   1.883  10.462   6.543  0.1477  0.0833 -1.0568
  578MOL0     C77911   1.762  10.352   6.540 -0.8185 -0.0946  0.3039
  578MOL0     N77912   1.717  10.296   6.667  0.2457  0.5779  0.5532
  578MOL0     C77913   1.691  10.364   6.786 -0.4488  0.3670 -0.5318
  578MOL0     C77914   1.625  10.279   6.878 -0.9856 -0.6622  0.3208
  578MOL0     C77915   1.567  10.307   7.013  0.4496  0.6013 -0.1888
  578MOL0     C77916   1.643  10.225   7.116 -0.3367  0.0828 -1.3624
  578MOL0     C77917   1.587  10.231   7.261 -0.7561  0.5809  0.7617
  578MOL0     C77918   1.699  10.217   7.365  0.8226  0.9458  0.8185
  578MOL0     O77919   1.645  10.168   7.482  0.0979  0.5935 -0.0729
  578MOL0     C77920   1.723  10.116   7.575  0.3442 -0.3421  0.1423
  578MOL0     C77921   1.658  10.020   7.657  0.1144 -0.2585 -1.0926
  578MOL0     C77922   1.721   9.953   7.765  0.2038 -0.2439 -0.1724
  578MOL0     C77923   1.652   9.858   7.846  0.7884  0.2853 -0.0797
  578MOL0     C77924   1.857   9.980   7.780  0.9177  0.3201 -0.3565
  578MOL0     C77925   1.936   9.911   7.884  0.7682  0.9876  0.4144
  578MOL0     O77926   2.034   9.993   7.927 -0.2402 -0.8981 -0.3370
  578MOL0     C77927   2.134   9.938   8.011 -0.0700 -0.3559  0.2913
  578MOL0     C77928   2.106   9.908   8.145 -0.0447 -0.0951  0.0524
  578MOL0     C77929   2.205   9.834   8.218 -0.3769 -1.0275 -0.2768
  578MOL0     C77930   2.334   9.813   8.171  0.2478 -0.5929 -1.2287
  578MOL0     O77931   2.429   9.775   8.262 -0.0275  0.0208 -0.4058
  578MOL0     C77932   2.414   9.634   8.296 -0.7229 -0.6197 -0.8109
  578MOL0     C77933   2.409   9.636   8.454  0.0835  0.3707  0.7257
  578MOL0     C77934   2.525   9.702   8.530  0.8106 -0.3357 -0.0091
  578MOL0     C77935   2.659   9.638   8.493 -0.9106  0.2054 -0.0779
  578MOL0     C77936   2.778   9.719   8.550  1.1495  0.1287  0.6346
  578MOL0     C77937   2.901   9.640   8.551  0.0270 -0.7013 -1.0933
  578MOL0     C77938   2.956   9.604   8.410  0.3508 -0.0779 -0.3304
  578MOL0     C77939   3.082   9.521   8.420  0.7981 -0.3958 -0.2274
  578MOL0    Cl77940   3.037   9.371   8.503  0.3143 -0.1145  0.2025
  578MOL0     C77941   2.361   9.860   8.042  0.0595  1.1663 -0.6618
  578MOL0     C77942   2.261   9.923   7.969 -0.5583  0.1574  0.3734
  578MOL0     O77943   1.928   9.790   7.907 -0.1795  0.3745  0.5145
  578MOL0     C77944   1.917  10.084   7.712  0.1493 -1.3203 -0.0791
  578MOL0     C77945   1.855  10.150   7.609  1.9647 -0.0648 -0.6097
  578MOL0     N77946   1.604  10.162   6.812  0.7151 -0.7158 -0.1258
  578MOL0     N77947   1.658  10.175   6.691 -0.5985 -0.5758 -0.5295
  578MOL0     C77948   2.897  10.758   6.649 -0.2412 -0.0973 -0.3254
  578MOL0     C77949   2.987  10.858   6.678  0.3215  0.3015 -0.0510
  578MOL0     C77950   3.194  11.250   6.713  0.1184  0.1759 -0.3895
  578MOL0     C77951   3.272  11.287   6.820 -0.6130  0.7018 -0.4807
  578MOL0     C77952   3.365  11.389   6.813  0.1657  0.5827 -1.0292
  578MOL0     C77953   3.380  11.464   6.704  0.0393 -0.3402  1.5940
  578MOL0     O77954   3.473  11.560   6.708 -0.5550 -0.2103  0.0786
  578MOL0     C77955   3.532  11.606   6.581 -0.3480  0.2215 -1.0834
  578MOL0     C77956   3.650  11.697   6.626  0.0277  0.1474 -0.0509
  578MOL0     C77957   3.749  11.628   6.722 -0.2088  0.4613 -0.0825
  578MOL0     C77958   3.819  11.500   6.667 -0.1851  0.3098 -0.5058
  578MOL0     C77959   3.914  11.452   6.771  0.2004 -0.0343 -0.2928
  578MOL0     C77960   3.994  11.430   6.860 -0.1195 -0.8412 -0.2614
  578MOL0     C77961   3.305  11.433   6.585  0.5658  0.0465  0.2859
  578MOL0     C77962   3.217  11.323   6.593 -2.1526 -0.3274  0.6302
  578MOL0     H77963   2.841  11.098   6.473  0.8172 -1.1170 -1.7179
  578MOL0     H77964   2.684  10.919   6.436  0.2856  0.1006  1.1287
  578MOL0     H77965   2.530  10.767   6.533 -3.7656 -1.7983 -0.6317
  578MOL0     H77966   2.574  10.667   6.387  1.2056  1.6504 -0.4543
  578MOL0     H77967   2.537  10.466   6.519 -0.9415  0.6886 -1.5381
  578MOL0     H77968   2.497  10.575   6.659 -1.3482  1.6070  0.2488
  578MOL0     H77969   2.299  10.667   6.498  0.7738  0.9724 -1.4929
  578MOL0     H77970   2.375  10.546   6.386  2.3742  1.5503 -0.5321
  578MOL0     H77971   2.302  10.366   6.515 -3.1661 -1.5038 -1.1897
  578MOL0     H77972   2.265  10.480   6.658 -1.0781  0.1968 -0.9964
  578MOL0     H77973   2.089  10.592   6.521  2.6927  0.3911 -0.3356
  578MOL0     H77974   2.119  10.454   6.408 -2.4634  2.8359 -1.7921
  578MOL0     H77975   2.034  10.299   6.552  2.7725 -0.0478 -0.7397
  578MOL0     H77976   2.030  10.404   6.696  2.4413  0.9219 -0.7060
  578MOL0     H77977   1.854  10.545   6.608 -0.8849 -1.0348 -0.0422
  578MOL0     H77978   1.881  10.497   6.439  0.3166 -1.3234 -1.5496
  578MOL0     H77979   1.782  10.260   6.484 -1.5178  1.1804 -2.2057
  578MOL0     H77980   1.683  10.410   6.491  0.6235  1.8961  0.2129
  578MOL0     H77981   1.713  10.464   6.821  0.7840  0.1144 -0.5373
  578MOL0     H77982   1.569  10.415   7.028 -0.3254  0.5924 -0.0074
  578MOL0     H77983   1.460  10.285   7.015  0.3988  0.8698  0.8115
  578MOL0     H77984   1.748  10.257   7.112  0.1922 -1.3391 -0.3043
  578MOL0     H77985   1.647  10.120   7.085  1.9729 -0.0095 -0.9609
  578MOL0     H77986   1.528  10.139   7.256  1.1087 -0.6046 -0.4763
  578MOL0     H77987   1.524  10.319   7.277 -0.3158  1.1750 -0.6661
  578MOL0     H77988   1.730  10.320   7.385  2.2868  0.7261 -0.1703
  578MOL0     H77989   1.782  10.152   7.336 -1.2765 -0.8220 -1.7003
  578MOL0     H77990   1.551  10.017   7.643  0.1101 -2.0906 -0.9404
  578MOL0     H77991   1.663   9.879   7.953 -3.8314  2.5209  0.2227
  578MOL0     H77992   1.546   9.868   7.817  1.0898 -0.9766 -1.7761
  578MOL0     H77993   1.670   9.754   7.818 -1.5236  0.3268 -2.1603
  578MOL0     H77994   2.009   9.926   8.191  0.1180 -0.9826  0.7620
  578MOL0     H77995   2.190   9.805   8.322  2.4317 -3.1759 -0.3416
  578MOL0     H77996   2.323   9.592   8.252 -2.0985  2.7824 -1.5494
  578MOL0     H77997   2.498   9.574   8.259 -0.7802 -0.9352 -0.4354
  578MOL0     H77998   2.316   9.688   8.481  0.5710  2.3383 -1.1057
  578MOL0     H77999   2.406   9.532   8.488  1.0477  0.5051  1.2558
  578MOL0     H78000   2.519   9.692   8.639  1.8966  0.6199  0.1659
  578MOL0     H78001   2.526   9.810   8.509 -3.3513 -0.5317 -2.4712
  578MOL0     H78002   2.661   9.535   8.530 -0.7416 -0.7052 -2.4431
  578MOL0     H78003   2.673   9.643   8.384  1.0131  2.6661  0.1994
  578MOL0     H78004   2.746   9.748   8.651  0.3941 -3.2003  1.4695
  578MOL0     H78005   2.797   9.812   8.497 -3.0268  1.1714  0.5813
  578MOL0     H78006   2.985   9.688   8.603 -1.1705  0.5738 -0.2580
  578MOL0     H78007   2.882   9.551   8.612  2.4440 -0.5344  0.0364
  578MOL0     H78008   2.970   9.692   8.347 -2.8259  1.2674  0.6004
  578MOL0     H78009   2.880   9.542   8.362  0.6168 -0.7909  0.1662
  578MOL0     H78010   3.162   9.570   8.477  0.4584 -0.5184  0.3706
  578MOL0     H78011   3.116   9.492   8.321 -0.9479 -0.0002 -0.9813
  578MOL0     H78012   2.451   9.830   7.990  0.0439 -2.2985  1.0442
  578MOL0     H78013   2.278   9.949   7.865 -0.3383  1.6993  0.7651
  578MOL0     H78014   2.024  10.104   7.713 -0.0797  0.1298 -1.0875
  578MOL0     H78015   1.902  10.224   7.544 -1.6259  2.1161 -1.0084
  578MOL0     H78016   2.914  10.665   6.703  2.2095  2.4129  3.7082
  578MOL0     H78017   3.068  10.830   6.744  1.3337 -2.4562 -2.2607
  578MOL0     H78018   3.265  11.227   6.911  0.2506 -1.3413 -1.6798
  578MOL0     H78019   3.419  11.406   6.906 -2.0693  0.4036  0.3757
  578MOL0     H78020   3.572  11.519   6.528  2.6546  1.2978 -0.7348
  578MOL0     H78021   3.459  11.659   6.519  0.5135  1.1685 -1.3047
  578MOL0     H78022   3.619  11.790   6.673  1.4610  1.4365 -1.5366
  578MOL0     H78023   3.708  11.728   6.539  2.2312  0.2519  1.3737
  578MOL0     H78024   3.699  11.590   6.812 -0.5576  0.2579 -0.3604
  578MOL0     H78025   3.820  11.707   6.744  2.1795 -2.1051  2.2738
  578MOL0     H78026   3.878  11.518   6.577  0.6982 -0.2560 -0.0548
  578MOL0     H78027   3.749  11.416   6.661  2.3384 -1.8486 -2.0499
  578MOL0     H78028   4.065  11.407   6.937  0.0331  4.5658  1.5706
  578MOL0     H78029   3.303  11.481   6.488  2.4676 -3.8121 -1.8897
  578MOL0     H78030   3.178  11.301   6.494  2.0512  0.8478 -1.5658
  579MOL0     O78031   3.609  10.396   5.292 -0.0184  0.4046  0.6706
  579MOL0     C78032   3.593  10.359   5.407  0.1830 -0.6562  0.6017
  579MOL0     O78033   3.699  10.336   5.489 -1.1273  0.0364  0.5656
  579MOL0     C78034   3.827  10.378   5.446 -0.5392  0.2503 -0.8683
  579MOL0     C78035   3.859  10.505   5.423 -0.7986  0.2130 -0.4897
  579MOL0     C78036   3.990  10.541   5.393 -0.0492  1.3991 -0.0292
  579MOL0     C78037   4.087  10.439   5.390 -0.6243  0.3478  0.5873
  579MOL0     O78038   4.226  10.453   5.364 -0.0251  0.6211  0.2345
  579MOL0     C78039   4.271  10.588   5.359  0.0118  0.4716  0.4665
  579MOL0     C78040   4.262  10.653   5.226 -0.1515  0.2237  0.4075
  579MOL0     C78041   4.318  10.796   5.232 -0.2221 -0.1511  0.4777
  579MOL0     C78042   4.294  10.858   5.093 -0.7770  0.0789  0.0065
  579MOL0     C78043   4.305  11.014   5.082  0.8270  0.2138  0.1548
  579MOL0     C78044   4.244  11.034   4.946  0.6404 -0.7068  1.1396
  579MOL0     C78045   4.296  11.170   4.895  0.4499 -0.8025  0.3897
  579MOL0     C78046   4.416  11.156   4.808 -0.0634  0.3748 -0.0810
  579MOL0     N78047   4.494  11.278   4.796 -0.2837 -0.2174  1.2696
  579MOL0     C78048   4.522  11.350   4.681 -0.6690  0.9470  0.1308
  579MOL0     C78049   4.593  11.461   4.713 -0.7550 -0.0268 -0.2346
  579MOL0     C78050   4.645  11.545   4.606 -0.3265 -0.5688  0.0250
  579MOL0     C78051   4.768  11.637   4.643  0.0334  0.3417  0.0590
  579MOL0     C78052   4.783  11.760   4.543 -0.0834 -0.0403  0.4685
  579MOL0     C78053   4.842  11.719   4.404 -0.8419  1.1656  0.0512
  579MOL0     O78054   4.885  11.825   4.325  0.1165 -0.7025 -0.0360
  579MOL0     C78055   4.778  11.901   4.287  0.3723  0.4670  0.6221
  579MOL0     C78056   4.759  12.035   4.337  0.0500  0.8750 -0.2033
  579MOL0     C78057   4.651  12.109   4.302  0.2701  0.0978 -0.5926
  579MOL0     C78058   4.633  12.244   4.369 -0.6429 -0.0205 -0.2999
  579MOL0     C78059   4.558  12.067   4.203 -0.0467 -0.0446 -0.1122
  579MOL0     C78060   4.439  12.138   4.167  1.0415 -0.6388  0.5117
  579MOL0     O78061   4.329  12.138   4.249 -0.6266 -0.1236 -0.2369
  579MOL0     C78062   4.311  12.022   4.316 -0.5889  0.2920  0.1269
  579MOL0     C78063   4.258  11.908   4.249  0.1997 -0.6156  0.2003
  579MOL0     C78064   4.240  11.795   4.323  0.1182  0.7760 -0.2468
  579MOL0     C78065   4.282  11.772   4.453  0.0669  0.2298  0.5373
  579MOL0     O78066   4.260  11.643   4.498  0.4146 -0.3872  0.1426
  579MOL0     C78067   4.208  11.642   4.632  0.6439  0.9218  0.8923
  579MOL0     C78068   4.182  11.501   4.679  1.4902 -0.2092 -0.0111
  579MOL0     C78069   4.050  11.449   4.613  0.1950 -0.1109 -0.1794
  579MOL0     C78070   3.919  11.424   4.692  0.6157  0.0520  0.9187
  579MOL0     C78071   3.868  11.562   4.756 -0.3323  0.8633 -0.2443
  579MOL0     C78072   3.725  11.537   4.799  0.0405 -0.1551  0.3990
  579MOL0     C78073   3.682  11.643   4.903  1.2647  0.1573  0.2139
  579MOL0     C78074   3.539  11.599   4.961  0.8248 -0.4972  0.4504
  579MOL0    Cl78075   3.494  11.730   5.077  0.3246 -0.4713 -0.0572
  579MOL0     C78076   4.332  11.880   4.523  0.0599  0.7038 -0.7773
  579MOL0     C78077   4.348  12.006   4.453  0.0705 -0.1966 -0.0424
  579MOL0     O78078   4.443  12.211   4.067 -0.6827 -0.1048 -0.0254
  579MOL0     C78079   4.588  11.940   4.144 -0.0200 -0.0929  0.1972
  579MOL0     C78080   4.691  11.861   4.183  0.1204  0.8438  0.1759
  579MOL0     N78081   4.611  11.455   4.847 -1.2178  0.6296  0.5364
  579MOL0     N78082   4.551  11.343   4.898 -0.8148  0.2327 -0.5197
  579MOL0     C78083   4.048  10.304   5.403  0.5971  0.0984  0.8538
  579MOL0     C78084   3.921  10.269   5.427  0.4560  0.5160  0.1047
  579MOL0     C78085   3.447  10.328   5.441  0.2125  2.0353  0.1833
  579MOL0     C78086   3.438  10.284   5.573 -0.6119 -0.5602  0.4061
  579MOL0     C78087   3.322  10.236   5.638  0.6198  0.0394  1.0277
  579MOL0     C78088   3.206  10.236   5.561  0.1124  0.3106 -0.1254
  579MOL0     O78089   3.106  10.184   5.632 -0.0473 -0.1448  0.4745
  579MOL0     C78090   2.982  10.137   5.563 -0.0119  0.8727 -0.6851
  579MOL0     C78091   2.892  10.072   5.659 -0.0750 -0.3718 -0.0686
  579MOL0     C78092   2.825  10.171   5.750 -0.0244  0.5103  0.1204
  579MOL0     C78093   2.772  10.115   5.888 -0.3051  1.1885 -0.4300
  579MOL0     C78094   2.731  10.229   5.970 -0.0060  0.5833 -0.7455
  579MOL0     C78095   2.718  10.322   6.052  0.0592 -0.1759  0.2881
  579MOL0     C78096   3.212  10.288   5.423  0.3994  0.5509  0.6062
  579MOL0     C78097   3.328  10.337   5.369 -0.5496  0.8109  1.2679
  579MOL0     H78098   3.781  10.580   5.427  0.2620  1.3441 -0.4109
  579MOL0     H78099   4.012  10.647   5.389 -1.5459  1.8481  2.0950
  579MOL0     H78100   4.221  10.646   5.437 -1.4981  0.2027 -0.2616
  579MOL0     H78101   4.377  10.577   5.383  0.3460  0.0551 -1.0379
  579MOL0     H78102   4.324  10.605   5.149 -0.5243  1.4901 -0.7251
  579MOL0     H78103   4.156  10.651   5.198 -0.0133  0.2831 -0.1476
  579MOL0     H78104   4.275  10.868   5.302 -1.8438 -1.1276  0.5332
  579MOL0     H78105   4.427  10.788   5.241 -0.4085 -2.8708  1.2250
  579MOL0     H78106   4.360  10.814   5.018 -0.0312  0.5563  0.3749
  579MOL0     H78107   4.196  10.820   5.063  0.1152 -1.3500 -1.2121
  579MOL0     H78108   4.253  11.070   5.160  3.2300  0.8738  1.3838
  579MOL0     H78109   4.410  11.046   5.086  0.9980 -0.1155 -1.2151
  579MOL0     H78110   4.265  10.963   4.866  0.7390  1.7912 -1.2005
  579MOL0     H78111   4.137  11.055   4.954 -0.0309 -2.3848 -1.8585
  579MOL0     H78112   4.219  11.229   4.844  1.4140 -0.4735 -0.7438
  579MOL0     H78113   4.319  11.228   4.984 -1.4036 -0.0487  0.4285
  579MOL0     H78114   4.398  11.127   4.704 -0.1195  0.3854 -0.0745
  579MOL0     H78115   4.483  11.084   4.856  0.6847  0.9826 -0.2131
  579MOL0     H78116   4.491  11.322   4.580 -2.2693  2.2071  0.2395
  579MOL0     H78117   4.672  11.482   4.521  3.1863 -0.9683  1.2675
  579MOL0     H78118   4.570  11.620   4.578  0.4336  0.2399  0.0832
  579MOL0     H78119   4.863  11.582   4.646 -0.8692 -1.6515 -2.9852
  579MOL0     H78120   4.761  11.676   4.745 -1.8988 -1.5988  0.7363
  579MOL0     H78121   4.859  11.824   4.588 -0.1050 -0.8181  1.6638
  579MOL0     H78122   4.691  11.815   4.521  0.1961  0.3524  0.2809
  579MOL0     H78123   4.765  11.656   4.358  0.3492 -1.4199  1.3395
  579MOL0     H78124   4.932  11.658   4.410  0.2139  2.2895 -2.7679
  579MOL0     H78125   4.831  12.077   4.406 -0.1614 -1.1912  1.3836
  579MOL0     H78126   4.697  12.324   4.333 -0.3781 -0.4305 -0.7415
  579MOL0     H78127   4.529  12.278   4.374  0.0260  2.6059 -2.0421
  579MOL0     H78128   4.673  12.230   4.470  0.1721 -1.4922 -0.8121
  579MOL0     H78129   4.230  11.932   4.147  1.0552 -1.4881 -0.2590
  579MOL0     H78130   4.179  11.717   4.278 -1.0721  1.5929 -0.0870
  579MOL0     H78131   4.284  11.680   4.701  0.2147  1.1828  1.2299
  579MOL0     H78132   4.117  11.703   4.643  0.0691  0.6642 -1.7557
  579MOL0     H78133   4.262  11.436   4.643 -0.7553 -0.9426 -4.3470
  579MOL0     H78134   4.171  11.497   4.788 -1.6036 -1.6912 -0.2848
  579MOL0     H78135   4.081  11.358   4.561  0.9926  0.7994 -1.3600
  579MOL0     H78136   4.020  11.523   4.538  2.3764  2.1135  0.9717
  579MOL0     H78137   3.840  11.376   4.632  1.3573 -4.4095  3.0453
  579MOL0     H78138   3.923  11.339   4.762 -0.3454 -0.3289  0.5330
  579MOL0     H78139   3.876  11.641   4.680  1.3283  0.0689 -0.9739
  579MOL0     H78140   3.934  11.588   4.839 -2.5019  1.9646  1.2065
  579MOL0     H78141   3.654  11.538   4.716  1.8898  0.8869 -1.2612
  579MOL0     H78142   3.708  11.436   4.839 -0.6822 -1.1653 -2.2176
  579MOL0     H78143   3.673  11.740   4.852  0.4914  0.1309  0.2839
  579MOL0     H78144   3.749  11.653   4.989 -0.5708 -0.2366  1.7580
  579MOL0     H78145   3.537  11.496   5.000  0.9384 -1.3960 -1.7471
  579MOL0     H78146   3.466  11.599   4.879  2.5753 -1.3746 -1.1839
  579MOL0     H78147   4.367  11.881   4.625 -2.3017  0.4505  0.1064
  579MOL0     H78148   4.381  12.098   4.499 -3.5765  2.1308 -1.6255
  579MOL0     H78149   4.504  11.910   4.082 -2.0645  3.1756  1.1175
  579MOL0     H78150   4.714  11.767   4.134  1.0167  1.2745 -0.2412
  579MOL0     H78151   4.131  10.233   5.399 -0.3407 -1.0719  1.5932
  579MOL0     H78152   3.884  10.173   5.459 -1.1855  0.5886 -1.4297
  579MOL0     H78153   3.517  10.284   5.648  0.2598 -0.7534 -0.5009
  579MOL0     H78154   3.320  10.196   5.739  2.4230 -0.6380  0.8333
  579MOL0     H78155   2.924  10.216   5.517 -0.5040  1.2692  0.5835
  579MOL0     H78156   3.001  10.066   5.482  0.9504  0.8420 -0.4519
  579MOL0     H78157   2.930   9.980   5.705  0.5780 -0.2116 -0.2867
  579MOL0     H78158   2.813  10.017   5.607  1.3787 -1.0513 -1.6727
  579MOL0     H78159   2.743  10.221   5.698  0.4449  0.9543 -0.1998
  579MOL0     H78160   2.895  10.250   5.780 -2.1816  2.7126 -0.3302
  579MOL0     H78161   2.858  10.063   5.930 -0.6050 -1.5080 -2.8236
  579MOL0     H78162   2.708  10.027   5.877  0.6767  0.4839 -0.7052
  579MOL0     H78163   2.686  10.400   6.118 -0.6710  1.9729 -2.4093
  579MOL0     H78164   3.122  10.279   5.363 -0.1239  0.5426  1.3664
  579MOL0     H78165   3.328  10.376   5.268 -0.4750  0.6909  1.2201
  580MOL0     O78166   7.104   2.609   4.864 -0.0959 -0.3222  0.3503
  580MOL0     C78167   7.225   2.628   4.834 -0.2418  0.8806  0.3569
  580MOL0     O78168   7.265   2.649   4.709  0.9492 -0.0009  0.2876
  580MOL0     C78169   7.161   2.636   4.607 -0.1396 -0.0594 -0.2593
  580MOL0     C78170   7.161   2.515   4.529  0.3953 -0.8965 -0.9586
  580MOL0     C78171   7.079   2.494   4.415 -0.2029  0.1896  1.3453
  580MOL0     C78172   6.990   2.594   4.373 -0.8088 -0.1013 -0.0464
  580MOL0     O78173   6.909   2.574   4.272 -0.4581 -0.0704  0.0615
  580MOL0     C78174   6.773   2.628   4.285 -0.2809 -0.5390  0.5101
  580MOL0     C78175   6.674   2.543   4.208 -0.2515 -0.2798 -0.9109
  580MOL0     C78176   6.676   2.392   4.264 -0.5006 -0.0395  0.9691
  580MOL0     C78177   6.602   2.312   4.156  0.7870  0.3769  0.7921
  580MOL0     C78178   6.610   2.162   4.198  0.6007 -0.0455  0.8441
  580MOL0     C78179   6.516   2.125   4.313  0.4103  0.7823  1.0553
  580MOL0     C78180   6.567   2.013   4.409  0.9737  0.5585  0.9201
  580MOL0     C78181   6.461   1.980   4.518 -0.1412 -0.2660  1.2473
  580MOL0     N78182   6.327   1.944   4.461 -0.7824 -1.0727 -0.0120
  580MOL0     C78183   6.304   1.844   4.376  1.0899  0.0359  0.8765
  580MOL0     C78184   6.167   1.846   4.373  0.6905  0.1023  0.2116
  580MOL0     C78185   6.097   1.752   4.271 -0.3644  0.4703  0.6308
  580MOL0     C78186   6.074   1.818   4.131 -0.5470 -0.8467  0.6304
  580MOL0     C78187   6.199   1.845   4.049 -0.6830  0.3447 -0.0690
  580MOL0     C78188   6.160   1.910   3.922 -0.2110  0.5466  0.3953
  580MOL0     O78189   6.259   2.015   3.890  0.2229 -0.7279 -0.0535
  580MOL0     C78190   6.237   2.138   3.948  0.0599  1.1021 -0.2418
  580MOL0     C78191   6.175   2.162   4.070  0.1721 -0.0874  0.4306
  580MOL0     C78192   6.164   2.288   4.129  0.4622  0.5312  0.5003
  580MOL0     C78193   6.077   2.295   4.251 -0.0262  0.2567  0.0778
  580MOL0     C78194   6.225   2.396   4.063 -0.1871 -0.9779  0.9290
  580MOL0     C78195   6.238   2.538   4.115 -1.4820  0.0522 -1.0208
  580MOL0     O78196   6.295   2.633   4.028 -0.2173  0.2769  0.5985
  580MOL0     C78197   6.320   2.756   4.076  0.0103 -0.2477  0.9170
  580MOL0     C78198   6.453   2.799   4.063 -0.5108 -0.3837 -0.5432
  580MOL0     C78199   6.480   2.925   4.092 -0.1754 -0.3344  1.2958
  580MOL0     C78200   6.383   3.021   4.131 -0.7231 -0.8581  1.0814
  580MOL0     O78201   6.409   3.146   4.183  0.3322  0.4921 -0.3225
  580MOL0     C78202   6.515   3.221   4.127 -0.2735 -0.2437 -0.4173
  580MOL0     C78203   6.555   3.329   4.227 -0.0534 -0.3010  0.8461
  580MOL0     C78204   6.611   3.275   4.356  0.0893 -0.0652 -0.4113
  580MOL0     C78205   6.674   3.386   4.435 -0.4866 -0.3946  0.0774
  580MOL0     C78206   6.655   3.359   4.582 -0.5287 -0.4707  0.2144
  580MOL0     C78207   6.520   3.391   4.643  0.0201  0.1447  0.2836
  580MOL0     C78208   6.503   3.309   4.770 -0.5128  0.0083 -0.1768
  580MOL0     C78209   6.602   3.347   4.890  0.6162 -1.1299  0.5909
  580MOL0    Cl78210   6.586   3.524   4.914  0.3692 -0.3131  0.3193
  580MOL0     C78211   6.250   2.985   4.146 -0.4454 -0.3524 -0.2372
  580MOL0     C78212   6.215   2.853   4.098 -1.2187 -0.0202  0.5043
  580MOL0     O78213   6.213   2.566   4.233 -0.3996  0.6375  0.3162
  580MOL0     C78214   6.287   2.376   3.944 -0.5164  0.7472  0.0144
  580MOL0     C78215   6.284   2.248   3.881 -0.2430 -0.5527  0.4899
  580MOL0     N78216   6.113   1.944   4.455 -0.4455 -0.2766 -0.3213
  580MOL0     N78217   6.215   2.007   4.508  0.2311 -0.5147  0.2388
  580MOL0     C78218   6.992   2.711   4.452  0.7334 -0.2413 -0.0147
  580MOL0     C78219   7.081   2.739   4.564  0.2539  0.0041  1.2370
  580MOL0     C78220   7.324   2.622   4.944 -0.0236 -0.0668  0.4459
  580MOL0     C78221   7.451   2.669   4.926  0.1491  0.2276  0.0176
  580MOL0     C78222   7.553   2.663   5.022 -1.4040  0.8348 -1.7189
  580MOL0     C78223   7.530   2.587   5.142 -0.8277  0.5063  0.9295
  580MOL0     O78224   7.618   2.559   5.247 -0.0732 -0.8987  0.3345
  580MOL0     C78225   7.755   2.606   5.231 -0.0406  0.1083  0.3409
  580MOL0     C78226   7.842   2.569   5.352  0.9540 -0.1535  0.7457
  580MOL0     C78227   7.980   2.608   5.313 -0.6864  0.3352  0.4055
  580MOL0     C78228   8.077   2.578   5.426  0.0679  0.2156  0.0416
  580MOL0     C78229   8.077   2.705   5.508 -0.0911 -0.5634 -0.2446
  580MOL0     C78230   8.090   2.807   5.568 -0.2105 -0.4084  0.2435
  580MOL0     C78231   7.393   2.550   5.162  0.5104 -0.2536 -0.2974
  580MOL0     C78232   7.294   2.561   5.062 -0.0780 -0.1101 -0.2642
  580MOL0     H78233   7.223   2.429   4.556  1.3059 -0.4230 -1.5000
  580MOL0     H78234   7.084   2.405   4.353 -1.8449  1.5019 -0.8126
  580MOL0     H78235   6.749   2.627   4.392 -0.2373  2.9715  0.6767
  580MOL0     H78236   6.763   2.734   4.258 -2.3048 -0.3161  1.9585
  580MOL0     H78237   6.581   2.592   4.238 -0.8046 -2.9931  2.4681
  580MOL0     H78238   6.696   2.555   4.102 -0.3424 -2.3791 -1.2205
  580MOL0     H78239   6.774   2.350   4.287  0.6793  1.2163 -1.3863
  580MOL0     H78240   6.633   2.397   4.364 -2.9254  3.2675 -0.0220
  580MOL0     H78241   6.497   2.340   4.168  0.1598 -0.8757 -1.2570
  580MOL0     H78242   6.635   2.330   4.053 -1.2353 -1.2982 -0.2195
  580MOL0     H78243   6.562   2.115   4.112  0.3798 -0.0157  0.9481
  580MOL0     H78244   6.713   2.132   4.219  0.2739 -1.5004  0.5042
  580MOL0     H78245   6.503   2.217   4.370 -0.5105  1.7418 -0.6236
  580MOL0     H78246   6.421   2.103   4.263  1.0857  1.7883 -0.7625
  580MOL0     H78247   6.590   1.921   4.353 -0.0412  0.5376  0.4978
  580MOL0     H78248   6.655   2.054   4.458  1.4454  2.2211 -1.1937
  580MOL0     H78249   6.449   2.066   4.583 -0.7297  0.6031  0.0257
  580MOL0     H78250   6.500   1.900   4.582 -1.7500 -0.0476  2.5640
  580MOL0     H78251   6.375   1.784   4.320  1.1706  1.8304 -1.0357
  580MOL0     H78252   6.155   1.661   4.250 -2.7915 -0.9681 -0.1879
  580MOL0     H78253   6.005   1.709   4.311 -0.2336  0.2898  0.7416
  580MOL0     H78254   6.011   1.907   4.131 -0.2866 -0.5194 -2.7235
  580MOL0     H78255   6.011   1.745   4.078 -1.6006  0.5843 -0.1544
  580MOL0     H78256   6.270   1.764   4.030 -0.2927  0.2777  1.5558
  580MOL0     H78257   6.262   1.912   4.109 -2.4334  1.3751  0.6833
  580MOL0     H78258   6.062   1.957   3.921  0.1267  1.3184 -1.8241
  580MOL0     H78259   6.163   1.834   3.844 -1.8896  0.7474  0.1040
  580MOL0     H78260   6.148   2.080   4.135 -0.3627 -0.9294 -0.8058
  580MOL0     H78261   5.989   2.230   4.250 -0.2084  0.2707  3.4172
  580MOL0     H78262   6.134   2.253   4.335 -1.4602 -1.9708  0.0341
  580MOL0     H78263   6.045   2.393   4.288  1.0999 -0.1027  2.1777
  580MOL0     H78264   6.524   2.723   4.032 -0.8204 -0.2694 -1.5837
  580MOL0     H78265   6.584   2.952   4.085 -0.5281  0.7192 -0.9182
  580MOL0     H78266   6.603   3.164   4.098  1.1945  2.3748 -1.3833
  580MOL0     H78267   6.482   3.262   4.031 -0.7568 -1.5510 -0.8321
  580MOL0     H78268   6.634   3.381   4.172 -1.4801 -1.1227 -2.1827
  580MOL0     H78269   6.476   3.402   4.246  0.5335  0.8772 -0.9259
  580MOL0     H78270   6.688   3.206   4.319  1.3073  1.7523 -1.4569
  580MOL0     H78271   6.520   3.236   4.402 -0.3282 -1.3925 -2.2357
  580MOL0     H78272   6.782   3.399   4.423 -0.0825 -0.6566  2.8097
  580MOL0     H78273   6.618   3.475   4.406  1.6647  1.0456  0.0758
  580MOL0     H78274   6.726   3.415   4.643  0.5933 -2.2415  0.6147
  580MOL0     H78275   6.681   3.256   4.606 -0.8073 -0.6216 -0.1097
  580MOL0     H78276   6.517   3.499   4.665  0.2708 -0.1332  1.8344
  580MOL0     H78277   6.434   3.366   4.580  0.3642  1.0288 -0.5601
  580MOL0     H78278   6.512   3.201   4.755  0.8280  0.0302  0.2721
  580MOL0     H78279   6.399   3.334   4.791 -0.7413 -0.1309 -1.1317
  580MOL0     H78280   6.705   3.319   4.868  1.9247  2.7265  0.9626
  580MOL0     H78281   6.566   3.294   4.979 -4.0568  0.6925  0.0504
  580MOL0     H78282   6.168   3.041   4.189 -2.0405 -1.8621 -1.1460
  580MOL0     H78283   6.115   2.823   4.126 -1.4344 -0.3044 -0.5598
  580MOL0     H78284   6.349   2.452   3.899 -0.8740  0.9981 -0.0643
  580MOL0     H78285   6.356   2.229   3.802  2.0612  1.7621  1.8956
  580MOL0     H78286   6.924   2.796   4.442  2.9597  1.6421 -0.1010
  580MOL0     H78287   7.079   2.835   4.613  2.5497  0.6036  0.2936
  580MOL0     H78288   7.478   2.728   4.839 -1.0443 -2.0852 -2.0667
  580MOL0     H78289   7.641   2.724   5.003  1.1868 -1.9916  0.3250
  580MOL0     H78290   7.799   2.565   5.140  0.2080  2.3845 -0.6196
  580MOL0     H78291   7.757   2.715   5.229  3.0677  0.1439  0.5873
  580MOL0     H78292   7.830   2.461   5.365 -1.5032 -0.0252 -0.0053
  580MOL0     H78293   7.800   2.624   5.436 -0.5059 -0.2755  0.1279
  580MOL0     H78294   7.967   2.712   5.282 -0.0705  0.0810 -0.8104
  580MOL0     H78295   8.019   2.548   5.230  1.3786 -0.1784  1.6675
  580MOL0     H78296   8.173   2.555   5.379  0.4293 -1.5315  1.4943
  580MOL0     H78297   8.054   2.497   5.496  1.5031 -2.8763 -2.8239
  580MOL0     H78298   8.097   2.902   5.617 -3.9966  0.4766 -0.6488
  580MOL0     H78299   7.371   2.517   5.264  0.3657 -0.0441 -0.2611
  580MOL0     H78300   7.196   2.518   5.083  0.0467 -1.5955 -2.3131
  581MOL0     O78301   3.857   8.974   8.932 -0.3789  0.0179  0.0802
  581MOL0     C78302   3.743   8.980   8.982  0.2293 -0.6790  0.0488
  581MOL0     O78303   3.720   8.962   9.115  0.1742  0.2645  0.1530
  581MOL0     C78304   3.813   9.016   9.202  0.1063  0.6830  0.5197
  581MOL0     C78305   3.886   8.935   9.285 -0.7476 -0.0494  0.0824
  581MOL0     C78306   3.978   8.980   9.377  0.6170 -0.5680 -1.4235
  581MOL0     C78307   3.987   9.114   9.410  0.8775  0.4281  0.2186
  581MOL0     O78308   4.074   9.132   9.515  0.8863 -0.1945 -0.5613
  581MOL0     C78309   4.053   9.256   9.579 -0.4024  0.1077 -0.5910
  581MOL0     C78310   4.157   9.244   9.693  0.3917 -0.4246  0.3799
  581MOL0     C78311   4.156   9.353   9.801  0.2270 -0.1981  0.1926
  581MOL0     C78312   4.268   9.325   9.898  0.0150 -0.6476 -0.8546
  581MOL0     C78313   4.304   9.429  10.009  0.1298  1.0992 -0.1047
  581MOL0     C78314   4.408   9.371  10.106  0.3053  0.0856 -0.0275
  581MOL0     C78315   4.448   9.487  10.199 -0.6153  0.1772  0.4127
  581MOL0     C78316   4.549   9.423  10.308 -0.1434 -0.9554 -0.5392
  581MOL0     N78317   4.471   9.384  10.431 -1.5396 -0.7912 -0.2325
  581MOL0     C78318   4.408   9.259  10.438  0.2011 -0.3968 -0.2273
  581MOL0     C78319   4.357   9.263  10.561  1.1134 -0.7049  0.1369
  581MOL0     C78320   4.272   9.154  10.633 -0.2759  0.3300 -0.8618
  581MOL0     C78321   4.129   9.186  10.597 -0.1042  0.0811 -0.3032
  581MOL0     C78322   4.031   9.117  10.697 -0.3640 -0.2174  0.3060
  581MOL0     C78323   4.046   8.964  10.716  0.4539  0.2363  0.2816
  581MOL0     O78324   3.942   8.905  10.798  0.1095 -0.5576  0.2084
  581MOL0     C78325   3.962   8.788  10.860 -0.0424 -0.1233 -0.9871
  581MOL0     C78326   3.872   8.746  10.955 -0.0035  0.4189 -0.4167
  581MOL0     C78327   3.869   8.627  11.028 -0.6538  0.4896  0.5238
  581MOL0     C78328   3.764   8.602  11.132 -0.0093 -0.6604  0.0667
  581MOL0     C78329   3.974   8.541  10.989  0.9114  0.0221  0.7389
  581MOL0     C78330   3.998   8.403  11.044 -0.3232 -0.6550 -0.0205
  581MOL0     O78331   4.056   8.311  10.961 -0.2737 -0.1876 -0.3089
  581MOL0     C78332   4.068   8.180  11.003  0.1083 -0.4528  0.0003
  581MOL0     C78333   4.192   8.120  11.019  0.0179  0.4946  0.1195
  581MOL0     C78334   4.219   8.002  11.074 -0.5681  0.1744  0.3620
  581MOL0     C78335   4.117   7.923  11.119  0.1490 -0.4611 -0.7279
  581MOL0     O78336   4.122   7.799  11.184  0.3264  0.2039  0.8436
  581MOL0     C78337   4.251   7.727  11.190  1.0375 -0.1940  0.1291
  581MOL0     C78338   4.224   7.579  11.162  0.7618 -0.0325 -0.5161
  581MOL0     C78339   4.355   7.498  11.127 -0.0450  0.2547 -0.0036
  581MOL0     C78340   4.331   7.348  11.160  0.6302  0.8530 -0.4963
  581MOL0     C78341   4.455   7.274  11.118  0.4543  0.5732 -0.0376
  581MOL0     C78342   4.447   7.123  11.174 -1.4216 -0.0901  0.4008
  581MOL0     C78343   4.590   7.059  11.138  0.5273  0.2476  0.4570
  581MOL0     C78344   4.627   6.922  11.194 -0.2567 -0.6248 -0.0897
  581MOL0    Cl78345   4.618   6.908  11.370 -0.0715 -0.1737 -0.1459
  581MOL0     C78346   3.989   7.968  11.098 -0.8278 -1.4067 -0.2155
  581MOL0     C78347   3.963   8.103  11.048 -0.4885 -0.2866 -0.5868
  581MOL0     O78348   3.974   8.388  11.165 -0.3983  0.7943  0.8066
  581MOL0     C78349   4.073   8.573  10.901 -1.0116  0.7270 -0.8599
  581MOL0     C78350   4.064   8.693  10.831  0.1637  0.0583  0.4668
  581MOL0     N78351   4.379   9.389  10.618  0.1456  0.1747 -0.1805
  581MOL0     N78352   4.454   9.461  10.542  0.1214  0.1396  0.2619
  581MOL0     C78353   3.908   9.200   9.323 -0.3672 -0.5763 -0.0903
  581MOL0     C78354   3.825   9.153   9.222 -0.4371 -0.3587  0.4178
  581MOL0     C78355   3.627   8.964   8.890  1.2375  0.6954  0.4890
  581MOL0     C78356   3.646   8.963   8.750  0.5179  0.0321  0.3883
  581MOL0     C78357   3.533   8.941   8.669 -0.0205  0.8531  0.0310
  581MOL0     C78358   3.404   8.936   8.723 -0.1515  0.4145 -0.2827
  581MOL0     O78359   3.314   8.924   8.621  0.7672 -0.2397 -0.0199
  581MOL0     C78360   3.175   8.918   8.650 -0.6301  0.3198  0.0584
  581MOL0     C78361   3.085   8.917   8.519  0.0276  0.5568 -0.8426
  581MOL0     C78362   3.127   8.821   8.417  0.2413 -0.1152 -0.6081
  581MOL0     C78363   3.044   8.805   8.293 -1.2510  0.0212  0.0833
  581MOL0     C78364   3.026   8.927   8.220 -0.8182  0.2089 -0.3097
  581MOL0     C78365   3.002   9.031   8.158  0.9018 -0.3300 -0.4775
  581MOL0     C78366   3.383   8.950   8.854  0.8218  0.1186  0.0551
  581MOL0     C78367   3.492   8.955   8.937  0.8545 -0.3869 -0.4406
  581MOL0     H78368   3.865   8.829   9.282 -0.5593 -0.2114  2.3587
  581MOL0     H78369   4.039   8.908   9.430  1.5184  1.4041  0.3872
  581MOL0     H78370   4.061   9.342   9.512 -3.4929  2.3201  1.6017
  581MOL0     H78371   3.952   9.271   9.618 -0.8281  1.3650 -2.1016
  581MOL0     H78372   4.155   9.149   9.746  2.5776 -0.3278  0.7517
  581MOL0     H78373   4.253   9.254   9.642  0.5240  0.6449  0.7946
  581MOL0     H78374   4.185   9.453   9.767  1.1942 -0.7772 -0.7511
  581MOL0     H78375   4.060   9.339   9.852  0.5072 -6.7635 -0.2226
  581MOL0     H78376   4.240   9.230   9.947 -1.4707  0.4520  0.5562
  581MOL0     H78377   4.362   9.300   9.849  2.3098  1.2237  2.2283
  581MOL0     H78378   4.342   9.521   9.963  3.7495 -0.0070  0.3076
  581MOL0     H78379   4.218   9.465  10.066  1.8734  2.4890  1.8125
  581MOL0     H78380   4.351   9.298  10.164  1.6940  0.0131  1.3033
  581MOL0     H78381   4.485   9.333  10.038  0.8894 -0.6810  1.0247
  581MOL0     H78382   4.502   9.558  10.137 -2.1152  0.5675 -0.4759
  581MOL0     H78383   4.372   9.547  10.249 -1.0985  0.7542 -0.9753
  581MOL0     H78384   4.626   9.499  10.329 -1.4318  0.3037 -0.2262
  581MOL0     H78385   4.604   9.333  10.279  1.7195  0.4799 -1.7161
  581MOL0     H78386   4.410   9.178  10.366 -0.6651 -1.8672  1.3305
  581MOL0     H78387   4.295   9.055  10.594 -3.3060 -0.0663 -1.9477
  581MOL0     H78388   4.311   9.146  10.735  2.2787  0.5599 -1.7516
  581MOL0     H78389   4.114   9.151  10.495 -1.0297  1.0926 -0.5398
  581MOL0     H78390   4.127   9.296  10.603  1.0580  0.0427  1.3213
  581MOL0     H78391   3.930   9.139  10.662  0.5663  1.0854 -1.7441
  581MOL0     H78392   4.050   9.165  10.793 -0.1198  0.3225 -0.0072
  581MOL0     H78393   4.144   8.944  10.759  0.3998 -0.7266 -0.0114
  581MOL0     H78394   4.041   8.906  10.623 -0.1931  0.6585  0.0430
  581MOL0     H78395   3.787   8.811  10.978  0.9833  2.2490 -1.7085
  581MOL0     H78396   3.678   8.670  11.124 -2.8125 -3.7445  1.4357
  581MOL0     H78397   3.720   8.502  11.126 -1.4243 -0.0079 -1.1450
  581MOL0     H78398   3.825   8.621  11.221 -0.0530 -3.8012  0.8884
  581MOL0     H78399   4.278   8.178  10.988  0.0956  0.5700  0.4655
  581MOL0     H78400   4.319   7.970  11.099 -0.1400  2.1455  1.3389
  581MOL0     H78401   4.315   7.758  11.107  0.7200  0.9738  0.3049
  581MOL0     H78402   4.300   7.737  11.288  1.3790  0.9409 -0.1374
  581MOL0     H78403   4.165   7.533  11.242  1.7554 -0.5752 -0.0724
  581MOL0     H78404   4.161   7.564  11.074 -0.3158 -1.2222  0.4151
  581MOL0     H78405   4.432   7.528  11.198  2.3992 -2.0001 -1.4982
  581MOL0     H78406   4.382   7.511  11.022  1.3039  0.1169  0.3090
  581MOL0     H78407   4.304   7.342  11.266  0.1353 -2.2088 -0.7149
  581MOL0     H78408   4.255   7.303  11.096  2.6354 -0.5319 -2.0250
  581MOL0     H78409   4.533   7.328  11.172  2.4410 -0.2246 -1.9091
  581MOL0     H78410   4.455   7.279  11.008  1.5641  0.1478 -0.0759
  581MOL0     H78411   4.429   7.126  11.282  1.1137  0.0102  0.8699
  581MOL0     H78412   4.368   7.066  11.125  0.3129 -1.7007 -0.6459
  581MOL0     H78413   4.675   7.124  11.163  2.7329 -1.7269 -1.4744
  581MOL0     H78414   4.593   7.043  11.030 -4.6568 -0.9538  0.2410
  581MOL0     H78415   4.727   6.898  11.156  1.0590  1.6637  1.6456
  581MOL0     H78416   4.554   6.850  11.157 -0.5286 -1.0432  1.2090
  581MOL0     H78417   3.905   7.910  11.135  0.8622 -3.0631  1.2540
  581MOL0     H78418   3.866   8.148  11.032 -0.1462  1.9338  2.7325
  581MOL0     H78419   4.158   8.511  10.878 -0.5248  0.9255  0.3208
  581MOL0     H78420   4.135   8.705  10.750  0.8126  0.8580  1.1354
  581MOL0     H78421   3.928   9.306   9.312  1.5860 -1.1848 -3.6956
  581MOL0     H78422   3.773   9.226   9.161  1.9423  1.9251  0.9210
  581MOL0     H78423   3.740   8.974   8.697 -0.5810 -0.0407 -1.6725
  581MOL0     H78424   3.545   8.945   8.561  1.9708  2.0850  0.2425
  581MOL0     H78425   3.161   8.837   8.722 -0.2595 -3.1336 -3.4321
  581MOL0     H78426   3.147   9.010   8.702  0.9794  0.2188  1.1858
  581MOL0     H78427   3.099   9.016   8.475 -0.2802  1.6509  1.3637
  581MOL0     H78428   2.984   8.888   8.550  1.3213 -2.6153  0.8977
  581MOL0     H78429   3.139   8.724   8.466  1.1248 -0.9246 -2.3335
  581MOL0     H78430   3.224   8.858   8.382 -0.1540  3.7011  1.7470
  581MOL0     H78431   2.944   8.762   8.305 -1.6737  1.1818  0.8003
  581MOL0     H78432   3.099   8.741   8.222 -0.9449  1.0958 -0.6693
  581MOL0     H78433   2.988   9.122   8.103 -2.0515  1.9421  3.4558
  581MOL0     H78434   3.284   8.965   8.896  0.4619 -1.7878 -0.0376
  581MOL0     H78435   3.479   8.948   9.044 -2.2132  0.1804 -0.6753
  582MOL0     O78436   0.266   3.013   9.413  0.1306 -0.3543  0.3738
  582MOL0     C78437   0.327   3.072   9.505  0.1353  0.3343  1.5468
  582MOL0     O78438   0.285   3.075   9.628  0.6033 -0.6470 -0.0405
  582MOL0     C78439   0.171   3.012   9.668  1.0853  0.6500  0.2417
  582MOL0     C78440   0.175   2.880   9.714  0.4484  0.3275  0.1706
  582MOL0     C78441   0.059   2.815   9.742  0.1411  0.0713  0.1396
  582MOL0     C78442  -0.066   2.885   9.727  0.3836 -0.9971 -0.2078
  582MOL0     O78443  -0.185   2.827   9.738  0.2306  0.4355  0.5282
  582MOL0     C78444  -0.186   2.682   9.755  0.9246  0.2798 -0.5088
  582MOL0     C78445  -0.332   2.637   9.765 -1.1065  0.3816  0.4962
  582MOL0     C78446  -0.397   2.674   9.901 -0.2445  0.0314  0.2889
  582MOL0     C78447  -0.538   2.620   9.908  0.4439  0.5164 -0.3329
  582MOL0     C78448  -0.550   2.464   9.920  0.5257  1.3397 -0.0163
  582MOL0     C78449  -0.472   2.400  10.046  0.1192 -0.3207 -0.5892
  582MOL0     C78450  -0.512   2.468  10.171 -0.0938  0.8038 -0.8564
  582MOL0     C78451  -0.438   2.398  10.295  0.2349 -0.6930 -0.0213
  582MOL0     N78452  -0.302   2.445  10.315 -0.0701 -1.0457 -0.3153
  582MOL0     C78453  -0.191   2.415  10.240 -0.6330 -0.4867  0.0978
  582MOL0     C78454  -0.092   2.505  10.276 -0.4142  1.3814  0.3614
  582MOL0     C78455   0.047   2.541  10.217  0.9079  0.1052 -0.0283
  582MOL0     C78456   0.092   2.685  10.232 -0.6163  1.4979 -0.5603
  582MOL0     C78457   0.168   2.742  10.112 -0.1238  0.4242 -0.2748
  582MOL0     C78458   0.305   2.677  10.077 -0.8105  0.4560  0.5613
  582MOL0     O78459   0.291   2.554   9.998  0.4975 -0.4013 -0.3684
  582MOL0     C78460   0.406   2.488   9.945 -0.7456 -0.6992  0.4973
  582MOL0     C78461   0.539   2.499   9.999  0.9695 -0.0245  0.0400
  582MOL0     C78462   0.652   2.425   9.942 -0.4648 -0.2073 -0.5442
  582MOL0     C78463   0.787   2.454  10.004 -0.1105 -0.1887 -0.1007
  582MOL0     C78464   0.624   2.322   9.851 -0.6025  0.5318  0.4489
  582MOL0     C78465   0.740   2.231   9.794  1.0286 -0.2475  0.1904
  582MOL0     O78466   0.863   2.236   9.849 -0.3146  0.3549  0.3445
  582MOL0     C78467   0.969   2.170   9.788 -1.1534  1.1283  0.5715
  582MOL0     C78468   1.060   2.102   9.871 -0.8466  0.7353  0.2005
  582MOL0     C78469   1.170   2.031   9.819 -0.1402  0.1994  0.5322
  582MOL0     C78470   1.189   2.026   9.681 -0.0083 -0.0535  0.0045
  582MOL0     O78471   1.296   1.959   9.617 -0.6890  0.1242  0.0067
  582MOL0     C78472   1.410   1.923   9.699 -0.3199 -0.5974  0.1202
  582MOL0     C78473   1.534   1.884   9.617 -0.3426 -0.2211  0.1073
  582MOL0     C78474   1.662   1.896   9.685 -0.3540 -1.6375  0.1344
  582MOL0     C78475   1.671   1.823   9.822 -0.6800 -0.9932 -0.1640
  582MOL0     C78476   1.810   1.825   9.878  0.3725 -0.0251 -0.2288
  582MOL0     C78477   1.844   1.968   9.935  1.8486  0.6190 -0.1967
  582MOL0     C78478   1.960   1.949  10.031  0.7061 -1.7060  0.1262
  582MOL0     C78479   2.057   2.069  10.033  0.5133 -0.5645 -0.4938
  582MOL0    Cl78480   1.993   2.212  10.127 -0.1960 -0.5990 -0.0261
  582MOL0     C78481   1.099   2.100   9.605  0.3940  1.0529  0.0341
  582MOL0     C78482   0.992   2.166   9.648  0.1554 -0.6840 -0.4535
  582MOL0     O78483   0.706   2.162   9.697  0.2030  0.2877  0.2805
  582MOL0     C78484   0.496   2.312   9.795  0.2256  0.0481  0.0185
  582MOL0     C78485   0.392   2.401   9.833  0.8760 -0.0692  0.3847
  582MOL0     N78486  -0.147   2.588  10.371  0.1622  0.3171 -0.7686
  582MOL0     N78487  -0.271   2.559  10.388  0.2208  0.0981 -0.0707
  582MOL0     C78488  -0.071   3.013   9.677  0.4691 -0.0467 -0.1548
  582MOL0     C78489   0.049   3.076   9.640  0.0213  1.0543 -0.4687
  582MOL0     C78490   0.459   3.123   9.464 -0.0229  0.1247 -0.0427
  582MOL0     C78491   0.555   3.158   9.560 -1.2164  0.8093  0.2083
  582MOL0     C78492   0.680   3.198   9.520 -0.6995  0.6466 -0.1836
  582MOL0     C78493   0.719   3.222   9.383  0.6133 -0.2947 -0.1016
  582MOL0     O78494   0.843   3.286   9.358  0.2140 -0.1055 -0.5466
  582MOL0     C78495   0.894   3.302   9.226 -0.2687 -0.6892 -0.1871
  582MOL0     C78496   0.987   3.421   9.216 -0.6315 -0.5368 -0.5285
  582MOL0     C78497   0.910   3.563   9.208  0.2804 -0.0857 -0.4246
  582MOL0     C78498   0.925   3.636   9.347 -0.3286  0.6322  0.4863
  582MOL0     C78499   0.886   3.779   9.340 -0.3295 -0.0479 -0.2235
  582MOL0     C78500   0.857   3.900   9.353 -0.4976 -1.2176  0.7213
  582MOL0     C78501   0.622   3.184   9.286 -0.2206  0.3596  0.3686
  582MOL0     C78502   0.494   3.132   9.325 -0.8118  1.2386 -0.0219
  582MOL0     H78503   0.262   2.817   9.728  1.7957  1.6415 -1.7580
  582MOL0     H78504   0.073   2.721   9.793 -1.1991 -0.8375 -1.0903
  582MOL0     H78505  -0.135   2.630   9.674  1.0446 -1.2828  0.5362
  582MOL0     H78506  -0.142   2.657   9.852 -2.3932 -0.3155  0.9700
  582MOL0     H78507  -0.387   2.677   9.680 -2.0921  0.8430  1.3224
  582MOL0     H78508  -0.332   2.528   9.757 -1.3380  0.2917  1.5663
  582MOL0     H78509  -0.331   2.646   9.984 -0.3216 -1.5135 -0.1359
  582MOL0     H78510  -0.418   2.781   9.904 -3.3033 -0.4919  0.8432
  582MOL0     H78511  -0.594   2.664   9.992  1.2530 -0.4460  0.7425
  582MOL0     H78512  -0.594   2.647   9.818  0.9611 -1.1242 -1.1795
  582MOL0     H78513  -0.655   2.431   9.922  1.2745 -1.6843 -2.9346
  582MOL0     H78514  -0.514   2.417   9.828  0.0921  2.7013 -0.9149
  582MOL0     H78515  -0.486   2.291  10.054  0.6618 -0.4502 -1.3383
  582MOL0     H78516  -0.364   2.409  10.029  0.2440 -2.3096 -1.2190
  582MOL0     H78517  -0.492   2.575  10.176 -4.9120  1.8730  2.1930
  582MOL0     H78518  -0.621   2.463  10.174 -0.0318 -0.6794 -0.4612
  582MOL0     H78519  -0.437   2.291  10.274 -2.5319 -0.5338 -1.2790
  582MOL0     H78520  -0.500   2.417  10.383 -1.3919  1.7136 -1.5857
  582MOL0     H78521  -0.188   2.346  10.156  2.4509  1.9392 -2.0149
  582MOL0     H78522   0.110   2.469  10.270  1.8690 -0.5379 -1.9701
  582MOL0     H78523   0.043   2.522  10.110 -3.0119  3.0793 -0.6299
  582MOL0     H78524   0.158   2.698  10.318 -1.1139 -2.7093  0.6873
  582MOL0     H78525  -0.000   2.741  10.245 -1.0329  1.0273 -1.3669
  582MOL0     H78526   0.195   2.845  10.135  2.5222 -0.4794  1.0271
  582MOL0     H78527   0.096   2.734  10.030 -1.2623 -1.4910  0.8199
  582MOL0     H78528   0.361   2.650  10.167 -0.2469 -1.2175 -0.2483
  582MOL0     H78529   0.360   2.750  10.017 -0.8038  0.3025  0.3780
  582MOL0     H78530   0.559   2.560  10.086  0.6292 -3.0907  2.4491
  582MOL0     H78531   0.863   2.481   9.931  0.2283  1.3926  0.7906
  582MOL0     H78532   0.780   2.543  10.067 -2.3615  0.8823 -1.7361
  582MOL0     H78533   0.815   2.365  10.062  0.1336 -2.0215 -2.8587
  582MOL0     H78534   1.042   2.112   9.977 -1.6704  3.8554 -0.1425
  582MOL0     H78535   1.234   1.985   9.893 -0.0800  2.7568  2.2101
  582MOL0     H78536   1.436   2.004   9.769 -1.0502 -0.9600  0.8269
  582MOL0     H78537   1.387   1.835   9.759 -3.5220 -1.0038 -1.4760
  582MOL0     H78538   1.525   1.785   9.571 -0.9873  1.3763 -3.5258
  582MOL0     H78539   1.545   1.953   9.533  0.3011 -2.0543 -1.3864
  582MOL0     H78540   1.678   2.003   9.701  2.7748 -2.3249  2.5950
  582MOL0     H78541   1.743   1.860   9.620  1.1666  0.7493  0.6065
  582MOL0     H78542   1.600   1.872   9.890  0.6709 -0.2191  0.7355
  582MOL0     H78543   1.636   1.721   9.808 -1.8222 -0.6024 -0.3002
  582MOL0     H78544   1.880   1.790   9.800 -0.1095  2.3452 -1.8139
  582MOL0     H78545   1.810   1.746   9.954  1.6836 -0.8111 -1.0011
  582MOL0     H78546   1.860   2.041   9.856 -0.1440  0.1208 -1.1378
  582MOL0     H78547   1.751   1.993   9.988  0.1076 -3.5158 -0.9390
  582MOL0     H78548   2.020   1.863   9.999  4.1935  0.1190  1.1822
  582MOL0     H78549   1.927   1.930  10.133  0.7296 -0.1831  0.4342
  582MOL0     H78550   2.060   2.104   9.929  0.4606  1.7714  0.2364
  582MOL0     H78551   2.151   2.036  10.078 -2.5130 -3.7709  4.4982
  582MOL0     H78552   1.121   2.101   9.499  2.5009  1.1940  0.4257
  582MOL0     H78553   0.930   2.229   9.585  2.0197 -1.4443 -3.2182
  582MOL0     H78554   0.477   2.238   9.718  0.2100 -0.1223  0.1865
  582MOL0     H78555   0.291   2.388   9.794  1.1146  0.9792 -0.6259
  582MOL0     H78556  -0.167   3.063   9.679  1.5789  2.2245  0.7330
  582MOL0     H78557   0.053   3.177   9.600 -0.0238  1.1181 -0.3107
  582MOL0     H78558   0.521   3.165   9.663 -1.6054  0.8786  0.0780
  582MOL0     H78559   0.747   3.219   9.603 -1.0929  3.3715 -0.4934
  582MOL0     H78560   0.936   3.204   9.202 -0.3268 -1.3941  2.3419
  582MOL0     H78561   0.823   3.327   9.147  2.6955  1.5435 -2.4173
  582MOL0     H78562   1.031   3.399   9.118 -3.5567 -1.9535 -1.6199
  582MOL0     H78563   1.065   3.413   9.293 -1.3152 -2.5911  0.0130
  582MOL0     H78564   0.803   3.546   9.194  0.3234 -0.1094 -0.7418
  582MOL0     H78565   0.954   3.632   9.135  1.1800 -0.6322 -0.4069
  582MOL0     H78566   1.032   3.634   9.370 -0.1745 -1.3048 -0.2084
  582MOL0     H78567   0.861   3.572   9.409  0.5599 -1.3661 -0.5976
  582MOL0     H78568   0.841   4.003   9.376 -1.2756 -1.4815  1.4235
  582MOL0     H78569   0.638   3.198   9.180 -2.7459  2.0814  0.1153
  582MOL0     H78570   0.435   3.097   9.240  0.9727  1.3190 -1.3683
  583MOL0     O78571   6.999   9.955   4.211 -0.3145 -0.1861 -0.5144
  583MOL0     C78572   7.023   9.901   4.105  0.0244  0.6300 -0.3018
  583MOL0     O78573   6.931   9.860   4.012  0.3938  0.3499  0.4786
  583MOL0     C78574   6.802   9.830   4.050 -0.5029  0.3141  0.4005
  583MOL0     C78575   6.744   9.706   4.023  0.4176 -0.1571  0.5267
  583MOL0     C78576   6.598   9.687   4.043 -0.0608  1.1546  0.1064
  583MOL0     C78577   6.519   9.795   4.074 -0.7806 -0.5717  0.1052
  583MOL0     O78578   6.383   9.775   4.088 -1.2586  0.1744  0.7443
  583MOL0     C78579   6.308   9.839   4.190  0.4930 -0.0570 -0.2374
  583MOL0     C78580   6.157   9.786   4.183 -0.3643  0.0524 -0.2961
  583MOL0     C78581   6.131   9.636   4.216 -0.9793 -0.8195  0.0908
  583MOL0     C78582   5.991   9.609   4.265 -0.4606  0.2981  0.2250
  583MOL0     C78583   5.955   9.456   4.294  0.7664 -0.6099 -0.0701
  583MOL0     C78584   5.804   9.433   4.277 -0.3765  0.1534  0.3080
  583MOL0     C78585   5.767   9.292   4.302 -0.0943  0.4764  0.0607
  583MOL0     C78586   5.625   9.259   4.274  0.1632  0.6625  0.4802
  583MOL0     N78587   5.531   9.327   4.367  0.0409  0.6739 -0.7307
  583MOL0     C78588   5.455   9.434   4.330 -0.3417 -0.1249 -0.2893
  583MOL0     C78589   5.359   9.437   4.426  0.0381 -0.2368  0.7355
  583MOL0     C78590   5.223   9.502   4.423 -0.7009  0.2244  0.4437
  583MOL0     C78591   5.115   9.419   4.361 -1.2073  0.2419  0.0894
  583MOL0     C78592   5.078   9.301   4.450  0.7784 -0.2495  0.6147
  583MOL0     C78593   4.968   9.223   4.391 -0.7348  0.3590  0.1310
  583MOL0     O78594   4.856   9.304   4.382 -0.2412 -0.0157  0.1351
  583MOL0     C78595   4.748   9.269   4.300 -0.5722 -0.4840  0.1096
  583MOL0     C78596   4.618   9.293   4.353  0.6371  0.4153  0.4546
  583MOL0     C78597   4.503   9.273   4.282  0.6846 -0.2320 -0.5697
  583MOL0     C78598   4.378   9.302   4.355  0.0119  0.0334  0.3770
  583MOL0     C78599   4.509   9.231   4.152 -0.0203 -1.1911 -0.4202
  583MOL0     C78600   4.393   9.212   4.068  0.2079 -0.8843 -0.7771
  583MOL0     O78601   4.403   9.115   3.980 -0.8249 -0.0416 -0.4759
  583MOL0     C78602   4.312   9.099   3.879 -0.1872  0.5295 -0.2547
  583MOL0     C78603   4.268   9.203   3.795  0.1882  0.1342 -0.0190
  583MOL0     C78604   4.176   9.175   3.690  0.0140 -0.1912 -0.3583
  583MOL0     C78605   4.147   9.042   3.656  0.0389  0.1317 -0.0561
  583MOL0     O78606   4.064   9.024   3.549 -0.1013  0.2166 -0.1352
  583MOL0     C78607   4.108   8.922   3.463 -0.2100  0.7619 -0.3785
  583MOL0     C78608   4.059   8.933   3.319 -0.4644  0.6446 -0.2941
  583MOL0     C78609   4.129   8.826   3.228  0.1524 -0.2729 -0.8589
  583MOL0     C78610   4.069   8.844   3.090 -0.0747 -0.2505 -0.1076
  583MOL0     C78611   4.100   8.716   3.001 -0.4459  0.2285 -0.1598
  583MOL0     C78612   4.255   8.705   2.962  0.6960 -0.1480 -0.0728
  583MOL0     C78613   4.284   8.725   2.811  0.0716 -0.8982  0.5784
  583MOL0     C78614   4.429   8.704   2.770  0.1155  0.7690  0.2408
  583MOL0    Cl78615   4.521   8.570   2.851 -0.0010 -0.1360 -0.0209
  583MOL0     C78616   4.179   8.940   3.744  0.3967 -0.0944  0.2347
  583MOL0     C78617   4.260   8.972   3.850 -0.6327 -0.0539 -0.0963
  583MOL0     O78618   4.288   9.281   4.083 -0.2246 -0.6102  0.4205
  583MOL0     C78619   4.638   9.207   4.094  0.0125 -0.4980 -0.2983
  583MOL0     C78620   4.759   9.232   4.164 -0.7470  0.1057  0.2040
  583MOL0     N78621   5.396   9.354   4.530 -0.1438 -0.0670 -0.3528
  583MOL0     N78622   5.509   9.296   4.499 -0.0038 -0.3403  0.7374
  583MOL0     C78623   6.578   9.922   4.094  0.1750 -0.3502 -1.2253
  583MOL0     C78624   6.723   9.937   4.093 -0.2480  0.7824 -0.4292
  583MOL0     C78625   7.166   9.894   4.076 -0.4601 -0.3641  0.1372
  583MOL0     C78626   7.273   9.937   4.158  0.2154  0.2630 -0.9678
  583MOL0     C78627   7.414   9.907   4.138 -0.2866  0.4661 -0.0593
  583MOL0     C78628   7.448   9.826   4.031 -0.1121 -0.1942  0.8082
  583MOL0     O78629   7.567   9.774   4.000 -0.4340  0.4461  0.1615
  583MOL0     C78630   7.694   9.816   4.054  0.0643 -0.4786  0.0706
  583MOL0     C78631   7.739   9.744   4.178 -0.0490  0.6225  0.9526
  583MOL0     C78632   7.889   9.751   4.185  0.5435  0.1795  0.0801
  583MOL0     C78633   7.928   9.884   4.263  0.4652 -0.1829 -0.0907
  583MOL0     C78634   8.072   9.906   4.256  0.0568 -0.7634 -0.1764
  583MOL0     C78635   8.194   9.912   4.240  0.4000 -0.0385 -0.1631
  583MOL0     C78636   7.341   9.783   3.950 -0.4097 -0.8070  0.7591
  583MOL0     C78637   7.208   9.824   3.955  0.1056 -0.3520  0.0530
  583MOL0     H78638   6.800   9.621   3.984 -1.8391 -2.7425  2.4661
  583MOL0     H78639   6.564   9.583   4.044  5.0389 -0.8714 -1.8517
  583MOL0     H78640   6.353   9.806   4.284 -0.6123 -6.8422 -1.5262
  583MOL0     H78641   6.319   9.947   4.192  1.2747 -0.1285  1.5523
  583MOL0     H78642   6.104   9.843   4.260  2.7847  1.8924  0.6867
  583MOL0     H78643   6.109   9.797   4.085  0.0016  2.5517 -0.2633
  583MOL0     H78644   6.159   9.583   4.125  5.0722  3.4449 -1.1287
  583MOL0     H78645   6.201   9.606   4.295 -1.2436  4.2697  2.6648
  583MOL0     H78646   5.968   9.674   4.349  1.0810  0.6494  0.4025
  583MOL0     H78647   5.944   9.631   4.168  0.7709  1.5169 -0.1347
  583MOL0     H78648   6.005   9.391   4.221  1.8720 -2.2354  2.0484
  583MOL0     H78649   5.998   9.426   4.390  2.4837  0.2806 -0.5095
  583MOL0     H78650   5.749   9.496   4.347 -1.4968  1.2116 -1.4588
  583MOL0     H78651   5.781   9.461   4.174  2.2310  2.8902  0.3191
  583MOL0     H78652   5.829   9.235   4.233  1.0706  1.4226  0.2952
  583MOL0     H78653   5.796   9.262   4.403  1.2001  0.0915 -0.4152
  583MOL0     H78654   5.623   9.150   4.287  1.9649  0.5257 -0.1861
  583MOL0     H78655   5.602   9.275   4.169 -0.4056 -1.1379  0.2944
  583MOL0     H78656   5.458   9.489   4.237 -1.2429  2.6425  1.2047
  583MOL0     H78657   5.212   9.534   4.527  1.9659 -1.4506  1.3374
  583MOL0     H78658   5.235   9.597   4.370 -1.6567  0.5153  0.7389
  583MOL0     H78659   5.135   9.383   4.260  0.3917  0.0090  0.4694
  583MOL0     H78660   5.035   9.490   4.338 -0.4892  1.9067  2.3674
  583MOL0     H78661   5.045   9.331   4.550 -1.6169 -0.7484  0.0150
  583MOL0     H78662   5.159   9.229   4.462  2.3054  1.6779  3.0763
  583MOL0     H78663   4.956   9.130   4.447  1.6145 -0.3229 -0.3937
  583MOL0     H78664   4.997   9.182   4.294  4.1648  1.3069  0.9214
  583MOL0     H78665   4.614   9.307   4.461 -0.2791 -2.3110  0.8339
  583MOL0     H78666   4.348   9.403   4.324  2.2902  1.1768  1.6115
  583MOL0     H78667   4.303   9.227   4.330  1.2795 -0.4004 -2.4835
  583MOL0     H78668   4.389   9.299   4.464 -1.1574 -0.0172  0.5059
  583MOL0     H78669   4.286   9.306   3.825  1.9449 -0.4262  0.9779
  583MOL0     H78670   4.127   9.252   3.632 -0.0326  0.6405  0.7632
  583MOL0     H78671   4.217   8.920   3.467 -0.2478 -0.6473  0.8255
  583MOL0     H78672   4.065   8.827   3.495  0.4894 -0.5658 -3.1077
  583MOL0     H78673   3.950   8.933   3.317 -0.5044  0.5616  0.8266
  583MOL0     H78674   4.089   9.029   3.275 -2.1368  1.4509  0.2155
  583MOL0     H78675   4.125   8.726   3.270  0.9353 -0.0691 -0.2682
  583MOL0     H78676   4.236   8.849   3.225  0.5514 -1.3877  2.0816
  583MOL0     H78677   3.960   8.849   3.098 -0.1429 -2.0564  0.6508
  583MOL0     H78678   4.110   8.937   3.050  1.8279 -0.8180  0.4251
  583MOL0     H78679   4.041   8.713   2.909 -2.4101 -0.2908  1.0570
  583MOL0     H78680   4.083   8.624   3.059  1.4296 -2.0289 -2.9414
  583MOL0     H78681   4.316   8.767   3.028  1.0433  1.7212 -2.0436
  583MOL0     H78682   4.278   8.599   2.976 -0.9668 -0.4552  0.5476
  583MOL0     H78683   4.253   8.825   2.777  0.0351 -1.1539 -0.1709
  583MOL0     H78684   4.219   8.653   2.760 -1.7824  0.9214  0.2420
  583MOL0     H78685   4.486   8.795   2.793 -0.1514  0.9700  0.1058
  583MOL0     H78686   4.435   8.680   2.663 -2.7689  4.8041 -1.0817
  583MOL0     H78687   4.159   8.833   3.743  2.8019 -0.6262  1.0204
  583MOL0     H78688   4.287   8.891   3.916 -1.0738 -0.2717 -0.1834
  583MOL0     H78689   4.639   9.187   3.987  1.1351  0.0587 -0.4089
  583MOL0     H78690   4.857   9.220   4.121 -1.6137 -3.4244 -1.0949
  583MOL0     H78691   6.520  10.009   4.123  0.3130  0.1749 -2.4442
  583MOL0     H78692   6.763  10.037   4.109  3.0635 -0.7950  2.8333
  583MOL0     H78693   7.243  10.000   4.241  0.4061  1.1615 -1.5668
  583MOL0     H78694   7.492   9.954   4.196  0.3768 -1.6508  0.8711
  583MOL0     H78695   7.770   9.809   3.976  0.6472  0.3113  0.5576
  583MOL0     H78696   7.695   9.922   4.080  0.8971 -0.0513 -1.6026
  583MOL0     H78697   7.707   9.640   4.174  2.4872 -0.1960 -0.8107
  583MOL0     H78698   7.687   9.790   4.262 -1.0660  0.1918  0.5654
  583MOL0     H78699   7.941   9.753   4.089  2.6815  5.0089  1.0101
  583MOL0     H78700   7.927   9.667   4.244  0.7477  0.3263  0.1618
  583MOL0     H78701   7.888   9.876   4.365  0.7626 -0.6468 -0.0088
  583MOL0     H78702   7.871   9.962   4.211 -2.7873 -2.1017  0.3213
  583MOL0     H78703   8.300   9.923   4.247  0.8413 -3.3811  0.1583
  583MOL0     H78704   7.367   9.721   3.866  0.7572 -0.3249  0.7577
  583MOL0     H78705   7.138   9.783   3.883  0.4092 -2.0345  0.6842
  584MOL0     O78706   0.267  10.319   4.407 -0.1153 -1.1494  0.2670
  584MOL0     C78707   0.332  10.220   4.381  0.1578  0.0612 -0.0963
  584MOL0     O78708   0.285  10.099   4.325  0.4924 -0.1610 -0.0812
  584MOL0     C78709   0.158  10.056   4.313  0.4483  0.1414  0.7368
  584MOL0     C78710   0.041  10.129   4.346 -0.1837 -0.4507 -0.1907
  584MOL0     C78711  -0.095  10.072   4.343 -0.9601 -0.2539 -0.3011
  584MOL0     C78712  -0.103   9.936   4.295 -1.8287 -0.1025  0.0227
  584MOL0     O78713  -0.217   9.864   4.289 -0.3237 -0.2921 -1.1742
  584MOL0     C78714  -0.337   9.936   4.326 -0.4544 -0.4801  0.4636
  584MOL0     C78715  -0.466   9.863   4.302  0.5890  0.2636  0.1576
  584MOL0     C78716  -0.576   9.892   4.401  0.7471  0.7301  0.0480
  584MOL0     C78717  -0.623  10.036   4.399  0.9203  0.0492  0.2764
  584MOL0     C78718  -0.735  10.047   4.499 -0.1136 -0.2078  0.3745
  584MOL0     C78719  -0.826  10.175   4.493  0.4625  0.5127  0.0042
  584MOL0     C78720  -0.968  10.160   4.554 -1.0792  0.4466 -0.2011
  584MOL0     C78721  -0.967  10.155   4.709  0.2431 -0.2181 -0.4188
  584MOL0     N78722  -1.089  10.105   4.770 -0.3554 -0.8549  0.1201
  584MOL0     C78723  -1.194  10.180   4.811 -0.9125 -0.2006  0.1824
  584MOL0     C78724  -1.287  10.095   4.844  0.2098 -0.1099  0.3239
  584MOL0     C78725  -1.426  10.125   4.884 -0.6562 -0.7525  0.0709
  584MOL0     C78726  -1.502  10.007   4.932  0.5758 -0.2370  0.2260
  584MOL0     C78727  -1.650  10.043   4.970  0.4861 -0.0844  0.0754
  584MOL0     C78728  -1.666  10.155   5.075  0.0060 -0.0157  0.3878
  584MOL0     O78729  -1.782  10.134   5.162  0.0815 -0.6126 -0.2000
  584MOL0     C78730  -1.905  10.163   5.121 -0.7096 -0.0267  0.2345
  584MOL0     C78731  -1.930  10.216   4.997 -0.0574 -0.8479  0.6664
  584MOL0     C78732  -2.057  10.227   4.936 -0.6259  0.5440  0.0558
  584MOL0     C78733  -2.070  10.305   4.807 -0.7760 -0.4717  0.4653
  584MOL0     C78734  -2.165  10.183   5.006  0.4421  0.4753  0.4905
  584MOL0     C78735  -2.306  10.187   4.959  0.3023 -0.8111 -0.9559
  584MOL0     O78736  -2.392  10.154   5.062 -0.8873  0.3838  0.5144
  584MOL0     C78737  -2.521  10.189   5.078 -0.1531 -0.6447 -0.1006
  584MOL0     C78738  -2.598  10.286   5.001 -1.0073  0.5533 -0.9228
  584MOL0     C78739  -2.731  10.296   5.026 -0.1246 -0.6169  0.4896
  584MOL0     C78740  -2.800  10.226   5.128  0.5114 -0.2110  0.1061
  584MOL0     O78741  -2.933  10.254   5.135  0.7016 -0.0397 -0.2549
  584MOL0     C78742  -3.012  10.173   5.231 -0.3751 -0.0893  0.2175
  584MOL0     C78743  -3.164  10.204   5.209 -0.3956  0.0936 -1.4351
  584MOL0     C78744  -3.188  10.347   5.245 -0.2714  0.5848 -0.6660
  584MOL0     C78745  -3.332  10.386   5.245  0.4363 -0.1996  0.7540
  584MOL0     C78746  -3.354  10.524   5.309 -0.1122  0.5087 -0.1427
  584MOL0     C78747  -3.499  10.564   5.285 -0.8921  0.0530 -0.1172
  584MOL0     C78748  -3.528  10.713   5.316 -0.4051  0.0788  0.0076
  584MOL0     C78749  -3.445  10.803   5.225  0.3678 -0.1248 -0.0107
  584MOL0    Cl78750  -3.552  10.910   5.130  0.3998  0.0795 -0.2732
  584MOL0     C78751  -2.725  10.126   5.198 -0.9564 -0.6356 -0.2074
  584MOL0     C78752  -2.588  10.101   5.169  0.2238 -0.4084  0.1403
  584MOL0     O78753  -2.341  10.215   4.844 -0.1325 -0.3201  0.4612
  584MOL0     C78754  -2.137  10.134   5.145  0.2319 -0.7088  0.2063
  584MOL0     C78755  -2.011  10.124   5.199  0.7098  0.1686 -0.0677
  584MOL0     N78756  -1.229   9.971   4.847  0.2243 -0.1160 -0.1677
  584MOL0     N78757  -1.111   9.980   4.794 -0.3792 -0.3648  0.3676
  584MOL0     C78758   0.021   9.875   4.253 -0.0831  0.3418 -0.0344
  584MOL0     C78759   0.145   9.928   4.250  0.4817 -0.4058 -0.2371
  584MOL0     C78760   0.481  10.234   4.386 -0.4188 -0.0212  0.5200
  584MOL0     C78761   0.560  10.145   4.319 -0.9356  0.8845  0.7738
  584MOL0     C78762   0.702  10.154   4.331  0.3282  0.5169 -0.0497
  584MOL0     C78763   0.763  10.249   4.417  0.2063 -1.1784 -0.7594
  584MOL0     O78764   0.902  10.260   4.428 -0.5082  0.2980 -1.2220
  584MOL0     C78765   0.956  10.378   4.360 -0.6444  0.3554  0.9689
  584MOL0     C78766   1.104  10.367   4.332  0.0142 -0.3397  0.2179
  584MOL0     C78767   1.144  10.228   4.270  0.6312 -0.5381  0.1837
  584MOL0     C78768   1.299  10.228   4.258 -0.3215  1.0700 -0.2154
  584MOL0     C78769   1.330  10.101   4.201  0.5180  0.5196  0.3339
  584MOL0     C78770   1.343   9.995   4.152  0.2244 -0.1167  0.7964
  584MOL0     C78771   0.680  10.344   4.473  0.4300  0.4214  0.2920
  584MOL0     C78772   0.539  10.340   4.464 -0.1331 -0.2490 -0.2273
  584MOL0     H78773   0.039  10.233   4.378  0.4078 -0.6996  0.6603
  584MOL0     H78774  -0.180  10.137   4.360  0.5174  1.6688  0.0615
  584MOL0     H78775  -0.327   9.966   4.430  1.5055  2.2433 -0.4075
  584MOL0     H78776  -0.343  10.022   4.259  0.4179  0.0261  1.0203
  584MOL0     H78777  -0.508   9.887   4.204 -1.8472 -3.0571  0.2151
  584MOL0     H78778  -0.449   9.755   4.306  0.4880  0.2742  1.1120
  584MOL0     H78779  -0.665   9.836   4.371 -0.2909  0.9710  2.4390
  584MOL0     H78780  -0.550   9.860   4.502  0.7830  0.8468  0.0759
  584MOL0     H78781  -0.542  10.108   4.415  0.8200 -0.0732  1.4010
  584MOL0     H78782  -0.670  10.054   4.302  0.1036  2.9916  1.1291
  584MOL0     H78783  -0.799   9.959   4.495  0.4730 -0.7315  1.9089
  584MOL0     H78784  -0.695  10.039   4.601  0.3031 -3.0914  0.0615
  584MOL0     H78785  -0.784  10.259   4.549  0.9798 -1.0283  2.0785
  584MOL0     H78786  -0.836  10.199   4.387 -0.9705 -3.7656 -1.0386
  584MOL0     H78787  -1.026  10.248   4.525 -0.2045  0.6972 -1.2573
  584MOL0     H78788  -1.010  10.069   4.510  0.9330 -1.3061  1.2864
  584MOL0     H78789  -0.957  10.257   4.747  0.7039 -0.5091  0.2448
  584MOL0     H78790  -0.881  10.101   4.748 -0.3659 -0.2453  0.9274
  584MOL0     H78791  -1.209  10.286   4.791 -1.0554 -0.7395 -3.3131
  584MOL0     H78792  -1.429  10.215   4.945 -1.0046  0.9220 -2.2766
  584MOL0     H78793  -1.466  10.168   4.791 -0.3189 -1.7204 -0.5446
  584MOL0     H78794  -1.461   9.961   5.022 -0.6542 -3.1349 -0.5991
  584MOL0     H78795  -1.498   9.924   4.861 -1.6205 -1.3637  1.3162
  584MOL0     H78796  -1.697   9.951   5.006  1.3415 -0.7893 -0.5606
  584MOL0     H78797  -1.697  10.077   4.878 -1.5652 -0.4201  0.9319
  584MOL0     H78798  -1.666  10.258   5.036 -1.7986  0.3985  1.3875
  584MOL0     H78799  -1.575  10.146   5.136 -0.3345 -2.6652  0.5959
  584MOL0     H78800  -1.850  10.273   4.950 -2.1532  1.7485 -0.0183
  584MOL0     H78801  -2.149  10.377   4.829 -0.2180  0.7128 -1.2293
  584MOL0     H78802  -1.974  10.349   4.778  1.5874 -4.2887  1.8563
  584MOL0     H78803  -2.093  10.240   4.722  0.4853 -0.1471 -0.1417
  584MOL0     H78804  -2.552  10.347   4.924  1.3308  0.9019  0.6352
  584MOL0     H78805  -2.800  10.359   4.970  0.2667  0.5808  1.2989
  584MOL0     H78806  -2.998  10.065   5.222 -1.0778 -0.4389  2.6949
  584MOL0     H78807  -2.982  10.188   5.335 -1.8051 -2.2423  1.0152
  584MOL0     H78808  -3.189  10.187   5.104 -1.0801 -2.1137 -0.9620
  584MOL0     H78809  -3.230  10.136   5.264 -2.0847 -0.9889 -4.5430
  584MOL0     H78810  -3.123  10.415   5.190  2.2111 -1.4065 -0.3884
  584MOL0     H78811  -3.159  10.354   5.350 -0.1923  1.6917 -0.7508
  584MOL0     H78812  -3.368  10.381   5.142  2.5276 -0.4897 -0.0065
  584MOL0     H78813  -3.391  10.309   5.296  1.0199 -0.9797  0.2663
  584MOL0     H78814  -3.281  10.585   5.255  2.0950 -0.6367  1.3972
  584MOL0     H78815  -3.338  10.516   5.417 -3.5411  0.2865  0.4512
  584MOL0     H78816  -3.526  10.538   5.182  3.1489 -2.5543 -0.7737
  584MOL0     H78817  -3.564  10.506   5.351 -0.3626  0.0606  0.4197
  584MOL0     H78818  -3.511  10.743   5.420  0.5305  2.1478 -0.6767
  584MOL0     H78819  -3.634  10.728   5.294 -0.8263  0.4193  2.0452
  584MOL0     H78820  -3.381  10.744   5.159  0.9089 -1.0088  1.2613
  584MOL0     H78821  -3.383  10.865   5.289  0.0210  0.5240 -0.2982
  584MOL0     H78822  -2.766  10.062   5.276  0.4923  0.9814  1.9785
  584MOL0     H78823  -2.526  10.031   5.224  1.2568 -0.5652 -1.1575
  584MOL0     H78824  -2.217  10.100   5.210 -0.5686 -0.6804 -0.7489
  584MOL0     H78825  -1.973  10.088   5.294 -0.9705  0.9569  0.9389
  584MOL0     H78826   0.001   9.774   4.220 -1.1376  1.2485 -2.3335
  584MOL0     H78827   0.232   9.878   4.209 -1.1128 -1.0197 -3.1402
  584MOL0     H78828   0.518  10.067   4.256  1.9695 -0.1948 -0.0132
  584MOL0     H78829   0.760  10.078   4.280  0.1341  2.1644 -2.9417
  584MOL0     H78830   0.905  10.379   4.264 -0.4004 -1.6354  0.7832
  584MOL0     H78831   0.933  10.477   4.401  0.0259  1.4478 -1.1491
  584MOL0     H78832   1.163  10.377   4.423  1.8850  1.8015 -1.1142
  584MOL0     H78833   1.137  10.449   4.268 -2.2768 -0.3667 -1.1074
  584MOL0     H78834   1.097  10.205   4.174  2.8701 -2.2450 -0.5638
  584MOL0     H78835   1.120  10.151   4.344  0.8855 -1.1064 -0.3303
  584MOL0     H78836   1.344  10.232   4.358  0.1109 -0.4026 -0.3336
  584MOL0     H78837   1.334  10.312   4.197  0.6409 -0.4442 -1.8076
  584MOL0     H78838   1.372   9.911   4.092  1.6973  1.2894 -0.5623
  584MOL0     H78839   0.722  10.424   4.534 -2.2286  1.3396  1.0817
  584MOL0     H78840   0.474  10.400   4.526  1.7452  0.4428  1.1847
  585MOL0     O78841  10.624   9.706   6.982 -0.6231  0.1649  1.1707
  585MOL0     C78842  10.739   9.755   6.972  0.3288 -0.6682 -0.2562
  585MOL0     O78843  10.778   9.882   7.004 -0.0198  0.1624 -0.7730
  585MOL0     C78844  10.686   9.971   7.060 -0.4637 -0.1515 -0.6498
  585MOL0     C78845  10.580   9.935   7.143  0.7943  0.9515  0.5885
  585MOL0     C78846  10.502  10.027   7.204 -0.1278 -0.1983 -0.2226
  585MOL0     C78847  10.513  10.165   7.174  0.2003 -0.2191 -0.3162
  585MOL0     O78848  10.430  10.277   7.220  0.0710  0.7508  0.1508
  585MOL0     C78849  10.344  10.251   7.333  0.4955 -0.0613  0.4693
  585MOL0     C78850  10.232  10.356   7.334  0.3667 -0.0833 -0.2157
  585MOL0     C78851  10.165  10.376   7.477  0.2828 -0.4919 -0.1437
  585MOL0     C78852  10.037  10.458   7.445  0.2027 -0.4326  0.6319
  585MOL0     C78853   9.970  10.516   7.569  0.0713 -0.0112  0.8529
  585MOL0     C78854   9.916  10.413   7.656  1.2962  1.0159 -0.1237
  585MOL0     C78855   9.842  10.476   7.772  0.1790  0.3682  0.0864
  585MOL0     C78856   9.801  10.360   7.850 -0.7900  0.0188 -0.1847
  585MOL0     N78857   9.713  10.387   7.960 -0.1419 -0.1906 -0.2068
  585MOL0     C78858   9.744  10.434   8.084  0.2721 -0.0151  0.9867
  585MOL0     C78859   9.624  10.466   8.132  0.0486 -0.1530 -0.1423
  585MOL0     C78860   9.609  10.508   8.272 -1.2168 -1.0468  1.1662
  585MOL0     C78861   9.460  10.514   8.315 -0.4625 -0.7959  0.5753
  585MOL0     C78862   9.430  10.388   8.402  0.3826 -0.5419 -0.3484
  585MOL0     C78863   9.278  10.345   8.389 -0.4932 -0.4400  0.3379
  585MOL0     O78864   9.251  10.318   8.250  0.7946  0.1016 -0.0756
  585MOL0     C78865   9.122  10.300   8.216 -0.7290 -0.5059  0.1161
  585MOL0     C78866   9.022  10.285   8.308 -0.0317 -0.0367  0.4066
  585MOL0     C78867   8.892  10.267   8.277 -0.0729  0.2553  0.1920
  585MOL0     C78868   8.789  10.250   8.390 -0.0638  0.6243  0.9030
  585MOL0     C78869   8.860  10.241   8.146  0.3171  0.0162  0.5874
  585MOL0     C78870   8.713  10.228   8.097 -0.3341  0.0410 -0.4308
  585MOL0     O78871   8.698  10.164   7.968  0.1001 -0.0434 -0.5258
  585MOL0     C78872   8.577  10.199   7.903  0.0411  1.3852 -0.1495
  585MOL0     C78873   8.535  10.331   7.872 -0.0905  0.4015  0.1315
  585MOL0     C78874   8.421  10.347   7.799  1.1153 -0.1893 -0.4644
  585MOL0     C78875   8.342  10.242   7.763 -0.0949  0.1283  0.5126
  585MOL0     O78876   8.225  10.245   7.686 -0.8336 -0.6435  0.0288
  585MOL0     C78877   8.159  10.369   7.670 -0.2635  0.0496  0.3059
  585MOL0     C78878   8.014  10.336   7.625  0.4161 -0.4750  0.9328
  585MOL0     C78879   7.927  10.464   7.601  0.1201 -1.0241  0.3328
  585MOL0     C78880   7.923  10.571   7.714 -0.2285  0.3048  0.4602
  585MOL0     C78881   7.849  10.513   7.834 -0.6893 -0.5467 -0.2126
  585MOL0     C78882   7.824  10.614   7.943  0.6961 -0.7452  0.6247
  585MOL0     C78883   7.735  10.544   8.051 -0.0393  0.1416  0.0425
  585MOL0     C78884   7.589  10.533   8.029  0.2552 -0.4031 -0.1533
  585MOL0    Cl78885   7.533  10.376   8.079 -0.0097  0.7797  0.1509
  585MOL0     C78886   8.393  10.114   7.781 -0.5397 -0.2852  0.4347
  585MOL0     C78887   8.501  10.086   7.861  0.0719  0.0961  0.4028
  585MOL0     O78888   8.625  10.274   8.163 -0.2449 -0.6025 -0.2889
  585MOL0     C78889   8.959  10.243   8.042 -1.1215  0.5188 -0.3661
  585MOL0     C78890   9.093  10.276   8.077 -0.4852  0.6409 -0.1785
  585MOL0     N78891   9.528  10.447   8.044 -0.0210  0.3345  0.4328
  585MOL0     N78892   9.574  10.398   7.937 -0.2406 -0.3358  0.5238
  585MOL0     C78893  10.617  10.201   7.080 -0.7727 -0.5699 -0.2814
  585MOL0     C78894  10.697  10.101   7.022  0.4272 -0.9320 -0.6693
  585MOL0     C78895  10.836   9.658   6.916 -0.5421 -0.2462 -0.8818
  585MOL0     C78896  10.797   9.535   6.861  0.4476  0.2717 -0.3942
  585MOL0     C78897  10.899   9.454   6.802 -0.3677  0.1623  0.1110
  585MOL0     C78898  11.037   9.493   6.799  0.0420  0.2836 -0.2528
  585MOL0     O78899  11.148   9.428   6.746  0.2660  0.4467  0.2010
  585MOL0     C78900  11.130   9.356   6.619 -0.3429 -0.4599 -0.6847
  585MOL0     C78901  11.241   9.247   6.604 -0.0406  0.9151 -1.0756
  585MOL0     C78902  11.320   9.256   6.470 -0.0004 -0.1184  0.0502
  585MOL0     C78903  11.227   9.224   6.356  0.5877  0.0005 -0.0534
  585MOL0     C78904  11.290   9.214   6.229  0.6015  0.8039  0.4688
  585MOL0     C78905  11.330   9.193   6.114 -0.0285 -0.8695  0.0037
  585MOL0     C78906  11.071   9.617   6.856 -0.6610  0.2327  0.3352
  585MOL0     C78907  10.975   9.697   6.918  0.3682 -0.2580  0.4819
  585MOL0     H78908  10.554   9.837   7.181 -0.0626  0.7204 -0.5207
  585MOL0     H78909  10.421  10.000   7.271 -1.6414  2.5093 -0.8169
  585MOL0     H78910  10.296  10.153   7.324  2.9849 -1.1830 -2.8015
  585MOL0     H78911  10.404  10.252   7.424  0.3038  1.2752  0.6021
  585MOL0     H78912  10.273  10.452   7.300  1.3358 -0.1715  0.6559
  585MOL0     H78913  10.164  10.326   7.254  2.4730 -0.3412 -1.9751
  585MOL0     H78914  10.148  10.276   7.519  2.7042 -0.2683  1.5637
  585MOL0     H78915  10.234  10.432   7.541  2.0764  0.3832 -2.6626
  585MOL0     H78916  10.070  10.531   7.369 -0.1098 -2.0593 -1.1331
  585MOL0     H78917   9.958  10.406   7.390  0.1613 -0.1372  0.4076
  585MOL0     H78918  10.051  10.563   7.626  2.4013 -3.3432  0.5890
  585MOL0     H78919   9.895  10.594   7.553 -1.9700 -1.4632  2.6923
  585MOL0     H78920   9.840  10.354   7.604 -0.0309  1.0029  1.7280
  585MOL0     H78921   9.998  10.354   7.698  0.1700 -0.3237  0.2632
  585MOL0     H78922   9.892  10.552   7.834 -1.6292  0.9291  0.9272
  585MOL0     H78923   9.754  10.523   7.727 -1.1968 -2.2407 -0.1137
  585MOL0     H78924   9.892  10.311   7.886 -1.4148 -3.9479 -3.2673
  585MOL0     H78925   9.744  10.286   7.794 -1.6058 -0.5784  1.3767
  585MOL0     H78926   9.838  10.448   8.137  1.1657  0.2514 -0.5968
  585MOL0     H78927   9.665  10.435   8.331  2.1260  0.4780  0.1390
  585MOL0     H78928   9.650  10.609   8.264  2.3897 -2.4928 -0.9619
  585MOL0     H78929   9.382  10.516   8.238  1.5797  1.4582 -1.6252
  585MOL0     H78930   9.454  10.609   8.369  1.0080  1.9620 -3.5975
  585MOL0     H78931   9.442  10.421   8.505  3.6211 -0.0130 -0.7911
  585MOL0     H78932   9.497  10.304   8.379  1.7240  0.8848 -1.8984
  585MOL0     H78933   9.208  10.422   8.423 -1.6871  0.0417 -2.8144
  585MOL0     H78934   9.266  10.256   8.451 -0.9351  0.7580  2.0593
  585MOL0     H78935   9.029  10.283   8.416 -1.2705  0.6461  0.5206
  585MOL0     H78936   8.727  10.160   8.379  1.1185  0.0845 -2.2974
  585MOL0     H78937   8.841  10.247   8.486  0.6834  2.8239  0.6297
  585MOL0     H78938   8.719  10.333   8.378  0.0147  0.6230  0.3925
  585MOL0     H78939   8.598  10.412   7.907  1.8786 -1.4228  1.0505
  585MOL0     H78940   8.388  10.447   7.771  0.2294 -0.2528  0.3434
  585MOL0     H78941   8.157  10.424   7.765 -0.7094  3.7695 -1.6490
  585MOL0     H78942   8.208  10.429   7.593 -1.2753  1.5607  0.7888
  585MOL0     H78943   8.010  10.271   7.537 -0.2629 -0.2614  0.8075
  585MOL0     H78944   7.966  10.269   7.698  2.5224 -2.6763  0.4393
  585MOL0     H78945   7.827  10.423   7.587  0.8805 -3.0100  0.4388
  585MOL0     H78946   7.954  10.517   7.509  1.0058 -0.5576  0.8457
  585MOL0     H78947   8.021  10.613   7.736 -0.1208  1.3513 -1.7395
  585MOL0     H78948   7.864  10.655   7.678 -0.4144  0.5398  1.2932
  585MOL0     H78949   7.907  10.428   7.873 -0.7734 -0.4232  0.1830
  585MOL0     H78950   7.760  10.456   7.804 -2.1612  0.2925  2.2822
  585MOL0     H78951   7.925  10.632   7.982  1.8787 -1.4450 -1.9099
  585MOL0     H78952   7.773  10.701   7.901  0.6394  0.4193  2.9515
  585MOL0     H78953   7.751  10.593   8.147  1.8481  0.5863 -0.4491
  585MOL0     H78954   7.774  10.442   8.052  3.6287  1.2907 -2.7435
  585MOL0     H78955   7.566  10.549   7.923  0.6982 -1.6886 -0.4595
  585MOL0     H78956   7.546  10.612   8.091 -0.2742 -1.7010  1.1856
  585MOL0     H78957   8.348  10.029   7.729 -2.1037  0.6587  0.1654
  585MOL0     H78958   8.539   9.985   7.870 -1.2610 -0.3577  1.2599
  585MOL0     H78959   8.949  10.221   7.936 -1.0264  0.4699 -0.3654
  585MOL0     H78960   9.176  10.291   8.010  0.1159 -2.2639 -0.2197
  585MOL0     H78961  10.632  10.306   7.055  3.4566 -0.9596 -0.1455
  585MOL0     H78962  10.771  10.128   6.947 -0.1471  1.6726 -0.3939
  585MOL0     H78963  10.705   9.482   6.840  0.2726 -0.5300  2.1045
  585MOL0     H78964  10.879   9.351   6.774  0.7351 -0.3528  1.1148
  585MOL0     H78965  11.031   9.310   6.625  1.1079 -3.6781  3.1130
  585MOL0     H78966  11.131   9.430   6.539  0.5114  1.2640  0.8367
  585MOL0     H78967  11.194   9.148   6.609  0.8919  0.4916 -0.1609
  585MOL0     H78968  11.302   9.270   6.692 -2.4320 -0.3256  1.0299
  585MOL0     H78969  11.405   9.188   6.461  1.8038  1.8448  1.4176
  585MOL0     H78970  11.369   9.352   6.456 -1.9293  1.1468  1.3566
  585MOL0     H78971  11.157   9.308   6.354  1.0143  0.4012 -2.6403
  585MOL0     H78972  11.175   9.131   6.380  1.0337 -0.3808 -0.5248
  585MOL0     H78973  11.379   9.188   6.018  0.4455  1.7367  0.0170
  585MOL0     H78974  11.176   9.644   6.864 -0.2863 -1.5104  2.1155
  585MOL0     H78975  11.005   9.794   6.956  0.7711 -0.3839  0.4889
  586MOL0     O78976   9.530   0.462   2.407  0.2029 -0.4778  0.2935
  586MOL0     C78977   9.510   0.347   2.444 -0.5429 -1.1883 -0.1460
  586MOL0     O78978   9.458   0.312   2.560 -0.9758  0.3061 -0.1375
  586MOL0     C78979   9.418   0.396   2.657  0.2873 -0.5071 -0.2891
  586MOL0     C78980   9.513   0.489   2.700  0.4789  0.0725 -0.2242
  586MOL0     C78981   9.489   0.568   2.819 -0.2802  0.5170 -0.0640
  586MOL0     C78982   9.368   0.540   2.886 -0.2675  0.1057 -0.0506
  586MOL0     O78983   9.367   0.608   3.004  0.3820  0.1541  0.4864
  586MOL0     C78984   9.239   0.639   3.055  0.2354 -0.0767 -0.2581
  586MOL0     C78985   9.264   0.763   3.140 -0.3482 -0.5896 -0.1493
  586MOL0     C78986   9.277   0.891   3.051  0.1442  0.6976  0.4115
  586MOL0     C78987   9.259   1.024   3.129  0.2128  0.0686  0.0765
  586MOL0     C78988   9.326   1.025   3.266 -0.3417  0.1688 -0.7035
  586MOL0     C78989   9.476   1.012   3.270 -0.6155  1.1314  0.1677
  586MOL0     C78990   9.519   0.988   3.409 -0.3865 -0.4690 -0.1118
  586MOL0     C78991   9.654   1.030   3.445  0.1060 -0.1303 -0.3321
  586MOL0     N78992   9.748   0.975   3.357  0.7458  0.5886  0.8767
  586MOL0     C78993   9.772   0.841   3.360 -0.4724 -0.8438  0.9796
  586MOL0     C78994   9.873   0.828   3.271 -0.6519 -0.3925 -0.9917
  586MOL0     C78995   9.917   0.697   3.232 -0.2829  0.5299 -0.1121
  586MOL0     C78996   9.799   0.626   3.171  0.2324 -0.4017  0.5467
  586MOL0     C78997   9.855   0.496   3.108  0.6513  0.7612  0.0999
  586MOL0     C78998   9.740   0.428   3.036  0.8278  0.3210 -0.0442
  586MOL0     O78999   9.645   0.385   3.133  0.6835  0.0998 -0.0921
  586MOL0     C79000   9.544   0.297   3.090 -0.7574 -0.0053  0.2428
  586MOL0     C79001   9.556   0.198   2.990 -0.4871  0.5677 -1.1316
  586MOL0     C79002   9.449   0.110   2.978 -0.5304 -0.6178  0.7795
  586MOL0     C79003   9.455  -0.007   2.878 -0.3659  0.6075 -0.2846
  586MOL0     C79004   9.321   0.127   3.043  0.9499  0.6719 -0.3303
  586MOL0     C79005   9.208   0.045   3.010  0.8765  0.8343  0.0147
  586MOL0     O79006   9.179   0.019   2.887 -0.3344 -0.0460  0.0016
  586MOL0     C79007   9.101  -0.090   2.853  0.8179 -0.4711  0.2048
  586MOL0     C79008   9.088  -0.218   2.918 -0.2812 -0.4380 -0.0883
  586MOL0     C79009   9.024  -0.330   2.861 -0.2809 -0.2551 -0.4416
  586MOL0     C79010   8.943  -0.305   2.747  0.2714  0.0353  0.8987
  586MOL0     O79011   8.853  -0.390   2.693 -0.0196 -0.5116 -0.3781
  586MOL0     C79012   8.740  -0.432   2.779  0.5701  0.8556 -0.3366
  586MOL0     C79013   8.659  -0.521   2.703 -0.3070  0.2461 -0.0776
  586MOL0     C79014   8.518  -0.542   2.763 -0.2416 -0.5298 -1.3628
  586MOL0     C79015   8.443  -0.660   2.702 -0.7002  0.0177 -0.0967
  586MOL0     C79016   8.304  -0.662   2.767  0.1529  0.6221  0.5477
  586MOL0     C79017   8.209  -0.769   2.694 -1.1514  0.3155 -0.2073
  586MOL0     C79018   8.062  -0.770   2.736  0.0022  0.3742  0.1834
  586MOL0     C79019   7.974  -0.849   2.645  0.9602  0.8212 -0.6028
  586MOL0    Cl79020   8.002  -0.801   2.474 -0.9375 -0.3035 -0.0110
  586MOL0     C79021   8.942  -0.185   2.686 -0.4447 -0.3160  0.4700
  586MOL0     C79022   9.031  -0.083   2.725  0.0074  0.8683 -0.4307
  586MOL0     O79023   9.145  -0.003   3.104  0.4739 -0.1272  0.1324
  586MOL0     C79024   9.315   0.234   3.136  1.1218  0.1545 -0.0434
  586MOL0     C79025   9.429   0.311   3.169  0.2326 -0.0719  0.1249
  586MOL0     N79026   9.907   0.948   3.220  0.6779 -0.8063  0.5054
  586MOL0     N79027   9.821   1.036   3.268 -0.1170 -0.1517 -0.1496
  586MOL0     C79028   9.285   0.433   2.860  0.3839 -0.3897  0.4631
  586MOL0     C79029   9.307   0.372   2.741 -0.1654  0.0582  0.8413
  586MOL0     C79030   9.550   0.240   2.348  0.3672 -0.0118 -0.0391
  586MOL0     C79031   9.572   0.266   2.212 -0.3881  0.6468 -0.5198
  586MOL0     C79032   9.615   0.165   2.129  0.4167 -0.4112 -0.1166
  586MOL0     C79033   9.646   0.041   2.168  0.2457 -0.2119 -0.6417
  586MOL0     O79034   9.682  -0.070   2.096  0.2057 -0.0723 -0.1996
  586MOL0     C79035   9.741  -0.048   1.971  0.1914  0.7800 -0.4352
  586MOL0     C79036   9.888  -0.003   1.965 -0.0470 -0.6898  0.3790
  586MOL0     C79037   9.949   0.038   1.826  0.1468 -0.1234 -0.3537
  586MOL0     C79038  10.102   0.048   1.819 -0.5005  0.0141 -1.0921
  586MOL0     C79039  10.158   0.093   1.693 -0.5048  0.0371  0.5893
  586MOL0     C79040  10.197   0.145   1.593  0.1930  0.0016  1.4257
  586MOL0     C79041   9.631   0.014   2.305 -0.8727 -0.1801  0.0680
  586MOL0     C79042   9.579   0.111   2.386 -0.0660  0.2561  0.0106
  586MOL0     H79043   9.606   0.504   2.646 -1.3199  1.3867 -3.2033
  586MOL0     H79044   9.551   0.645   2.863 -1.1838  0.8349  0.6899
  586MOL0     H79045   9.167   0.653   2.974 -1.5624 -2.2932  0.8360
  586MOL0     H79046   9.207   0.554   3.116  1.0660 -0.9514 -0.9998
  586MOL0     H79047   9.171   0.771   3.198  0.4578 -1.6566  1.3531
  586MOL0     H79048   9.348   0.745   3.207  1.6776 -0.5603 -2.5304
  586MOL0     H79049   9.375   0.896   3.003  0.7182 -1.5282  1.2522
  586MOL0     H79050   9.192   0.883   2.981  0.8961 -0.3878 -0.4149
  586MOL0     H79051   9.292   1.111   3.072 -2.3093  1.3793  0.4551
  586MOL0     H79052   9.151   1.028   3.145  0.1912 -3.3430  1.7734
  586MOL0     H79053   9.301   1.121   3.312  3.0432  0.8288  0.0122
  586MOL0     H79054   9.275   0.946   3.323 -1.9078  0.9964 -0.9036
  586MOL0     H79055   9.500   0.923   3.212  1.6793  1.3049  0.7691
  586MOL0     H79056   9.517   1.101   3.219 -1.6814  2.7851  2.0535
  586MOL0     H79057   9.460   1.057   3.471  1.8104  0.7336  0.7459
  586MOL0     H79058   9.504   0.882   3.434 -0.3302 -0.5458 -0.4104
  586MOL0     H79059   9.672   1.010   3.551  1.7752  1.5933 -0.2212
  586MOL0     H79060   9.656   1.139   3.436 -3.6681 -0.0875 -3.1397
  586MOL0     H79061   9.713   0.764   3.407 -0.1374 -1.5441  0.2646
  586MOL0     H79062   9.993   0.701   3.154  2.0726 -2.2367  1.8130
  586MOL0     H79063   9.965   0.642   3.314  0.6777  1.6178  0.0874
  586MOL0     H79064   9.756   0.687   3.091  1.4603 -1.6785 -1.1471
  586MOL0     H79065   9.719   0.604   3.243 -2.8812  2.4894 -1.7063
  586MOL0     H79066   9.887   0.433   3.191  1.0427  2.7037  1.4851
  586MOL0     H79067   9.930   0.506   3.029  1.2215 -0.7768  0.4096
  586MOL0     H79068   9.775   0.348   2.970  1.4274  1.0018 -0.5583
  586MOL0     H79069   9.694   0.496   2.963 -0.0038 -0.7490 -0.5481
  586MOL0     H79070   9.652   0.188   2.941 -0.0025 -1.4095  0.1540
  586MOL0     H79071   9.383  -0.087   2.892  0.3160  0.2429  1.3769
  586MOL0     H79072   9.443   0.028   2.775  0.0524  1.5601 -0.0221
  586MOL0     H79073   9.547  -0.064   2.892 -0.1781  1.3503  1.9530
  586MOL0     H79074   9.150  -0.232   3.006 -0.6358  0.0103  0.2354
  586MOL0     H79075   9.001  -0.423   2.911 -2.5828  0.7015  0.4141
  586MOL0     H79076   8.773  -0.479   2.872 -1.3909  0.6407  0.2938
  586MOL0     H79077   8.683  -0.340   2.799  0.7525  0.5934  1.6038
  586MOL0     H79078   8.650  -0.484   2.601 -0.5100  0.6516  0.0856
  586MOL0     H79079   8.718  -0.611   2.684 -2.2710 -1.5753  1.7960
  586MOL0     H79080   8.453  -0.462   2.729  2.8331  2.0683 -1.6086
  586MOL0     H79081   8.528  -0.555   2.872  0.1418 -4.5759 -1.7194
  586MOL0     H79082   8.445  -0.656   2.592  0.3797 -1.3336 -0.1595
  586MOL0     H79083   8.493  -0.753   2.732 -3.8597 -1.7821  0.0128
  586MOL0     H79084   8.257  -0.564   2.757 -0.4466  0.0538 -3.8790
  586MOL0     H79085   8.300  -0.688   2.874  1.2956  0.3547  0.5358
  586MOL0     H79086   8.228  -0.747   2.588 -1.8488 -0.1315 -0.4280
  586MOL0     H79087   8.248  -0.871   2.702 -0.6517  0.6408  2.5499
  586MOL0     H79088   8.022  -0.669   2.749 -2.5060 -0.5517  0.2218
  586MOL0     H79089   8.059  -0.815   2.835 -1.0484  1.1935  0.5393
  586MOL0     H79090   7.867  -0.848   2.664  1.1372  0.5447  0.4721
  586MOL0     H79091   8.000  -0.954   2.657 -3.3371 -0.3458  0.1818
  586MOL0     H79092   8.903  -0.170   2.585  0.2808  0.8493  0.3433
  586MOL0     H79093   9.054   0.002   2.662  2.5845 -0.4123 -1.3514
  586MOL0     H79094   9.225   0.257   3.192  0.3721  0.1330 -1.2067
  586MOL0     H79095   9.411   0.391   3.240 -1.8678 -0.5569  0.1910
  586MOL0     H79096   9.201   0.405   2.923  0.3415  0.5265  0.8259
  586MOL0     H79097   9.242   0.285   2.734 -0.1965 -0.4808  5.3170
  586MOL0     H79098   9.549   0.358   2.159  2.7247  1.8106 -0.0834
  586MOL0     H79099   9.612   0.204   2.028 -0.3251  3.3383  1.1916
  586MOL0     H79100   9.739  -0.148   1.927 -3.1918  0.6602 -0.2344
  586MOL0     H79101   9.669   0.016   1.920  0.1034  2.1486  1.3126
  586MOL0     H79102   9.946  -0.083   2.011 -1.6025 -1.0073  1.8988
  586MOL0     H79103   9.897   0.082   2.033  1.0922 -0.5027  0.0214
  586MOL0     H79104   9.911   0.135   1.792  2.0503  0.5209 -0.7633
  586MOL0     H79105   9.911  -0.042   1.763 -1.8429 -0.4749  1.1703
  586MOL0     H79106  10.153  -0.048   1.837  1.8586  1.1515 -1.2506
  586MOL0     H79107  10.148   0.118   1.889  0.1218  1.6027 -3.0087
  586MOL0     H79108  10.216   0.200   1.503  2.4188 -0.5786  1.4877
  586MOL0     H79109   9.659  -0.079   2.354 -2.1999 -2.4455 -3.1449
  586MOL0     H79110   9.563   0.085   2.490  1.6316  3.3377  1.1651
  587MOL0     O79111   6.117   4.758  10.585  0.1629  0.9738  0.3647
  587MOL0     C79112   6.175   4.758  10.477  0.3632 -0.4277  0.7222
  587MOL0     O79113   6.145   4.678  10.367 -0.4707 -0.1894 -0.2884
  587MOL0     C79114   6.041   4.598  10.379 -0.8441  0.0584  0.2985
  587MOL0     C79115   6.022   4.504  10.483 -0.4546  0.3828 -1.9666
  587MOL0     C79116   5.908   4.422  10.488  0.0397 -0.3485 -0.3885
  587MOL0     C79117   5.812   4.442  10.394 -0.0072 -0.2180 -0.2765
  587MOL0     O79118   5.696   4.362  10.419 -0.2052 -0.1026 -0.0127
  587MOL0     C79119   5.577   4.398  10.358 -0.2996 -0.1609 -0.1667
  587MOL0     C79120   5.468   4.314  10.421  0.1315 -0.1159  0.3694
  587MOL0     C79121   5.357   4.252  10.330  0.9841 -0.3314  0.4078
  587MOL0     C79122   5.247   4.184  10.410 -0.5635 -0.1276 -0.8011
  587MOL0     C79123   5.162   4.260  10.513 -0.4578  0.4101  0.0262
  587MOL0     C79124   5.079   4.159  10.595 -0.0466 -0.3342 -0.5053
  587MOL0     C79125   5.010   4.228  10.727 -0.7459  0.1598  0.4073
  587MOL0     C79126   4.930   4.123  10.799  0.1164  0.3146  0.0646
  587MOL0     N79127   4.799   4.090  10.741  0.3935  0.8726 -0.1018
  587MOL0     C79128   4.721   4.149  10.644 -0.3196  0.0324  0.7582
  587MOL0     C79129   4.613   4.078  10.646  0.0449 -0.3629  0.1928
  587MOL0     C79130   4.494   4.102  10.558 -0.3160  0.7180  0.6202
  587MOL0     C79131   4.430   3.968  10.504 -0.0937 -0.4634  0.4002
  587MOL0     C79132   4.340   3.976  10.380 -0.4303 -1.0633 -0.3648
  587MOL0     C79133   4.249   3.860  10.362  0.1987  0.6720  0.6792
  587MOL0     O79134   4.321   3.742  10.327 -0.5749 -0.2267 -0.4830
  587MOL0     C79135   4.244   3.638  10.279 -0.7715  0.4183  0.5163
  587MOL0     C79136   4.316   3.527  10.228  0.1310  0.3188 -0.2575
  587MOL0     C79137   4.248   3.411  10.178 -0.8510 -0.3776  0.0544
  587MOL0     C79138   4.342   3.312  10.109  0.5431  0.1122  0.6881
  587MOL0     C79139   4.110   3.405  10.184 -0.1351 -0.1428  0.7478
  587MOL0     C79140   4.023   3.300  10.126  0.3824  0.3431  0.2595
  587MOL0     O79141   3.918   3.342  10.049  0.6434  0.8622  0.3717
  587MOL0     C79142   3.839   3.245   9.978 -0.5179 -0.6987 -0.1013
  587MOL0     C79143   3.905   3.158   9.886 -0.1251  0.4262  0.4550
  587MOL0     C79144   3.821   3.081   9.801 -0.1261 -1.1536  0.0040
  587MOL0     C79145   3.686   3.107   9.784 -0.0872  0.2936  0.1936
  587MOL0     O79146   3.614   3.039   9.688 -0.0102  0.1257 -0.9257
  587MOL0     C79147   3.644   3.056   9.553 -0.0562  0.0738  0.1962
  587MOL0     C79148   3.690   2.934   9.483  0.6252  0.4863  0.1511
  587MOL0     C79149   3.591   2.824   9.484 -0.5081  0.1539  0.1202
  587MOL0     C79150   3.478   2.841   9.381  0.4941  0.1182  0.3419
  587MOL0     C79151   3.375   2.736   9.421  1.4416 -0.1897 -0.3970
  587MOL0     C79152   3.279   2.709   9.299  0.0464  0.0307 -0.1638
  587MOL0     C79153   3.167   2.617   9.324  0.6475 -0.6372  0.4023
  587MOL0     C79154   3.054   2.616   9.220  1.1189 -0.4302  0.0809
  587MOL0    Cl79155   3.123   2.613   9.055  0.1429  0.1636  0.1119
  587MOL0     C79156   3.621   3.188   9.882  0.5849 -0.2909 -0.2636
  587MOL0     C79157   3.699   3.253   9.982  0.9066  0.0295  0.6948
  587MOL0     O79158   4.050   3.180  10.151 -0.0560 -0.5913  1.7108
  587MOL0     C79159   4.044   3.523  10.233  0.5609  0.1632 -0.1233
  587MOL0     C79160   4.106   3.638  10.280 -0.6968  0.5116  0.3312
  587MOL0     N79161   4.619   3.976  10.741 -0.6078  0.0878  0.0286
  587MOL0     N79162   4.740   3.979  10.784  1.0838 -0.4971 -0.2868
  587MOL0     C79163   5.846   4.520  10.278  0.7713  0.3366 -0.4514
  587MOL0     C79164   5.962   4.594  10.265  0.1953 -0.1748 -0.2423
  587MOL0     C79165   6.309   4.833  10.469 -0.2697 -0.2197  0.9748
  587MOL0     C79166   6.368   4.895  10.583 -0.0441  0.3088 -0.4833
  587MOL0     C79167   6.494   4.963  10.560  0.5231  1.2614 -0.3577
  587MOL0     C79168   6.555   4.981  10.437 -0.5957 -0.2827  0.3733
  587MOL0     O79169   6.676   5.046  10.418  0.0129  0.2161 -0.0341
  587MOL0     C79170   6.706   5.171  10.484 -0.1621 -0.6410  0.1661
  587MOL0     C79171   6.813   5.260  10.413 -0.4835 -0.0813 -0.7442
  587MOL0     C79172   6.955   5.227  10.433 -0.5033 -0.8793  0.5635
  587MOL0     C79173   7.059   5.339  10.395  0.5136  0.0819  0.6762
  587MOL0     C79174   7.189   5.304  10.439  0.2100 -0.0347  0.9747
  587MOL0     C79175   7.292   5.245  10.470 -0.5586  0.3984 -0.5187
  587MOL0     C79176   6.492   4.919  10.332 -1.2481  0.4881  0.0936
  587MOL0     C79177   6.374   4.839  10.347  0.4795 -0.4664  0.5005
  587MOL0     H79178   6.101   4.492  10.556  0.0728  2.9366 -2.0027
  587MOL0     H79179   5.903   4.348  10.567 -1.7239  1.9829  1.8190
  587MOL0     H79180   5.555   4.504  10.370 -1.2081 -0.0810 -2.0445
  587MOL0     H79181   5.580   4.381  10.250  0.8194  1.4120 -0.4083
  587MOL0     H79182   5.522   4.234  10.472  0.0426 -0.8304 -0.6372
  587MOL0     H79183   5.431   4.376  10.503  2.4448  0.1114  1.3041
  587MOL0     H79184   5.312   4.316  10.253  1.0876  0.1784  0.7658
  587MOL0     H79185   5.388   4.166  10.270 -2.0428 -1.6020  0.4880
  587MOL0     H79186   5.191   4.145  10.325  2.4873 -0.3827 -2.8404
  587MOL0     H79187   5.307   4.105  10.456  0.2898  0.3045 -1.1559
  587MOL0     H79188   5.228   4.320  10.577 -0.6706  1.7760 -0.9940
  587MOL0     H79189   5.100   4.334  10.461  1.7961  2.0776 -0.4523
  587MOL0     H79190   4.998   4.112  10.539  0.4551 -0.5648 -1.0460
  587MOL0     H79191   5.150   4.081  10.626  0.6516  1.0326  1.5723
  587MOL0     H79192   5.084   4.272  10.794 -0.0513  0.6556 -0.6574
  587MOL0     H79193   4.938   4.302  10.689 -2.0870 -0.6473  1.3237
  587MOL0     H79194   4.913   4.172  10.896 -0.1304  0.7621 -0.1992
  587MOL0     H79195   4.988   4.031  10.806 -0.7873 -0.2336  0.5155
  587MOL0     H79196   4.737   4.242  10.590 -1.2942 -1.0155 -1.4845
  587MOL0     H79197   4.428   4.163  10.621 -0.3447 -0.3628  1.6795
  587MOL0     H79198   4.509   4.164  10.469  2.4804 -2.7130 -1.5577
  587MOL0     H79199   4.368   3.920  10.581 -0.1383  1.6099  1.7402
  587MOL0     H79200   4.511   3.899  10.479 -1.9984 -3.2032  1.2800
  587MOL0     H79201   4.396   3.993  10.287 -0.8005 -4.6674 -1.4092
  587MOL0     H79202   4.279   4.066  10.379  1.5320  0.4875  2.8468
  587MOL0     H79203   4.180   3.878  10.279  3.5586  2.5120 -2.0111
  587MOL0     H79204   4.194   3.830  10.451  0.0117  0.3341  0.4495
  587MOL0     H79205   4.424   3.526  10.214 -0.0096 -2.6984 -2.0484
  587MOL0     H79206   4.315   3.206  10.112 -2.3918  0.6538 -1.6435
  587MOL0     H79207   4.339   3.332  10.002 -0.4001  1.9355  1.0287
  587MOL0     H79208   4.441   3.318  10.155  0.4469 -2.2923  1.3728
  587MOL0     H79209   4.014   3.155   9.879 -0.1271  0.4289  0.4273
  587MOL0     H79210   3.871   3.003   9.745  4.5035  3.9700 -4.0199
  587MOL0     H79211   3.555   3.095   9.502 -1.1955 -0.6090  1.5879
  587MOL0     H79212   3.705   3.146   9.541 -2.5080  2.0575  1.7351
  587MOL0     H79213   3.698   2.955   9.376 -2.7829  1.6053 -0.0035
  587MOL0     H79214   3.788   2.906   9.524 -0.2366 -0.7199  1.5082
  587MOL0     H79215   3.546   2.817   9.584 -3.1288  1.5578 -0.8670
  587MOL0     H79216   3.643   2.730   9.465  1.6672  1.8277 -3.1049
  587MOL0     H79217   3.436   2.941   9.388  0.3955  0.2904 -2.0006
  587MOL0     H79218   3.515   2.823   9.279  0.5781  1.4758  0.1179
  587MOL0     H79219   3.308   2.770   9.501 -0.7487 -2.0785 -1.3223
  587MOL0     H79220   3.434   2.650   9.454 -0.8226 -1.4472  0.5954
  587MOL0     H79221   3.239   2.805   9.264 -0.5275 -0.1437 -0.0014
  587MOL0     H79222   3.338   2.676   9.213  4.7562 -0.7966  3.0465
  587MOL0     H79223   3.110   2.641   9.414 -0.0587  1.5544 -0.5507
  587MOL0     H79224   3.198   2.512   9.330 -1.3145 -1.1744  2.0047
  587MOL0     H79225   3.004   2.713   9.221  3.4303  0.8346 -1.0143
  587MOL0     H79226   3.002   2.520   9.225 -2.4174  1.0176 -3.4936
  587MOL0     H79227   3.515   3.205   9.864  0.5740  1.0446  0.9036
  587MOL0     H79228   3.647   3.313  10.055 -2.0617 -2.1989  0.5855
  587MOL0     H79229   3.936   3.521  10.246  0.6144 -0.9046  0.1930
  587MOL0     H79230   4.040   3.703  10.335 -0.8771 -1.0088  1.9985
  587MOL0     H79231   5.771   4.515  10.200 -1.9598 -1.2210  2.0746
  587MOL0     H79232   5.984   4.654  10.177 -2.4324 -1.8241 -2.1757
  587MOL0     H79233   6.327   4.882  10.682  2.3176 -1.1248  0.3956
  587MOL0     H79234   6.546   5.002  10.647 -1.7576 -2.0976  2.8720
  587MOL0     H79235   6.619   5.235  10.466  1.8679  1.6008 -2.4668
  587MOL0     H79236   6.723   5.160  10.592  0.8211  2.2937  0.4025
  587MOL0     H79237   6.800   5.362  10.452 -0.4819 -0.6600  0.8761
  587MOL0     H79238   6.788   5.258  10.307  0.8793  0.8048 -1.1124
  587MOL0     H79239   6.974   5.128  10.391  1.5780 -0.9335  1.4986
  587MOL0     H79240   6.955   5.206  10.541 -1.0894  2.9106  1.4370
  587MOL0     H79241   7.022   5.431  10.442  0.3786  0.5990 -0.4203
  587MOL0     H79242   7.069   5.361  10.289  1.5642 -0.4791  0.6513
  587MOL0     H79243   7.371   5.196  10.522 -2.4899 -0.4249  1.8436
  587MOL0     H79244   6.549   4.917  10.239  1.0152  0.8138  1.4124
  587MOL0     H79245   6.331   4.796  10.257 -2.1081 -0.1097  1.4914
  588MOL0     O79246  10.776   0.846   9.402 -0.2677 -0.3290  0.4232
  588MOL0     C79247  10.810   0.827   9.519 -0.9032 -0.6936 -0.1920
  588MOL0     O79248  10.905   0.736   9.562  0.4043 -0.1869 -0.8776
  588MOL0     C79249  11.032   0.733   9.501  0.5290  0.2606  0.0725
  588MOL0     C79250  11.099   0.613   9.522  0.5311 -0.1376  1.0346
  588MOL0     C79251  11.219   0.587   9.446 -0.4484  1.2370 -0.4558
  588MOL0     C79252  11.279   0.685   9.362 -0.0517  0.2872  0.0582
  588MOL0     O79253  11.397   0.668   9.299 -0.5478  0.7600  0.4815
  588MOL0     C79254  11.492   0.781   9.305  0.1550  0.3216 -0.9770
  588MOL0     C79255  11.578   0.771   9.432  0.1403 -0.2682  0.2659
  588MOL0     C79256  11.513   0.832   9.558  0.3536  0.3739 -0.4176
  588MOL0     C79257  11.561   0.756   9.679 -0.3997  0.5848 -0.2543
  588MOL0     C79258  11.507   0.822   9.813  0.0771 -0.2781  0.0633
  588MOL0     C79259  11.353   0.818   9.833  0.2257 -0.4661 -0.1051
  588MOL0     C79260  11.305   0.886   9.963 -0.6232  0.6429  1.3867
  588MOL0     C79261  11.167   0.846   9.974 -0.1286  0.0376 -0.1927
  588MOL0     N79262  11.094   0.914  10.087 -0.5461 -0.6379 -0.1596
  588MOL0     C79263  11.104   1.042  10.133 -0.0150 -0.1744 -0.2935
  588MOL0     C79264  11.007   1.062  10.223 -0.2059 -0.8744 -0.4543
  588MOL0     C79265  10.991   1.187  10.304  0.3460 -0.3255  0.0677
  588MOL0     C79266  10.901   1.163  10.434 -0.0974  0.1380 -0.0656
  588MOL0     C79267  10.923   1.285  10.530 -0.4652 -0.4117  0.2194
  588MOL0     C79268  10.870   1.252  10.672 -1.0469  0.5627 -0.0065
  588MOL0     O79269  10.728   1.251  10.672 -0.5321  0.4040 -0.1320
  588MOL0     C79270  10.660   1.188  10.778 -0.3797  0.1620 -0.0303
  588MOL0     C79271  10.524   1.172  10.764 -0.1344 -0.6933  0.3649
  588MOL0     C79272  10.450   1.097  10.853 -0.0206 -0.9316 -0.3211
  588MOL0     C79273  10.308   1.070  10.819 -0.8353  0.3820 -0.3867
  588MOL0     C79274  10.521   1.053  10.974  0.8758  0.0152  0.2165
  588MOL0     C79275  10.450   0.992  11.098 -0.1321  0.5319  0.5753
  588MOL0     O79276  10.327   0.939  11.083 -0.3660  0.3192  0.3756
  588MOL0     C79277  10.268   0.886  11.192 -0.1794  0.0803 -0.3707
  588MOL0     C79278  10.230   0.749  11.190  0.7644  0.3314  0.4240
  588MOL0     C79279  10.178   0.687  11.304 -0.8236  0.1604 -0.9343
  588MOL0     C79280  10.158   0.766  11.415  0.0925 -0.8906  0.0905
  588MOL0     O79281  10.114   0.693  11.523 -0.0673  0.6628  0.3696
  588MOL0     C79282   9.971   0.668  11.538  0.2577 -0.2759  0.1656
  588MOL0     C79283   9.944   0.582  11.659  0.5634  1.3000 -0.7595
  588MOL0     C79284  10.020   0.448  11.673  1.0247  0.1050  0.4715
  588MOL0     C79285  10.041   0.414  11.821  0.1796 -0.2903  1.5715
  588MOL0     C79286  10.010   0.268  11.857  0.1222 -0.2019 -0.0924
  588MOL0     C79287   9.864   0.251  11.875 -0.9218  0.1916 -0.2124
  588MOL0     C79288   9.761   0.285  11.767  0.3180 -0.0835 -1.1853
  588MOL0     C79289   9.625   0.217  11.792 -0.5934  0.4181 -0.0957
  588MOL0    Cl79290   9.565   0.224  11.959 -0.1470 -0.4265 -0.1178
  588MOL0     C79291  10.170   0.904  11.415  0.3062 -0.5121  1.7875
  588MOL0     C79292  10.236   0.966  11.301  0.5370 -1.4046 -0.7577
  588MOL0     O79293  10.508   1.002  11.208  0.2391  0.2830  0.1822
  588MOL0     C79294  10.660   1.071  10.993  0.3954  0.4789 -0.5501
  588MOL0     C79295  10.731   1.132  10.890 -0.2276 -0.1733  0.9964
  588MOL0     N79296  10.920   0.956  10.213 -0.2172  0.4532 -0.4294
  588MOL0     N79297  10.975   0.868  10.135 -0.5810  0.2511  0.0115
  588MOL0     C79298  11.213   0.803   9.353  0.8257 -0.2987 -0.4715
  588MOL0     C79299  11.094   0.827   9.421  0.6121 -0.1464  0.1117
  588MOL0     C79300  10.759   0.923   9.624 -0.1962 -0.1935  0.4344
  588MOL0     C79301  10.693   1.053   9.603 -0.4396  0.2448  0.4118
  588MOL0     C79302  10.664   1.153   9.700  0.5217  1.8854 -0.4019
  588MOL0     C79303  10.684   1.112   9.829 -0.0939 -0.4714  0.1747
  588MOL0     O79304  10.640   1.200   9.921 -0.0380 -0.0436 -0.8069
  588MOL0     C79305  10.519   1.143   9.983  0.0458  0.3971  0.0343
  588MOL0     C79306  10.379   1.168   9.902 -0.2095 -0.2027  1.2049
  588MOL0     C79307  10.370   1.320   9.893 -0.2397 -0.3828 -0.4128
  588MOL0     C79308  10.251   1.371   9.814  0.5843 -0.3148  0.4242
  588MOL0     C79309  10.256   1.319   9.680  0.5215 -0.4727 -0.0790
  588MOL0     C79310  10.272   1.301   9.562  1.2196 -0.3973  0.2066
  588MOL0     C79311  10.739   0.992   9.857 -0.4864 -0.6136  0.1633
  588MOL0     C79312  10.787   0.898   9.758  0.0356  0.1560 -0.4714
  588MOL0     H79313  11.047   0.535   9.576 -1.2167  0.4783  0.3112
  588MOL0     H79314  11.271   0.494   9.463 -0.8935  1.1323  0.3778
  588MOL0     H79315  11.565   0.771   9.225  2.2413  0.3123  0.8182
  588MOL0     H79316  11.438   0.876   9.320 -1.6820 -0.9277  0.9878
  588MOL0     H79317  11.612   0.668   9.450  1.1148 -0.1684 -0.8726
  588MOL0     H79318  11.677   0.817   9.420  1.5552 -2.2542  3.1433
  588MOL0     H79319  11.525   0.940   9.565 -0.8684  0.4754  0.2951
  588MOL0     H79320  11.408   0.808   9.544  0.6070 -4.1011  2.8935
  588MOL0     H79321  11.543   0.649   9.667 -0.6014  0.8028 -2.2551
  588MOL0     H79322  11.669   0.772   9.672 -0.0262 -0.3530  2.2403
  588MOL0     H79323  11.559   0.773   9.895  1.0199 -0.3460 -0.5583
  588MOL0     H79324  11.539   0.927   9.818 -2.5083  0.7168 -1.6442
  588MOL0     H79325  11.313   0.875   9.749 -1.3393  1.5356  1.8710
  588MOL0     H79326  11.313   0.719   9.810 -1.7118  0.1947  0.2321
  588MOL0     H79327  11.361   0.833  10.040  1.0685  0.5244  0.1368
  588MOL0     H79328  11.316   0.994   9.955 -1.6437  0.6191 -1.5140
  588MOL0     H79329  11.157   0.737   9.976 -0.3434  0.0652  1.5931
  588MOL0     H79330  11.110   0.879   9.886 -2.2798 -0.5870  0.9151
  588MOL0     H79331  11.178   1.113  10.097  0.9591 -1.1357 -0.2148
  588MOL0     H79332  11.089   1.229  10.329 -1.2254  3.2951  0.7642
  588MOL0     H79333  10.948   1.266  10.242  0.7707 -0.8760 -0.9561
  588MOL0     H79334  10.935   1.073  10.485  4.3263  0.8569 -1.3071
  588MOL0     H79335  10.796   1.143  10.416  0.1054 -0.7053 -0.3449
  588MOL0     H79336  10.861   1.362  10.484  1.1194  0.6564 -0.2239
  588MOL0     H79337  11.027   1.318  10.541 -1.7078  3.5661  1.8675
  588MOL0     H79338  10.913   1.334  10.731  0.5279  2.0442 -2.9819
  588MOL0     H79339  10.923   1.162  10.704  0.3257  1.8796  1.6644
  588MOL0     H79340  10.494   1.208  10.666 -1.2789 -0.2120  0.8731
  588MOL0     H79341  10.291   0.964  10.837  0.6132  0.2867  0.6094
  588MOL0     H79342  10.240   1.135  10.874 -0.9285 -1.9324  2.4506
  588MOL0     H79343  10.291   1.082  10.711 -2.1720 -1.4876 -0.4220
  588MOL0     H79344  10.247   0.680  11.107 -3.1120 -0.2051 -0.1398
  588MOL0     H79345  10.164   0.580  11.316 -0.9870  0.4745  3.2910
  588MOL0     H79346   9.919   0.764  11.533 -0.0060 -0.4273 -0.0566
  588MOL0     H79347   9.936   0.610  11.453 -1.6078  1.2367 -0.1734
  588MOL0     H79348   9.977   0.647  11.740  3.6867 -0.7113 -0.2273
  588MOL0     H79349   9.838   0.557  11.669  0.7121  0.6095 -0.8742
  588MOL0     H79350  10.114   0.450  11.618 -0.3095  0.8808 -1.9487
  588MOL0     H79351   9.959   0.370  11.626 -0.5728 -0.5646  3.3903
  588MOL0     H79352  10.147   0.433  11.841  0.9576 -1.2000 -1.2132
  588MOL0     H79353   9.994   0.487  11.888  2.1398 -0.3352  3.1074
  588MOL0     H79354  10.041   0.251  11.961 -3.3533 -0.6457  0.9979
  588MOL0     H79355  10.050   0.195  11.786 -0.1917  0.9345 -1.4903
  588MOL0     H79356   9.864   0.142  11.880 -0.8814 -0.0589 -3.5811
  588MOL0     H79357   9.846   0.308  11.967 -2.0660  1.4335 -1.1565
  588MOL0     H79358   9.786   0.261  11.663  2.7765 -0.7819 -0.4959
  588MOL0     H79359   9.741   0.389  11.793 -1.9654 -1.3367  2.8612
  588MOL0     H79360   9.627   0.109  11.776 -3.1447 -0.2126  2.9236
  588MOL0     H79361   9.552   0.243  11.715  0.0052 -2.6902 -1.8935
  588MOL0     H79362  10.141   0.964  11.501  2.2578  2.1255  0.7313
  588MOL0     H79363  10.254   1.072  11.290 -1.8165 -0.9199 -0.5159
  588MOL0     H79364  10.702   1.028  11.083 -0.9841  1.2538  0.5208
  588MOL0     H79365  10.836   1.142  10.917  1.3075  0.3895 -4.2267
  588MOL0     H79366  11.246   0.887   9.293  0.2831  2.0245  2.2755
  588MOL0     H79367  11.054   0.925   9.398  0.7397 -0.4727 -1.6021
  588MOL0     H79368  10.677   1.069   9.497  0.8928  1.0088  0.2985
  588MOL0     H79369  10.615   1.246   9.675 -0.8649  1.4923  0.7729
  588MOL0     H79370  10.528   1.035   9.993 -3.0951 -0.4524 -3.6736
  588MOL0     H79371  10.522   1.191  10.081 -0.0224 -1.1730  0.8398
  588MOL0     H79372  10.300   1.124   9.962  0.3060 -1.8367  0.7287
  588MOL0     H79373  10.379   1.125   9.802 -3.0354 -0.4940  1.2512
  588MOL0     H79374  10.457   1.359   9.839 -0.7736 -0.5497 -1.4342
  588MOL0     H79375  10.359   1.355   9.996  0.8884 -0.6102 -0.2008
  588MOL0     H79376  10.266   1.479   9.799  3.3298 -0.8700 -1.7399
  588MOL0     H79377  10.162   1.348   9.872  0.7382 -0.5840  0.5556
  588MOL0     H79378  10.280   1.274   9.459 -1.3583 -1.8825  0.3018
  588MOL0     H79379  10.748   0.967   9.963 -1.4732 -0.6459  0.2522
  588MOL0     H79380  10.850   0.818   9.795 -0.5856  0.5078  1.4630
  589MOL0     O79381   2.272   7.986   5.941  0.4654 -0.1768 -0.2604
  589MOL0     C79382   2.240   7.904   5.854 -0.2147  0.2413 -0.1702
  589MOL0     O79383   2.329   7.816   5.794 -0.5204 -0.1356  0.3639
  589MOL0     C79384   2.458   7.793   5.837 -0.0188 -0.4360  0.0869
  589MOL0     C79385   2.509   7.792   5.969 -0.3808 -0.3606 -0.5410
  589MOL0     C79386   2.643   7.763   5.998  0.5708  0.3035  0.5109
  589MOL0     C79387   2.738   7.721   5.904 -0.7869 -1.2287  0.7037
  589MOL0     O79388   2.865   7.692   5.946 -0.3476  0.8908  0.0347
  589MOL0     C79389   2.974   7.654   5.865  0.7319  0.0618 -0.2391
  589MOL0     C79390   3.104   7.638   5.943 -0.5422 -1.0043  0.1698
  589MOL0     C79391   3.227   7.628   5.851  0.3150 -0.0076 -0.3446
  589MOL0     C79392   3.273   7.759   5.783  0.0063 -0.2595 -0.1427
  589MOL0     C79393   3.388   7.733   5.689  0.1371 -0.7258  0.4384
  589MOL0     C79394   3.373   7.831   5.564 -0.7526  0.0468 -0.3291
  589MOL0     C79395   3.438   7.782   5.438  0.3745 -1.0962 -0.6857
  589MOL0     C79396   3.515   7.883   5.360  0.6804  0.9699 -0.4547
  589MOL0     N79397   3.596   7.807   5.262 -0.0943  0.0038 -0.0279
  589MOL0     C79398   3.731   7.794   5.275  0.6729  0.0547 -0.2930
  589MOL0     C79399   3.767   7.705   5.175 -0.0240  0.1298 -1.2131
  589MOL0     C79400   3.898   7.647   5.151  0.5872  0.1846  0.9586
  589MOL0     C79401   4.010   7.726   5.224 -0.3401 -0.5830  0.1360
  589MOL0     C79402   4.152   7.662   5.184  0.3342  0.1820  0.3298
  589MOL0     C79403   4.270   7.740   5.232  0.6203  0.0425  0.7674
  589MOL0     O79404   4.396   7.674   5.217  0.1704 -0.4283 -0.5382
  589MOL0     C79405   4.485   7.678   5.319  0.5413  0.3414 -0.7817
  589MOL0     C79406   4.618   7.706   5.281  0.7275 -0.1297  0.8724
  589MOL0     C79407   4.705   7.725   5.386  0.4089  0.1748 -0.2010
  589MOL0     C79408   4.841   7.771   5.345 -0.1385  0.1407  0.7359
  589MOL0     C79409   4.667   7.710   5.523  0.2085  0.6383 -0.2167
  589MOL0     C79410   4.755   7.746   5.638  0.6292  0.4290  0.0777
  589MOL0     O79411   4.725   7.688   5.762 -1.0390  0.4391 -0.9811
  589MOL0     C79412   4.802   7.726   5.868 -0.0072 -0.0027  0.6807
  589MOL0     C79413   4.944   7.717   5.871  0.4895 -0.4279 -0.6324
  589MOL0     C79414   5.029   7.755   5.990  0.6322 -0.1622 -0.3124
  589MOL0     C79415   4.960   7.816   6.099  0.7604  0.1652 -0.1847
  589MOL0     O79416   5.018   7.867   6.212  0.3581 -0.3450  0.0816
  589MOL0     C79417   5.156   7.895   6.211 -0.9840 -0.2946 -0.7284
  589MOL0     C79418   5.194   7.921   6.359 -0.4731 -0.1716  0.4970
  589MOL0     C79419   5.166   8.064   6.412 -0.6816 -0.1063 -0.1432
  589MOL0     C79420   5.266   8.159   6.341 -0.0665 -0.1567 -0.3477
  589MOL0     C79421   5.274   8.297   6.408 -0.1684  0.1152  0.0733
  589MOL0     C79422   5.381   8.381   6.332  0.7591 -0.5974 -0.4916
  589MOL0     C79423   5.428   8.510   6.401  0.0823  0.6676  0.0189
  589MOL0     C79424   5.313   8.567   6.486  0.1769  0.1664 -0.1110
  589MOL0    Cl79425   5.359   8.727   6.550  0.1172 -0.0574  0.3587
  589MOL0     C79426   4.817   7.818   6.096  0.0104 -0.8357 -0.5704
  589MOL0     C79427   4.740   7.778   5.985 -0.1115  0.8410 -0.8102
  589MOL0     O79428   4.832   7.835   5.623 -0.4557  0.0032 -0.4168
  589MOL0     C79429   4.541   7.658   5.550 -0.1425  0.4212  0.2428
  589MOL0     C79430   4.450   7.641   5.449  0.5624  0.0358  0.9304
  589MOL0     N79431   3.646   7.683   5.106 -0.6180  0.5704 -0.7774
  589MOL0     N79432   3.545   7.742   5.162  0.0842 -0.3785  0.1452
  589MOL0     C79433   2.691   7.704   5.770 -0.0358 -0.3671 -0.9692
  589MOL0     C79434   2.551   7.745   5.743 -0.3808 -0.6463  0.4992
  589MOL0     C79435   2.096   7.924   5.810  0.6738 -0.3406  1.0570
  589MOL0     C79436   2.024   7.810   5.771  0.0290  0.6197  0.2153
  589MOL0     C79437   1.892   7.830   5.737  0.4458  0.8367 -0.2871
  589MOL0     C79438   1.835   7.950   5.749 -0.2281  0.0195  0.4910
  589MOL0     O79439   1.707   7.988   5.712  0.4600  0.3651 -1.0934
  589MOL0     C79440   1.610   7.897   5.678  0.8953 -0.4945  0.8577
  589MOL0     C79441   1.535   7.840   5.794  0.6865  1.1037  0.6369
  589MOL0     C79442   1.461   7.937   5.879 -0.7023  0.5621  0.0707
  589MOL0     C79443   1.368   7.867   5.981 -0.0883  0.0686 -0.5739
  589MOL0     C79444   1.446   7.780   6.072  0.6421 -0.0860 -0.6039
  589MOL0     C79445   1.491   7.717   6.164  0.8522  0.3848 -0.2706
  589MOL0     C79446   1.904   8.062   5.793  0.4341 -0.1375  1.0485
  589MOL0     C79447   2.039   8.050   5.818  0.1292 -1.4756  1.2004
  589MOL0     H79448   2.444   7.819   6.052  0.0729  0.3677 -0.4217
  589MOL0     H79449   2.665   7.761   6.105  3.8717 -0.1241 -0.0558
  589MOL0     H79450   2.955   7.558   5.816 -2.7822 -0.2938  1.5047
  589MOL0     H79451   2.982   7.728   5.785 -0.8840  1.6860  1.0037
  589MOL0     H79452   3.126   7.726   6.003  0.0508 -1.3234  0.4288
  589MOL0     H79453   3.105   7.547   6.004 -3.3394 -1.1824  0.1106
  589MOL0     H79454   3.313   7.594   5.908  0.0894 -0.5127 -0.2961
  589MOL0     H79455   3.217   7.554   5.770  1.3570  0.7366 -1.1889
  589MOL0     H79456   3.191   7.807   5.729  0.3822 -0.0948 -0.5663
  589MOL0     H79457   3.291   7.827   5.867 -3.8267  0.6796  0.1279
  589MOL0     H79458   3.486   7.752   5.734  1.1658 -4.1836 -0.0886
  589MOL0     H79459   3.383   7.625   5.674 -1.3082 -0.5216 -0.8865
  589MOL0     H79460   3.270   7.853   5.537 -1.1992  1.1855  2.0055
  589MOL0     H79461   3.427   7.922   5.592  2.4014 -1.8043  0.1966
  589MOL0     H79462   3.511   7.705   5.464 -0.7421 -2.5937 -1.7881
  589MOL0     H79463   3.363   7.746   5.367 -0.1597  0.3333 -0.8795
  589MOL0     H79464   3.576   7.955   5.415  0.2732  2.3429 -1.7224
  589MOL0     H79465   3.446   7.935   5.293 -0.6856 -0.8712 -0.5690
  589MOL0     H79466   3.799   7.833   5.351 -1.1776  0.5014  1.2171
  589MOL0     H79467   3.900   7.543   5.186 -2.4168 -0.9925 -1.8693
  589MOL0     H79468   3.906   7.646   5.042 -3.7900  0.1912  0.4240
  589MOL0     H79469   4.005   7.733   5.333  1.3218  2.2868  0.1194
  589MOL0     H79470   4.009   7.827   5.182  1.0214 -0.5316  0.1650
  589MOL0     H79471   4.164   7.662   5.075  2.0687  3.0612  0.4145
  589MOL0     H79472   4.158   7.560   5.222 -0.1907 -0.4381 -1.1585
  589MOL0     H79473   4.259   7.768   5.337  4.6714  0.2338  1.3085
  589MOL0     H79474   4.291   7.841   5.193 -2.3829  1.2007  1.8568
  589MOL0     H79475   4.650   7.717   5.178 -1.5562 -1.0656 -0.0087
  589MOL0     H79476   4.851   7.879   5.354 -4.0989  0.5125  3.2739
  589MOL0     H79477   4.918   7.721   5.405 -0.9788 -1.1998  0.7377
  589MOL0     H79478   4.862   7.737   5.243  0.3563 -2.2249  1.5592
  589MOL0     H79479   4.988   7.669   5.783  0.3550 -0.7710 -0.5170
  589MOL0     H79480   5.137   7.757   5.977  0.7177  1.5841  0.5114
  589MOL0     H79481   5.217   7.824   6.155 -2.1095 -2.7223  0.9511
  589MOL0     H79482   5.168   7.993   6.163 -2.1951  1.1474  1.7145
  589MOL0     H79483   5.133   7.852   6.418 -2.4247  0.1445 -1.0371
  589MOL0     H79484   5.299   7.891   6.366 -0.8625 -1.4044  1.4556
  589MOL0     H79485   5.187   8.078   6.519 -2.2121  0.0186  0.1629
  589MOL0     H79486   5.060   8.081   6.389 -0.6509  0.4259  0.0834
  589MOL0     H79487   5.360   8.107   6.361  0.4431 -1.2877 -4.6739
  589MOL0     H79488   5.242   8.174   6.235 -1.0946  0.3041 -0.0696
  589MOL0     H79489   5.287   8.272   6.514 -3.2903 -3.4254 -0.1653
  589MOL0     H79490   5.176   8.344   6.400 -0.0449  0.2788 -0.5178
  589MOL0     H79491   5.470   8.328   6.297  2.4441  1.6105  0.1967
  589MOL0     H79492   5.325   8.413   6.243  2.1962  1.2298 -0.7965
  589MOL0     H79493   5.462   8.577   6.321  2.3511 -2.8211 -2.2123
  589MOL0     H79494   5.511   8.497   6.471  0.2303 -0.2947 -0.3265
  589MOL0     H79495   5.285   8.494   6.563  4.1659 -4.5313 -2.5899
  589MOL0     H79496   5.231   8.586   6.417  1.1965  3.5243 -0.5685
  589MOL0     H79497   4.763   7.843   6.186 -1.0037  2.6033 -1.9610
  589MOL0     H79498   4.632   7.785   5.988 -0.0171  2.8083 -0.5664
  589MOL0     H79499   4.518   7.626   5.651 -0.2931  1.9572  0.7201
  589MOL0     H79500   4.346   7.615   5.469  0.2877  0.9329  0.6950
  589MOL0     H79501   2.752   7.661   5.691  4.0577  4.7875 -1.1405
  589MOL0     H79502   2.513   7.744   5.641  0.3248 -1.1702  0.2369
  589MOL0     H79503   2.063   7.710   5.756  3.7663  2.0210 -0.3980
  589MOL0     H79504   1.826   7.746   5.714 -1.4562  1.5821  2.0523
  589MOL0     H79505   1.538   7.946   5.611 -1.3290 -1.4261  2.4417
  589MOL0     H79506   1.647   7.812   5.619  0.4401 -0.9349  1.1968
  589MOL0     H79507   1.602   7.779   5.855  1.5089  1.3631  0.0039
  589MOL0     H79508   1.459   7.774   5.750  0.1997  1.6950  0.5826
  589MOL0     H79509   1.393   8.000   5.821 -4.1897 -1.2842  1.8036
  589MOL0     H79510   1.535   8.001   5.927 -1.3500  2.0883 -0.9071
  589MOL0     H79511   1.305   7.794   5.930 -1.0500  0.5072 -0.0255
  589MOL0     H79512   1.305   7.933   6.040  0.3471 -1.3019  1.5473
  589MOL0     H79513   1.556   7.673   6.236  1.4668 -1.7720 -2.0393
  589MOL0     H79514   1.874   8.166   5.806 -1.5726 -0.8692  2.9783
  589MOL0     H79515   2.112   8.130   5.834 -0.2879 -0.8100 -0.0614
  590MOL0     O79516   2.873   9.825   7.603  0.2426  0.3330 -0.4477
  590MOL0     C79517   2.861   9.922   7.674 -0.1199  0.2797 -0.0599
  590MOL0     O79518   2.739   9.967   7.736  0.1652  0.1853 -0.4381
  590MOL0     C79519   2.624   9.910   7.695 -0.0685  0.1283 -0.4303
  590MOL0     C79520   2.594   9.781   7.726  0.6506  0.0875 -1.2853
  590MOL0     C79521   2.479   9.725   7.678  0.6438  0.2708 -0.7704
  590MOL0     C79522   2.389   9.797   7.605 -0.3579 -0.7789  0.1434
  590MOL0     O79523   2.276   9.729   7.559 -0.0522 -0.4541 -0.8134
  590MOL0     C79524   2.168   9.814   7.516  0.2802  0.6238  0.0243
  590MOL0     C79525   2.062   9.728   7.476  0.3682  0.1419  0.4170
  590MOL0     C79526   1.985   9.666   7.597  0.6338  0.4282 -0.3174
  590MOL0     C79527   1.883   9.565   7.559  0.6545  0.3283 -0.3161
  590MOL0     C79528   1.834   9.498   7.686 -0.1077  0.2806  0.0202
  590MOL0     C79529   1.705   9.428   7.682  0.7349 -0.8184  0.9050
  590MOL0     C79530   1.661   9.349   7.808  0.7319 -0.5879 -0.4975
  590MOL0     C79531   1.758   9.257   7.876 -0.7884 -0.1265 -0.6827
  590MOL0     N79532   1.777   9.142   7.775 -0.4926 -0.0241 -0.2619
  590MOL0     C79533   1.705   9.019   7.780 -0.6473  0.2758  0.5964
  590MOL0     C79534   1.779   8.944   7.689 -0.7681  0.2722 -0.9896
  590MOL0     C79535   1.744   8.814   7.624 -0.3123  0.5576 -0.6320
  590MOL0     C79536   1.597   8.806   7.576  0.0684  0.6797 -0.1875
  590MOL0     C79537   1.582   8.869   7.437 -0.5463  0.3702  0.2718
  590MOL0     C79538   1.576   9.023   7.426 -0.8298  0.2353  0.5903
  590MOL0     O79539   1.471   9.059   7.505  0.0397  0.1164 -0.7250
  590MOL0     C79540   1.428   9.187   7.501 -0.9949 -0.3994  0.3494
  590MOL0     C79541   1.489   9.288   7.418 -0.0374  1.1430  0.1961
  590MOL0     C79542   1.450   9.420   7.425  0.3335  0.0453  0.5412
  590MOL0     C79543   1.498   9.501   7.312 -0.2812  0.7254 -0.4706
  590MOL0     C79544   1.367   9.469   7.528  0.5215  0.0122  0.2735
  590MOL0     C79545   1.322   9.612   7.554 -0.6447 -0.7697  0.2804
  590MOL0     O79546   1.354   9.708   7.453  0.6806  0.3955  0.2280
  590MOL0     C79547   1.295   9.838   7.469  0.6611  1.2421 -0.2004
  590MOL0     C79548   1.386   9.940   7.472 -0.2683  0.8464 -0.2330
  590MOL0     C79549   1.335  10.073   7.488  0.6768  0.1502  0.3935
  590MOL0     C79550   1.195  10.098   7.506  0.6719 -0.9014  0.3257
  590MOL0     O79551   1.169  10.230   7.530 -0.0831 -0.1002  0.3809
  590MOL0     C79552   1.055  10.256   7.624 -0.3717  0.3192 -0.3902
  590MOL0     C79553   1.031  10.399   7.610 -0.3349 -0.7633  0.5560
  590MOL0     C79554   0.937  10.457   7.717 -0.2222 -0.2937  0.5991
  590MOL0     C79555   0.921  10.608   7.698  0.2097  1.3311  0.3570
  590MOL0     C79556   0.827  10.646   7.811  0.5647 -1.1886  0.4766
  590MOL0     C79557   0.681  10.604   7.779 -0.4214 -0.2950 -0.5578
  590MOL0     C79558   0.589  10.673   7.883 -0.6650  0.2321  0.3059
  590MOL0     C79559   0.442  10.631   7.893  1.1685 -0.4800 -0.0224
  590MOL0    Cl79560   0.347  10.751   7.807 -0.1741 -0.3980  0.6586
  590MOL0     C79561   1.111   9.993   7.496 -0.1283 -1.0112 -0.3610
  590MOL0     C79562   1.155   9.855   7.480 -0.6374  0.0245  0.1897
  590MOL0     O79563   1.258   9.626   7.656  0.4000 -0.7651  0.1627
  590MOL0     C79564   1.313   9.372   7.615 -0.0201  0.7071 -0.4494
  590MOL0     C79565   1.329   9.231   7.589  0.7195  0.5135  0.4703
  590MOL0     N79566   1.882   9.022   7.639  0.0819  0.0867  0.0330
  590MOL0     N79567   1.883   9.138   7.697 -0.9310  0.5137  0.8091
  590MOL0     C79568   2.419   9.930   7.575 -0.0912 -0.6333 -0.1266
  590MOL0     C79569   2.538   9.991   7.619 -0.7044  0.1117 -0.0754
  590MOL0     C79570   2.984  10.004   7.702 -0.3169  0.3858 -0.9650
  590MOL0     C79571   2.980  10.102   7.804  0.7326 -1.1626  0.0922
  590MOL0     C79572   3.100  10.169   7.846 -0.0360 -0.5018  0.6871
  590MOL0     C79573   3.219  10.142   7.784 -0.0340  0.7242 -0.3001
  590MOL0     O79574   3.324  10.216   7.823  0.0364  0.5257  0.6267
  590MOL0     C79575   3.402  10.286   7.720  0.0733  0.6165  0.6545
  590MOL0     C79576   3.354  10.427   7.709  0.1704 -0.1460 -0.0104
  590MOL0     C79577   3.380  10.512   7.836 -0.1951  0.0756 -0.0335
  590MOL0     C79578   3.339  10.659   7.811  0.5038  0.0254 -0.8767
  590MOL0     C79579   3.369  10.732   7.932  0.5089 -0.0379  0.2967
  590MOL0     C79580   3.391  10.773   8.042  0.4886  0.1929  0.0074
  590MOL0     C79581   3.233  10.048   7.682 -0.5726  0.0490  0.0575
  590MOL0     C79582   3.115   9.977   7.639  0.4472 -0.2694 -1.2219
  590MOL0     H79583   2.663   9.724   7.789 -1.4306 -2.5591 -1.2229
  590MOL0     H79584   2.469   9.618   7.693  1.2491  0.0512 -1.8078
  590MOL0     H79585   2.143   9.878   7.601  2.8056  0.2572  1.1089
  590MOL0     H79586   2.207   9.872   7.432 -1.1215  0.6583 -0.6291
  590MOL0     H79587   1.993   9.791   7.418 -1.3139 -1.6685  0.3513
  590MOL0     H79588   2.100   9.647   7.414  2.0420  0.6581  0.7093
  590MOL0     H79589   2.052   9.611   7.664  0.9927  2.2065  0.8480
  590MOL0     H79590   1.938   9.748   7.652 -1.7111 -1.5151  0.8231
  590MOL0     H79591   1.803   9.625   7.513  0.4554  0.7690  0.5682
  590MOL0     H79592   1.925   9.489   7.493  2.6009  1.7802 -0.8343
  590MOL0     H79593   1.901   9.421   7.726  0.2536 -0.1358 -1.3488
  590MOL0     H79594   1.825   9.572   7.767 -5.7418 -2.7162  2.8009
  590MOL0     H79595   1.633   9.508   7.662  3.8000  2.0089  0.4290
  590MOL0     H79596   1.692   9.353   7.603 -0.4259  0.5647 -0.2685
  590MOL0     H79597   1.635   9.430   7.877 -1.6249 -0.8973 -0.9674
  590MOL0     H79598   1.578   9.287   7.775  0.1461  0.5871 -1.3153
  590MOL0     H79599   1.716   9.214   7.967 -0.0572  2.8766  1.1943
  590MOL0     H79600   1.858   9.298   7.894 -0.6226 -0.6364 -0.4296
  590MOL0     H79601   1.604   9.002   7.816  0.2376 -2.6433  2.0547
  590MOL0     H79602   1.802   8.787   7.536 -2.9814 -3.7809 -1.3832
  590MOL0     H79603   1.752   8.727   7.690 -1.2020 -0.4196 -1.7802
  590MOL0     H79604   1.524   8.850   7.644 -1.0833 -1.3843 -0.0013
  590MOL0     H79605   1.575   8.699   7.580  0.9331  0.5460  2.7089
  590MOL0     H79606   1.488   8.824   7.403 -1.0749  0.1897  1.8655
  590MOL0     H79607   1.659   8.840   7.365  0.9317  2.4809  0.9371
  590MOL0     H79608   1.560   9.044   7.320  1.4984  0.2206  0.1785
  590MOL0     H79609   1.660   9.083   7.462  0.8409 -0.9553 -1.1172
  590MOL0     H79610   1.560   9.253   7.344 -1.1761 -1.9105  0.3675
  590MOL0     H79611   1.532   9.441   7.227 -2.1715  0.1845 -0.9043
  590MOL0     H79612   1.410   9.549   7.268 -0.6851  0.7615  0.3590
  590MOL0     H79613   1.565   9.584   7.335 -1.6790  1.9935 -0.8282
  590MOL0     H79614   1.493   9.929   7.454  0.1842 -0.2048  2.5400
  590MOL0     H79615   1.407  10.154   7.486 -0.6190  1.3896 -2.6678
  590MOL0     H79616   0.958  10.210   7.602 -0.1150 -0.9457  0.9356
  590MOL0     H79617   1.073  10.231   7.729  1.2607  1.2087 -0.4340
  590MOL0     H79618   1.129  10.441   7.633 -1.0424  0.0559  2.2176
  590MOL0     H79619   1.003  10.430   7.509 -1.0886  0.4026  1.1013
  590MOL0     H79620   0.972  10.439   7.819 -0.2791 -0.3832  0.6033
  590MOL0     H79621   0.844  10.400   7.714 -0.3474 -0.1306  1.2546
  590MOL0     H79622   1.026  10.640   7.709  0.6478 -0.7477  3.5265
  590MOL0     H79623   0.878  10.646   7.605 -0.0639  1.5959  0.5879
  590MOL0     H79624   0.838  10.755   7.809 -0.7098 -1.0525 -0.5239
  590MOL0     H79625   0.865  10.599   7.902 -0.0585 -4.4448 -0.7752
  590MOL0     H79626   0.652  10.636   7.679 -2.3867  1.2962  0.4366
  590MOL0     H79627   0.659  10.497   7.776  0.3511 -0.5157  0.6627
  590MOL0     H79628   0.585  10.781   7.869  2.1949  0.6499  2.0211
  590MOL0     H79629   0.642  10.649   7.975  2.3949  2.2239 -0.8192
  590MOL0     H79630   0.414  10.629   7.998  1.7380 -1.2874  0.1239
  590MOL0     H79631   0.428  10.532   7.849  0.2942 -0.1004 -0.6156
  590MOL0     H79632   1.008  10.016   7.521  0.6383  0.6448  1.5626
  590MOL0     H79633   1.093   9.767   7.471 -0.4722 -0.0887  0.1460
  590MOL0     H79634   1.258   9.399   7.704  0.7794 -2.3099  1.0594
  590MOL0     H79635   1.280   9.150   7.642 -0.8123  0.3563 -1.1165
  590MOL0     H79636   2.352   9.984   7.509 -0.1762 -0.2426  0.2748
  590MOL0     H79637   2.569  10.094   7.600 -2.4041  0.9952  1.6668
  590MOL0     H79638   2.889  10.113   7.862 -0.1664 -1.9170 -1.1502
  590MOL0     H79639   3.088  10.244   7.925 -0.3704  0.3945 -0.1907
  590MOL0     H79640   3.504  10.288   7.759  0.3230 -2.3898  0.3974
  590MOL0     H79641   3.403  10.250   7.617 -0.9810 -2.1672  1.5448
  590MOL0     H79642   3.249  10.440   7.681  0.7958  0.7742 -2.1381
  590MOL0     H79643   3.415  10.472   7.630 -0.2897 -0.0971 -0.3363
  590MOL0     H79644   3.481  10.503   7.876  0.1611  2.5250 -0.2342
  590MOL0     H79645   3.322  10.470   7.919  2.8362 -1.0880  1.6501
  590MOL0     H79646   3.231  10.671   7.797  0.1461 -0.3708  1.2917
  590MOL0     H79647   3.387  10.712   7.727 -1.9632  2.5279 -0.8374
  590MOL0     H79648   3.423  10.793   8.142 -0.1409 -4.1061  1.2833
  590MOL0     H79649   3.333  10.035   7.642 -1.3165 -0.6385 -1.6484
  590MOL0     H79650   3.136   9.908   7.558  0.9440 -0.6463 -0.7723
  591MOL0     O79651   3.269   2.516   8.053  0.0897  0.0537 -0.0306
  591MOL0     C79652   3.347   2.510   8.147 -0.8700  0.4954 -0.1098
  591MOL0     O79653   3.321   2.515   8.283  0.3442 -0.1724 -0.3155
  591MOL0     C79654   3.192   2.543   8.321 -0.6938  1.1883 -0.5402
  591MOL0     C79655   3.089   2.455   8.298 -0.5567 -0.0597 -0.2739
  591MOL0     C79656   2.959   2.486   8.335  0.2591 -1.0286  0.2384
  591MOL0     C79657   2.936   2.597   8.411  0.2946 -0.5059  0.1636
  591MOL0     O79658   2.810   2.625   8.455 -1.1362 -0.1694  0.5521
  591MOL0     C79659   2.696   2.533   8.435 -0.4038 -0.8798 -0.0522
  591MOL0     C79660   2.582   2.574   8.524 -0.0178  0.0527  0.5490
  591MOL0     C79661   2.459   2.487   8.511  0.2660  1.4473 -0.5023
  591MOL0     C79662   2.330   2.560   8.529  0.2580  1.3915 -0.4173
  591MOL0     C79663   2.213   2.463   8.489 -0.6570 -0.0987  0.2407
  591MOL0     C79664   2.065   2.519   8.494  0.6721 -0.3143  0.1110
  591MOL0     C79665   1.962   2.411   8.459 -0.7814  0.2432  0.3906
  591MOL0     C79666   1.895   2.343   8.580  0.0068  0.6349 -0.3854
  591MOL0     N79667   1.800   2.425   8.659  0.6473  0.4591 -0.0372
  591MOL0     C79668   1.665   2.438   8.632  0.6175 -1.1135  0.5299
  591MOL0     C79669   1.619   2.529   8.721 -1.2055 -0.0109  0.4913
  591MOL0     C79670   1.485   2.591   8.715  0.2734 -0.5570  0.5156
  591MOL0     C79671   1.460   2.716   8.636 -0.6864 -0.0247  0.1494
  591MOL0     C79672   1.424   2.693   8.488  0.0061  0.0913 -0.2350
  591MOL0     C79673   1.291   2.613   8.486 -0.1442  1.1237  0.7883
  591MOL0     O79674   1.227   2.647   8.362 -0.1828  0.3102  0.0675
  591MOL0     C79675   1.122   2.728   8.344  0.0886 -0.1512 -0.2714
  591MOL0     C79676   1.096   2.766   8.213 -0.1904  0.8168 -0.7071
  591MOL0     C79677   0.999   2.866   8.188 -0.4828 -1.0734 -0.1634
  591MOL0     C79678   0.994   2.900   8.044 -0.4185 -1.6907 -0.3330
  591MOL0     C79679   0.928   2.924   8.304 -0.7647 -0.0248  0.3532
  591MOL0     C79680   0.804   3.011   8.280 -0.9697  0.0005 -0.1744
  591MOL0     O79681   0.742   3.062   8.393 -0.4620 -0.6692  0.2344
  591MOL0     C79682   0.623   3.129   8.381 -0.0640  0.2734 -0.0827
  591MOL0     C79683   0.603   3.256   8.319  0.1139 -0.1640  0.5104
  591MOL0     C79684   0.477   3.310   8.317  0.7638  0.0928 -0.1598
  591MOL0     C79685   0.363   3.254   8.359  0.7768  0.4407 -0.9228
  591MOL0     O79686   0.241   3.317   8.352 -0.3237 -0.4241 -1.0218
  591MOL0     C79687   0.116   3.269   8.389 -0.3773  0.2999  0.3796
  591MOL0     C79688   0.030   3.386   8.347 -0.0382 -0.2071 -0.4016
  591MOL0     C79689  -0.118   3.377   8.397 -0.7992 -0.1306  0.4644
  591MOL0     C79690  -0.200   3.283   8.303  1.2043  0.1243 -0.0330
  591MOL0     C79691  -0.346   3.300   8.336 -0.3722 -0.1042  0.2939
  591MOL0     C79692  -0.430   3.166   8.318  0.2444  0.3734  0.2204
  591MOL0     C79693  -0.574   3.187   8.369  0.2408  0.0498 -0.5593
  591MOL0     C79694  -0.651   3.064   8.333  0.2540  1.4765  0.2925
  591MOL0    Cl79695  -0.813   3.084   8.405  0.1724  0.2737  0.1460
  591MOL0     C79696   0.375   3.124   8.417 -0.1368 -0.1525  0.7803
  591MOL0     C79697   0.513   3.067   8.435  0.3106  0.6666 -0.3686
  591MOL0     O79698   0.761   3.022   8.172 -0.0645 -0.3329 -0.1012
  591MOL0     C79699   0.965   2.890   8.435  0.4592 -0.7613  0.1904
  591MOL0     C79700   1.048   2.779   8.446 -0.0630  0.0415  0.2583
  591MOL0     N79701   1.723   2.559   8.811 -0.1173 -0.4114  0.3458
  591MOL0     N79702   1.827   2.478   8.784 -0.5329  0.8712  1.0095
  591MOL0     C79703   3.044   2.692   8.442  0.2580  0.3633 -0.7849
  591MOL0     C79704   3.168   2.664   8.384 -0.1081  0.2562 -0.3462
  591MOL0     C79705   3.484   2.532   8.104 -1.7112 -0.4541 -0.4497
  591MOL0     C79706   3.595   2.495   8.190 -0.2681  0.0451  0.3172
  591MOL0     C79707   3.728   2.522   8.149  0.2966  0.2659 -0.0870
  591MOL0     C79708   3.754   2.583   8.028  0.7473  0.1636  0.2905
  591MOL0     O79709   3.881   2.614   7.988 -0.0872 -0.3144  0.0916
  591MOL0     C79710   3.944   2.704   8.086  0.7502  0.7611  0.6131
  591MOL0     C79711   4.033   2.806   8.012  0.8104  0.4290 -1.0311
  591MOL0     C79712   4.130   2.754   7.909  0.8405 -0.8172  0.7245
  591MOL0     C79713   4.198   2.882   7.855  0.7887 -0.4385 -1.1420
  591MOL0     C79714   4.311   2.853   7.771  1.3403  0.5248  0.1238
  591MOL0     C79715   4.398   2.815   7.698  0.2155  0.1538 -0.0815
  591MOL0     C79716   3.645   2.603   7.933  0.8323  0.5679 -0.2775
  591MOL0     C79717   3.517   2.569   7.970 -0.1086 -0.6141 -0.0405
  591MOL0     H79718   3.102   2.365   8.239 -0.9795  0.7889 -1.7013
  591MOL0     H79719   2.869   2.426   8.322 -0.8263  0.5312  0.3482
  591MOL0     H79720   2.670   2.526   8.329 -0.4079 -1.6655 -0.0068
  591MOL0     H79721   2.727   2.433   8.469 -0.1233 -1.1138 -0.9786
  591MOL0     H79722   2.611   2.545   8.625 -2.2686  0.1507  1.2798
  591MOL0     H79723   2.561   2.681   8.514 -2.1790 -0.4868 -1.7728
  591MOL0     H79724   2.457   2.444   8.411 -2.4337  2.5418 -1.0028
  591MOL0     H79725   2.459   2.407   8.585 -2.1274  0.8435 -1.0694
  591MOL0     H79726   2.310   2.610   8.624 -3.5540  1.7369 -1.2262
  591MOL0     H79727   2.325   2.639   8.453 -2.9048  0.2882 -1.5342
  591MOL0     H79728   2.231   2.431   8.385 -0.4851 -2.4164  0.9197
  591MOL0     H79729   2.212   2.374   8.553 -2.3654  0.2416  0.7435
  591MOL0     H79730   2.047   2.571   8.589 -3.0487  1.8601 -1.5529
  591MOL0     H79731   2.046   2.600   8.423 -4.8819 -1.9920 -0.8141
  591MOL0     H79732   1.890   2.450   8.386 -2.5462 -1.2468  1.2462
  591MOL0     H79733   2.005   2.340   8.389 -0.5537  2.7075 -2.1817
  591MOL0     H79734   1.964   2.290   8.646 -1.2521  0.9979  1.2834
  591MOL0     H79735   1.838   2.256   8.544  2.0705 -1.5322  1.3276
  591MOL0     H79736   1.602   2.412   8.548  0.0297 -2.7272  1.4306
  591MOL0     H79737   1.408   2.518   8.688  0.2803  0.7289 -3.8139
  591MOL0     H79738   1.458   2.627   8.814  0.2143 -1.6370  0.9087
  591MOL0     H79739   1.546   2.784   8.639 -0.2825 -0.2760 -2.9904
  591MOL0     H79740   1.379   2.770   8.686  1.0220  0.5418  2.4986
  591MOL0     H79741   1.509   2.643   8.440  0.7270  1.0908 -0.0360
  591MOL0     H79742   1.405   2.784   8.432  1.4212 -1.0925 -2.7719
  591MOL0     H79743   1.229   2.628   8.575 -1.3281 -0.7054  0.3447
  591MOL0     H79744   1.313   2.506   8.477 -0.6404  0.9991  1.0004
  591MOL0     H79745   1.162   2.721   8.139  0.9981 -3.4313  2.5089
  591MOL0     H79746   0.967   3.005   8.024 -0.1247 -1.7485 -1.0434
  591MOL0     H79747   1.085   2.888   7.986 -0.5544 -0.8149 -0.7527
  591MOL0     H79748   0.923   2.833   7.995 -1.3513 -0.2270 -1.0805
  591MOL0     H79749   0.698   3.303   8.296  0.6788  0.0028  2.8863
  591MOL0     H79750   0.468   3.414   8.288 -0.8881 -0.1494 -0.5881
  591MOL0     H79751   0.099   3.180   8.328 -1.1467  0.8962 -0.3048
  591MOL0     H79752   0.105   3.252   8.496 -3.7896  4.0376  0.8690
  591MOL0     H79753   0.066   3.478   8.393 -1.0614  1.4375 -2.7095
  591MOL0     H79754   0.040   3.391   8.238  2.0265  2.2968 -0.1770
  591MOL0     H79755  -0.155   3.480   8.394 -0.5548 -0.0104  1.5158
  591MOL0     H79756  -0.112   3.354   8.503  0.8213 -1.2177  0.1839
  591MOL0     H79757  -0.191   3.320   8.200  2.0231  1.7246  0.5863
  591MOL0     H79758  -0.181   3.176   8.306 -1.7600 -0.5038 -0.1650
  591MOL0     H79759  -0.390   3.376   8.270 -1.1063  0.8298  1.8191
  591MOL0     H79760  -0.361   3.331   8.439 -0.2208 -0.6815  0.4935
  591MOL0     H79761  -0.417   3.147   8.211  5.4449 -1.2978  0.8725
  591MOL0     H79762  -0.388   3.085   8.378 -0.5584 -0.2265 -0.0081
  591MOL0     H79763  -0.634   3.274   8.339 -2.5374 -1.6487 -0.3121
  591MOL0     H79764  -0.568   3.183   8.478 -0.6320 -1.4852 -0.5481
  591MOL0     H79765  -0.603   2.974   8.372 -3.4055 -0.0010  1.8916
  591MOL0     H79766  -0.647   3.052   8.225 -0.5546  0.2557  0.3826
  591MOL0     H79767   0.294   3.059   8.449 -0.6484  0.9953  1.9149
  591MOL0     H79768   0.529   2.971   8.481 -0.3246  0.7078 -0.0649
  591MOL0     H79769   0.920   2.934   8.523  2.0865  0.3375  0.5211
  591MOL0     H79770   1.066   2.755   8.550  1.8928 -1.0087 -0.2816
  591MOL0     H79771   3.005   2.767   8.510  0.0266 -0.4457 -0.0055
  591MOL0     H79772   3.249   2.734   8.401 -0.0395 -0.4648  2.8190
  591MOL0     H79773   3.580   2.454   8.290 -3.5750  0.8101  0.2720
  591MOL0     H79774   3.800   2.483   8.220  0.3845 -1.3370 -0.9885
  591MOL0     H79775   3.866   2.758   8.141  0.6272 -0.7792  2.0446
  591MOL0     H79776   4.006   2.647   8.156  0.4098 -1.4938 -0.8228
  591MOL0     H79777   4.091   2.861   8.087  2.7051 -1.5102 -1.0012
  591MOL0     H79778   3.963   2.876   7.965 -2.7665 -0.8679  1.9767
  591MOL0     H79779   4.075   2.699   7.833  0.1817 -0.8176  1.1969
  591MOL0     H79780   4.209   2.690   7.951  3.1148  1.3968  0.1015
  591MOL0     H79781   4.239   2.925   7.947 -2.8079 -0.9203  0.8844
  591MOL0     H79782   4.125   2.953   7.816 -0.1164  0.3337  1.6881
  591MOL0     H79783   4.477   2.781   7.634  1.0974 -1.1797  1.6196
  591MOL0     H79784   3.653   2.634   7.829 -1.7045  0.6443 -0.5103
  591MOL0     H79785   3.453   2.560   7.883  0.2240 -1.1757 -0.2264
  592MOL0     O79786   5.953   2.064   0.774  0.2371 -0.3684 -0.3873
  592MOL0     C79787   5.999   2.167   0.733 -0.6462 -1.3866 -0.1151
  592MOL0     O79788   5.947   2.295   0.748  0.6369 -0.2457 -0.4861
  592MOL0     C79789   5.843   2.315   0.838 -0.5835 -1.1746  0.3105
  592MOL0     C79790   5.784   2.439   0.807 -0.3187  0.2280  0.3443
  592MOL0     C79791   5.679   2.479   0.895 -1.6297  0.3500  0.3067
  592MOL0     C79792   5.665   2.424   1.023 -0.4198 -0.0056  0.5236
  592MOL0     O79793   5.598   2.466   1.131 -0.1944  0.1486 -0.4296
  592MOL0     C79794   5.494   2.556   1.120 -0.0061 -0.0409  0.2957
  592MOL0     C79795   5.425   2.584   1.255  0.4438 -0.3119 -0.4284
  592MOL0     C79796   5.307   2.674   1.245  0.7948  0.0260  0.4086
  592MOL0     C79797   5.242   2.679   1.378  0.0103  0.0422 -0.3292
  592MOL0     C79798   5.197   2.820   1.418  0.5821 -0.5421  0.0510
  592MOL0     C79799   5.040   2.834   1.402  0.1416 -0.0331 -1.0699
  592MOL0     C79800   4.964   2.822   1.538  0.3831 -1.2207  0.9462
  592MOL0     C79801   4.963   2.680   1.607 -0.3497  0.3053 -0.5248
  592MOL0     N79802   4.889   2.579   1.530  0.6745 -1.7558  0.9246
  592MOL0     C79803   4.764   2.597   1.460 -0.0491 -0.5718 -0.4086
  592MOL0     C79804   4.733   2.460   1.445  0.5771  0.3067  0.0714
  592MOL0     C79805   4.612   2.429   1.359  0.5153  0.2413 -0.4432
  592MOL0     C79806   4.470   2.463   1.416 -0.8088  0.4761 -0.5655
  592MOL0     C79807   4.442   2.376   1.544  0.2365  0.3164  1.1364
  592MOL0     C79808   4.293   2.404   1.582  0.1105 -0.0087  0.2254
  592MOL0     O79809   4.255   2.317   1.696  0.3286  0.0173 -0.4175
  592MOL0     C79810   4.149   2.353   1.770  0.2138  0.2151  0.3125
  592MOL0     C79811   4.075   2.474   1.758 -0.2617 -0.0871 -0.1846
  592MOL0     C79812   3.954   2.492   1.841 -1.0077  0.1997  0.7215
  592MOL0     C79813   3.879   2.623   1.830 -0.0729  0.0077  0.0816
  592MOL0     C79814   3.897   2.385   1.916 -0.3907 -0.9849 -0.4280
  592MOL0     C79815   3.769   2.406   1.985 -0.1474  0.3749  0.4454
  592MOL0     O79816   3.665   2.427   1.889 -0.0169  0.6190  0.2228
  592MOL0     C79817   3.539   2.427   1.949 -0.1102 -0.0775  0.4528
  592MOL0     C79818   3.475   2.550   1.954 -0.4092 -0.7401 -0.0336
  592MOL0     C79819   3.340   2.563   2.003 -0.4934  0.5019 -0.9236
  592MOL0     C79820   3.274   2.448   2.046 -0.5146 -1.2291  0.3179
  592MOL0     O79821   3.136   2.446   2.073 -1.1108 -0.3425 -0.6740
  592MOL0     C79822   3.081   2.564   2.143 -0.1271  0.1050  0.2002
  592MOL0     C79823   2.936   2.531   2.183 -0.0780 -0.4034  0.2094
  592MOL0     C79824   2.930   2.409   2.277  0.5638  0.6939  0.7854
  592MOL0     C79825   2.797   2.345   2.290 -0.0892 -0.2741 -0.9434
  592MOL0     C79826   2.807   2.206   2.354 -0.1771  0.0829  0.0000
  592MOL0     C79827   2.780   2.202   2.507  0.2788 -0.1083 -0.0617
  592MOL0     C79828   2.634   2.251   2.544  1.0544 -0.2393 -0.6839
  592MOL0     C79829   2.519   2.156   2.505  0.1136 -0.3513 -0.0236
  592MOL0    Cl79830   2.483   2.166   2.338  0.3174  0.0087  0.0423
  592MOL0     C79831   3.340   2.322   2.033 -0.6417  0.4126 -0.6634
  592MOL0     C79832   3.471   2.312   1.991  0.3921  0.3289  0.1547
  592MOL0     O79833   3.758   2.381   2.110 -0.9244 -0.2077  0.4776
  592MOL0     C79834   3.984   2.285   1.941 -1.1635 -0.2539  0.4219
  592MOL0     C79835   4.108   2.268   1.875  0.2305 -1.1430 -0.2605
  592MOL0     N79836   4.822   2.378   1.509  0.5833 -0.3048  0.3820
  592MOL0     N79837   4.923   2.450   1.549 -0.0223 -0.8786  0.1114
  592MOL0     C79838   5.745   2.315   1.053  0.7741  0.0798  0.5362
  592MOL0     C79839   5.836   2.258   0.961 -0.0759 -0.5743 -0.0814
  592MOL0     C79840   6.131   2.168   0.678 -0.3089  0.2576 -0.6775
  592MOL0     C79841   6.209   2.049   0.646  0.3144 -0.0393  0.2981
  592MOL0     C79842   6.338   2.050   0.600 -0.4254 -0.6959  0.2630
  592MOL0     C79843   6.404   2.170   0.580  0.9107  0.2271 -0.5823
  592MOL0     O79844   6.530   2.159   0.530 -0.5649  0.7591 -0.0256
  592MOL0     C79845   6.630   2.260   0.543 -0.8429  0.1976 -0.5903
  592MOL0     C79846   6.697   2.300   0.411  1.0911  0.9513  0.7519
  592MOL0     C79847   6.696   2.173   0.312  0.3921 -0.1010  0.2511
  592MOL0     C79848   6.725   2.219   0.173 -0.5256 -1.3969  0.8334
  592MOL0     C79849   6.872   2.255   0.167  0.2744 -0.3010 -0.4212
  592MOL0     C79850   6.996   2.292   0.159 -0.4329  0.5316 -0.8045
  592MOL0     C79851   6.338   2.289   0.608 -0.3079 -0.7958 -0.4453
  592MOL0     C79852   6.203   2.290   0.660  0.3941  0.5691 -0.0092
  592MOL0     H79853   5.805   2.493   0.715 -1.9534  0.9056  0.3336
  592MOL0     H79854   5.612   2.561   0.871 -0.1037  2.3450  2.3812
  592MOL0     H79855   5.542   2.648   1.084 -2.2711  1.1947  0.2391
  592MOL0     H79856   5.421   2.512   1.052  1.2188  0.5361 -1.4741
  592MOL0     H79857   5.387   2.496   1.306  0.1798  1.1563  2.0345
  592MOL0     H79858   5.499   2.639   1.313 -0.5365  3.0435 -2.0913
  592MOL0     H79859   5.346   2.772   1.214  0.3612 -0.5270 -2.0760
  592MOL0     H79860   5.235   2.644   1.169  0.5078 -2.4792  1.5724
  592MOL0     H79861   5.168   2.599   1.381 -1.1764  1.0873 -1.0802
  592MOL0     H79862   5.315   2.659   1.458 -0.1138 -1.9922 -0.6895
  592MOL0     H79863   5.219   2.846   1.522  1.7791  0.9143 -0.5313
  592MOL0     H79864   5.248   2.893   1.355  0.4335 -1.3952 -1.0712
  592MOL0     H79865   5.029   2.938   1.369 -2.0078  0.0248 -0.3229
  592MOL0     H79866   5.015   2.757   1.329  0.2498  0.8443 -2.0551
  592MOL0     H79867   4.988   2.901   1.609  1.7608 -0.1159 -0.6594
  592MOL0     H79868   4.861   2.833   1.502  0.4834 -1.1633  0.6755
  592MOL0     H79869   4.910   2.698   1.702  0.3299 -1.5054  0.2507
  592MOL0     H79870   5.062   2.644   1.638  0.2328  1.7570 -0.6290
  592MOL0     H79871   4.716   2.686   1.421  1.7326  0.1686 -1.0129
  592MOL0     H79872   4.618   2.489   1.268  0.8236  3.3503  1.5032
  592MOL0     H79873   4.600   2.324   1.329 -1.0801 -0.2784  1.7344
  592MOL0     H79874   4.391   2.460   1.340 -0.7699  4.7533 -1.0279
  592MOL0     H79875   4.477   2.563   1.459  1.7199 -1.5541  4.6850
  592MOL0     H79876   4.510   2.388   1.628  0.5525 -1.3421  1.1545
  592MOL0     H79877   4.454   2.270   1.521  2.1393  1.1729 -2.6347
  592MOL0     H79878   4.226   2.393   1.497  1.6750  0.2277 -1.0821
  592MOL0     H79879   4.298   2.510   1.607 -0.0164  0.4722 -1.6711
  592MOL0     H79880   4.094   2.549   1.682 -1.3659  0.2075 -0.1776
  592MOL0     H79881   3.827   2.618   1.734  1.9072  1.8385 -1.1872
  592MOL0     H79882   3.814   2.647   1.914 -1.7512 -0.3571 -1.0556
  592MOL0     H79883   3.948   2.708   1.822  0.6098 -0.6208 -1.1220
  592MOL0     H79884   3.532   2.636   1.920  0.8854 -1.6214 -0.1708
  592MOL0     H79885   3.292   2.660   1.999  1.9191  1.8230 -0.3378
  592MOL0     H79886   3.134   2.586   2.236 -2.2778 -2.3268  2.1329
  592MOL0     H79887   3.074   2.646   2.071 -2.8414  0.4265  0.7308
  592MOL0     H79888   2.896   2.621   2.232  0.8802  0.0295  0.2336
  592MOL0     H79889   2.866   2.520   2.100  0.1972 -0.9535  0.0479
  592MOL0     H79890   2.958   2.433   2.380 -1.8458 -0.2677  1.7434
  592MOL0     H79891   3.000   2.334   2.240 -1.0141 -0.2739 -0.3614
  592MOL0     H79892   2.734   2.410   2.351  2.6203 -0.5808  2.4852
  592MOL0     H79893   2.755   2.323   2.191 -1.6268 -2.3805  0.0854
  592MOL0     H79894   2.903   2.159   2.331 -0.6673 -0.0882 -1.8068
  592MOL0     H79895   2.739   2.130   2.312  1.1131 -1.7085  0.9867
  592MOL0     H79896   2.789   2.101   2.546  1.4985 -0.1533 -0.4160
  592MOL0     H79897   2.849   2.264   2.564 -1.5142 -0.1240  2.2716
  592MOL0     H79898   2.609   2.351   2.508 -1.6225 -1.3493 -2.1950
  592MOL0     H79899   2.640   2.256   2.653 -1.9054 -0.9170 -0.4096
  592MOL0     H79900   2.434   2.187   2.566  2.8311  0.7264  3.5029
  592MOL0     H79901   2.547   2.055   2.535  0.8997 -0.4728 -1.0799
  592MOL0     H79902   3.294   2.227   2.061  1.6526 -1.3862 -2.6041
  592MOL0     H79903   3.521   2.216   1.986 -1.4317 -0.7363  1.3031
  592MOL0     H79904   3.961   2.203   2.009 -1.0819 -2.0977 -1.6715
  592MOL0     H79905   4.166   2.183   1.909 -1.0095 -0.9885  2.5676
  592MOL0     H79906   5.746   2.281   1.156 -0.2695  3.6779  1.8934
  592MOL0     H79907   5.891   2.170   0.993 -1.1612 -0.4004  2.5008
  592MOL0     H79908   6.159   1.953   0.657 -0.3486  0.5800  3.8997
  592MOL0     H79909   6.389   1.954   0.587 -2.1090 -1.7887  1.2702
  592MOL0     H79910   6.597   2.352   0.592  2.3045  1.1429 -0.0566
  592MOL0     H79911   6.716   2.228   0.603 -0.8298  2.2074  0.5242
  592MOL0     H79912   6.802   2.321   0.434  1.7512 -1.0389 -0.2262
  592MOL0     H79913   6.646   2.385   0.364  0.8159 -0.2635 -1.3012
  592MOL0     H79914   6.595   2.131   0.306  0.6683 -0.9387  1.2505
  592MOL0     H79915   6.773   2.104   0.348  0.7156  0.1314  0.0079
  592MOL0     H79916   6.668   2.310   0.151  1.3079 -0.6844 -1.3923
  592MOL0     H79917   6.690   2.149   0.096 -0.2033  0.8526 -1.5062
  592MOL0     H79918   7.098   2.322   0.147  0.2299 -2.0013 -2.0112
  592MOL0     H79919   6.380   2.383   0.574  0.4828 -1.3339 -0.9764
  592MOL0     H79920   6.174   2.385   0.704  3.6380  2.0015 -0.7056
  593MOL0     O79921   8.597   5.137   8.464  0.1970  0.8873 -0.9888
  593MOL0     C79922   8.583   5.220   8.376  0.2674  0.2848  0.0826
  593MOL0     O79923   8.496   5.202   8.270 -0.1518 -0.4574  0.1483
  593MOL0     C79924   8.414   5.087   8.271  0.0192  0.1201  0.3760
  593MOL0     C79925   8.301   5.070   8.344  0.0203 -0.5636 -0.1174
  593MOL0     C79926   8.213   4.966   8.331 -0.7366  0.4423 -0.4071
  593MOL0     C79927   8.234   4.872   8.234 -0.0981  1.2253  0.5016
  593MOL0     O79928   8.157   4.758   8.195 -0.0618  1.0138  0.1823
  593MOL0     C79929   8.027   4.800   8.149 -0.9800  0.7113 -0.0056
  593MOL0     C79930   8.000   4.774   8.006  0.1236  0.2315  0.8930
  593MOL0     C79931   7.959   4.629   7.987  0.8684  0.3567  0.2788
  593MOL0     C79932   7.907   4.623   7.843 -0.1479  0.0008  0.5054
  593MOL0     C79933   7.848   4.484   7.818 -0.0788 -0.5505  0.0509
  593MOL0     C79934   7.851   4.447   7.673 -0.3670 -0.4364 -0.3194
  593MOL0     C79935   7.767   4.334   7.639 -0.0857  0.0600 -0.0881
  593MOL0     C79936   7.854   4.212   7.613 -0.2316 -0.2616 -0.3045
  593MOL0     N79937   7.905   4.148   7.740 -0.1611 -0.3663  0.1594
  593MOL0     C79938   7.845   4.036   7.800  0.1409 -0.0745  0.3167
  593MOL0     C79939   7.950   4.002   7.887  0.4314  0.7363  0.4345
  593MOL0     C79940   7.952   3.894   7.991 -0.1347  0.1865  0.4776
  593MOL0     C79941   8.005   3.758   7.934  0.5538 -0.3680 -0.4348
  593MOL0     C79942   8.026   3.657   8.059  0.6826 -0.0426 -0.1040
  593MOL0     C79943   7.915   3.647   8.159  1.5964  0.1117  0.6755
  593MOL0     O79944   7.946   3.741   8.263  0.6256 -0.6729 -0.1507
  593MOL0     C79945   7.848   3.767   8.362  0.3457  0.2034  0.2741
  593MOL0     C79946   7.708   3.752   8.347 -0.8073  0.5683 -0.3309
  593MOL0     C79947   7.617   3.770   8.445  0.2907 -0.3615  0.4048
  593MOL0     C79948   7.479   3.735   8.402 -0.4383  0.2291 -0.2200
  593MOL0     C79949   7.653   3.831   8.567 -0.9087 -0.0334 -0.8168
  593MOL0     C79950   7.553   3.872   8.662  1.0865  0.3431 -0.9016
  593MOL0     O79951   7.603   3.876   8.795  0.6777 -1.1836 -0.7555
  593MOL0     C79952   7.507   3.891   8.886 -0.7062 -0.6372 -0.2672
  593MOL0     C79953   7.426   4.004   8.892 -0.2587  0.6401 -1.3444
  593MOL0     C79954   7.324   4.017   8.993  0.0018 -0.4715 -0.2099
  593MOL0     C79955   7.300   3.910   9.076 -0.7590  0.3252  0.4520
  593MOL0     O79956   7.185   3.907   9.150  0.1304 -0.1943 -0.8848
  593MOL0     C79957   7.095   4.017   9.172  0.5082  0.2605  0.2522
  593MOL0     C79958   6.995   3.973   9.283 -0.4610 -0.5683  0.1628
  593MOL0     C79959   6.865   4.057   9.265  0.3369  0.7357 -0.2901
  593MOL0     C79960   6.766   4.032   9.373  0.0072  0.5158 -0.1843
  593MOL0     C79961   6.709   3.883   9.366  0.4107 -0.1591 -0.0076
  593MOL0     C79962   6.606   3.857   9.487  0.0204 -0.5679 -0.2216
  593MOL0     C79963   6.663   3.875   9.628 -0.3881  1.1317  0.2361
  593MOL0     C79964   6.581   3.802   9.731  0.3215 -0.1247 -0.0629
  593MOL0    Cl79965   6.405   3.868   9.720 -0.0673  0.4941  0.0203
  593MOL0     C79966   7.383   3.796   9.073 -0.1243 -1.4194  0.1523
  593MOL0     C79967   7.493   3.790   8.986 -1.5499  0.4406 -0.7960
  593MOL0     O79968   7.440   3.904   8.625 -0.1552  0.2441  0.1683
  593MOL0     C79969   7.790   3.850   8.593 -0.3740 -1.4083  0.4802
  593MOL0     C79970   7.884   3.822   8.488  0.5972 -0.4048  0.4649
  593MOL0     N79971   8.057   4.082   7.871  0.2898 -0.0913 -0.5371
  593MOL0     N79972   8.030   4.165   7.781  0.7608 -0.1879  0.6291
  593MOL0     C79973   8.346   4.877   8.157  0.5751  0.4343  0.4817
  593MOL0     C79974   8.433   4.988   8.175  0.5393 -0.8889  1.1897
  593MOL0     C79975   8.697   5.308   8.338  0.4069 -0.6398 -0.6983
  593MOL0     C79976   8.729   5.339   8.206 -0.1591 -0.0180 -0.2170
  593MOL0     C79977   8.840   5.409   8.173 -0.3898  1.1288  0.2254
  593MOL0     C79978   8.926   5.465   8.267  0.5629  1.2723  0.4412
  593MOL0     O79979   9.037   5.542   8.237  0.9162  0.3424  0.5678
  593MOL0     C79980   9.086   5.543   8.107 -1.0811 -0.1525  0.0316
  593MOL0     C79981   9.213   5.635   8.078 -0.8264 -0.3983 -0.2798
  593MOL0     C79982   9.346   5.572   8.132  0.3101 -0.9663  0.8575
  593MOL0     C79983   9.468   5.630   8.053 -0.0005  0.2463 -0.2466
  593MOL0     C79984   9.600   5.619   8.110  0.5020  0.2852 -0.3131
  593MOL0     C79985   9.721   5.620   8.132 -0.6373 -0.4681  0.6796
  593MOL0     C79986   8.893   5.440   8.401  0.1655 -0.0750  0.5535
  593MOL0     C79987   8.776   5.368   8.439  0.2543  0.2825 -0.4969
  593MOL0     H79988   8.259   5.158   8.392  2.9084  0.9534 -0.1247
  593MOL0     H79989   8.128   4.955   8.397  0.0312  3.8117  1.3416
  593MOL0     H79990   7.946   4.754   8.206 -0.6737  3.2775  2.7792
  593MOL0     H79991   8.013   4.904   8.181  1.8747  0.4867  2.4176
  593MOL0     H79992   7.913   4.826   7.966 -0.7251 -3.1255 -2.1879
  593MOL0     H79993   8.088   4.814   7.955 -1.6885  5.2173  1.1291
  593MOL0     H79994   8.042   4.560   8.002  2.4226  1.5643 -2.0298
  593MOL0     H79995   7.882   4.617   8.063  1.9298  1.9643  1.6883
  593MOL0     H79996   7.826   4.697   7.833 -0.5317 -0.1998  1.9078
  593MOL0     H79997   7.989   4.642   7.773 -1.1939  2.3261 -0.2070
  593MOL0     H79998   7.906   4.410   7.875 -0.6526 -0.9931  0.0670
  593MOL0     H79999   7.748   4.484   7.863 -0.6960 -0.4023 -1.2839
  593MOL0     H80000   7.809   4.531   7.617 -1.1662 -0.9241 -0.4611
  593MOL0     H80001   7.951   4.440   7.629 -1.9883 -0.5075 -4.4620
  593MOL0     H80002   7.701   4.317   7.724 -0.6816  1.1967 -0.2884
  593MOL0     H80003   7.716   4.348   7.542 -1.7611 -1.8560  0.4531
  593MOL0     H80004   7.939   4.231   7.546  0.6312 -1.4352  0.4187
  593MOL0     H80005   7.792   4.140   7.559  0.8578 -0.9087 -0.7278
  593MOL0     H80006   7.751   3.984   7.787  0.8259 -1.1691 -0.4505
  593MOL0     H80007   8.016   3.925   8.074  1.7423 -4.2280  0.9505
  593MOL0     H80008   7.852   3.883   8.035 -0.5186  3.2708  0.5809
  593MOL0     H80009   8.107   3.767   7.896  1.6888 -0.7197  2.2871
  593MOL0     H80010   7.933   3.722   7.860  0.2415 -2.2050  0.6878
  593MOL0     H80011   8.121   3.674   8.111  1.1686 -2.3296 -0.1433
  593MOL0     H80012   8.048   3.556   8.023 -2.1607 -0.9813  0.5744
  593MOL0     H80013   7.905   3.553   8.213 -0.5854  0.2234  0.5839
  593MOL0     H80014   7.819   3.661   8.108  1.0608  0.5356  1.7725
  593MOL0     H80015   7.669   3.715   8.252 -3.3930 -1.2502  1.3221
  593MOL0     H80016   7.432   3.821   8.354  0.1980 -0.2847 -1.8445
  593MOL0     H80017   7.472   3.661   8.322  3.5123 -0.0534 -0.4712
  593MOL0     H80018   7.428   3.703   8.493  0.7426  1.9189  1.0958
  593MOL0     H80019   7.445   4.087   8.824 -2.8077  0.9805 -1.7560
  593MOL0     H80020   7.249   4.095   8.983 -1.4114 -2.0476 -3.3926
  593MOL0     H80021   7.139   4.115   9.193  0.6186  0.6665 -1.7189
  593MOL0     H80022   7.043   4.021   9.076 -1.9826  0.4165  1.5191
  593MOL0     H80023   6.966   3.868   9.267 -0.2133 -0.3491 -1.9994
  593MOL0     H80024   7.029   3.997   9.384 -1.1548  1.6589 -0.0878
  593MOL0     H80025   6.817   4.060   9.166  0.6550 -0.2427 -0.4864
  593MOL0     H80026   6.902   4.159   9.280  2.5583  0.1253 -1.2260
  593MOL0     H80027   6.820   4.037   9.468 -0.2101 -1.2230  0.0630
  593MOL0     H80028   6.689   4.108   9.358 -1.3311 -0.7698 -0.0908
  593MOL0     H80029   6.787   3.807   9.369  0.5381 -0.3712 -3.9179
  593MOL0     H80030   6.654   3.855   9.276  0.4874 -4.9954  1.1969
  593MOL0     H80031   6.523   3.924   9.465  1.4129  0.9014 -1.1915
  593MOL0     H80032   6.586   3.750   9.475  2.7033 -1.8394  4.1056
  593MOL0     H80033   6.678   3.973   9.674  2.6305  1.7585 -1.7778
  593MOL0     H80034   6.762   3.831   9.640 -1.2168 -0.8282  0.3033
  593MOL0     H80035   6.627   3.843   9.822  2.0186  0.1195 -0.9823
  593MOL0     H80036   6.594   3.693   9.738 -0.4534 -0.1177  4.0793
  593MOL0     H80037   7.363   3.715   9.142  0.5247 -1.4680  0.2916
  593MOL0     H80038   7.554   3.701   8.996  0.5460  1.7947 -0.8296
  593MOL0     H80039   7.810   3.900   8.687 -1.4036  0.6609 -0.3451
  593MOL0     H80040   7.988   3.841   8.510  0.6372 -0.6516  0.4919
  593MOL0     H80041   8.354   4.803   8.078 -1.8699  0.7227 -0.1063
  593MOL0     H80042   8.517   4.992   8.107  1.7743 -2.5901  2.4977
  593MOL0     H80043   8.669   5.303   8.123 -0.1976 -1.6784  0.4929
  593MOL0     H80044   8.861   5.419   8.067 -1.4474 -2.2486 -0.4323
  593MOL0     H80045   9.116   5.443   8.074  0.6562  0.1505  0.6041
  593MOL0     H80046   8.999   5.577   8.049  0.4112 -0.3494 -2.4565
  593MOL0     H80047   9.204   5.733   8.126 -2.2380 -0.4437 -0.4335
  593MOL0     H80048   9.216   5.645   7.969  2.1590  1.7588 -0.1361
  593MOL0     H80049   9.340   5.463   8.118 -0.1441 -1.2671  3.0255
  593MOL0     H80050   9.363   5.604   8.235 -1.1528 -0.8998  1.1115
  593MOL0     H80051   9.443   5.736   8.046  0.1613  0.1733 -3.1973
  593MOL0     H80052   9.474   5.588   7.952 -0.6889 -1.2277  0.2928
  593MOL0     H80053   9.827   5.615   8.149 -0.5169 -0.2512 -0.0159
  593MOL0     H80054   8.955   5.480   8.481  2.2733 -1.6092 -0.2249
  593MOL0     H80055   8.753   5.363   8.545 -0.7395 -0.4194 -0.7315
  594MOL0     O80056   8.509   6.979  10.421  0.2484  0.2622  0.0715
  594MOL0     C80057   8.620   6.955  10.468  0.0955  0.4605 -0.1725
  594MOL0     O80058   8.707   6.866  10.414 -0.1922 -0.1363 -0.0866
  594MOL0     C80059   8.701   6.810  10.289  0.0061 -0.0327 -0.2927
  594MOL0     C80060   8.825   6.779  10.232 -0.0905 -0.3342 -0.1735
  594MOL0     C80061   8.851   6.739  10.105 -0.2931  0.3095  0.2380
  594MOL0     C80062   8.747   6.739  10.013  0.6448  0.3669 -0.4182
  594MOL0     O80063   8.777   6.675   9.893 -0.0681 -0.2986  0.5373
  594MOL0     C80064   8.675   6.673   9.795  0.8695 -0.3403  0.0390
  594MOL0     C80065   8.733   6.655   9.661  0.8993 -0.3077  0.2366
  594MOL0     C80066   8.622   6.645   9.548  0.0042  0.9174  0.3359
  594MOL0     C80067   8.674   6.697   9.420 -0.7999 -0.7111  0.1274
  594MOL0     C80068   8.565   6.748   9.328 -0.0519 -0.3808  0.1348
  594MOL0     C80069   8.614   6.798   9.192 -0.2402  0.6231 -0.1585
  594MOL0     C80070   8.498   6.843   9.112  0.2740 -1.3226  0.2897
  594MOL0     C80071   8.473   6.991   9.125 -0.1127  0.0026 -0.0506
  594MOL0     N80072   8.368   7.040   9.039 -0.3732 -0.3225 -0.0260
  594MOL0     C80073   8.235   7.013   9.049 -0.2092 -0.2793  0.3038
  594MOL0     C80074   8.178   7.075   8.939  0.5797  0.6040  0.3101
  594MOL0     C80075   8.035   7.082   8.893 -0.4186  0.3470  0.0290
  594MOL0     C80076   8.002   7.000   8.758 -0.7359  0.7209  0.7728
  594MOL0     C80077   7.900   7.065   8.664 -0.2387  0.1551  0.1148
  594MOL0     C80078   7.762   7.085   8.719 -0.2058  0.9137  0.1671
  594MOL0     O80079   7.679   7.152   8.623  0.1830  0.1526  0.0201
  594MOL0     C80080   7.552   7.183   8.669 -0.0926  0.2260 -0.4566
  594MOL0     C80081   7.489   7.167   8.795  0.0993  0.3378  0.6359
  594MOL0     C80082   7.352   7.203   8.822 -0.8619 -0.1373 -0.1415
  594MOL0     C80083   7.314   7.180   8.967  0.1135 -0.0362  0.1561
  594MOL0     C80084   7.264   7.249   8.715  0.2223  1.0881 -0.2856
  594MOL0     C80085   7.123   7.279   8.731 -0.2671 -0.2166 -0.2313
  594MOL0     O80086   7.064   7.376   8.651 -0.5766 -0.4411  0.1181
  594MOL0     C80087   6.939   7.418   8.682 -0.0415  0.7218 -0.6132
  594MOL0     C80088   6.838   7.406   8.583  0.0419 -0.4822  0.3013
  594MOL0     C80089   6.707   7.454   8.609  0.2773 -0.5233  0.2865
  594MOL0     C80090   6.683   7.533   8.719  0.6237  0.5164  0.1965
  594MOL0     O80091   6.559   7.580   8.758 -1.1459 -0.9043 -0.4655
  594MOL0     C80092   6.450   7.576   8.665  0.9340 -0.4010  0.3068
  594MOL0     C80093   6.375   7.446   8.696 -0.0514  0.6652  0.2501
  594MOL0     C80094   6.267   7.412   8.591  0.4247  1.1366  0.8394
  594MOL0     C80095   6.228   7.269   8.591 -0.6146 -0.3990  0.5211
  594MOL0     C80096   6.149   7.217   8.716 -0.3642 -0.4044  0.2058
  594MOL0     C80097   6.084   7.083   8.673  0.5137  0.1322  0.1277
  594MOL0     C80098   5.991   7.025   8.784 -0.1946  0.3259  0.1157
  594MOL0     C80099   5.947   6.879   8.768  0.6419 -0.3889 -0.1591
  594MOL0    Cl80100   6.075   6.757   8.792  0.0254 -0.3958  0.3607
  594MOL0     C80101   6.783   7.545   8.810 -0.7594 -0.1555  0.3701
  594MOL0     C80102   6.915   7.490   8.800  1.3952 -0.0325 -0.1502
  594MOL0     O80103   7.055   7.207   8.813  0.3630 -0.3548 -0.2635
  594MOL0     C80104   7.340   7.289   8.601  0.4192  0.3400  0.1528
  594MOL0     C80105   7.467   7.245   8.571  0.6554  0.6192 -0.4554
  594MOL0     N80106   8.280   7.155   8.881  0.2785 -0.1036 -0.0430
  594MOL0     N80107   8.395   7.121   8.934  0.2262 -0.4684  0.1292
  594MOL0     C80108   8.616   6.761  10.061  0.0332  0.2676 -0.0065
  594MOL0     C80109   8.596   6.808  10.198 -0.1843  0.2781  0.3470
  594MOL0     C80110   8.671   7.020  10.586  0.6457 -0.2731 -0.0075
  594MOL0     C80111   8.594   7.126  10.633  0.4923 -0.4300  0.0073
  594MOL0     C80112   8.641   7.205  10.743  0.0855 -0.2980 -0.0542
  594MOL0     C80113   8.759   7.180  10.806 -0.5522  0.3692  0.4496
  594MOL0     O80114   8.771   7.253  10.918 -0.2021  0.2827 -0.0717
  594MOL0     C80115   8.912   7.269  10.970 -0.3294 -0.1099 -0.1184
  594MOL0     C80116   8.994   7.380  10.911 -0.7118  0.0064  0.8937
  594MOL0     C80117   8.923   7.521  10.895 -0.1427  0.2987  0.0654
  594MOL0     C80118   8.905   7.594  11.022 -0.4077  0.1586 -0.1445
  594MOL0     C80119   9.026   7.637  11.089 -0.2075  0.5096 -0.3743
  594MOL0     C80120   9.127   7.692  11.132  0.4715  1.6408 -0.1831
  594MOL0     C80121   8.835   7.074  10.761 -0.5063 -0.6863 -0.2908
  594MOL0     C80122   8.790   6.998  10.650  0.6670  0.3652 -0.9108
  594MOL0     H80123   8.902   6.786  10.308  0.3070 -2.7054 -0.2841
  594MOL0     H80124   8.950   6.701  10.082  0.3022  2.2026 -0.5269
  594MOL0     H80125   8.604   6.593   9.817 -0.2911  1.0788  1.7668
  594MOL0     H80126   8.624   6.770   9.793 -2.1786 -1.8223 -0.9912
  594MOL0     H80127   8.803   6.738   9.653  0.3287  0.0346 -1.6926
  594MOL0     H80128   8.797   6.566   9.653  1.6486  0.2685 -0.2063
  594MOL0     H80129   8.589   6.540   9.547  0.5873  0.7323 -0.1959
  594MOL0     H80130   8.539   6.710   9.575 -0.8875 -0.8793  2.2538
  594MOL0     H80131   8.740   6.782   9.442 -0.2364 -1.5597  1.9976
  594MOL0     H80132   8.721   6.614   9.368  0.5854  0.8897 -1.3045
  594MOL0     H80133   8.503   6.660   9.310 -1.4157  0.0962  2.1272
  594MOL0     H80134   8.503   6.823   9.378 -1.3305  0.3834 -2.4417
  594MOL0     H80135   8.695   6.871   9.186  1.2922 -1.0480 -0.8854
  594MOL0     H80136   8.653   6.710   9.139  0.5795  0.4553  0.6872
  594MOL0     H80137   8.518   6.823   9.006  0.5542 -0.7074  0.2223
  594MOL0     H80138   8.416   6.775   9.137  2.0407 -5.9103 -4.5157
  594MOL0     H80139   8.565   7.049   9.113 -0.1908  0.4035  1.1685
  594MOL0     H80140   8.437   7.019   9.225  4.1348 -1.0039  1.9821
  594MOL0     H80141   8.188   6.944   9.118 -0.2727 -0.6109 -0.0654
  594MOL0     H80142   7.972   7.055   8.978 -0.1193  2.3304  0.9394
  594MOL0     H80143   8.025   7.190   8.879  1.7720  1.1226  3.2540
  594MOL0     H80144   7.979   6.895   8.779 -2.5021  0.9177  0.0736
  594MOL0     H80145   8.096   6.998   8.703  0.1088  0.0312  2.2070
  594MOL0     H80146   7.880   7.014   8.569 -2.0953  0.7850  0.1184
  594MOL0     H80147   7.938   7.161   8.627  2.4151 -1.1408 -0.7460
  594MOL0     H80148   7.772   7.152   8.805  3.0397 -0.7393  1.2058
  594MOL0     H80149   7.724   6.990   8.756  0.5411 -0.3157 -2.0669
  594MOL0     H80150   7.545   7.126   8.878 -1.5696  0.6965  1.9970
  594MOL0     H80151   7.266   7.268   9.010 -2.2029 -0.0541 -2.1680
  594MOL0     H80152   7.244   7.097   8.975  0.0744 -0.1195 -0.9888
  594MOL0     H80153   7.395   7.161   9.038 -0.8187 -1.5584  0.8734
  594MOL0     H80154   6.879   7.356   8.495  0.5878  0.2305  0.1418
  594MOL0     H80155   6.631   7.440   8.532 -1.7569 -1.2260  2.2959
  594MOL0     H80156   6.378   7.653   8.694 -1.5221 -1.2236 -2.9626
  594MOL0     H80157   6.470   7.582   8.558 -2.0145  1.9405 -0.2667
  594MOL0     H80158   6.443   7.360   8.700  3.8226  3.4233 -1.1248
  594MOL0     H80159   6.332   7.459   8.796  0.7084 -0.6833  0.7745
  594MOL0     H80160   6.297   7.435   8.489 -0.1285 -2.7438 -0.3328
  594MOL0     H80161   6.176   7.464   8.622 -1.5867 -1.1346 -0.9985
  594MOL0     H80162   6.166   7.254   8.502  0.8476  0.0849 -0.6183
  594MOL0     H80163   6.322   7.218   8.568 -0.3325 -0.0199  0.8245
  594MOL0     H80164   6.068   7.284   8.746 -1.3246 -0.3698 -2.2348
  594MOL0     H80165   6.210   7.201   8.805  1.6967 -0.3494 -1.1544
  594MOL0     H80166   6.037   7.098   8.575  0.1051  0.3080  0.3514
  594MOL0     H80167   6.167   7.012   8.676  1.1442  0.8106 -0.6985
  594MOL0     H80168   5.903   7.087   8.806 -2.0813 -1.9713 -0.5805
  594MOL0     H80169   6.041   7.019   8.881 -2.2156  0.3991  1.1981
  594MOL0     H80170   5.904   6.866   8.669 -2.1726  0.3459  0.8770
  594MOL0     H80171   5.866   6.855   8.837  2.2761 -1.1643  1.6001
  594MOL0     H80172   6.763   7.600   8.901  1.2249  2.1341 -0.4609
  594MOL0     H80173   6.983   7.499   8.884  1.4338 -0.0420 -0.1807
  594MOL0     H80174   7.296   7.341   8.517 -0.5520 -2.0716 -0.9303
  594MOL0     H80175   7.510   7.259   8.472  1.2085  0.2577 -0.2730
  594MOL0     H80176   8.533   6.732   9.998 -0.6227  2.7030 -0.3607
  594MOL0     H80177   8.499   6.831  10.241  0.2595 -0.5279  1.8232
  594MOL0     H80178   8.494   7.146  10.597  1.1772  1.1145 -1.1340
  594MOL0     H80179   8.563   7.274  10.775 -1.0917  0.1900 -3.4871
  594MOL0     H80180   8.919   7.278  11.079  2.2324 -1.4942 -0.0776
  594MOL0     H80181   8.972   7.182  10.940 -1.0869 -0.4292 -0.7635
  594MOL0     H80182   9.030   7.345  10.814  0.3421  0.7362  1.0101
  594MOL0     H80183   9.083   7.389  10.973 -1.8083 -2.0085  2.9064
  594MOL0     H80184   8.831   7.500  10.838 -1.7391 -1.5295  3.0260
  594MOL0     H80185   8.994   7.577  10.833 -0.2954 -1.4905 -1.8607
  594MOL0     H80186   8.833   7.549  11.091 -1.6970 -1.8591 -2.6502
  594MOL0     H80187   8.853   7.686  10.994  0.0302  0.1340 -1.0580
  594MOL0     H80188   9.217   7.742  11.163 -0.5860  3.1702  0.5422
  594MOL0     H80189   8.922   7.034  10.812 -1.6725 -1.9139  0.8472
  594MOL0     H80190   8.859   6.925  10.610  3.8403  2.5253  0.1890
  595MOL0     O80191   3.366   1.493   6.873 -0.5246  0.7668 -0.2092
  595MOL0     C80192   3.336   1.460   6.760 -0.4593 -0.7231 -0.0035
  595MOL0     O80193   3.228   1.378   6.726 -0.2401  0.0430 -0.2302
  595MOL0     C80194   3.147   1.315   6.820 -0.5874 -0.4620  0.8429
  595MOL0     C80195   3.197   1.258   6.940  0.6828 -0.4799  0.6247
  595MOL0     C80196   3.112   1.186   7.023  0.1023  0.6684 -0.3785
  595MOL0     C80197   2.972   1.164   6.998  0.7214  0.0015  0.2326
  595MOL0     O80198   2.885   1.088   7.073  0.1026 -0.6378 -0.9377
  595MOL0     C80199   2.912   1.072   7.218  0.4042 -0.4703  1.0279
  595MOL0     C80200   2.786   1.037   7.293 -0.3081 -0.4371  0.3749
  595MOL0     C80201   2.674   1.143   7.275 -0.6063  0.4977  0.1889
  595MOL0     C80202   2.550   1.102   7.362  0.0460 -0.6031 -0.1365
  595MOL0     C80203   2.462   1.228   7.361 -0.3045  0.4252 -0.5810
  595MOL0     C80204   2.377   1.235   7.237 -0.1157  0.5189  0.3560
  595MOL0     C80205   2.287   1.363   7.261 -0.9731  0.5175 -0.3146
  595MOL0     C80206   2.214   1.418   7.132 -0.2563 -0.0325  0.3718
  595MOL0     N80207   2.156   1.549   7.162 -0.6293  0.3899 -0.6056
  595MOL0     C80208   2.215   1.672   7.158  0.9212  0.4140 -0.3154
  595MOL0     C80209   2.117   1.763   7.167 -0.2214 -0.1471 -0.1157
  595MOL0     C80210   2.123   1.916   7.175 -0.1152  0.7566 -0.5073
  595MOL0     C80211   2.139   1.960   7.313 -0.2648 -0.4837 -0.9895
  595MOL0     C80212   2.015   1.926   7.394  0.1090  0.2932  0.0945
  595MOL0     C80213   2.041   1.940   7.551 -0.3519  0.2266  0.5183
  595MOL0     O80214   2.092   2.069   7.576 -0.5471  0.3919 -0.2267
  595MOL0     C80215   2.009   2.174   7.597 -0.3501 -0.2249  0.0209
  595MOL0     C80216   2.077   2.290   7.600  0.9445 -0.3777 -0.9378
  595MOL0     C80217   2.020   2.419   7.626 -0.3922  0.8341 -0.7146
  595MOL0     C80218   2.113   2.542   7.644  0.2101  0.7709 -0.0753
  595MOL0     C80219   1.880   2.423   7.631  0.1434 -0.0417  0.5185
  595MOL0     C80220   1.794   2.549   7.636 -0.2912 -0.2173  0.9727
  595MOL0     O80221   1.660   2.527   7.632  0.2377  0.0254 -0.5656
  595MOL0     C80222   1.562   2.622   7.634 -0.3092 -0.7658 -0.1976
  595MOL0     C80223   1.583   2.741   7.699  0.4627 -0.4430  0.8262
  595MOL0     C80224   1.472   2.830   7.715 -0.6870  0.8482  1.0899
  595MOL0     C80225   1.352   2.806   7.663  0.8699  0.8744 -0.3672
  595MOL0     O80226   1.261   2.900   7.691 -0.3088 -0.6359 -0.6117
  595MOL0     C80227   1.147   2.908   7.606 -0.0263 -1.5355 -0.8446
  595MOL0     C80228   1.041   2.828   7.669  0.0057 -0.0388 -0.2553
  595MOL0     C80229   0.909   2.884   7.617  0.6982  0.9163 -0.0057
  595MOL0     C80230   0.853   2.990   7.716 -0.1972 -0.1843  1.2704
  595MOL0     C80231   0.734   3.064   7.659  0.4670  0.6807 -0.3987
  595MOL0     C80232   0.633   2.965   7.595  0.6347 -0.7361  0.2328
  595MOL0     C80233   0.494   3.027   7.573 -1.0591  0.5142 -0.6615
  595MOL0     C80234   0.416   2.999   7.702 -0.2075 -1.4187 -0.6524
  595MOL0    Cl80235   0.351   2.837   7.705  0.1959  0.2693 -0.1564
  595MOL0     C80236   1.326   2.689   7.597  0.5471 -0.5168 -0.4971
  595MOL0     C80237   1.435   2.600   7.578 -0.0914  0.1267 -0.1132
  595MOL0     O80238   1.847   2.664   7.621 -0.2068  0.9815  0.2424
  595MOL0     C80239   1.810   2.304   7.624 -0.0694  0.6940  0.1688
  595MOL0     C80240   1.871   2.185   7.622  0.3626  0.0712 -0.0567
  595MOL0     N80241   2.002   1.693   7.155  0.2811  0.7574  0.8415
  595MOL0     N80242   2.026   1.565   7.143  0.1216 -0.6329 -0.4872
  595MOL0     C80243   2.923   1.221   6.877  0.4984  0.1700 -0.2227
  595MOL0     C80244   3.009   1.297   6.791 -0.4297  0.0463  0.8280
  595MOL0     C80245   3.440   1.496   6.663  0.4010  0.7877  0.7562
  595MOL0     C80246   3.505   1.614   6.657  0.3812  0.3715 -0.7650
  595MOL0     C80247   3.611   1.632   6.570  0.6454  0.7417  0.9959
  595MOL0     C80248   3.651   1.527   6.483 -0.3601  0.3700  0.4567
  595MOL0     O80249   3.762   1.543   6.403 -0.0487 -0.7384 -0.1300
  595MOL0     C80250   3.863   1.637   6.445  0.2574  1.2457  1.2127
  595MOL0     C80251   3.992   1.605   6.369 -0.2486 -0.2644  0.2397
  595MOL0     C80252   3.980   1.633   6.221  0.2333 -0.3335  0.0743
  595MOL0     C80253   4.119   1.595   6.150 -0.0091  0.3934  0.1589
  595MOL0     C80254   4.219   1.707   6.161 -1.3314 -0.6954 -0.4851
  595MOL0     C80255   4.315   1.783   6.169  0.7731  1.0473  0.3444
  595MOL0     C80256   3.579   1.407   6.479 -0.4146  0.1397  0.5598
  595MOL0     C80257   3.474   1.389   6.577 -0.6637 -0.5182  0.8811
  595MOL0     H80258   3.305   1.261   6.952  0.7450 -2.7701  1.1061
  595MOL0     H80259   3.153   1.125   7.103 -0.7911  0.9341  0.2911
  595MOL0     H80260   2.979   0.987   7.237 -0.0148 -0.5139  2.4127
  595MOL0     H80261   2.957   1.164   7.255  1.0223 -1.4169  2.7521
  595MOL0     H80262   2.745   0.940   7.263 -0.9206 -0.1810  0.3573
  595MOL0     H80263   2.820   1.028   7.396 -1.1444 -3.9976  0.4471
  595MOL0     H80264   2.707   1.243   7.303 -1.2346  0.4362  1.2273
  595MOL0     H80265   2.646   1.144   7.169  1.8006 -0.7873 -0.5346
  595MOL0     H80266   2.498   1.011   7.333  0.4956 -1.6160  2.0299
  595MOL0     H80267   2.589   1.094   7.464 -0.9861 -2.2301  0.1650
  595MOL0     H80268   2.397   1.217   7.449 -1.1544 -1.4353 -1.3924
  595MOL0     H80269   2.531   1.310   7.384  0.1228 -0.6008  2.1454
  595MOL0     H80270   2.430   1.236   7.142  0.1586 -2.2255  0.4054
  595MOL0     H80271   2.300   1.157   7.227 -1.5164  1.8006  0.7834
  595MOL0     H80272   2.215   1.342   7.341 -0.2995 -0.7724 -0.0265
  595MOL0     H80273   2.360   1.434   7.303  2.2053 -1.4996 -2.0031
  595MOL0     H80274   2.137   1.349   7.095 -0.1108  0.3298 -0.6372
  595MOL0     H80275   2.283   1.422   7.048 -1.0263 -1.3639 -0.3496
  595MOL0     H80276   2.321   1.693   7.160  1.1454 -0.0783 -3.2409
  595MOL0     H80277   2.203   1.956   7.112  0.8640  1.4323  1.0814
  595MOL0     H80278   2.024   1.942   7.136  0.7672  1.5479 -2.3318
  595MOL0     H80279   2.152   2.068   7.316 -2.5665 -0.0224 -3.4951
  595MOL0     H80280   2.228   1.912   7.355 -0.3543 -1.0127 -1.3952
  595MOL0     H80281   1.981   1.824   7.374  1.9547 -0.3866  0.2427
  595MOL0     H80282   1.931   1.992   7.373 -2.3917 -2.4398  0.8440
  595MOL0     H80283   2.107   1.865   7.595 -2.3369 -2.1728 -0.3250
  595MOL0     H80284   1.947   1.927   7.607 -1.0527  3.4275  0.2962
  595MOL0     H80285   2.185   2.287   7.588  1.1863  0.1075  0.7818
  595MOL0     H80286   2.082   2.617   7.718  2.7133  3.1862 -1.2891
  595MOL0     H80287   2.216   2.515   7.669  0.1727 -1.1823 -1.7357
  595MOL0     H80288   2.118   2.594   7.548 -1.7950  0.8682 -0.1664
  595MOL0     H80289   1.678   2.766   7.747 -0.1539  4.3165  0.0504
  595MOL0     H80290   1.498   2.916   7.777  4.8214  0.7567 -0.5218
  595MOL0     H80291   1.112   3.011   7.599 -1.3175 -1.9697 -0.9453
  595MOL0     H80292   1.159   2.879   7.501 -1.4319 -0.3501 -1.3556
  595MOL0     H80293   1.057   2.727   7.630 -1.8429 -0.2506 -0.5848
  595MOL0     H80294   1.039   2.829   7.778 -0.2942  0.1700 -0.2621
  595MOL0     H80295   0.845   2.795   7.619 -0.9924  2.0812  2.3532
  595MOL0     H80296   0.914   2.927   7.517  0.0723 -0.0853 -0.4806
  595MOL0     H80297   0.814   2.937   7.804 -1.2251  1.9148  2.1575
  595MOL0     H80298   0.922   3.070   7.746 -3.5964  2.7694  1.9122
  595MOL0     H80299   0.758   3.141   7.585 -0.3390 -0.0328 -1.4411
  595MOL0     H80300   0.692   3.114   7.747  0.9464  0.3287  0.0343
  595MOL0     H80301   0.677   2.928   7.502  0.2784  0.3371 -0.3776
  595MOL0     H80302   0.619   2.885   7.668 -3.2020 -2.0422 -1.6204
  595MOL0     H80303   0.441   2.993   7.484 -0.7345  0.5070 -0.8523
  595MOL0     H80304   0.503   3.136   7.568  1.9834  0.5496  2.1245
  595MOL0     H80305   0.343   3.080   7.692  1.5504  0.1136 -1.8873
  595MOL0     H80306   0.474   3.015   7.793 -0.8138 -1.7895 -0.1969
  595MOL0     H80307   1.227   2.665   7.559  0.5868  1.6271 -2.1355
  595MOL0     H80308   1.430   2.507   7.522  0.1185 -1.2814  2.0747
  595MOL0     H80309   1.703   2.299   7.637  0.0546  0.4714  1.2038
  595MOL0     H80310   1.816   2.092   7.625  0.7569 -0.2146 -1.0771
  595MOL0     H80311   2.821   1.193   6.852  1.0819 -1.0866 -1.2674
  595MOL0     H80312   2.973   1.348   6.702  0.3065  0.7379  0.9157
  595MOL0     H80313   3.476   1.698   6.718 -0.9687 -0.7853  0.2502
  595MOL0     H80314   3.654   1.731   6.552  0.0816  1.0598  1.3675
  595MOL0     H80315   3.831   1.737   6.415  1.0645  2.0429  2.8814
  595MOL0     H80316   3.885   1.633   6.552  0.6168 -2.2994  1.1418
  595MOL0     H80317   4.025   1.503   6.386 -0.1775 -0.1364  0.8786
  595MOL0     H80318   4.075   1.662   6.412  0.8335 -0.5599 -1.3541
  595MOL0     H80319   3.946   1.735   6.201  0.0918 -0.0213  1.8166
  595MOL0     H80320   3.904   1.567   6.178  0.7491 -0.9878  0.1547
  595MOL0     H80321   4.115   1.582   6.042  1.3548 -1.0041  0.2479
  595MOL0     H80322   4.149   1.500   6.195 -0.5796 -0.3939 -1.0592
  595MOL0     H80323   4.386   1.864   6.162  1.8027  0.1016 -0.4715
  595MOL0     H80324   3.608   1.320   6.420  2.0126  0.8126  0.6619
  595MOL0     H80325   3.430   1.290   6.582  1.0380 -1.3942 -0.3326
  596MOL0     O80326   2.270   0.717   8.830  0.1860 -0.0830 -0.1843
  596MOL0     C80327   2.260   0.746   8.950  0.2604  0.5318  0.0792
  596MOL0     O80328   2.144   0.762   9.022 -0.2033 -0.1197  0.0781
  596MOL0     C80329   2.025   0.747   8.959 -0.2894 -0.1088  0.1633
  596MOL0     C80330   1.913   0.829   8.997  0.5799 -0.3246 -0.0063
  596MOL0     C80331   1.782   0.813   8.942 -0.7559  0.4621 -0.0414
  596MOL0     C80332   1.763   0.723   8.842  0.3517 -0.3091 -0.9501
  596MOL0     O80333   1.632   0.723   8.795  0.5916  0.0423  0.1996
  596MOL0     C80334   1.598   0.627   8.694  0.5985  0.0897 -0.1012
  596MOL0     C80335   1.462   0.667   8.646  0.7522  1.0266 -0.9786
  596MOL0     C80336   1.364   0.649   8.762  0.1793  0.8149 -0.2693
  596MOL0     C80337   1.219   0.642   8.710 -0.1770  0.1572 -0.1865
  596MOL0     C80338   1.169   0.501   8.697 -0.7834  0.1577 -0.0597
  596MOL0     C80339   1.142   0.436   8.836 -0.9976  0.0889 -0.6231
  596MOL0     C80340   1.097   0.288   8.834 -0.3041 -1.0846 -0.2336
  596MOL0     C80341   1.024   0.241   8.963  0.6207 -0.5085  0.3309
  596MOL0     N80342   1.101   0.230   9.092 -0.3295 -0.4241 -0.0046
  596MOL0     C80343   1.111   0.323   9.186 -0.4963 -0.6439  0.3400
  596MOL0     C80344   1.217   0.277   9.260  0.2162 -0.2036 -0.6477
  596MOL0     C80345   1.236   0.333   9.396 -0.4901 -1.1431  0.0372
  596MOL0     C80346   1.377   0.333   9.442 -0.3381 -0.3634 -0.5974
  596MOL0     C80347   1.460   0.209   9.430 -0.0953 -0.1348  0.1741
  596MOL0     C80348   1.611   0.234   9.464  0.3018 -0.3435 -0.0251
  596MOL0     O80349   1.633   0.291   9.596 -0.3147  0.6418 -0.0587
  596MOL0     C80350   1.759   0.318   9.628 -0.4389  0.5558 -0.6129
  596MOL0     C80351   1.784   0.391   9.748  0.1843  0.5503  0.7374
  596MOL0     C80352   1.916   0.411   9.793 -0.2023  0.4338  0.0618
  596MOL0     C80353   1.918   0.477   9.933  0.5042 -0.4053  0.7728
  596MOL0     C80354   2.028   0.343   9.735  0.0428 -0.4614 -0.2449
  596MOL0     C80355   2.163   0.340   9.807  0.1459 -0.0127 -0.0381
  596MOL0     O80356   2.277   0.370   9.742 -0.0401 -1.2362 -0.0674
  596MOL0     C80357   2.382   0.281   9.756 -0.0801 -1.1276 -0.3096
  596MOL0     C80358   2.370   0.144   9.739  0.7681 -0.3661 -0.1376
  596MOL0     C80359   2.477   0.068   9.776  0.4984 -0.5225  0.2919
  596MOL0     C80360   2.595   0.118   9.827  0.8463  0.8594 -0.1255
  596MOL0     O80361   2.691   0.027   9.875 -0.4681  0.0783  1.2180
  596MOL0     C80362   2.804   0.092   9.939  0.7495  0.1209 -0.0491
  596MOL0     C80363   2.910  -0.005   9.990 -0.5808  0.8413 -0.0026
  596MOL0     C80364   2.867  -0.104  10.110 -0.1668  0.1823  1.0998
  596MOL0     C80365   2.977  -0.210  10.127  0.3130  0.1033  0.1167
  596MOL0     C80366   2.981  -0.299  10.241 -0.3151  0.2784  0.6355
  596MOL0     C80367   2.902  -0.426  10.239  0.3665  0.5266  0.1010
  596MOL0     C80368   2.909  -0.510  10.370  0.7924  0.3198  0.6264
  596MOL0     C80369   2.880  -0.658  10.353 -0.4156  0.2682 -1.2270
  596MOL0    Cl80370   2.733  -0.685  10.267  0.3140 -0.2941 -0.2165
  596MOL0     C80371   2.597   0.259   9.842 -0.1728 -1.5084 -0.6401
  596MOL0     C80372   2.492   0.341   9.804 -0.5078  0.0360 -0.9054
  596MOL0     O80373   2.158   0.291   9.922 -0.3922 -0.5405  0.3691
  596MOL0     C80374   2.008   0.285   9.614  0.6364  0.7984  0.1890
  596MOL0     C80375   1.876   0.271   9.561  0.3824  0.1852  0.8675
  596MOL0     N80376   1.262   0.157   9.209  0.5772  0.9960 -0.5207
  596MOL0     N80377   1.195   0.131   9.100 -0.5242  0.3231 -0.7168
  596MOL0     C80378   1.865   0.640   8.799 -1.1984 -0.2739 -0.3988
  596MOL0     C80379   1.996   0.650   8.856 -0.2424  0.1201  0.3420
  596MOL0     C80380   2.384   0.740   9.032  0.2556  0.0197  0.0472
  596MOL0     C80381   2.392   0.790   9.158  0.0030 -0.4655  0.6255
  596MOL0     C80382   2.506   0.774   9.242 -0.4519 -0.1681 -0.2184
  596MOL0     C80383   2.611   0.710   9.192 -0.3519  0.1755 -0.7871
  596MOL0     O80384   2.729   0.684   9.265 -0.2264  0.1466  0.8801
  596MOL0     C80385   2.758   0.732   9.401 -0.4670 -0.2361  0.3572
  596MOL0     C80386   2.831   0.867   9.372  0.1210 -0.3615  0.5639
  596MOL0     C80387   2.986   0.844   9.337 -0.7132  0.3680  0.2960
  596MOL0     C80388   3.064   0.977   9.318  0.0433 -0.1645 -0.4258
  596MOL0     C80389   3.038   1.037   9.194 -0.3644  0.1234  0.3206
  596MOL0     C80390   3.007   1.073   9.079  0.0905 -0.0916  0.5999
  596MOL0     C80391   2.610   0.661   9.065 -0.0349  0.0628  0.3071
  596MOL0     C80392   2.498   0.677   8.981  0.6615  0.3356  0.2948
  596MOL0     H80393   1.914   0.917   9.060 -0.9249  0.9805 -1.6955
  596MOL0     H80394   1.695   0.865   8.981  0.6552  1.3169  2.1492
  596MOL0     H80395   1.671   0.630   8.613  0.8114 -2.9754 -0.1401
  596MOL0     H80396   1.585   0.529   8.742 -3.8345  0.4885 -0.0469
  596MOL0     H80397   1.456   0.772   8.617  2.9112  1.6948  0.6777
  596MOL0     H80398   1.436   0.589   8.574  1.6463  0.3476 -0.6041
  596MOL0     H80399   1.389   0.568   8.831  5.0969  0.5733 -1.9285
  596MOL0     H80400   1.366   0.733   8.831  1.4375 -0.6314  1.5630
  596MOL0     H80401   1.158   0.696   8.783 -0.6006 -0.1420 -0.3139
  596MOL0     H80402   1.212   0.709   8.624  0.9261  0.0219 -0.3973
  596MOL0     H80403   1.079   0.488   8.636 -1.6222 -0.2882  1.2528
  596MOL0     H80404   1.248   0.447   8.644  1.0556 -0.2187  2.8528
  596MOL0     H80405   1.234   0.430   8.895 -0.8623 -0.6524 -0.9002
  596MOL0     H80406   1.067   0.488   8.896 -0.5190 -2.0740  2.1035
  596MOL0     H80407   1.036   0.265   8.746 -3.5330  1.2720  1.1741
  596MOL0     H80408   1.192   0.235   8.827  2.3074  3.1614 -0.3254
  596MOL0     H80409   0.995   0.138   8.940  5.1986 -2.3194  1.5358
  596MOL0     H80410   0.936   0.304   8.983  0.0061 -1.6767  1.4509
  596MOL0     H80411   1.056   0.414   9.209 -0.8151 -0.5495 -0.6936
  596MOL0     H80412   1.213   0.440   9.399  0.9874 -0.8119  1.6176
  596MOL0     H80413   1.170   0.285   9.469  0.3322 -0.3754  1.3278
  596MOL0     H80414   1.386   0.371   9.545 -1.0333 -0.0604 -0.6414
  596MOL0     H80415   1.439   0.411   9.399  0.4394 -0.4885  0.2478
  596MOL0     H80416   1.452   0.159   9.333  0.0862  1.1765 -0.5416
  596MOL0     H80417   1.424   0.145   9.511  1.1103  0.5060  1.2601
  596MOL0     H80418   1.651   0.292   9.380  1.0692 -1.5748 -0.5337
  596MOL0     H80419   1.666   0.140   9.458  0.2937 -0.4196  0.9940
  596MOL0     H80420   1.692   0.435   9.787 -0.3086 -0.9448  1.3315
  596MOL0     H80421   2.007   0.537   9.953  0.8655 -0.7218  0.1500
  596MOL0     H80422   1.827   0.536   9.948  0.9048  1.1508 -2.1177
  596MOL0     H80423   1.919   0.397  10.008  0.5867 -2.5257 -1.3645
  596MOL0     H80424   2.275   0.097   9.717 -0.2365  0.8427  1.4772
  596MOL0     H80425   2.478  -0.037   9.749 -0.3786 -0.7032  0.9147
  596MOL0     H80426   2.851   0.156   9.864  2.1679 -1.4264 -0.5363
  596MOL0     H80427   2.764   0.140  10.029  0.7458 -1.4916  0.8355
  596MOL0     H80428   2.939  -0.070   9.907 -0.5371 -0.5553  1.0579
  596MOL0     H80429   2.999   0.053  10.014  0.8133  0.2224 -3.2339
  596MOL0     H80430   2.771  -0.156  10.102 -0.6771  1.3007 -0.5910
  596MOL0     H80431   2.874  -0.048  10.204  1.0923  1.9495  0.0187
  596MOL0     H80432   2.973  -0.267  10.034 -4.2164  0.8493 -0.3932
  596MOL0     H80433   3.074  -0.164  10.105  0.6301 -0.7726 -0.3579
  596MOL0     H80434   2.940  -0.242  10.325 -0.0271 -2.4326  2.7451
  596MOL0     H80435   3.084  -0.335  10.245  0.6581  2.5835 -1.0785
  596MOL0     H80436   2.804  -0.384  10.214  0.9372  1.7748 -0.1486
  596MOL0     H80437   2.939  -0.487  10.156  3.9135  1.6184  0.6953
  596MOL0     H80438   2.835  -0.462  10.435  0.6216  1.3316 -0.2810
  596MOL0     H80439   3.003  -0.498  10.425  1.2859 -3.4333  0.8273
  596MOL0     H80440   2.870  -0.694  10.456  0.1501 -0.8626 -1.5517
  596MOL0     H80441   2.965  -0.717  10.317  0.7353  1.6642 -0.8887
  596MOL0     H80442   2.682   0.304   9.892  0.7052 -2.0966 -1.5405
  596MOL0     H80443   2.485   0.447   9.827  0.2543 -0.0715 -0.1290
  596MOL0     H80444   2.093   0.248   9.557  1.1279  1.3967  0.5160
  596MOL0     H80445   1.879   0.206   9.475  1.5273 -0.0812  1.0860
  596MOL0     H80446   1.850   0.564   8.723 -0.6187  0.5436 -1.3623
  596MOL0     H80447   2.070   0.588   8.806  2.6664  1.9374  2.1612
  596MOL0     H80448   2.305   0.836   9.205  0.0571  0.8335 -0.4747
  596MOL0     H80449   2.488   0.818   9.339 -3.8051 -2.5776  0.4503
  596MOL0     H80450   2.674   0.762   9.465 -1.3828  1.3404 -1.4395
  596MOL0     H80451   2.830   0.669   9.453  0.3527 -1.0880 -1.6801
  596MOL0     H80452   2.826   0.936   9.457  2.2682  3.5216 -2.1566
  596MOL0     H80453   2.781   0.914   9.287 -0.5495 -1.6421  0.2221
  596MOL0     H80454   3.004   0.788   9.245  2.8299  2.9393 -0.7729
  596MOL0     H80455   3.036   0.795   9.421 -1.1393  1.0966  0.9893
  596MOL0     H80456   3.173   0.972   9.324  0.0478 -0.5549 -0.8883
  596MOL0     H80457   3.032   1.041   9.402  2.4497 -2.3157  2.3359
  596MOL0     H80458   2.997   1.100   8.976  1.4283  0.1227  0.5077
  596MOL0     H80459   2.697   0.605   9.032 -0.2828 -2.4232  3.4169
  596MOL0     H80460   2.496   0.621   8.887 -1.3498 -0.0405  0.5317
  597MOL0     O80461   5.011   1.552   6.274 -0.8115  0.0495  1.4311
  597MOL0     C80462   4.934   1.625   6.210  0.2108  0.5704 -0.4111
  597MOL0     O80463   4.819   1.588   6.136 -0.6716 -0.1443 -0.7629
  597MOL0     C80464   4.774   1.461   6.134  0.2582  0.3043  0.3146
  597MOL0     C80465   4.843   1.354   6.086  0.0015  0.5306  0.7479
  597MOL0     C80466   4.784   1.229   6.061 -0.1852  0.1132  0.6441
  597MOL0     C80467   4.654   1.211   6.112 -0.2234 -0.3343  0.6713
  597MOL0     O80468   4.621   1.081   6.117  0.6680 -0.0894 -0.6235
  597MOL0     C80469   4.477   1.052   6.089 -0.3852  0.0158 -0.6675
  597MOL0     C80470   4.468   0.905   6.030 -0.6817 -0.3970  0.0907
  597MOL0     C80471   4.329   0.858   5.997  0.5499 -0.6085 -0.0653
  597MOL0     C80472   4.311   0.703   5.971  0.4314 -0.5090 -0.1612
  597MOL0     C80473   4.171   0.650   6.001 -0.7359  1.0572  0.4357
  597MOL0     C80474   4.069   0.696   5.887  0.4581  0.5415  0.3500
  597MOL0     C80475   3.966   0.586   5.863 -0.1284  0.9620  0.2635
  597MOL0     C80476   3.859   0.583   5.969 -0.6432 -0.3548 -0.4918
  597MOL0     N80477   3.761   0.473   5.957  0.6445  0.2764  0.2872
  597MOL0     C80478   3.631   0.496   5.903 -0.6403 -0.1836 -0.0548
  597MOL0     C80479   3.577   0.377   5.909  0.7198  0.5146 -0.4862
  597MOL0     C80480   3.442   0.333   5.858  0.7197  0.2234 -0.0727
  597MOL0     C80481   3.395   0.397   5.731  0.1973  0.0704  0.3268
  597MOL0     C80482   3.286   0.313   5.673 -0.0864  0.6271  0.3372
  597MOL0     C80483   3.212   0.385   5.556 -0.4333 -0.3743 -0.0924
  597MOL0     O80484   3.107   0.285   5.520 -0.0259 -0.2324  0.2296
  597MOL0     C80485   3.024   0.317   5.419  0.4633 -0.1313 -0.5023
  597MOL0     C80486   3.026   0.429   5.337 -0.4667 -0.0396 -0.1824
  597MOL0     C80487   2.940   0.448   5.222 -0.3911 -0.8589  0.9565
  597MOL0     C80488   2.958   0.584   5.149 -0.3047 -0.2045  0.3472
  597MOL0     C80489   2.859   0.342   5.177  1.2589  0.1403 -0.2528
  597MOL0     C80490   2.769   0.355   5.052  0.2216 -1.2594  0.5879
  597MOL0     O80491   2.651   0.283   5.061  0.5148  0.0425  0.0846
  597MOL0     C80492   2.525   0.332   5.048 -0.6638  0.9679  1.0965
  597MOL0     C80493   2.417   0.239   5.057  0.6301 -0.0640 -0.7224
  597MOL0     C80494   2.282   0.287   5.056  0.5387 -0.5603 -0.4372
  597MOL0     C80495   2.256   0.425   5.026 -0.1576  0.2672 -0.6867
  597MOL0     O80496   2.121   0.461   5.020  0.5189  0.2717 -0.0218
  597MOL0     C80497   2.083   0.583   5.072  0.4003  0.2576  0.0228
  597MOL0     C80498   1.932   0.603   5.069  0.5071 -0.3360  0.9534
  597MOL0     C80499   1.842   0.484   5.030  0.2704  0.2897 -1.5372
  597MOL0     C80500   1.823   0.472   4.880  0.2577  0.2664 -0.1931
  597MOL0     C80501   1.742   0.575   4.805 -0.4920  0.1450 -0.9576
  597MOL0     C80502   1.601   0.579   4.863  0.6299  0.0608 -0.3847
  597MOL0     C80503   1.498   0.671   4.800  0.0030  0.6913 -0.4423
  597MOL0     C80504   1.364   0.602   4.773  0.4143  0.1940  0.0936
  597MOL0    Cl80505   1.293   0.588   4.931  0.2549 -0.0249  0.0909
  597MOL0     C80506   2.370   0.510   5.008 -0.2365  0.0773  1.0439
  597MOL0     C80507   2.500   0.467   5.024  0.6920  0.3470  0.2854
  597MOL0     O80508   2.803   0.421   4.956 -0.4678 -0.1814 -0.2130
  597MOL0     C80509   2.847   0.233   5.266  0.4411 -0.5049  0.2433
  597MOL0     C80510   2.927   0.223   5.386  0.2154 -0.1736 -0.1186
  597MOL0     N80511   3.670   0.285   5.956  0.2930  0.0896  0.0596
  597MOL0     N80512   3.785   0.337   5.985  0.5179 -0.2143  0.7652
  597MOL0     C80513   4.573   1.321   6.154  0.2646  0.3867  1.1560
  597MOL0     C80514   4.635   1.448   6.162 -0.0609  0.3636  0.2939
  597MOL0     C80515   4.960   1.776   6.215 -0.0394  0.3585  0.6075
  597MOL0     C80516   5.086   1.803   6.263 -0.8503  0.1457 -0.0303
  597MOL0     C80517   5.104   1.924   6.322  0.2283  1.1048 -0.8728
  597MOL0     C80518   5.007   2.028   6.306 -0.8411 -0.4660  0.8348
  597MOL0     O80519   5.039   2.145   6.371 -0.4059 -0.4698 -0.1236
  597MOL0     C80520   4.938   2.221   6.441  0.1654  0.6619  0.4357
  597MOL0     C80521   4.961   2.217   6.596  0.2237 -0.2606  1.0644
  597MOL0     C80522   5.074   2.316   6.636  0.3295 -0.0936 -0.4232
  597MOL0     C80523   5.086   2.322   6.789  0.0712  0.1846 -0.4299
  597MOL0     C80524   4.976   2.381   6.855  0.0018 -0.8333 -0.0224
  597MOL0     C80525   4.880   2.418   6.922 -0.4353 -1.0756  0.2693
  597MOL0     C80526   4.881   2.006   6.237 -0.3679 -0.5986  0.0197
  597MOL0     C80527   4.859   1.872   6.194  0.5937  0.2194 -0.4136
  597MOL0     H80528   4.948   1.349   6.057 -0.2143 -0.2651  0.0731
  597MOL0     H80529   4.848   1.151   6.019  1.2096  0.3190  2.2715
  597MOL0     H80530   4.412   1.053   6.176 -0.0890  1.0240 -0.4499
  597MOL0     H80531   4.443   1.127   6.017  0.3299  1.6211  0.6014
  597MOL0     H80532   4.524   0.902   5.936 -0.1371 -1.9109  0.4325
  597MOL0     H80533   4.518   0.834   6.097 -3.1107 -2.0316  0.2966
  597MOL0     H80534   4.256   0.909   6.060  1.1149  0.0108  0.0944
  597MOL0     H80535   4.293   0.898   5.901 -0.4347  0.7569  0.8368
  597MOL0     H80536   4.361   0.682   5.876  0.5679  2.9242 -0.9787
  597MOL0     H80537   4.378   0.649   6.039  1.4522  1.6235  0.6108
  597MOL0     H80538   4.177   0.540   5.997  0.0802  1.1212 -2.8474
  597MOL0     H80539   4.138   0.686   6.099 -0.9154  1.0656  0.3715
  597MOL0     H80540   4.023   0.786   5.928  3.3735  1.9908  0.6680
  597MOL0     H80541   4.109   0.717   5.787  0.1969 -0.1231  0.0970
  597MOL0     H80542   3.921   0.605   5.765  0.2756  1.6649  0.2030
  597MOL0     H80543   4.020   0.492   5.857  1.8176  1.7595  3.1986
  597MOL0     H80544   3.801   0.675   5.963 -1.2183 -0.5579  1.4723
  597MOL0     H80545   3.902   0.580   6.069 -1.8175 -3.1490  0.0099
  597MOL0     H80546   3.589   0.590   5.868 -0.8882  1.6529  4.5275
  597MOL0     H80547   3.443   0.225   5.842  2.6953  0.2331 -0.2464
  597MOL0     H80548   3.369   0.350   5.938  1.3118  0.1815  0.4874
  597MOL0     H80549   3.487   0.413   5.673  0.0571  0.8707  0.3107
  597MOL0     H80550   3.355   0.497   5.751 -1.8670 -0.5502 -0.4604
  597MOL0     H80551   3.194   0.300   5.730 -2.5200  1.8340 -2.9603
  597MOL0     H80552   3.319   0.213   5.644  1.8607  1.3083  0.0632
  597MOL0     H80553   3.277   0.408   5.470 -1.1315  1.2260 -0.2218
  597MOL0     H80554   3.182   0.481   5.601  1.9271 -0.3776  1.7002
  597MOL0     H80555   3.100   0.506   5.356 -0.3790 -0.3121  0.6062
  597MOL0     H80556   2.883   0.618   5.077  1.2864  1.2482 -0.6802
  597MOL0     H80557   2.977   0.657   5.228 -1.3694  1.1204 -0.5662
  597MOL0     H80558   3.048   0.596   5.089  1.5170  0.0039  2.9753
  597MOL0     H80559   2.440   0.133   5.070 -1.0517 -0.2624  1.0856
  597MOL0     H80560   2.200   0.219   5.076  0.8449 -0.1601  2.6312
  597MOL0     H80561   2.127   0.585   5.172  0.6684  0.9913 -0.0986
  597MOL0     H80562   2.129   0.661   5.010 -2.0556  1.5179 -0.3396
  597MOL0     H80563   1.904   0.654   5.161  1.2646  3.1699 -0.5827
  597MOL0     H80564   1.922   0.677   4.989 -1.7604 -0.8783  0.6699
  597MOL0     H80565   1.749   0.502   5.084  1.4115 -0.0190  0.6701
  597MOL0     H80566   1.874   0.390   5.077 -1.8767  1.6408  3.3412
  597MOL0     H80567   1.921   0.462   4.831 -0.0507 -2.2072 -0.4709
  597MOL0     H80568   1.771   0.378   4.862 -1.0248  0.9830 -0.2860
  597MOL0     H80569   1.749   0.559   4.697  0.1417  2.7150 -1.3524
  597MOL0     H80570   1.794   0.667   4.832  3.2944 -2.1551  0.4797
  597MOL0     H80571   1.575   0.473   4.858  1.1110 -0.0265 -1.1858
  597MOL0     H80572   1.609   0.601   4.970  0.0019 -0.2631 -0.2662
  597MOL0     H80573   1.547   0.684   4.703 -1.0360 -0.7718 -1.1974
  597MOL0     H80574   1.482   0.775   4.831 -0.3218  0.9313 -1.3887
  597MOL0     H80575   1.365   0.509   4.715  3.4269  2.0873 -3.2940
  597MOL0     H80576   1.307   0.672   4.710 -2.3219 -0.8790  1.2089
  597MOL0     H80577   2.359   0.616   4.986  2.5659  0.1190 -0.7655
  597MOL0     H80578   2.584   0.534   5.009 -0.1035  0.8844 -2.3744
  597MOL0     H80579   2.780   0.149   5.247  1.6323 -1.4737  0.2467
  597MOL0     H80580   2.919   0.135   5.449  0.3014 -1.0930 -1.3578
  597MOL0     H80581   4.472   1.290   6.178 -1.0299  0.6700 -3.0572
  597MOL0     H80582   4.571   1.528   6.197 -2.4473 -0.7731 -1.2288
  597MOL0     H80583   5.166   1.734   6.287  1.3314  2.8263  0.9552
  597MOL0     H80584   5.189   1.929   6.390 -0.9037  5.8488  0.6309
  597MOL0     H80585   4.931   2.322   6.399  3.7954  0.6236 -0.6611
  597MOL0     H80586   4.841   2.172   6.429  1.2722 -1.2860 -1.1196
  597MOL0     H80587   4.996   2.115   6.610  0.1501 -0.4907 -0.3155
  597MOL0     H80588   4.870   2.252   6.646  2.2896  3.7383  2.5256
  597MOL0     H80589   5.060   2.415   6.591 -3.4567 -1.7869 -3.5614
  597MOL0     H80590   5.171   2.273   6.609  1.6403  0.0409  3.5136
  597MOL0     H80591   5.177   2.381   6.808  0.8460 -0.3463 -2.2305
  597MOL0     H80592   5.111   2.225   6.833 -0.8147  1.1085  2.3245
  597MOL0     H80593   4.795   2.453   6.977 -0.8958  0.5431 -1.3440
  597MOL0     H80594   4.818   2.093   6.220  1.1729  0.3719 -0.9328
  597MOL0     H80595   4.773   1.829   6.143  1.0327  0.0510 -1.0290
  598MOL0     O80596   5.112   5.146   8.480 -0.3512 -0.1924 -0.2561
  598MOL0     C80597   5.138   5.027   8.450  0.1829 -0.3035  0.3780
  598MOL0     O80598   5.055   4.924   8.461 -0.5514 -0.3405 -0.1913
  598MOL0     C80599   4.922   4.952   8.454 -0.5843  0.4072  0.7509
  598MOL0     C80600   4.864   4.993   8.338  0.5078 -0.8475  0.5454
  598MOL0     C80601   4.720   5.010   8.333 -0.5601 -0.3750  1.2818
  598MOL0     C80602   4.638   4.990   8.446 -0.4004 -1.3926  0.4164
  598MOL0     O80603   4.503   5.000   8.454  0.0689  0.8180  0.0647
  598MOL0     C80604   4.434   5.055   8.338 -0.5785  0.8028  0.8263
  598MOL0     C80605   4.289   5.056   8.372 -0.2826  0.1712  0.5587
  598MOL0     C80606   4.206   5.049   8.250 -0.1028 -0.1658  0.3683
  598MOL0     C80607   4.155   4.909   8.234  0.3582  0.7597 -0.0049
  598MOL0     C80608   4.078   4.896   8.105  0.3364  1.0424 -0.8021
  598MOL0     C80609   3.985   5.008   8.069 -0.6228 -0.3942 -0.5770
  598MOL0     C80610   3.906   4.987   7.940 -0.0421 -0.6894 -0.4333
  598MOL0     C80611   3.797   4.888   7.951 -0.2661  0.2112 -0.4725
  598MOL0     N80612   3.691   4.899   7.848 -0.6559 -1.0947  0.1573
  598MOL0     C80613   3.705   4.877   7.713  0.0467  0.4026 -0.0218
  598MOL0     C80614   3.589   4.916   7.656 -0.8011 -0.2610  1.1217
  598MOL0     C80615   3.555   4.927   7.513  1.4174 -0.5311  0.0367
  598MOL0     C80616   3.480   5.055   7.475  0.7133 -0.4033  0.1219
  598MOL0     C80617   3.435   5.049   7.328 -0.2896 -0.3133  0.3358
  598MOL0     C80618   3.384   5.181   7.290 -0.4444 -0.1634  0.2111
  598MOL0     O80619   3.418   5.198   7.152  0.1466 -0.2193  0.1716
  598MOL0     C80620   3.320   5.243   7.074 -0.1880 -0.6727 -0.3943
  598MOL0     C80621   3.265   5.374   7.079 -0.7106  0.1277 -0.4158
  598MOL0     C80622   3.159   5.424   7.009 -0.2723 -0.6384  0.4738
  598MOL0     C80623   3.117   5.566   7.034 -0.5737 -0.3766 -0.3407
  598MOL0     C80624   3.085   5.340   6.922  0.0080  0.5181 -0.5512
  598MOL0     C80625   2.974   5.386   6.843  0.6415 -1.1747  0.7092
  598MOL0     O80626   2.965   5.515   6.794  0.4952  0.6457 -0.3517
  598MOL0     C80627   2.870   5.560   6.715  0.7114 -1.2229  0.4817
  598MOL0     C80628   2.771   5.490   6.651  1.2918 -0.3544  0.0918
  598MOL0     C80629   2.696   5.546   6.541  0.0964 -0.6548 -0.6574
  598MOL0     C80630   2.706   5.681   6.526 -0.1077  0.4589 -0.1514
  598MOL0     O80631   2.633   5.736   6.423 -0.8550  0.0929 -0.2301
  598MOL0     C80632   2.488   5.717   6.431 -0.3580 -0.4341  0.5134
  598MOL0     C80633   2.415   5.817   6.330 -0.1361 -0.3347 -0.0103
  598MOL0     C80634   2.429   5.958   6.374 -0.4376  0.3684  0.1418
  598MOL0     C80635   2.383   6.054   6.267  0.6822  0.4642 -0.2755
  598MOL0     C80636   2.407   6.202   6.302  0.7981  0.1635  0.0826
  598MOL0     C80637   2.553   6.248   6.286 -0.3411 -1.0153  0.4414
  598MOL0     C80638   2.574   6.382   6.368  0.1760 -0.1871  0.3536
  598MOL0     C80639   2.714   6.430   6.368 -0.8443  0.5736 -0.8329
  598MOL0    Cl80640   2.781   6.430   6.203 -0.3195 -0.1387 -0.2128
  598MOL0     C80641   2.784   5.762   6.605  0.2068  0.2390  0.7886
  598MOL0     C80642   2.872   5.705   6.696  0.5949 -0.6983 -0.4369
  598MOL0     O80643   2.892   5.298   6.819 -0.1297 -0.0529 -0.3669
  598MOL0     C80644   3.127   5.206   6.921 -0.3255 -0.4371 -0.3561
  598MOL0     C80645   3.238   5.158   6.997  0.6518  1.0288  0.0670
  598MOL0     N80646   3.508   4.951   7.761  0.2597  0.2739 -0.0310
  598MOL0     N80647   3.567   4.944   7.870 -0.3105 -0.7798 -0.0824
  598MOL0     C80648   4.712   4.951   8.558  1.0006 -0.7416 -1.4127
  598MOL0     C80649   4.848   4.922   8.563 -0.5322  0.0702 -0.6411
  598MOL0     C80650   5.270   4.993   8.387 -0.0180 -0.8940 -0.4727
  598MOL0     C80651   5.291   4.861   8.339 -0.5813 -0.2611  0.2954
  598MOL0     C80652   5.411   4.834   8.273 -1.2628  0.7974  1.0195
  598MOL0     C80653   5.516   4.916   8.270  0.1234  0.5621  1.2801
  598MOL0     O80654   5.642   4.875   8.213 -0.4981 -0.1921  0.1780
  598MOL0     C80655   5.756   4.875   8.301  0.6335  0.2143 -0.3438
  598MOL0     C80656   5.889   4.846   8.224  0.1846 -0.3497  0.0680
  598MOL0     C80657   6.014   4.840   8.308  0.2939  0.1142  0.0101
  598MOL0     C80658   6.018   4.956   8.404  0.0178 -0.0771 -0.2071
  598MOL0     C80659   6.027   5.086   8.336 -0.8640  0.6877 -1.2185
  598MOL0     C80660   6.036   5.195   8.283 -0.1827  0.3281 -0.0279
  598MOL0     C80661   5.502   5.047   8.318 -0.1274 -1.0387 -0.4998
  598MOL0     C80662   5.371   5.088   8.378 -0.4412  0.2189  0.4907
  598MOL0     H80663   4.928   5.000   8.251  2.2462  0.8817  1.8798
  598MOL0     H80664   4.678   5.029   8.235  2.9781 -3.2165 -1.0485
  598MOL0     H80665   4.459   5.158   8.314  3.1100 -0.0528  0.3897
  598MOL0     H80666   4.462   4.994   8.252 -0.0577 -0.4049  1.8090
  598MOL0     H80667   4.270   4.971   8.439 -0.8104  0.7570  1.1643
  598MOL0     H80668   4.257   5.144   8.428 -4.2524 -2.0865  2.2855
  598MOL0     H80669   4.121   5.117   8.261 -0.6966 -0.7919 -0.2617
  598MOL0     H80670   4.262   5.082   8.162 -0.7113  0.8570  0.3590
  598MOL0     H80671   4.234   4.832   8.232 -1.1587 -0.9101  1.3043
  598MOL0     H80672   4.082   4.889   8.312 -0.4295 -0.6546 -1.0540
  598MOL0     H80673   4.148   4.889   8.022 -0.5977 -1.1109 -1.4835
  598MOL0     H80674   4.011   4.810   8.119 -1.2132  1.9284 -2.3904
  598MOL0     H80675   3.920   5.024   8.156  0.2003 -1.9560  0.3762
  598MOL0     H80676   4.039   5.101   8.049 -0.0074 -0.1587  1.8522
  598MOL0     H80677   3.862   5.080   7.905 -0.2440  1.2213  4.2137
  598MOL0     H80678   3.977   4.956   7.863  1.2493  0.7384  0.1307
  598MOL0     H80679   3.752   4.905   8.049 -1.0568 -1.5006 -0.5043
  598MOL0     H80680   3.848   4.792   7.954 -0.0611  0.3321  0.0449
  598MOL0     H80681   3.800   4.845   7.671  0.8275 -2.9059  3.7323
  598MOL0     H80682   3.649   4.928   7.456  0.2152 -3.3816 -2.2407
  598MOL0     H80683   3.490   4.848   7.475 -0.0596  1.3855 -1.5991
  598MOL0     H80684   3.545   5.135   7.513  0.8449 -1.2573  1.8265
  598MOL0     H80685   3.392   5.051   7.539 -1.5101 -2.5319 -2.8145
  598MOL0     H80686   3.350   4.986   7.303 -2.1466  2.6383 -1.3634
  598MOL0     H80687   3.526   5.027   7.271 -0.2848  0.2615  0.1155
  598MOL0     H80688   3.422   5.264   7.350 -2.9306  3.1148 -2.4042
  598MOL0     H80689   3.276   5.185   7.305 -0.3160 -0.3433  1.3131
  598MOL0     H80690   3.328   5.437   7.141  2.7685 -1.4114 -2.1279
  598MOL0     H80691   3.168   5.612   7.120  0.4354  0.1251 -1.1841
  598MOL0     H80692   3.158   5.632   6.957 -1.6232 -0.2193 -0.7703
  598MOL0     H80693   3.008   5.574   7.040 -0.6284 -0.6513 -0.8849
  598MOL0     H80694   2.751   5.386   6.677 -0.1498  0.0338  0.5893
  598MOL0     H80695   2.627   5.479   6.489 -2.2892  0.9332  0.2543
  598MOL0     H80696   2.463   5.614   6.405 -0.0489 -0.2158 -0.7080
  598MOL0     H80697   2.467   5.753   6.532  0.3555  5.0862 -0.9957
  598MOL0     H80698   2.463   5.796   6.234  0.7738 -1.1060  0.5965
  598MOL0     H80699   2.308   5.794   6.329 -0.1993 -0.0394 -0.3796
  598MOL0     H80700   2.533   5.983   6.396 -0.4544  1.3924 -0.8451
  598MOL0     H80701   2.372   5.976   6.465  0.7550  2.8129  0.4751
  598MOL0     H80702   2.440   6.039   6.175  1.5558 -1.2952  0.5075
  598MOL0     H80703   2.274   6.043   6.260  0.8377 -2.9496  0.7084
  598MOL0     H80704   2.362   6.228   6.398 -0.4852  1.5258 -0.8505
  598MOL0     H80705   2.354   6.270   6.236  0.7896  2.1992  2.0658
  598MOL0     H80706   2.614   6.172   6.335 -1.8657 -2.3858  0.3226
  598MOL0     H80707   2.571   6.263   6.179 -2.1590 -0.2469  0.2020
  598MOL0     H80708   2.538   6.360   6.469  0.8235 -1.2483  0.3607
  598MOL0     H80709   2.522   6.468   6.323  2.4440  0.8029 -0.5201
  598MOL0     H80710   2.771   6.375   6.443  0.0336  1.0404 -1.1372
  598MOL0     H80711   2.708   6.537   6.393 -0.8805  0.1650  1.0763
  598MOL0     H80712   2.781   5.870   6.590  2.0238  0.8404  3.8909
  598MOL0     H80713   2.934   5.776   6.749  2.7936  0.4198 -4.1449
  598MOL0     H80714   3.058   5.134   6.879 -0.5079 -1.6454  1.8471
  598MOL0     H80715   3.259   5.052   6.994 -2.3940  0.3529 -0.5915
  598MOL0     H80716   4.658   4.927   8.649  0.4444  1.1819 -1.1763
  598MOL0     H80717   4.895   4.896   8.657 -0.2616  1.1230 -0.4746
  598MOL0     H80718   5.204   4.796   8.344  0.1807 -1.1991  2.2809
  598MOL0     H80719   5.432   4.735   8.235 -0.5086 -0.4930  4.4823
  598MOL0     H80720   5.771   4.970   8.353  2.7021  0.6190 -1.5859
  598MOL0     H80721   5.742   4.793   8.372 -1.9023  1.8204  1.2056
  598MOL0     H80722   5.910   4.916   8.143 -2.8225  2.0255  1.1634
  598MOL0     H80723   5.883   4.751   8.169  1.2369  0.6388 -1.8330
  598MOL0     H80724   6.104   4.826   8.248 -0.2731 -0.2535 -0.7804
  598MOL0     H80725   6.008   4.752   8.373 -0.3120  0.0602 -0.1045
  598MOL0     H80726   6.110   4.948   8.463 -0.8368 -1.7672  0.9930
  598MOL0     H80727   5.935   4.973   8.473  1.7620  2.8786  1.3998
  598MOL0     H80728   6.042   5.289   8.232  0.5486  0.5302  0.4128
  598MOL0     H80729   5.574   5.127   8.320  0.4225 -1.3393 -3.4323
  598MOL0     H80730   5.363   5.193   8.407 -0.5704  0.3706 -0.0983
  599MOL0     O80731   5.976   0.883   9.635 -0.3511  0.3716  0.0284
  599MOL0     C80732   6.071   0.851   9.696 -0.4165  0.4123 -0.1362
  599MOL0     O80733   6.072   0.782   9.818  0.4103  0.1494 -0.6482
  599MOL0     C80734   5.951   0.745   9.875 -0.0712  0.8782  0.1261
  599MOL0     C80735   5.830   0.817   9.863 -0.3037  0.9246  0.3083
  599MOL0     C80736   5.727   0.787   9.956  0.3343  0.0110 -0.8485
  599MOL0     C80737   5.727   0.662  10.029  0.0395 -0.3443 -0.2946
  599MOL0     O80738   5.622   0.633  10.122 -0.0310 -0.0515 -0.1830
  599MOL0     C80739   5.512   0.729  10.127  0.7506  0.6562  0.6866
  599MOL0     C80740   5.395   0.674  10.199  0.4746  0.3961  0.1226
  599MOL0     C80741   5.328   0.564  10.121 -0.3788 -0.5708 -0.1597
  599MOL0     C80742   5.205   0.494  10.188 -0.0829  0.5485 -0.1226
  599MOL0     C80743   5.145   0.392  10.089  0.8669  0.8671  0.1172
  599MOL0     C80744   4.999   0.360  10.144  0.5686  0.0070 -0.2615
  599MOL0     C80745   5.018   0.261  10.259  0.0544  1.2952  0.1659
  599MOL0     C80746   5.045   0.114  10.230 -0.9246 -0.0204  1.0160
  599MOL0     N80747   4.941   0.065  10.141  0.5353 -0.2357 -0.1763
  599MOL0     C80748   4.833  -0.007  10.184 -0.2834 -0.1425 -0.4006
  599MOL0     C80749   4.772  -0.037  10.065 -1.0050  0.4333  0.2125
  599MOL0     C80750   4.653  -0.128  10.046  0.0527  1.0796  0.2968
  599MOL0     C80751   4.524  -0.048  10.064 -0.6343 -0.3619  1.5194
  599MOL0     C80752   4.499   0.005  10.200 -0.0797  0.0385 -0.4036
  599MOL0     C80753   4.479  -0.101  10.298 -0.1713  0.2620  0.7648
  599MOL0     O80754   4.609  -0.146  10.345 -0.7100 -0.3868  0.5188
  599MOL0     C80755   4.605  -0.246  10.444 -0.3444 -0.0764  0.3083
  599MOL0     C80756   4.723  -0.285  10.497  0.1298  1.2233  0.6791
  599MOL0     C80757   4.733  -0.400  10.579 -0.9217 -0.9107 -0.3263
  599MOL0     C80758   4.872  -0.408  10.643  0.4823 -0.9437  0.8529
  599MOL0     C80759   4.619  -0.475  10.615 -0.3675  0.1387 -0.1730
  599MOL0     C80760   4.627  -0.595  10.702 -0.1737 -0.0750  0.2056
  599MOL0     O80761   4.515  -0.656  10.728  0.5284  1.1734 -0.0812
  599MOL0     C80762   4.500  -0.723  10.852 -0.6725 -0.3129 -0.3279
  599MOL0     C80763   4.572  -0.830  10.904  0.3447 -0.0870 -0.1322
  599MOL0     C80764   4.516  -0.916  11.005 -0.0370  0.4893  0.8271
  599MOL0     C80765   4.387  -0.895  11.054 -0.4650 -0.6685 -0.3226
  599MOL0     O80766   4.353  -0.973  11.167 -0.1530  0.3408  0.5612
  599MOL0     C80767   4.212  -1.000  11.178  0.7881  0.0255  0.7768
  599MOL0     C80768   4.202  -1.117  11.276 -0.1446  0.3741  0.0094
  599MOL0     C80769   4.063  -1.127  11.336  0.5619 -0.3409  0.5571
  599MOL0     C80770   4.067  -1.245  11.432 -0.9672  0.7086 -0.2721
  599MOL0     C80771   3.929  -1.288  11.485 -0.1840  0.0531 -0.0880
  599MOL0     C80772   3.925  -1.426  11.553 -0.7150 -0.0512  0.5970
  599MOL0     C80773   3.989  -1.550  11.478  0.0004 -0.2142 -0.1391
  599MOL0     C80774   3.925  -1.676  11.525 -0.9646  0.3398 -0.7350
  599MOL0    Cl80775   3.756  -1.695  11.481 -0.1730  0.1142 -0.6658
  599MOL0     C80776   4.320  -0.782  10.998  0.5602 -0.0445  0.0139
  599MOL0     C80777   4.377  -0.700  10.907 -0.2070 -0.3480  1.2575
  599MOL0     O80778   4.730  -0.631  10.754  1.1426  0.2778 -0.2553
  599MOL0     C80779   4.496  -0.432  10.567 -0.1411  0.1406 -0.1162
  599MOL0     C80780   4.487  -0.319  10.489 -0.6125  0.3768 -0.0387
  599MOL0     N80781   4.846   0.002   9.961 -0.5109 -0.2416  0.0407
  599MOL0     N80782   4.949   0.070  10.009  0.1910  0.1632 -0.6117
  599MOL0     C80783   5.833   0.587  10.021 -1.1959  0.3163 -0.5927
  599MOL0     C80784   5.949   0.625   9.954  0.3585  0.0786 -0.0891
  599MOL0     C80785   6.206   0.869   9.636 -0.8916  0.3077 -0.5550
  599MOL0     C80786   6.320   0.787   9.680  0.4999 -0.6421  0.4966
  599MOL0     C80787   6.442   0.812   9.626 -0.4535  0.3766 -0.3912
  599MOL0     C80788   6.466   0.913   9.531  0.1428 -0.4472  0.1447
  599MOL0     O80789   6.594   0.920   9.471 -0.0167 -0.8980  0.0605
  599MOL0     C80790   6.629   1.043   9.406  0.0456  0.3087  0.6236
  599MOL0     C80791   6.658   1.151   9.516  0.0647  0.2704 -0.3083
  599MOL0     C80792   6.739   1.262   9.459 -0.0014 -0.9822  1.8679
  599MOL0     C80793   6.661   1.352   9.351  0.4571  1.0319 -0.5148
  599MOL0     C80794   6.523   1.373   9.373 -0.4503  0.4747 -0.3854
  599MOL0     C80795   6.415   1.376   9.409  1.1339 -0.1477  0.2442
  599MOL0     C80796   6.353   0.982   9.479  0.5707 -0.0123 -0.1040
  599MOL0     C80797   6.228   0.966   9.545 -0.0166 -0.9343 -0.0103
  599MOL0     H80798   5.822   0.907   9.802  2.8147 -0.2323 -2.0739
  599MOL0     H80799   5.649   0.863   9.954  1.3951  1.2990  1.7285
  599MOL0     H80800   5.538   0.823  10.176  0.7051 -0.5519  3.1608
  599MOL0     H80801   5.480   0.739  10.023 -0.8223  0.8587  1.1612
  599MOL0     H80802   5.435   0.638  10.294  0.9045 -0.1434 -0.2609
  599MOL0     H80803   5.332   0.756  10.236  0.8566  0.6606  0.1918
  599MOL0     H80804   5.282   0.607  10.032 -1.3396  2.5021  1.6562
  599MOL0     H80805   5.404   0.491  10.092 -1.4442 -0.9779 -2.0256
  599MOL0     H80806   5.240   0.454  10.283  0.0986 -3.0091 -1.5403
  599MOL0     H80807   5.135   0.577  10.205 -0.6364  0.6832 -2.5843
  599MOL0     H80808   5.130   0.442   9.993 -0.4076  0.5955  0.1499
  599MOL0     H80809   5.202   0.299  10.083 -1.8600 -0.9312  0.4710
  599MOL0     H80810   4.955   0.458  10.160  2.0376  1.3649 -3.5650
  599MOL0     H80811   4.939   0.316  10.064 -0.4335 -1.2075  1.1250
  599MOL0     H80812   5.098   0.297  10.324  2.5978 -1.5463 -1.1504
  599MOL0     H80813   4.924   0.269  10.314 -0.9567  0.6108 -1.3702
  599MOL0     H80814   5.034   0.046  10.314 -2.2910 -1.2620 -0.1106
  599MOL0     H80815   5.137   0.110  10.171 -1.0977  0.2196  0.7231
  599MOL0     H80816   4.801  -0.026  10.285 -1.6660 -1.0358 -0.9782
  599MOL0     H80817   4.655  -0.174   9.947  0.9830  0.5049  0.5604
  599MOL0     H80818   4.651  -0.205  10.124 -1.5673 -0.6670 -1.3678
  599MOL0     H80819   4.442  -0.115  10.039  1.3125 -1.3010 -3.8830
  599MOL0     H80820   4.523   0.032   9.988 -1.6615 -0.7086  1.1510
  599MOL0     H80821   4.415   0.075  10.203  0.8926  1.2266 -0.0943
  599MOL0     H80822   4.584   0.065  10.233 -0.9099  1.8633 -1.4560
  599MOL0     H80823   4.408  -0.169  10.251  0.5602  0.5720 -0.9047
  599MOL0     H80824   4.427  -0.060  10.384 -3.4793  0.4926 -1.1786
  599MOL0     H80825   4.811  -0.225  10.476  2.2150 -1.6078  0.7423
  599MOL0     H80826   4.871  -0.411  10.753 -2.7866 -0.5828  0.9317
  599MOL0     H80827   4.917  -0.500  10.605  1.3334  1.0804 -3.6762
  599MOL0     H80828   4.936  -0.328  10.606  0.2367 -0.7210  0.9122
  599MOL0     H80829   4.669  -0.852  10.860  0.6330  0.3141  0.2930
  599MOL0     H80830   4.583  -0.993  11.043  1.1797  2.0347  1.9493
  599MOL0     H80831   4.161  -0.913  11.220 -2.9043 -0.6588 -1.7592
  599MOL0     H80832   4.157  -1.029  11.088  1.2714  1.5440 -0.0551
  599MOL0     H80833   4.234  -1.213  11.235  1.3444 -0.8498  3.6385
  599MOL0     H80834   4.268  -1.093  11.360  2.7364 -2.2157 -1.3142
  599MOL0     H80835   3.990  -1.151  11.258  0.7324  0.6848  0.0732
  599MOL0     H80836   4.035  -1.036  11.389  1.7750 -0.4585  1.4616
  599MOL0     H80837   4.103  -1.334  11.381  0.3254  0.4064  1.0972
  599MOL0     H80838   4.136  -1.227  11.515  0.8987 -0.1243 -1.5864
  599MOL0     H80839   3.859  -1.299  11.401  1.4384 -3.3087 -1.2075
  599MOL0     H80840   3.888  -1.207  11.546  2.9996  2.4113 -0.8467
  599MOL0     H80841   3.975  -1.425  11.650  0.6902  0.2058 -0.0992
  599MOL0     H80842   3.819  -1.446  11.572 -0.9126  1.7337  1.5684
  599MOL0     H80843   4.097  -1.545  11.491 -0.0389  0.4077 -0.0342
  599MOL0     H80844   3.975  -1.542  11.369  1.9317  0.5468 -0.3641
  599MOL0     H80845   3.939  -1.678  11.634 -1.2059 -1.0270 -0.7109
  599MOL0     H80846   3.980  -1.759  11.480 -0.8369 -0.2012  0.3678
  599MOL0     H80847   4.219  -0.764  11.034  1.0366  1.1843  0.8238
  599MOL0     H80848   4.327  -0.613  10.867  0.3975 -0.2684  0.6462
  599MOL0     H80849   4.409  -0.497  10.576 -1.9180  2.3215 -0.6787
  599MOL0     H80850   4.389  -0.290  10.451 -0.5938  0.5359  0.0342
  599MOL0     H80851   5.837   0.486  10.060  2.3464 -0.9999 -3.6945
  599MOL0     H80852   6.036   0.560   9.950  1.1406  1.1019 -0.4421
  599MOL0     H80853   6.315   0.712   9.758 -0.8804 -1.3391 -0.2371
  599MOL0     H80854   6.538   0.771   9.656 -0.2642 -0.3179 -1.8328
  599MOL0     H80855   6.718   1.032   9.344 -0.2782  0.7019  0.0788
  599MOL0     H80856   6.557   1.074   9.330  0.9713 -1.3916 -1.0087
  599MOL0     H80857   6.709   1.107   9.602  0.4886  0.9886 -0.1825
  599MOL0     H80858   6.566   1.195   9.555 -1.0042 -2.7440  0.8340
  599MOL0     H80859   6.831   1.216   9.421 -0.7992 -1.9067  0.9865
  599MOL0     H80860   6.757   1.342   9.531  1.5156  1.4843 -1.0317
  599MOL0     H80861   6.669   1.302   9.254  1.6373  2.7635 -1.3709
  599MOL0     H80862   6.712   1.449   9.346 -0.5634  1.7721  2.0666
  599MOL0     H80863   6.310   1.381   9.429  1.0082  0.8138 -0.5962
  599MOL0     H80864   6.354   1.060   9.404 -2.6921  0.9535  0.6971
  599MOL0     H80865   6.140   1.023   9.518 -1.1951 -2.9085 -0.5049
  600MOL0     O80866   2.534  11.192   5.865  0.1893  0.4592  0.1257
  600MOL0     C80867   2.576  11.123   5.775 -0.3210  1.0688 -0.1044
  600MOL0     O80868   2.510  11.007   5.732  0.6370 -0.0736 -0.7298
  600MOL0     C80869   2.379  11.004   5.771 -0.2461 -0.4060  0.7375
  600MOL0     C80870   2.284  11.079   5.700 -0.4749 -0.2339 -0.6414
  600MOL0     C80871   2.148  11.076   5.733  1.0420 -0.3374 -0.2884
  600MOL0     C80872   2.102  10.983   5.835  0.0847  0.3241  1.0109
  600MOL0     O80873   1.966  10.993   5.881 -0.0065  0.0021  0.6821
  600MOL0     C80874   1.922  10.910   5.981  0.6001 -0.4915 -0.2514
  600MOL0     C80875   1.776  10.891   5.937  0.3024  0.1726  0.8833
  600MOL0     C80876   1.702  10.810   6.039  0.4543  1.1449  0.5981
  600MOL0     C80877   1.547  10.844   6.038  1.2959  0.4755 -0.1895
  600MOL0     C80878   1.472  10.752   6.134 -0.3969  0.9128  0.8227
  600MOL0     C80879   1.316  10.765   6.104 -1.5896  1.2025  0.1917
  600MOL0     C80880   1.272  10.907   6.127  0.0187 -0.5847  0.8286
  600MOL0     C80881   1.124  10.914   6.162  0.5964 -0.5668  0.4521
  600MOL0     N80882   1.065  11.018   6.081  0.8196  0.2449  0.1236
  600MOL0     C80883   1.043  11.017   5.951  0.1043 -0.8586 -0.1121
  600MOL0     C80884   1.008  11.144   5.924  0.1531  1.2596  0.2726
  600MOL0     C80885   0.960  11.212   5.793  0.3232  0.4598  0.6784
  600MOL0     C80886   0.825  11.285   5.806  0.8788 -0.3675 -1.0291
  600MOL0     C80887   0.711  11.190   5.852  0.3110 -0.4668 -0.3260
  600MOL0     C80888   0.579  11.270   5.841  0.6642 -0.2384 -0.1543
  600MOL0     O80889   0.554  11.311   5.706  0.8429  0.3461 -0.5408
  600MOL0     C80890   0.426  11.370   5.688 -0.0683  0.7674  0.3382
  600MOL0     C80891   0.363  11.442   5.786  0.5392  0.2177  0.3735
  600MOL0     C80892   0.237  11.507   5.752 -0.7574  0.5616  0.2798
  600MOL0     C80893   0.165  11.569   5.870  0.2514 -0.2205 -0.1026
  600MOL0     C80894   0.178  11.500   5.624 -0.3659  0.4024  0.8203
  600MOL0     C80895   0.053  11.549   5.583  0.5209 -0.5668  0.1118
  600MOL0     O80896  -0.033  11.482   5.498 -0.7888  0.1676 -0.2201
  600MOL0     C80897  -0.144  11.548   5.478  0.3666 -0.2725  0.3268
  600MOL0     C80898  -0.174  11.624   5.360 -0.1190  0.4159  0.7086
  600MOL0     C80899  -0.298  11.684   5.354 -0.9990 -0.4000 -0.1500
  600MOL0     C80900  -0.400  11.645   5.440 -0.3301 -0.6176 -0.2013
  600MOL0     O80901  -0.525  11.699   5.421  0.8184  0.4828 -0.0181
  600MOL0     C80902  -0.641  11.637   5.470  0.5421 -0.0031 -0.8909
  600MOL0     C80903  -0.758  11.712   5.402 -0.4039  0.9050 -0.6741
  600MOL0     C80904  -0.749  11.862   5.454  0.1518 -0.0175 -0.2252
  600MOL0     C80905  -0.852  11.883   5.567 -0.1314  0.1736  1.0319
  600MOL0     C80906  -0.918  12.013   5.594 -0.4166 -0.3444  0.5976
  600MOL0     C80907  -1.022  11.996   5.711  0.8218 -0.8527  0.1811
  600MOL0     C80908  -1.158  11.944   5.661  0.4214 -0.5993 -0.0874
  600MOL0     C80909  -1.255  11.943   5.782  0.3201 -0.4500 -0.2662
  600MOL0    Cl80910  -1.307  12.111   5.812 -0.2513  0.0032  0.3801
  600MOL0     C80911  -0.371  11.566   5.556  0.1806 -0.3010  0.3140
  600MOL0     C80912  -0.246  11.523   5.577  0.5732 -0.5416  0.4789
  600MOL0     O80913   0.040  11.665   5.616 -0.2093 -0.5779  0.2092
  600MOL0     C80914   0.252  11.431   5.528  0.2627 -0.5470 -0.6282
  600MOL0     C80915   0.370  11.370   5.561  0.5586 -0.4246 -0.0806
  600MOL0     N80916   1.008  11.219   6.038 -0.3806 -0.4596 -0.2396
  600MOL0     N80917   1.049  11.140   6.134 -0.0818 -0.0480  0.7602
  600MOL0     C80918   2.201  10.897   5.896  0.3977  0.2381  0.0792
  600MOL0     C80919   2.336  10.914   5.869 -0.5106  0.4247 -0.1870
  600MOL0     C80920   2.697  11.163   5.706  0.1624 -0.1056 -0.5595
  600MOL0     C80921   2.761  11.286   5.745 -0.1386  0.5242  0.5274
  600MOL0     C80922   2.866  11.336   5.663 -0.3365 -0.2790  0.2882
  600MOL0     C80923   2.916  11.262   5.548  0.3303 -0.3405  0.0876
  600MOL0     O80924   3.025  11.316   5.482 -0.3760  0.3128  0.2190
  600MOL0     C80925   3.105  11.227   5.399  0.4612 -0.3757 -0.4160
  600MOL0     C80926   3.241  11.289   5.345 -0.3650  0.2773  0.2075
  600MOL0     C80927   3.335  11.349   5.458 -0.2273  0.0148  0.0283
  600MOL0     C80928   3.480  11.398   5.409 -0.3323 -0.3288  0.1095
  600MOL0     C80929   3.548  11.494   5.481 -0.6731 -1.7229  0.2499
  600MOL0     C80930   3.620  11.565   5.558 -0.6415 -0.6589  0.0379
  600MOL0     C80931   2.842  11.144   5.512 -0.4728 -0.5429  0.1075
  600MOL0     C80932   2.739  11.098   5.592 -0.0159  0.2969 -0.2911
  600MOL0     H80933   2.327  11.151   5.631  1.9848  1.7991  2.6855
  600MOL0     H80934   2.079  11.150   5.693  0.3503  0.3213  1.9383
  600MOL0     H80935   1.965  10.810   5.989 -1.1225 -1.1220  2.4421
  600MOL0     H80936   1.940  10.961   6.076  0.7291 -1.2608  0.1478
  600MOL0     H80937   1.722  10.985   5.926  1.9981  0.9920 -1.1670
  600MOL0     H80938   1.769  10.845   5.837  1.3923  1.8378  0.0093
  600MOL0     H80939   1.730  10.707   6.015  1.7018  1.9050 -1.4756
  600MOL0     H80940   1.733  10.829   6.142 -1.6883 -0.5806  1.6287
  600MOL0     H80941   1.520  10.945   6.071  1.3980  0.3499  0.2934
  600MOL0     H80942   1.504  10.841   5.938 -3.2361  3.0880  1.4036
  600MOL0     H80943   1.504  10.648   6.124 -0.6721  0.9626 -0.8268
  600MOL0     H80944   1.497  10.770   6.239 -1.0831 -1.5407  1.4671
  600MOL0     H80945   1.299  10.732   6.002  0.1576  2.5008 -0.5711
  600MOL0     H80946   1.258  10.699   6.169 -2.4088  0.9947 -0.7342
  600MOL0     H80947   1.328  10.947   6.212  0.4564  0.8091 -0.0885
  600MOL0     H80948   1.290  10.960   6.033 -1.0116  0.5356  1.2405
  600MOL0     H80949   1.125  10.932   6.270  1.2032 -0.1665  0.3849
  600MOL0     H80950   1.071  10.820   6.145 -0.9671  0.6089 -1.5547
  600MOL0     H80951   1.063  10.942   5.874  2.3608  0.4596 -0.9246
  600MOL0     H80952   1.028  11.295   5.770  0.7270 -0.2350 -0.7839
  600MOL0     H80953   0.955  11.142   5.709 -0.0663 -1.4107  2.1839
  600MOL0     H80954   0.799  11.327   5.708  2.1876 -1.7764 -2.0297
  600MOL0     H80955   0.840  11.367   5.877 -0.5942  0.6500 -1.8288
  600MOL0     H80956   0.745  11.166   5.953  6.8545  1.5629 -1.5336
  600MOL0     H80957   0.709  11.102   5.788 -1.2702 -0.3655 -0.4474
  600MOL0     H80958   0.588  11.352   5.913  0.2174 -2.8754  3.2326
  600MOL0     H80959   0.497  11.206   5.875  1.0939 -0.7586 -0.0664
  600MOL0     H80960   0.392  11.444   5.891 -1.5263 -0.7409  1.0203
  600MOL0     H80961   0.187  11.676   5.876  1.0423 -0.3881  0.1095
  600MOL0     H80962   0.059  11.546   5.853  0.5821 -0.9950 -1.1906
  600MOL0     H80963   0.186  11.528   5.969 -0.6341  1.4515  0.8204
  600MOL0     H80964  -0.111  11.650   5.275 -2.8089 -0.1754 -1.6187
  600MOL0     H80965  -0.305  11.747   5.266  1.3165 -1.5245 -1.2570
  600MOL0     H80966  -0.639  11.533   5.436  0.1049 -0.4119  0.3169
  600MOL0     H80967  -0.654  11.639   5.578 -1.4347  0.4614 -1.0949
  600MOL0     H80968  -0.744  11.711   5.294  1.9271 -1.0953 -0.4363
  600MOL0     H80969  -0.852  11.658   5.416  0.3492 -0.7318 -1.6594
  600MOL0     H80970  -0.773  11.930   5.371 -1.3875 -1.6640 -1.2035
  600MOL0     H80971  -0.645  11.885   5.480  0.0575 -3.3086  4.2390
  600MOL0     H80972  -0.931  11.808   5.565  0.4028 -0.3951  0.8539
  600MOL0     H80973  -0.780  11.858   5.645  0.1042  1.4642  1.2549
  600MOL0     H80974  -0.965  12.044   5.500  4.6106  0.8784 -1.8365
  600MOL0     H80975  -0.841  12.084   5.624 -0.1314 -1.4297  2.5707
  600MOL0     H80976  -0.992  11.927   5.790 -1.1335 -1.8023  0.1452
  600MOL0     H80977  -1.043  12.092   5.760 -0.8354 -0.8778 -0.3950
  600MOL0     H80978  -1.143  11.842   5.624 -0.8036 -0.9928  0.4454
  600MOL0     H80979  -1.191  12.015   5.585  2.7973  1.1000  0.3314
  600MOL0     H80980  -1.203  11.891   5.863  1.2511 -3.0594 -2.3840
  600MOL0     H80981  -1.341  11.881   5.757 -0.1201 -0.7078  1.7054
  600MOL0     H80982  -0.448  11.549   5.630  0.3012 -2.8713 -0.0510
  600MOL0     H80983  -0.224  11.473   5.671 -1.2123  1.7734  2.2530
  600MOL0     H80984   0.211  11.418   5.428  1.7276 -1.0266 -1.1909
  600MOL0     H80985   0.404  11.315   5.474  1.6457 -2.7619  1.7011
  600MOL0     H80986   2.168  10.824   5.970  0.5109 -0.6066 -0.6866
  600MOL0     H80987   2.403  10.855   5.930  0.7953  1.7136 -0.3199
  600MOL0     H80988   2.709  11.345   5.820 -0.5851 -0.4096  0.9608
  600MOL0     H80989   2.919  11.429   5.678 -0.5802  0.3008 -2.0436
  600MOL0     H80990   3.123  11.132   5.450  3.3259 -0.3485 -1.2272
  600MOL0     H80991   3.045  11.192   5.314  0.7667 -0.9438 -0.3979
  600MOL0     H80992   3.226  11.370   5.273 -1.6430  0.8441  1.0664
  600MOL0     H80993   3.302  11.207   5.307  0.7161  0.0851  2.2358
  600MOL0     H80994   3.352  11.277   5.538  5.4281  2.1580  1.2966
  600MOL0     H80995   3.283  11.434   5.503  0.6525  0.1248  0.8841
  600MOL0     H80996   3.487  11.431   5.305  3.6350 -0.0518  0.2945
  600MOL0     H80997   3.530  11.301   5.412 -3.0549 -1.8243  2.9035
  600MOL0     H80998   3.684  11.618   5.625  0.8709 -0.5593 -1.4231
  600MOL0     H80999   2.859  11.082   5.425  1.7625  0.4792 -0.2660
  600MOL0     H81000   2.685  11.006   5.573 -4.1390  2.7384 -1.5685
  601MOL0     O81001   5.111   5.142  10.468  1.1964 -0.3086 -0.9876
  601MOL0     C81002   5.127   5.249  10.419 -0.1898 -0.7500 -0.2555
  601MOL0     O81003   5.199   5.353  10.474  0.2656 -0.3857  0.3828
  601MOL0     C81004   5.220   5.343  10.613 -0.3657  0.3403 -0.6516
  601MOL0     C81005   5.322   5.265  10.659 -0.2384  0.9436 -0.3629
  601MOL0     C81006   5.356   5.261  10.793 -0.3535  0.5293  0.4741
  601MOL0     C81007   5.289   5.339  10.887 -0.0427  0.1853  0.6760
  601MOL0     O81008   5.309   5.332  11.026  0.2868 -0.0345 -0.7186
  601MOL0     C81009   5.423   5.405  11.085 -0.0664 -0.0726 -0.1396
  601MOL0     C81010   5.527   5.303  11.117 -0.1600  0.3443 -0.0898
  601MOL0     C81011   5.479   5.207  11.232  0.9401  0.4302  0.1372
  601MOL0     C81012   5.564   5.082  11.218  0.0009  0.8264  0.0868
  601MOL0     C81013   5.487   4.966  11.144 -1.4125 -0.4578  0.1461
  601MOL0     C81014   5.420   4.992  11.011 -0.5544 -0.0987 -0.3805
  601MOL0     C81015   5.358   4.860  10.965 -0.4441  0.0483  0.9389
  601MOL0     C81016   5.215   4.836  11.039 -0.5758  0.2374  1.1230
  601MOL0     N81017   5.096   4.926  11.014 -0.0036  0.0238 -0.2236
  601MOL0     C81018   5.076   5.009  10.910  0.5471  0.2435 -0.6805
  601MOL0     C81019   4.953   5.072  10.943  0.7794  0.4027 -0.9179
  601MOL0     C81020   4.882   5.194  10.868  0.0766  0.0512 -0.5716
  601MOL0     C81021   4.729   5.214  10.894  0.0934 -0.8030  0.0657
  601MOL0     C81022   4.676   5.360  10.857 -0.1193 -0.6332 -0.3374
  601MOL0     C81023   4.641   5.396  10.715 -0.4593 -0.2198  0.5105
  601MOL0     O81024   4.765   5.433  10.649  1.0992  0.0182 -0.0214
  601MOL0     C81025   4.756   5.504  10.525 -0.1153  0.5719 -1.1367
  601MOL0     C81026   4.662   5.466  10.423 -0.0097  0.8026 -0.3559
  601MOL0     C81027   4.681   5.519  10.295 -0.1068  0.1707 -0.3572
  601MOL0     C81028   4.588   5.459  10.186  0.1055  0.3059  0.5192
  601MOL0     C81029   4.791   5.603  10.271 -0.0706 -0.3580 -0.3334
  601MOL0     C81030   4.833   5.659  10.134 -0.2164  0.0155  0.0634
  601MOL0     O81031   4.764   5.634  10.027 -0.2591 -0.2268  0.4452
  601MOL0     C81032   4.782   5.714   9.915 -0.1143 -0.6766  0.7817
  601MOL0     C81033   4.676   5.752   9.843  1.2313 -0.1109 -0.0776
  601MOL0     C81034   4.674   5.837   9.732  0.0084 -0.4116 -0.4681
  601MOL0     C81035   4.799   5.872   9.683  0.2094 -0.0433 -0.1919
  601MOL0     O81036   4.815   5.936   9.564 -0.3037  0.0016  0.2049
  601MOL0     C81037   4.705   5.961   9.470  0.0633  0.4645 -0.5485
  601MOL0     C81038   4.765   6.025   9.346 -0.9292 -0.4571  0.3785
  601MOL0     C81039   4.840   5.938   9.256 -0.2938 -0.1906 -0.6659
  601MOL0     C81040   4.752   5.881   9.146  0.5487  0.2708 -0.5121
  601MOL0     C81041   4.821   5.825   9.024 -0.4634 -0.5468  0.3424
  601MOL0     C81042   4.924   5.923   8.951 -0.2420 -0.2974 -0.1215
  601MOL0     C81043   4.921   5.911   8.798  0.2358  0.5926  1.1488
  601MOL0     C81044   5.007   6.024   8.740 -0.6955  0.6514  0.0116
  601MOL0    Cl81045   5.067   5.966   8.590  0.2406 -0.0388  0.7068
  601MOL0     C81046   4.918   5.838   9.751  0.2288  0.0097  0.7964
  601MOL0     C81047   4.914   5.757   9.869  0.3629 -0.5003  0.5169
  601MOL0     O81048   4.906   5.758  10.149  0.6088 -0.0132 -0.2626
  601MOL0     C81049   4.877   5.645  10.382  0.0529 -0.2452  0.6929
  601MOL0     C81050   4.855   5.593  10.509  0.5048 -0.1512  0.6631
  601MOL0     N81051   4.898   5.006  11.058  0.3361  0.6034 -0.0039
  601MOL0     N81052   4.994   4.932  11.101  0.8251 -0.0239 -0.0377
  601MOL0     C81053   5.179   5.416  10.839  0.5382 -0.0620  0.1189
  601MOL0     C81054   5.150   5.418  10.708  0.0414  0.4218 -0.6140
  601MOL0     C81055   5.066   5.266  10.279 -0.0104  0.0015 -0.5777
  601MOL0     C81056   5.088   5.377  10.201 -0.0014 -0.7015  0.2998
  601MOL0     C81057   5.034   5.382  10.076 -0.3549  0.3157  1.4315
  601MOL0     C81058   4.933   5.297  10.033  0.2800  0.6176  0.1755
  601MOL0     O81059   4.872   5.339   9.922  0.0266 -0.0922  0.4347
  601MOL0     C81060   4.765   5.261   9.864 -0.1707  0.3093 -0.0689
  601MOL0     C81061   4.721   5.321   9.727 -0.2751 -0.0177  0.0434
  601MOL0     C81062   4.848   5.360   9.646  0.0578 -0.1321  0.2953
  601MOL0     C81063   4.796   5.406   9.504 -0.3030  0.7093 -0.6135
  601MOL0     C81064   4.906   5.409   9.403  0.1183 -0.5602  0.2194
  601MOL0     C81065   4.988   5.424   9.316 -0.1633 -0.4832  0.6989
  601MOL0     C81066   4.908   5.188  10.110  0.1382 -0.0838 -0.5502
  601MOL0     C81067   4.982   5.169  10.228  0.2316 -0.1340  0.3438
  601MOL0     H81068   5.376   5.201  10.590 -1.0012  1.2931 -1.3188
  601MOL0     H81069   5.443   5.204  10.825  0.1159  2.2427  2.4883
  601MOL0     H81070   5.461   5.480  11.015 -0.1452 -1.0905 -1.3231
  601MOL0     H81071   5.381   5.451  11.174  0.5446  0.1419  0.0373
  601MOL0     H81072   5.561   5.246  11.030 -0.2839 -2.4931  1.5816
  601MOL0     H81073   5.608   5.362  11.160  0.6274 -1.5401  1.1873
  601MOL0     H81074   5.490   5.264  11.324  0.2519 -2.4926  2.1805
  601MOL0     H81075   5.371   5.192  11.225  0.4151  1.9634  3.2001
  601MOL0     H81076   5.662   5.097  11.172  0.5999 -0.0391  1.0442
  601MOL0     H81077   5.588   5.038  11.315 -0.0553 -0.5880 -0.5213
  601MOL0     H81078   5.564   4.889  11.138 -2.0318 -0.9933 -1.6226
  601MOL0     H81079   5.410   4.942  11.218  1.6321 -0.8449  3.4569
  601MOL0     H81080   5.336   5.062  11.023  0.9369  1.4577  1.6901
  601MOL0     H81081   5.496   5.012  10.935  1.6857  1.7617  2.1463
  601MOL0     H81082   5.336   4.877  10.859 -0.3808  0.8110  1.0431
  601MOL0     H81083   5.419   4.770  10.953 -0.9506 -0.4546  1.9963
  601MOL0     H81084   5.229   4.846  11.147  2.8407 -2.8523  1.1470
  601MOL0     H81085   5.195   4.732  11.016  3.0096 -0.8788  2.3132
  601MOL0     H81086   5.133   5.018  10.818 -0.4019 -0.4760 -1.3494
  601MOL0     H81087   4.927   5.287  10.905 -1.4408  0.8888 -0.7523
  601MOL0     H81088   4.914   5.185  10.764 -0.3666  0.4807 -0.7484
  601MOL0     H81089   4.715   5.203  11.002  0.3599 -0.6280  0.1189
  601MOL0     H81090   4.672   5.146  10.829  0.9233  1.0608 -2.7696
  601MOL0     H81091   4.745   5.437  10.892 -3.9248  2.7928  0.3046
  601MOL0     H81092   4.598   5.378  10.932  3.2500 -1.5442  3.8190
  601MOL0     H81093   4.575   5.483  10.711  1.6024  1.4247  0.3310
  601MOL0     H81094   4.590   5.315  10.662  0.8625  0.7366 -2.4460
  601MOL0     H81095   4.582   5.396  10.446  0.5609 -0.4128 -1.8618
  601MOL0     H81096   4.495   5.418  10.226 -0.0854  1.5475  1.3884
  601MOL0     H81097   4.554   5.542  10.123  1.8471  1.1852  0.6694
  601MOL0     H81098   4.646   5.383  10.133  2.2771  1.8325  0.5740
  601MOL0     H81099   4.584   5.708   9.880  1.1732  0.1696  0.1173
  601MOL0     H81100   4.586   5.886   9.691  0.2187 -1.1235 -1.8124
  601MOL0     H81101   4.654   5.869   9.442  2.9477 -2.3956  2.6562
  601MOL0     H81102   4.631   6.025   9.519 -0.2731 -2.2759  3.0038
  601MOL0     H81103   4.685   6.075   9.290 -0.3760  2.6774  2.1419
  601MOL0     H81104   4.834   6.100   9.384  2.5957 -4.1340  1.9132
  601MOL0     H81105   4.886   5.853   9.310 -2.8843 -1.4262 -0.2663
  601MOL0     H81106   4.925   5.988   9.209  1.2948 -0.9569  1.2271
  601MOL0     H81107   4.675   5.817   9.191 -1.4235  1.3724 -2.1702
  601MOL0     H81108   4.702   5.967   9.101 -5.0110 -1.0680  2.2470
  601MOL0     H81109   4.754   5.797   8.943 -0.0898  2.1194 -0.9874
  601MOL0     H81110   4.879   5.736   9.050  1.0432  0.6441  1.1648
  601MOL0     H81111   4.892   6.025   8.969 -1.5302 -0.9544  1.5919
  601MOL0     H81112   5.020   5.901   8.998  0.7973  0.4568 -1.7868
  601MOL0     H81113   4.820   5.911   8.754  1.6610 -0.3977 -2.4850
  601MOL0     H81114   4.969   5.813   8.784  0.4899  0.6197  1.8436
  601MOL0     H81115   5.082   6.038   8.818 -1.0700 -1.1596  0.7454
  601MOL0     H81116   4.948   6.114   8.723  2.5641  2.5424 -2.6071
  601MOL0     H81117   5.011   5.878   9.714  0.4581  0.8062  2.1444
  601MOL0     H81118   5.007   5.747   9.924 -0.5415 -0.1487  2.1725
  601MOL0     H81119   4.962   5.711  10.366 -0.0730  0.4972  2.7375
  601MOL0     H81120   4.927   5.612  10.588 -0.5754  0.1467  1.5903
  601MOL0     H81121   5.120   5.456  10.921  2.6611  1.0430  1.1769
  601MOL0     H81122   5.051   5.453  10.681 -0.9537 -1.1089  0.7906
  601MOL0     H81123   5.147   5.457  10.246 -1.0086 -0.8912  2.0499
  601MOL0     H81124   5.055   5.474  10.022  0.9407 -0.6768  0.1835
  601MOL0     H81125   4.809   5.162   9.852  0.6084  0.7647 -1.1165
  601MOL0     H81126   4.681   5.247   9.933 -0.8950 -0.7937 -1.1510
  601MOL0     H81127   4.660   5.410   9.743  3.9073  3.6074 -2.0101
  601MOL0     H81128   4.643   5.256   9.685 -2.1370  1.8316  0.5080
  601MOL0     H81129   4.909   5.270   9.633 -1.5375 -1.1547 -0.5002
  601MOL0     H81130   4.902   5.442   9.694 -1.2367  0.5623  0.5918
  601MOL0     H81131   4.764   5.510   9.518  0.0348  0.8972 -1.1831
  601MOL0     H81132   4.721   5.334   9.471 -0.0522  1.0758 -2.0494
  601MOL0     H81133   5.075   5.435   9.254  0.2055  0.6179  1.3888
  601MOL0     H81134   4.823   5.125  10.085  0.1000  0.6476 -2.4263
  601MOL0     H81135   4.961   5.078  10.284  0.2933  0.0804  0.7153
  602MOL0     O81136   8.725   3.451   9.127  0.2419  0.6464  0.1291
  602MOL0     C81137   8.797   3.484   9.219 -0.4196 -1.2799 -0.4989
  602MOL0     O81138   8.771   3.479   9.350 -0.1948  0.5089 -0.3398
  602MOL0     C81139   8.651   3.428   9.388  0.6863  0.3338 -0.3896
  602MOL0     C81140   8.521   3.462   9.338  0.5333 -0.1283 -0.6660
  602MOL0     C81141   8.409   3.397   9.391  0.7666 -0.5910  0.2283
  602MOL0     C81142   8.418   3.310   9.500  0.5926 -0.4401  0.7021
  602MOL0     O81143   8.312   3.229   9.550 -0.2275 -0.5313 -0.9344
  602MOL0     C81144   8.181   3.250   9.507 -0.9253 -0.3041 -0.0447
  602MOL0     C81145   8.094   3.142   9.561  0.4874  0.2211 -0.2623
  602MOL0     C81146   8.124   2.998   9.501 -0.9227  0.0156 -0.2579
  602MOL0     C81147   8.093   2.886   9.606 -0.2884  0.6685 -0.8350
  602MOL0     C81148   7.954   2.902   9.661  0.2632 -0.0456  0.3966
  602MOL0     C81149   7.893   2.757   9.710  0.1062  0.2124  0.1995
  602MOL0     C81150   7.740   2.745   9.692 -0.5775  0.3702 -0.3830
  602MOL0     C81151   7.658   2.854   9.770  0.3866  0.4103 -0.5239
  602MOL0     N81152   7.516   2.813   9.783  0.4753 -0.1380  0.6637
  602MOL0     C81153   7.416   2.823   9.682 -0.0823 -0.0472  0.3585
  602MOL0     C81154   7.300   2.776   9.741  0.0253  0.1255 -0.9836
  602MOL0     C81155   7.169   2.782   9.668 -0.1667  0.9792  0.2220
  602MOL0     C81156   7.048   2.780   9.766  0.1545  0.9509 -0.1317
  602MOL0     C81157   7.044   2.898   9.858  0.7120 -0.5789 -0.4922
  602MOL0     C81158   6.933   2.880   9.951 -1.5030  0.1306 -0.5144
  602MOL0     O81159   6.813   2.853   9.879  0.4328 -0.4605 -0.1990
  602MOL0     C81160   6.702   2.816   9.946 -0.0070  0.2065 -0.2317
  602MOL0     C81161   6.701   2.761  10.073 -0.1194 -0.2743 -0.4738
  602MOL0     C81162   6.583   2.728  10.133  0.4933 -0.0387 -1.1974
  602MOL0     C81163   6.605   2.681  10.277 -0.2871 -0.1235  0.1652
  602MOL0     C81164   6.460   2.758  10.062 -0.4495 -0.0501 -0.6912
  602MOL0     C81165   6.332   2.752  10.129  0.9904  0.0782  1.1025
  602MOL0     O81166   6.232   2.727  10.034  0.6051 -0.5889 -0.2674
  602MOL0     C81167   6.096   2.718  10.076  0.0195 -0.6601 -0.2095
  602MOL0     C81168   6.050   2.658  10.190  0.2843  0.1709 -0.3568
  602MOL0     C81169   5.919   2.657  10.237 -0.2946  0.2090  0.4211
  602MOL0     C81170   5.825   2.731  10.168  0.7628  0.3697  0.6799
  602MOL0     O81171   5.701   2.723  10.226  0.0149 -0.3969  0.1122
  602MOL0     C81172   5.595   2.693  10.144  0.2015 -1.1476 -0.2913
  602MOL0     C81173   5.474   2.660  10.228 -0.0905  0.0422 -0.7226
  602MOL0     C81174   5.465   2.512  10.269 -0.1665 -0.1999  1.2272
  602MOL0     C81175   5.360   2.493  10.385 -0.5726  0.2201  0.8429
  602MOL0     C81176   5.212   2.527  10.355 -0.1481  0.3631 -0.0013
  602MOL0     C81177   5.119   2.525  10.469  1.3564 -0.2112 -0.0092
  602MOL0     C81178   4.973   2.539  10.421 -1.2906 -0.1750 -0.1401
  602MOL0     C81179   4.876   2.531  10.548  0.8259 -0.1464  0.3031
  602MOL0    Cl81180   4.710   2.586  10.495 -0.4056  0.6363  0.1472
  602MOL0     C81181   5.861   2.799  10.048  0.2790  0.7593  0.6401
  602MOL0     C81182   5.997   2.790   9.997 -0.3368  0.0911 -0.3647
  602MOL0     O81183   6.323   2.747  10.249  0.1109 -0.3356  0.1324
  602MOL0     C81184   6.469   2.807   9.933  0.2225 -0.7340 -0.1233
  602MOL0     C81185   6.589   2.831   9.867  0.8747 -0.0706  0.0504
  602MOL0     N81186   7.339   2.722   9.866 -0.1101  0.3397 -0.3282
  602MOL0     N81187   7.468   2.733   9.885 -0.4821 -0.0537  0.9063
  602MOL0     C81188   8.546   3.272   9.544  0.0964  0.3438  0.5943
  602MOL0     C81189   8.653   3.340   9.493 -0.5545 -0.1848  0.2639
  602MOL0     C81190   8.912   3.577   9.186  0.2670  0.0269 -0.6346
  602MOL0     C81191   8.971   3.654   9.278 -0.3283 -0.1255 -0.1863
  602MOL0     C81192   9.069   3.748   9.252 -0.1342 -0.4348 -0.1159
  602MOL0     C81193   9.111   3.768   9.117  0.2671 -0.0581 -0.0806
  602MOL0     O81194   9.202   3.863   9.072  0.0962 -0.3491  0.7094
  602MOL0     C81195   9.275   3.924   9.167 -0.3582 -1.4446 -0.2192
  602MOL0     C81196   9.396   4.002   9.119  0.6631  0.2945 -0.3229
  602MOL0     C81197   9.471   4.047   9.244 -0.8406 -0.3867  0.0180
  602MOL0     C81198   9.434   4.194   9.283  0.1841  0.0327  0.7156
  602MOL0     C81199   9.490   4.230   9.413  0.1301 -0.0582  0.6712
  602MOL0     C81200   9.535   4.256   9.525  0.6873  0.2438 -1.0222
  602MOL0     C81201   9.054   3.685   9.021 -0.3155  0.5114 -0.3731
  602MOL0     C81202   8.953   3.592   9.053 -0.7857 -0.6318 -0.0199
  602MOL0     H81203   8.516   3.540   9.262 -1.0170 -0.4568 -0.9321
  602MOL0     H81204   8.309   3.422   9.356  0.1541 -1.3616  1.3425
  602MOL0     H81205   8.145   3.337   9.564 -0.8812 -0.3180  0.0055
  602MOL0     H81206   8.154   3.254   9.402 -0.3838 -1.9324 -0.2730
  602MOL0     H81207   8.107   3.145   9.670 -1.6845  0.8224  0.0228
  602MOL0     H81208   7.989   3.159   9.539 -0.2669 -0.8386  2.1978
  602MOL0     H81209   8.063   2.991   9.411  0.6251 -0.4004 -1.3149
  602MOL0     H81210   8.231   2.988   9.479 -0.4723 -0.7161  1.9607
  602MOL0     H81211   8.106   2.791   9.554 -3.2807 -0.3877  0.1541
  602MOL0     H81212   8.159   2.872   9.692 -0.6770 -3.5417 -1.0076
  602MOL0     H81213   7.958   2.982   9.735  2.5277 -0.0510  0.3461
  602MOL0     H81214   7.899   2.942   9.575  3.5625  2.1049 -0.9419
  602MOL0     H81215   7.930   2.667   9.660 -1.0181  0.1675 -0.5844
  602MOL0     H81216   7.912   2.744   9.817 -0.7291 -1.1079  0.2140
  602MOL0     H81217   7.713   2.764   9.588 -1.1072 -0.5101 -0.4117
  602MOL0     H81218   7.713   2.641   9.710  0.0118  0.5546  2.0078
  602MOL0     H81219   7.657   2.953   9.724 -0.4513 -0.5557 -2.7077
  602MOL0     H81220   7.700   2.860   9.871 -0.8114 -0.4561  0.0519
  602MOL0     H81221   7.408   2.860   9.580 -1.0100 -2.1524 -0.3939
  602MOL0     H81222   7.171   2.873   9.608  1.1919  3.0813  3.2596
  602MOL0     H81223   7.163   2.696   9.600 -2.5010  1.5508 -0.3817
  602MOL0     H81224   7.070   2.693   9.828  0.2467  1.0375 -0.0444
  602MOL0     H81225   6.950   2.778   9.716 -1.6405  2.0824  3.0501
  602MOL0     H81226   7.034   2.988   9.797 -0.4217 -1.9204 -2.3882
  602MOL0     H81227   7.135   2.903   9.919  1.7482 -0.5769 -1.9837
  602MOL0     H81228   6.915   2.970  10.010  2.5326  0.4686  0.5182
  602MOL0     H81229   6.957   2.803  10.024  2.6171  1.3430 -0.3442
  602MOL0     H81230   6.788   2.738  10.134  0.1250 -0.9085 -1.0369
  602MOL0     H81231   6.690   2.613  10.272  1.6480  2.1842 -3.8490
  602MOL0     H81232   6.632   2.762  10.344 -0.2807 -0.1484  0.1931
  602MOL0     H81233   6.519   2.625  10.316 -1.0644 -0.2563 -1.6136
  602MOL0     H81234   6.115   2.594  10.249 -0.6535 -1.1136 -0.6792
  602MOL0     H81235   5.888   2.604  10.326  1.7141  0.9070  1.5990
  602MOL0     H81236   5.588   2.787  10.087 -1.1334  0.2200  1.9702
  602MOL0     H81237   5.618   2.606  10.082  1.6521 -0.4797 -0.7413
  602MOL0     H81238   5.472   2.721  10.319  2.4486 -3.7212  2.1735
  602MOL0     H81239   5.389   2.669  10.160 -0.8338 -1.3044 -0.0133
  602MOL0     H81240   5.555   2.470  10.315 -0.2257 -0.4383  1.1245
  602MOL0     H81241   5.444   2.450  10.182  2.9189 -1.2721  1.1181
  602MOL0     H81242   5.356   2.391  10.422  3.3628 -1.7868 -3.2199
  602MOL0     H81243   5.389   2.569  10.459 -0.3903 -0.3378  1.3510
  602MOL0     H81244   5.171   2.450  10.290 -1.5166 -1.0959  2.4381
  602MOL0     H81245   5.201   2.623  10.304  2.4309  0.9883  0.4731
  602MOL0     H81246   5.130   2.434  10.527 -1.0937 -0.1344  0.7009
  602MOL0     H81247   5.140   2.607  10.538 -0.7258  0.5197 -0.1637
  602MOL0     H81248   4.934   2.462  10.354 -0.8093 -1.2576  0.7877
  602MOL0     H81249   4.967   2.636  10.369 -2.3418  0.4765  1.1203
  602MOL0     H81250   4.911   2.604  10.622 -0.7100 -0.4066  1.3270
  602MOL0     H81251   4.871   2.436  10.601 -0.0295 -0.4046 -0.2205
  602MOL0     H81252   5.791   2.858   9.990  0.9386 -2.8518 -4.5149
  602MOL0     H81253   6.015   2.848   9.907 -2.3645  3.1551  1.0170
  602MOL0     H81254   6.383   2.832   9.871 -0.0258 -0.2678  0.3948
  602MOL0     H81255   6.602   2.877   9.769  1.0419  1.2717  0.6862
  602MOL0     H81256   8.549   3.195   9.620  4.0498 -0.4708 -0.1216
  602MOL0     H81257   8.752   3.322   9.532  0.1578  1.6246 -0.5711
  602MOL0     H81258   8.941   3.656   9.383  0.0224 -1.0630 -0.0581
  602MOL0     H81259   9.112   3.801   9.337 -0.7726 -3.1692  2.0703
  602MOL0     H81260   9.211   3.994   9.220  1.9527 -1.3121  2.7140
  602MOL0     H81261   9.314   3.853   9.241  3.0461  0.8340  0.4228
  602MOL0     H81262   9.379   4.081   9.045  0.9876  0.8834  0.2122
  602MOL0     H81263   9.456   3.925   9.071 -1.3614 -0.8127 -1.1738
  602MOL0     H81264   9.578   4.056   9.222  0.2136  0.3996  4.4017
  602MOL0     H81265   9.457   3.982   9.331 -3.5236 -0.6232 -0.4956
  602MOL0     H81266   9.324   4.199   9.281  0.2214  1.5516  1.4259
  602MOL0     H81267   9.460   4.253   9.195 -0.9388 -1.6126 -0.8093
  602MOL0     H81268   9.551   4.278   9.629 -1.2323 -0.2193 -0.5857
  602MOL0     H81269   9.081   3.699   8.917 -1.6511  2.1018 -0.5451
  602MOL0     H81270   8.915   3.521   8.981  1.3483 -0.6585 -1.2007
  603MOL0     O81271   3.306   2.478   1.179 -0.0050 -0.0378  0.1564
  603MOL0     C81272   3.397   2.405   1.200 -0.7877  0.3900 -0.2803
  603MOL0     O81273   3.424   2.336   1.322  0.5703 -0.6560  1.0769
  603MOL0     C81274   3.314   2.296   1.402  0.4610  0.0637  0.0966
  603MOL0     C81275   3.358   2.258   1.530 -0.0979  0.3396 -0.4763
  603MOL0     C81276   3.266   2.238   1.627 -0.1263  0.3543 -0.2822
  603MOL0     C81277   3.131   2.235   1.599  0.8774  0.3110 -0.0459
  603MOL0     O81278   3.037   2.195   1.689 -0.2641  0.2836 -0.6527
  603MOL0     C81279   3.050   2.211   1.828  0.3645 -0.0411 -0.2104
  603MOL0     C81280   2.954   2.120   1.913  0.1819 -0.9133  0.1092
  603MOL0     C81281   2.808   2.146   1.869 -0.4283 -0.2977 -0.2946
  603MOL0     C81282   2.719   2.050   1.944  0.4345  0.3001  0.6394
  603MOL0     C81283   2.587   2.015   1.869 -0.7823 -0.1410 -0.6522
  603MOL0     C81284   2.495   1.917   1.950 -0.3525 -0.4913 -0.5314
  603MOL0     C81285   2.371   1.876   1.878 -0.4036  0.8332 -0.3278
  603MOL0     C81286   2.276   1.808   1.969 -0.2870  0.4372  0.3518
  603MOL0     N81287   2.146   1.793   1.902  0.3150 -0.1799 -0.2737
  603MOL0     C81288   2.116   1.700   1.798 -0.2729  0.0763  0.1755
  603MOL0     C81289   1.984   1.728   1.764  0.1988  0.9107 -0.1108
  603MOL0     C81290   1.896   1.655   1.662  0.6089  0.7251  0.1719
  603MOL0     C81291   1.898   1.508   1.665 -0.7806  0.2690 -0.3497
  603MOL0     C81292   1.839   1.451   1.536 -0.6634 -0.4256  0.4290
  603MOL0     C81293   1.797   1.305   1.548  0.0471  0.4169  0.6618
  603MOL0     O81294   1.911   1.224   1.574 -0.1055  0.1024 -0.0882
  603MOL0     C81295   1.902   1.088   1.599 -0.0930 -0.4766 -0.2753
  603MOL0     C81296   1.789   1.018   1.575 -0.0840 -0.8550 -0.1406
  603MOL0     C81297   1.768   0.880   1.612  1.2027 -0.5193 -0.5121
  603MOL0     C81298   1.638   0.817   1.579  1.0218 -0.2637  0.2189
  603MOL0     C81299   1.872   0.821   1.690  0.4298 -0.4219  0.6612
  603MOL0     C81300   1.846   0.692   1.769 -0.0459  0.1454 -0.5092
  603MOL0     O81301   1.719   0.660   1.808  0.0796  0.0642  0.0583
  603MOL0     C81302   1.679   0.540   1.870  0.1248  0.2478 -0.0897
  603MOL0     C81303   1.755   0.418   1.854  0.3783 -0.4599  0.8210
  603MOL0     C81304   1.713   0.301   1.910  0.1507 -0.0512 -0.0595
  603MOL0     C81305   1.594   0.290   1.989  0.1723 -0.2431  0.7021
  603MOL0     O81306   1.552   0.169   2.053  0.4008  0.0907  0.2483
  603MOL0     C81307   1.626   0.051   2.037 -0.3543 -1.0609  0.0358
  603MOL0     C81308   1.567  -0.051   2.129  0.3494  0.3111  0.3726
  603MOL0     C81309   1.424  -0.101   2.078 -0.7831 -0.0207  0.5165
  603MOL0     C81310   1.334  -0.164   2.191  0.1745  0.2305 -0.0761
  603MOL0     C81311   1.264  -0.284   2.138 -0.8900  0.1171  0.0750
  603MOL0     C81312   1.192  -0.353   2.250 -0.6386 -0.7837  0.2860
  603MOL0     C81313   1.064  -0.432   2.202 -0.5432  0.4927  0.5432
  603MOL0     C81314   1.000  -0.512   2.319  0.6142  0.0398  0.0504
  603MOL0    Cl81315   1.110  -0.637   2.382  0.1161 -0.1609 -0.4813
  603MOL0     C81316   1.513   0.401   1.991 -0.4555 -1.2123 -0.1025
  603MOL0     C81317   1.561   0.528   1.939 -0.2977  0.8103 -0.8240
  603MOL0     O81318   1.950   0.634   1.799 -0.7025  0.2001 -0.4177
  603MOL0     C81319   1.996   0.887   1.686  0.3103  0.3691 -0.3754
  603MOL0     C81320   2.013   1.016   1.646 -0.5269 -0.7657  0.5267
  603MOL0     N81321   1.943   1.829   1.849  0.6488 -0.6551 -0.3734
  603MOL0     N81322   2.036   1.871   1.930 -0.1369  0.1837 -0.3126
  603MOL0     C81323   3.090   2.266   1.468 -0.0381 -0.0776  0.2519
  603MOL0     C81324   3.181   2.294   1.368  1.0588 -0.8521  0.4461
  603MOL0     C81325   3.496   2.391   1.085 -0.6135 -0.3515  0.8191
  603MOL0     C81326   3.502   2.480   0.970 -0.2253  0.6994 -0.4389
  603MOL0     C81327   3.574   2.457   0.855  0.6169 -0.6969  0.7124
  603MOL0     C81328   3.654   2.344   0.851  0.2188 -0.1486  0.1908
  603MOL0     O81329   3.722   2.325   0.735  0.1837 -0.1299  0.2590
  603MOL0     C81330   3.783   2.205   0.688  0.3654 -0.2965  0.0172
  603MOL0     C81331   3.847   2.229   0.547  0.5465 -0.4557  1.5176
  603MOL0     C81332   3.731   2.271   0.444 -0.4065  0.0521 -0.7831
  603MOL0     C81333   3.636   2.152   0.407 -0.4145  0.1217  0.3891
  603MOL0     C81334   3.696   2.064   0.295  0.6542  0.0394  0.2327
  603MOL0     C81335   3.760   2.002   0.210  0.6002  0.3672  0.5612
  603MOL0     C81336   3.652   2.254   0.954  0.3643  0.3855 -0.0396
  603MOL0     C81337   3.583   2.284   1.082 -0.0206  0.8180  0.1222
  603MOL0     H81338   3.466   2.252   1.545 -0.2354  1.3217  1.1390
  603MOL0     H81339   3.305   2.203   1.722  0.2288 -0.9570 -0.8879
  603MOL0     H81340   3.149   2.187   1.868 -0.0475 -0.6365  0.4855
  603MOL0     H81341   3.020   2.312   1.856  2.2235  0.7577 -0.9581
  603MOL0     H81342   2.974   2.016   1.887 -0.4854 -0.6852 -1.4429
  603MOL0     H81343   2.969   2.138   2.020  0.7321 -0.4980 -0.0301
  603MOL0     H81344   2.795   2.253   1.886 -1.7645 -0.0686 -2.5042
  603MOL0     H81345   2.806   2.133   1.761  2.4264  0.3533 -0.5058
  603MOL0     H81346   2.765   1.952   1.961 -0.2979  0.4569  4.3695
  603MOL0     H81347   2.700   2.093   2.042  1.8683  0.2400  0.9532
  603MOL0     H81348   2.530   2.105   1.844 -3.3369 -1.7080 -0.8752
  603MOL0     H81349   2.602   1.963   1.774 -0.5974 -1.7649  0.2123
  603MOL0     H81350   2.559   1.834   1.981  0.9765  1.3607  2.0425
  603MOL0     H81351   2.470   1.974   2.040 -1.4049 -0.9038 -0.5397
  603MOL0     H81352   2.323   1.966   1.838  3.3662  3.4516  0.5012
  603MOL0     H81353   2.403   1.809   1.797  0.5853  0.6784  0.1755
  603MOL0     H81354   2.262   1.876   2.054 -1.2380 -1.8678  2.1488
  603MOL0     H81355   2.302   1.705   1.996 -1.6340 -0.2519 -0.8640
  603MOL0     H81356   2.176   1.618   1.761  0.2225  1.0711 -1.3019
  603MOL0     H81357   1.793   1.686   1.677  0.3503 -0.1087  0.2092
  603MOL0     H81358   1.929   1.684   1.561  0.5526 -2.5946 -0.9292
  603MOL0     H81359   1.835   1.468   1.745  0.8437  0.9666  1.3627
  603MOL0     H81360   2.000   1.475   1.685 -1.8889 -2.7171  1.0190
  603MOL0     H81361   1.910   1.457   1.453 -1.4293 -0.4803 -0.2424
  603MOL0     H81362   1.746   1.506   1.521 -1.7856 -1.7759  2.1534
  603MOL0     H81363   1.735   1.268   1.466  1.4711 -2.2862  0.7086
  603MOL0     H81364   1.727   1.291   1.631 -3.4477  0.8795 -1.9613
  603MOL0     H81365   1.700   1.068   1.539  0.8110  0.7884 -0.1436
  603MOL0     H81366   1.651   0.711   1.554 -0.5548  0.0377 -2.1280
  603MOL0     H81367   1.567   0.833   1.661  3.3426 -2.2338  2.8032
  603MOL0     H81368   1.598   0.847   1.482 -4.0621 -2.4635  1.3076
  603MOL0     H81369   1.840   0.417   1.788 -3.1380  0.5295 -4.3206
  603MOL0     H81370   1.770   0.210   1.894  3.2160  1.6322  0.5415
  603MOL0     H81371   1.615   0.011   1.936 -1.2602  1.5167 -0.9543
  603MOL0     H81372   1.732   0.072   2.055  1.0392 -3.9302 -3.6023
  603MOL0     H81373   1.623  -0.145   2.132  0.0363  0.1486  1.4149
  603MOL0     H81374   1.554  -0.013   2.230  0.2412 -4.1141  2.2265
  603MOL0     H81375   1.440  -0.169   1.994 -1.1299 -0.1472  0.5527
  603MOL0     H81376   1.365  -0.015   2.046  0.0009  1.2766  2.3781
  603MOL0     H81377   1.401  -0.188   2.275 -0.4690 -0.1299  0.3415
  603MOL0     H81378   1.260  -0.087   2.212 -0.8114 -0.8528  0.5732
  603MOL0     H81379   1.343  -0.339   2.087  1.6535  3.7387 -0.2452
  603MOL0     H81380   1.200  -0.250   2.055 -0.6740  1.7466  0.5393
  603MOL0     H81381   1.258  -0.415   2.310  1.8596 -1.0909 -2.5329
  603MOL0     H81382   1.162  -0.270   2.314 -1.8292  1.2193 -2.6612
  603MOL0     H81383   1.092  -0.506   2.127 -3.1709 -0.1770  0.1380
  603MOL0     H81384   0.993  -0.363   2.156 -0.3935 -0.2397 -0.8192
  603MOL0     H81385   0.913  -0.564   2.278  0.1351  1.1256 -0.3426
  603MOL0     H81386   0.973  -0.443   2.399  2.4192 -2.7534  3.4009
  603MOL0     H81387   1.424   0.384   2.050  0.3870 -2.7378  0.8176
  603MOL0     H81388   1.490   0.610   1.940  0.1619  1.2296  1.3491
  603MOL0     H81389   2.090   0.851   1.728  1.1253  0.5093 -1.9799
  603MOL0     H81390   2.106   1.070   1.657 -2.1307  2.5498 -0.7218
  603MOL0     H81391   2.985   2.266   1.442  0.4303  1.9534 -1.9737
  603MOL0     H81392   3.155   2.316   1.265 -0.1693 -1.5240  0.5894
  603MOL0     H81393   3.439   2.569   0.966  1.1065  1.6955 -5.0208
  603MOL0     H81394   3.589   2.533   0.779  0.2246  0.3455  1.6655
  603MOL0     H81395   3.857   2.183   0.765  0.8147 -0.6710 -0.5158
  603MOL0     H81396   3.718   2.118   0.696  0.8276 -0.4573  3.5439
  603MOL0     H81397   3.905   2.139   0.525  0.2379 -0.8360  2.2074
  603MOL0     H81398   3.919   2.310   0.538  0.2381 -0.3376 -0.3354
  603MOL0     H81399   3.784   2.302   0.353  1.8502  3.4603  1.4643
  603MOL0     H81400   3.661   2.350   0.472 -0.3805 -0.0807 -0.3299
  603MOL0     H81401   3.546   2.205   0.373 -0.3360 -1.1854 -2.0278
  603MOL0     H81402   3.617   2.099   0.501  1.3837 -0.5394  0.4198
  603MOL0     H81403   3.811   1.958   0.127  1.3374  1.8657  0.2055
  603MOL0     H81404   3.712   2.164   0.946  1.1847  0.9063  0.1424
  603MOL0     H81405   3.592   2.211   1.162 -2.0863 -1.3931 -1.4893
  604MOL0     O81406   8.320   1.384   2.852  0.4021  0.1151  0.1208
  604MOL0     C81407   8.268   1.488   2.823  1.1497 -0.5793  0.4481
  604MOL0     O81408   8.332   1.604   2.812  0.2374  0.9580 -0.1476
  604MOL0     C81409   8.465   1.613   2.805 -0.1716 -1.1759 -0.2428
  604MOL0     C81410   8.549   1.521   2.742  0.4974 -0.1602 -0.3892
  604MOL0     C81411   8.683   1.548   2.715 -0.2401  0.2728 -0.7803
  604MOL0     C81412   8.741   1.667   2.760 -0.5876  0.4715  0.5075
  604MOL0     O81413   8.877   1.685   2.764 -0.4964 -0.1554  0.4793
  604MOL0     C81414   8.963   1.582   2.705  0.5527  0.4591  0.0407
  604MOL0     C81415   8.963   1.585   2.555  0.9621 -0.6817  0.5236
  604MOL0     C81416   9.019   1.714   2.495 -0.6721  0.2631 -0.7763
  604MOL0     C81417   9.105   1.686   2.372  0.4966 -0.3901 -0.2365
  604MOL0     C81418   9.026   1.628   2.256  0.7410 -0.6190  0.6149
  604MOL0     C81419   8.914   1.720   2.221  0.5091 -0.4411  1.4372
  604MOL0     C81420   8.876   1.713   2.062  0.3088  1.0707  0.8357
  604MOL0     C81421   8.856   1.566   2.010 -0.0125 -0.2348 -0.0208
  604MOL0     N81422   8.761   1.497   2.096  0.5060  0.7804  0.2250
  604MOL0     C81423   8.639   1.545   2.139 -0.2307 -0.3425 -0.9401
  604MOL0     C81424   8.585   1.443   2.216 -0.4560  1.2200  1.1178
  604MOL0     C81425   8.454   1.439   2.279  0.1651  0.0244 -0.9754
  604MOL0     C81426   8.470   1.476   2.427  0.5715 -0.8034 -0.1986
  604MOL0     C81427   8.329   1.462   2.485 -0.2058  0.0591 -0.5515
  604MOL0     C81428   8.228   1.561   2.466  0.0060  1.5170  0.1325
  604MOL0     O81429   8.280   1.681   2.518  1.2889 -0.5864  0.2345
  604MOL0     C81430   8.184   1.771   2.553  0.5600 -0.7478 -1.0324
  604MOL0     C81431   8.228   1.876   2.626  0.3316  0.1277 -0.3554
  604MOL0     C81432   8.148   1.973   2.690  0.4090  0.4927  0.7358
  604MOL0     C81433   8.215   2.078   2.777  0.2152 -0.2908 -0.1768
  604MOL0     C81434   8.012   1.970   2.661  0.0291 -0.6167 -0.0360
  604MOL0     C81435   7.914   2.073   2.693 -0.2213  0.0995  0.2263
  604MOL0     O81436   7.932   2.205   2.666  0.3916 -0.0892 -0.1442
  604MOL0     C81437   7.832   2.299   2.654 -0.2051 -0.3708 -0.2754
  604MOL0     C81438   7.691   2.277   2.654  0.5372 -0.9838 -0.2607
  604MOL0     C81439   7.603   2.382   2.620 -0.0907  0.2107  0.3442
  604MOL0     C81440   7.652   2.513   2.602 -0.3224  0.2751  0.2271
  604MOL0     O81441   7.575   2.619   2.555 -0.6410  0.3034  0.2559
  604MOL0     C81442   7.431   2.602   2.532 -0.2693 -0.4824 -0.1802
  604MOL0     C81443   7.391   2.713   2.436  0.4959  0.4884 -0.1399
  604MOL0     C81444   7.262   2.664   2.361  0.2448 -1.0301  0.3600
  604MOL0     C81445   7.198   2.771   2.280 -0.8689 -0.8426 -0.0668
  604MOL0     C81446   7.089   2.733   2.182  0.8211  0.4496 -0.4482
  604MOL0     C81447   7.041   2.853   2.095  0.1183 -0.3164  0.4114
  604MOL0     C81448   6.942   2.790   1.986  0.0127 -0.2827  1.2143
  604MOL0     C81449   6.875   2.894   1.903  0.7366 -0.1426  0.1054
  604MOL0    Cl81450   6.989   3.014   1.835  0.3352 -0.2162  0.0561
  604MOL0     C81451   7.788   2.536   2.624 -0.0375 -0.8430 -0.3657
  604MOL0     C81452   7.880   2.431   2.635 -0.6675  0.6587 -0.8889
  604MOL0     O81453   7.817   2.027   2.751 -0.3785  0.5987 -0.2961
  604MOL0     C81454   7.965   1.872   2.565  0.1684 -0.2959 -1.1397
  604MOL0     C81455   8.051   1.777   2.516 -0.1170 -0.0256 -0.6241
  604MOL0     N81456   8.679   1.343   2.219 -0.4470 -0.0569 -0.5279
  604MOL0     N81457   8.785   1.374   2.153  0.7174 -0.1226  0.5303
  604MOL0     C81458   8.654   1.765   2.814 -0.3698  0.4732  0.1756
  604MOL0     C81459   8.521   1.730   2.845  0.2771 -0.5375  0.1317
  604MOL0     C81460   8.126   1.491   2.823  0.0316 -0.2877 -0.0395
  604MOL0     C81461   8.052   1.376   2.778 -0.5821  0.3071 -0.1380
  604MOL0     C81462   7.923   1.387   2.752 -0.0454  0.2455 -0.0993
  604MOL0     C81463   7.858   1.507   2.766 -0.7452 -0.1685  0.0541
  604MOL0     O81464   7.735   1.509   2.719  0.5550  0.7847 -0.3840
  604MOL0     C81465   7.637   1.603   2.775 -1.2336 -0.0146 -0.9207
  604MOL0     C81466   7.502   1.537   2.783 -0.8674  0.5867 -0.3690
  604MOL0     C81467   7.456   1.453   2.663  0.1181  0.2997 -0.4240
  604MOL0     C81468   7.307   1.445   2.646 -0.0472  0.6001  0.3479
  604MOL0     C81469   7.238   1.565   2.595  0.0897  0.1264  0.6788
  604MOL0     C81470   7.190   1.672   2.573  0.1809  0.2981  0.4559
  604MOL0     C81471   7.928   1.611   2.818  0.9274 -0.3116 -0.3740
  604MOL0     C81472   8.060   1.610   2.844 -0.1321 -0.1177  0.6253
  604MOL0     H81473   8.511   1.432   2.693 -1.5574  1.2633 -1.5445
  604MOL0     H81474   8.729   1.460   2.671 -0.9534 -0.5779  0.1265
  604MOL0     H81475   9.067   1.600   2.734  0.2983 -1.0717  2.1313
  604MOL0     H81476   8.934   1.484   2.743 -1.7071  1.8121  2.0372
  604MOL0     H81477   9.007   1.498   2.507 -1.2945 -2.0898  0.8534
  604MOL0     H81478   8.861   1.571   2.518  1.2555 -2.7449  0.4090
  604MOL0     H81479   8.933   1.779   2.475 -1.3587  0.8816  3.3068
  604MOL0     H81480   9.083   1.771   2.563 -2.3215  0.0520  1.0638
  604MOL0     H81481   9.172   1.770   2.351  2.4452 -1.3590  1.6820
  604MOL0     H81482   9.181   1.612   2.398  0.0789 -1.2086 -1.2498
  604MOL0     H81483   9.086   1.616   2.166 -0.6303  2.8840 -0.9655
  604MOL0     H81484   8.982   1.532   2.284  0.0479 -1.0317 -1.6522
  604MOL0     H81485   8.824   1.702   2.280  1.3380  2.2029  3.7631
  604MOL0     H81486   8.951   1.823   2.231 -0.9153  0.3538 -0.7393
  604MOL0     H81487   8.784   1.769   2.046  2.2264  3.5960 -2.6404
  604MOL0     H81488   8.957   1.757   2.003  1.0280 -0.4256  0.6602
  604MOL0     H81489   8.951   1.512   2.002  0.5291  0.4855  1.2227
  604MOL0     H81490   8.805   1.577   1.914 -1.0509  1.5807  0.6901
  604MOL0     H81491   8.610   1.648   2.123  0.1889  0.1887  1.3776
  604MOL0     H81492   8.385   1.506   2.227 -0.9317 -2.2732 -2.6422
  604MOL0     H81493   8.413   1.340   2.258  0.2532 -0.2392  0.0273
  604MOL0     H81494   8.496   1.582   2.430  1.6458 -0.9777 -2.0367
  604MOL0     H81495   8.548   1.420   2.479  2.9674  1.2559 -1.3610
  604MOL0     H81496   8.344   1.471   2.593  1.0003  0.8083 -0.7633
  604MOL0     H81497   8.292   1.362   2.462 -1.0467 -0.2683  1.8689
  604MOL0     H81498   8.142   1.523   2.522  2.2528  0.3514  3.0666
  604MOL0     H81499   8.209   1.571   2.359 -0.5455 -2.1792 -0.2373
  604MOL0     H81500   8.334   1.877   2.652  0.6645 -2.7512 -1.3240
  604MOL0     H81501   8.319   2.048   2.790  0.0704 -1.1741 -0.9351
  604MOL0     H81502   8.217   2.172   2.722  2.3915  1.0083  1.9606
  604MOL0     H81503   8.170   2.104   2.873  1.6881  1.6600  0.0343
  604MOL0     H81504   7.653   2.176   2.667 -1.2815 -0.3574 -0.3415
  604MOL0     H81505   7.496   2.364   2.611 -0.0543 -0.5524  1.2851
  604MOL0     H81506   7.402   2.508   2.485 -0.5294 -0.0832 -0.8243
  604MOL0     H81507   7.378   2.622   2.626  2.7919  3.8693  0.9652
  604MOL0     H81508   7.373   2.799   2.502  1.6330  1.9753 -1.6890
  604MOL0     H81509   7.471   2.734   2.365  2.4366  2.1882  2.3565
  604MOL0     H81510   7.190   2.623   2.432 -1.1867 -2.3982 -1.7623
  604MOL0     H81511   7.284   2.589   2.285 -2.5844 -0.2188 -1.4005
  604MOL0     H81512   7.152   2.848   2.343 -0.5173  0.4210 -1.3068
  604MOL0     H81513   7.274   2.828   2.225 -1.8762  0.4013 -0.2266
  604MOL0     H81514   7.007   2.694   2.243  1.6279  0.3340  0.5930
  604MOL0     H81515   7.126   2.656   2.112 -1.3690  1.5830 -3.0327
  604MOL0     H81516   6.987   2.926   2.156  0.8455 -0.1175  0.8324
  604MOL0     H81517   7.123   2.906   2.046 -0.2046 -2.2117 -2.3791
  604MOL0     H81518   6.860   2.737   2.036 -2.0409 -0.1950 -1.8177
  604MOL0     H81519   6.990   2.715   1.923 -3.6469 -1.0174 -0.9557
  604MOL0     H81520   6.804   2.956   1.959 -1.0386 -0.3439 -1.8009
  604MOL0     H81521   6.836   2.836   1.818  0.0731  2.6288 -1.6215
  604MOL0     H81522   7.826   2.637   2.613  0.4907 -0.9931  0.0306
  604MOL0     H81523   7.988   2.442   2.641 -0.9595  4.3725  3.8728
  604MOL0     H81524   7.860   1.871   2.537 -0.7631  0.6815  1.8913
  604MOL0     H81525   8.021   1.706   2.439  0.8082 -1.0668 -0.0632
  604MOL0     H81526   8.694   1.861   2.846  0.3270  1.1289 -2.4389
  604MOL0     H81527   8.465   1.795   2.911 -2.9878 -1.8762 -1.0695
  604MOL0     H81528   8.109   1.286   2.759  2.2513  2.3067 -1.7762
  604MOL0     H81529   7.859   1.300   2.735 -2.0191  1.6156 -0.0448
  604MOL0     H81530   7.668   1.638   2.873 -1.8643  0.4083 -0.8745
  604MOL0     H81531   7.624   1.695   2.718  0.4908  0.9191  0.1108
  604MOL0     H81532   7.434   1.617   2.816 -2.5947 -1.1788  0.5536
  604MOL0     H81533   7.511   1.466   2.865  2.4604 -1.1382 -2.0571
  604MOL0     H81534   7.497   1.351   2.665 -1.0148 -0.1612  0.4185
  604MOL0     H81535   7.496   1.492   2.569  0.2461 -2.9094 -1.8665
  604MOL0     H81536   7.263   1.434   2.745  2.0469 -0.3563  1.2322
  604MOL0     H81537   7.282   1.359   2.582 -1.5753  2.4697 -1.7431
  604MOL0     H81538   7.140   1.765   2.557 -0.2967  0.6576  3.3585
  604MOL0     H81539   7.878   1.705   2.839  1.1625  0.1197 -1.6655
  604MOL0     H81540   8.110   1.705   2.860  0.5674 -0.2849 -0.5019
  605MOL0     O81541   6.882   8.075  11.283  0.2406  0.0114  0.3918
  605MOL0     C81542   6.921   8.015  11.387 -0.8170 -0.4723  0.2032
  605MOL0     O81543   6.844   7.937  11.471  1.0503 -0.0178  0.0227
  605MOL0     C81544   6.711   7.947  11.468 -1.4538 -0.0758  0.1874
  605MOL0     C81545   6.644   7.826  11.489  0.6087 -0.2215  0.2843
  605MOL0     C81546   6.503   7.841  11.494  0.7788 -0.9706  0.0944
  605MOL0     C81547   6.441   7.966  11.475  0.6785  0.0613  0.0407
  605MOL0     O81548   6.300   7.977  11.467  0.0772  0.0416  0.4195
  605MOL0     C81549   6.229   7.866  11.411  0.2527  0.4198 -0.4594
  605MOL0     C81550   6.092   7.908  11.365  0.1673 -0.2409 -0.7062
  605MOL0     C81551   6.086   8.027  11.272 -0.0047 -0.1866 -0.3413
  605MOL0     C81552   6.187   7.994  11.157 -0.1032 -0.0328  0.7508
  605MOL0     C81553   6.164   8.080  11.030 -0.2614 -0.1190  0.4658
  605MOL0     C81554   6.141   8.235  11.052 -0.3807  0.7211  0.5372
  605MOL0     C81555   6.266   8.292  11.124 -0.1924  0.2856 -0.6960
  605MOL0     C81556   6.271   8.448  11.144  0.7492 -0.0816 -0.4560
  605MOL0     N81557   6.181   8.478  11.259 -0.4199  0.4572  0.1429
  605MOL0     C81558   6.200   8.454  11.392  0.4504 -0.1374 -0.8653
  605MOL0     C81559   6.070   8.468  11.436  0.9351 -0.4381 -1.2539
  605MOL0     C81560   6.032   8.440  11.582 -0.1517 -0.2578 -0.1642
  605MOL0     C81561   6.039   8.282  11.592 -0.7878  0.2103 -0.6579
  605MOL0     C81562   5.892   8.232  11.601 -0.2257 -0.5242  0.8696
  605MOL0     C81563   5.816   8.245  11.471  0.3625 -0.2915  0.4930
  605MOL0     O81564   5.744   8.135  11.427  0.0522 -0.2222  0.2615
  605MOL0     C81565   5.692   8.130  11.298 -0.2778 -0.2059  0.4117
  605MOL0     C81566   5.710   8.237  11.201 -0.4174  0.5178  0.0757
  605MOL0     C81567   5.658   8.232  11.069  0.0288  0.2453  0.3404
  605MOL0     C81568   5.708   8.335  10.975  0.5671 -1.0345 -0.2993
  605MOL0     C81569   5.589   8.124  11.035  0.2604  0.0188  1.1168
  605MOL0     C81570   5.525   8.104  10.901 -0.1484  0.2919  0.9368
  605MOL0     O81571   5.502   8.218  10.831 -0.7037 -1.0196  0.0337
  605MOL0     C81572   5.444   8.222  10.712  0.3608  0.0328 -0.2984
  605MOL0     C81573   5.318   8.158  10.687  0.3810 -0.4527  0.8823
  605MOL0     C81574   5.268   8.163  10.555  0.1087 -0.2594 -0.0970
  605MOL0     C81575   5.332   8.240  10.457  0.1643  0.0812 -0.1345
  605MOL0     O81576   5.283   8.210  10.328 -0.1485  0.0632 -0.0082
  605MOL0     C81577   5.287   8.310  10.226 -0.2416 -0.0766 -0.9631
  605MOL0     C81578   5.213   8.258  10.109  0.4399  0.8637 -0.6427
  605MOL0     C81579   5.062   8.239  10.123  0.1041  0.1725  0.2272
  605MOL0     C81580   5.004   8.154  10.016 -0.1718 -0.0880  0.3918
  605MOL0     C81581   5.008   8.221   9.883  0.4590 -0.1839 -0.1778
  605MOL0     C81582   4.930   8.148   9.777 -0.2486 -0.1942 -0.2959
  605MOL0     C81583   4.935   8.228   9.646 -0.3934 -0.2120  0.1317
  605MOL0     C81584   5.079   8.267   9.584  0.4762  0.5401 -0.2178
  605MOL0    Cl81585   5.057   8.319   9.419  0.0546 -0.3326 -0.1669
  605MOL0     C81586   5.450   8.314  10.487  0.4513  0.3377 -0.3396
  605MOL0     C81587   5.504   8.305  10.622 -0.3472 -0.9994  0.2011
  605MOL0     O81588   5.507   7.991  10.860  0.1282 -0.0834  0.1777
  605MOL0     C81589   5.574   8.013  11.124 -1.3817  0.6748 -0.1944
  605MOL0     C81590   5.622   8.015  11.258 -0.2516 -1.1993  0.1607
  605MOL0     N81591   5.987   8.511  11.334  0.1881  0.4306 -0.0213
  605MOL0     N81592   6.053   8.514  11.230  0.3063  0.1712  0.2062
  605MOL0     C81593   6.506   8.085  11.458  0.6497 -0.0114 -0.7254
  605MOL0     C81594   6.642   8.078  11.454  0.3096  0.1015  0.1907
  605MOL0     C81595   7.067   8.010  11.409  1.1002 -0.2693  0.2377
  605MOL0     C81596   7.122   7.962  11.523  0.3196 -0.0886  1.0555
  605MOL0     C81597   7.262   7.979  11.554  0.0250  0.1451 -0.4744
  605MOL0     C81598   7.344   8.050  11.471  0.2261 -0.3753  0.2251
  605MOL0     O81599   7.475   8.065  11.511  0.8311 -0.6407 -0.2616
  605MOL0     C81600   7.501   8.086  11.648  0.3600  0.0537 -0.2893
  605MOL0     C81601   7.605   8.192  11.644 -0.5123 -0.3374 -0.7258
  605MOL0     C81602   7.562   8.321  11.576 -0.1271  0.5032 -0.8902
  605MOL0     C81603   7.660   8.440  11.595 -0.7660 -0.1209  0.6939
  605MOL0     C81604   7.794   8.409  11.533 -0.8033 -0.1587 -0.5107
  605MOL0     C81605   7.900   8.380  11.490 -0.1829 -0.6009 -0.4140
  605MOL0     C81606   7.288   8.089  11.351  0.5604 -0.3219  0.5478
  605MOL0     C81607   7.158   8.062  11.313  0.4802  0.1347  0.6047
  605MOL0     H81608   6.710   7.740  11.497  0.1702 -0.7350 -1.2742
  605MOL0     H81609   6.450   7.747  11.503  0.8457 -1.2436 -1.8748
  605MOL0     H81610   6.292   7.813  11.339  1.1341  0.8928 -0.0406
  605MOL0     H81611   6.226   7.794  11.493 -0.2377  1.9199  0.8777
  605MOL0     H81612   6.037   7.828  11.315  1.7503 -1.4959 -0.5154
  605MOL0     H81613   6.039   7.940  11.454  0.6625 -0.4748 -0.3220
  605MOL0     H81614   5.980   8.039  11.248 -0.1422 -0.8657 -0.1079
  605MOL0     H81615   6.117   8.120  11.319 -1.4526  1.4175 -2.3626
  605MOL0     H81616   6.287   8.013  11.197  0.6712  1.4247 -1.5964
  605MOL0     H81617   6.169   7.895  11.115  0.0473  0.4670 -0.5715
  605MOL0     H81618   6.251   8.073  10.965 -0.3372 -0.4328  0.3944
  605MOL0     H81619   6.077   8.039  10.978 -0.7356  0.2350  0.9694
  605MOL0     H81620   6.136   8.279  10.952  0.1259  2.9076  1.4157
  605MOL0     H81621   6.050   8.266  11.104 -1.8559  0.5338 -1.7959
  605MOL0     H81622   6.280   8.251  11.224 -1.0027  1.8812  0.0998
  605MOL0     H81623   6.361   8.270  11.075  1.3138  3.3534  0.5903
  605MOL0     H81624   6.232   8.506  11.060 -3.9633  1.1756  2.2425
  605MOL0     H81625   6.371   8.479  11.177  0.7180 -0.1366 -0.3109
  605MOL0     H81626   6.288   8.416  11.442  0.9678  1.2298 -0.6850
  605MOL0     H81627   6.094   8.502  11.647  2.0183 -0.9365 -1.4915
  605MOL0     H81628   5.931   8.477  11.601  1.2532  3.4252  0.9501
  605MOL0     H81629   6.100   8.259  11.680 -2.4929  0.9386  0.7825
  605MOL0     H81630   6.094   8.236  11.509  0.6420  1.5706 -0.5154
  605MOL0     H81631   5.837   8.264  11.689 -1.2044 -0.4631  0.2540
  605MOL0     H81632   5.908   8.124  11.613 -3.9187 -1.2697  0.2054
  605MOL0     H81633   5.887   8.270  11.391  2.7243 -0.6988  2.3360
  605MOL0     H81634   5.731   8.314  11.476 -2.3320 -3.3900  0.3140
  605MOL0     H81635   5.771   8.324  11.223  0.2676  0.1299 -0.2424
  605MOL0     H81636   5.637   8.403  10.928  3.4137  1.3877 -1.4370
  605MOL0     H81637   5.780   8.402  11.024 -0.5833 -1.2608  1.8209
  605MOL0     H81638   5.754   8.273  10.897  0.0026  0.6522 -2.0371
  605MOL0     H81639   5.277   8.108  10.774  1.6411  1.8679  2.9444
  605MOL0     H81640   5.178   8.104  10.545 -0.4106  0.2441  1.3033
  605MOL0     H81641   5.244   8.397  10.275 -0.7713 -0.4980 -0.6629
  605MOL0     H81642   5.389   8.348  10.215 -0.2130 -0.4338 -2.0080
  605MOL0     H81643   5.241   8.314  10.020  0.5806 -0.4359 -1.4264
  605MOL0     H81644   5.248   8.155  10.104  0.0779  0.6623  0.5723
  605MOL0     H81645   5.011   8.336  10.127  0.9910  0.6112  1.6064
  605MOL0     H81646   5.044   8.196  10.221 -3.6730 -3.7544 -1.8303
  605MOL0     H81647   5.046   8.053  10.008 -2.4388 -1.0510  0.0103
  605MOL0     H81648   4.901   8.140  10.048 -0.3433 -0.7315 -0.3955
  605MOL0     H81649   5.110   8.237   9.847  1.0043  0.3150  1.4825
  605MOL0     H81650   4.963   8.321   9.889 -0.0203 -0.3657 -0.6405
  605MOL0     H81651   4.965   8.047   9.752 -1.1990 -0.4484 -0.6273
  605MOL0     H81652   4.831   8.136   9.821  0.8255 -2.7365  1.7153
  605MOL0     H81653   4.880   8.320   9.667  0.0144 -0.1277  0.8875
  605MOL0     H81654   4.887   8.162   9.574 -0.0097 -1.1048  0.6759
  605MOL0     H81655   5.144   8.179   9.580 -1.5291 -0.9325 -3.0997
  605MOL0     H81656   5.129   8.350   9.636 -0.7401  1.2805 -0.1927
  605MOL0     H81657   5.494   8.370  10.405 -0.1122  1.5330  0.1326
  605MOL0     H81658   5.586   8.366  10.658 -1.1697 -1.2235  2.6461
  605MOL0     H81659   5.525   7.923  11.088  1.8848 -0.7916 -1.3590
  605MOL0     H81660   5.601   7.930  11.323 -0.9932 -0.7154  0.5698
  605MOL0     H81661   6.443   8.172  11.447  1.4045  0.3681 -2.5832
  605MOL0     H81662   6.697   8.168  11.426  1.3641 -0.6656 -0.2760
  605MOL0     H81663   7.053   7.903  11.582  1.7719 -1.0436  1.8748
  605MOL0     H81664   7.296   7.956  11.655 -0.3865  0.4321 -0.2658
  605MOL0     H81665   7.418   8.130  11.703  0.4355 -1.3715  1.0631
  605MOL0     H81666   7.532   7.996  11.703 -1.9934  0.1641  1.3727
  605MOL0     H81667   7.696   8.141  11.611 -0.6083 -0.7081 -0.4280
  605MOL0     H81668   7.624   8.214  11.749  1.8437 -1.2873 -0.9016
  605MOL0     H81669   7.465   8.349  11.619 -0.1508  3.0442 -2.4106
  605MOL0     H81670   7.555   8.311  11.468  0.8891 -3.6663 -0.7327
  605MOL0     H81671   7.673   8.455  11.702 -1.9602  2.5465  0.5454
  605MOL0     H81672   7.616   8.531  11.553 -0.2284 -1.3815 -2.9960
  605MOL0     H81673   7.995   8.364  11.442 -2.3664 -1.3544 -4.9536
  605MOL0     H81674   7.360   8.133  11.283  1.4683 -1.1191  0.9679
  605MOL0     H81675   7.117   8.097  11.218 -0.2297 -0.8573  0.5339
  606MOL0     O81676   6.178   0.138   2.831  0.0021 -0.1682 -0.1415
  606MOL0     C81677   6.294   0.095   2.814  0.4058  0.4601  0.2307
  606MOL0     O81678   6.348  -0.023   2.861  0.4101  1.1863 -0.5816
  606MOL0     C81679   6.266  -0.088   2.950  0.1457  0.6183  0.4550
  606MOL0     C81680   6.309  -0.106   3.079  0.0289 -0.5898 -0.7516
  606MOL0     C81681   6.246  -0.184   3.179  1.1598 -0.0893 -0.2131
  606MOL0     C81682   6.121  -0.231   3.138 -0.8112  0.0845 -0.9580
  606MOL0     O81683   6.061  -0.301   3.237 -0.2696 -0.0489 -0.0158
  606MOL0     C81684   6.015  -0.433   3.199 -0.1460  0.1097 -0.3903
  606MOL0     C81685   5.964  -0.520   3.324  0.2700  0.7947  0.9235
  606MOL0     C81686   5.962  -0.675   3.297  0.0304  0.4751 -0.3628
  606MOL0     C81687   5.868  -0.737   3.403  0.4135  0.0261  0.9703
  606MOL0     C81688   5.802  -0.881   3.375 -0.9122  0.4089 -0.0396
  606MOL0     C81689   5.904  -0.991   3.358 -0.4880  0.6955 -0.7471
  606MOL0     C81690   5.974  -1.027   3.484  0.1933  0.4701  0.2485
  606MOL0     C81691   5.881  -1.118   3.575 -0.4338 -0.6417  0.9461
  606MOL0     N81692   5.969  -1.202   3.657  0.5022  0.4790  0.3110
  606MOL0     C81693   6.071  -1.280   3.614  0.1603 -0.3251 -0.4714
  606MOL0     C81694   6.155  -1.286   3.717 -0.2760  0.1429  0.6850
  606MOL0     C81695   6.291  -1.353   3.707  0.3843  1.1459  0.0838
  606MOL0     C81696   6.403  -1.268   3.783  0.5406 -0.7502  0.0272
  606MOL0     C81697   6.529  -1.364   3.770  0.0288 -1.2017  0.2041
  606MOL0     C81698   6.655  -1.297   3.829 -0.2029 -0.2114 -0.1098
  606MOL0     O81699   6.709  -1.220   3.723 -0.1971  0.6720 -0.3749
  606MOL0     C81700   6.821  -1.147   3.752 -0.4212 -0.6244  0.8511
  606MOL0     C81701   6.921  -1.164   3.855 -0.6771 -0.3451  0.5747
  606MOL0     C81702   7.018  -1.059   3.880  0.2615 -0.3247  0.0350
  606MOL0     C81703   7.117  -1.084   3.989  0.1856 -0.1266  0.5249
  606MOL0     C81704   7.014  -0.945   3.796  0.2388 -0.5685 -0.0322
  606MOL0     C81705   7.111  -0.839   3.810 -1.0003 -0.6842  0.2860
  606MOL0     O81706   7.154  -0.807   3.935 -0.6338 -0.9998 -0.2762
  606MOL0     C81707   7.260  -0.722   3.948 -0.1237  0.3324  0.8398
  606MOL0     C81708   7.389  -0.751   3.893  0.9433 -0.1159 -0.3898
  606MOL0     C81709   7.498  -0.666   3.899 -0.0224  0.5062 -1.2361
  606MOL0     C81710   7.492  -0.560   3.999  0.0980  0.3679 -0.4543
  606MOL0     O81711   7.603  -0.488   4.035  0.3128 -0.3638  0.1076
  606MOL0     C81712   7.717  -0.512   3.951 -0.4764 -0.9188  0.9844
  606MOL0     C81713   7.838  -0.415   4.001  0.2470 -0.0601  0.4338
  606MOL0     C81714   7.973  -0.443   3.941 -0.0839  0.4874 -0.2334
  606MOL0     C81715   8.074  -0.345   3.995  0.0275 -0.0397  0.1082
  606MOL0     C81716   8.209  -0.422   4.005 -0.1306 -0.2119 -0.0121
  606MOL0     C81717   8.333  -0.322   4.004  0.5783  0.6181 -0.7727
  606MOL0     C81718   8.453  -0.400   4.051 -0.0532  0.1137 -0.3929
  606MOL0     C81719   8.596  -0.336   4.036  0.3731 -0.0911  0.3462
  606MOL0    Cl81720   8.628  -0.190   4.148 -0.4711 -0.3150 -0.2947
  606MOL0     C81721   7.365  -0.530   4.057 -0.1740  0.3441  0.5517
  606MOL0     C81722   7.249  -0.611   4.036 -1.0589 -0.2939  0.2917
  606MOL0     O81723   7.158  -0.783   3.710  0.3793 -0.0119 -0.3396
  606MOL0     C81724   6.908  -0.928   3.699 -0.5148 -0.1660  0.6150
  606MOL0     C81725   6.822  -1.031   3.676  0.1352 -0.4157  0.2193
  606MOL0     N81726   6.087  -1.232   3.826  0.2259  0.1324 -0.3787
  606MOL0     N81727   5.970  -1.188   3.789  0.1792  0.4975  0.4680
  606MOL0     C81728   6.077  -0.222   3.008  0.8818 -0.1393  0.1250
  606MOL0     C81729   6.147  -0.151   2.915 -0.7835 -0.4475  0.0287
  606MOL0     C81730   6.387   0.176   2.741 -0.0665 -0.3516 -0.1802
  606MOL0     C81731   6.345   0.300   2.689  0.6948  0.3951  0.1985
  606MOL0     C81732   6.427   0.381   2.606  0.3639  0.6956 -0.3733
  606MOL0     C81733   6.558   0.341   2.582 -0.0841 -0.3782 -0.3295
  606MOL0     O81734   6.638   0.417   2.511 -0.1142  0.5006 -0.1378
  606MOL0     C81735   6.597   0.509   2.409 -1.1402 -0.4915 -0.0628
  606MOL0     C81736   6.703   0.614   2.412 -0.2669 -0.1739 -0.0574
  606MOL0     C81737   6.717   0.683   2.271  0.1932  0.3166 -0.4399
  606MOL0     C81738   6.830   0.778   2.277 -0.1932 -0.4075 -0.0845
  606MOL0     C81739   6.846   0.840   2.145 -0.1291 -0.5031  0.1062
  606MOL0     C81740   6.883   0.894   2.043 -0.6452  0.7253  1.4756
  606MOL0     C81741   6.611   0.230   2.649 -1.3172  0.7558  0.3220
  606MOL0     C81742   6.521   0.145   2.718 -0.6742 -0.7566 -0.5946
  606MOL0     H81743   6.398  -0.054   3.112 -0.0325 -0.7708 -0.2906
  606MOL0     H81744   6.275  -0.190   3.283  2.5906  2.8927 -0.3612
  606MOL0     H81745   5.929  -0.428   3.131  0.4380  2.0130 -1.0561
  606MOL0     H81746   6.095  -0.486   3.148 -0.1122  0.6222 -0.8863
  606MOL0     H81747   6.026  -0.494   3.410  0.5608 -0.7427  1.2034
  606MOL0     H81748   5.862  -0.482   3.334 -1.0298 -1.5720 -1.9817
  606MOL0     H81749   5.932  -0.700   3.195  1.1471  0.1499 -0.6250
  606MOL0     H81750   6.063  -0.712   3.317 -0.5062 -0.3420  1.0227
  606MOL0     H81751   5.930  -0.738   3.492 -0.0840  2.7081  1.4408
  606MOL0     H81752   5.783  -0.673   3.427  0.1507  0.5622 -1.1087
  606MOL0     H81753   5.740  -0.910   3.460 -0.2111 -3.2579 -0.5840
  606MOL0     H81754   5.734  -0.881   3.289 -0.5985  1.4719 -0.2948
  606MOL0     H81755   5.863  -1.078   3.307  0.5722 -1.7457  2.2775
  606MOL0     H81756   5.980  -0.946   3.292  0.2500 -0.2399 -0.5605
  606MOL0     H81757   6.061  -1.085   3.454 -0.4501 -0.2733 -0.2127
  606MOL0     H81758   6.005  -0.929   3.520  3.5606  0.3400 -1.8992
  606MOL0     H81759   5.813  -1.177   3.513  0.4800 -0.6156 -0.1247
  606MOL0     H81760   5.820  -1.050   3.634  0.0463  0.1994  0.4978
  606MOL0     H81761   6.103  -1.312   3.515  3.9535 -0.2670  0.5716
  606MOL0     H81762   6.278  -1.447   3.761  0.7396  0.3526 -1.1734
  606MOL0     H81763   6.320  -1.382   3.605 -0.2407 -4.7440  1.2367
  606MOL0     H81764   6.384  -1.253   3.890 -1.5928 -0.1397 -0.3831
  606MOL0     H81765   6.423  -1.172   3.735  0.1817 -0.6619  0.0510
  606MOL0     H81766   6.544  -1.399   3.667  1.2397  1.7308 -0.7362
  606MOL0     H81767   6.513  -1.449   3.836  3.1527 -2.2456 -0.1981
  606MOL0     H81768   6.733  -1.372   3.847 -0.3401 -0.5716 -0.9559
  606MOL0     H81769   6.636  -1.252   3.927  2.0399  2.6975 -0.8802
  606MOL0     H81770   6.908  -1.242   3.929 -1.5912 -0.7009  0.0476
  606MOL0     H81771   7.215  -1.043   3.964  0.7086 -2.2920 -1.2501
  606MOL0     H81772   7.080  -1.048   4.085 -0.9174 -0.1443  0.1349
  606MOL0     H81773   7.133  -1.190   4.012 -1.2880 -0.2876  0.9655
  606MOL0     H81774   7.400  -0.840   3.831  0.2170  0.1713 -0.9418
  606MOL0     H81775   7.587  -0.693   3.844  0.3423 -2.3772  0.5476
  606MOL0     H81776   7.757  -0.613   3.954  0.6410 -0.5915 -1.0295
  606MOL0     H81777   7.699  -0.485   3.846  0.9343 -1.0021  0.7045
  606MOL0     H81778   7.810  -0.314   3.971  2.0647  0.2808 -0.2584
  606MOL0     H81779   7.853  -0.419   4.109  4.5389  0.0114  0.0092
  606MOL0     H81780   7.967  -0.437   3.832 -2.1007 -1.5198 -0.2821
  606MOL0     H81781   7.997  -0.544   3.972  0.8210  1.2813  1.8012
  606MOL0     H81782   8.094  -0.264   3.925  0.4899  0.7274  1.1041
  606MOL0     H81783   8.049  -0.304   4.093  0.8563  0.7762 -0.0109
  606MOL0     H81784   8.224  -0.494   3.924 -2.1119 -1.0696  0.3144
  606MOL0     H81785   8.203  -0.480   4.098 -1.4958 -0.0349  0.0311
  606MOL0     H81786   8.354  -0.273   3.908 -1.8781  2.0495 -0.6645
  606MOL0     H81787   8.306  -0.242   4.074  0.8237  0.9365 -1.0378
  606MOL0     H81788   8.450  -0.490   3.989 -2.7449 -2.0895  2.6000
  606MOL0     H81789   8.434  -0.424   4.156 -3.6856  3.0116 -0.1676
  606MOL0     H81790   8.622  -0.309   3.934  0.3820 -1.6583 -0.0937
  606MOL0     H81791   8.667  -0.414   4.067 -0.4828 -0.5877  1.1418
  606MOL0     H81792   7.353  -0.444   4.122  0.9948  0.2313  0.9315
  606MOL0     H81793   7.157  -0.590   4.090  0.4803  0.0898  2.9417
  606MOL0     H81794   6.891  -0.834   3.647  3.1678 -0.9558 -2.4426
  606MOL0     H81795   6.752  -1.018   3.594  1.2097 -3.7735 -1.3970
  606MOL0     H81796   5.984  -0.274   2.989 -1.2550  2.8542  1.4687
  606MOL0     H81797   6.116  -0.144   2.812 -0.3898  1.1206 -0.0235
  606MOL0     H81798   6.242   0.333   2.691  0.5252  0.1456 -2.1038
  606MOL0     H81799   6.382   0.469   2.561  0.9063  1.5823  0.7700
  606MOL0     H81800   6.587   0.464   2.310 -0.9566  1.0467 -0.8125
  606MOL0     H81801   6.499   0.555   2.429 -1.1642  0.2297 -1.7139
  606MOL0     H81802   6.801   0.571   2.433 -0.1688  0.1676  0.1855
  606MOL0     H81803   6.680   0.682   2.495  0.3426 -0.9344  0.7516
  606MOL0     H81804   6.629   0.746   2.253  0.3436  0.3471 -1.0766
  606MOL0     H81805   6.728   0.613   2.189 -2.2349 -1.0433  0.2864
  606MOL0     H81806   6.914   0.714   2.307  0.6827  0.4002 -0.7862
  606MOL0     H81807   6.818   0.862   2.346 -1.7340 -0.5708 -0.1226
  606MOL0     H81808   6.928   0.936   1.956 -3.3239 -1.8689 -1.4246
  606MOL0     H81809   6.711   0.194   2.626 -0.6887  1.3788  1.9608
  606MOL0     H81810   6.567   0.059   2.766  1.2925  1.4016  1.6796
  607MOL0     O81811   0.509   3.996   9.942 -0.3868 -0.5297  0.3587
  607MOL0     C81812   0.477   3.879   9.956 -0.0937 -0.1941 -0.7250
  607MOL0     O81813   0.442   3.827  10.076 -0.2270  0.5491 -0.3857
  607MOL0     C81814   0.451   3.905  10.187  0.9442 -0.0482 -0.3632
  607MOL0     C81815   0.360   4.011  10.209 -0.0556 -0.2280 -0.7641
  607MOL0     C81816   0.374   4.085  10.330 -0.3602 -0.1428 -0.0488
  607MOL0     C81817   0.480   4.062  10.420  0.0030  0.5727  0.2982
  607MOL0     O81818   0.504   4.143  10.528 -0.4612 -0.2250 -0.1503
  607MOL0     C81819   0.418   4.111  10.626 -0.2330  0.4155 -0.8196
  607MOL0     C81820   0.440   4.230  10.720  0.3428 -0.5240  0.8038
  607MOL0     C81821   0.401   4.197  10.859 -0.3273  0.7739  0.1478
  607MOL0     C81822   0.254   4.240  10.882 -0.0741  0.0115  0.2307
  607MOL0     C81823   0.225   4.228  11.042  0.3321 -0.2675  0.6526
  607MOL0     C81824   0.101   4.308  11.086 -1.5409 -0.3605  0.5134
  607MOL0     C81825   0.046   4.282  11.224 -0.4875  0.5662  0.4600
  607MOL0     C81826  -0.013   4.141  11.221 -0.3893  0.5087 -0.7961
  607MOL0     N81827  -0.085   4.106  11.347  0.0923 -0.3955 -0.0421
  607MOL0     C81828  -0.058   4.148  11.475 -0.7892 -0.7044 -0.0702
  607MOL0     C81829  -0.159   4.099  11.551  0.8240 -0.3538 -0.0487
  607MOL0     C81830  -0.164   4.095  11.702  0.0612  0.7736  0.4760
  607MOL0     C81831  -0.048   4.022  11.769 -0.3665  0.0985  0.2381
  607MOL0     C81832  -0.093   3.946  11.896  1.2303 -0.1204  0.6219
  607MOL0     C81833   0.020   3.854  11.944 -0.3740  0.4527  0.8808
  607MOL0     O81834   0.138   3.947  11.959  0.4223  0.0429 -0.1934
  607MOL0     C81835   0.220   3.941  12.067 -0.0442 -0.1536 -0.1727
  607MOL0     C81836   0.234   3.835  12.157  0.1846 -0.2449  0.4812
  607MOL0     C81837   0.330   3.833  12.263  1.0418  0.8705  0.1697
  607MOL0     C81838   0.316   3.707  12.342  0.0668 -0.2003 -0.6498
  607MOL0     C81839   0.429   3.928  12.280  0.0731 -0.4872 -0.2462
  607MOL0     C81840   0.550   3.914  12.360  0.1510 -0.7212  0.2933
  607MOL0     O81841   0.614   4.033  12.383 -0.0599 -0.6202  0.6528
  607MOL0     C81842   0.751   4.030  12.389  0.3436 -0.4728  0.0203
  607MOL0     C81843   0.819   4.040  12.265 -0.9654  0.2539  0.8690
  607MOL0     C81844   0.961   4.022  12.267 -0.7168 -0.5520  0.1361
  607MOL0     C81845   1.027   3.999  12.383  0.3265 -0.3538  0.2633
  607MOL0     O81846   1.152   3.974  12.368 -0.1722 -0.2979 -0.5723
  607MOL0     C81847   1.188   3.836  12.409  0.1808 -0.1641  0.5181
  607MOL0     C81848   1.134   3.716  12.336  0.2040  0.5462  0.4785
  607MOL0     C81849   1.178   3.704  12.191  0.1573  0.2697 -0.4613
  607MOL0     C81850   1.108   3.587  12.120 -0.3195 -0.1752 -0.7124
  607MOL0     C81851   1.087   3.620  11.967 -0.7327  0.4697 -1.4417
  607MOL0     C81852   1.031   3.492  11.905 -0.4907  0.2870 -0.7506
  607MOL0     C81853   1.038   3.522  11.756 -0.1080  0.1859 -0.1385
  607MOL0     C81854   0.982   3.413  11.670 -0.0777  0.6203 -0.0354
  607MOL0    Cl81855   1.084   3.256  11.705  0.1710 -0.1662 -0.0201
  607MOL0     C81856   0.961   4.006  12.502 -0.1165  0.6964 -0.0729
  607MOL0     C81857   0.821   4.021  12.507  0.0316  0.5946  0.5184
  607MOL0     O81858   0.586   3.804  12.406 -0.3821 -0.3227 -0.7685
  607MOL0     C81859   0.418   4.036  12.184  0.5156 -1.0636 -0.5560
  607MOL0     C81860   0.312   4.039  12.086  0.4428 -0.5293  0.0225
  607MOL0     N81861  -0.239   4.014  11.479 -0.6697 -0.5937  0.2882
  607MOL0     N81862  -0.197   4.034  11.353 -0.3581  0.9139  0.1555
  607MOL0     C81863   0.571   3.962  10.396 -0.0641  0.3791  1.0325
  607MOL0     C81864   0.554   3.880  10.287  0.0782  0.0532  0.2509
  607MOL0     C81865   0.477   3.795   9.831 -0.1828  0.1831 -0.7705
  607MOL0     C81866   0.381   3.691   9.831 -0.5224  0.3128  0.1634
  607MOL0     C81867   0.369   3.612   9.718  0.0220  0.5473 -0.5871
  607MOL0     C81868   0.460   3.620   9.607  1.0165 -0.0989 -0.6407
  607MOL0     O81869   0.456   3.527   9.509 -0.4528  0.6674  0.2059
  607MOL0     C81870   0.326   3.497   9.460  0.9316 -0.0689 -0.2464
  607MOL0     C81871   0.338   3.447   9.318 -0.5264 -0.2317  0.2236
  607MOL0     C81872   0.362   3.546   9.207 -0.1751 -0.8704  0.6669
  607MOL0     C81873   0.270   3.666   9.212  0.5227 -0.2037 -0.9597
  607MOL0     C81874   0.130   3.636   9.211  0.3272 -0.4351  0.0908
  607MOL0     C81875   0.010   3.618   9.228 -0.0927 -0.0261  0.6944
  607MOL0     C81876   0.564   3.713   9.616  0.7089 -0.2038  0.4662
  607MOL0     C81877   0.572   3.802   9.722  0.7113  0.1505 -0.4915
  607MOL0     H81878   0.281   4.049  10.146  0.2900  0.2890 -0.8929
  607MOL0     H81879   0.304   4.167  10.337  1.4033  2.0356 -4.2713
  607MOL0     H81880   0.316   4.096  10.589 -0.0063  0.7869 -1.6085
  607MOL0     H81881   0.452   4.017  10.671  1.4304  1.2525 -0.2474
  607MOL0     H81882   0.544   4.262  10.717  0.2088  0.0225  1.6700
  607MOL0     H81883   0.398   4.322  10.678  3.6793  1.6575  1.8188
  607MOL0     H81884   0.401   4.090  10.885 -2.1400  1.0642  1.5433
  607MOL0     H81885   0.473   4.248  10.923  1.0785  0.1671 -0.9111
  607MOL0     H81886   0.243   4.343  10.845  1.1703  0.3321  0.7200
  607MOL0     H81887   0.189   4.176  10.822 -0.6571 -1.7239  2.5532
  607MOL0     H81888   0.202   4.121  11.047  3.2899 -1.1638 -1.4931
  607MOL0     H81889   0.311   4.245  11.108  2.8620 -1.8930 -1.9334
  607MOL0     H81890   0.133   4.413  11.090 -2.8270  0.0062  2.7475
  607MOL0     H81891   0.026   4.277  11.013 -0.8965 -2.8314  0.8171
  607MOL0     H81892   0.123   4.279  11.301  1.1796  0.6683 -1.1363
  607MOL0     H81893  -0.037   4.352  11.238 -1.0285  0.2639 -1.0127
  607MOL0     H81894   0.077   4.082  11.200  1.3003  2.7449 -0.1664
  607MOL0     H81895  -0.085   4.134  11.139 -2.4830 -1.9904  1.0318
  607MOL0     H81896   0.033   4.195  11.510 -1.3399 -2.2850  4.0912
  607MOL0     H81897  -0.176   4.190  11.755 -2.4066 -0.1332  1.6755
  607MOL0     H81898  -0.268   4.065  11.719 -0.1602  1.5754  0.5984
  607MOL0     H81899   0.015   4.107  11.796 -2.4866  2.0086 -0.4724
  607MOL0     H81900   0.007   3.952  11.706  0.7988  0.0399  1.2891
  607MOL0     H81901  -0.181   3.884  11.876  0.1863  1.1776  1.0655
  607MOL0     H81902  -0.120   4.013  11.978 -0.8009  1.0863 -0.9552
  607MOL0     H81903   0.049   3.786  11.862  2.6093  1.9717  0.5158
  607MOL0     H81904  -0.008   3.805  12.037 -1.4543  4.1601  2.6830
  607MOL0     H81905   0.155   3.763  12.135 -0.0482  0.4952 -1.2379
  607MOL0     H81906   0.228   3.647  12.319 -0.2538  0.9195 -2.5411
  607MOL0     H81907   0.396   3.634  12.323  0.0966 -0.1767 -0.6161
  607MOL0     H81908   0.316   3.731  12.449 -0.2482  2.0222 -1.1075
  607MOL0     H81909   0.761   4.048  12.174 -0.6232 -0.5911  0.5607
  607MOL0     H81910   1.013   4.020  12.172 -0.7239 -1.1065  0.1360
  607MOL0     H81911   1.294   3.811  12.412  0.6098  1.3759 -0.3496
  607MOL0     H81912   1.158   3.834  12.514  1.1501 -0.0770  0.8056
  607MOL0     H81913   1.169   3.624  12.384  1.4376  0.9873  0.4671
  607MOL0     H81914   1.025   3.709  12.339  0.2769 -0.4235  1.3937
  607MOL0     H81915   1.287   3.709  12.184  0.2689 -0.3234  0.5842
  607MOL0     H81916   1.133   3.792  12.144  1.8902  1.2937 -0.2833
  607MOL0     H81917   1.175   3.501  12.132 -0.3812  0.0550  1.8383
  607MOL0     H81918   1.012   3.564  12.168 -0.7708  3.3155  0.3888
  607MOL0     H81919   1.183   3.637  11.918 -0.8396  1.7934 -1.2120
  607MOL0     H81920   1.009   3.692  11.943 -0.0759  1.2605 -1.2442
  607MOL0     H81921   1.098   3.407  11.922 -0.3313 -0.0448 -2.7928
  607MOL0     H81922   0.931   3.466  11.939 -0.3699 -0.6798 -1.0881
  607MOL0     H81923   1.139   3.544  11.719 -1.5380  0.9893 -4.0766
  607MOL0     H81924   0.987   3.615  11.729  0.6556  0.3754 -0.9893
  607MOL0     H81925   0.981   3.434  11.563 -1.4314  2.4400  0.2935
  607MOL0     H81926   0.875   3.417  11.692 -0.7774  3.3285 -3.1500
  607MOL0     H81927   1.016   3.993  12.595  1.6771 -1.6920 -1.3656
  607MOL0     H81928   0.773   3.997  12.602 -2.0382 -1.0362 -0.8618
  607MOL0     H81929   0.502   4.105  12.192  2.7590 -3.7191  0.5274
  607MOL0     H81930   0.310   4.115  12.008  0.0886  1.0366  1.4856
  607MOL0     H81931   0.654   3.946  10.464  1.5129  1.1115 -0.6306
  607MOL0     H81932   0.624   3.799  10.275  1.6970  1.3929  0.2560
  607MOL0     H81933   0.311   3.667   9.910  1.1723 -1.6408  1.1587
  607MOL0     H81934   0.283   3.545   9.716  1.9093 -2.1705  1.6957
  607MOL0     H81935   0.265   3.430   9.521  0.6987  0.3361 -0.0290
  607MOL0     H81936   0.274   3.593   9.448  2.0271  0.5226 -0.3964
  607MOL0     H81937   0.244   3.400   9.288  0.2468 -3.2968  2.1785
  607MOL0     H81938   0.424   3.380   9.307 -1.3454 -1.0067 -2.0994
  607MOL0     H81939   0.351   3.492   9.113  4.6916  0.6856 -1.0977
  607MOL0     H81940   0.468   3.573   9.206 -0.0769 -1.2095  1.2057
  607MOL0     H81941   0.298   3.735   9.132  0.6500  2.7452  1.4295
  607MOL0     H81942   0.293   3.726   9.301  1.7033 -1.1879 -0.5678
  607MOL0     H81943  -0.087   3.594   9.269  0.4056  2.7197  3.8389
  607MOL0     H81944   0.648   3.721   9.547  0.9306  0.8918  0.8347
  607MOL0     H81945   0.645   3.882   9.728  1.0329 -0.2028  0.8063
  608MOL0     O81946   7.124   1.918   4.963  0.4292 -0.0367  0.2334
  608MOL0     C81947   7.081   1.827   4.890 -0.2252 -1.1409  0.1155
  608MOL0     O81948   7.163   1.744   4.822  0.0294 -0.1249 -0.2620
  608MOL0     C81949   7.299   1.753   4.827  0.8611 -0.3043  0.0728
  608MOL0     C81950   7.375   1.837   4.750 -0.6876  0.2169 -0.3232
  608MOL0     C81951   7.515   1.842   4.776 -0.3370  0.1892 -0.7110
  608MOL0     C81952   7.583   1.759   4.864  0.3769 -0.2810 -0.1479
  608MOL0     O81953   7.723   1.761   4.878 -0.0494  0.6065 -0.1532
  608MOL0     C81954   7.775   1.718   5.003 -0.6753  0.7586  0.5628
  608MOL0     C81955   7.921   1.784   5.003  1.4555 -0.0666  0.9183
  608MOL0     C81956   8.000   1.700   5.089 -0.3968  0.1005 -0.0824
  608MOL0     C81957   8.130   1.769   5.099  0.1788 -0.3325 -0.1892
  608MOL0     C81958   8.248   1.703   5.171 -0.0322 -0.4516 -0.0911
  608MOL0     C81959   8.213   1.671   5.317  0.3985  0.2545 -0.2020
  608MOL0     C81960   8.340   1.650   5.401  0.1322  0.4755 -0.6836
  608MOL0     C81961   8.398   1.504   5.387  0.0024  0.2826 -0.1322
  608MOL0     N81962   8.536   1.501   5.444 -0.0915 -0.4796 -0.5458
  608MOL0     C81963   8.605   1.586   5.530 -0.3347  0.6691 -0.1805
  608MOL0     C81964   8.722   1.527   5.545 -0.0940  0.1251 -0.0703
  608MOL0     C81965   8.841   1.596   5.615  0.0434 -0.1784 -0.5660
  608MOL0     C81966   8.905   1.507   5.711 -1.2576  0.3048  0.0752
  608MOL0     C81967   8.825   1.480   5.844  0.0390 -0.5618 -0.1218
  608MOL0     C81968   8.714   1.379   5.820 -1.0313  0.3336 -0.1613
  608MOL0     O81969   8.661   1.332   5.942  0.3718  0.0492 -0.2651
  608MOL0     C81970   8.534   1.281   5.938 -0.4943 -0.5056 -0.1071
  608MOL0     C81971   8.438   1.274   5.843 -0.0953 -0.0165 -0.2954
  608MOL0     C81972   8.327   1.189   5.852  0.3464  0.3397 -0.6808
  608MOL0     C81973   8.221   1.181   5.744  0.1435 -0.5200  0.2715
  608MOL0     C81974   8.307   1.125   5.971 -0.4879  0.0493 -0.4375
  608MOL0     C81975   8.190   1.056   6.013 -0.1695 -0.3639 -0.0998
  608MOL0     O81976   8.099   1.119   6.093  0.6972  0.1341  0.2140
  608MOL0     C81977   7.988   1.052   6.137 -0.0972 -0.6991  0.5021
  608MOL0     C81978   7.892   1.007   6.050 -0.1036 -1.5706  0.8221
  608MOL0     C81979   7.792   0.922   6.092  0.4122  0.7329  0.4461
  608MOL0     C81980   7.772   0.900   6.233  0.8703 -0.3288 -0.1956
  608MOL0     O81981   7.677   0.818   6.286 -0.3706 -0.1381 -0.2489
  608MOL0     C81982   7.630   0.704   6.202  0.3685  0.6232  0.4309
  608MOL0     C81983   7.509   0.629   6.257 -0.6270  1.5098  0.9008
  608MOL0     C81984   7.404   0.716   6.301 -0.0513 -0.3386  0.7023
  608MOL0     C81985   7.293   0.635   6.370 -0.4078 -1.0135  0.1467
  608MOL0     C81986   7.185   0.726   6.419 -0.9425  0.4477 -0.7788
  608MOL0     C81987   7.111   0.808   6.317  0.5356  0.0304 -0.2309
  608MOL0     C81988   6.993   0.885   6.378 -0.7536 -0.3051  0.1722
  608MOL0     C81989   6.912   0.965   6.275 -0.5889 -0.3172  0.4186
  608MOL0    Cl81990   6.992   1.134   6.258  0.4926  0.0170 -0.0932
  608MOL0     C81991   7.856   0.957   6.330 -0.9616 -0.9667 -0.0939
  608MOL0     C81992   7.966   1.028   6.279 -0.2325 -1.1508  0.0861
  608MOL0     O81993   8.179   0.938   5.980 -0.6005 -0.1899 -0.4979
  608MOL0     C81994   8.401   1.136   6.069 -0.1323  0.3248 -0.0853
  608MOL0     C81995   8.517   1.219   6.060  0.0138  0.4434  0.6714
  608MOL0     N81996   8.733   1.405   5.474  0.2241 -0.0147  0.1686
  608MOL0     N81997   8.624   1.405   5.405 -0.3312 -1.5399  0.4431
  608MOL0     C81998   7.501   1.671   4.934 -0.1178  0.3220 -0.4318
  608MOL0     C81999   7.362   1.663   4.915  0.2955 -0.1176 -0.0869
  608MOL0     C82000   6.932   1.810   4.875 -0.9031 -0.2685  1.1226
  608MOL0     C82001   6.880   1.705   4.788 -0.0689 -0.1325 -0.2925
  608MOL0     C82002   6.752   1.696   4.759  0.5603 -0.4432  0.8066
  608MOL0     C82003   6.661   1.794   4.821  0.1265  1.0177  0.4757
  608MOL0     O82004   6.520   1.788   4.789 -0.0550  0.3098  0.2785
  608MOL0     C82005   6.439   1.871   4.869  0.3365  0.0904 -0.6282
  608MOL0     C82006   6.293   1.852   4.829  0.9279 -0.7502  0.5538
  608MOL0     C82007   6.236   1.709   4.839  0.0944 -0.0520  0.1403
  608MOL0     C82008   6.108   1.687   4.757 -0.2538 -0.3378 -0.5637
  608MOL0     C82009   6.065   1.549   4.790  0.3623 -0.5721 -0.1375
  608MOL0     C82010   6.022   1.441   4.815 -0.7730  0.1516  0.4962
  608MOL0     C82011   6.714   1.899   4.898 -0.2071  0.6936 -0.4161
  608MOL0     C82012   6.844   1.911   4.922  0.1510  0.3307  0.8093
  608MOL0     H82013   7.335   1.909   4.679 -2.5961 -0.7950 -0.3468
  608MOL0     H82014   7.575   1.896   4.703  1.0271 -2.8180 -2.0202
  608MOL0     H82015   7.729   1.755   5.095  1.4545 -1.1733  2.5387
  608MOL0     H82016   7.782   1.609   5.006 -0.9533  0.7651  2.0227
  608MOL0     H82017   7.964   1.783   4.903 -0.8483  0.6746 -0.1449
  608MOL0     H82018   7.900   1.885   5.040  1.7082  0.2853  0.1141
  608MOL0     H82019   7.953   1.689   5.188 -0.2739 -2.4713 -0.2245
  608MOL0     H82020   8.015   1.602   5.041  2.3275  1.7754 -3.0099
  608MOL0     H82021   8.173   1.794   5.001 -1.5737 -3.2980 -1.8708
  608MOL0     H82022   8.112   1.866   5.147 -1.9660 -1.4205  1.3276
  608MOL0     H82023   8.286   1.617   5.115 -0.5011  0.4499 -1.8525
  608MOL0     H82024   8.326   1.780   5.176 -3.3883  3.1873  1.5927
  608MOL0     H82025   8.150   1.748   5.363 -0.2172  1.3092 -2.6377
  608MOL0     H82026   8.157   1.578   5.304 -0.8375  1.2030 -2.2277
  608MOL0     H82027   8.418   1.715   5.360 -1.7449  2.6507 -1.0226
  608MOL0     H82028   8.315   1.661   5.507 -0.8158 -1.4969 -0.6563
  608MOL0     H82029   8.411   1.475   5.282  1.2786  3.2519 -0.9207
  608MOL0     H82030   8.342   1.423   5.434  2.2637 -1.6220 -0.5369
  608MOL0     H82031   8.583   1.685   5.568 -0.8627  1.1870 -1.7461
  608MOL0     H82032   8.908   1.614   5.530 -0.8328  0.9613 -1.0518
  608MOL0     H82033   8.817   1.697   5.650 -2.6973 -0.3798 -1.5901
  608MOL0     H82034   8.996   1.552   5.749 -0.8523 -0.8149  0.4737
  608MOL0     H82035   8.936   1.413   5.664  2.3108 -0.4611  3.4317
  608MOL0     H82036   8.773   1.572   5.870  0.3112  0.5839 -3.1458
  608MOL0     H82037   8.886   1.438   5.923  0.8888 -2.3864 -1.6576
  608MOL0     H82038   8.757   1.295   5.764 -3.0386 -0.0201 -1.2578
  608MOL0     H82039   8.639   1.430   5.760 -1.2118 -0.5412 -0.6896
  608MOL0     H82040   8.453   1.330   5.750 -1.2786 -0.8647 -1.0212
  608MOL0     H82041   8.126   1.228   5.774 -1.1029 -1.5553 -1.7627
  608MOL0     H82042   8.252   1.240   5.658  1.6131  2.7266  2.8300
  608MOL0     H82043   8.195   1.077   5.720  0.1109 -1.1603  2.7685
  608MOL0     H82044   7.915   1.035   5.947 -0.2299 -0.1275  1.1778
  608MOL0     H82045   7.732   0.885   6.009  1.7645  0.8232 -0.6040
  608MOL0     H82046   7.596   0.727   6.100  2.0842 -0.8109 -0.5462
  608MOL0     H82047   7.707   0.626   6.190  2.3300  2.7615 -2.6372
  608MOL0     H82048   7.463   0.566   6.180 -0.7066  2.5981  0.0494
  608MOL0     H82049   7.548   0.556   6.330  3.0586  0.5986 -1.6807
  608MOL0     H82050   7.368   0.762   6.208 -0.0405 -2.1104 -0.2203
  608MOL0     H82051   7.439   0.790   6.374 -1.3485 -0.2046  1.2255
  608MOL0     H82052   7.250   0.570   6.294  2.3141 -0.7990 -1.7180
  608MOL0     H82053   7.340   0.577   6.450  0.2740 -1.3222 -0.4721
  608MOL0     H82054   7.214   0.787   6.506  1.5597 -1.8477  0.1183
  608MOL0     H82055   7.111   0.652   6.450  2.1127 -1.8193  1.7097
  608MOL0     H82056   7.187   0.877   6.278 -1.3966  1.9617 -0.7631
  608MOL0     H82057   7.078   0.738   6.240  3.0131 -2.0823  0.4532
  608MOL0     H82058   7.020   0.951   6.461 -0.0122  0.0224 -0.3207
  608MOL0     H82059   6.925   0.815   6.427 -1.1472 -2.0603 -2.6957
  608MOL0     H82060   6.811   0.984   6.313 -1.4680 -1.7608 -1.0361
  608MOL0     H82061   6.905   0.918   6.176 -4.9385  1.6265 -0.4036
  608MOL0     H82062   7.840   0.937   6.435 -1.4229  1.8672  0.4425
  608MOL0     H82063   8.045   1.053   6.350 -0.8747 -1.3851  0.8979
  608MOL0     H82064   8.385   1.089   6.166 -0.0279  2.1350  0.8573
  608MOL0     H82065   8.579   1.228   6.149 -2.3519  2.5033  2.2247
  608MOL0     H82066   7.547   1.598   5.001 -0.1629 -0.3375 -1.1085
  608MOL0     H82067   7.310   1.591   4.977 -1.7302  2.1259  0.9715
  608MOL0     H82068   6.935   1.634   4.727 -1.2022 -2.1233  0.8907
  608MOL0     H82069   6.718   1.604   4.712 -1.3407 -0.4713  2.1158
  608MOL0     H82070   6.453   1.857   4.976 -2.0436  1.9180  0.0118
  608MOL0     H82071   6.470   1.974   4.851 -1.1295  0.7832  0.5423
  608MOL0     H82072   6.275   1.891   4.728 -2.9986 -0.9939  1.0334
  608MOL0     H82073   6.225   1.897   4.902 -0.1262 -0.4184 -0.5992
  608MOL0     H82074   6.214   1.691   4.944  2.8791  2.5083  1.3312
  608MOL0     H82075   6.311   1.638   4.804 -0.6669  0.0335 -1.7975
  608MOL0     H82076   6.126   1.698   4.649  0.6838  1.0419 -0.2810
  608MOL0     H82077   6.048   1.769   4.797  2.5226  0.8613  1.3667
  608MOL0     H82078   5.975   1.351   4.850 -0.9430 -0.8422 -2.0660
  608MOL0     H82079   6.648   1.976   4.936 -1.9617 -0.5092 -0.9083
  608MOL0     H82080   6.873   2.005   4.968 -2.2812  1.6346 -0.1617
  609MOL0     O82081   1.221   2.998   6.685  0.5574 -0.2249 -0.1518
  609MOL0     C82082   1.304   3.084   6.678  0.2461  0.8331  0.0818
  609MOL0     O82083   1.302   3.186   6.586  0.3034 -0.6331 -0.4113
  609MOL0     C82084   1.218   3.179   6.478 -0.5455  0.0347 -0.1304
  609MOL0     C82085   1.156   3.307   6.457 -0.3306 -0.0049  0.1121
  609MOL0     C82086   1.069   3.313   6.347 -0.5645  0.6506  0.0186
  609MOL0     C82087   1.032   3.192   6.281 -0.2431 -0.0832 -0.7132
  609MOL0     O82088   0.939   3.210   6.188 -0.0984  0.3025  0.8616
  609MOL0     C82089   0.889   3.108   6.108  0.2715  0.3440  0.5486
  609MOL0     C82090   0.790   3.162   5.997  0.0800  0.8221  0.3060
  609MOL0     C82091   0.730   3.041   5.919  0.9903  0.3373  0.2927
  609MOL0     C82092   0.617   3.082   5.824  0.0206 -0.2714 -0.3500
  609MOL0     C82093   0.543   2.961   5.763  0.6862 -0.2370 -0.0722
  609MOL0     C82094   0.483   2.857   5.863  0.1879 -0.0931  0.2385
  609MOL0     C82095   0.364   2.778   5.808 -0.0541  0.4071 -0.3740
  609MOL0     C82096   0.371   2.730   5.664  0.1148 -0.3419  0.0852
  609MOL0     N82097   0.250   2.661   5.620  0.0418 -0.6379 -0.3641
  609MOL0     C82098   0.215   2.533   5.661  0.2513  0.2604  0.6296
  609MOL0     C82099   0.114   2.505   5.582 -0.1430 -0.3971  1.1750
  609MOL0     C82100   0.013   2.388   5.604 -0.0251  0.5333 -0.6557
  609MOL0     C82101   0.058   2.293   5.720 -1.0051  0.2348 -0.0913
  609MOL0     C82102  -0.017   2.159   5.728  0.5639  0.2588 -0.7905
  609MOL0     C82103  -0.167   2.180   5.746 -0.7524 -0.5005 -0.8931
  609MOL0     O82104  -0.238   2.063   5.779 -0.4519 -0.4960 -0.5763
  609MOL0     C82105  -0.380   2.059   5.790 -0.5436  0.0338 -0.0876
  609MOL0     C82106  -0.467   2.153   5.763  0.2857 -0.3177 -0.4280
  609MOL0     C82107  -0.609   2.127   5.754 -0.6240 -0.2220  0.1865
  609MOL0     C82108  -0.691   2.241   5.702  0.1244 -1.1620  0.1298
  609MOL0     C82109  -0.664   2.000   5.783  0.4210  0.5765 -0.5764
  609MOL0     C82110  -0.806   1.948   5.784 -0.4999 -0.3604  0.7286
  609MOL0     O82111  -0.828   1.823   5.845 -0.0341 -0.7305 -0.0759
  609MOL0     C82112  -0.945   1.763   5.847  0.5417  0.9526  0.1984
  609MOL0     C82113  -0.967   1.648   5.762  0.0547 -0.1507 -0.4366
  609MOL0     C82114  -1.079   1.571   5.779  0.4758  0.2955  0.2280
  609MOL0     C82115  -1.168   1.600   5.885  0.1372  0.7044 -0.0961
  609MOL0     O82116  -1.287   1.525   5.883 -0.2237  0.3066  0.0138
  609MOL0     C82117  -1.344   1.496   6.012  0.6686 -0.0302  0.0052
  609MOL0     C82118  -1.253   1.414   6.100  0.1904 -0.3459  0.1070
  609MOL0     C82119  -1.218   1.285   6.021  0.8107  0.4330  0.3664
  609MOL0     C82120  -1.139   1.188   6.111  0.1818  0.2351 -0.2063
  609MOL0     C82121  -1.121   1.061   6.029 -0.2704  0.4592  0.4796
  609MOL0     C82122  -1.033   0.958   6.098  0.1538  0.1437  0.1199
  609MOL0     C82123  -1.004   0.831   6.010  0.2647 -0.2371  1.2314
  609MOL0     C82124  -0.886   0.746   6.066 -0.9484 -0.0054 -0.2285
  609MOL0    Cl82125  -0.938   0.640   6.203  0.0212 -0.4332 -0.6710
  609MOL0     C82126  -1.140   1.704   5.973  0.5561 -0.1376 -0.0044
  609MOL0     C82127  -1.031   1.778   5.951  0.2201 -0.3676 -0.5633
  609MOL0     O82128  -0.889   2.009   5.717  0.8468  0.1345 -0.8892
  609MOL0     C82129  -0.569   1.902   5.823 -0.5817 -0.3285  0.5278
  609MOL0     C82130  -0.433   1.930   5.818  0.1522 -0.3322  0.2867
  609MOL0     N82131   0.098   2.600   5.485  0.5931 -0.3774 -0.3809
  609MOL0     N82132   0.182   2.693   5.509 -0.3287  0.3440 -0.9507
  609MOL0     C82133   1.082   3.059   6.317 -0.0085 -1.0393  0.2521
  609MOL0     C82134   1.183   3.060   6.416  0.6364  0.0490 -0.0218
  609MOL0     C82135   1.432   3.068   6.751  1.0983 -0.4709  0.3967
  609MOL0     C82136   1.531   3.167   6.743 -0.1691  0.4875 -0.3893
  609MOL0     C82137   1.654   3.148   6.812  0.9017  0.5049  0.3117
  609MOL0     C82138   1.687   3.035   6.886 -0.5003  0.3403 -0.2941
  609MOL0     O82139   1.820   3.022   6.929 -0.1148 -0.9943  0.4526
  609MOL0     C82140   1.882   2.900   6.964  0.4643  0.6522 -0.7383
  609MOL0     C82141   2.029   2.925   6.984  0.8282 -0.6294 -0.2287
  609MOL0     C82142   2.098   2.806   7.032 -0.9707 -0.0808 -0.2917
  609MOL0     C82143   2.241   2.839   7.110 -0.0415  0.5594 -1.2819
  609MOL0     C82144   2.347   2.733   7.086 -0.1625 -0.3246  0.6288
  609MOL0     C82145   2.432   2.650   7.073 -0.3482  0.3906 -1.4023
  609MOL0     C82146   1.582   2.949   6.913  0.1031  0.1603  0.2224
  609MOL0     C82147   1.459   2.963   6.845  0.7360 -0.4064  0.4180
  609MOL0     H82148   1.196   3.395   6.506  0.0984 -0.4599  0.5891
  609MOL0     H82149   1.021   3.407   6.323 -1.1330  0.3733  0.0695
  609MOL0     H82150   0.973   3.052   6.065  2.0582 -0.1773  4.2755
  609MOL0     H82151   0.829   3.034   6.162 -0.5229  0.0801 -0.6736
  609MOL0     H82152   0.703   3.214   6.038 -1.0821  1.6437 -2.8498
  609MOL0     H82153   0.846   3.224   5.926 -0.0041  0.4568 -0.0808
  609MOL0     H82154   0.804   2.994   5.853  0.7977  2.2781 -1.3993
  609MOL0     H82155   0.705   2.958   5.986  1.3259 -2.2703 -2.6296
  609MOL0     H82156   0.538   3.144   5.868 -1.3816 -0.7759 -2.0445
  609MOL0     H82157   0.660   3.139   5.740 -0.3758 -1.7429 -1.6096
  609MOL0     H82158   0.463   3.000   5.699  1.3667  1.4436  0.0411
  609MOL0     H82159   0.619   2.908   5.704  0.5996  0.2512 -0.6384
  609MOL0     H82160   0.571   2.799   5.891 -1.8491 -1.1267  5.6763
  609MOL0     H82161   0.458   2.905   5.958 -0.4747  1.7107 -0.7891
  609MOL0     H82162   0.343   2.690   5.870 -0.1587 -0.9492 -2.2249
  609MOL0     H82163   0.281   2.849   5.811  1.3894  2.1407  1.3811
  609MOL0     H82164   0.458   2.665   5.658 -0.6945 -1.3600 -0.9456
  609MOL0     H82165   0.388   2.823   5.608  0.3706 -0.5945 -0.2663
  609MOL0     H82166   0.265   2.478   5.741  1.2375 -0.4445 -0.4436
  609MOL0     H82167  -0.080   2.434   5.637 -0.5109 -0.3609 -0.7288
  609MOL0     H82168  -0.008   2.338   5.509  0.6407 -1.0324 -0.0237
  609MOL0     H82169   0.064   2.343   5.817  5.2219  1.4575 -0.6819
  609MOL0     H82170   0.164   2.270   5.706 -0.7711  0.6003  0.9892
  609MOL0     H82171   0.017   2.104   5.816  0.1803  0.1198 -0.7275
  609MOL0     H82172  -0.006   2.098   5.638  1.2863 -2.6849  1.1712
  609MOL0     H82173  -0.210   2.225   5.656  0.6373  1.2175 -0.7692
  609MOL0     H82174  -0.181   2.256   5.824 -0.8055 -0.4855 -0.9168
  609MOL0     H82175  -0.429   2.252   5.737  3.1689 -0.2054  3.3313
  609MOL0     H82176  -0.753   2.206   5.618 -4.4919  1.0967  2.2303
  609MOL0     H82177  -0.762   2.274   5.778 -0.3000 -0.9408 -0.3543
  609MOL0     H82178  -0.631   2.329   5.679 -0.6065  0.0786  2.5988
  609MOL0     H82179  -0.888   1.624   5.691 -0.3300 -0.3203 -0.8118
  609MOL0     H82180  -1.097   1.485   5.716 -0.1634  1.3917 -1.1145
  609MOL0     H82181  -1.374   1.589   6.061  0.4798 -0.6790  1.1478
  609MOL0     H82182  -1.436   1.437   6.007 -0.2178  1.1426  1.7748
  609MOL0     H82183  -1.166   1.467   6.140 -0.1021  0.4536 -0.2836
  609MOL0     H82184  -1.302   1.388   6.194 -1.7222  4.0083  0.5377
  609MOL0     H82185  -1.156   1.321   5.938  0.7590  2.0282  0.9988
  609MOL0     H82186  -1.313   1.251   5.976  2.2643  0.8746 -3.4714
  609MOL0     H82187  -1.044   1.242   6.124 -1.2855  3.7276 -2.6006
  609MOL0     H82188  -1.191   1.176   6.206 -1.5412 -0.8922 -1.2470
  609MOL0     H82189  -1.090   1.081   5.926 -1.7853 -1.9170 -0.5095
  609MOL0     H82190  -1.225   1.028   6.024 -0.5586  1.5364 -1.1980
  609MOL0     H82191  -0.943   1.003   6.139  0.1565  0.0216  0.2466
  609MOL0     H82192  -1.078   0.918   6.189 -1.4882  0.0099 -0.6909
  609MOL0     H82193  -0.963   0.873   5.918  0.8260  0.5179  1.8015
  609MOL0     H82194  -1.096   0.773   5.997 -2.5014  3.8920  0.3430
  609MOL0     H82195  -0.811   0.819   6.099 -0.1601 -0.0973 -1.7225
  609MOL0     H82196  -0.845   0.681   5.988  0.2791 -1.6766  1.6904
  609MOL0     H82197  -1.213   1.736   6.046 -1.3031  0.2455 -1.9109
  609MOL0     H82198  -1.031   1.858   6.024 -6.4940  0.4675 -0.9411
  609MOL0     H82199  -0.592   1.799   5.850  1.7835 -0.6078  1.7065
  609MOL0     H82200  -0.360   1.850   5.827 -1.7153 -2.1769 -0.2524
  609MOL0     H82201   1.051   2.966   6.271  2.2246 -1.2793 -0.9285
  609MOL0     H82202   1.228   2.966   6.446  2.2253  0.9245  0.4200
  609MOL0     H82203   1.517   3.257   6.685  0.7580  3.1223  3.1687
  609MOL0     H82204   1.729   3.212   6.767  0.0354  0.7963 -0.7409
  609MOL0     H82205   1.828   2.868   7.054  0.6661  0.3933 -0.7078
  609MOL0     H82206   1.878   2.825   6.885  0.6221  0.1812 -0.3041
  609MOL0     H82207   2.042   3.010   7.053 -1.5225  2.0415 -2.7906
  609MOL0     H82208   2.073   2.954   6.888 -2.2517 -1.2042 -1.9351
  609MOL0     H82209   2.127   2.744   6.947  1.5197 -2.7206  2.2363
  609MOL0     H82210   2.029   2.750   7.096  1.3738 -0.7027  1.8494
  609MOL0     H82211   2.221   2.845   7.217 -0.2549 -0.4021 -1.2628
  609MOL0     H82212   2.276   2.935   7.070 -1.5799  1.7262  0.0172
  609MOL0     H82213   2.507   2.573   7.069 -1.7560 -1.0474 -1.5744
  609MOL0     H82214   1.601   2.870   6.985 -2.3258  0.7376  1.6178
  609MOL0     H82215   1.371   2.901   6.853 -0.1629 -0.1379 -4.4112
  610MOL0     O82216   5.511  10.916  10.165  0.0960 -0.6361  0.4325
  610MOL0     C82217   5.559  10.989  10.250 -0.0857  0.5352 -0.3410
  610MOL0     O82218   5.521  10.996  10.382  0.5256  0.3065  0.3611
  610MOL0     C82219   5.424  10.932  10.449 -0.1640  0.7513 -0.1204
  610MOL0     C82220   5.312  10.868  10.401 -0.6061  0.6872  0.1599
  610MOL0     C82221   5.228  10.787  10.483  0.5868 -0.1254 -0.1427
  610MOL0     C82222   5.246  10.779  10.625 -0.7011  0.4513  0.1584
  610MOL0     O82223   5.164  10.706  10.702 -0.0078  0.2492  0.9025
  610MOL0     C82224   5.146  10.759  10.836 -0.3702  1.0335  0.1779
  610MOL0     C82225   5.025  10.680  10.899  0.0702 -0.1417 -0.7547
  610MOL0     C82226   5.005  10.708  11.049 -0.6531  0.1166  0.0156
  610MOL0     C82227   4.865  10.668  11.090  0.4537  1.1621  0.7061
  610MOL0     C82228   4.843  10.688  11.241  0.3627  0.8443  0.0002
  610MOL0     C82229   4.694  10.654  11.268 -0.1251 -0.0482  0.2844
  610MOL0     C82230   4.671  10.644  11.418  0.5978 -0.6488  0.7096
  610MOL0     C82231   4.532  10.592  11.445 -0.5951 -1.1265  0.0985
  610MOL0     N82232   4.506  10.581  11.592 -0.2187  0.2329  0.6544
  610MOL0     C82233   4.439  10.673  11.667  0.9269 -0.1857  1.4833
  610MOL0     C82234   4.443  10.619  11.790  0.1349 -0.3216  1.4969
  610MOL0     C82235   4.380  10.676  11.912 -0.6314  0.6607  0.6960
  610MOL0     C82236   4.449  10.806  11.974  0.0086  0.0986 -0.2749
  610MOL0     C82237   4.380  10.867  12.093  0.7012 -0.2895 -0.7745
  610MOL0     C82238   4.238  10.911  12.065  0.1357 -0.9230  0.2808
  610MOL0     O82239   4.237  11.019  11.973 -0.1866 -0.5622  0.3385
  610MOL0     C82240   4.121  11.043  11.896 -0.2629  0.7556  0.4769
  610MOL0     C82241   4.072  11.173  11.876  1.0727  0.2383  0.7370
  610MOL0     C82242   3.959  11.208  11.794  0.0297 -0.1980  0.2292
  610MOL0     C82243   3.918  11.349  11.785  0.3622 -0.5787  0.6393
  610MOL0     C82244   3.888  11.100  11.730  0.3946  0.7501  0.2710
  610MOL0     C82245   3.766  11.112  11.639  0.2081  0.7373 -0.7856
  610MOL0     O82246   3.742  11.002  11.562  0.0666  0.0250 -0.4606
  610MOL0     C82247   3.631  10.987  11.477 -1.2306 -0.3294 -0.6868
  610MOL0     C82248   3.598  10.854  11.445 -0.2664  0.0286  0.1649
  610MOL0     C82249   3.493  10.825  11.362  0.7077  0.0546 -1.1096
  610MOL0     C82250   3.410  10.921  11.300 -0.1278 -0.3397  0.4292
  610MOL0     O82251   3.309  10.876  11.213 -0.0835 -0.0762 -0.6485
  610MOL0     C82252   3.223  10.972  11.154 -0.5708 -0.5999  0.3249
  610MOL0     C82253   3.118  11.019  11.252 -0.0064 -0.1660  0.5756
  610MOL0     C82254   3.005  10.914  11.271  0.1195  0.1995  0.1664
  610MOL0     C82255   2.926  10.952  11.400  0.4080  0.2214 -0.3649
  610MOL0     C82256   2.803  11.038  11.378 -0.0504 -0.6937  0.3477
  610MOL0     C82257   2.761  11.107  11.508  0.0130 -0.1880  0.3143
  610MOL0     C82258   2.640  11.197  11.488  0.3481  0.8223  0.5077
  610MOL0     C82259   2.570  11.219  11.622 -0.5044 -0.2195  0.5746
  610MOL0    Cl82260   2.662  11.339  11.714 -0.0276 -0.0454 -0.4250
  610MOL0     C82261   3.448  11.051  11.334  0.0729  0.5022 -0.1010
  610MOL0     C82262   3.547  11.084  11.424  0.0385  0.1641  0.6869
  610MOL0     O82263   3.707  11.224  11.632 -0.1738  0.8857 -0.4974
  610MOL0     C82264   3.942  10.968  11.753  0.3266 -0.7201 -0.8787
  610MOL0     C82265   4.053  10.941  11.832  0.6635 -0.0880  0.1753
  610MOL0     N82266   4.509  10.491  11.783 -0.0854 -0.6350 -0.0860
  610MOL0     N82267   4.537  10.466  11.661  0.0663 -0.2343  0.7025
  610MOL0     C82268   5.358  10.859  10.677  0.0239 -0.0142 -0.6753
  610MOL0     C82269   5.444  10.926  10.585 -0.2303 -1.6682 -0.7825
  610MOL0     C82270   5.692  11.047  10.223  0.1275  0.0612  0.2425
  610MOL0     C82271   5.771  10.999  10.110  0.1666 -0.2849 -0.0608
  610MOL0     C82272   5.899  11.049  10.102 -0.2866 -0.8004 -0.5376
  610MOL0     C82273   5.966  11.132  10.192 -0.0294 -0.1809 -0.1823
  610MOL0     O82274   6.104  11.161  10.174 -1.2422 -0.4104  0.2928
  610MOL0     C82275   6.141  11.293  10.151  1.1450 -0.7235  0.0653
  610MOL0     C82276   6.142  11.389  10.268  0.0919  0.6321  0.2585
  610MOL0     C82277   6.252  11.353  10.362  0.1767  0.4044  0.4273
  610MOL0     C82278   6.238  11.417  10.487 -0.5777 -0.8489 -0.5448
  610MOL0     C82279   6.253  11.563  10.482 -0.5732 -0.3862 -0.0448
  610MOL0     C82280   6.274  11.683  10.485  0.8331  0.3620  0.3058
  610MOL0     C82281   5.900  11.163  10.305  1.2035  0.4941  0.0507
  610MOL0     C82282   5.766  11.129  10.319  0.0268  0.9451 -0.1268
  610MOL0     H82283   5.300  10.851  10.294  0.4949 -1.2735  0.2984
  610MOL0     H82284   5.157  10.721  10.434  0.6294 -0.7136  0.5765
  610MOL0     H82285   5.240  10.742  10.888  0.9857  4.3777 -0.9304
  610MOL0     H82286   5.137  10.868  10.825  2.9119  1.2668 -1.3997
  610MOL0     H82287   4.943  10.709  10.833  0.6756 -1.8987 -2.3503
  610MOL0     H82288   5.048  10.573  10.890  1.3048  0.0115  0.2392
  610MOL0     H82289   5.084  10.656  11.104 -1.7731 -0.3731  1.2357
  610MOL0     H82290   5.024  10.815  11.065  0.7778 -0.0328 -0.5646
  610MOL0     H82291   4.792  10.719  11.026  1.1778  0.1367 -1.0013
  610MOL0     H82292   4.861  10.563  11.060 -0.1278  1.6789 -1.1653
  610MOL0     H82293   4.912  10.615  11.285 -1.2092 -1.8864 -1.7561
  610MOL0     H82294   4.873  10.787  11.278  2.7672 -0.7795  2.7788
  610MOL0     H82295   4.633  10.726  11.214 -0.5422 -1.8460 -1.8084
  610MOL0     H82296   4.670  10.561  11.215  3.0087 -1.4389  1.0415
  610MOL0     H82297   4.748  10.578  11.459  2.2011 -0.9836 -2.5389
  610MOL0     H82298   4.688  10.736  11.475  0.1575 -1.9573  3.1314
  610MOL0     H82299   4.526  10.495  11.395 -0.8497 -0.6794 -0.7535
  610MOL0     H82300   4.459  10.663  11.405 -0.4292  0.7283  2.8390
  610MOL0     H82301   4.396  10.770  11.645 -0.1080 -0.3575  2.6902
  610MOL0     H82302   4.279  10.697  11.877 -0.9497 -1.6818  0.0236
  610MOL0     H82303   4.374  10.592  11.983 -0.9103 -0.6279 -0.7952
  610MOL0     H82304   4.457  10.888  11.901  4.9726  0.1529  0.0500
  610MOL0     H82305   4.552  10.795  12.008 -0.7898  2.8298  3.7567
  610MOL0     H82306   4.445  10.942  12.139  1.6478 -1.7210  0.3304
  610MOL0     H82307   4.368  10.779  12.157 -0.0858 -2.0097 -3.1432
  610MOL0     H82308   4.190  10.943  12.157 -0.6494 -0.4511 -0.2764
  610MOL0     H82309   4.172  10.831  12.030 -0.8501 -0.4683  1.0262
  610MOL0     H82310   4.126  11.252  11.927 -0.2107  1.0531  0.8876
  610MOL0     H82311   3.972  11.422  11.846 -0.7952 -0.8401  2.0018
  610MOL0     H82312   3.923  11.378  11.679 -2.8994  2.9651  1.2657
  610MOL0     H82313   3.814  11.340  11.816  0.2431 -2.2022 -0.0813
  610MOL0     H82314   3.659  10.771  11.481 -0.2298 -1.0186 -2.1837
  610MOL0     H82315   3.468  10.720  11.358 -0.9596  0.3816 -0.0671
  610MOL0     H82316   3.280  11.056  11.113 -2.8912  1.2204  0.6349
  610MOL0     H82317   3.174  10.938  11.062 -1.6721  1.5380  0.0564
  610MOL0     H82318   3.163  11.033  11.351 -0.2297 -2.1356  0.9972
  610MOL0     H82319   3.081  11.116  11.218 -0.1919 -0.6262 -0.5817
  610MOL0     H82320   3.048  10.813  11.272 -2.0151 -0.7724  1.1047
  610MOL0     H82321   2.923  10.919  11.198 -1.3868 -0.9384  1.6855
  610MOL0     H82322   2.883  10.864  11.449 -3.2343  3.6341  3.4003
  610MOL0     H82323   2.994  11.002  11.470 -0.2501 -0.1869  0.5764
  610MOL0     H82324   2.720  10.973  11.348  1.6844 -2.2138 -1.4174
  610MOL0     H82325   2.821  11.116  11.303 -2.3110  1.1890  1.6072
  610MOL0     H82326   2.736  11.031  11.583 -0.9815 -0.5306 -0.3426
  610MOL0     H82327   2.835  11.164  11.564  0.9632 -0.9376 -0.1422
  610MOL0     H82328   2.567  11.139  11.431  1.0926 -1.0321  1.3396
  610MOL0     H82329   2.653  11.296  11.442 -0.5075  0.6213 -0.1928
  610MOL0     H82330   2.544  11.132  11.683 -1.0881 -0.2371  0.3090
  610MOL0     H82331   2.470  11.259  11.603  0.1928  0.9567 -0.7957
  610MOL0     H82332   3.389  11.129  11.287 -0.8570 -0.6540 -0.9147
  610MOL0     H82333   3.577  11.187  11.444 -1.0873  0.0040  3.6934
  610MOL0     H82334   3.886  10.887  11.707 -0.3564 -0.0270 -1.2848
  610MOL0     H82335   4.074  10.836  11.851 -2.4145 -1.0509 -1.1135
  610MOL0     H82336   5.382  10.861  10.783 -3.8415  2.4894  0.3758
  610MOL0     H82337   5.529  10.974  10.632 -1.7457  0.3307  0.0485
  610MOL0     H82338   5.742  10.922  10.040  0.6726 -1.2604  0.7691
  610MOL0     H82339   5.952  11.002  10.020 -2.2698 -0.4164 -2.1295
  610MOL0     H82340   6.238  11.289  10.100  0.0879 -3.2066 -1.9890
  610MOL0     H82341   6.072  11.341  10.080 -0.8120 -1.3709  1.4530
  610MOL0     H82342   6.050  11.402  10.326 -0.2650 -2.8745  0.6730
  610MOL0     H82343   6.151  11.490  10.226 -0.1741 -0.2479 -2.0684
  610MOL0     H82344   6.348  11.386  10.322 -0.5290  4.8229  1.8864
  610MOL0     H82345   6.262  11.246  10.386 -0.6876  0.0919 -0.5132
  610MOL0     H82346   6.325  11.394  10.548  0.8020  2.4565 -1.0140
  610MOL0     H82347   6.147  11.381  10.535 -0.8356  1.1712  0.6003
  610MOL0     H82348   6.297  11.786  10.501  1.0503  0.2466  0.7537
  610MOL0     H82349   5.952  11.207  10.389  0.3219  3.7383 -0.9490
  610MOL0     H82350   5.731  11.137  10.422  2.1241 -0.4740  0.7584
  611MOL0     O82351   5.758   3.683   6.216  0.4565  0.5082 -0.4191
  611MOL0     C82352   5.783   3.756   6.117  0.3567  0.0160 -1.5631
  611MOL0     O82353   5.697   3.772   6.012  0.5594  0.1561  0.0131
  611MOL0     C82354   5.576   3.718   6.019 -0.2486  0.4279 -0.3299
  611MOL0     C82355   5.535   3.628   5.925 -0.6627  0.1521 -0.9270
  611MOL0     C82356   5.401   3.586   5.919 -0.4079 -0.0123  0.0105
  611MOL0     C82357   5.308   3.616   6.019  0.3520 -1.2175  0.0538
  611MOL0     O82358   5.177   3.577   6.000 -0.6085 -0.4415 -0.4002
  611MOL0     C82359   5.093   3.583   6.120 -0.1402 -1.0268  0.5691
  611MOL0     C82360   4.954   3.522   6.083 -1.0570 -0.6581  0.0320
  611MOL0     C82361   4.970   3.379   6.039 -1.6864  0.5747 -0.0586
  611MOL0     C82362   4.831   3.322   6.010  0.0140  0.0838  0.9850
  611MOL0     C82363   4.840   3.190   5.944  0.3633  0.6720 -0.9315
  611MOL0     C82364   4.718   3.104   5.990  0.2679 -0.2244  0.1447
  611MOL0     C82365   4.750   2.962   5.952  1.1325  0.2957  0.8101
  611MOL0     C82366   4.644   2.879   6.013 -0.0199  0.1716 -1.1740
  611MOL0     N82367   4.687   2.737   6.046 -0.0230  0.2154 -0.1260
  611MOL0     C82368   4.728   2.647   5.951  0.5413  0.2052 -0.0568
  611MOL0     C82369   4.739   2.526   6.022  1.1684  0.6435 -0.1956
  611MOL0     C82370   4.783   2.385   5.961 -0.1476 -0.7269 -0.2843
  611MOL0     C82371   4.665   2.302   5.954  0.5848  0.0139  0.2266
  611MOL0     C82372   4.554   2.359   5.858  0.2113 -0.0777 -1.1173
  611MOL0     C82373   4.445   2.260   5.856  1.0307  0.5124  0.1540
  611MOL0     O82374   4.332   2.312   5.779  0.6063 -0.0229  0.0708
  611MOL0     C82375   4.260   2.204   5.745 -0.6102  0.0357 -0.2255
  611MOL0     C82376   4.164   2.160   5.833  0.3277  1.0042 -0.3337
  611MOL0     C82377   4.098   2.038   5.814 -0.0769  1.3796  0.0958
  611MOL0     C82378   4.025   1.957   5.918  0.0442  0.0172  0.1912
  611MOL0     C82379   4.119   1.973   5.691 -0.2942 -0.0190  0.1911
  611MOL0     C82380   4.075   1.837   5.659  0.0764  0.2591  0.9165
  611MOL0     O82381   3.946   1.806   5.687  0.4813  0.6846  0.5483
  611MOL0     C82382   3.914   1.670   5.670 -0.6917  0.4633  0.0553
  611MOL0     C82383   3.886   1.611   5.544  0.9113  0.9475  0.2156
  611MOL0     C82384   3.868   1.473   5.530  0.5903 -0.5100  0.1721
  611MOL0     C82385   3.878   1.390   5.652  0.2207 -0.4081 -0.1441
  611MOL0     O82386   3.858   1.254   5.654 -0.0209  0.1747 -0.5074
  611MOL0     C82387   3.817   1.186   5.532  0.2909  0.3247 -0.1023
  611MOL0     C82388   3.820   1.039   5.571 -0.1122  0.2093  0.0705
  611MOL0     C82389   3.947   0.985   5.636  0.0616 -0.1618  0.1607
  611MOL0     C82390   4.073   1.003   5.552 -0.5538 -0.6882  0.0711
  611MOL0     C82391   4.205   0.977   5.629  0.5884 -0.6961 -0.3680
  611MOL0     C82392   4.331   0.982   5.539  0.6878  0.1424 -0.6796
  611MOL0     C82393   4.449   0.935   5.630 -0.2146  0.0199  0.1272
  611MOL0     C82394   4.572   0.911   5.533 -1.1537  0.5223 -0.1493
  611MOL0    Cl82395   4.607   1.067   5.450  0.2536 -0.3492 -0.2428
  611MOL0     C82396   3.909   1.451   5.782 -0.0357  0.5251 -0.1507
  611MOL0     C82397   3.926   1.586   5.788  0.4847 -0.3272  0.3190
  611MOL0     O82398   4.169   1.764   5.640 -0.5013  0.2223  0.6853
  611MOL0     C82399   4.193   2.036   5.586 -0.2919 -0.1312 -0.4791
  611MOL0     C82400   4.269   2.145   5.618 -0.0927  0.2166 -1.2189
  611MOL0     N82401   4.716   2.545   6.159 -0.1298 -0.3275 -0.6140
  611MOL0     N82402   4.692   2.676   6.170  0.7378  0.1727 -0.3250
  611MOL0     C82403   5.359   3.686   6.131  0.7041 -0.3348 -0.7433
  611MOL0     C82404   5.481   3.747   6.122  0.1595  0.3066  0.2457
  611MOL0     C82405   5.908   3.839   6.119 -0.1739 -0.1850 -1.1206
  611MOL0     C82406   5.949   3.909   5.998  0.1850 -0.2136 -0.3165
  611MOL0     C82407   6.074   3.970   5.994 -0.7827 -0.0898 -0.2696
  611MOL0     C82408   6.150   3.975   6.108  0.0619  0.1230  0.0041
  611MOL0     O82409   6.264   4.051   6.107  0.4480 -0.1723  0.2764
  611MOL0     C82410   6.318   4.101   6.230  0.2980  0.1416  0.0764
  611MOL0     C82411   6.444   4.175   6.199 -0.4074 -0.2451  0.5263
  611MOL0     C82412   6.496   4.255   6.322  1.0166 -0.2593  0.4293
  611MOL0     C82413   6.624   4.329   6.289  0.2951 -0.5832 -0.2502
  611MOL0     C82414   6.614   4.419   6.171 -0.6254 -0.0425 -0.4913
  611MOL0     C82415   6.598   4.487   6.075  0.4909 -0.4566  0.1128
  611MOL0     C82416   6.109   3.914   6.233  0.8207 -0.2500 -0.5780
  611MOL0     C82417   5.990   3.834   6.235 -0.0548 -0.0495  0.2034
  611MOL0     H82418   5.601   3.607   5.842  1.4284 -0.4834  0.8217
  611MOL0     H82419   5.375   3.527   5.832  2.8208 -0.4162 -0.8060
  611MOL0     H82420   5.136   3.528   6.204 -1.7868 -1.0525  1.4523
  611MOL0     H82421   5.076   3.683   6.161 -1.0183 -1.8143  2.2189
  611MOL0     H82422   4.892   3.524   6.173 -2.1417  1.0134 -0.7095
  611MOL0     H82423   4.916   3.586   6.003  1.5739 -0.5718 -1.2257
  611MOL0     H82424   5.026   3.384   5.945  0.2356  0.6608  1.0503
  611MOL0     H82425   5.030   3.323   6.111 -1.6246 -0.9088 -1.2341
  611MOL0     H82426   4.770   3.322   6.101 -2.9845 -0.0621 -0.8973
  611MOL0     H82427   4.781   3.391   5.943  0.5350 -0.3750  0.1020
  611MOL0     H82428   4.842   3.197   5.835  2.5145  0.7207 -0.9338
  611MOL0     H82429   4.935   3.146   5.976  0.4391  0.6835 -1.1415
  611MOL0     H82430   4.698   3.099   6.098 -2.7484 -4.2045 -0.3566
  611MOL0     H82431   4.624   3.146   5.953  0.9622 -0.1211 -1.5773
  611MOL0     H82432   4.749   2.955   5.842  1.3423  1.1189  0.7480
  611MOL0     H82433   4.850   2.940   5.991  2.3962 -3.8452 -3.6902
  611MOL0     H82434   4.557   2.867   5.948 -1.5264  4.1408 -0.2068
  611MOL0     H82435   4.613   2.925   6.108  0.7068  0.2536 -0.9633
  611MOL0     H82436   4.736   2.658   5.843  0.8087  0.4056 -0.0170
  611MOL0     H82437   4.826   2.396   5.861 -1.9043  0.1987 -0.9821
  611MOL0     H82438   4.858   2.341   6.028  1.4154  1.5450 -0.4270
  611MOL0     H82439   4.612   2.290   6.049  0.4827 -1.0750  0.0441
  611MOL0     H82440   4.695   2.206   5.912  1.7030  0.1129  0.7409
  611MOL0     H82441   4.593   2.364   5.755 -2.1544 -1.6254 -2.1557
  611MOL0     H82442   4.513   2.456   5.889 -0.1513 -0.0058 -1.7897
  611MOL0     H82443   4.407   2.239   5.957 -0.4800 -0.1877 -0.5207
  611MOL0     H82444   4.478   2.161   5.823 -0.1930  0.1392  0.0102
  611MOL0     H82445   4.144   2.221   5.921  1.0321  0.9450 -0.1294
  611MOL0     H82446   4.069   1.858   5.928 -0.6006 -0.1186  2.2274
  611MOL0     H82447   4.029   2.007   6.016 -0.6641 -0.0505  0.2641
  611MOL0     H82448   3.921   1.948   5.884  1.0500 -1.3553 -2.8577
  611MOL0     H82449   3.872   1.670   5.454  2.0324  0.9901  0.0646
  611MOL0     H82450   3.844   1.441   5.429 -3.9706 -0.7362  1.1079
  611MOL0     H82451   3.730   1.230   5.482  1.4208  3.5635  0.5347
  611MOL0     H82452   3.890   1.194   5.450  1.4729 -1.0365  0.7531
  611MOL0     H82453   3.734   1.011   5.633 -3.8581  1.3508 -4.0770
  611MOL0     H82454   3.800   0.978   5.483 -4.1484  0.3511  0.6834
  611MOL0     H82455   3.930   0.879   5.657  2.7366  0.0428  4.5011
  611MOL0     H82456   3.964   1.025   5.736 -1.1238 -3.0258  1.6213
  611MOL0     H82457   4.065   0.940   5.463  1.4349 -0.0051 -0.6467
  611MOL0     H82458   4.072   1.109   5.527 -2.9471  0.2202  3.3499
  611MOL0     H82459   4.196   0.880   5.679 -4.7160 -0.1952  0.1739
  611MOL0     H82460   4.219   1.050   5.709  1.3528  1.3897 -2.3142
  611MOL0     H82461   4.321   0.906   5.461  1.3233  1.5569 -2.2078
  611MOL0     H82462   4.336   1.085   5.502  0.2597  0.4443  0.0830
  611MOL0     H82463   4.415   0.842   5.675  0.5975 -0.0050  0.7136
  611MOL0     H82464   4.482   1.008   5.704  1.3992  1.6047 -2.0132
  611MOL0     H82465   4.551   0.834   5.458  2.9564 -0.9779 -0.0197
  611MOL0     H82466   4.657   0.888   5.598 -0.5365  3.4630  0.2396
  611MOL0     H82467   3.908   1.383   5.867  3.2635 -0.3026 -0.6301
  611MOL0     H82468   3.926   1.641   5.882 -0.8588 -0.1078  0.2136
  611MOL0     H82469   4.203   2.010   5.481  2.4573 -0.7405 -0.1391
  611MOL0     H82470   4.326   2.195   5.540 -1.3445  1.8329 -1.1530
  611MOL0     H82471   5.306   3.695   6.226 -0.1712  0.9384 -1.3244
  611MOL0     H82472   5.513   3.806   6.207  3.3749 -0.2245 -0.4760
  611MOL0     H82473   5.884   3.912   5.911 -2.8620  2.8482  1.8192
  611MOL0     H82474   6.120   4.013   5.905 -2.2995 -2.1311 -2.1385
  611MOL0     H82475   6.245   4.167   6.279 -1.8464 -0.5636 -1.9692
  611MOL0     H82476   6.349   4.031   6.308  1.9366  0.7274 -0.0110
  611MOL0     H82477   6.437   4.236   6.108 -1.8015 -1.7875 -0.4761
  611MOL0     H82478   6.520   4.098   6.186  2.7901  2.4229  2.0817
  611MOL0     H82479   6.500   4.191   6.411  4.9226  0.6401  1.0719
  611MOL0     H82480   6.421   4.334   6.334 -1.8500 -3.1154  3.4840
  611MOL0     H82481   6.704   4.255   6.278  0.6459 -0.2979  0.3163
  611MOL0     H82482   6.644   4.388   6.379 -1.3349 -0.2715 -0.0491
  611MOL0     H82483   6.585   4.550   5.989  0.2603  0.1471  0.5832
  611MOL0     H82484   6.172   3.925   6.321 -1.3516  0.8211  0.9430
  611MOL0     H82485   5.966   3.769   6.318 -1.7638  1.8042  1.2528
  612MOL0     O82486   7.769   6.735   5.343  0.4700  0.6155  0.0239
  612MOL0     C82487   7.827   6.817   5.407 -0.7730  0.2105  0.0075
  612MOL0     O82488   7.828   6.837   5.542  0.1631  0.0581  0.2893
  612MOL0     C82489   7.746   6.751   5.609 -0.1136  0.2405 -1.2821
  612MOL0     C82490   7.609   6.779   5.611  0.0636  0.6147 -1.2333
  612MOL0     C82491   7.530   6.688   5.688 -0.5689 -0.6888 -0.4893
  612MOL0     C82492   7.568   6.571   5.750 -0.5262  0.0984 -0.7991
  612MOL0     O82493   7.468   6.503   5.808 -0.0153  0.3148  0.0410
  612MOL0     C82494   7.510   6.402   5.900 -0.0488 -0.4803  0.3128
  612MOL0     C82495   7.396   6.328   5.950  0.3770 -0.0346  0.6704
  612MOL0     C82496   7.334   6.400   6.075 -0.7930 -0.1027 -0.1917
  612MOL0     C82497   7.205   6.327   6.111  0.6228 -0.1901 -0.1593
  612MOL0     C82498   7.130   6.409   6.215 -0.9693  0.1375 -0.6916
  612MOL0     C82499   6.998   6.341   6.244  0.6785  0.6867 -0.3426
  612MOL0     C82500   6.895   6.433   6.319  0.5423  0.8633 -0.5889
  612MOL0     C82501   6.862   6.384   6.459  0.9024  0.2058 -0.1082
  612MOL0     N82502   6.727   6.437   6.502  0.4609  0.0971 -0.1016
  612MOL0     C82503   6.652   6.551   6.462  0.1357  0.2471  1.2306
  612MOL0     C82504   6.547   6.567   6.542 -0.9340 -0.8296  0.1879
  612MOL0     C82505   6.435   6.663   6.528  0.1922  0.8479 -0.1191
  612MOL0     C82506   6.345   6.685   6.648 -0.2647 -1.4925 -0.0354
  612MOL0     C82507   6.216   6.593   6.661  0.0363  0.1870  0.2225
  612MOL0     C82508   6.134   6.643   6.772 -0.2827  0.3520 -0.2954
  612MOL0     O82509   6.041   6.737   6.717 -0.4921 -0.5066  0.2546
  612MOL0     C82510   5.952   6.796   6.799  0.0535 -0.4608  0.4578
  612MOL0     C82511   5.890   6.914   6.749 -0.0020 -0.4868 -0.1673
  612MOL0     C82512   5.779   6.969   6.815 -0.4285 -1.0275 -0.1742
  612MOL0     C82513   5.711   7.077   6.733 -0.1670  0.5910  0.0583
  612MOL0     C82514   5.743   6.924   6.952 -0.2026 -0.4564  0.3516
  612MOL0     C82515   5.630   6.978   7.023 -0.5009 -0.2760  0.3647
  612MOL0     O82516   5.596   7.104   7.004 -0.9381 -1.1466  0.7450
  612MOL0     C82517   5.501   7.166   7.078 -0.6595  0.1216  0.5300
  612MOL0     C82518   5.479   7.148   7.216 -0.3534  0.4219  0.9744
  612MOL0     C82519   5.370   7.205   7.278 -0.3870 -0.8428 -0.1616
  612MOL0     C82520   5.270   7.260   7.203 -0.2814  0.1621 -0.4175
  612MOL0     O82521   5.161   7.320   7.272  0.4258  0.2943  0.8198
  612MOL0     C82522   5.117   7.448   7.226  0.0308  0.5852 -0.2444
  612MOL0     C82523   5.014   7.514   7.308  0.0390  0.0502 -0.2763
  612MOL0     C82524   4.872   7.462   7.283 -0.2852  0.1817  0.1997
  612MOL0     C82525   4.781   7.553   7.365  0.9662 -0.7481 -0.2125
  612MOL0     C82526   4.647   7.501   7.416  0.3396  0.2028  0.3980
  612MOL0     C82527   4.566   7.411   7.313  0.2562 -0.2587  0.0218
  612MOL0     C82528   4.415   7.431   7.336 -0.5598  0.2900 -0.0832
  612MOL0     C82529   4.367   7.377   7.472  0.1801 -0.2300 -0.4323
  612MOL0    Cl82530   4.194   7.423   7.471  0.0817  0.1045 -0.0093
  612MOL0     C82531   5.284   7.272   7.064 -0.0508  0.9791 -0.7564
  612MOL0     C82532   5.405   7.237   7.002 -0.4130 -0.7984  0.2103
  612MOL0     O82533   5.585   6.904   7.113  0.0439 -0.5367 -0.0901
  612MOL0     C82534   5.828   6.819   7.000  0.0735 -0.0525 -0.0275
  612MOL0     C82535   5.935   6.772   6.931  0.1764  0.6549 -0.8319
  612MOL0     N82536   6.560   6.463   6.629  0.2890 -0.6044  0.4499
  612MOL0     N82537   6.662   6.388   6.606 -0.0083 -0.5457 -0.5086
  612MOL0     C82538   7.709   6.558   5.759  0.5198 -0.6990  0.1145
  612MOL0     C82539   7.795   6.648   5.691  0.0958  0.1233 -0.2060
  612MOL0     C82540   7.915   6.898   5.319  0.0881 -0.7600  0.8201
  612MOL0     C82541   7.905   6.883   5.170  0.1011 -0.3905 -0.1909
  612MOL0     C82542   7.993   6.967   5.101  0.3492  0.4745  0.2710
  612MOL0     C82543   8.069   7.073   5.163  0.1929  1.3470  0.4554
  612MOL0     O82544   8.145   7.145   5.080 -0.8846 -0.5861  0.2304
  612MOL0     C82545   8.231   7.245   5.138 -0.0137 -0.8823 -0.2464
  612MOL0     C82546   8.317   7.308   5.020 -0.0743 -0.8066  0.1885
  612MOL0     C82547   8.419   7.402   5.094  0.4997  0.4471  0.2897
  612MOL0     C82548   8.518   7.447   5.000 -0.8104 -0.2462 -0.3303
  612MOL0     C82549   8.468   7.516   4.892 -0.1572 -0.8439  0.4347
  612MOL0     C82550   8.424   7.587   4.809 -0.0710  0.6743 -0.2675
  612MOL0     C82551   8.084   7.070   5.299 -0.2056  0.5677 -0.5623
  612MOL0     C82552   8.009   6.985   5.385  0.4847  0.4201  0.6074
  612MOL0     H82553   7.587   6.875   5.565  1.0283  0.4817 -1.9922
  612MOL0     H82554   7.423   6.707   5.676 -0.2471 -0.6372 -5.3336
  612MOL0     H82555   7.577   6.334   5.848 -2.1590 -4.1670  2.0193
  612MOL0     H82556   7.565   6.451   5.980 -1.1664 -1.9912  2.0941
  612MOL0     H82557   7.328   6.320   5.864  3.5270 -2.2583 -1.9084
  612MOL0     H82558   7.422   6.226   5.980 -0.9057 -1.1577 -1.7345
  612MOL0     H82559   7.411   6.408   6.152  1.3665  1.2053 -2.3223
  612MOL0     H82560   7.321   6.505   6.046 -2.5069 -0.5814 -1.2901
  612MOL0     H82561   7.152   6.321   6.015  2.7341  3.0131 -1.6766
  612MOL0     H82562   7.218   6.224   6.146 -4.8874 -0.6702  1.3977
  612MOL0     H82563   7.195   6.407   6.303  0.2798  3.5430 -1.3745
  612MOL0     H82564   7.125   6.515   6.186  1.2813  0.3059 -0.6745
  612MOL0     H82565   6.950   6.326   6.146 -2.3815  1.2095  0.9558
  612MOL0     H82566   7.014   6.247   6.297  3.4872  1.2133 -0.1069
  612MOL0     H82567   6.928   6.537   6.315 -0.6431  1.1996 -2.9142
  612MOL0     H82568   6.801   6.422   6.265  0.1318  0.1782  0.2437
  612MOL0     H82569   6.945   6.416   6.523 -0.3389  1.7493  0.8056
  612MOL0     H82570   6.853   6.277   6.476 -1.7199  0.5471  1.0468
  612MOL0     H82571   6.660   6.605   6.368 -0.6660 -0.5442  0.6854
  612MOL0     H82572   6.480   6.757   6.496 -1.1775  2.5992  2.6968
  612MOL0     H82573   6.368   6.630   6.448  0.3751 -2.8117  1.0258
  612MOL0     H82574   6.324   6.792   6.636 -0.2260 -1.7842 -4.9560
  612MOL0     H82575   6.405   6.680   6.739  2.1962  1.5569 -1.3051
  612MOL0     H82576   6.253   6.494   6.690 -2.8937 -0.8932  0.6347
  612MOL0     H82577   6.158   6.570   6.571 -0.0230 -0.3044  0.3858
  612MOL0     H82578   6.202   6.675   6.851 -0.1533  0.9980 -0.6580
  612MOL0     H82579   6.079   6.555   6.807  0.3133  0.9460  2.3603
  612MOL0     H82580   5.906   6.954   6.649 -2.7073  1.8368  0.1892
  612MOL0     H82581   5.604   7.074   6.756 -0.6091 -1.6899 -1.8578
  612MOL0     H82582   5.745   7.175   6.766  1.4958 -0.1399  0.6159
  612MOL0     H82583   5.731   7.074   6.625 -1.7416  3.4319 -0.4166
  612MOL0     H82584   5.559   7.096   7.267 -0.4327 -0.1522  0.5281
  612MOL0     H82585   5.369   7.221   7.385  0.9007  1.3613 -0.4351
  612MOL0     H82586   5.212   7.502   7.219 -0.1862  1.1344  0.9136
  612MOL0     H82587   5.079   7.440   7.123  1.6852 -1.3355 -0.7654
  612MOL0     H82588   5.034   7.501   7.415 -1.4612  0.0489  0.0280
  612MOL0     H82589   5.023   7.622   7.289 -2.6127  0.8935  2.3664
  612MOL0     H82590   4.871   7.356   7.307 -0.2523 -0.0997 -0.9913
  612MOL0     H82591   4.843   7.471   7.178 -0.2440  2.2147  0.3173
  612MOL0     H82592   4.832   7.605   7.446 -0.0347 -1.1251  0.6937
  612MOL0     H82593   4.742   7.634   7.303  0.3258 -1.7699 -1.2031
  612MOL0     H82594   4.590   7.589   7.446  4.0226  2.9065  0.0839
  612MOL0     H82595   4.676   7.436   7.499  1.6397  0.3438  0.0810
  612MOL0     H82596   4.584   7.434   7.207  1.9538 -0.1781  0.3071
  612MOL0     H82597   4.596   7.306   7.324 -1.1323 -0.7068 -0.2071
  612MOL0     H82598   4.369   7.372   7.257  0.6710 -1.1548  0.2169
  612MOL0     H82599   4.394   7.538   7.333  1.5848  0.7423 -2.1522
  612MOL0     H82600   4.415   7.428   7.556 -1.3083  0.7806 -0.1525
  612MOL0     H82601   4.381   7.269   7.482 -1.2768 -0.3281  1.2324
  612MOL0     H82602   5.201   7.310   7.007 -0.4653 -2.8111 -3.0546
  612MOL0     H82603   5.426   7.252   6.896  0.1519 -0.0578  0.4236
  612MOL0     H82604   5.799   6.772   7.094 -0.8840  1.9127  0.7279
  612MOL0     H82605   5.985   6.687   6.976 -1.6188  0.7806  1.5928
  612MOL0     H82606   7.756   6.472   5.805  0.6093 -0.4716  0.4586
  612MOL0     H82607   7.903   6.637   5.688  0.0358 -1.0703  1.0285
  612MOL0     H82608   7.840   6.807   5.127 -0.3403 -0.4171  0.5094
  612MOL0     H82609   8.011   6.956   4.994  2.2475 -3.3827  0.8014
  612MOL0     H82610   8.182   7.327   5.191  1.5464 -0.5780  0.7990
  612MOL0     H82611   8.302   7.200   5.209  1.3203  2.0483  0.4577
  612MOL0     H82612   8.258   7.370   4.952 -1.7548  1.0944  3.1289
  612MOL0     H82613   8.368   7.227   4.968 -1.7866 -3.1330  1.9403
  612MOL0     H82614   8.463   7.355   5.183 -0.7662  0.0858  0.7479
  612MOL0     H82615   8.356   7.484   5.127  0.0408 -0.8219  2.8517
  612MOL0     H82616   8.592   7.372   4.971 -0.1347  0.8118 -1.4634
  612MOL0     H82617   8.570   7.525   5.058 -1.1507  1.0773 -1.7258
  612MOL0     H82618   8.394   7.648   4.727  0.6897  0.9478 -0.3476
  612MOL0     H82619   8.151   7.132   5.358 -2.0593  2.1270  0.0322
  612MOL0     H82620   8.014   6.980   5.494  0.2720  1.3382  0.6595
  613MOL0     O82621   1.247   2.098   7.147 -0.1148 -0.1800 -0.0748
  613MOL0     C82622   1.291   2.118   7.037  0.7285 -0.4574  0.1462
  613MOL0     O82623   1.216   2.139   6.919  0.7459 -0.0839 -0.9470
  613MOL0     C82624   1.079   2.139   6.933 -0.4939 -0.0070  0.0082
  613MOL0     C82625   1.013   2.024   6.886 -0.7694 -0.4480  0.4789
  613MOL0     C82626   0.875   2.012   6.902 -0.9369 -0.6135  0.2230
  613MOL0     C82627   0.800   2.120   6.961 -0.5192  0.1505 -1.0239
  613MOL0     O82628   0.671   2.109   7.004  0.0596 -0.8232 -0.0470
  613MOL0     C82629   0.629   1.980   7.035 -0.3734  0.2333  0.5501
  613MOL0     C82630   0.501   1.990   7.118 -0.4291 -0.7941 -0.6472
  613MOL0     C82631   0.530   1.981   7.268 -0.2860  0.4594  0.0627
  613MOL0     C82632   0.538   2.123   7.327 -0.6806  0.5568 -0.2254
  613MOL0     C82633   0.578   2.121   7.476 -1.2828 -0.0553  0.0211
  613MOL0     C82634   0.474   2.070   7.577  0.3549  0.1965  0.0833
  613MOL0     C82635   0.531   2.076   7.717 -0.0414  0.0009 -0.0314
  613MOL0     C82636   0.583   1.944   7.755 -0.6028  1.1628  0.2741
  613MOL0     N82637   0.606   1.934   7.911  0.4036 -0.0499  0.4847
  613MOL0     C82638   0.709   1.984   7.978 -0.6650  0.0133  0.0566
  613MOL0     C82639   0.693   1.940   8.102  0.1708 -0.3510  0.3787
  613MOL0     C82640   0.787   1.961   8.213 -0.5209  0.8528  0.5386
  613MOL0     C82641   0.726   2.031   8.339 -0.8365  0.4452  0.3675
  613MOL0     C82642   0.622   1.952   8.417  0.1033 -0.4750 -0.2121
  613MOL0     C82643   0.595   2.007   8.558  0.0402 -0.1870  0.3135
  613MOL0     O82644   0.485   1.935   8.629  0.2117 -0.6177 -0.4250
  613MOL0     C82645   0.357   1.970   8.597 -0.1783 -0.1647  0.4145
  613MOL0     C82646   0.263   1.867   8.569 -0.0769  0.2607  0.8899
  613MOL0     C82647   0.123   1.893   8.557  0.4378  0.4226  0.0936
  613MOL0     C82648   0.030   1.777   8.528  0.4534  0.1164 -0.8554
  613MOL0     C82649   0.065   2.015   8.593  0.3837  0.1187  0.1354
  613MOL0     C82650  -0.081   2.052   8.600 -0.5567 -0.7322  0.7255
  613MOL0     O82651  -0.111   2.186   8.634 -0.3598  0.0393  0.3014
  613MOL0     C82652  -0.236   2.221   8.644 -0.6173  0.6225 -0.6756
  613MOL0     C82653  -0.296   2.255   8.771 -0.5769 -0.1787 -0.0942
  613MOL0     C82654  -0.424   2.287   8.777  1.0661  0.7759  0.7170
  613MOL0     C82655  -0.505   2.298   8.655  0.0740 -0.5664 -0.0803
  613MOL0     O82656  -0.641   2.320   8.655 -0.4479 -0.3543 -0.0830
  613MOL0     C82657  -0.726   2.222   8.607 -0.6803  0.3695  0.0900
  613MOL0     C82658  -0.850   2.287   8.566 -0.1161  0.0035  0.0145
  613MOL0     C82659  -0.931   2.199   8.478  0.6524  0.3968 -0.3880
  613MOL0     C82660  -1.075   2.256   8.466  0.3817  0.6953  0.3264
  613MOL0     C82661  -1.161   2.208   8.347 -0.2048  0.2704 -0.5488
  613MOL0     C82662  -1.306   2.228   8.368  0.9948  0.1648 -0.2613
  613MOL0     C82663  -1.381   2.217   8.235  0.5374 -0.0449  0.3332
  613MOL0     C82664  -1.533   2.213   8.246  0.8574  0.6943  0.4578
  613MOL0    Cl82665  -1.593   2.084   8.355 -0.1313  0.2455 -0.0488
  613MOL0     C82666  -0.435   2.288   8.532  0.2895 -0.9972  0.3156
  613MOL0     C82667  -0.306   2.246   8.524 -0.2123 -0.9336 -0.8786
  613MOL0     O82668  -0.169   1.966   8.589  1.0023  1.3098 -0.1928
  613MOL0     C82669   0.157   2.121   8.604  0.4377 -0.0348 -0.4709
  613MOL0     C82670   0.301   2.096   8.605  0.0316 -0.4236 -0.5566
  613MOL0     N82671   0.568   1.878   8.116  0.3228 -0.0801  0.1699
  613MOL0     N82672   0.511   1.882   7.997 -0.8355  1.4717  0.5759
  613MOL0     C82673   0.869   2.239   7.005 -0.2728 -0.3505 -0.5071
  613MOL0     C82674   1.012   2.243   6.988  0.2053  1.0152  0.5610
  613MOL0     C82675   1.439   2.127   7.022  0.6203 -0.1595 -0.4218
  613MOL0     C82676   1.502   2.169   6.908  0.4379  0.0141 -0.2675
  613MOL0     C82677   1.637   2.181   6.887 -0.1500  0.5626 -0.2107
  613MOL0     C82678   1.726   2.149   6.990 -0.7224  0.1164  0.6939
  613MOL0     O82679   1.862   2.144   6.980 -1.0444 -0.2009  0.0098
  613MOL0     C82680   1.917   2.226   6.885  0.0010  0.8164 -1.0069
  613MOL0     C82681   2.061   2.183   6.871 -0.2746 -0.0609  0.3093
  613MOL0     C82682   2.127   2.286   6.774 -1.1134  1.0166 -0.5885
  613MOL0     C82683   2.054   2.303   6.637  0.9740  0.2264  0.8249
  613MOL0     C82684   2.009   2.442   6.620 -1.2479  0.1619 -0.2052
  613MOL0     C82685   2.003   2.560   6.596  0.7546  0.3372  0.3312
  613MOL0     C82686   1.666   2.092   7.104  0.7141  0.5138  0.0934
  613MOL0     C82687   1.530   2.098   7.128  1.8302  1.1905  0.1382
  613MOL0     H82688   1.075   1.943   6.849  0.7702  1.1993 -0.7116
  613MOL0     H82689   0.824   1.921   6.874  0.7473 -1.7354  0.6134
  613MOL0     H82690   0.597   1.934   6.942 -1.9686 -0.7942  1.5650
  613MOL0     H82691   0.713   1.923   7.076  0.0933  0.2528 -0.3557
  613MOL0     H82692   0.437   2.078   7.105 -2.3668 -1.9370  0.5842
  613MOL0     H82693   0.433   1.910   7.086  0.3115 -1.5951 -0.2597
  613MOL0     H82694   0.447   1.927   7.314  1.0503 -2.2306 -0.4956
  613MOL0     H82695   0.625   1.933   7.293 -0.7163 -0.2284  0.3825
  613MOL0     H82696   0.616   2.171   7.268 -2.2787  1.3405 -1.7925
  613MOL0     H82697   0.449   2.179   7.297 -1.8831 -1.8302 -1.4699
  613MOL0     H82698   0.649   2.038   7.478 -2.5608 -1.5616 -4.6652
  613MOL0     H82699   0.626   2.219   7.492  1.3966 -1.3917  0.8837
  613MOL0     H82700   0.392   2.142   7.584  2.1056  2.0607  3.0312
  613MOL0     H82701   0.430   1.974   7.546 -1.4565  0.7980  0.6682
  613MOL0     H82702   0.604   2.156   7.724  2.9976 -2.3810 -2.0548
  613MOL0     H82703   0.458   2.113   7.790  0.8249  2.0072 -0.1184
  613MOL0     H82704   0.678   1.927   7.703  0.2718 -1.4819  2.4983
  613MOL0     H82705   0.504   1.876   7.721 -1.4846  3.1201 -1.8165
  613MOL0     H82706   0.798   2.033   7.939  2.0323 -2.6980  2.3731
  613MOL0     H82707   0.827   1.865   8.247 -0.0256  0.5095 -0.9453
  613MOL0     H82708   0.862   2.025   8.168 -0.6264 -0.3089 -1.4002
  613MOL0     H82709   0.694   2.133   8.311 -0.0497  0.0441 -2.3056
  613MOL0     H82710   0.804   2.042   8.415  0.8014  2.0653 -1.4238
  613MOL0     H82711   0.669   1.854   8.431 -1.8298 -1.3634  0.4703
  613MOL0     H82712   0.535   1.937   8.352  0.7621 -2.1466 -0.7579
  613MOL0     H82713   0.580   2.115   8.551  4.5801  0.7262  1.5965
  613MOL0     H82714   0.687   2.003   8.616 -0.7723  1.4635  1.7985
  613MOL0     H82715   0.287   1.763   8.548  0.1047 -0.0807  2.6379
  613MOL0     H82716  -0.047   1.802   8.455 -0.1341  0.9784  0.0235
  613MOL0     H82717   0.077   1.685   8.495  0.7510  0.3776 -1.1684
  613MOL0     H82718  -0.030   1.746   8.614 -0.4861  3.3153 -0.2000
  613MOL0     H82719  -0.246   2.221   8.861 -0.2973 -0.9286 -0.5221
  613MOL0     H82720  -0.475   2.278   8.872  3.0777  0.7170  1.8464
  613MOL0     H82721  -0.688   2.178   8.514  0.1601 -0.8536  0.9889
  613MOL0     H82722  -0.745   2.147   8.684 -1.8444 -1.3500 -1.7789
  613MOL0     H82723  -0.912   2.318   8.651  0.9169  3.9756 -0.4530
  613MOL0     H82724  -0.835   2.382   8.514 -0.7642 -0.0245 -0.2382
  613MOL0     H82725  -0.941   2.098   8.519  4.8925  0.5005  1.4330
  613MOL0     H82726  -0.876   2.195   8.383  0.0917 -1.6990 -0.6903
  613MOL0     H82727  -1.117   2.223   8.561 -1.9690  0.0475 -0.8769
  613MOL0     H82728  -1.072   2.365   8.461 -1.1882  0.7006 -1.6049
  613MOL0     H82729  -1.144   2.101   8.328 -5.0843 -0.9099  0.3533
  613MOL0     H82730  -1.123   2.244   8.252  0.8388  0.7802  0.0381
  613MOL0     H82731  -1.338   2.143   8.429  0.5750  1.1163  0.8914
  613MOL0     H82732  -1.324   2.321   8.423 -2.4000 -0.1931 -0.5405
  613MOL0     H82733  -1.347   2.130   8.179 -1.5864 -0.9959  0.4520
  613MOL0     H82734  -1.366   2.309   8.177 -1.3111  2.0975  2.9660
  613MOL0     H82735  -1.588   2.204   8.151  2.6931 -0.5049 -0.5376
  613MOL0     H82736  -1.571   2.307   8.289 -1.4917 -0.6432  1.4868
  613MOL0     H82737  -0.491   2.302   8.440 -0.6740 -1.3674  0.8336
  613MOL0     H82738  -0.258   2.212   8.433 -0.1605  0.4150 -1.3764
  613MOL0     H82739   0.131   2.226   8.606  0.1761 -0.0936 -0.8401
  613MOL0     H82740   0.364   2.184   8.611 -0.5764 -0.1166  3.1429
  613MOL0     H82741   0.821   2.318   7.061 -0.3881  0.1110 -1.2465
  613MOL0     H82742   1.064   2.331   7.025 -2.5525  3.1989 -0.4535
  613MOL0     H82743   1.442   2.202   6.824 -3.0982 -1.4971  1.4587
  613MOL0     H82744   1.673   2.244   6.806 -1.9496  0.3150 -1.2565
  613MOL0     H82745   1.873   2.218   6.785 -2.2472  1.8230 -0.1779
  613MOL0     H82746   1.912   2.327   6.927  1.3336  1.0595 -1.3971
  613MOL0     H82747   2.063   2.085   6.821 -0.7881 -1.0957  2.2221
  613MOL0     H82748   2.110   2.159   6.966  1.4058 -2.2121 -0.9994
  613MOL0     H82749   2.233   2.258   6.773 -1.1067  0.8342  1.3148
  613MOL0     H82750   2.133   2.380   6.828 -1.2251  0.9335 -0.4294
  613MOL0     H82751   1.975   2.229   6.621  2.0635 -1.4400  2.7314
  613MOL0     H82752   2.137   2.284   6.569  1.7450  2.4860  1.0381
  613MOL0     H82753   1.998   2.667   6.591  0.3909  0.3251  0.3982
  613MOL0     H82754   1.725   2.048   7.184 -0.8584 -3.4494 -0.7276
  613MOL0     H82755   1.498   2.044   7.217  1.9097  1.7969  0.5369
  614MOL0     O82756  10.006  10.058   4.570  0.3161  0.5128  0.3366
  614MOL0     C82757  10.037   9.953   4.520 -0.0835  0.6073 -0.1541
  614MOL0     O82758   9.977   9.829   4.534 -0.7518 -0.3345 -0.0249
  614MOL0     C82759   9.850   9.819   4.588 -0.0764  0.1605  0.1295
  614MOL0     C82760   9.751   9.909   4.570 -0.1715  0.7626 -0.3918
  614MOL0     C82761   9.625   9.890   4.635 -0.1110  0.1092 -0.1259
  614MOL0     C82762   9.597   9.767   4.700  0.5116 -0.3019 -0.0383
  614MOL0     O82763   9.484   9.728   4.767 -0.3125 -0.0749  0.2192
  614MOL0     C82764   9.370   9.812   4.782  1.0556 -0.0640  0.3772
  614MOL0     C82765   9.271   9.770   4.896  0.2947 -0.6037  0.6611
  614MOL0     C82766   9.283   9.623   4.924  0.2508 -0.3842  0.9956
  614MOL0     C82767   9.250   9.524   4.807  0.3935 -0.7202  0.7345
  614MOL0     C82768   9.243   9.389   4.866 -0.0640 -0.0892 -0.2766
  614MOL0     C82769   9.213   9.289   4.757  1.1851  0.2358 -0.3622
  614MOL0     C82770   9.249   9.152   4.803  0.7989 -0.3384 -0.7693
  614MOL0     C82771   9.189   9.081   4.921 -0.0630  0.0403 -0.5075
  614MOL0     N82772   9.045   9.080   4.905  0.5318  0.4451 -0.1884
  614MOL0     C82773   8.967   8.982   4.853  0.6237  0.0549 -0.7637
  614MOL0     C82774   8.838   9.010   4.884  0.7441 -0.1570 -0.3862
  614MOL0     C82775   8.717   8.927   4.842 -0.2800 -0.5837  0.8648
  614MOL0     C82776   8.682   8.947   4.698  0.3356  0.7518  0.3121
  614MOL0     C82777   8.548   8.877   4.669  0.3403  0.3194  1.1418
  614MOL0     C82778   8.557   8.732   4.632 -0.1195 -0.4298 -0.3414
  614MOL0     O82779   8.424   8.700   4.620  0.2172 -0.1389 -0.0714
  614MOL0     C82780   8.361   8.717   4.498 -0.3312  0.6973 -0.0699
  614MOL0     C82781   8.434   8.750   4.378  0.2508  0.5421 -0.4406
  614MOL0     C82782   8.362   8.772   4.253 -0.1602 -0.0004  0.7597
  614MOL0     C82783   8.434   8.810   4.133 -0.7221  0.0513  0.3499
  614MOL0     C82784   8.221   8.774   4.257  0.5130  0.8547 -0.6421
  614MOL0     C82785   8.128   8.804   4.146  0.0150  0.4861  0.3182
  614MOL0     O82786   8.000   8.849   4.171 -0.7644  0.6794  0.9062
  614MOL0     C82787   7.894   8.826   4.083 -0.2557  0.3285  0.6113
  614MOL0     C82788   7.905   8.837   3.941 -0.5754  0.1903 -0.8984
  614MOL0     C82789   7.788   8.829   3.865  0.1832 -0.0488  0.4031
  614MOL0     C82790   7.665   8.813   3.921  0.4587 -0.5256 -0.9960
  614MOL0     O82791   7.557   8.816   3.841  0.4358 -0.4380 -0.5154
  614MOL0     C82792   7.436   8.884   3.896  0.2245  0.9884 -0.2723
  614MOL0     C82793   7.327   8.828   3.804 -0.2099 -0.1239 -0.6629
  614MOL0     C82794   7.182   8.855   3.841 -0.5415 -0.1090 -0.9727
  614MOL0     C82795   7.072   8.823   3.740 -0.7028  0.0472  0.6817
  614MOL0     C82796   6.957   8.920   3.764 -1.0680 -0.3746  0.3888
  614MOL0     C82797   6.966   9.047   3.686 -0.6663 -0.0922  0.4806
  614MOL0     C82798   6.854   9.142   3.712 -0.4691  0.0304 -0.0474
  614MOL0     C82799   6.714   9.091   3.677  0.3596  0.4425 -0.1311
  614MOL0    Cl82800   6.612   9.233   3.689  0.4013 -0.4519  0.1876
  614MOL0     C82801   7.647   8.800   4.057  1.0702 -0.1232 -0.8167
  614MOL0     C82802   7.768   8.807   4.132  0.1643 -0.4367 -0.5464
  614MOL0     O82803   8.173   8.787   4.032 -0.4305  0.4767 -0.6220
  614MOL0     C82804   8.156   8.745   4.379 -0.9134 -0.3451  0.4467
  614MOL0     C82805   8.224   8.715   4.492  0.7220  0.1820  0.7908
  614MOL0     N82806   8.834   9.122   4.954 -0.0368 -1.1258 -1.1147
  614MOL0     N82807   8.959   9.169   4.962  0.5496 -0.1225 -0.3531
  614MOL0     C82808   9.696   9.670   4.704 -0.0265 -0.3107  0.1075
  614MOL0     C82809   9.819   9.698   4.645 -0.1630  0.3629  0.2030
  614MOL0     C82810  10.155   9.970   4.433  1.1843  1.2121 -1.3371
  614MOL0     C82811  10.237   9.859   4.393 -0.9011 -0.6724 -0.3801
  614MOL0     C82812  10.335   9.868   4.286 -0.1167 -0.1086  0.0359
  614MOL0     C82813  10.366  10.003   4.238  0.6906  0.1638 -0.1574
  614MOL0     O82814  10.463  10.040   4.149  0.0820 -0.1347  0.3566
  614MOL0     C82815  10.543   9.938   4.098 -0.0927  1.1673  0.0665
  614MOL0     C82816  10.653   9.994   4.013 -0.2449  0.0078 -0.2390
  614MOL0     C82817  10.726   9.891   3.934 -0.1692 -0.0962  0.0497
  614MOL0     C82818  10.864   9.944   3.877  0.5107  0.4091 -0.1779
  614MOL0     C82819  10.917   9.845   3.785 -0.0918 -0.4895  0.7232
  614MOL0     C82820  10.949   9.749   3.710  0.2092 -0.1787 -0.6506
  614MOL0     C82821  10.283  10.106   4.281 -0.1947  0.1233 -0.0966
  614MOL0     C82822  10.182  10.097   4.373 -0.8883  0.1020  0.6274
  614MOL0     H82823   9.763  10.010   4.533  0.1264  0.4188 -1.2665
  614MOL0     H82824   9.544   9.961   4.620  0.5043  0.3606 -2.9444
  614MOL0     H82825   9.397   9.916   4.803 -3.4193  0.7815  3.2953
  614MOL0     H82826   9.317   9.812   4.686 -0.5587  4.1928  1.0432
  614MOL0     H82827   9.304   9.811   4.991  1.6239  0.0996 -0.0725
  614MOL0     H82828   9.169   9.801   4.872  1.8733  2.9206 -2.6690
  614MOL0     H82829   9.388   9.602   4.945 -0.4165 -3.6808  1.5415
  614MOL0     H82830   9.217   9.605   5.009 -0.0905  1.8095  1.2682
  614MOL0     H82831   9.162   9.558   4.751  0.8358 -2.5354 -1.1805
  614MOL0     H82832   9.333   9.533   4.736  0.8711  4.5196  1.5110
  614MOL0     H82833   9.335   9.371   4.923 -1.8524  0.6883  3.1297
  614MOL0     H82834   9.167   9.394   4.945  2.5133  0.6052  2.3833
  614MOL0     H82835   9.109   9.296   4.726  0.3620 -1.8213  1.7016
  614MOL0     H82836   9.275   9.314   4.670 -0.4098 -0.1786 -1.6634
  614MOL0     H82837   9.247   9.081   4.720 -1.5523  0.0691 -1.1125
  614MOL0     H82838   9.357   9.150   4.823  0.9397 -1.9357 -1.4820
  614MOL0     H82839   9.210   9.134   5.014 -1.6094 -0.0413 -0.0933
  614MOL0     H82840   9.237   8.985   4.939 -1.1199 -0.2986  0.5961
  614MOL0     H82841   9.009   8.895   4.804  0.9432 -0.5865  0.5966
  614MOL0     H82842   8.741   8.825   4.872 -0.3285 -0.4639  1.3152
  614MOL0     H82843   8.629   8.957   4.899 -0.3198  0.5109  0.2624
  614MOL0     H82844   8.758   8.903   4.632  0.4143 -0.8698  1.4219
  614MOL0     H82845   8.668   9.054   4.681 -6.1012  0.6834  2.3833
  614MOL0     H82846   8.480   8.928   4.600 -1.6190 -2.6069  0.7347
  614MOL0     H82847   8.486   8.867   4.759 -0.6975  0.4750  0.4572
  614MOL0     H82848   8.601   8.677   4.715  1.2604 -0.6841 -1.2193
  614MOL0     H82849   8.619   8.701   4.547  1.0470 -2.0602  1.0471
  614MOL0     H82850   8.540   8.772   4.376  0.5437 -0.8015 -1.9400
  614MOL0     H82851   8.541   8.791   4.146 -0.5416  0.4347 -0.4852
  614MOL0     H82852   8.400   8.753   4.046  2.0052 -1.5637  0.2300
  614MOL0     H82853   8.422   8.917   4.112  0.6535 -0.0589 -1.1688
  614MOL0     H82854   7.996   8.866   3.890 -0.2390  1.8425  0.5665
  614MOL0     H82855   7.801   8.817   3.758 -0.5413 -1.0765  0.4164
  614MOL0     H82856   7.398   8.845   3.990  0.5311  0.2881 -0.4315
  614MOL0     H82857   7.440   8.993   3.897 -1.6019  1.0987  2.0516
  614MOL0     H82858   7.337   8.866   3.702  0.1180  2.6941  0.3320
  614MOL0     H82859   7.340   8.720   3.812  0.3336 -0.0030  0.2112
  614MOL0     H82860   7.170   8.960   3.872 -3.0325 -0.6703  0.2382
  614MOL0     H82861   7.166   8.789   3.927 -0.8142 -0.2075 -1.0968
  614MOL0     H82862   7.115   8.840   3.641  1.0240 -0.0946  1.3620
  614MOL0     H82863   7.047   8.717   3.748 -1.0551  0.0215 -0.6529
  614MOL0     H82864   6.938   8.954   3.866  1.2139  0.9897  0.4167
  614MOL0     H82865   6.866   8.869   3.732 -1.9725  0.8122  0.9645
  614MOL0     H82866   7.050   9.107   3.722  0.2097  0.4434 -2.2372
  614MOL0     H82867   6.982   9.029   3.579  2.6009 -2.1221  1.1639
  614MOL0     H82868   6.873   9.234   3.656  1.5084 -1.5734 -2.2138
  614MOL0     H82869   6.854   9.177   3.815  1.7835 -0.9890  0.3603
  614MOL0     H82870   6.690   9.012   3.749 -0.0566 -0.1856 -0.9374
  614MOL0     H82871   6.688   9.043   3.581  2.4008 -3.3293  0.9851
  614MOL0     H82872   7.550   8.801   4.106  2.3966  0.6743  1.9464
  614MOL0     H82873   7.767   8.813   4.240  1.1515 -0.3647 -0.5392
  614MOL0     H82874   8.048   8.749   4.382 -1.0275  1.6447 -2.6439
  614MOL0     H82875   8.163   8.700   4.580  2.0828  2.3795  2.2118
  614MOL0     H82876   9.681   9.575   4.754  1.4988  0.9883  3.2954
  614MOL0     H82877   9.894   9.620   4.642 -0.5951 -0.0606  0.3101
  614MOL0     H82878  10.232   9.762   4.442  1.8167  1.0395  3.9647
  614MOL0     H82879  10.394   9.779   4.269 -1.8269 -1.3053  0.1737
  614MOL0     H82880  10.579   9.880   4.184 -1.7683  0.2692  0.2159
  614MOL0     H82881  10.492   9.865   4.035 -0.3252  1.6458 -0.2986
  614MOL0     H82882  10.724  10.043   4.080  0.1584 -0.1362 -0.5609
  614MOL0     H82883  10.606  10.061   3.941  1.6819  1.7163  0.0108
  614MOL0     H82884  10.657   9.852   3.859 -1.8780 -0.6928  1.8290
  614MOL0     H82885  10.747   9.807   4.001  3.4825  0.5836 -0.0412
  614MOL0     H82886  10.935   9.961   3.959  0.8667  0.9081 -0.5839
  614MOL0     H82887  10.846  10.031   3.814 -0.4568 -0.6790 -1.4477
  614MOL0     H82888  10.978   9.660   3.659  0.0933 -0.8086  0.3414
  614MOL0     H82889  10.294  10.207   4.245 -3.8203  0.8005  0.3545
  614MOL0     H82890  10.124  10.182   4.408 -3.6114 -1.5194  0.3076
  615MOL0     O82891   9.608   3.295   5.379 -1.0031 -0.4817 -0.6923
  615MOL0     C82892   9.665   3.351   5.286  0.0692  0.3098 -0.4106
  615MOL0     O82893   9.603   3.385   5.173  0.2148 -0.0005  0.2196
  615MOL0     C82894   9.470   3.369   5.151 -0.7939 -1.0696  0.3715
  615MOL0     C82895   9.365   3.404   5.238  0.3923  0.9747 -0.1467
  615MOL0     C82896   9.233   3.376   5.216  0.4330 -0.1267  0.8172
  615MOL0     C82897   9.189   3.321   5.093  0.7019  0.1848  0.5132
  615MOL0     O82898   9.059   3.317   5.051  0.5034 -0.1890 -0.3970
  615MOL0     C82899   8.954   3.310   5.150 -0.6839 -0.1810 -0.3475
  615MOL0     C82900   8.823   3.322   5.080  0.1397  0.1305 -0.9817
  615MOL0     C82901   8.703   3.320   5.178  0.1272  0.0329 -0.1299
  615MOL0     C82902   8.567   3.362   5.129  0.0257 -0.4855  0.3778
  615MOL0     C82903   8.469   3.340   5.248 -0.2097 -0.1525  0.3716
  615MOL0     C82904   8.452   3.193   5.263  0.2733 -0.5571  0.5722
  615MOL0     C82905   8.301   3.170   5.319  0.8493  0.1219 -0.3806
  615MOL0     C82906   8.195   3.192   5.218  0.7581  0.0320 -0.4399
  615MOL0     N82907   8.065   3.126   5.246 -0.9425  0.4430 -0.6159
  615MOL0     C82908   7.978   3.158   5.344  0.1136 -0.0907 -0.6947
  615MOL0     C82909   7.888   3.054   5.349 -0.0486 -0.3976  0.1382
  615MOL0     C82910   7.762   3.052   5.432 -0.7085 -0.9050  0.9773
  615MOL0     C82911   7.740   2.927   5.511 -0.7692  0.1860 -0.0350
  615MOL0     C82912   7.672   2.944   5.651  0.0605  0.3427  1.0043
  615MOL0     C82913   7.628   2.810   5.713 -0.0082 -0.3928  0.7049
  615MOL0     O82914   7.499   2.777   5.665  1.0412  0.4803 -0.3400
  615MOL0     C82915   7.444   2.656   5.716 -0.0478  0.0620 -0.4370
  615MOL0     C82916   7.316   2.618   5.665 -0.4531  0.2505  0.8063
  615MOL0     C82917   7.248   2.502   5.698 -0.1996 -0.1171 -0.7173
  615MOL0     C82918   7.128   2.461   5.617  0.6593  0.1683 -0.0766
  615MOL0     C82919   7.303   2.440   5.815  0.5022 -0.1885  0.0010
  615MOL0     C82920   7.232   2.316   5.881  0.3588 -0.5603  0.3918
  615MOL0     O82921   7.123   2.254   5.821 -0.1037 -0.5932  0.5017
  615MOL0     C82922   7.068   2.136   5.864  0.0155 -0.4868  0.5740
  615MOL0     C82923   7.082   2.083   5.995  0.6818  0.1052  0.1281
  615MOL0     C82924   7.026   1.957   6.015  0.1900  0.1830 -0.1806
  615MOL0     C82925   6.958   1.883   5.915  0.0145 -0.2522 -0.6098
  615MOL0     O82926   6.916   1.757   5.945 -0.5625  0.1727  0.5022
  615MOL0     C82927   6.873   1.672   5.839 -0.0699  0.3208 -0.5464
  615MOL0     C82928   6.808   1.547   5.885 -0.1744 -0.3025  0.0332
  615MOL0     C82929   6.902   1.457   5.970  0.0696 -0.6470  0.0650
  615MOL0     C82930   6.990   1.376   5.873 -0.2480 -1.1469  0.1376
  615MOL0     C82931   7.045   1.262   5.950  0.1845  0.1504  0.1291
  615MOL0     C82932   7.133   1.171   5.862  0.7071 -0.3354  0.4786
  615MOL0     C82933   7.163   1.046   5.947  0.2750  0.3312 -0.2439
  615MOL0     C82934   7.271   0.969   5.863  0.3501  0.0723  0.4124
  615MOL0    Cl82935   7.433   1.058   5.862 -0.2352 -0.2561 -0.2950
  615MOL0     C82936   6.947   1.939   5.790 -0.3097  0.1653  0.3825
  615MOL0     C82937   6.998   2.062   5.764  0.0076 -0.7538 -0.0668
  615MOL0     O82938   7.286   2.266   5.976  0.7118  0.1098 -0.2023
  615MOL0     C82939   7.428   2.474   5.860 -0.0405 -0.0530 -0.1880
  615MOL0     C82940   7.495   2.580   5.814  0.1401 -0.9015  0.0794
  615MOL0     N82941   7.926   2.961   5.261  0.2848 -0.6566  1.1154
  615MOL0     N82942   8.031   3.008   5.197  0.7636 -0.0763 -0.1472
  615MOL0     C82943   9.288   3.312   4.992  0.2320  0.4630 -0.4622
  615MOL0     C82944   9.424   3.327   5.022 -0.8140  0.6201 -0.4304
  615MOL0     C82945   9.812   3.383   5.307  0.1385 -0.4478 -0.2790
  615MOL0     C82946   9.861   3.376   5.438 -0.5005  0.3066  0.0264
  615MOL0     C82947   9.997   3.402   5.458 -1.1885 -0.4157  0.0569
  615MOL0     C82948  10.082   3.436   5.349  0.2735  0.4435 -0.0374
  615MOL0     O82949  10.222   3.466   5.339  0.2566  0.1725  0.0903
  615MOL0     C82950  10.300   3.459   5.463  0.5479 -0.0241 -0.2680
  615MOL0     C82951  10.448   3.443   5.423  0.4746  0.3593 -0.8384
  615MOL0     C82952  10.496   3.562   5.337 -0.2273  0.2600 -0.6251
  615MOL0     C82953  10.636   3.541   5.282  0.6984 -0.2196  0.6506
  615MOL0     C82954  10.671   3.637   5.179  1.1428  0.4123  0.5096
  615MOL0     C82955  10.699   3.729   5.106  0.9922  0.0457 -0.0946
  615MOL0     C82956  10.033   3.436   5.221  0.3005  0.0964  0.2884
  615MOL0     C82957   9.896   3.412   5.193 -0.1479 -0.4439  0.2843
  615MOL0     H82958   9.385   3.451   5.334 -1.8005  1.8593 -0.0761
  615MOL0     H82959   9.156   3.411   5.285 -3.3912 -1.9186 -2.1936
  615MOL0     H82960   8.964   3.210   5.194 -0.7641  0.2709  0.7335
  615MOL0     H82961   8.968   3.394   5.220  0.7953  0.0826 -0.9324
  615MOL0     H82962   8.823   3.422   5.036  1.8239  1.0422  0.9620
  615MOL0     H82963   8.799   3.262   4.991 -1.2496  2.5384 -2.3348
  615MOL0     H82964   8.697   3.216   5.210 -0.7741  0.1056 -0.0489
  615MOL0     H82965   8.726   3.387   5.262  1.5382  0.8888 -1.1407
  615MOL0     H82966   8.569   3.466   5.096 -1.1950 -1.0112 -1.4883
  615MOL0     H82967   8.540   3.301   5.042  2.6208 -0.8426 -0.2518
  615MOL0     H82968   8.502   3.371   5.348  2.0543 -1.3421  0.0719
  615MOL0     H82969   8.373   3.382   5.217 -0.3276 -0.7591 -0.0956
  615MOL0     H82970   8.475   3.136   5.172  1.1986  1.2872 -0.3995
  615MOL0     H82971   8.521   3.157   5.340 -1.7240 -1.3802  2.0811
  615MOL0     H82972   8.300   3.063   5.342 -0.1865  0.4535  1.2838
  615MOL0     H82973   8.284   3.229   5.410  2.7737  0.2932 -0.0968
  615MOL0     H82974   8.238   3.181   5.117 -0.6304 -1.0658 -0.9406
  615MOL0     H82975   8.164   3.297   5.221 -0.6881 -0.4028  1.1727
  615MOL0     H82976   7.964   3.248   5.403 -3.5417 -1.4167  0.7773
  615MOL0     H82977   7.765   3.139   5.498  0.2618  1.1173 -1.5553
  615MOL0     H82978   7.673   3.075   5.372 -0.1664  2.1893  1.2201
  615MOL0     H82979   7.838   2.880   5.518 -0.0111  1.3572 -1.8697
  615MOL0     H82980   7.674   2.860   5.455 -1.1633  1.2813 -0.9166
  615MOL0     H82981   7.586   3.012   5.647  2.0552  2.9551  0.0008
  615MOL0     H82982   7.749   2.996   5.708  1.0023  0.4066 -0.2842
  615MOL0     H82983   7.639   2.810   5.821  3.0039  0.3120  0.4826
  615MOL0     H82984   7.700   2.735   5.681  0.9382  0.7431  0.0939
  615MOL0     H82985   7.272   2.684   5.591  0.9625  0.7877  0.4205
  615MOL0     H82986   7.143   2.514   5.522 -0.5341 -0.8802 -0.8833
  615MOL0     H82987   7.129   2.353   5.601  3.1868 -0.2127  1.8837
  615MOL0     H82988   7.033   2.480   5.667 -0.3771 -0.5837 -1.6805
  615MOL0     H82989   7.130   2.135   6.078 -0.1949  1.8962 -0.4507
  615MOL0     H82990   7.037   1.915   6.115  3.3880  0.5404 -0.2806
  615MOL0     H82991   6.788   1.719   5.788 -1.4668 -1.0139  0.4610
  615MOL0     H82992   6.950   1.649   5.764 -0.4247  0.6034 -1.0085
  615MOL0     H82993   6.729   1.569   5.958 -2.0984 -2.7531 -1.1424
  615MOL0     H82994   6.762   1.494   5.801 -0.8176 -0.0015  0.1829
  615MOL0     H82995   6.853   1.395   6.046 -0.6568  0.6517  0.6797
  615MOL0     H82996   6.963   1.526   6.029 -2.0644  2.8074 -1.4821
  615MOL0     H82997   6.931   1.326   5.796  2.1959 -1.3013 -1.7911
  615MOL0     H82998   7.069   1.436   5.825  2.0937 -3.9198  0.2468
  615MOL0     H82999   6.959   1.199   5.973 -0.6554  1.8084  1.8362
  615MOL0     H83000   7.089   1.293   6.045  0.9802 -1.1155  0.1959
  615MOL0     H83001   7.078   1.145   5.771 -1.9824 -0.5618  2.0584
  615MOL0     H83002   7.218   1.228   5.825 -0.9565  1.4058 -0.8896
  615MOL0     H83003   7.072   0.990   5.971  0.8150  0.0210  1.2154
  615MOL0     H83004   7.210   1.080   6.040  2.0370  0.2599 -1.0723
  615MOL0     H83005   7.243   0.957   5.758  3.1669 -0.9869 -0.3101
  615MOL0     H83006   7.293   0.873   5.911 -0.2659 -0.1238  0.3091
  615MOL0     H83007   6.894   1.880   5.716  0.7723 -2.1054  1.3045
  615MOL0     H83008   6.980   2.111   5.669  0.0290  0.0833  0.3584
  615MOL0     H83009   7.469   2.424   5.947 -0.4088 -2.0971 -1.1256
  615MOL0     H83010   7.588   2.593   5.869 -0.9771 -2.4884  2.5395
  615MOL0     H83011   9.256   3.285   4.891 -1.2951 -1.1049  0.3765
  615MOL0     H83012   9.502   3.298   4.952  0.0953 -1.3563  1.2977
  615MOL0     H83013   9.796   3.350   5.522 -0.3396 -2.9968 -0.7118
  615MOL0     H83014  10.049   3.398   5.553  1.5680  0.9940 -1.2797
  615MOL0     H83015  10.286   3.552   5.518  1.0646  0.8228 -1.5245
  615MOL0     H83016  10.259   3.378   5.525 -2.1665 -0.8758 -2.8815
  615MOL0     H83017  10.455   3.345   5.375 -2.7302 -0.5696  0.3506
  615MOL0     H83018  10.509   3.440   5.514  1.2665 -2.2837 -1.3462
  615MOL0     H83019  10.494   3.658   5.389  3.7055 -0.9299  2.2897
  615MOL0     H83020  10.432   3.568   5.249 -1.4025  2.4001  0.3074
  615MOL0     H83021  10.647   3.443   5.234 -1.7719 -0.1731 -0.1566
  615MOL0     H83022  10.713   3.552   5.359 -0.0944 -3.6341  2.1220
  615MOL0     H83023  10.713   3.822   5.055  1.1798  2.4155  3.8384
  615MOL0     H83024  10.102   3.432   5.138  3.5759  3.1079  2.5589
  615MOL0     H83025   9.850   3.418   5.095 -0.3165  0.0255  0.3914
  616MOL0     O83026   5.629   6.040  10.655 -0.2264  0.3856 -1.0384
  616MOL0     C83027   5.658   5.992  10.768  1.1994 -0.5242  0.5767
  616MOL0     O83028   5.569   5.943  10.857 -0.6694  0.2749  0.0001
  616MOL0     C83029   5.435   5.946  10.817 -0.0985  0.0806  0.2883
  616MOL0     C83030   5.367   6.072  10.808  0.1150  0.2328 -0.0580
  616MOL0     C83031   5.232   6.079  10.780  0.9511 -0.0894 -0.5433
  616MOL0     C83032   5.159   5.968  10.742 -0.4870  0.7332  0.1130
  616MOL0     O83033   5.028   5.993  10.730 -0.1771 -0.3758  0.1994
  616MOL0     C83034   4.939   5.884  10.720  0.2452  0.0712  0.4159
  616MOL0     C83035   4.796   5.933  10.709 -0.1125  0.1417  0.2974
  616MOL0     C83036   4.747   5.936  10.565 -0.3198  0.7050  0.0473
  616MOL0     C83037   4.592   5.920  10.546 -0.7061  0.1177 -0.0253
  616MOL0     C83038   4.541   5.908  10.395 -0.3764 -0.1232 -0.5537
  616MOL0     C83039   4.620   5.994  10.301 -0.0727 -0.6331  0.3403
  616MOL0     C83040   4.556   5.985  10.164  0.4692 -0.4727 -0.2030
  616MOL0     C83041   4.646   6.036  10.053 -0.0817 -0.8235 -0.5727
  616MOL0     N83042   4.678   6.179  10.065 -0.6177 -0.0040 -0.5461
  616MOL0     C83043   4.783   6.230  10.134 -0.7827 -0.5541 -0.0347
  616MOL0     C83044   4.798   6.355  10.094  0.0427 -0.1986  0.1656
  616MOL0     C83045   4.919   6.441  10.124 -0.4141 -0.5415 -0.4430
  616MOL0     C83046   4.893   6.588  10.100  0.2422 -0.7618 -0.1081
  616MOL0     C83047   4.918   6.620   9.954 -0.1013  0.7396  0.6039
  616MOL0     C83048   4.920   6.775   9.940 -0.1101  0.1582 -0.3445
  616MOL0     O83049   4.804   6.837   9.996 -0.3247  0.6304  0.7462
  616MOL0     C83050   4.690   6.830   9.921  0.4768 -0.3713 -0.1313
  616MOL0     C83051   4.650   6.933   9.826 -0.0312 -0.0176  0.1020
  616MOL0     C83052   4.517   6.935   9.772 -0.7223  0.3916 -0.5526
  616MOL0     C83053   4.490   7.039   9.668  0.4197  0.0263  0.0454
  616MOL0     C83054   4.427   6.831   9.800 -0.0652 -0.0747 -0.1910
  616MOL0     C83055   4.282   6.825   9.764  0.0858  0.6190  0.0259
  616MOL0     O83056   4.229   6.703   9.770  0.3536 -0.5647 -0.2447
  616MOL0     C83057   4.108   6.670   9.717  0.4874 -0.1692  0.1788
  616MOL0     C83058   4.039   6.563   9.781 -0.9031  0.2765 -0.4236
  616MOL0     C83059   3.911   6.527   9.746  0.5195 -0.8921 -0.3352
  616MOL0     C83060   3.854   6.591   9.634 -0.0640  0.5700  0.0934
  616MOL0     O83061   3.741   6.531   9.596  0.1196  0.0728 -0.1615
  616MOL0     C83062   3.636   6.617   9.553 -0.0593  0.2222 -0.1444
  616MOL0     C83063   3.504   6.545   9.608  0.3021 -1.0609  0.3319
  616MOL0     C83064   3.483   6.577   9.754 -0.1337  0.6342 -0.2464
  616MOL0     C83065   3.368   6.492   9.822 -0.2197  0.0446  0.6659
  616MOL0     C83066   3.242   6.574   9.831 -0.3625  1.3682  0.4120
  616MOL0     C83067   3.129   6.477   9.880  0.2034 -0.1605 -0.1838
  616MOL0     C83068   2.995   6.561   9.890 -0.8159  0.9124  0.3351
  616MOL0     C83069   2.865   6.487   9.873  1.0811 -0.4455  0.6978
  616MOL0    Cl83070   2.879   6.323   9.959 -0.2171  0.1899  0.3958
  616MOL0     C83071   3.910   6.703   9.569 -0.4268  0.2435 -0.6594
  616MOL0     C83072   4.043   6.744   9.607 -0.5524  0.0044  0.3135
  616MOL0     O83073   4.222   6.924   9.723  0.1146 -0.1185  0.0860
  616MOL0     C83074   4.469   6.724   9.876 -0.4414 -0.1884 -0.1597
  616MOL0     C83075   4.594   6.735   9.948  0.7797  0.6708 -0.2472
  616MOL0     N83076   4.698   6.384  10.006 -0.2060 -0.6966 -0.1821
  616MOL0     N83077   4.621   6.282   9.996 -0.0047 -0.2583  0.2555
  616MOL0     C83078   5.228   5.846  10.758 -0.0741 -0.2717  0.0799
  616MOL0     C83079   5.360   5.836  10.787  0.6579 -0.0083  0.5437
  616MOL0     C83080   5.806   5.996  10.800  0.5561  0.2305  0.4850
  616MOL0     C83081   5.895   6.068  10.730 -0.0749 -0.1471 -0.1264
  616MOL0     C83082   6.034   6.081  10.764  0.0335  0.6993 -0.3026
  616MOL0     C83083   6.077   6.007  10.872 -1.3249 -0.0537  0.2789
  616MOL0     O83084   6.206   5.996  10.921 -0.1673 -0.0284 -0.4050
  616MOL0     C83085   6.318   6.055  10.843  0.0514 -0.4423 -0.4537
  616MOL0     C83086   6.346   6.201  10.888  0.9865 -0.3652 -0.1029
  616MOL0     C83087   6.388   6.199  11.036 -0.6408  0.3164 -0.6734
  616MOL0     C83088   6.328   6.320  11.111 -0.1746  0.5056  0.9802
  616MOL0     C83089   6.346   6.315  11.258 -0.1168 -0.0974 -0.2200
  616MOL0     C83090   6.348   6.327  11.375  0.1165  0.2647  0.4549
  616MOL0     C83091   5.986   5.933  10.948 -0.1501 -0.1932  0.4931
  616MOL0     C83092   5.849   5.925  10.912 -0.1805 -0.1412 -0.2352
  616MOL0     H83093   5.415   6.167  10.828 -1.8883  1.3242 -0.1397
  616MOL0     H83094   5.184   6.176  10.772  1.7793  0.4082  0.3295
  616MOL0     H83095   4.960   5.826  10.630  0.2532 -0.2314  0.6112
  616MOL0     H83096   4.944   5.811  10.801 -1.0569  1.5612  1.9134
  616MOL0     H83097   4.731   5.872  10.772 -1.4808 -0.7479 -1.8685
  616MOL0     H83098   4.791   6.034  10.752  0.4177  1.0253 -1.6141
  616MOL0     H83099   4.780   6.034  10.529 -1.0448  0.1615 -2.3373
  616MOL0     H83100   4.790   5.857  10.502 -4.4712 -2.2581  0.4907
  616MOL0     H83101   4.561   5.823  10.586  0.3424 -0.2220  0.0016
  616MOL0     H83102   4.546   6.005  10.598  0.9704  0.7986  0.4293
  616MOL0     H83103   4.544   5.800  10.374 -3.3010 -0.6398  1.0807
  616MOL0     H83104   4.437   5.935  10.379 -0.3542 -0.5462 -1.4840
  616MOL0     H83105   4.632   6.097  10.333 -1.5814 -0.7379  1.3762
  616MOL0     H83106   4.725   5.963  10.300  0.8729  2.2904  0.3098
  616MOL0     H83107   4.555   5.879  10.138 -1.4080  0.0723 -2.7458
  616MOL0     H83108   4.457   6.031  10.151 -0.6605 -2.6775  0.0817
  616MOL0     H83109   4.588   6.016   9.962  0.8038 -0.3900 -1.2489
  616MOL0     H83110   4.741   5.981  10.055 -0.4913 -1.5310  0.4963
  616MOL0     H83111   4.855   6.173  10.192  0.5964  0.3262 -0.8098
  616MOL0     H83112   4.948   6.419  10.227 -0.3998  3.3708  0.5698
  616MOL0     H83113   4.999   6.403  10.060  0.5661 -1.6659  1.3636
  616MOL0     H83114   4.967   6.649  10.151  1.3205  0.7888 -3.2470
  616MOL0     H83115   4.790   6.613  10.127 -0.2110 -1.0009 -1.5062
  616MOL0     H83116   4.850   6.577   9.880  1.5257  2.0157 -1.7824
  616MOL0     H83117   5.016   6.586   9.920 -1.1606 -0.3963 -1.5322
  616MOL0     H83118   4.920   6.808   9.836 -2.3349 -0.7481 -0.6887
  616MOL0     H83119   5.016   6.817   9.974 -1.0748  0.6211  2.0407
  616MOL0     H83120   4.711   7.021   9.806 -1.0862  0.4050 -1.4577
  616MOL0     H83121   4.581   7.070   9.616  0.9714 -0.3078  0.8055
  616MOL0     H83122   4.436   6.997   9.582  0.9664  1.1338 -0.8830
  616MOL0     H83123   4.439   7.125   9.714 -0.9088 -1.7024  1.9867
  616MOL0     H83124   4.090   6.513   9.863  2.4970  0.2167 -2.3939
  616MOL0     H83125   3.853   6.452   9.800 -0.4476 -2.1218 -2.9197
  616MOL0     H83126   3.632   6.717   9.596 -0.0364  0.1557  0.0161
  616MOL0     H83127   3.637   6.620   9.444  0.2221 -1.4965 -0.2255
  616MOL0     H83128   3.425   6.573   9.538  1.0824 -2.3334 -1.1086
  616MOL0     H83129   3.523   6.438   9.595 -2.2076 -1.8654  2.3807
  616MOL0     H83130   3.448   6.680   9.762 -3.3773 -0.3614  0.2288
  616MOL0     H83131   3.570   6.563   9.819 -2.0248  2.1128  2.8491
  616MOL0     H83132   3.363   6.399   9.765 -0.3141  0.8528 -0.6807
  616MOL0     H83133   3.405   6.460   9.921 -0.4853 -1.2557  0.3621
  616MOL0     H83134   3.228   6.616   9.731  2.4789  0.4779 -0.4804
  616MOL0     H83135   3.258   6.651   9.907  0.2102  0.9454  0.7310
  616MOL0     H83136   3.127   6.394   9.809 -2.9014 -0.5454  0.2050
  616MOL0     H83137   3.150   6.436   9.979  0.9311 -0.7360 -0.5629
  616MOL0     H83138   2.991   6.637   9.811 -2.0684 -2.4514 -3.1789
  616MOL0     H83139   2.988   6.609   9.988  0.2104  1.4949  0.1381
  616MOL0     H83140   2.852   6.475   9.765  0.6614  1.2363  0.5367
  616MOL0     H83141   2.783   6.550   9.909 -1.1408 -2.7947  0.0667
  616MOL0     H83142   3.856   6.755   9.491 -0.2481 -0.8817 -1.5627
  616MOL0     H83143   4.091   6.825   9.553  1.8945 -0.8542  1.0943
  616MOL0     H83144   4.401   6.644   9.904 -0.0911 -1.2050 -2.0665
  616MOL0     H83145   4.624   6.650  10.008 -0.6270  1.3233  1.4727
  616MOL0     H83146   5.172   5.754  10.742  1.3305 -0.4727 -5.1890
  616MOL0     H83147   5.398   5.736  10.800 -1.2942 -0.9556 -0.5681
  616MOL0     H83148   5.857   6.114  10.640  0.7206 -1.7573 -1.3399
  616MOL0     H83149   6.089   6.151  10.702  0.5093  0.8540  0.2817
  616MOL0     H83150   6.402   5.985  10.849  1.1094  0.7399 -0.9331
  616MOL0     H83151   6.299   6.056  10.735  2.4203 -1.1310 -0.9295
  616MOL0     H83152   6.254   6.257  10.868  1.7964  1.3401  0.7387
  616MOL0     H83153   6.425   6.245  10.826  0.5135 -0.6881 -0.9541
  616MOL0     H83154   6.497   6.198  11.037 -0.4402  2.9117 -4.0751
  616MOL0     H83155   6.358   6.112  11.095 -1.9971  0.0015 -1.7725
  616MOL0     H83156   6.220   6.332  11.098 -0.0888  3.4191  2.2768
  616MOL0     H83157   6.379   6.410  11.076  2.0375  0.7086  4.3549
  616MOL0     H83158   6.356   6.337  11.481  0.7872 -3.8431  0.9904
  616MOL0     H83159   6.025   5.878  11.033  0.6735 -0.5402 -0.1017
  616MOL0     H83160   5.781   5.870  10.977 -1.8404  1.4145 -0.5769
  617MOL0     O83161   8.391   0.742   6.331 -0.3464 -0.2806  0.5450
  617MOL0     C83162   8.423   0.742   6.212  0.3828  0.1809  0.5977
  617MOL0     O83163   8.368   0.653   6.129  0.1951 -0.4480  0.0967
  617MOL0     C83164   8.252   0.595   6.165 -0.1148  0.4690 -0.3926
  617MOL0     C83165   8.256   0.455   6.182  0.2981  1.0059 -0.4126
  617MOL0     C83166   8.129   0.391   6.215 -0.7590 -0.3829 -0.5896
  617MOL0     C83167   8.005   0.454   6.210  0.0095 -0.3180  0.3961
  617MOL0     O83168   7.882   0.402   6.211  0.3486 -0.4295 -0.0736
  617MOL0     C83169   7.878   0.275   6.156  0.7832  0.8232  0.9673
  617MOL0     C83170   7.741   0.246   6.098  0.1633  0.3255  0.2114
  617MOL0     C83171   7.636   0.238   6.209 -0.0927  0.1193 -0.3123
  617MOL0     C83172   7.500   0.232   6.145 -0.0961 -0.5065 -0.5951
  617MOL0     C83173   7.398   0.232   6.257 -0.6739  0.5573  0.3166
  617MOL0     C83174   7.257   0.256   6.197  0.6999 -0.0942 -0.9881
  617MOL0     C83175   7.137   0.270   6.305  0.1926 -0.9687 -0.1044
  617MOL0     C83176   7.012   0.314   6.228  0.4590  0.6172 -0.1064
  617MOL0     N83177   6.923   0.382   6.319  0.1213 -0.5545 -0.8076
  617MOL0     C83178   6.837   0.317   6.403  0.1191 -0.1975 -0.3545
  617MOL0     C83179   6.752   0.407   6.455 -0.2696 -0.3157  1.1230
  617MOL0     C83180   6.638   0.370   6.548 -0.1926  0.8574 -0.1744
  617MOL0     C83181   6.505   0.361   6.482 -0.7295 -0.4382 -0.0690
  617MOL0     C83182   6.394   0.281   6.551  0.6635  0.1436  0.7765
  617MOL0     C83183   6.400   0.132   6.541 -0.0079  0.3780 -0.2048
  617MOL0     O83184   6.345   0.087   6.418  0.2378  0.2711  0.1011
  617MOL0     C83185   6.367  -0.045   6.391 -0.6290  0.4205 -0.0416
  617MOL0     C83186   6.427  -0.143   6.474  0.8348  0.3780  0.4662
  617MOL0     C83187   6.430  -0.283   6.445  0.9500  0.4639 -0.7589
  617MOL0     C83188   6.504  -0.366   6.544  0.8686  0.2098 -0.1545
  617MOL0     C83189   6.363  -0.333   6.327  0.5225  0.5706  0.9048
  617MOL0     C83190   6.347  -0.477   6.289  0.5544  0.0376  0.3332
  617MOL0     O83191   6.442  -0.557   6.349 -0.8719  0.7863  0.3027
  617MOL0     C83192   6.430  -0.694   6.338 -0.8248 -0.4574 -0.8840
  617MOL0     C83193   6.416  -0.768   6.459  0.0631 -0.6145 -0.0133
  617MOL0     C83194   6.421  -0.907   6.459  1.0328  0.6185  0.3453
  617MOL0     C83195   6.429  -0.982   6.340 -0.5199 -0.0112  0.1859
  617MOL0     O83196   6.409  -1.119   6.344 -0.6673 -0.2679 -0.7748
  617MOL0     C83197   6.353  -1.181   6.235 -0.1575  0.5442  0.2459
  617MOL0     C83198   6.330  -1.332   6.264  0.2033  0.4839  0.4610
  617MOL0     C83199   6.231  -1.341   6.380  0.2666 -0.1859  0.6828
  617MOL0     C83200   6.282  -1.426   6.498  0.6926  1.0953 -0.3258
  617MOL0     C83201   6.379  -1.372   6.594 -0.4980 -0.3567 -0.0618
  617MOL0     C83202   6.361  -1.436   6.730  0.0266  1.4711 -1.2371
  617MOL0     C83203   6.351  -1.595   6.730  0.4263 -0.1139 -0.4513
  617MOL0     C83204   6.484  -1.655   6.710  0.1379 -0.0609  0.0724
  617MOL0    Cl83205   6.475  -1.837   6.698  0.4520 -0.0634  0.3480
  617MOL0     C83206   6.450  -0.904   6.220  0.0861 -0.1676  0.3463
  617MOL0     C83207   6.454  -0.764   6.227  0.0445  0.4429  1.0904
  617MOL0     O83208   6.269  -0.509   6.202 -0.0235  0.7542  0.1648
  617MOL0     C83209   6.309  -0.227   6.242  0.0865  0.3989  0.0939
  617MOL0     C83210   6.305  -0.090   6.275  0.3889 -0.0753 -0.1209
  617MOL0     N83211   6.794   0.532   6.408 -1.1081  0.1495 -0.1928
  617MOL0     N83212   6.889   0.511   6.320 -0.3493  0.0269  0.4406
  617MOL0     C83213   8.011   0.594   6.181  0.5355 -0.3165 -0.0229
  617MOL0     C83214   8.130   0.662   6.154 -0.0394 -0.5593 -0.7837
  617MOL0     C83215   8.539   0.824   6.167 -0.3359  0.6502 -0.2176
  617MOL0     C83216   8.559   0.848   6.027  0.2462  0.2846  0.1200
  617MOL0     C83217   8.667   0.906   5.977  0.2059  0.3002  0.1754
  617MOL0     C83218   8.753   0.974   6.070 -0.0599  0.3490  0.6475
  617MOL0     O83219   8.854   1.049   6.012 -0.0331  0.6377  0.1296
  617MOL0     C83220   8.920   1.151   6.083 -0.3469  0.1913 -0.2263
  617MOL0     C83221   9.039   1.091   6.162  0.1121 -0.3329 -0.1560
  617MOL0     C83222   9.176   1.063   6.087 -0.2854  0.2406 -0.3579
  617MOL0     C83223   9.287   1.012   6.184  0.1967  0.1994  0.1071
  617MOL0     C83224   9.313   1.115   6.287  0.1861 -0.3778  0.3805
  617MOL0     C83225   9.340   1.191   6.368  1.0717 -0.0436  0.0569
  617MOL0     C83226   8.722   0.967   6.210  0.0950 -0.4771 -0.0589
  617MOL0     C83227   8.628   0.879   6.256  0.7209  0.4539 -0.4071
  617MOL0     H83228   8.349   0.402   6.199 -0.4389  0.8515  4.7257
  617MOL0     H83229   8.129   0.289   6.250 -0.7168  0.0576  0.7751
  617MOL0     H83230   7.956   0.274   6.080  2.3163  2.7458  2.3888
  617MOL0     H83231   7.912   0.210   6.237  1.8117  0.1221  0.0034
  617MOL0     H83232   7.712   0.337   6.043 -2.2486  1.6870  3.4149
  617MOL0     H83233   7.742   0.171   6.019  3.5704  1.8001 -1.3755
  617MOL0     H83234   7.647   0.157   6.281 -0.1620 -1.0799 -1.6143
  617MOL0     H83235   7.639   0.334   6.262  1.0972 -0.5364  0.8660
  617MOL0     H83236   7.486   0.317   6.078 -2.0099 -0.6272 -0.4043
  617MOL0     H83237   7.485   0.144   6.082 -1.2429 -2.0739  1.7227
  617MOL0     H83238   7.395   0.128   6.291  2.3379 -0.6302 -2.4206
  617MOL0     H83239   7.415   0.290   6.348 -1.2897 -3.0595  2.9785
  617MOL0     H83240   7.259   0.349   6.139  0.6115  0.8903  0.5605
  617MOL0     H83241   7.234   0.174   6.127 -1.0120 -1.7242  1.3497
  617MOL0     H83242   7.114   0.173   6.350 -0.3009  0.0168  1.9117
  617MOL0     H83243   7.160   0.342   6.385 -0.6812 -0.4614 -0.2937
  617MOL0     H83244   6.966   0.226   6.182  0.0761  1.0768 -0.6273
  617MOL0     H83245   7.033   0.384   6.146  1.2907  0.3699 -0.1137
  617MOL0     H83246   6.838   0.210   6.420  2.0047  0.3043  4.0558
  617MOL0     H83247   6.651   0.275   6.601  1.3683  0.5950 -0.9523
  617MOL0     H83248   6.643   0.438   6.633 -2.6946 -0.7607  1.3775
  617MOL0     H83249   6.536   0.305   6.393  1.4075 -2.2703  1.7059
  617MOL0     H83250   6.489   0.467   6.459  3.4325  0.2256 -0.6338
  617MOL0     H83251   6.299   0.313   6.507  1.1564 -0.9457 -1.1927
  617MOL0     H83252   6.394   0.308   6.657  1.0256 -0.9166  1.0592
  617MOL0     H83253   6.353   0.080   6.624 -1.6837 -0.3395 -1.5367
  617MOL0     H83254   6.505   0.100   6.538  0.1439  0.6814  1.3166
  617MOL0     H83255   6.456  -0.109   6.573  2.9513  4.1302 -1.2316
  617MOL0     H83256   6.439  -0.448   6.576  0.0569  1.1811  0.7565
  617MOL0     H83257   6.598  -0.405   6.503 -0.6599 -3.6900 -0.3918
  617MOL0     H83258   6.517  -0.307   6.635 -2.2187 -1.0677  1.2552
  617MOL0     H83259   6.418  -0.723   6.558  0.1640 -4.5695  2.0017
  617MOL0     H83260   6.397  -0.971   6.544  0.4302  0.9263  0.4119
  617MOL0     H83261   6.255  -1.137   6.212 -0.3904 -0.0076  0.1868
  617MOL0     H83262   6.436  -1.176   6.164  1.6320 -1.5449  2.0644
  617MOL0     H83263   6.305  -1.387   6.173  2.4692 -0.8017  0.5319
  617MOL0     H83264   6.427  -1.377   6.288 -0.1365  0.4247  1.8015
  617MOL0     H83265   6.132  -1.368   6.342  1.1499  1.3319 -3.1226
  617MOL0     H83266   6.217  -1.242   6.423  0.2221  0.1459 -0.0873
  617MOL0     H83267   6.192  -1.451   6.555  0.3629  1.4047 -0.7149
  617MOL0     H83268   6.316  -1.520   6.455 -1.0997  0.5464 -0.6236
  617MOL0     H83269   6.366  -1.268   6.624  0.6596 -0.7186  1.9386
  617MOL0     H83270   6.483  -1.383   6.561 -0.7810  1.6935 -1.8552
  617MOL0     H83271   6.432  -1.397   6.804 -1.4266 -0.1217  1.1506
  617MOL0     H83272   6.262  -1.400   6.762  0.8974  0.7539  2.8113
  617MOL0     H83273   6.277  -1.633   6.659 -0.5240  0.3434  0.2714
  617MOL0     H83274   6.325  -1.614   6.835  3.3716 -0.0087  0.3886
  617MOL0     H83275   6.550  -1.616   6.788 -0.6205 -0.2009  0.7945
  617MOL0     H83276   6.522  -1.641   6.608  2.5828  1.5800  1.0972
  617MOL0     H83277   6.433  -0.957   6.127 -0.0055 -1.6653  1.1692
  617MOL0     H83278   6.463  -0.694   6.145  3.2284  0.0713  0.9924
  617MOL0     H83279   6.271  -0.251   6.144  0.5208 -2.6498  0.5818
  617MOL0     H83280   6.259  -0.014   6.214 -1.3714 -0.3966  0.7382
  617MOL0     H83281   7.925   0.661   6.177 -0.0553 -1.0727 -0.0381
  617MOL0     H83282   8.134   0.770   6.143  0.7860 -0.3741  1.0080
  617MOL0     H83283   8.478   0.806   5.969  2.3791 -3.5645 -0.3851
  617MOL0     H83284   8.670   0.898   5.869 -4.3234 -1.4878 -0.0281
  617MOL0     H83285   8.949   1.231   6.014 -5.5689  0.7776 -2.2239
  617MOL0     H83286   8.837   1.191   6.143  0.6655 -0.0212  1.3601
  617MOL0     H83287   9.000   0.998   6.205  1.4980 -1.5158 -1.3464
  617MOL0     H83288   9.050   1.146   6.256 -1.6763 -1.5934  0.8513
  617MOL0     H83289   9.212   1.153   6.036  2.7726 -2.0626 -2.6719
  617MOL0     H83290   9.168   0.988   6.007 -2.4113  0.2089 -0.1635
  617MOL0     H83291   9.378   0.988   6.129 -1.1876 -0.8965 -1.8277
  617MOL0     H83292   9.239   0.925   6.229 -1.8472  1.4468  0.5003
  617MOL0     H83293   9.340   1.253   6.455  0.3802  0.5516 -0.3467
  617MOL0     H83294   8.779   1.031   6.276  0.7899  0.9507 -1.9351
  617MOL0     H83295   8.619   0.877   6.364  3.8230  2.7314  0.0517
  618MOL0     O83296  10.896  11.318   3.874  0.5875 -0.1138 -0.6641
  618MOL0     C83297  10.917  11.396   3.968 -0.0795 -0.3058  0.6256
  618MOL0     O83298  10.827  11.452   4.051 -0.4252  0.1754 -0.2875
  618MOL0     C83299  10.698  11.447   4.019  0.3524 -0.0528  0.5521
  618MOL0     C83300  10.606  11.370   4.094  0.8595  0.5627 -0.6742
  618MOL0     C83301  10.465  11.379   4.061 -0.4970 -0.7289 -0.0851
  618MOL0     C83302  10.421  11.452   3.955 -1.0381  0.1334  0.1791
  618MOL0     O83303  10.284  11.438   3.934  0.3347  0.5234  0.4561
  618MOL0     C83304  10.222  11.488   3.807 -0.7712  0.8138  0.2595
  618MOL0     C83305  10.177  11.630   3.791  0.0516 -0.3041  0.0371
  618MOL0     C83306  10.048  11.653   3.847  1.1649 -0.9672 -0.9015
  618MOL0     C83307   9.940  11.608   3.744  0.2873 -0.1981 -0.0230
  618MOL0     C83308   9.808  11.591   3.811  0.5824  0.4734  0.8667
  618MOL0     C83309   9.707  11.543   3.701 -0.6426  0.3693 -0.4883
  618MOL0     C83310   9.582  11.512   3.781 -0.6343  0.0293  0.3083
  618MOL0     C83311   9.463  11.469   3.697 -0.3219 -0.7785  0.2167
  618MOL0     N83312   9.397  11.590   3.636  0.0601 -0.0600 -0.1929
  618MOL0     C83313   9.325  11.688   3.697 -0.6115 -0.1483 -0.4810
  618MOL0     C83314   9.302  11.779   3.604 -0.0104  0.6214  0.4561
  618MOL0     C83315   9.234  11.911   3.614  0.3903  0.8840 -0.5005
  618MOL0     C83316   9.189  11.971   3.480 -1.1929  0.7211 -0.8391
  618MOL0     C83317   9.113  12.104   3.481  0.0219  0.2209 -0.0789
  618MOL0     C83318   9.200  12.210   3.532  0.2617 -0.3971  0.1102
  618MOL0     O83319   9.145  12.338   3.513  0.1571 -0.7324 -0.5346
  618MOL0     C83320   9.016  12.368   3.556  1.3267 -1.3000  0.5473
  618MOL0     C83321   8.977  12.347   3.683  0.1779  0.9031  0.3202
  618MOL0     C83322   8.843  12.363   3.724 -0.1326  0.8994 -0.7380
  618MOL0     C83323   8.820  12.335   3.872 -0.3576  0.4026  0.0307
  618MOL0     C83324   8.753  12.424   3.638  0.0087  0.0211  0.2781
  618MOL0     C83325   8.608  12.436   3.681 -0.7453  0.0866  0.0248
  618MOL0     O83326   8.541  12.544   3.629  0.0630 -0.2629  0.1623
  618MOL0     C83327   8.407  12.569   3.669 -0.1622  0.4564  0.7712
  618MOL0     C83328   8.367  12.584   3.803  0.4289 -0.5526 -0.3774
  618MOL0     C83329   8.237  12.609   3.832  0.3016 -0.3907 -0.0575
  618MOL0     C83330   8.143  12.619   3.723 -0.5266  0.0571  0.2830
  618MOL0     O83331   8.014  12.657   3.755 -0.5083 -0.5582  0.4190
  618MOL0     C83332   7.928  12.687   3.648  0.1131 -0.3495  0.2623
  618MOL0     C83333   7.790  12.725   3.685 -0.2852  0.0885 -0.6157
  618MOL0     C83334   7.778  12.812   3.807  0.7011 -0.4996  0.4738
  618MOL0     C83335   7.624  12.852   3.814 -0.2992  0.4436  0.0149
  618MOL0     C83336   7.612  12.994   3.875 -0.6275 -0.5866 -0.1351
  618MOL0     C83337   7.478  13.060   3.877 -0.2441 -0.8578 -0.3142
  618MOL0     C83338   7.439  13.133   3.743  0.3000  0.5197 -0.6867
  618MOL0     C83339   7.293  13.187   3.741 -0.8632  0.7561  0.3653
  618MOL0    Cl83340   7.267  13.280   3.899 -0.1531 -0.4161 -0.4148
  618MOL0     C83341   8.191  12.591   3.589 -0.0256  0.4148 -0.4843
  618MOL0     C83342   8.321  12.562   3.557  0.1361  0.0811 -0.1138
  618MOL0     O83343   8.550  12.337   3.731  0.0856 -0.0865 -0.0868
  618MOL0     C83344   8.799  12.463   3.504  0.8075 -0.4587 -0.8365
  618MOL0     C83345   8.925  12.426   3.469 -0.0032 -0.0633  0.4184
  618MOL0     N83346   9.366  11.738   3.488  0.6536  0.1231  0.0871
  618MOL0     N83347   9.427  11.626   3.509  0.1246  0.2656 -0.4033
  618MOL0     C83348  10.512  11.520   3.877  0.6613  0.5067 -0.2767
  618MOL0     C83349  10.643  11.528   3.914  0.3350  0.1150  0.7617
  618MOL0     C83350  11.054  11.413   4.008 -0.2100 -0.5979  0.2130
  618MOL0     C83351  11.088  11.529   4.083  0.0345 -0.4502 -0.3505
  618MOL0     C83352  11.216  11.556   4.128  0.2160  0.5123  0.4570
  618MOL0     C83353  11.330  11.483   4.093 -0.0648 -0.3747 -0.0540
  618MOL0     O83354  11.461  11.508   4.130 -0.6280 -0.2494  0.3210
  618MOL0     C83355  11.481  11.638   4.197 -0.0869 -0.1502  0.4241
  618MOL0     C83356  11.622  11.682   4.200 -0.3407 -0.4357 -1.4491
  618MOL0     C83357  11.670  11.763   4.084  0.0274 -1.2536 -0.6903
  618MOL0     C83358  11.659  11.680   3.956 -0.4910  0.1590  0.1198
  618MOL0     C83359  11.728  11.744   3.836  0.0289 -0.3321  0.3338
  618MOL0     C83360  11.767  11.797   3.735 -0.5711 -0.3169  0.9994
  618MOL0     C83361  11.296  11.373   4.014  0.4506 -0.1402 -0.9015
  618MOL0     C83362  11.166  11.339   3.968 -0.3422  0.4348  0.3854
  618MOL0     H83363  10.639  11.317   4.183 -2.3483  0.2685  0.4519
  618MOL0     H83364  10.391  11.330   4.124 -0.8879  1.9042  1.6401
  618MOL0     H83365  10.286  11.461   3.723 -0.6775 -2.8108  1.3203
  618MOL0     H83366  10.137  11.420   3.803 -1.0435  1.1676 -0.0242
  618MOL0     H83367  10.240  11.702   3.844  1.9245 -0.6396 -1.5724
  618MOL0     H83368  10.170  11.637   3.682  1.3762  2.1533  0.0248
  618MOL0     H83369  10.050  11.604   3.945 -2.8419 -0.5584 -0.4285
  618MOL0     H83370  10.031  11.761   3.854  2.0645 -0.8708  0.0935
  618MOL0     H83371   9.935  11.671   3.655 -0.9803  0.4179  0.4636
  618MOL0     H83372   9.976  11.512   3.705 -4.4359 -1.6207 -1.5057
  618MOL0     H83373   9.816  11.517   3.891  1.7498 -0.9258 -0.4772
  618MOL0     H83374   9.765  11.685   3.848 -1.7772  0.0335 -0.5584
  618MOL0     H83375   9.685  11.619   3.626 -0.7707 -0.8803 -1.7460
  618MOL0     H83376   9.736  11.448   3.655  0.0068 -0.4103  1.3841
  618MOL0     H83377   9.603  11.429   3.850 -0.5542  0.1118  0.3838
  618MOL0     H83378   9.552  11.602   3.836 -0.2689  0.6319 -0.4577
  618MOL0     H83379   9.389  11.421   3.762 -1.5193 -0.5842 -0.9641
  618MOL0     H83380   9.483  11.405   3.611  0.5056 -0.2813  0.0252
  618MOL0     H83381   9.293  11.693   3.801  1.6876  1.0800  0.2257
  618MOL0     H83382   9.146  11.902   3.678  1.5592  0.5756  1.1160
  618MOL0     H83383   9.297  11.984   3.666  0.3864  2.9074 -3.1307
  618MOL0     H83384   9.128  11.900   3.425 -1.4175  0.6901 -0.5504
  618MOL0     H83385   9.278  11.990   3.419 -1.4778  1.0756 -1.1547
  618MOL0     H83386   9.021  12.097   3.540  1.3876 -0.3543  2.1020
  618MOL0     H83387   9.086  12.127   3.377  0.5346 -2.2541 -0.8100
  618MOL0     H83388   9.300  12.212   3.489 -0.1066  0.7649 -0.7389
  618MOL0     H83389   9.209  12.190   3.639 -0.8446  0.5849  0.4090
  618MOL0     H83390   9.058  12.308   3.744 -1.4179 -2.4923  0.5177
  618MOL0     H83391   8.821  12.226   3.885  2.8277  0.3345  0.0444
  618MOL0     H83392   8.908  12.378   3.921  0.4855 -1.6952  0.5044
  618MOL0     H83393   8.730  12.379   3.916 -0.1435 -0.9713  1.9993
  618MOL0     H83394   8.445  12.586   3.879  1.4155  0.4334 -1.3597
  618MOL0     H83395   8.204  12.632   3.933  3.1954 -1.7049  1.2780
  618MOL0     H83396   7.979  12.769   3.596  1.5652 -0.6715  1.1338
  618MOL0     H83397   7.926  12.600   3.581  3.0973 -0.4092  0.1495
  618MOL0     H83398   7.745  12.767   3.595  1.6866  0.6489 -1.3891
  618MOL0     H83399   7.744  12.627   3.701 -0.0276 -0.3566 -2.3673
  618MOL0     H83400   7.842  12.901   3.811 -0.7657  0.5376  1.9532
  618MOL0     H83401   7.815  12.752   3.891  0.4192 -1.3200  0.0169
  618MOL0     H83402   7.578  12.852   3.714 -0.4687  1.3588  0.0900
  618MOL0     H83403   7.566  12.772   3.861  2.5320 -2.9843 -1.7868
  618MOL0     H83404   7.695  13.062   3.852 -0.1811 -1.2023 -0.3718
  618MOL0     H83405   7.629  12.984   3.982 -0.8725  0.0951 -0.0254
  618MOL0     H83406   7.398  12.994   3.910 -1.7711  0.5997 -0.9646
  618MOL0     H83407   7.491  13.134   3.958  1.5613 -0.1164 -1.2131
  618MOL0     H83408   7.451  13.059   3.663  4.7145  2.3235 -1.9672
  618MOL0     H83409   7.507  13.214   3.715 -1.1998  1.9478 -0.3544
  618MOL0     H83410   7.222  13.103   3.738  2.3072 -2.3289  2.7233
  618MOL0     H83411   7.280  13.257   3.658 -0.4627  1.6215  1.0191
  618MOL0     H83412   8.120  12.593   3.507 -3.4973  0.8400  2.2977
  618MOL0     H83413   8.348  12.533   3.456 -0.2635 -2.0317  0.3346
  618MOL0     H83414   8.733  12.512   3.433 -1.0479  1.7089  2.1472
  618MOL0     H83415   8.940  12.451   3.365 -0.3509 -2.3174 -0.2202
  618MOL0     H83416  10.480  11.572   3.787  3.5844 -1.0294 -2.3677
  618MOL0     H83417  10.713  11.597   3.868 -1.1930  0.9658 -0.3958
  618MOL0     H83418  11.034  11.616   4.118 -0.7767 -0.5666 -1.2435
  618MOL0     H83419  11.237  11.647   4.184  0.1731  1.2248 -0.6492
  618MOL0     H83420  11.426  11.724   4.157 -0.3546 -0.2972  0.4772
  618MOL0     H83421  11.452  11.624   4.302 -0.4794  0.1351  0.3534
  618MOL0     H83422  11.691  11.599   4.217  1.0801  0.9145 -0.1767
  618MOL0     H83423  11.625  11.751   4.285  1.1872  1.0798 -2.6406
  618MOL0     H83424  11.778  11.779   4.095 -0.0891 -0.1100 -1.0866
  618MOL0     H83425  11.616  11.857   4.071  4.2338  2.1872  3.2111
  618MOL0     H83426  11.561  11.646   3.923 -0.3007 -0.4082  0.1299
  618MOL0     H83427  11.717  11.589   3.978 -1.2045 -1.0452 -2.6328
  618MOL0     H83428  11.803  11.853   3.651  0.7087 -2.3943  0.0862
  618MOL0     H83429  11.383  11.325   3.970  2.7017  0.1617  2.7873
  618MOL0     H83430  11.144  11.265   3.892 -2.4273  0.9282  0.4548
  619MOL0     O83431   5.503   4.575  10.051  0.0613  0.6927  0.3252
  619MOL0     C83432   5.437   4.478  10.009 -0.8812 -0.0479  0.0535
  619MOL0     O83433   5.493   4.353   9.980 -0.1814  0.2542 -0.0716
  619MOL0     C83434   5.626   4.312   9.973 -0.7679 -0.3710 -0.5724
  619MOL0     C83435   5.731   4.411   9.949  0.8016  0.6457 -1.1802
  619MOL0     C83436   5.868   4.370   9.941  0.8863 -0.0286 -0.2999
  619MOL0     C83437   5.901   4.237   9.960  0.3205 -0.2194  0.0675
  619MOL0     O83438   6.026   4.188   9.943 -0.2913  0.2539  0.4110
  619MOL0     C83439   6.140   4.267   9.993 -0.3266  1.2489 -0.1731
  619MOL0     C83440   6.259   4.177   9.973  0.4045 -0.0256  0.1201
  619MOL0     C83441   6.391   4.246   9.964  0.1855  0.1816  0.1671
  619MOL0     C83442   6.503   4.143   9.947  0.6221 -0.2212  0.0604
  619MOL0     C83443   6.628   4.202  10.007  0.1607 -0.3130 -0.8858
  619MOL0     C83444   6.681   4.318   9.927  0.7205 -0.0950 -0.5592
  619MOL0     C83445   6.828   4.321   9.942 -0.4968 -0.3840 -0.6841
  619MOL0     C83446   6.883   4.451   9.867 -0.1666  0.1444 -0.8223
  619MOL0     N83447   6.874   4.431   9.726 -0.0839 -0.3031  0.0976
  619MOL0     C83448   6.801   4.498   9.641  0.4224 -0.3268  0.7383
  619MOL0     C83449   6.817   4.436   9.518 -1.3677 -0.3983  0.3059
  619MOL0     C83450   6.743   4.467   9.390  0.2982 -0.5460  0.6025
  619MOL0     C83451   6.585   4.488   9.403 -0.2248 -0.3935  0.0862
  619MOL0     C83452   6.510   4.362   9.458 -0.2188 -0.8578  0.5633
  619MOL0     C83453   6.365   4.378   9.455  0.0269  0.3442  0.1380
  619MOL0     O83454   6.330   4.479   9.548 -0.3984 -0.8387 -0.3634
  619MOL0     C83455   6.196   4.488   9.576  0.4361 -0.0939 -0.0326
  619MOL0     C83456   6.092   4.394   9.555  0.7747 -0.6939  0.2366
  619MOL0     C83457   5.952   4.425   9.562  0.5791  0.2979 -1.1467
  619MOL0     C83458   5.849   4.306   9.547  0.3365 -0.3675  0.9846
  619MOL0     C83459   5.914   4.554   9.606  0.6416 -0.2442  0.0851
  619MOL0     C83460   5.773   4.608   9.617 -0.2673 -0.2835 -0.8616
  619MOL0     O83461   5.754   4.718   9.694  0.8807 -0.2059  0.2730
  619MOL0     C83462   5.630   4.778   9.692 -0.0947  1.0662  0.1593
  619MOL0     C83463   5.601   4.878   9.597  0.2472  1.1895  0.1686
  619MOL0     C83464   5.478   4.931   9.576 -0.5125 -0.0091  0.0259
  619MOL0     C83465   5.375   4.890   9.654  0.5196 -0.0545 -0.4717
  619MOL0     O83466   5.257   4.953   9.650 -0.5094  0.8075 -0.2458
  619MOL0     C83467   5.268   5.095   9.665 -0.2662  0.1254 -0.8477
  619MOL0     C83468   5.314   5.143   9.800 -1.5442  0.2936 -0.7481
  619MOL0     C83469   5.248   5.063   9.915 -0.6562 -0.3318  0.0607
  619MOL0     C83470   5.334   5.079  10.041 -1.1471 -0.8250  0.1854
  619MOL0     C83471   5.281   4.965  10.132 -0.5057 -0.5348  0.9825
  619MOL0     C83472   5.361   4.955  10.263 -0.7451  0.4990 -0.4183
  619MOL0     C83473   5.306   4.824  10.330  0.0884 -0.4100 -0.3870
  619MOL0     C83474   5.416   4.789  10.435 -0.5105 -0.7770 -0.3555
  619MOL0    Cl83475   5.447   4.925  10.557 -0.6054 -0.1940  0.1295
  619MOL0     C83476   5.402   4.785   9.747 -0.3109 -0.3440 -0.4120
  619MOL0     C83477   5.526   4.727   9.767 -0.1558 -1.2302  0.6178
  619MOL0     O83478   5.680   4.551   9.550  0.4634 -0.2827  0.1424
  619MOL0     C83479   6.021   4.639   9.645 -0.6230 -0.2301 -0.6553
  619MOL0     C83480   6.155   4.608   9.631  0.0040 -0.0910  0.1209
  619MOL0     N83481   6.907   4.331   9.535  0.6732 -0.1660  0.1035
  619MOL0     N83482   6.947   4.334   9.659 -1.1097  0.0908 -0.3041
  619MOL0     C83483   5.800   4.143   9.982  0.2483 -0.6710  0.4574
  619MOL0     C83484   5.660   4.174   9.994 -0.3752 -0.1738 -0.0164
  619MOL0     C83485   5.306   4.503   9.985 -0.3675  0.7718 -0.8095
  619MOL0     C83486   5.218   4.542  10.092  0.9226  0.0857 -0.6130
  619MOL0     C83487   5.087   4.571  10.072  0.3135 -0.8022 -0.0155
  619MOL0     C83488   5.034   4.549   9.944 -0.5902 -0.2531  0.6935
  619MOL0     O83489   4.907   4.600   9.934  0.0854  0.1563 -0.3226
  619MOL0     C83490   4.837   4.584   9.804 -0.5496  0.3892 -0.5774
  619MOL0     C83491   4.695   4.629   9.830  0.6471  0.4762 -0.1017
  619MOL0     C83492   4.704   4.778   9.866 -0.1957 -0.1266  0.3501
  619MOL0     C83493   4.586   4.869   9.843  0.5174 -0.2268 -0.8236
  619MOL0     C83494   4.477   4.820   9.923 -0.2706  0.5161  0.4449
  619MOL0     C83495   4.388   4.772   9.994 -0.5426  0.1500 -0.0217
  619MOL0     C83496   5.117   4.513   9.831 -0.5004 -0.0309  0.1588
  619MOL0     C83497   5.254   4.493   9.854 -1.3946 -0.5958 -0.2102
  619MOL0     H83498   5.708   4.514   9.926  0.3063  0.4707 -1.4778
  619MOL0     H83499   5.946   4.441   9.916  3.1675 -2.6905 -1.3317
  619MOL0     H83500   6.167   4.362   9.946  2.6546  0.4907 -0.2077
  619MOL0     H83501   6.124   4.282  10.100  0.0267 -0.6907  0.1853
  619MOL0     H83502   6.266   4.105  10.055  0.3876 -0.7208 -0.4860
  619MOL0     H83503   6.240   4.129   9.877 -0.9805 -1.4229  1.0456
  619MOL0     H83504   6.394   4.319   9.883  0.3522 -1.8306 -1.7450
  619MOL0     H83505   6.403   4.299  10.059  1.6407  0.3024 -0.0709
  619MOL0     H83506   6.478   4.058  10.011  1.2543  1.3494  2.5165
  619MOL0     H83507   6.502   4.128   9.839 -2.2796  0.3963 -0.0754
  619MOL0     H83508   6.616   4.216  10.115  1.5226  0.9829 -0.8693
  619MOL0     H83509   6.703   4.122  10.007  0.7743  0.0960  2.4936
  619MOL0     H83510   6.656   4.300   9.822 -0.0920  0.5190 -0.4846
  619MOL0     H83511   6.635   4.407   9.970 -0.9822 -1.9120  1.6124
  619MOL0     H83512   6.852   4.316  10.048 -4.8235 -1.3553  0.4205
  619MOL0     H83513   6.880   4.236   9.896  2.4726  0.9074  0.0383
  619MOL0     H83514   6.985   4.464   9.907 -0.1619  2.7198 -1.4986
  619MOL0     H83515   6.811   4.530   9.890 -2.5118 -2.1154  0.0650
  619MOL0     H83516   6.714   4.562   9.659 -2.4441 -2.9222 -2.4390
  619MOL0     H83517   6.795   4.553   9.346  1.3563 -0.7966  1.3274
  619MOL0     H83518   6.767   4.388   9.319  0.2250 -0.6503  0.6913
  619MOL0     H83519   6.552   4.500   9.300 -0.2666 -0.6222  0.0726
  619MOL0     H83520   6.553   4.581   9.450  1.8819  2.0448 -2.9168
  619MOL0     H83521   6.536   4.346   9.563  1.3226  0.4763  0.4355
  619MOL0     H83522   6.525   4.268   9.404  1.3869 -0.6724  0.6253
  619MOL0     H83523   6.329   4.279   9.482  0.5545  0.0150 -0.3418
  619MOL0     H83524   6.328   4.390   9.353 -2.0271  1.8489  0.9947
  619MOL0     H83525   6.117   4.292   9.529  2.4678 -0.6241  1.4038
  619MOL0     H83526   5.789   4.324   9.457 -1.7995 -3.4864  1.6100
  619MOL0     H83527   5.894   4.207   9.543 -3.1510 -2.1064 -0.4055
  619MOL0     H83528   5.762   4.316   9.613 -1.0563 -0.0163 -0.7949
  619MOL0     H83529   5.683   4.916   9.536  0.3326 -1.1757 -1.2918
  619MOL0     H83530   5.468   4.994   9.488  1.8821 -1.3545 -1.3405
  619MOL0     H83531   5.323   5.145   9.585 -1.2439  2.9247  0.0972
  619MOL0     H83532   5.163   5.127   9.664 -1.2379 -2.6865  0.1869
  619MOL0     H83533   5.422   5.125   9.804 -1.0569  2.9987  1.5594
  619MOL0     H83534   5.292   5.248   9.821  0.2887  0.2555  1.9657
  619MOL0     H83535   5.238   4.961   9.879  1.3148 -0.6342  0.2236
  619MOL0     H83536   5.148   5.099   9.941 -1.6963 -2.4779 -0.7622
  619MOL0     H83537   5.440   5.054  10.036 -0.4503  1.0170  2.9201
  619MOL0     H83538   5.320   5.177  10.088  0.0312 -0.0877 -0.9642
  619MOL0     H83539   5.306   4.875  10.075 -3.1247 -1.5876  1.3411
  619MOL0     H83540   5.178   4.964  10.168 -0.9492  0.3784 -0.2014
  619MOL0     H83541   5.468   4.954  10.239  0.4861  2.0962  4.1347
  619MOL0     H83542   5.346   5.047  10.319  1.5294  1.9050 -1.9527
  619MOL0     H83543   5.302   4.737  10.265 -4.1003  0.5847 -1.7943
  619MOL0     H83544   5.206   4.831  10.375  0.6738 -0.0121  0.9114
  619MOL0     H83545   5.515   4.768  10.393 -0.8644 -0.4412 -1.3686
  619MOL0     H83546   5.388   4.703  10.497  2.3595 -1.9637 -0.5076
  619MOL0     H83547   5.323   4.770   9.819 -1.4988 -1.9439 -1.9495
  619MOL0     H83548   5.543   4.646   9.838 -0.5988 -0.5907  1.4734
  619MOL0     H83549   5.995   4.741   9.671 -1.4062 -0.6709  0.3248
  619MOL0     H83550   6.224   4.692   9.643 -0.5329  0.2949  0.5227
  619MOL0     H83551   5.816   4.037   9.996 -1.8330 -0.6489  4.3939
  619MOL0     H83552   5.588   4.096  10.016  1.6898 -1.7374  1.6523
  619MOL0     H83553   5.242   4.541  10.198 -2.5081  1.3618  0.2981
  619MOL0     H83554   5.013   4.595  10.147 -0.9616  0.7162 -1.6800
  619MOL0     H83555   4.893   4.646   9.734  0.6450  2.2616  1.9048
  619MOL0     H83556   4.839   4.480   9.768 -0.1351 -2.0661  5.3599
  619MOL0     H83557   4.637   4.572   9.903 -0.5070  1.6283 -0.0814
  619MOL0     H83558   4.652   4.619   9.730  0.1023 -1.8610  0.3000
  619MOL0     H83559   4.786   4.833   9.819 -1.0025 -1.3534 -2.6802
  619MOL0     H83560   4.723   4.786   9.974 -2.0395  2.2663  0.5809
  619MOL0     H83561   4.559   4.883   9.738  1.0245 -1.0510 -1.0700
  619MOL0     H83562   4.603   4.968   9.887  2.1649 -1.4439  1.5028
  619MOL0     H83563   4.313   4.720  10.051  0.7259 -1.9632 -0.1850
  619MOL0     H83564   5.076   4.520   9.730  3.4786  0.5919 -1.5737
  619MOL0     H83565   5.319   4.463   9.771 -1.5861  1.0308 -0.9840
  620MOL0     O83566   8.680  10.666  11.338 -0.0270  0.4941  0.1324
  620MOL0     C83567   8.703  10.789  11.341  0.6902 -0.0003  0.4612
  620MOL0     O83568   8.621  10.882  11.387 -0.3374 -0.6196 -0.1151
  620MOL0     C83569   8.503  10.855  11.449  0.2741  0.1371 -0.5083
  620MOL0     C83570   8.462  10.957  11.527 -1.2851 -0.1587 -0.2549
  620MOL0     C83571   8.340  10.955  11.591 -0.3497 -0.1916  1.0184
  620MOL0     C83572   8.250  10.844  11.583 -0.1518 -0.0998  1.5978
  620MOL0     O83573   8.134  10.813  11.650  0.0204 -0.9269 -0.1024
  620MOL0     C83574   8.066  10.928  11.709  0.0214 -0.6126 -0.6574
  620MOL0     C83575   7.926  10.935  11.649  0.3208  0.9859  0.2833
  620MOL0     C83576   7.841  11.033  11.730  0.7525  0.9362  0.6587
  620MOL0     C83577   7.710  11.072  11.656 -0.4745 -0.3914  0.3515
  620MOL0     C83578   7.635  10.950  11.612  0.6837  0.7814  0.1651
  620MOL0     C83579   7.494  10.985  11.560 -0.1217 -0.1452 -0.2315
  620MOL0     C83580   7.427  10.866  11.493  1.2320  0.4061  0.3472
  620MOL0     C83581   7.278  10.889  11.461  0.3281 -0.0236 -0.0401
  620MOL0     N83582   7.219  10.768  11.394  0.9277  0.0659 -0.1988
  620MOL0     C83583   7.250  10.635  11.400 -0.4023  0.4412 -0.6309
  620MOL0     C83584   7.154  10.571  11.327  0.2496 -0.0311 -0.1560
  620MOL0     C83585   7.148  10.430  11.297 -0.3554 -0.1880 -0.3196
  620MOL0     C83586   7.031  10.340  11.363 -0.8759  0.2340  0.3070
  620MOL0     C83587   6.913  10.319  11.274 -1.0615  0.2445  0.0547
  620MOL0     C83588   6.844  10.453  11.239 -0.1533 -1.2756 -0.1498
  620MOL0     O83589   6.721  10.421  11.179  0.1547  0.5420 -0.1199
  620MOL0     C83590   6.644  10.527  11.137 -0.6524  0.0481  0.0029
  620MOL0     C83591   6.531  10.489  11.058  0.0387 -0.6745  0.0215
  620MOL0     C83592   6.434  10.595  11.022 -1.1981  0.4119 -0.2296
  620MOL0     C83593   6.309  10.536  10.954 -0.9382  0.3541  0.4046
  620MOL0     C83594   6.469  10.732  11.057 -0.3437  0.2703 -0.2282
  620MOL0     C83595   6.372  10.832  11.019 -0.6098  0.1600 -0.6954
  620MOL0     O83596   6.377  10.947  11.100  0.1943  0.4618  0.1156
  620MOL0     C83597   6.314  11.058  11.049  0.3407 -0.2149  0.5965
  620MOL0     C83598   6.382  11.140  10.956 -0.7951  0.3706 -0.5747
  620MOL0     C83599   6.337  11.261  10.912 -0.3906 -0.5415 -0.2834
  620MOL0     C83600   6.213  11.304  10.970  0.8351  0.3523 -0.2665
  620MOL0     O83601   6.166  11.427  10.932 -0.0942 -0.0625 -0.0222
  620MOL0     C83602   6.253  11.527  10.872 -0.3471  0.3120  0.3495
  620MOL0     C83603   6.168  11.653  10.842 -0.0707 -0.1467 -0.1044
  620MOL0     C83604   6.101  11.698  10.978 -0.5271 -1.1660  0.9710
  620MOL0     C83605   6.211  11.716  11.090 -0.5533 -0.1227  0.4007
  620MOL0     C83606   6.161  11.798  11.216  0.3156  1.4080  0.2064
  620MOL0     C83607   6.042  11.743  11.278 -0.3471  0.0995 -0.2221
  620MOL0     C83608   6.039  11.766  11.437  0.7231  0.8259 -0.0107
  620MOL0     C83609   5.906  11.720  11.501 -0.0559  0.4929  0.2000
  620MOL0    Cl83610   5.902  11.540  11.476 -0.0200 -0.2907  0.5761
  620MOL0     C83611   6.134  11.226  11.070 -0.8071 -0.5780  0.1610
  620MOL0     C83612   6.185  11.096  11.102 -0.5562  0.1915  0.6052
  620MOL0     O83613   6.313  10.816  10.909  0.3325  0.2532 -0.6845
  620MOL0     C83614   6.581  10.766  11.117 -0.2135 -0.2345  0.5590
  620MOL0     C83615   6.664  10.670  11.161 -0.9203  0.4511 -0.1343
  620MOL0     N83616   7.075  10.662  11.263 -0.0331  0.2836 -0.3428
  620MOL0     N83617   7.117  10.782  11.306 -0.6062  1.2628  0.7935
  620MOL0     C83618   8.285  10.741  11.493 -0.3990  0.2768 -0.3283
  620MOL0     C83619   8.412  10.744  11.434 -0.3876  0.5714  0.7169
  620MOL0     C83620   8.821  10.823  11.265 -0.4351 -0.3448 -0.1140
  620MOL0     C83621   8.876  10.964  11.274  0.4146  0.8961  0.3081
  620MOL0     C83622   8.996  10.998  11.217 -1.9215  0.7595 -0.0964
  620MOL0     C83623   9.076  10.905  11.151 -0.1569 -0.5136  0.5204
  620MOL0     O83624   9.198  10.941  11.103  0.0479 -0.6357 -0.3834
  620MOL0     C83625   9.299  10.846  11.060 -0.3136 -0.2695 -0.8279
  620MOL0     C83626   9.386  10.895  10.943 -0.2204  0.5781 -0.0977
  620MOL0     C83627   9.426  11.041  10.950  0.1568  0.3154 -0.2007
  620MOL0     C83628   9.487  11.090  11.082  0.3138  0.5297  0.3204
  620MOL0     C83629   9.609  11.014  11.107  0.4184  0.9750 -0.4750
  620MOL0     C83630   9.714  10.967  11.135 -0.1684 -0.0626  0.1138
  620MOL0     C83631   9.021  10.776  11.136  0.5737 -0.2988 -0.2189
  620MOL0     C83632   8.901  10.734  11.192 -1.3908 -0.3503  0.2413
  620MOL0     H83633   8.533  11.039  11.529  0.1466 -1.2051 -2.9046
  620MOL0     H83634   8.316  11.042  11.651 -1.2190 -0.7878  1.5526
  620MOL0     H83635   8.064  10.921  11.818 -1.6611  1.9746 -0.4346
  620MOL0     H83636   8.113  11.024  11.688 -1.1492  0.1126 -0.0479
  620MOL0     H83637   7.923  10.956  11.541 -4.4682 -3.4111 -0.8520
  620MOL0     H83638   7.880  10.836  11.651  0.2043  1.0533  1.4933
  620MOL0     H83639   7.810  10.984  11.823 -0.7452 -2.2981 -1.3681
  620MOL0     H83640   7.898  11.123  11.755  0.0339  1.1740  1.4844
  620MOL0     H83641   7.654  11.138  11.723  0.3477  1.6074 -0.8450
  620MOL0     H83642   7.746  11.125  11.567 -1.0044 -0.3664  0.1455
  620MOL0     H83643   7.692  10.891  11.539  1.5936 -2.1649  2.9895
  620MOL0     H83644   7.632  10.887  11.702  1.1511 -0.9464 -0.9653
  620MOL0     H83645   7.424  11.022  11.635 -0.8968  0.7074 -1.3463
  620MOL0     H83646   7.519  11.056  11.481 -0.0493 -0.5823 -0.6101
  620MOL0     H83647   7.493  10.850  11.408  1.7853  2.3955  0.3367
  620MOL0     H83648   7.434  10.771  11.546  2.1327 -0.3063 -1.0036
  620MOL0     H83649   7.262  10.979  11.400  0.1005 -1.2055 -1.8104
  620MOL0     H83650   7.236  10.904  11.560  1.9862  0.8833  0.5572
  620MOL0     H83651   7.329  10.588  11.458 -1.5706  0.4876  1.0349
  620MOL0     H83652   7.148  10.416  11.188  1.3480 -1.8505 -0.1601
  620MOL0     H83653   7.246  10.391  11.324 -1.1690 -0.8213  1.8971
  620MOL0     H83654   7.003  10.389  11.456 -1.2518 -2.0090  1.4391
  620MOL0     H83655   7.082  10.250  11.399 -1.7080  1.0487  3.8997
  620MOL0     H83656   6.849  10.251  11.330  2.0547 -3.2292 -0.2322
  620MOL0     H83657   6.937  10.255  11.188  0.9767  0.9838  0.0125
  620MOL0     H83658   6.917  10.497  11.170  0.4220  0.9756  1.7928
  620MOL0     H83659   6.840  10.527  11.318  4.6259  0.4493 -1.1856
  620MOL0     H83660   6.498  10.386  11.045 -2.1223 -0.4088  2.5491
  620MOL0     H83661   6.220  10.580  11.000 -0.4646 -2.1684  4.1316
  620MOL0     H83662   6.310  10.562  10.847 -2.7656 -0.0715  0.2554
  620MOL0     H83663   6.312  10.427  10.957  1.8121  0.2541 -1.7611
  620MOL0     H83664   6.481  11.104  10.932  0.3161  1.5335  1.9328
  620MOL0     H83665   6.400  11.299  10.833 -1.7437 -0.8474 -1.5537
  620MOL0     H83666   6.344  11.548  10.929  1.3140 -2.5572 -1.0162
  620MOL0     H83667   6.296  11.495  10.777 -1.3828 -2.5319  0.7266
  620MOL0     H83668   6.241  11.724  10.804  0.9540 -0.5956  0.9630
  620MOL0     H83669   6.092  11.626  10.767 -1.1826 -3.0517  1.8661
  620MOL0     H83670   6.025  11.635  11.026 -0.7483 -0.6502  1.3157
  620MOL0     H83671   6.060  11.797  10.952  0.6488 -1.2731 -1.5599
  620MOL0     H83672   6.244  11.617  11.123  2.8040 -0.0973 -2.2735
  620MOL0     H83673   6.301  11.767  11.055  0.0181  0.0033  1.9740
  620MOL0     H83674   6.145  11.905  11.199 -1.3148  1.1528 -0.0395
  620MOL0     H83675   6.240  11.784  11.290  2.0143 -3.2967 -2.1425
  620MOL0     H83676   5.950  11.775  11.229  0.8597  1.9818 -1.4374
  620MOL0     H83677   6.050  11.638  11.250  1.9030  0.4067 -0.9720
  620MOL0     H83678   6.054  11.871  11.463 -0.7243  0.9661  0.3028
  620MOL0     H83679   6.111  11.712  11.498  1.9379  0.6086 -1.5566
  620MOL0     H83680   5.827  11.760  11.437  0.6516 -1.1151 -1.8170
  620MOL0     H83681   5.898  11.761  11.602 -0.7501  2.1206 -0.4705
  620MOL0     H83682   6.043  11.271  11.110 -1.4890 -0.5091 -1.3923
  620MOL0     H83683   6.132  11.029  11.168 -2.3952 -2.2684 -3.0593
  620MOL0     H83684   6.598  10.869  11.147 -1.3751 -0.0145  0.5306
  620MOL0     H83685   6.750  10.707  11.215 -0.4569  2.5696 -2.1552
  620MOL0     H83686   8.220  10.654  11.484  0.4870 -0.5254  0.7913
  620MOL0     H83687   8.432  10.661  11.367  3.8613  0.5335  1.7522
  620MOL0     H83688   8.817  11.040  11.324  1.5806  1.2891  1.1332
  620MOL0     H83689   9.025  11.102  11.229 -3.2040  1.0724  0.5415
  620MOL0     H83690   9.370  10.830  11.142 -2.4997  0.8538  1.4026
  620MOL0     H83691   9.252  10.758  11.017  1.0719 -0.6172 -1.6960
  620MOL0     H83692   9.326  10.880  10.853  0.9073 -2.4469 -0.4745
  620MOL0     H83693   9.469  10.825  10.926  0.4023  1.5357 -1.1240
  620MOL0     H83694   9.336  11.101  10.933 -1.7074 -0.6643  4.6387
  620MOL0     H83695   9.491  11.070  10.867 -1.1259  0.2127 -1.2730
  620MOL0     H83696   9.413  11.073  11.161  0.6535 -1.0783  0.3255
  620MOL0     H83697   9.502  11.198  11.078  1.7238  0.3890  1.2083
  620MOL0     H83698   9.805  10.914  11.158 -1.2631 -0.4246  4.4450
  620MOL0     H83699   9.076  10.691  11.096  0.6063  0.2342 -1.3188
  620MOL0     H83700   8.870  10.632  11.173  2.9554 -1.6231 -1.0914
  621MOL0     O83701   5.570   5.387   2.635 -0.4858 -0.3149  0.6496
  621MOL0     C83702   5.687   5.403   2.590 -0.2359 -1.0388  0.6769
  621MOL0     O83703   5.723   5.501   2.494  0.1144 -0.4601  0.1608
  621MOL0     C83704   5.621   5.579   2.426 -0.5741  0.1739 -0.1637
  621MOL0     C83705   5.664   5.686   2.360 -0.6019  0.4605 -0.3638
  621MOL0     C83706   5.582   5.769   2.278  0.2999 -0.0273 -1.3788
  621MOL0     C83707   5.445   5.745   2.261  0.4364  0.7774 -0.2049
  621MOL0     O83708   5.367   5.835   2.196  0.3051 -0.6713 -0.7196
  621MOL0     C83709   5.385   5.898   2.067 -0.0687 -0.0891 -0.1526
  621MOL0     C83710   5.365   6.046   2.073  0.0405  0.1941  0.3871
  621MOL0     C83711   5.496   6.100   2.142 -0.6321  0.5112 -1.2183
  621MOL0     C83712   5.509   6.251   2.153  0.2314  0.2571 -0.9174
  621MOL0     C83713   5.639   6.301   2.215  0.0397  0.0015 -0.5615
  621MOL0     C83714   5.735   6.346   2.102  0.1105  0.3865 -0.6808
  621MOL0     C83715   5.877   6.373   2.164 -0.5366 -0.2858  0.2633
  621MOL0     C83716   5.984   6.421   2.056 -0.1753 -0.6869 -0.2970
  621MOL0     N83717   6.111   6.454   2.128 -0.1969 -0.5645 -0.3152
  621MOL0     C83718   6.130   6.541   2.231  1.2051 -0.1430  0.3448
  621MOL0     C83719   6.263   6.523   2.264 -0.4958 -0.4390 -0.5104
  621MOL0     C83720   6.320   6.580   2.388 -1.4766 -0.1525 -0.0816
  621MOL0     C83721   6.384   6.722   2.378 -0.7279 -0.5593  0.4102
  621MOL0     C83722   6.476   6.747   2.498 -0.1094 -0.1344 -0.0258
  621MOL0     C83723   6.546   6.897   2.482 -0.2582  1.0243 -0.2133
  621MOL0     O83724   6.624   6.883   2.358 -0.6390 -0.2498 -0.7564
  621MOL0     C83725   6.756   6.930   2.346 -0.9072  0.9586 -0.5023
  621MOL0     C83726   6.808   6.959   2.222  0.6282  0.4600  0.2324
  621MOL0     C83727   6.932   7.004   2.186 -0.1619 -0.6499 -0.4384
  621MOL0     C83728   6.954   7.045   2.043  0.8297  0.1700  0.0409
  621MOL0     C83729   7.022   7.033   2.289  0.1459  0.6357 -0.5118
  621MOL0     C83730   7.156   7.093   2.272 -0.6336  0.4511  0.6154
  621MOL0     O83731   7.231   7.110   2.387  0.0068 -0.0481 -0.2600
  621MOL0     C83732   7.341   7.194   2.375  0.8233  0.9826  0.0345
  621MOL0     C83733   7.457   7.162   2.304  0.4081  0.7157  0.2300
  621MOL0     C83734   7.556   7.255   2.290  0.8080  1.2477  0.1920
  621MOL0     C83735   7.545   7.382   2.353 -0.0493  0.6236  0.6536
  621MOL0     O83736   7.653   7.466   2.363 -0.1569 -0.5484  0.5488
  621MOL0     C83737   7.769   7.464   2.269  0.9380  0.0105  0.3758
  621MOL0     C83738   7.840   7.596   2.253 -1.0002  0.8382  0.7126
  621MOL0     C83739   7.749   7.702   2.195  1.0966  0.4872  1.1804
  621MOL0     C83740   7.630   7.750   2.289 -0.5057  1.0773  0.7863
  621MOL0     C83741   7.583   7.886   2.246  0.1729 -0.2419  0.2819
  621MOL0     C83742   7.474   7.947   2.339  0.3883 -0.8595  0.2316
  621MOL0     C83743   7.344   7.871   2.351 -0.1292 -0.5787  0.3709
  621MOL0     C83744   7.278   7.870   2.215  0.4407 -0.4424  0.0167
  621MOL0    Cl83745   7.095   7.846   2.234  0.0475  0.5132  0.3340
  621MOL0     C83746   7.420   7.416   2.406 -0.5749  0.8192 -0.2449
  621MOL0     C83747   7.315   7.321   2.418 -0.9868 -0.0802  0.3446
  621MOL0     O83748   7.209   7.113   2.160  0.7468  0.6620  0.3215
  621MOL0     C83749   6.971   6.997   2.423 -0.1685 -0.3059  0.2377
  621MOL0     C83750   6.843   6.947   2.453 -0.3802 -0.0012  0.4947
  621MOL0     N83751   6.322   6.436   2.178 -0.0336 -0.8320 -0.2025
  621MOL0     N83752   6.227   6.394   2.101  0.0862  0.1653 -0.2772
  621MOL0     C83753   5.396   5.640   2.343 -0.1943  0.3207 -0.3568
  621MOL0     C83754   5.480   5.553   2.417 -0.0832  0.2755 -0.4805
  621MOL0     C83755   5.808   5.316   2.631  0.2676 -0.1160 -1.0975
  621MOL0     C83756   5.795   5.242   2.748 -0.0281  0.0266 -0.8955
  621MOL0     C83757   5.905   5.156   2.789 -0.9358 -0.6359 -0.3268
  621MOL0     C83758   6.027   5.157   2.726  0.3751 -0.7150  0.1550
  621MOL0     O83759   6.122   5.085   2.785 -0.2228  0.7706  0.4605
  621MOL0     C83760   6.244   5.147   2.812 -1.5447 -0.3183 -0.3378
  621MOL0     C83761   6.329   5.065   2.910  0.0742  0.7280  0.0483
  621MOL0     C83762   6.250   5.062   3.042  0.0811 -0.2875 -0.4497
  621MOL0     C83763   6.236   5.197   3.111  0.4587  0.6723  0.8704
  621MOL0     C83764   6.093   5.244   3.108  0.0593  0.6255 -0.7852
  621MOL0     C83765   5.978   5.281   3.101  0.2752  0.3582 -0.7574
  621MOL0     C83766   6.043   5.239   2.623 -0.9371 -0.8287  0.0244
  621MOL0     C83767   5.936   5.322   2.567  0.2346  0.0935 -0.5225
  621MOL0     H83768   5.769   5.715   2.363 -0.6320  1.4035 -3.7772
  621MOL0     H83769   5.628   5.859   2.239 -2.0425  1.7916 -0.2592
  621MOL0     H83770   5.486   5.883   2.029  0.3632  1.5478  0.2768
  621MOL0     H83771   5.314   5.860   1.993 -2.1108  1.0197  1.1392
  621MOL0     H83772   5.339   6.084   1.974 -0.8778  0.8588  0.8645
  621MOL0     H83773   5.283   6.063   2.144 -0.7926 -0.0127 -0.5019
  621MOL0     H83774   5.512   6.066   2.245  3.5670  2.9644 -0.8469
  621MOL0     H83775   5.579   6.059   2.085  1.2223  1.9370  0.3164
  621MOL0     H83776   5.498   6.293   2.052 -1.1022  2.5235  0.0796
  621MOL0     H83777   5.429   6.295   2.213  2.0402  2.8111 -0.2170
  621MOL0     H83778   5.610   6.384   2.280 -0.3509  1.5236 -2.5801
  621MOL0     H83779   5.683   6.225   2.280  1.0861  0.8531 -0.2317
  621MOL0     H83780   5.722   6.272   2.023 -1.7416 -0.6493  0.4958
  621MOL0     H83781   5.703   6.440   2.058 -0.6795  1.7686  2.5731
  621MOL0     H83782   5.877   6.441   2.251  1.9125 -2.5354  2.1841
  621MOL0     H83783   5.904   6.275   2.205 -0.8259 -0.1740  0.7330
  621MOL0     H83784   5.945   6.509   2.004 -0.2589  0.8452  2.2085
  621MOL0     H83785   6.011   6.339   1.988  0.9005 -2.9225  2.6404
  621MOL0     H83786   6.055   6.598   2.283  1.4627 -2.2334  3.2749
  621MOL0     H83787   6.241   6.580   2.463 -2.1627 -2.6422 -0.6810
  621MOL0     H83788   6.403   6.515   2.418  1.1639  2.7821 -0.4761
  621MOL0     H83789   6.303   6.793   2.360 -2.6583 -3.0870 -1.7097
  621MOL0     H83790   6.435   6.724   2.282 -1.7996  3.4366 -0.2761
  621MOL0     H83791   6.555   6.671   2.501  0.1284  0.1502  1.5244
  621MOL0     H83792   6.415   6.754   2.588 -1.0070  0.6611 -0.6797
  621MOL0     H83793   6.606   6.918   2.571  1.0532 -0.1456 -0.7758
  621MOL0     H83794   6.474   6.978   2.468 -2.3360 -0.4710  1.1680
  621MOL0     H83795   6.731   6.940   2.148 -0.1834  0.2378  1.1210
  621MOL0     H83796   6.964   7.154   2.042  2.4900  0.0494 -0.7697
  621MOL0     H83797   7.037   6.991   1.996  1.4667 -0.0738  1.4087
  621MOL0     H83798   6.866   7.018   1.984 -0.6305 -0.1082  2.2435
  621MOL0     H83799   7.458   7.065   2.256  0.7265  0.0043  1.6421
  621MOL0     H83800   7.646   7.228   2.235 -1.0484 -1.4146 -1.7287
  621MOL0     H83801   7.833   7.378   2.287  1.5669  0.3256 -0.2712
  621MOL0     H83802   7.713   7.440   2.177  0.6773 -3.3388  1.2987
  621MOL0     H83803   7.884   7.629   2.347  0.4908 -0.4775  0.5232
  621MOL0     H83804   7.928   7.580   2.189  0.1802 -0.9072  2.6370
  621MOL0     H83805   7.701   7.665   2.104  2.3709 -3.2627  1.8461
  621MOL0     H83806   7.815   7.788   2.186  2.3181 -0.1001  3.7443
  621MOL0     H83807   7.553   7.672   2.287  0.9391 -0.6332  4.0726
  621MOL0     H83808   7.683   7.744   2.384 -2.6200 -2.1517  1.9115
  621MOL0     H83809   7.538   7.875   2.147 -2.8593  0.9146  1.3973
  621MOL0     H83810   7.669   7.953   2.240 -1.3668  1.9505  1.4372
  621MOL0     H83811   7.507   7.945   2.444  1.2471  1.6654  0.0727
  621MOL0     H83812   7.458   8.051   2.312 -0.4384 -0.7561  1.0733
  621MOL0     H83813   7.272   7.925   2.413 -0.9116 -0.1689 -0.8727
  621MOL0     H83814   7.357   7.767   2.382  4.0891 -0.7919 -1.5064
  621MOL0     H83815   7.310   7.794   2.143  2.2457 -1.0033  1.3552
  621MOL0     H83816   7.283   7.967   2.164 -1.9747  0.3525  1.1444
  621MOL0     H83817   7.421   7.516   2.450 -0.3649  1.1888 -1.0688
  621MOL0     H83818   7.229   7.352   2.476 -1.2649  1.4135 -0.7762
  621MOL0     H83819   7.039   7.008   2.507  0.8509 -0.6540 -0.5090
  621MOL0     H83820   6.819   6.937   2.558 -1.3933 -1.7485  0.1441
  621MOL0     H83821   5.290   5.615   2.345 -0.4267  0.6472  4.5988
  621MOL0     H83822   5.436   5.476   2.480 -0.4022  2.8130  2.6753
  621MOL0     H83823   5.705   5.246   2.810 -0.7877 -1.4967 -1.8388
  621MOL0     H83824   5.899   5.099   2.881  0.5775 -3.5194 -1.8835
  621MOL0     H83825   6.299   5.134   2.718 -1.9150 -1.3772 -0.4190
  621MOL0     H83826   6.237   5.251   2.844  1.0233 -0.4638  1.0006
  621MOL0     H83827   6.428   5.107   2.930  1.6873 -2.4549 -0.6952
  621MOL0     H83828   6.338   4.960   2.881 -2.4449 -0.4752  3.0849
  621MOL0     H83829   6.302   4.994   3.109  1.7830  0.6162 -0.7923
  621MOL0     H83830   6.149   5.021   3.034  1.0358 -3.7107  2.4336
  621MOL0     H83831   6.301   5.271   3.063  1.1004 -0.1846  0.3848
  621MOL0     H83832   6.269   5.189   3.216  1.4788 -1.5869  0.4418
  621MOL0     H83833   5.878   5.319   3.097 -1.2068 -3.0632 -0.2027
  621MOL0     H83834   6.141   5.246   2.577  0.1270 -1.0733  2.1679
  621MOL0     H83835   5.942   5.379   2.475 -0.7924 -0.0415 -0.6839
  622MOL0     O83836   0.993   9.255   2.059  0.1379  0.8258 -0.6679
  622MOL0     C83837   1.042   9.360   2.024 -0.1747 -0.1582  0.0786
  622MOL0     O83838   0.981   9.486   2.005 -0.4767 -0.5900  0.3193
  622MOL0     C83839   0.853   9.504   2.055 -0.1639 -0.5275 -0.3286
  622MOL0     C83840   0.784   9.598   1.980 -0.0177 -0.8871  0.5019
  622MOL0     C83841   0.671   9.657   2.044 -0.2887  0.3034  0.4704
  622MOL0     C83842   0.626   9.618   2.174 -0.6123  0.6637  0.3054
  622MOL0     O83843   0.509   9.673   2.222 -0.0241  0.0624  0.3989
  622MOL0     C83844   0.481   9.648   2.355 -0.5294  0.2515 -0.9183
  622MOL0     C83845   0.346   9.718   2.385 -0.4750  0.0791  0.6703
  622MOL0     C83846   0.227   9.669   2.301 -0.2652  0.0426  0.1465
  622MOL0     C83847   0.188   9.772   2.203 -0.2918 -0.4006 -0.3363
  622MOL0     C83848   0.100   9.874   2.286 -0.1708 -0.1608  1.1223
  622MOL0     C83849   0.030   9.962   2.181 -0.2568  0.3917 -0.2727
  622MOL0     C83850  -0.028  10.084   2.258  0.0816  0.0854 -0.1356
  622MOL0     C83851  -0.117  10.170   2.162 -0.2624  0.4941 -1.1962
  622MOL0     N83852  -0.200  10.265   2.235 -0.3167  0.5558 -0.8201
  622MOL0     C83853  -0.292  10.343   2.175 -0.2081 -0.3443  0.1982
  622MOL0     C83854  -0.341  10.420   2.270 -0.4417  0.4964 -0.9385
  622MOL0     C83855  -0.454  10.513   2.244  0.0783  0.1997 -0.8891
  622MOL0     C83856  -0.402  10.645   2.205 -0.0272  0.2458 -0.5203
  622MOL0     C83857  -0.310  10.711   2.308 -0.6063 -0.3067  0.1342
  622MOL0     C83858  -0.381  10.803   2.416 -0.3520 -0.1976  0.2109
  622MOL0     O83859  -0.439  10.909   2.342 -0.2217 -0.6820 -0.8144
  622MOL0     C83860  -0.500  11.020   2.401  1.0427  0.4136  0.7680
  622MOL0     C83861  -0.534  11.120   2.313 -0.2707 -0.0428  0.2922
  622MOL0     C83862  -0.612  11.237   2.346 -0.1315  0.9227  0.8689
  622MOL0     C83863  -0.623  11.362   2.247 -0.4227 -0.0378 -0.5496
  622MOL0     C83864  -0.654  11.243   2.476  0.4255 -0.2654 -0.7251
  622MOL0     C83865  -0.739  11.359   2.531 -0.7107  0.3192  0.7442
  622MOL0     O83866  -0.835  11.420   2.454  0.2303  0.1994  0.0554
  622MOL0     C83867  -0.896  11.529   2.507 -0.1236  0.4325  1.1886
  622MOL0     C83868  -0.849  11.656   2.492 -0.0943  0.6101  0.8077
  622MOL0     C83869  -0.918  11.768   2.553  0.4990  0.5318  0.8385
  622MOL0     C83870  -1.036  11.750   2.630 -0.2746 -0.5181  0.4907
  622MOL0     O83871  -1.111  11.857   2.676  0.4176  0.9855  0.6288
  622MOL0     C83872  -1.033  11.970   2.726  0.1782  0.9494 -0.0946
  622MOL0     C83873  -1.094  12.048   2.840 -0.3445 -0.4108  0.0081
  622MOL0     C83874  -1.019  12.034   2.974  0.1128 -0.6461 -0.7517
  622MOL0     C83875  -1.100  12.087   3.094  0.0635  0.6263  0.6629
  622MOL0     C83876  -1.069  12.236   3.113 -0.0262  0.5035 -0.2573
  622MOL0     C83877  -1.159  12.283   3.227 -0.1782 -0.1664 -0.4062
  622MOL0     C83878  -1.123  12.426   3.283  0.5620  0.4765 -0.6982
  622MOL0     C83879  -1.246  12.508   3.333 -0.2089  0.7741  0.5368
  622MOL0    Cl83880  -1.185  12.663   3.413  0.2300 -0.1537  0.1815
  622MOL0     C83881  -1.081  11.617   2.645  1.6761  0.8380 -0.3561
  622MOL0     C83882  -1.014  11.508   2.584  0.1045 -0.1747  0.4127
  622MOL0     O83883  -0.712  11.380   2.650  0.3413  0.3668  0.2884
  622MOL0     C83884  -0.611  11.142   2.570  0.6978 -0.8993  0.7331
  622MOL0     C83885  -0.551  11.030   2.530 -0.3850  0.1227 -0.2678
  622MOL0     N83886  -0.272  10.389   2.395 -0.3016  0.2064  0.3850
  622MOL0     N83887  -0.178  10.312   2.363  0.2175  0.5169  0.5125
  622MOL0     C83888   0.699   9.514   2.233 -0.2335 -0.0339  0.3565
  622MOL0     C83889   0.816   9.466   2.181 -0.8511  0.5242  0.2743
  622MOL0     C83890   1.183   9.353   1.970  0.3561 -0.9692  0.9064
  622MOL0     C83891   1.275   9.272   2.041 -0.4252 -0.4371 -0.2772
  622MOL0     C83892   1.406   9.257   1.987 -0.1661  0.0422 -0.2215
  622MOL0     C83893   1.446   9.320   1.867  0.2615 -1.1302  0.0789
  622MOL0     O83894   1.570   9.298   1.815  0.2895 -0.2308 -0.2596
  622MOL0     C83895   1.690   9.348   1.869 -0.2295  0.8770 -0.2585
  622MOL0     C83896   1.743   9.472   1.800 -0.3845  0.2384  1.6002
  622MOL0     C83897   1.771   9.465   1.645 -1.1614 -0.0877 -0.1820
  622MOL0     C83898   1.719   9.599   1.573  0.9349  0.8349  0.3777
  622MOL0     C83899   1.789   9.715   1.624 -0.0119 -0.5950 -0.6938
  622MOL0     C83900   1.859   9.811   1.660  0.5357 -0.3791  0.3031
  622MOL0     C83901   1.354   9.404   1.803  0.0266  0.0080 -0.5260
  622MOL0     C83902   1.226   9.422   1.856 -0.9843 -0.3949  0.5518
  622MOL0     H83903   0.816   9.646   1.888  1.7885  0.7522  1.8999
  622MOL0     H83904   0.609   9.739   2.007 -0.9377  1.7825  4.4179
  622MOL0     H83905   0.466   9.541   2.370  1.3966  0.0792  0.0765
  622MOL0     H83906   0.567   9.688   2.410 -1.8160  1.8773  0.0348
  622MOL0     H83907   0.322   9.700   2.490  2.2786 -0.7827  1.2387
  622MOL0     H83908   0.358   9.826   2.371 -0.1514  0.2340  1.9381
  622MOL0     H83909   0.269   9.582   2.250  1.6235  1.3745 -0.6722
  622MOL0     H83910   0.139   9.634   2.356 -2.7160  3.3961 -1.3032
  622MOL0     H83911   0.279   9.821   2.170 -0.6306  2.8417  2.8657
  622MOL0     H83912   0.128   9.727   2.124  0.0966 -2.9338  0.6917
  622MOL0     H83913   0.018   9.818   2.332 -0.3544 -0.8606 -0.0155
  622MOL0     H83914   0.161   9.925   2.360  0.1906  1.1987 -0.0739
  622MOL0     H83915   0.102  10.006   2.111  0.2913  1.2433  0.7887
  622MOL0     H83916  -0.047   9.904   2.129 -0.0163  1.3151 -1.6993
  622MOL0     H83917  -0.086  10.057   2.347  1.7844 -1.9584  0.4479
  622MOL0     H83918   0.055  10.150   2.283 -2.2278  2.5905  1.4885
  622MOL0     H83919  -0.186  10.107   2.105 -0.1511  0.4639 -1.2967
  622MOL0     H83920  -0.051  10.226   2.095 -0.2736  1.7529 -0.1888
  622MOL0     H83921  -0.330  10.344   2.073 -2.0794  0.9349  0.8575
  622MOL0     H83922  -0.516  10.480   2.160  1.3602  1.5653 -2.4333
  622MOL0     H83923  -0.522  10.531   2.328  0.0674  0.8761 -1.0384
  622MOL0     H83924  -0.485  10.709   2.172 -0.2707 -1.0392 -2.5950
  622MOL0     H83925  -0.348  10.630   2.111  1.6293  2.1446  0.0522
  622MOL0     H83926  -0.244  10.778   2.252 -0.4039  0.8290  1.6712
  622MOL0     H83927  -0.239  10.640   2.352 -1.1068  0.0521  1.6030
  622MOL0     H83928  -0.300  10.838   2.481  0.2868 -0.5253 -0.3945
  622MOL0     H83929  -0.459  10.744   2.465 -0.2780 -2.4926 -2.2493
  622MOL0     H83930  -0.491  11.115   2.214  2.8191  1.1403  1.4228
  622MOL0     H83931  -0.521  11.384   2.213 -1.3049  0.5416 -3.0357
  622MOL0     H83932  -0.678  11.338   2.155 -1.4732 -2.6201  0.6285
  622MOL0     H83933  -0.670  11.445   2.301 -2.8850 -0.0073 -2.5410
  622MOL0     H83934  -0.761  11.673   2.431 -1.4682  1.8891 -0.9095
  622MOL0     H83935  -0.882  11.866   2.525 -3.1198  1.7694  0.0266
  622MOL0     H83936  -0.938  11.935   2.767 -0.0694  2.1359  1.5954
  622MOL0     H83937  -1.014  12.031   2.637  1.5469 -0.6096 -0.9274
  622MOL0     H83938  -1.107  12.155   2.824 -0.4645  0.1083  2.9735
  622MOL0     H83939  -1.196  12.010   2.853 -0.0917 -0.8911  0.7209
  622MOL0     H83940  -0.925  12.091   2.970 -0.7749  0.9342 -0.1264
  622MOL0     H83941  -0.987  11.932   2.997 -1.1992 -0.6707  1.1618
  622MOL0     H83942  -1.205  12.077   3.067 -0.0178  1.2443  0.7209
  622MOL0     H83943  -1.068  12.029   3.181 -0.7665 -0.3544  0.3225
  622MOL0     H83944  -1.103  12.294   3.026  0.3073  1.4927  0.2616
  622MOL0     H83945  -0.963  12.236   3.139 -0.0745 -5.0881  1.2756
  622MOL0     H83946  -1.263  12.286   3.195 -0.7109 -1.8713  1.0492
  622MOL0     H83947  -1.149  12.214   3.310  0.3583  0.1265 -0.2169
  622MOL0     H83948  -1.070  12.475   3.202  3.0139  0.4353  0.7906
  622MOL0     H83949  -1.056  12.414   3.369 -0.6651  0.8962  0.3556
  622MOL0     H83950  -1.310  12.450   3.400 -1.3198  0.9100 -0.3619
  622MOL0     H83951  -1.300  12.543   3.244  2.8463  3.9877 -0.2680
  622MOL0     H83952  -1.176  11.586   2.689  0.5012 -0.9606 -3.8003
  622MOL0     H83953  -1.071  11.415   2.578 -2.6836  1.5284 -1.7508
  622MOL0     H83954  -0.650  11.152   2.671 -2.0769 -4.0978  0.1542
  622MOL0     H83955  -0.535  10.952   2.604  0.0859 -0.7361 -1.2534
  622MOL0     H83956   0.667   9.468   2.326  2.2274 -0.9538  0.8222
  622MOL0     H83957   0.875   9.388   2.228  0.1777  0.5900 -0.8584
  622MOL0     H83958   1.248   9.213   2.128 -1.3910 -0.1350 -0.3647
  622MOL0     H83959   1.484   9.201   2.037 -0.7849  0.2231  0.9813
  622MOL0     H83960   1.671   9.379   1.972  0.5608  0.6109 -0.0222
  622MOL0     H83961   1.763   9.268   1.853 -0.1168  1.1012 -0.8833
  622MOL0     H83962   1.835   9.496   1.855  0.3110  3.0629 -0.5503
  622MOL0     H83963   1.678   9.555   1.827 -1.4064 -0.6715  1.9937
  622MOL0     H83964   1.735   9.375   1.595  1.3529 -1.0312 -0.4403
  622MOL0     H83965   1.880   9.456   1.637 -1.1057  0.7191 -0.4201
  622MOL0     H83966   1.610   9.609   1.584  0.7934  0.9279 -0.9340
  622MOL0     H83967   1.742   9.599   1.466  1.0567 -1.3968  0.3435
  622MOL0     H83968   1.925   9.894   1.676 -1.6601  2.2156 -2.5835
  622MOL0     H83969   1.374   9.461   1.712  0.4834 -0.9039 -1.0136
  622MOL0     H83970   1.158   9.481   1.795 -0.0348 -0.0176 -0.1648
  623MOL0     O83971   2.958   2.718   0.187  0.2332 -0.0428 -0.4962
  623MOL0     C83972   3.045   2.685   0.254  0.0236 -0.0633  0.9757
  623MOL0     O83973   3.115   2.768   0.339  0.0218  0.2253  1.0325
  623MOL0     C83974   3.054   2.886   0.364  0.7342  0.3997 -0.1142
  623MOL0     C83975   2.976   2.899   0.478 -0.9105  0.5417 -0.7537
  623MOL0     C83976   2.920   3.024   0.517 -0.2620 -0.5835  0.3043
  623MOL0     C83977   2.928   3.139   0.433 -0.5793  0.9687 -0.2405
  623MOL0     O83978   2.869   3.261   0.455 -0.1858  0.5743  0.3720
  623MOL0     C83979   2.775   3.269   0.566  0.6762 -0.1704 -0.1287
  623MOL0     C83980   2.694   3.392   0.553 -0.4185 -0.7848 -0.4829
  623MOL0     C83981   2.547   3.379   0.603 -0.1895 -0.9316  0.6131
  623MOL0     C83982   2.483   3.514   0.579 -0.1348  0.0685  0.4922
  623MOL0     C83983   2.522   3.611   0.692 -0.4790 -0.0043 -0.8270
  623MOL0     C83984   2.478   3.750   0.655 -0.3017  0.8050  0.4423
  623MOL0     C83985   2.483   3.862   0.770  0.2331 -0.4704 -0.3317
  623MOL0     C83986   2.374   3.824   0.877  0.2862 -0.2969 -0.7589
  623MOL0     N83987   2.330   3.935   0.965  0.2374 -0.1868  0.2648
  623MOL0     C83988   2.227   4.022   0.927  0.2172 -0.2546  0.3685
  623MOL0     C83989   2.230   4.114   1.025 -0.5554  0.5599 -0.2766
  623MOL0     C83990   2.129   4.227   1.035  0.2725 -0.4727 -0.7038
  623MOL0     C83991   1.986   4.187   1.075  0.4030  1.1014 -0.9694
  623MOL0     C83992   1.963   4.143   1.226 -0.3939  0.3479  0.0865
  623MOL0     C83993   1.980   4.252   1.332 -0.1177 -0.3966 -0.2891
  623MOL0     O83994   1.866   4.338   1.340  0.2194  0.0396  0.0085
  623MOL0     C83995   1.749   4.312   1.405 -0.2983 -0.1946 -0.3182
  623MOL0     C83996   1.633   4.391   1.383 -0.6482  0.2026 -0.3717
  623MOL0     C83997   1.512   4.371   1.445  0.3860  0.0662  0.4673
  623MOL0     C83998   1.398   4.477   1.413  0.3684 -0.3102  0.5530
  623MOL0     C83999   1.501   4.265   1.531 -0.6270  0.9254  0.4434
  623MOL0     C84000   1.370   4.237   1.601  0.7912  0.4321  0.0307
  623MOL0     O84001   1.256   4.234   1.524 -0.2915 -0.0959  0.0566
  623MOL0     C84002   1.126   4.240   1.572 -0.8977 -0.8839  0.2357
  623MOL0     C84003   1.023   4.254   1.469 -0.2593  0.2860  0.7005
  623MOL0     C84004   0.889   4.256   1.508 -0.6910  0.6635  1.0842
  623MOL0     C84005   0.858   4.254   1.641  0.0159  0.8458  0.2959
  623MOL0     O84006   0.723   4.247   1.679  0.5752  0.0702 -1.2121
  623MOL0     C84007   0.640   4.324   1.591 -0.3425 -0.3623  0.1360
  623MOL0     C84008   0.500   4.341   1.653  0.1088  0.3894  0.8487
  623MOL0     C84009   0.433   4.205   1.680  0.2110  0.4119 -0.1549
  623MOL0     C84010   0.299   4.229   1.756 -0.2467  0.3441 -0.1064
  623MOL0     C84011   0.233   4.092   1.794 -0.4045 -0.5421 -0.0762
  623MOL0     C84012   0.098   4.112   1.862 -0.0631 -0.7361  0.2971
  623MOL0     C84013   0.028   3.982   1.894  0.4222  0.3463  1.0102
  623MOL0     C84014  -0.103   4.007   1.974 -0.5381 -0.2503  0.0326
  623MOL0    Cl84015  -0.046   4.002   2.139  0.3809 -0.3989  0.1228
  623MOL0     C84016   0.953   4.253   1.737 -1.4466  0.3106  0.3220
  623MOL0     C84017   1.089   4.232   1.702  0.7702  0.2357 -0.0730
  623MOL0     O84018   1.377   4.198   1.717 -0.9571  0.8650  0.2421
  623MOL0     C84019   1.613   4.185   1.560  0.8384  0.9399 -0.5032
  623MOL0     C84020   1.731   4.207   1.491 -0.4240  0.7027  0.2641
  623MOL0     N84021   2.318   4.073   1.124  0.9045  0.0981 -0.1669
  623MOL0     N84022   2.383   3.969   1.084 -0.5000 -0.2028 -0.1402
  623MOL0     C84023   3.009   3.119   0.315  0.3590  0.8729  0.7159
  623MOL0     C84024   3.069   3.002   0.285  0.1772  0.3531  0.4639
  623MOL0     C84025   3.094   2.545   0.264  0.3308  0.3388  0.4035
  623MOL0     C84026   3.216   2.509   0.324  0.5288  0.5068 -0.0514
  623MOL0     C84027   3.252   2.368   0.335  0.1784 -0.0388 -0.8910
  623MOL0     C84028   3.155   2.264   0.316 -0.6631  0.0234 -0.6398
  623MOL0     O84029   3.175   2.133   0.354  0.2395  0.3588 -0.5445
  623MOL0     C84030   3.312   2.085   0.360  0.7357  0.8053  0.2542
  623MOL0     C84031   3.335   1.934   0.357  0.5359 -0.1478 -0.5421
  623MOL0     C84032   3.361   1.876   0.219 -0.2110 -0.6809 -0.2939
  623MOL0     C84033   3.241   1.875   0.127 -0.0916 -0.3123 -1.1045
  623MOL0     C84034   3.124   1.811   0.194 -0.6004 -0.0029  0.1618
  623MOL0     C84035   3.016   1.792   0.247  0.1959  0.4015  0.3685
  623MOL0     C84036   3.039   2.304   0.259 -0.3311 -0.2599  0.5628
  623MOL0     C84037   3.009   2.437   0.225  0.1774  0.1074  0.0871
  623MOL0     H84038   2.967   2.809   0.538 -2.7987  1.0373 -0.2392
  623MOL0     H84039   2.869   3.019   0.613  0.8186 -0.1532  0.9096
  623MOL0     H84040   2.712   3.183   0.541 -0.8408  0.7051  0.5743
  623MOL0     H84041   2.812   3.245   0.666 -0.6333 -0.1628  0.3818
  623MOL0     H84042   2.741   3.465   0.620 -1.9465 -0.8200  0.6921
  623MOL0     H84043   2.695   3.429   0.451  1.0718  0.4313 -0.0700
  623MOL0     H84044   2.506   3.296   0.546 -0.3062 -0.4683  0.0216
  623MOL0     H84045   2.557   3.355   0.710  0.5018 -1.9216  0.3399
  623MOL0     H84046   2.520   3.567   0.491 -0.6976  2.3409  1.5561
  623MOL0     H84047   2.375   3.496   0.572 -0.7415  2.7032  1.8764
  623MOL0     H84048   2.451   3.586   0.772 -0.3769  1.8277 -0.1169
  623MOL0     H84049   2.622   3.605   0.735 -1.2769 -4.0000  0.8796
  623MOL0     H84050   2.550   3.782   0.578 -0.2028  1.0983  0.6517
  623MOL0     H84051   2.378   3.740   0.613 -0.2516  0.5996  0.3702
  623MOL0     H84052   2.581   3.858   0.819 -0.9340 -1.5979  2.1300
  623MOL0     H84053   2.472   3.965   0.734  0.2349  0.8108  2.9765
  623MOL0     H84054   2.414   3.744   0.940  1.0023  0.4072 -0.2915
  623MOL0     H84055   2.284   3.789   0.826 -0.4744  0.9998 -0.3430
  623MOL0     H84056   2.175   4.006   0.833  0.4783 -0.7420  0.3073
  623MOL0     H84057   2.176   4.302   1.100  2.4734 -2.3075 -0.0598
  623MOL0     H84058   2.113   4.278   0.939  2.9937  0.3161 -0.8002
  623MOL0     H84059   1.968   4.095   1.019  0.2470 -1.4017  2.7746
  623MOL0     H84060   1.905   4.256   1.048 -1.2304 -1.2139 -2.3536
  623MOL0     H84061   2.010   4.051   1.263 -0.0725  1.7093  3.3877
  623MOL0     H84062   1.856   4.120   1.223 -0.1612 -0.8623  0.4763
  623MOL0     H84063   2.064   4.322   1.329  0.0631 -0.4254  2.2323
  623MOL0     H84064   2.003   4.192   1.421  3.9299 -1.6610 -1.9557
  623MOL0     H84065   1.645   4.480   1.321  1.0059  0.5460  0.3886
  623MOL0     H84066   1.341   4.460   1.321  1.4393  1.5306 -0.5159
  623MOL0     H84067   1.325   4.476   1.494  0.6398 -0.8111  0.7974
  623MOL0     H84068   1.440   4.578   1.410  1.4807 -0.5469  3.8949
  623MOL0     H84069   1.045   4.266   1.364  1.2806  1.4284  1.1206
  623MOL0     H84070   0.813   4.267   1.431 -1.4292  0.5970  1.7887
  623MOL0     H84071   0.671   4.428   1.581  0.7603 -0.5453  1.3530
  623MOL0     H84072   0.633   4.280   1.491 -0.6289  0.7251 -0.3323
  623MOL0     H84073   0.506   4.394   1.749 -0.3524  2.1486 -0.0530
  623MOL0     H84074   0.448   4.416   1.593  1.7020  0.2463 -0.7620
  623MOL0     H84075   0.489   4.133   1.739 -1.2156  0.1273  0.9219
  623MOL0     H84076   0.418   4.149   1.587 -0.1485 -0.5584  0.4715
  623MOL0     H84077   0.317   4.269   1.857  3.3948 -0.9432 -0.0962
  623MOL0     H84078   0.235   4.294   1.695  1.8180  1.2906 -1.3926
  623MOL0     H84079   0.307   4.051   1.864  2.4411  1.3209 -1.8009
  623MOL0     H84080   0.214   4.024   1.711 -2.2147 -0.4387  0.2286
  623MOL0     H84081   0.112   4.183   1.944  0.8771  1.0361 -1.3009
  623MOL0     H84082   0.037   4.166   1.788 -2.8509 -1.6937  1.7513
  623MOL0     H84083   0.090   3.906   1.942 -0.9082  0.4163  2.9901
  623MOL0     H84084   0.007   3.943   1.794  0.9287  0.6773  0.7695
  623MOL0     H84085  -0.177   3.930   1.951 -0.0821 -0.8288  0.4569
  623MOL0     H84086  -0.136   4.110   1.957  1.8159  0.7503  1.0605
  623MOL0     H84087   0.928   4.252   1.843 -1.4853 -1.4497  0.3277
  623MOL0     H84088   1.152   4.219   1.789 -0.8456 -0.8816  1.0016
  623MOL0     H84089   1.598   4.097   1.621 -0.0886  0.5729 -1.2448
  623MOL0     H84090   1.804   4.126   1.492 -3.5771 -3.0097 -6.2665
  623MOL0     H84091   3.024   3.207   0.254 -0.3273 -1.6853 -3.5468
  623MOL0     H84092   3.120   3.004   0.189 -1.8203  0.4481 -0.6560
  623MOL0     H84093   3.289   2.578   0.364  1.6792 -1.2896  1.1011
  623MOL0     H84094   3.341   2.328   0.381 -0.0519  0.2189 -0.2134
  623MOL0     H84095   3.363   2.134   0.277  1.4692 -0.5783 -0.1390
  623MOL0     H84096   3.339   2.122   0.459 -0.1735  0.2896  0.7084
  623MOL0     H84097   3.253   1.880   0.406  0.2569  0.7452 -0.0110
  623MOL0     H84098   3.425   1.922   0.418  0.4251 -3.0828 -0.7772
  623MOL0     H84099   3.405   1.776   0.229  2.3947  0.2105 -1.8662
  623MOL0     H84100   3.440   1.932   0.168  0.6810 -0.1561  1.5618
  623MOL0     H84101   3.260   1.812   0.039 -1.7036  0.4877 -2.0900
  623MOL0     H84102   3.214   1.975   0.089 -4.8859 -1.1823 -0.6697
  623MOL0     H84103   2.928   1.770   0.303 -1.6306 -2.2936 -3.1800
  623MOL0     H84104   2.966   2.226   0.240 -2.2274  1.2568  1.3307
  623MOL0     H84105   2.913   2.467   0.184  0.8974 -1.1776 -2.8401
  624MOL0     O84106   4.450   6.728  10.864 -0.4578  0.9273 -0.9126
  624MOL0     C84107   4.388   6.758  10.770 -0.1954 -0.3629  0.3868
  624MOL0     O84108   4.309   6.682  10.692  1.4172  0.8011  0.3965
  624MOL0     C84109   4.298   6.540  10.721  0.1576  0.3447 -0.2291
  624MOL0     C84110   4.222   6.468  10.629  0.1582 -0.1117  0.3450
  624MOL0     C84111   4.213   6.328  10.621  0.2143  0.3378 -0.5550
  624MOL0     C84112   4.281   6.245  10.712 -0.7370  0.9133  0.1800
  624MOL0     O84113   4.275   6.107  10.710  0.0487 -0.1748 -0.7331
  624MOL0     C84114   4.278   6.026  10.828 -0.7575 -0.0630 -0.5696
  624MOL0     C84115   4.168   6.067  10.927  0.3097  0.5222 -0.6336
  624MOL0     C84116   4.025   6.038  10.879 -0.1359  1.0240  0.4712
  624MOL0     C84117   3.954   5.953  10.990  0.1558 -0.3187 -0.1897
  624MOL0     C84118   3.803   5.919  10.960  0.4528 -0.4677 -0.4272
  624MOL0     C84119   3.748   5.855  11.083  0.7706 -0.2191 -0.1872
  624MOL0     C84120   3.608   5.796  11.053 -0.3514  0.1684 -0.7625
  624MOL0     C84121   3.544   5.735  11.180 -0.0398  0.0474 -0.5839
  624MOL0     N84122   3.411   5.673  11.145  0.9563  0.3132  0.1745
  624MOL0     C84123   3.286   5.732  11.149 -0.5989  0.8483  1.0158
  624MOL0     C84124   3.209   5.654  11.077  0.0771 -0.1522  0.7582
  624MOL0     C84125   3.059   5.672  11.075 -0.0068  0.3292  0.1813
  624MOL0     C84126   2.989   5.567  11.001  0.3210 -0.6251  0.3403
  624MOL0     C84127   2.842   5.564  11.007  0.2463  0.0692  0.5864
  624MOL0     C84128   2.776   5.687  10.926  0.1137  0.3741 -0.7391
  624MOL0     O84129   2.635   5.702  10.936  0.1449  0.0642  0.2405
  624MOL0     C84130   2.560   5.600  10.887 -0.1453 -0.0063 -0.5810
  624MOL0     C84131   2.596   5.496  10.802 -0.4851 -0.1239  0.2195
  624MOL0     C84132   2.501   5.409  10.753 -0.6211  0.0048 -0.6210
  624MOL0     C84133   2.574   5.301  10.666  0.6609  0.4596  0.0997
  624MOL0     C84134   2.361   5.428  10.786 -0.2653 -1.1987  0.0593
  624MOL0     C84135   2.255   5.347  10.714 -1.0753  0.9195  0.3969
  624MOL0     O84136   2.125   5.384  10.740  0.1706 -0.1345 -0.6779
  624MOL0     C84137   2.023   5.314  10.690 -0.3907  0.7209  0.0480
  624MOL0     C84138   1.923   5.389  10.634  0.8461 -0.3660 -0.3430
  624MOL0     C84139   1.802   5.334  10.581 -0.3416  0.2089 -0.4551
  624MOL0     C84140   1.778   5.191  10.586  0.2715 -0.7543 -0.3010
  624MOL0     O84141   1.665   5.138  10.536  0.3725  0.3983  0.1832
  624MOL0     C84142   1.671   4.995  10.489  0.1889 -0.9969 -0.0395
  624MOL0     C84143   1.540   4.943  10.415  0.0230  0.1726 -0.0033
  624MOL0     C84144   1.514   5.020  10.290 -0.1907  0.4979 -0.6412
  624MOL0     C84145   1.384   4.976  10.222 -0.0542 -0.4796 -0.4670
  624MOL0     C84146   1.356   5.047  10.090 -0.6012  0.6562 -0.7531
  624MOL0     C84147   1.223   5.003  10.028 -0.7919  1.1259 -0.1178
  624MOL0     C84148   1.233   5.024   9.871 -0.2918  0.0727 -0.5388
  624MOL0     C84149   1.103   4.996   9.800  0.5386  0.4530 -0.3471
  624MOL0    Cl84150   1.108   4.960   9.626 -0.1895 -0.1148  0.3717
  624MOL0     C84151   1.880   5.117  10.644  0.3636  0.7916  0.3013
  624MOL0     C84152   1.994   5.169  10.701 -0.0910 -0.4188  0.9285
  624MOL0     O84153   2.287   5.274  10.622 -0.2342 -0.1397  0.5351
  624MOL0     C84154   2.327   5.522  10.881 -0.3862 -1.2390  1.3550
  624MOL0     C84155   2.425   5.613  10.925 -1.0761  0.0832  0.5264
  624MOL0     N84156   3.282   5.546  11.027 -0.2843  0.0936 -0.4846
  624MOL0     N84157   3.402   5.558  11.075  1.4071 -0.4196  0.7441
  624MOL0     C84158   4.376   6.317  10.788 -0.1258  0.5873  0.0449
  624MOL0     C84159   4.383   6.459  10.799  0.0102 -0.0270 -0.2909
  624MOL0     C84160   4.390   6.909  10.738 -0.5856 -0.0962  0.1616
  624MOL0     C84161   4.496   6.999  10.759 -0.5032  0.4872  0.0612
  624MOL0     C84162   4.483   7.130  10.722 -0.1695 -0.6453  0.1330
  624MOL0     C84163   4.373   7.191  10.668 -0.1191 -0.0751  0.7424
  624MOL0     O84164   4.373   7.331  10.636 -0.4463  0.1052 -0.6560
  624MOL0     C84165   4.252   7.396  10.650 -0.1851 -0.0849 -0.1608
  624MOL0     C84166   4.273   7.548  10.647 -0.7511  0.5181  0.5130
  624MOL0     C84167   4.170   7.626  10.712  0.3145 -0.8811 -0.3243
  624MOL0     C84168   4.203   7.776  10.699  0.7865  0.0895 -0.3950
  624MOL0     C84169   4.334   7.814  10.759  0.5182  0.1173 -0.3695
  624MOL0     C84170   4.439   7.844  10.810 -0.0636 -0.2027 -0.4510
  624MOL0     C84171   4.262   7.108  10.666 -0.4780  1.1027 -0.6837
  624MOL0     C84172   4.271   6.977  10.705 -0.2633 -0.5135 -1.0756
  624MOL0     H84173   4.171   6.533  10.558  1.9356  1.5809  0.5593
  624MOL0     H84174   4.150   6.276  10.550 -1.4242  0.9426  0.3845
  624MOL0     H84175   4.269   5.920  10.804  4.8072 -1.7374  2.8841
  624MOL0     H84176   4.375   6.024  10.878 -0.0843  3.1662 -1.5055
  624MOL0     H84177   4.191   6.017  11.022  2.2323  0.3275 -1.1658
  624MOL0     H84178   4.188   6.175  10.930  0.6460  0.4683 -0.8925
  624MOL0     H84179   3.972   6.133  10.866 -0.0167  1.1362  0.8064
  624MOL0     H84180   4.021   5.979  10.787 -2.2970 -1.5369  2.0400
  624MOL0     H84181   4.005   5.858  11.008 -2.3223 -2.0377 -1.6182
  624MOL0     H84182   3.968   6.004  11.086  1.4513 -1.2360  0.1244
  624MOL0     H84183   3.757   6.012  10.925  0.1174  0.8482  3.0312
  624MOL0     H84184   3.810   5.835  10.890  0.1033 -1.5441  0.7792
  624MOL0     H84185   3.802   5.767  11.117 -1.0512 -1.6424 -0.8354
  624MOL0     H84186   3.750   5.935  11.158  0.7021 -0.2766 -0.1245
  624MOL0     H84187   3.537   5.866  11.007  0.0737 -0.0724 -1.8231
  624MOL0     H84188   3.624   5.717  10.979  2.0778 -0.9083  0.7913
  624MOL0     H84189   3.521   5.810  11.256  0.7389 -2.3524  2.2087
  624MOL0     H84190   3.597   5.650  11.225 -3.5608 -1.3732  1.3086
  624MOL0     H84191   3.261   5.819  11.209  3.4300  1.5889  1.8682
  624MOL0     H84192   3.018   5.678  11.176  0.2071  0.5378  0.2550
  624MOL0     H84193   3.028   5.761  11.020 -0.9443  0.3329  0.6946
  624MOL0     H84194   3.021   5.467  11.033 -0.1169 -1.6517 -2.1482
  624MOL0     H84195   3.020   5.580  10.897 -0.9522 -1.8393 -0.2333
  624MOL0     H84196   2.810   5.573  11.111  0.4691  1.5696  0.5472
  624MOL0     H84197   2.811   5.465  10.971  0.2384  0.1693  0.3145
  624MOL0     H84198   2.803   5.678  10.821  2.5791  0.8414 -0.2246
  624MOL0     H84199   2.819   5.784  10.951  1.7242  0.6158 -3.9925
  624MOL0     H84200   2.703   5.490  10.786 -0.4259  2.9877 -1.4784
  624MOL0     H84201   2.676   5.275  10.696  0.0727 -1.6936  0.3229
  624MOL0     H84202   2.531   5.201  10.671  2.1418 -0.1289  3.7290
  624MOL0     H84203   2.580   5.335  10.562  0.2493  1.0292  0.2545
  624MOL0     H84204   1.922   5.497  10.626  0.9232 -0.4185 -1.1544
  624MOL0     H84205   1.722   5.401  10.552 -1.5614 -0.5269  1.0231
  624MOL0     H84206   1.755   4.974  10.423 -0.3709 -3.7844  0.0032
  624MOL0     H84207   1.690   4.933  10.577  1.5236  1.7609  1.7377
  624MOL0     H84208   1.536   4.836  10.395  1.2577 -0.5348  2.9701
  624MOL0     H84209   1.459   4.955  10.487 -0.9731 -2.9869 -0.4226
  624MOL0     H84210   1.603   5.017  10.228  0.9828  0.1870  0.9886
  624MOL0     H84211   1.519   5.129  10.296  0.0294  0.5196 -1.1424
  624MOL0     H84212   1.384   4.867  10.217  4.3323 -0.6652 -0.9627
  624MOL0     H84213   1.311   5.017  10.292 -0.0271  0.5648 -1.0231
  624MOL0     H84214   1.436   5.025  10.019 -1.8088 -2.1127 -1.3700
  624MOL0     H84215   1.363   5.154  10.114  1.3639  0.0638  1.7799
  624MOL0     H84216   1.208   4.902  10.068  0.0794  1.6912  1.7832
  624MOL0     H84217   1.133   5.054  10.066  0.1607  2.9653 -0.2254
  624MOL0     H84218   1.310   4.963   9.825  1.1396  1.3583  0.0616
  624MOL0     H84219   1.263   5.125   9.842  0.7511 -0.2433 -0.5694
  624MOL0     H84220   1.040   5.082   9.826  1.2729  0.8128  0.3119
  624MOL0     H84221   1.061   4.906   9.846  2.9847 -0.0245  1.1448
  624MOL0     H84222   1.876   5.008  10.640  3.1595  0.6424 -0.3463
  624MOL0     H84223   2.072   5.104  10.737 -1.7481 -2.3116  1.2672
  624MOL0     H84224   2.229   5.545  10.921 -0.0761 -0.9947  1.9795
  624MOL0     H84225   2.394   5.696  10.987 -2.8967  0.8322 -1.2752
  624MOL0     H84226   4.450   6.252  10.833  0.7584 -0.0503 -2.1473
  624MOL0     H84227   4.463   6.490  10.865 -0.8637 -0.3723  0.9639
  624MOL0     H84228   4.590   6.974  10.807  0.2254  2.3081 -0.3317
  624MOL0     H84229   4.572   7.189  10.742 -1.0893  0.7583  0.2667
  624MOL0     H84230   4.181   7.364  10.574 -0.9778 -1.2141  1.0044
  624MOL0     H84231   4.203   7.369  10.745 -4.7308  1.0349 -1.9206
  624MOL0     H84232   4.289   7.578  10.543 -1.7805  2.5969  0.9126
  624MOL0     H84233   4.367   7.566  10.700 -1.2945 -0.4398  1.8454
  624MOL0     H84234   4.153   7.600  10.816 -0.3877 -1.0490 -0.4736
  624MOL0     H84235   4.077   7.609  10.657 -0.0595  0.9247 -0.3149
  624MOL0     H84236   4.131   7.829  10.762  1.3776 -0.3181  0.6550
  624MOL0     H84237   4.191   7.821  10.600 -4.2810  0.8478  0.2813
  624MOL0     H84238   4.540   7.868  10.837 -0.7458  1.7589  0.6388
  624MOL0     H84239   4.159   7.142  10.652 -1.3580 -0.6115  1.1197
  624MOL0     H84240   4.174   6.930  10.695 -0.9086  1.1888 -4.5234
  625MOL0     O84241   5.500   9.355   9.832  0.2658  0.7970  0.2653
  625MOL0     C84242   5.609   9.375   9.785  1.1592 -0.8299 -0.6921
  625MOL0     O84243   5.632   9.406   9.657 -1.5652 -0.5428  0.0554
  625MOL0     C84244   5.524   9.414   9.575  0.4078  0.5787  0.2037
  625MOL0     C84245   5.501   9.316   9.479  0.6264  0.0175  0.3608
  625MOL0     C84246   5.406   9.334   9.383 -0.4095  0.6411  0.3493
  625MOL0     C84247   5.306   9.432   9.387 -0.6103 -0.1399 -1.3545
  625MOL0     O84248   5.208   9.447   9.292  0.0659  0.0410  0.7633
  625MOL0     C84249   5.211   9.364   9.181 -0.7020 -0.3032 -0.0516
  625MOL0     C84250   5.095   9.398   9.092 -0.4685 -0.4225  0.2205
  625MOL0     C84251   5.096   9.545   9.035 -0.5045 -0.8022 -1.2024
  625MOL0     C84252   5.083   9.562   8.881  0.8675 -0.2677  0.3891
  625MOL0     C84253   5.083   9.708   8.839  0.5634 -0.1331 -0.1040
  625MOL0     C84254   5.137   9.719   8.690 -0.1861 -0.3077 -0.5781
  625MOL0     C84255   5.149   9.870   8.643  0.8060 -0.4204 -0.1217
  625MOL0     C84256   5.202   9.886   8.506  0.7326  0.2389  0.6375
  625MOL0     N84257   5.183  10.024   8.457  0.1059 -0.6055 -0.1311
  625MOL0     C84258   5.064  10.092   8.442  0.3497  0.6702 -0.5973
  625MOL0     C84259   5.084  10.225   8.439 -0.6264 -0.2315 -0.0354
  625MOL0     C84260   4.995  10.344   8.445  1.1023  0.7821  0.1445
  625MOL0     C84261   4.924  10.361   8.576  0.8666 -0.3183 -0.2171
  625MOL0     C84262   5.007  10.342   8.698 -0.0555 -0.2534  0.3998
  625MOL0     C84263   5.102  10.451   8.723 -0.1945 -0.5496  0.0483
  625MOL0     O84264   5.170  10.450   8.851  0.9584 -0.8520  0.1227
  625MOL0     C84265   5.253  10.355   8.888  0.3088  0.6433 -0.5647
  625MOL0     C84266   5.279  10.338   9.025  0.1326 -0.9537 -0.1907
  625MOL0     C84267   5.362  10.239   9.073  0.2312  0.0518  0.2169
  625MOL0     C84268   5.378  10.244   9.220  0.1370  0.1101 -0.4535
  625MOL0     C84269   5.432  10.159   8.985 -0.2466  0.2953  0.0734
  625MOL0     C84270   5.498  10.035   9.031 -0.0006 -0.2680  0.7688
  625MOL0     O84271   5.502   9.934   8.938 -0.5386 -0.6541 -0.3416
  625MOL0     C84272   5.549   9.814   8.991  0.4031  0.6345  0.4914
  625MOL0     C84273   5.670   9.766   8.928  0.6327  0.7246 -0.5182
  625MOL0     C84274   5.728   9.645   8.974  1.3468 -0.2190 -0.1184
  625MOL0     C84275   5.664   9.571   9.074 -0.3153  1.0389 -0.4045
  625MOL0     O84276   5.710   9.446   9.107  0.3805 -0.6010 -0.3899
  625MOL0     C84277   5.756   9.443   9.239  0.3095  0.1058 -0.7065
  625MOL0     C84278   5.898   9.510   9.255  0.0867 -0.0409 -0.3370
  625MOL0     C84279   5.957   9.510   9.401  0.5565  0.0151 -0.6104
  625MOL0     C84280   6.088   9.586   9.405 -0.1578  0.5834 -0.7428
  625MOL0     C84281   6.161   9.566   9.542 -0.2470  0.7578 -0.0800
  625MOL0     C84282   6.281   9.661   9.557 -0.0267  0.4318 -0.0675
  625MOL0     C84283   6.251   9.811   9.580 -0.1054 -0.9104 -0.4853
  625MOL0     C84284   6.380   9.878   9.627 -0.0723  0.1682 -0.9079
  625MOL0    Cl84285   6.353  10.055   9.657 -0.0202  0.5193  0.5065
  625MOL0     C84286   5.544   9.614   9.127  0.6333  0.4610 -0.5084
  625MOL0     C84287   5.484   9.734   9.080  0.5788 -0.1071 -0.6032
  625MOL0     O84288   5.557  10.036   9.138 -0.2126  0.4545  0.2055
  625MOL0     C84289   5.414  10.172   8.851  0.1544  0.1208  0.0631
  625MOL0     C84290   5.318  10.265   8.802  0.6428 -0.1901 -0.0249
  625MOL0     N84291   5.225  10.230   8.434  0.0323  0.2322 -0.4386
  625MOL0     N84292   5.282  10.111   8.450 -0.0175  0.0387 -0.8302
  625MOL0     C84293   5.323   9.523   9.494 -0.1869  0.3321 -0.1289
  625MOL0     C84294   5.437   9.520   9.583  0.5798 -0.1216 -0.5924
  625MOL0     C84295   5.727   9.383   9.872  0.3751 -0.5620 -0.5195
  625MOL0     C84296   5.855   9.380   9.818  0.2754 -1.0618  0.6175
  625MOL0     C84297   5.963   9.375   9.897  0.3528 -1.0767  0.4322
  625MOL0     C84298   5.954   9.400  10.033 -0.0210  0.4614  0.1198
  625MOL0     O84299   6.074   9.386  10.104 -0.0126  0.1856  0.4365
  625MOL0     C84300   6.088   9.446  10.240  0.2516 -0.4892  0.8118
  625MOL0     C84301   6.056   9.340  10.336 -0.4410  0.5960  0.1829
  625MOL0     C84302   6.112   9.384  10.475  0.6904 -0.0976 -0.1583
  625MOL0     C84303   6.087   9.262  10.567  0.6059  0.9111 -0.3765
  625MOL0     C84304   6.124   9.290  10.707 -0.5791  0.6924  0.3249
  625MOL0     C84305   6.152   9.333  10.815  0.6449  0.1580 -0.1189
  625MOL0     C84306   5.832   9.414  10.094  0.9205 -0.3310 -0.2348
  625MOL0     C84307   5.713   9.409  10.018  0.0650  1.0501 -0.5383
  625MOL0     H84308   5.577   9.239   9.481  0.4230 -0.1844  0.2862
  625MOL0     H84309   5.399   9.258   9.306  0.0534  1.0348 -0.0874
  625MOL0     H84310   5.305   9.362   9.124  0.7321  1.1972  2.0859
  625MOL0     H84311   5.196   9.267   9.229 -0.8337  0.3096  1.1715
  625MOL0     H84312   5.093   9.329   9.007  2.7262 -1.1739  0.6371
  625MOL0     H84313   5.005   9.377   9.151 -0.2758  0.6122  0.9079
  625MOL0     H84314   5.020   9.612   9.076 -0.3913  1.7005 -4.7031
  625MOL0     H84315   5.195   9.584   9.061 -1.2634 -0.3110  1.1889
  625MOL0     H84316   5.170   9.509   8.840  1.6228  0.3989  1.0851
  625MOL0     H84317   4.986   9.518   8.857  0.7053 -0.4042  1.2724
  625MOL0     H84318   4.982   9.748   8.851  0.2169 -0.5846 -1.3587
  625MOL0     H84319   5.158   9.754   8.904 -0.0472  0.9249 -0.1340
  625MOL0     H84320   5.240   9.683   8.679 -0.1949 -0.1319 -1.3274
  625MOL0     H84321   5.071   9.656   8.631  0.8664 -1.1948 -0.8520
  625MOL0     H84322   5.045   9.901   8.633  1.7630  3.2885 -0.0941
  625MOL0     H84323   5.197   9.931   8.720 -1.0693  2.6022 -1.1714
  625MOL0     H84324   5.146   9.817   8.442  0.6429  1.1145 -0.2453
  625MOL0     H84325   5.305   9.849   8.493 -1.1816 -5.5991 -1.6249
  625MOL0     H84326   4.971  10.036   8.440  1.7927 -1.9551  0.3901
  625MOL0     H84327   5.055  10.432   8.418  1.6835 -0.1478 -1.7978
  625MOL0     H84328   4.929  10.332   8.358  2.5953 -0.3410 -0.8917
  625MOL0     H84329   4.836  10.296   8.589  0.0509  1.0668  1.5981
  625MOL0     H84330   4.885  10.463   8.582 -3.1736 -1.5769 -1.4080
  625MOL0     H84331   5.045  10.239   8.697  0.3093 -0.1206  0.3954
  625MOL0     H84332   4.934  10.341   8.780 -1.3495 -2.4917 -0.6704
  625MOL0     H84333   5.040  10.541   8.723  1.3187  0.5655  1.3425
  625MOL0     H84334   5.177  10.460   8.644 -0.2063  0.4666  0.1377
  625MOL0     H84335   5.226  10.403   9.094 -2.4377 -1.6260 -1.3992
  625MOL0     H84336   5.323  10.328   9.262  1.2857  0.1714  1.0294
  625MOL0     H84337   5.335  10.147   9.248 -1.8704  0.6811 -1.4113
  625MOL0     H84338   5.482  10.242   9.256 -0.2462 -2.0727  0.7203
  625MOL0     H84339   5.702   9.820   8.840  1.9214  0.0533 -0.4869
  625MOL0     H84340   5.810   9.595   8.924  1.0987  0.8893 -1.6650
  625MOL0     H84341   5.683   9.493   9.303  2.3097  3.8714 -1.1479
  625MOL0     H84342   5.761   9.336   9.261 -1.6613  0.0580 -0.3386
  625MOL0     H84343   5.963   9.474   9.174 -0.6406 -1.7204 -0.2028
  625MOL0     H84344   5.882   9.615   9.229 -0.1361  0.0283  0.0725
  625MOL0     H84345   5.975   9.407   9.433  1.6046  0.1081 -0.8526
  625MOL0     H84346   5.888   9.549   9.476  1.0401 -2.0752  1.0270
  625MOL0     H84347   6.145   9.551   9.319 -1.8892 -0.5233 -1.5111
  625MOL0     H84348   6.072   9.694   9.398  2.0845  0.9708 -0.5455
  625MOL0     H84349   6.200   9.464   9.546  0.7257  1.1635  2.7435
  625MOL0     H84350   6.090   9.577   9.624 -0.6804 -0.0847 -0.3269
  625MOL0     H84351   6.340   9.624   9.641 -0.1817  1.2274  0.4055
  625MOL0     H84352   6.347   9.640   9.473  0.3157 -0.6579  0.4585
  625MOL0     H84353   6.174   9.821   9.657  0.1695  1.1260 -0.4176
  625MOL0     H84354   6.221   9.859   9.487 -0.0191 -1.5563 -0.8498
  625MOL0     H84355   6.458   9.863   9.551  2.0270 -0.1850  1.1821
  625MOL0     H84356   6.416   9.830   9.719  0.9013  1.1018 -0.7874
  625MOL0     H84357   5.485   9.552   9.194  1.4674 -0.0706 -0.2487
  625MOL0     H84358   5.382   9.768   9.098  1.0632  0.0370  2.5025
  625MOL0     H84359   5.471  10.120   8.774 -0.8079 -0.5067 -0.2522
  625MOL0     H84360   5.295  10.261   8.696 -0.5539 -4.1609  0.2318
  625MOL0     H84361   5.265   9.613   9.511  1.7070  1.3244  1.6117
  625MOL0     H84362   5.452   9.599   9.656 -2.0679  0.7076 -0.8275
  625MOL0     H84363   5.873   9.368   9.711 -1.7527  0.4140  0.0518
  625MOL0     H84364   6.058   9.341   9.855 -0.4512 -0.7277 -1.7888
  625MOL0     H84365   6.187   9.488  10.255  0.8414 -0.3843 -2.5986
  625MOL0     H84366   6.026   9.536  10.244  1.6794  0.6559 -1.1402
  625MOL0     H84367   6.094   9.242  10.306  1.2174  1.2036  0.1549
  625MOL0     H84368   5.949   9.326  10.353  0.0817 -0.4920  3.2388
  625MOL0     H84369   6.053   9.468  10.513  1.7809  0.3278  0.6613
  625MOL0     H84370   6.219   9.408  10.473  0.4400  1.2957  1.1948
  625MOL0     H84371   6.162   9.190  10.533 -0.7615 -1.3572  1.1328
  625MOL0     H84372   5.987   9.221  10.549  1.2072 -0.8198 -0.0400
  625MOL0     H84373   6.161   9.382  10.910 -1.1535  2.5291 -1.0700
  625MOL0     H84374   5.820   9.432  10.201 -1.9247 -3.0173  0.0706
  625MOL0     H84375   5.612   9.421  10.055 -0.7469  1.7524 -2.8333
  626MOL0     O84376   3.260   8.210   6.639 -0.9785  0.5708 -0.1145
  626MOL0     C84377   3.214   8.147   6.742  0.2724  0.7001  0.3575
  626MOL0     O84378   3.098   8.186   6.801  0.0165  0.4896  0.0904
  626MOL0     C84379   3.002   8.254   6.736 -0.2344 -0.1358  0.1729
  626MOL0     C84380   2.927   8.357   6.801 -0.3009  0.6372  0.2542
  626MOL0     C84381   2.826   8.425   6.732  0.4336 -0.1935 -0.6347
  626MOL0     C84382   2.784   8.388   6.606  0.2231  0.1783  0.6810
  626MOL0     O84383   2.679   8.443   6.538  0.1004 -0.8631  0.6194
  626MOL0     C84384   2.562   8.486   6.611 -0.0104 -0.5799  0.4675
  626MOL0     C84385   2.448   8.398   6.561  0.2725 -0.6350 -0.2429
  626MOL0     C84386   2.324   8.466   6.495  0.1530  0.2671  0.1249
  626MOL0     C84387   2.220   8.375   6.449 -0.2244  0.4194  0.2626
  626MOL0     C84388   2.098   8.446   6.388 -0.1266 -1.1734 -0.5581
  626MOL0     C84389   1.991   8.349   6.359  0.7044 -0.4236  0.3221
  626MOL0     C84390   1.845   8.404   6.365  0.2410 -0.9070  0.6751
  626MOL0     C84391   1.736   8.293   6.347 -0.1987 -0.8078 -0.0268
  626MOL0     N84392   1.604   8.338   6.385  0.7951 -0.2506  0.2109
  626MOL0     C84393   1.551   8.458   6.348 -0.8796  0.1998  0.6112
  626MOL0     C84394   1.428   8.454   6.411  0.2403  0.3276 -0.4162
  626MOL0     C84395   1.318   8.558   6.419 -0.1884  0.1840  0.5072
  626MOL0     C84396   1.179   8.512   6.355 -1.8212 -0.1019 -0.0149
  626MOL0     C84397   1.090   8.631   6.307 -0.6641  0.4297  0.2423
  626MOL0     C84398   0.947   8.581   6.292  0.3021  0.3077 -0.3718
  626MOL0     O84399   0.849   8.688   6.317  0.6760 -0.1028  0.5027
  626MOL0     C84400   0.743   8.647   6.394 -1.1152 -0.1565  0.4883
  626MOL0     C84401   0.743   8.696   6.524  0.4502  0.4274 -0.2957
  626MOL0     C84402   0.642   8.661   6.617 -0.1824  0.5764 -0.1611
  626MOL0     C84403   0.666   8.720   6.761  0.6424  0.1809  0.6543
  626MOL0     C84404   0.539   8.578   6.574 -0.0587 -0.8852  0.7099
  626MOL0     C84405   0.428   8.526   6.663 -0.0391 -0.3410  0.7013
  626MOL0     O84406   0.465   8.478   6.781 -0.0425 -0.1682 -0.4794
  626MOL0     C84407   0.361   8.464   6.869 -0.5779 -0.6914  0.0197
  626MOL0     C84408   0.320   8.564   6.948  0.1052 -0.2585  0.5679
  626MOL0     C84409   0.211   8.550   7.034  1.2500 -0.2300  0.4123
  626MOL0     C84410   0.146   8.418   7.038  0.1976 -0.2338  0.1255
  626MOL0     O84411   0.031   8.400   7.111 -0.7170 -0.2298 -0.3941
  626MOL0     C84412  -0.019   8.506   7.197  0.5592  0.8219  0.2623
  626MOL0     C84413  -0.142   8.445   7.261  0.6066  0.9323 -0.3357
  626MOL0     C84414  -0.192   8.534   7.380  0.1157  0.6462  0.4411
  626MOL0     C84415  -0.133   8.492   7.509  0.7563 -0.3620  0.4795
  626MOL0     C84416  -0.237   8.488   7.630  0.0455 -1.4008 -0.3601
  626MOL0     C84417  -0.289   8.629   7.664 -0.0437 -0.3220 -0.4298
  626MOL0     C84418  -0.178   8.716   7.720  0.4943  0.1491  0.3948
  626MOL0     C84419  -0.239   8.841   7.785  0.2382 -0.2737 -1.1371
  626MOL0    Cl84420  -0.108   8.930   7.861 -0.3541  0.1017 -0.5659
  626MOL0     C84421   0.199   8.314   6.955 -0.2709 -0.2825  0.3237
  626MOL0     C84422   0.299   8.344   6.861  0.3447 -0.1804 -0.2178
  626MOL0     O84423   0.312   8.532   6.630 -0.0339 -0.0176 -0.1191
  626MOL0     C84424   0.538   8.535   6.442 -0.4356 -0.3435 -0.5966
  626MOL0     C84425   0.638   8.566   6.355  0.2161 -0.2796  0.0700
  626MOL0     N84426   1.391   8.334   6.460 -0.0344 -0.1633  0.1085
  626MOL0     N84427   1.505   8.267   6.445 -0.3100 -0.2724 -0.3765
  626MOL0     C84428   2.864   8.298   6.533  0.6535  1.0491  0.1189
  626MOL0     C84429   2.967   8.228   6.600  0.3359 -0.3732 -0.1770
  626MOL0     C84430   3.279   8.027   6.795  0.1595 -0.2652 -1.2367
  626MOL0     C84431   3.401   7.979   6.740 -0.4188  0.1651 -0.2108
  626MOL0     C84432   3.464   7.870   6.791  0.2475 -0.3151  0.7203
  626MOL0     C84433   3.408   7.800   6.901  0.3392 -0.0317 -0.2992
  626MOL0     O84434   3.460   7.674   6.932  1.1939 -0.0240  0.2811
  626MOL0     C84435   3.440   7.619   7.061 -0.0297  0.4067 -1.2767
  626MOL0     C84436   3.555   7.520   7.087  0.0034 -0.2792 -0.1719
  626MOL0     C84437   3.676   7.599   7.143  0.0179 -1.0200 -0.7096
  626MOL0     C84438   3.801   7.513   7.138 -0.6932  0.1902 -0.2775
  626MOL0     C84439   3.907   7.599   7.181 -0.4665  0.2627  0.6972
  626MOL0     C84440   4.014   7.650   7.204 -0.5562 -0.0026 -0.6678
  626MOL0     C84441   3.289   7.838   6.955  0.4790 -0.7296 -0.0877
  626MOL0     C84442   3.219   7.953   6.903  0.3908 -0.8923 -0.0432
  626MOL0     H84443   2.960   8.393   6.898  1.0288 -0.2971  0.1774
  626MOL0     H84444   2.789   8.515   6.779  1.4916 -0.1433  0.1422
  626MOL0     H84445   2.575   8.477   6.719  0.4222 -2.9263  0.2582
  626MOL0     H84446   2.537   8.589   6.581  2.1850 -0.2437 -0.4242
  626MOL0     H84447   2.482   8.322   6.490 -0.8299 -1.7687  0.4072
  626MOL0     H84448   2.414   8.344   6.649  0.4731 -2.9947 -1.5446
  626MOL0     H84449   2.278   8.531   6.570 -1.4796 -1.0589  0.3441
  626MOL0     H84450   2.355   8.526   6.409  1.4185 -2.7737 -1.7096
  626MOL0     H84451   2.266   8.310   6.374  0.6874  1.9920 -0.5814
  626MOL0     H84452   2.181   8.327   6.539 -3.1616  2.8640  0.4120
  626MOL0     H84453   2.061   8.532   6.445 -1.1727 -1.7151 -0.3976
  626MOL0     H84454   2.136   8.491   6.295  1.0183  0.9639  0.8304
  626MOL0     H84455   2.022   8.304   6.265  3.4592 -1.5180  1.6353
  626MOL0     H84456   1.991   8.269   6.433  1.3941 -0.3537  0.4088
  626MOL0     H84457   1.828   8.457   6.460 -3.6580 -0.7894  0.0573
  626MOL0     H84458   1.844   8.477   6.284 -1.5713 -0.2257  1.2708
  626MOL0     H84459   1.764   8.215   6.418  1.1001 -0.0868  0.2732
  626MOL0     H84460   1.752   8.258   6.244 -1.5301 -0.9912 -0.1887
  626MOL0     H84461   1.599   8.540   6.295 -1.5019  1.6740  2.2434
  626MOL0     H84462   1.302   8.576   6.525  0.7338 -0.1779  0.7157
  626MOL0     H84463   1.356   8.649   6.371 -1.3438  0.0748 -0.6777
  626MOL0     H84464   1.122   8.454   6.429 -0.6784 -0.8183  0.3254
  626MOL0     H84465   1.204   8.443   6.273 -0.4304 -0.1373  0.4177
  626MOL0     H84466   1.136   8.677   6.220 -1.8074 -0.3920 -0.8258
  626MOL0     H84467   1.096   8.712   6.381 -1.6336  2.5296 -1.8566
  626MOL0     H84468   0.916   8.499   6.357 -0.6718  0.6473 -0.3838
  626MOL0     H84469   0.939   8.540   6.191  0.2432  0.3859 -0.3991
  626MOL0     H84470   0.835   8.747   6.553  1.3092 -1.8414  1.3139
  626MOL0     H84471   0.648   8.644   6.838  1.1600 -0.8152 -0.1649
  626MOL0     H84472   0.765   8.767   6.771  0.7908 -0.1596  0.8301
  626MOL0     H84473   0.588   8.796   6.768  1.9762  1.4568  2.6379
  626MOL0     H84474   0.351   8.667   6.929  0.4541 -0.5571 -0.5615
  626MOL0     H84475   0.167   8.635   7.087 -1.9957 -1.1297 -0.5711
  626MOL0     H84476   0.059   8.530   7.270 -0.0772  2.0195  0.5694
  626MOL0     H84477  -0.038   8.597   7.140  2.8325  0.9535 -0.3783
  626MOL0     H84478  -0.217   8.421   7.186 -1.2289  2.1528  1.0136
  626MOL0     H84479  -0.108   8.346   7.293 -1.2776 -0.1672 -1.5638
  626MOL0     H84480  -0.295   8.499   7.384  0.3181  0.0504  4.0370
  626MOL0     H84481  -0.182   8.640   7.355  0.5337 -0.0113 -2.5102
  626MOL0     H84482  -0.094   8.390   7.496  0.3146 -0.5677  0.7497
  626MOL0     H84483  -0.054   8.555   7.551 -2.3808  1.6844  3.9069
  626MOL0     H84484  -0.195   8.450   7.723 -5.3514 -0.3024  2.9362
  626MOL0     H84485  -0.324   8.425   7.609 -3.6982  3.2056 -0.3920
  626MOL0     H84486  -0.337   8.677   7.578 -0.0866  0.6513  0.1131
  626MOL0     H84487  -0.368   8.619   7.738 -0.2065  1.5905 -0.2737
  626MOL0     H84488  -0.109   8.745   7.640  0.8449  1.0766  1.0238
  626MOL0     H84489  -0.123   8.657   7.794  1.5330  0.1870 -0.3340
  626MOL0     H84490  -0.316   8.827   7.862  1.1794  3.3865  0.7314
  626MOL0     H84491  -0.302   8.896   7.714 -4.1431 -1.9263  1.0716
  626MOL0     H84492   0.160   8.214   6.969  1.7988 -0.8180  3.0429
  626MOL0     H84493   0.331   8.271   6.787  1.1869  0.2801 -0.3217
  626MOL0     H84494   0.463   8.468   6.403 -0.1820 -1.2839  0.5055
  626MOL0     H84495   0.637   8.526   6.254  2.3281 -0.0136 -0.1149
  626MOL0     H84496   2.849   8.286   6.426  1.9440  2.1936 -0.2203
  626MOL0     H84497   3.020   8.163   6.531 -1.8368 -0.3742 -1.9866
  626MOL0     H84498   3.463   8.031   6.667 -0.3430 -0.3816 -0.5428
  626MOL0     H84499   3.548   7.833   6.733 -0.2205  0.8062 -0.7503
  626MOL0     H84500   3.443   7.698   7.137  5.1832  1.0347 -1.7803
  626MOL0     H84501   3.343   7.570   7.068 -0.4487  1.4815  2.3655
  626MOL0     H84502   3.584   7.462   6.999  2.2035 -0.5231  0.6590
  626MOL0     H84503   3.530   7.459   7.174  2.2535  0.7514  1.2743
  626MOL0     H84504   3.655   7.631   7.246  2.4021  1.9078 -0.9822
  626MOL0     H84505   3.686   7.688   7.079  0.4907  0.0997  0.8538
  626MOL0     H84506   3.823   7.482   7.035 -0.1764  0.3579 -0.2193
  626MOL0     H84507   3.798   7.434   7.213  0.3948 -0.2833 -0.7138
  626MOL0     H84508   4.107   7.700   7.219 -0.4109 -0.3126 -0.5300
  626MOL0     H84509   3.244   7.785   7.038  1.5052  1.5639  2.0779
  626MOL0     H84510   3.137   7.993   6.962  1.5944  1.3533  0.1944
  627MOL0     O84511   4.760   1.604   3.941  0.0216  0.0665 -0.4995
  627MOL0     C84512   4.815   1.495   3.912  0.0742  0.9726  0.1444
  627MOL0     O84513   4.754   1.372   3.916  0.1737  0.3239  0.0396
  627MOL0     C84514   4.613   1.371   3.919  0.6297  0.9577 -0.7118
  627MOL0     C84515   4.531   1.462   3.852 -0.2360 -0.0895  0.0776
  627MOL0     C84516   4.387   1.460   3.862  0.6003 -0.7515 -0.3060
  627MOL0     C84517   4.325   1.366   3.941  1.2203 -0.0987  0.0607
  627MOL0     O84518   4.181   1.373   3.945 -0.3646  0.1441  0.3469
  627MOL0     C84519   4.109   1.259   3.993 -0.2494  0.7002 -0.8609
  627MOL0     C84520   3.961   1.264   3.954 -0.4239 -0.5216  0.0426
  627MOL0     C84521   3.873   1.352   4.055 -0.7052 -0.0999 -0.1857
  627MOL0     C84522   3.751   1.416   3.991 -0.7622 -0.4228 -0.8508
  627MOL0     C84523   3.768   1.528   3.887  0.3957 -0.7992 -0.0029
  627MOL0     C84524   3.627   1.592   3.867  0.5514  0.3687 -0.3280
  627MOL0     C84525   3.654   1.708   3.761  0.3402  0.0886  0.2979
  627MOL0     C84526   3.523   1.760   3.708  0.5964 -0.3018  0.0913
  627MOL0     N84527   3.532   1.890   3.651 -0.8557 -0.3389 -0.3712
  627MOL0     C84528   3.528   1.928   3.512 -0.1684  0.5347  0.1561
  627MOL0     C84529   3.471   2.049   3.521 -0.5867 -0.8142  0.3832
  627MOL0     C84530   3.438   2.129   3.395  0.4708 -0.2951  0.6153
  627MOL0     C84531   3.294   2.113   3.334  0.1564  0.1203  0.3561
  627MOL0     C84532   3.252   1.975   3.277 -0.5363  0.7240 -0.9146
  627MOL0     C84533   3.114   1.938   3.328  0.0003  0.8213  0.1850
  627MOL0     O84534   3.030   2.024   3.256  0.5512 -0.2693  0.6732
  627MOL0     C84535   2.933   1.967   3.181 -0.1192 -0.2264 -0.1645
  627MOL0     C84536   2.922   2.004   3.048 -0.0898  0.1914  0.1646
  627MOL0     C84537   2.825   1.974   2.962 -1.0333 -0.0734 -0.2273
  627MOL0     C84538   2.840   2.014   2.825  0.0641 -0.2574  0.5281
  627MOL0     C84539   2.730   1.888   3.007 -0.4816  0.3714 -0.4203
  627MOL0     C84540   2.606   1.843   2.933  0.9866  0.4006 -0.1882
  627MOL0     O84541   2.488   1.810   3.010 -0.7630  0.5030  0.0864
  627MOL0     C84542   2.374   1.758   2.958  0.1049  0.0854 -0.3297
  627MOL0     C84543   2.276   1.713   3.046  0.3496  0.3768  0.1030
  627MOL0     C84544   2.161   1.653   2.998  0.2396  0.5888 -0.0678
  627MOL0     C84545   2.135   1.641   2.860 -0.6413  0.5884  0.7684
  627MOL0     O84546   2.014   1.603   2.805  0.0309  0.2578  0.0813
  627MOL0     C84547   1.902   1.617   2.899  0.5620 -0.0693  0.1435
  627MOL0     C84548   1.765   1.623   2.825 -0.0782 -0.4306  0.2643
  627MOL0     C84549   1.727   1.502   2.738 -0.3305  0.9207  0.5510
  627MOL0     C84550   1.794   1.377   2.784  0.8408  0.4449 -0.6087
  627MOL0     C84551   1.753   1.268   2.680  0.4694 -0.4461  0.4438
  627MOL0     C84552   1.826   1.266   2.549  0.4276 -0.2882 -0.1247
  627MOL0     C84553   1.978   1.226   2.570 -0.9396  0.0476 -0.3192
  627MOL0     C84554   2.064   1.214   2.443  0.4890  0.7015  0.5736
  627MOL0    Cl84555   2.222   1.193   2.508 -0.1325  0.1214  0.1995
  627MOL0     C84556   2.237   1.670   2.771  0.2126 -0.4420  0.1090
  627MOL0     C84557   2.362   1.719   2.820 -0.1089 -0.5369  0.2737
  627MOL0     O84558   2.618   1.836   2.810  0.2043 -0.0624  0.1187
  627MOL0     C84559   2.733   1.849   3.136  0.4000 -0.4539 -0.3342
  627MOL0     C84560   2.832   1.890   3.226 -0.5933  0.2967  0.3439
  627MOL0     N84561   3.457   2.094   3.652  0.1092  0.2195 -0.1730
  627MOL0     N84562   3.491   1.999   3.728 -0.0200 -0.0313 -0.0987
  627MOL0     C84563   4.402   1.282   4.026  0.9505 -0.0316 -0.2085
  627MOL0     C84564   4.548   1.283   4.013 -0.0125 -2.0850 -0.1370
  627MOL0     C84565   4.957   1.505   3.875 -1.9602 -0.1510  0.9181
  627MOL0     C84566   5.040   1.618   3.877  1.4693 -0.2020  0.5391
  627MOL0     C84567   5.178   1.621   3.838  0.9098 -0.5899 -0.8214
  627MOL0     C84568   5.237   1.507   3.798  0.7001 -0.4740 -0.1320
  627MOL0     O84569   5.363   1.493   3.766 -1.2246 -0.6056 -0.0458
  627MOL0     C84570   5.410   1.562   3.652 -0.3828 -0.3076  0.3748
  627MOL0     C84571   5.375   1.471   3.527 -0.1750  0.0000  0.0141
  627MOL0     C84572   5.393   1.557   3.399 -0.6517  0.0433  0.3701
  627MOL0     C84573   5.512   1.513   3.325 -0.6631  0.6967  1.3165
  627MOL0     C84574   5.515   1.379   3.258 -0.7126 -0.3551 -0.4576
  627MOL0     C84575   5.502   1.264   3.211 -0.8495 -0.7590 -0.5917
  627MOL0     C84576   5.159   1.391   3.798 -0.9981 -0.6099  0.3208
  627MOL0     C84577   5.024   1.382   3.831  1.0376  0.4186 -0.5351
  627MOL0     H84578   4.566   1.541   3.786 -0.1457 -0.6956 -0.6041
  627MOL0     H84579   4.322   1.529   3.809 -1.4910  0.2958  3.2670
  627MOL0     H84580   4.154   1.170   3.946  1.2107  0.8719  0.1572
  627MOL0     H84581   4.115   1.259   4.102 -0.0909  0.4851 -0.8693
  627MOL0     H84582   3.961   1.321   3.860  2.3483  0.4211  0.5460
  627MOL0     H84583   3.919   1.164   3.945  1.8583 -1.4722 -0.8284
  627MOL0     H84584   3.837   1.297   4.141 -0.0513 -0.7268 -0.2997
  627MOL0     H84585   3.936   1.438   4.080  0.2927 -0.3535 -1.6620
  627MOL0     H84586   3.690   1.349   3.931 -4.1409  0.7554  1.0220
  627MOL0     H84587   3.689   1.453   4.073 -1.9064  0.2446 -1.9856
  627MOL0     H84588   3.843   1.599   3.923  0.4378 -1.8100  2.1101
  627MOL0     H84589   3.790   1.481   3.791  0.7413 -4.2970  1.6248
  627MOL0     H84590   3.554   1.526   3.821  1.2887 -1.2117  0.6868
  627MOL0     H84591   3.589   1.628   3.963  1.0740  2.2022 -0.7726
  627MOL0     H84592   3.704   1.790   3.813  0.0067  0.3621  0.1935
  627MOL0     H84593   3.713   1.661   3.682  0.6225 -2.2138  1.7662
  627MOL0     H84594   3.448   1.759   3.788 -0.4916 -3.4831 -0.8216
  627MOL0     H84595   3.497   1.687   3.631  0.2552 -0.3214  0.2241
  627MOL0     H84596   3.554   1.869   3.425 -2.8366  1.9159 -1.7467
  627MOL0     H84597   3.447   2.238   3.406 -0.6004 -0.3332  2.3321
  627MOL0     H84598   3.510   2.096   3.320 -1.9380 -3.2545 -0.6009
  627MOL0     H84599   3.300   2.181   3.249  0.6054  0.7210  0.8625
  627MOL0     H84600   3.211   2.152   3.393 -0.6946 -0.4382 -0.4270
  627MOL0     H84601   3.323   1.893   3.293 -3.2126 -2.1488 -2.6419
  627MOL0     H84602   3.242   1.981   3.168  0.7625 -0.7447 -1.1695
  627MOL0     H84603   3.104   1.958   3.435 -0.8156 -3.9159  1.1988
  627MOL0     H84604   3.076   1.841   3.294 -2.5384  2.6225 -2.5785
  627MOL0     H84605   3.006   2.061   3.009 -0.2637 -0.1129 -0.6702
  627MOL0     H84606   2.744   2.027   2.773 -0.0967 -4.0065 -0.4121
  627MOL0     H84607   2.895   2.108   2.814 -2.4619  1.4368  1.5124
  627MOL0     H84608   2.897   1.932   2.780  1.4526  0.2802  1.2376
  627MOL0     H84609   2.286   1.748   3.148  1.5110 -2.6262  1.1351
  627MOL0     H84610   2.087   1.616   3.068 -1.0076  2.6132 -0.2580
  627MOL0     H84611   1.894   1.541   2.977 -3.4682 -1.0383 -0.9757
  627MOL0     H84612   1.919   1.715   2.945 -3.6180 -0.2656  2.5723
  627MOL0     H84613   1.682   1.638   2.894 -1.4696 -1.3633 -1.1393
  627MOL0     H84614   1.765   1.699   2.746  0.0737 -1.1680 -0.4599
  627MOL0     H84615   1.738   1.512   2.630 -2.4744 -0.0441  0.1987
  627MOL0     H84616   1.621   1.482   2.755 -0.7683  1.4878 -1.3337
  627MOL0     H84617   1.903   1.387   2.781  0.8226  0.8271 -0.0673
  627MOL0     H84618   1.764   1.349   2.885 -1.3868  0.5314 -1.2070
  627MOL0     H84619   1.647   1.263   2.654  0.1742  0.1040  1.4713
  627MOL0     H84620   1.781   1.176   2.734  0.2672 -1.0342 -0.4400
  627MOL0     H84621   1.776   1.195   2.483  3.8640 -3.0250 -0.0997
  627MOL0     H84622   1.821   1.365   2.502  1.4252  0.9586  2.1971
  627MOL0     H84623   1.984   1.129   2.621 -2.0313 -0.7449 -1.6244
  627MOL0     H84624   2.024   1.301   2.635  1.4393  0.5302 -2.3989
  627MOL0     H84625   2.050   1.307   2.388 -1.9115  0.6833  1.0377
  627MOL0     H84626   2.039   1.124   2.386  2.9421 -0.8201  1.7426
  627MOL0     H84627   2.231   1.641   2.666  3.0184 -0.8455 -0.0081
  627MOL0     H84628   2.420   1.738   2.730 -0.8639  1.8268  0.2196
  627MOL0     H84629   2.658   1.783   3.180  0.2557  1.0768  1.8908
  627MOL0     H84630   2.855   1.849   3.324  1.8412  2.9502  1.0196
  627MOL0     H84631   4.351   1.203   4.080 -2.9090  0.2349 -3.0935
  627MOL0     H84632   4.605   1.207   4.065 -0.1232 -0.8068  1.9648
  627MOL0     H84633   4.992   1.711   3.905 -0.0507  0.5856 -3.8777
  627MOL0     H84634   5.227   1.717   3.848 -1.6234  0.6654  0.2391
  627MOL0     H84635   5.357   1.657   3.637 -0.1708 -0.4804 -1.8039
  627MOL0     H84636   5.518   1.582   3.651 -0.5902  0.8727 -0.2944
  627MOL0     H84637   5.271   1.439   3.538 -0.7656  1.4323 -1.0275
  627MOL0     H84638   5.440   1.384   3.526  1.8036  1.3668  1.4599
  627MOL0     H84639   5.413   1.664   3.411  2.7433 -0.3463 -0.7963
  627MOL0     H84640   5.309   1.539   3.331  0.5036 -3.0671 -0.4271
  627MOL0     H84641   5.600   1.534   3.386 -0.3232 -1.0112  1.4516
  627MOL0     H84642   5.530   1.577   3.237  2.2901 -2.1008 -0.3413
  627MOL0     H84643   5.491   1.175   3.153 -1.5373 -1.7247  0.9540
  627MOL0     H84644   5.213   1.309   3.753 -0.6474 -1.0711  1.5450
  627MOL0     H84645   4.963   1.292   3.833 -1.9579  2.2050  3.4399
  628MOL0     O84646   4.335   2.167   1.084 -0.0172  0.2968  1.1458
  628MOL0     C84647   4.358   2.280   1.048  0.1432 -0.1557  0.0060
  628MOL0     O84648   4.290   2.392   1.071  0.8359 -0.0068  0.1625
  628MOL0     C84649   4.161   2.389   1.126  0.0283 -0.2693  0.6131
  628MOL0     C84650   4.052   2.468   1.071  0.6793  0.6724  0.6445
  628MOL0     C84651   3.932   2.488   1.135  0.4036 -0.2794  0.4346
  628MOL0     C84652   3.918   2.447   1.265  0.5112  0.0553  0.7884
  628MOL0     O84653   3.800   2.473   1.325  0.2094 -0.0113  0.2288
  628MOL0     C84654   3.815   2.559   1.446 -0.0416  0.6612  0.1729
  628MOL0     C84655   3.706   2.661   1.456  0.6673  0.0961 -0.1929
  628MOL0     C84656   3.579   2.612   1.519  0.0568 -0.5917  1.0647
  628MOL0     C84657   3.496   2.743   1.543  0.6304  0.0079 -0.2092
  628MOL0     C84658   3.363   2.734   1.618  0.1734  0.6490  0.0118
  628MOL0     C84659   3.253   2.654   1.543  0.0136 -0.2548  0.5068
  628MOL0     C84660   3.107   2.672   1.585 -0.4518 -0.4605  0.5152
  628MOL0     C84661   3.085   2.613   1.724  0.6917  0.2772 -0.5175
  628MOL0     N84662   2.935   2.603   1.753  0.0577  0.1443  0.6432
  628MOL0     C84663   2.855   2.518   1.681 -0.4939 -0.0257 -0.3791
  628MOL0     C84664   2.734   2.518   1.744 -0.3003 -0.8446 -0.4371
  628MOL0     C84665   2.608   2.441   1.702 -0.3676  0.4750 -0.6705
  628MOL0     C84666   2.517   2.522   1.616  0.0843  0.4887  0.1528
  628MOL0     C84667   2.368   2.526   1.662 -0.1884 -0.3139 -1.1868
  628MOL0     C84668   2.286   2.402   1.618  0.4143 -0.7388 -0.7439
  628MOL0     O84669   2.318   2.292   1.697 -0.3436  0.3782  0.4960
  628MOL0     C84670   2.319   2.176   1.613 -0.0301 -0.3767 -0.5879
  628MOL0     C84671   2.434   2.135   1.546 -0.4057 -0.7960  0.1722
  628MOL0     C84672   2.450   2.000   1.502  0.2637  0.5642  1.3493
  628MOL0     C84673   2.578   1.983   1.429 -0.3887 -0.2246  1.1112
  628MOL0     C84674   2.340   1.909   1.527 -0.3336  0.0581  0.4040
  628MOL0     C84675   2.343   1.768   1.474  1.0633  0.3513 -0.7256
  628MOL0     O84676   2.274   1.666   1.533  0.3299  0.6444  0.7909
  628MOL0     C84677   2.220   1.571   1.446 -0.2341 -1.0855  1.6535
  628MOL0     C84678   2.224   1.443   1.494 -0.4796  0.9044  0.3830
  628MOL0     C84679   2.172   1.333   1.422 -0.5886  0.2523  0.8074
  628MOL0     C84680   2.101   1.369   1.301 -0.7184 -0.3836  0.4262
  628MOL0     O84681   2.037   1.274   1.223 -0.4301 -0.3353  0.3101
  628MOL0     C84682   1.895   1.312   1.194 -0.5550 -0.0441 -0.5892
  628MOL0     C84683   1.803   1.186   1.165  0.1424 -0.4924 -0.7674
  628MOL0     C84684   1.658   1.225   1.156  0.0840 -0.6028 -0.1740
  628MOL0     C84685   1.561   1.105   1.148 -0.2491  0.2010  0.8840
  628MOL0     C84686   1.415   1.148   1.106 -0.1208 -0.5816  0.1812
  628MOL0     C84687   1.324   1.035   1.050 -0.1855 -0.6270  0.4423
  628MOL0     C84688   1.180   1.082   1.062  0.0491  0.1133  0.0086
  628MOL0     C84689   1.146   1.192   0.949 -0.2004  0.0308 -0.6664
  628MOL0    Cl84690   0.975   1.243   0.962  0.2869  0.3926  0.6565
  628MOL0     C84691   2.096   1.506   1.259  0.3708  0.0165  0.3689
  628MOL0     C84692   2.156   1.605   1.328  1.1981 -0.2596 -0.5729
  628MOL0     O84693   2.413   1.751   1.374 -0.1063 -0.1456 -0.3374
  628MOL0     C84694   2.225   1.957   1.593  0.5357  0.6428 -0.1381
  628MOL0     C84695   2.214   2.093   1.631  0.5913  0.1240  0.4811
  628MOL0     N84696   2.743   2.620   1.845  0.6193  0.8937 -0.9708
  628MOL0     N84697   2.865   2.650   1.859 -0.5046 -0.4005 -0.0316
  628MOL0     C84698   4.016   2.373   1.323  0.6247  0.4368 -0.5730
  628MOL0     C84699   4.135   2.334   1.256 -0.2049 -0.5623 -0.0289
  628MOL0     C84700   4.480   2.298   0.964  0.4438 -0.3628 -0.0936
  628MOL0     C84701   4.496   2.425   0.910  0.9187 -1.3900 -0.6974
  628MOL0     C84702   4.606   2.461   0.836 -0.1024  0.4448  0.3161
  628MOL0     C84703   4.712   2.366   0.818  0.1989  0.2298  1.1883
  628MOL0     O84704   4.813   2.403   0.725  0.5518 -0.2325  0.7782
  628MOL0     C84705   4.885   2.300   0.657  0.2392  0.7282 -0.0150
  628MOL0     C84706   5.024   2.329   0.697  0.9079  0.0253  0.1739
  628MOL0     C84707   5.113   2.255   0.595  1.4828 -0.0755 -0.2949
  628MOL0     C84708   5.254   2.299   0.604  0.3446  0.1214 -0.1587
  628MOL0     C84709   5.313   2.269   0.738  0.4818  0.7472 -0.1494
  628MOL0     C84710   5.374   2.245   0.841  0.8617  0.8944  1.0059
  628MOL0     C84711   4.703   2.238   0.874 -0.5745 -0.7469  0.1811
  628MOL0     C84712   4.588   2.206   0.943  0.1960  0.3108 -0.6852
  628MOL0     H84713   4.055   2.506   0.969 -1.1207  0.1863  0.3852
  628MOL0     H84714   3.851   2.530   1.076 -0.3940 -2.4268 -0.1106
  628MOL0     H84715   3.824   2.504   1.540  0.9592  0.6236  0.0653
  628MOL0     H84716   3.909   2.609   1.423  1.4894 -2.9591 -2.3705
  628MOL0     H84717   3.749   2.740   1.517  2.4562 -2.1339  1.6236
  628MOL0     H84718   3.684   2.697   1.355 -0.6666  0.6069  0.2555
  628MOL0     H84719   3.529   2.536   1.459  0.4864  0.1854 -0.3043
  628MOL0     H84720   3.598   2.565   1.616 -0.5480 -3.8054 -0.2667
  628MOL0     H84721   3.567   2.798   1.605  1.1437 -3.2761  2.3695
  628MOL0     H84722   3.471   2.796   1.450  2.6829 -1.8735 -1.9482
  628MOL0     H84723   3.387   2.692   1.717 -2.6107 -0.5110  0.2979
  628MOL0     H84724   3.329   2.835   1.643  2.4438  2.0687 -2.2790
  628MOL0     H84725   3.262   2.672   1.435  1.2631  0.0543  0.6445
  628MOL0     H84726   3.284   2.549   1.549  1.8326  0.3353  2.6941
  628MOL0     H84727   3.092   2.779   1.605  0.6034 -0.8979  4.4395
  628MOL0     H84728   3.046   2.626   1.506 -1.8964  0.9322  0.7668
  628MOL0     H84729   3.135   2.661   1.809 -0.0581  1.0566 -0.5060
  628MOL0     H84730   3.132   2.514   1.728  1.4258  0.6445  2.0399
  628MOL0     H84731   2.897   2.457   1.602  1.6044 -0.9514  1.3541
  628MOL0     H84732   2.631   2.347   1.651 -2.4030  0.1399 -1.0547
  628MOL0     H84733   2.560   2.420   1.797 -0.9688 -0.9493 -1.2655
  628MOL0     H84734   2.530   2.507   1.509  1.4835  4.2401 -0.3585
  628MOL0     H84735   2.557   2.622   1.633  0.4061  0.6758 -1.5703
  628MOL0     H84736   2.330   2.619   1.620  2.2049  0.7144 -1.2340
  628MOL0     H84737   2.368   2.515   1.771  0.3244 -1.4886 -1.2806
  628MOL0     H84738   2.304   2.385   1.512 -0.1535 -2.3573 -0.6045
  628MOL0     H84739   2.180   2.419   1.639  0.3960 -4.4211  3.6764
  628MOL0     H84740   2.511   2.211   1.543 -2.3695  1.4299  1.9215
  628MOL0     H84741   2.543   1.997   1.326 -0.9272 -1.1449  1.1586
  628MOL0     H84742   2.649   2.065   1.444  1.2281 -1.5901  1.1431
  628MOL0     H84743   2.621   1.884   1.445 -2.7578 -1.2731  1.3289
  628MOL0     H84744   2.267   1.404   1.586 -0.2668 -3.9336 -1.4396
  628MOL0     H84745   2.179   1.230   1.457  0.7597  0.8532  2.4483
  628MOL0     H84746   1.856   1.359   1.285  1.9566 -1.5744  1.4112
  628MOL0     H84747   1.889   1.377   1.106 -2.0333 -0.2876 -0.6912
  628MOL0     H84748   1.820   1.138   1.068  1.3311  2.4412 -2.1481
  628MOL0     H84749   1.827   1.118   1.247  0.9096 -1.6449 -1.8997
  628MOL0     H84750   1.640   1.289   1.069 -0.0710 -2.1286 -1.3132
  628MOL0     H84751   1.637   1.272   1.252  0.3166  0.9823 -0.8567
  628MOL0     H84752   1.602   1.031   1.078 -0.0290  2.3256 -1.3591
  628MOL0     H84753   1.564   1.051   1.243 -0.6174 -1.3937  0.0332
  628MOL0     H84754   1.430   1.227   1.032  1.3785  0.7362  1.7989
  628MOL0     H84755   1.370   1.189   1.197  1.6476 -0.8186  1.1994
  628MOL0     H84756   1.353   1.007   0.949 -0.7686 -0.3732  0.2024
  628MOL0     H84757   1.340   0.945   1.110  4.3056  0.3591  1.0684
  628MOL0     H84758   1.154   1.115   1.163  1.2908  3.7405 -0.7188
  628MOL0     H84759   1.112   0.998   1.043 -0.4889  0.8024 -1.2561
  628MOL0     H84760   1.165   1.138   0.856  0.2267 -0.6025 -0.2171
  628MOL0     H84761   1.217   1.275   0.950 -0.9256  0.6944  1.1107
  628MOL0     H84762   2.049   1.533   1.165  2.2117  0.4264 -0.4781
  628MOL0     H84763   2.150   1.711   1.308 -2.0169 -0.3169 -0.4218
  628MOL0     H84764   2.136   1.900   1.618  0.9897 -0.7630 -1.5576
  628MOL0     H84765   2.121   2.133   1.670 -0.9630 -2.2067 -0.6399
  628MOL0     H84766   4.008   2.338   1.425 -0.7809 -1.2431 -1.2033
  628MOL0     H84767   4.222   2.279   1.290  1.2279  0.8126 -1.3266
  628MOL0     H84768   4.416   2.498   0.911  0.0920 -2.2269 -2.0704
  628MOL0     H84769   4.602   2.563   0.798  1.9751  0.5147  0.1623
  628MOL0     H84770   4.858   2.198   0.687  2.9744  0.1005  0.6131
  628MOL0     H84771   4.867   2.303   0.549 -1.3963  2.6052  0.2609
  628MOL0     H84772   5.026   2.306   0.804 -0.0432  0.6440  0.3360
  628MOL0     H84773   5.032   2.436   0.678 -0.3541  0.3457  1.2965
  628MOL0     H84774   5.074   2.258   0.493  1.1229 -2.8592 -0.3257
  628MOL0     H84775   5.111   2.149   0.624 -3.2513  0.0019  0.4077
  628MOL0     H84776   5.249   2.406   0.583 -3.3210  0.6772  2.5297
  628MOL0     H84777   5.318   2.244   0.534  1.1473 -4.1309  3.4687
  628MOL0     H84778   5.426   2.219   0.931  3.1217 -1.9796 -0.9365
  628MOL0     H84779   4.786   2.167   0.877 -0.7991 -1.0017  0.6185
  628MOL0     H84780   4.599   2.101   0.970  2.2400  0.5511 -0.4404
  629MOL0     O84781   8.187   8.795   8.190 -0.2945  0.0594  0.4520
  629MOL0     C84782   8.285   8.870   8.178  0.0259  0.1443  0.2560
  629MOL0     O84783   8.271   9.010   8.156 -0.1701  0.2402 -1.0534
  629MOL0     C84784   8.148   9.067   8.152 -0.3965 -0.3923  0.1452
  629MOL0     C84785   8.036   9.018   8.073 -1.1786 -0.3110 -0.1886
  629MOL0     C84786   7.914   9.084   8.080 -0.0149  0.0441  0.0501
  629MOL0     C84787   7.903   9.207   8.158 -0.7004  0.7138  1.0081
  629MOL0     O84788   7.787   9.277   8.153 -0.3977 -0.0167  0.6688
  629MOL0     C84789   7.658   9.221   8.194  0.6340  0.3683  0.6362
  629MOL0     C84790   7.654   9.248   8.351  0.7545 -1.1008  0.3677
  629MOL0     C84791   7.538   9.179   8.426  0.9114  0.5311 -0.2666
  629MOL0     C84792   7.405   9.234   8.393  0.3513 -0.5304  0.8785
  629MOL0     C84793   7.288   9.141   8.436  0.4122  0.1083  0.1966
  629MOL0     C84794   7.152   9.208   8.412  0.4031 -0.4831 -1.4984
  629MOL0     C84795   7.049   9.098   8.424  0.2587  0.4364 -1.2884
  629MOL0     C84796   7.038   9.010   8.297  0.8623 -0.2300 -0.1114
  629MOL0     N84797   6.900   8.955   8.268  0.1211 -0.3708 -0.1582
  629MOL0     C84798   6.805   9.028   8.204 -0.5730  0.2520  0.3569
  629MOL0     C84799   6.702   8.947   8.203 -0.1690 -1.4094  0.7831
  629MOL0     C84800   6.560   8.964   8.145 -0.2063  0.3438 -0.8023
  629MOL0     C84801   6.487   9.086   8.211  0.2002 -0.6607  0.4573
  629MOL0     C84802   6.340   9.112   8.161 -0.4639  0.2324  0.6371
  629MOL0     C84803   6.248   9.020   8.225 -0.4414 -0.9222 -0.1000
  629MOL0     O84804   6.123   9.077   8.246  0.7167 -0.2973  0.1116
  629MOL0     C84805   6.054   9.117   8.132  0.5741  0.3178 -0.6943
  629MOL0     C84806   6.002   9.249   8.129 -0.0999  0.2719 -0.0324
  629MOL0     C84807   5.916   9.298   8.030 -0.4823  0.3512  0.5501
  629MOL0     C84808   5.858   9.440   8.051 -0.6252  1.0850  0.8101
  629MOL0     C84809   5.887   9.215   7.917 -0.1265  0.4851  0.6788
  629MOL0     C84810   5.807   9.257   7.804  0.3649 -0.5225 -0.1530
  629MOL0     O84811   5.834   9.208   7.678 -0.1826 -0.2558  0.5885
  629MOL0     C84812   5.731   9.173   7.597 -0.0327  0.3195  0.3233
  629MOL0     C84813   5.643   9.077   7.635  0.2349 -0.4331 -0.2769
  629MOL0     C84814   5.525   9.055   7.560  0.6622  0.1527  1.0527
  629MOL0     C84815   5.514   9.115   7.432 -0.5343 -1.0093 -1.1085
  629MOL0     O84816   5.414   9.108   7.344 -0.2577  0.2489 -0.1551
  629MOL0     C84817   5.282   9.106   7.406  0.7621 -0.4980 -0.8913
  629MOL0     C84818   5.177   9.104   7.299 -0.4253 -0.0044 -0.7617
  629MOL0     C84819   5.194   9.219   7.198  0.8496 -0.7203  0.0150
  629MOL0     C84820   5.071   9.199   7.111  0.6528  0.6427 -0.1690
  629MOL0     C84821   5.028   9.327   7.042 -0.3479  0.1388  0.1005
  629MOL0     C84822   5.130   9.385   6.948  0.3502  0.6866 -0.3579
  629MOL0     C84823   5.132   9.297   6.818  0.5709  1.0046  0.4494
  629MOL0     C84824   5.235   9.344   6.715  0.4479 -0.4875  0.5929
  629MOL0    Cl84825   5.236   9.527   6.681 -0.4363  1.1096 -0.0909
  629MOL0     C84826   5.619   9.198   7.390  0.6459  0.4120  0.1875
  629MOL0     C84827   5.725   9.228   7.470 -0.4598 -0.2616 -0.5518
  629MOL0     O84828   5.712   9.320   7.837  0.2040 -0.0099  0.2036
  629MOL0     C84829   5.944   9.085   7.917  0.3288  0.1049  0.4663
  629MOL0     C84830   6.025   9.034   8.026 -0.3878  0.6320  0.0345
  629MOL0     N84831   6.741   8.822   8.251  0.4309  0.1369  0.1964
  629MOL0     N84832   6.865   8.828   8.284  0.7620  0.7509  0.2391
  629MOL0     C84833   8.016   9.254   8.227  0.1235 -0.0338 -0.1701
  629MOL0     C84834   8.135   9.186   8.226 -0.0705 -0.5395 -1.4378
  629MOL0     C84835   8.420   8.812   8.189 -0.5352  0.0306  0.0417
  629MOL0     C84836   8.539   8.892   8.201 -0.0333  0.4491  0.4188
  629MOL0     C84837   8.667   8.834   8.227  0.0304  0.4719  0.2146
  629MOL0     C84838   8.679   8.690   8.240  0.7701  0.3947  0.1149
  629MOL0     O84839   8.802   8.623   8.243 -0.3644 -0.2717  0.4258
  629MOL0     C84840   8.913   8.696   8.190  0.4816 -0.1944 -0.3598
  629MOL0     C84841   9.035   8.606   8.159  0.1605  0.0885 -0.8429
  629MOL0     C84842   9.100   8.550   8.288 -0.2734  0.7541  0.4234
  629MOL0     C84843   9.248   8.509   8.269 -0.5239  1.6716  0.7973
  629MOL0     C84844   9.284   8.416   8.158  0.2293 -0.8555 -0.7947
  629MOL0     C84845   9.320   8.340   8.065 -0.3036 -0.5980  0.1855
  629MOL0     C84846   8.565   8.615   8.229 -0.1247  0.2120  0.1273
  629MOL0     C84847   8.446   8.673   8.191 -0.0208 -0.4725  0.1154
  629MOL0     H84848   8.043   8.928   8.012 -1.8550 -0.8643  0.5401
  629MOL0     H84849   7.833   9.035   8.026  1.0754  1.0668 -2.6589
  629MOL0     H84850   7.571   9.260   8.140  1.6859  0.5560 -1.0074
  629MOL0     H84851   7.649   9.117   8.161  0.6310  1.1624 -2.1862
  629MOL0     H84852   7.749   9.220   8.396  0.8439 -0.0038  0.8894
  629MOL0     H84853   7.640   9.356   8.366 -1.7331 -1.3247  0.1848
  629MOL0     H84854   7.544   9.073   8.401 -0.1517  0.7730 -1.7101
  629MOL0     H84855   7.545   9.185   8.535 -2.4004 -2.2399  0.2415
  629MOL0     H84856   7.401   9.325   8.454 -0.5390  2.1096 -2.7681
  629MOL0     H84857   7.395   9.262   8.288 -1.3753 -0.9117  0.9017
  629MOL0     H84858   7.287   9.050   8.375  1.7475 -1.5764  2.5478
  629MOL0     H84859   7.293   9.117   8.543 -0.9139  0.6326  0.4009
  629MOL0     H84860   7.141   9.278   8.495 -1.7837  0.3342 -2.4002
  629MOL0     H84861   7.138   9.258   8.316  1.1352  2.7207 -0.0593
  629MOL0     H84862   7.063   9.048   8.520 -1.3045  1.4544 -0.4743
  629MOL0     H84863   6.952   9.146   8.440  0.0442 -0.4584  0.3671
  629MOL0     H84864   7.093   8.916   8.312 -0.4656 -1.5142 -2.5635
  629MOL0     H84865   7.064   9.071   8.211 -1.9276 -1.1862 -1.7514
  629MOL0     H84866   6.808   9.129   8.163 -2.5965 -0.6426 -2.2558
  629MOL0     H84867   6.567   8.982   8.037  0.5229  1.1714 -0.6341
  629MOL0     H84868   6.507   8.871   8.170  1.4310 -0.2075  0.8443
  629MOL0     H84869   6.543   9.175   8.180 -2.0072 -0.1366 -2.5421
  629MOL0     H84870   6.490   9.082   8.320  0.4106 -1.8383  0.4207
  629MOL0     H84871   6.332   9.097   8.053 -0.4916 -0.8225  0.7784
  629MOL0     H84872   6.308   9.216   8.171 -2.8279 -0.5883  2.4183
  629MOL0     H84873   6.288   8.987   8.322  0.8023 -0.3198 -0.3758
  629MOL0     H84874   6.241   8.934   8.158  3.8947 -1.2746 -0.4018
  629MOL0     H84875   6.029   9.301   8.220 -1.3387 -1.5791  1.4923
  629MOL0     H84876   5.753   9.436   8.080 -0.9405 -0.1554 -0.3749
  629MOL0     H84877   5.917   9.494   8.125  1.8026  0.4047 -0.5038
  629MOL0     H84878   5.868   9.505   7.963  2.5795  3.5765  2.8002
  629MOL0     H84879   5.644   9.024   7.730 -1.6746  0.8390  0.5244
  629MOL0     H84880   5.438   9.006   7.604  0.1465  0.4539  0.3993
  629MOL0     H84881   5.263   9.022   7.474  1.7672 -0.7210 -0.8636
  629MOL0     H84882   5.276   9.200   7.461  2.6115 -0.6231 -0.4078
  629MOL0     H84883   5.169   9.009   7.245  0.5080 -0.8994  0.6032
  629MOL0     H84884   5.089   9.113   7.364  0.2237  1.4382 -0.0368
  629MOL0     H84885   5.285   9.222   7.138  1.2885  0.6091  0.6952
  629MOL0     H84886   5.190   9.305   7.265  0.0889 -1.3948  0.8703
  629MOL0     H84887   5.095   9.132   7.028 -2.3132 -2.8775  1.5386
  629MOL0     H84888   4.983   9.159   7.163 -1.9579  1.7297 -3.4322
  629MOL0     H84889   5.019   9.406   7.117 -0.8336  0.8389 -0.6819
  629MOL0     H84890   4.931   9.325   6.992  0.7428  2.2637 -2.2969
  629MOL0     H84891   5.089   9.481   6.914 -1.9660  0.0217  0.3660
  629MOL0     H84892   5.233   9.385   6.985  0.4472  1.8729 -0.5891
  629MOL0     H84893   5.037   9.297   6.764  1.3545  1.5495 -0.9938
  629MOL0     H84894   5.153   9.192   6.843 -2.1215  0.4749  0.8151
  629MOL0     H84895   5.217   9.288   6.623 -1.8187  1.9309 -0.5486
  629MOL0     H84896   5.335   9.317   6.752  0.6117 -1.3223 -0.4204
  629MOL0     H84897   5.604   9.244   7.293 -0.8686  1.3567  0.8341
  629MOL0     H84898   5.805   9.297   7.446 -1.7996  2.4078  2.1133
  629MOL0     H84899   5.935   9.015   7.835 -4.0796  0.5570  0.3229
  629MOL0     H84900   6.074   8.938   8.018 -1.8447 -0.0902 -0.6216
  629MOL0     H84901   8.019   9.352   8.273 -2.9693  0.2911 -0.4026
  629MOL0     H84902   8.216   9.233   8.282 -0.5108  1.1111 -2.1066
  629MOL0     H84903   8.534   9.000   8.209 -1.7241  0.4501 -0.2524
  629MOL0     H84904   8.754   8.898   8.237  1.2176 -1.3659  2.5144
  629MOL0     H84905   8.875   8.736   8.095 -4.1188  0.0375  1.3042
  629MOL0     H84906   8.924   8.780   8.260 -0.5264  0.7188 -1.2490
  629MOL0     H84907   9.104   8.676   8.112 -1.3340  3.1128  1.1769
  629MOL0     H84908   9.007   8.519   8.099  1.2026 -0.4582 -0.5544
  629MOL0     H84909   9.040   8.467   8.327 -1.6443  1.5111  0.0053
  629MOL0     H84910   9.104   8.626   8.368 -3.0408  0.3577  1.0486
  629MOL0     H84911   9.286   8.470   8.364  2.1267 -1.6545 -1.3795
  629MOL0     H84912   9.308   8.598   8.249  0.9501  0.6458  0.4159
  629MOL0     H84913   9.331   8.267   7.987 -1.7775 -1.2184  0.5134
  629MOL0     H84914   8.569   8.507   8.217  0.9457  0.1267  1.1092
  629MOL0     H84915   8.358   8.613   8.169  1.6232 -2.4377 -1.3793
  630MOL0     O84916   8.748  10.694   5.076  0.5808  0.4116  0.3810
  630MOL0     C84917   8.689  10.704   4.967  1.0538 -0.0224 -0.5909
  630MOL0     O84918   8.568  10.753   4.946 -0.4849  0.0606  0.1240
  630MOL0     C84919   8.511  10.820   5.048 -0.5753 -0.9278 -0.4393
  630MOL0     C84920   8.420  10.751   5.130  0.0707  0.1519  0.2428
  630MOL0     C84921   8.354  10.824   5.237 -0.2517 -0.1296  0.2316
  630MOL0     C84922   8.354  10.960   5.245  0.0793 -1.5045 -0.1569
  630MOL0     O84923   8.267  11.034   5.329 -0.7728 -0.2052 -0.2537
  630MOL0     C84924   8.265  11.168   5.305  0.0594  0.3325 -0.4476
  630MOL0     C84925   8.131  11.214   5.361  0.1147 -0.0280 -0.0361
  630MOL0     C84926   8.101  11.188   5.508  1.2923 -0.6075 -0.2594
  630MOL0     C84927   7.963  11.237   5.555 -0.2642 -0.1742 -0.1784
  630MOL0     C84928   7.923  11.206   5.698  0.9420  0.1711  0.1754
  630MOL0     C84929   7.912  11.059   5.726 -0.5771 -0.6849  0.4189
  630MOL0     C84930   7.850  11.043   5.867  0.6624  0.1819 -0.0356
  630MOL0     C84931   7.868  10.910   5.931  0.0919  0.5653  0.2494
  630MOL0     N84932   8.010  10.875   5.965  0.4581  0.8484 -0.0488
  630MOL0     C84933   8.092  10.798   5.882 -0.3757  0.1544 -0.1758
  630MOL0     C84934   8.214  10.792   5.945  0.2546  0.9139  0.3910
  630MOL0     C84935   8.334  10.717   5.899 -0.6202  0.4609 -0.4199
  630MOL0     C84936   8.395  10.777   5.775  0.1927  0.1071  0.2752
  630MOL0     C84937   8.425  10.931   5.776 -0.9411 -0.4014 -0.1669
  630MOL0     C84938   8.500  10.989   5.651 -0.0649  0.2241  0.0314
  630MOL0     O84939   8.643  11.015   5.687  0.1815 -0.2672 -0.0533
  630MOL0     C84940   8.739  11.036   5.590 -0.3444  0.6999  1.1753
  630MOL0     C84941   8.711  11.069   5.454 -0.4729 -0.2954 -0.1621
  630MOL0     C84942   8.810  11.086   5.363  0.1717  0.1433  0.5368
  630MOL0     C84943   8.777  11.131   5.224  0.1172  0.8131  0.1667
  630MOL0     C84944   8.948  11.081   5.402  0.3898 -0.1349  0.2091
  630MOL0     C84945   9.072  11.087   5.315 -0.3210 -0.5062  0.2031
  630MOL0     O84946   9.189  11.105   5.370 -0.2373  0.4214  0.0408
  630MOL0     C84947   9.294  11.090   5.279  0.0168 -0.1993  0.5964
  630MOL0     C84948   9.348  11.199   5.204 -0.7404 -0.6598  0.8781
  630MOL0     C84949   9.448  11.170   5.104 -0.8328  0.6962  0.8519
  630MOL0     C84950   9.507  11.051   5.080 -0.2768  0.3686 -0.1667
  630MOL0     O84951   9.614  11.015   4.995  0.3797 -0.3407 -0.5282
  630MOL0     C84952   9.662  11.112   4.910  0.4800  0.0497  0.1138
  630MOL0     C84953   9.778  11.028   4.852  0.2711  0.1210 -0.5798
  630MOL0     C84954   9.880  11.117   4.779  1.5128  0.7647 -0.8822
  630MOL0     C84955   9.974  11.047   4.687 -1.0012 -0.0607  0.9938
  630MOL0     C84956  10.073  11.143   4.631 -0.0220 -0.6019  0.4007
  630MOL0     C84957  10.189  11.075   4.565 -0.9401 -0.0487 -0.1102
  630MOL0     C84958  10.285  11.176   4.508  0.6867  0.0934  0.0766
  630MOL0     C84959  10.379  11.122   4.407  0.1734  0.8365  0.1808
  630MOL0    Cl84960  10.515  11.238   4.378 -0.1863  0.3056 -0.2869
  630MOL0     C84961   9.462  10.946   5.155  0.6792  0.1921  0.4852
  630MOL0     C84962   9.354  10.960   5.247 -0.2614 -0.4615 -0.3476
  630MOL0     O84963   9.051  11.054   5.203  0.0116  1.0238 -0.1853
  630MOL0     C84964   8.973  11.046   5.543  0.2028 -0.8466 -0.5596
  630MOL0     C84965   8.869  11.017   5.630  0.9034 -0.3734  0.2905
  630MOL0     N84966   8.201  10.846   6.073  0.0488  0.3925 -0.6657
  630MOL0     N84967   8.083  10.897   6.082  1.4650  0.3160  1.0919
  630MOL0     C84968   8.444  11.025   5.147  0.4775 -0.1290 -0.6836
  630MOL0     C84969   8.521  10.959   5.053 -0.4007  0.2986  0.3777
  630MOL0     C84970   8.762  10.646   4.853 -0.5942 -0.2394  0.0339
  630MOL0     C84971   8.714  10.659   4.721  0.4726  0.2852 -0.3326
  630MOL0     C84972   8.792  10.618   4.613 -0.4471 -0.1891  0.6309
  630MOL0     C84973   8.914  10.553   4.628 -0.3009 -0.0693 -0.5498
  630MOL0     O84974   8.990  10.499   4.529  0.8423  1.0272 -0.0960
  630MOL0     C84975   8.980  10.558   4.401  0.5568  0.0164  0.2737
  630MOL0     C84976   9.052  10.482   4.292 -0.5696  0.2994  0.9479
  630MOL0     C84977   9.209  10.480   4.333  0.0137  0.0101  0.0724
  630MOL0     C84978   9.267  10.618   4.319 -0.1298  0.2591 -0.1021
  630MOL0     C84979   9.405  10.611   4.276 -1.1713  0.8058  1.1630
  630MOL0     C84980   9.519  10.600   4.231 -0.3483  1.1134  0.0855
  630MOL0     C84981   8.960  10.545   4.758  0.7277 -0.0416 -0.0400
  630MOL0     C84982   8.890  10.590   4.869  1.2208 -0.2558 -0.9387
  630MOL0     H84983   8.398  10.646   5.110  0.0616  0.7840 -3.9226
  630MOL0     H84984   8.291  10.773   5.309  0.1295  0.2478  0.8448
  630MOL0     H84985   8.348  11.207   5.366 -0.8079  1.7121 -0.1133
  630MOL0     H84986   8.275  11.203   5.202 -2.8947 -0.1271 -0.9703
  630MOL0     H84987   8.117  11.322   5.348  2.0653  0.1281 -1.3753
  630MOL0     H84988   8.067  11.153   5.298 -0.6274  1.7015 -1.0378
  630MOL0     H84989   8.108  11.079   5.520 -4.0112 -1.9666 -4.9796
  630MOL0     H84990   8.178  11.241   5.564  1.9501  1.6833 -3.1532
  630MOL0     H84991   7.961  11.346   5.557  2.4219  0.0162 -2.0950
  630MOL0     H84992   7.884  11.201   5.488 -1.1215  1.0779  0.1306
  630MOL0     H84993   8.000  11.249   5.763  0.7114 -0.2944  0.7753
  630MOL0     H84994   7.823  11.246   5.719  0.8284  0.1192 -0.2622
  630MOL0     H84995   7.854  11.005   5.651  1.2883 -2.4400  0.1405
  630MOL0     H84996   8.010  11.010   5.723 -0.5325 -0.5537 -1.9717
  630MOL0     H84997   7.899  11.115   5.933  0.7557 -0.3986  0.5456
  630MOL0     H84998   7.743  11.061   5.864 -0.1700 -3.9273 -1.4033
  630MOL0     H84999   7.829  10.836   5.861  0.9628 -2.3426  2.6590
  630MOL0     H85000   7.806  10.919   6.021 -2.1582  2.3966 -1.3358
  630MOL0     H85001   8.067  10.749   5.789 -1.7696 -0.1268  0.3319
  630MOL0     H85002   8.413  10.715   5.975 -0.7347  0.1048 -0.3093
  630MOL0     H85003   8.309  10.612   5.882  1.8449 -0.4902  1.2065
  630MOL0     H85004   8.319  10.766   5.697  1.5958  0.3676 -1.1758
  630MOL0     H85005   8.485  10.719   5.756  1.0037  1.4064  0.0487
  630MOL0     H85006   8.498  10.948   5.855  1.8279 -2.7480 -2.0217
  630MOL0     H85007   8.333  10.990   5.788 -0.3476  0.4175  0.4850
  630MOL0     H85008   8.464  11.087   5.619  0.7791  0.0520 -1.5602
  630MOL0     H85009   8.499  10.914   5.571 -2.3748 -0.6670  0.7965
  630MOL0     H85010   8.604  11.072   5.433 -0.9671 -1.6619  1.8500
  630MOL0     H85011   8.802  11.053   5.151 -2.9266  0.0820 -0.2159
  630MOL0     H85012   8.673  11.157   5.205  0.6983  2.3316 -1.1879
  630MOL0     H85013   8.833  11.224   5.208 -1.8068  1.5736 -2.9067
  630MOL0     H85014   9.316  11.301   5.222  0.3018 -0.4463  1.6714
  630MOL0     H85015   9.477  11.251   5.039  0.9274  0.4713  1.2919
  630MOL0     H85016   9.591  11.134   4.830 -1.2203  1.4861  1.9215
  630MOL0     H85017   9.683  11.207   4.961 -1.7274 -0.6344  2.4813
  630MOL0     H85018   9.838  10.985   4.933 -0.5582  1.3099  0.7122
  630MOL0     H85019   9.740  10.942   4.796 -1.6548 -0.6891  1.7898
  630MOL0     H85020   9.927  11.177   4.857  0.1624 -2.6645  2.9557
  630MOL0     H85021   9.829  11.181   4.706  2.2970 -0.2978 -2.4113
  630MOL0     H85022  10.035  10.978   4.746  0.5761 -0.1133 -0.6251
  630MOL0     H85023   9.919  10.985   4.616 -1.9869 -0.9343  2.4552
  630MOL0     H85024  10.110  11.207   4.712 -1.9532  0.9716  0.0946
  630MOL0     H85025  10.022  11.208   4.560 -1.0266 -1.3544  0.4119
  630MOL0     H85026  10.235  11.007   4.638 -1.3690 -3.4165 -2.7425
  630MOL0     H85027  10.157  11.012   4.482 -3.3884  2.3673 -1.1334
  630MOL0     H85028  10.333  11.238   4.584  0.1196  0.6509 -0.0119
  630MOL0     H85029  10.232  11.254   4.453  1.5058  0.4263 -0.2711
  630MOL0     H85030  10.326  11.102   4.313  1.4496 -0.3425 -0.3351
  630MOL0     H85031  10.421  11.024   4.433  3.1684  2.6904  3.0131
  630MOL0     H85032   9.497  10.844   5.145 -1.2392 -0.3985 -0.7166
  630MOL0     H85033   9.297  10.882   5.296 -3.5204  1.6092 -0.5769
  630MOL0     H85034   9.079  11.035   5.567 -0.1878 -1.5694  0.9341
  630MOL0     H85035   8.888  10.983   5.732 -1.6464  3.0443  2.0959
  630MOL0     H85036   8.463  11.132   5.148 -2.2879  0.4360  1.1217
  630MOL0     H85037   8.599  11.008   4.996 -1.2867 -0.4916 -1.5985
  630MOL0     H85038   8.617  10.701   4.699  0.7868  0.8452 -0.6573
  630MOL0     H85039   8.748  10.654   4.521  0.2602  2.9533  1.3815
  630MOL0     H85040   8.878  10.565   4.363 -0.2937 -2.2395  1.9641
  630MOL0     H85041   9.031  10.653   4.414  1.7841 -0.8002  1.7390
  630MOL0     H85042   9.028  10.520   4.193  0.8247 -3.6845 -1.1233
  630MOL0     H85043   9.012  10.380   4.291 -1.7188  0.7232  1.2156
  630MOL0     H85044   9.246  10.421   4.248  1.1164  1.9626 -0.8663
  630MOL0     H85045   9.230  10.433   4.430 -2.4311 -0.7564  0.3109
  630MOL0     H85046   9.256  10.669   4.415 -0.3523  0.7294 -0.3737
  630MOL0     H85047   9.204  10.669   4.245  0.7693  0.1478 -0.9677
  630MOL0     H85048   9.615  10.585   4.187  0.9058  0.5009  2.8355
  630MOL0     H85049   9.051  10.490   4.777  0.3645 -1.3604 -1.8090
  630MOL0     H85050   8.932  10.580   4.969 -0.0211 -1.3152 -0.4942
  631MOL0     O85051  10.796   9.974   0.270 -0.0270  0.6636 -0.1611
  631MOL0     C85052  10.856  10.061   0.334 -0.7893 -0.4014 -0.0907
  631MOL0     O85053  10.837  10.098   0.464  0.4268 -0.0257 -0.7292
  631MOL0     C85054  10.750  10.039   0.555  0.1961 -0.7154 -1.1219
  631MOL0     C85055  10.783  10.057   0.692  0.5512 -0.5009  0.0960
  631MOL0     C85056  10.709  10.014   0.801  0.2533  0.0070 -0.4863
  631MOL0     C85057  10.588   9.951   0.767 -0.5958  1.0615 -0.5313
  631MOL0     O85058  10.492   9.922   0.862 -0.2416  0.0090  0.4782
  631MOL0     C85059  10.459   9.782   0.868 -0.1092  0.3186  0.3154
  631MOL0     C85060  10.419   9.741   1.018 -0.7001 -0.1063  0.1250
  631MOL0     C85061  10.531   9.685   1.102 -0.0380  1.0558  0.6919
  631MOL0     C85062  10.487   9.631   1.241  1.2540 -0.0761  0.5957
  631MOL0     C85063  10.614   9.601   1.333  0.1792 -0.0519  0.0788
  631MOL0     C85064  10.672   9.458   1.320  0.7374  0.2742  0.8009
  631MOL0     C85065  10.785   9.461   1.211  0.1204  0.8682  0.4192
  631MOL0     C85066  10.874   9.330   1.226  0.0530 -0.3993 -0.2839
  631MOL0     N85067  10.948   9.297   1.105  0.4697 -0.3745  0.8600
  631MOL0     C85068  10.910   9.252   0.981  0.5310 -0.0847 -0.8629
  631MOL0     C85069  11.026   9.240   0.917 -0.5824 -0.8310 -0.7012
  631MOL0     C85070  11.070   9.177   0.781 -0.2264  0.2775 -0.1811
  631MOL0     C85071  11.069   9.024   0.786 -0.7385  0.5828 -0.1094
  631MOL0     C85072  11.177   8.956   0.874  1.3788  0.3593  1.0939
  631MOL0     C85073  11.210   8.812   0.865 -0.4021 -0.1296 -0.5119
  631MOL0     O85074  11.298   8.757   0.969 -0.1417  0.8841 -0.1983
  631MOL0     C85075  11.430   8.746   0.942 -0.3236 -0.6565 -0.6585
  631MOL0     C85076  11.513   8.822   0.851  0.2093 -0.0037  0.2870
  631MOL0     C85077  11.649   8.814   0.861  0.2686 -0.2879 -0.2888
  631MOL0     C85078  11.723   8.884   0.751  0.4613  0.3267  1.0073
  631MOL0     C85079  11.717   8.731   0.955 -0.1559 -0.5351 -0.1497
  631MOL0     C85080  11.864   8.704   0.959  0.0951  0.0325 -0.1357
  631MOL0     O85081  11.934   8.701   0.839 -0.8067  0.2017 -0.4639
  631MOL0     C85082  12.073   8.710   0.841 -0.5114 -0.4514  0.2333
  631MOL0     C85083  12.140   8.623   0.754 -0.6508  0.0039 -1.0227
  631MOL0     C85084  12.277   8.617   0.755 -0.9106 -0.1924  0.4435
  631MOL0     C85085  12.358   8.698   0.839 -0.3509 -0.2153  0.2608
  631MOL0     O85086  12.490   8.676   0.837  0.1613 -0.1206  0.4201
  631MOL0     C85087  12.585   8.741   0.920  0.2090 -0.8592 -0.4433
  631MOL0     C85088  12.720   8.752   0.850  0.8283 -0.7978  0.2639
  631MOL0     C85089  12.777   8.620   0.796 -0.3361 -0.1608  0.1864
  631MOL0     C85090  12.916   8.655   0.746 -0.2976  0.4087  0.5726
  631MOL0     C85091  13.021   8.679   0.855  0.8105 -0.1756  0.8320
  631MOL0     C85092  13.154   8.654   0.789  0.0661  0.7902  0.3739
  631MOL0     C85093  13.261   8.657   0.901  0.7423 -0.3764 -0.0232
  631MOL0     C85094  13.406   8.635   0.851  0.6519 -0.1458  0.8089
  631MOL0    Cl85095  13.408   8.467   0.764 -0.4834  0.1624 -0.0173
  631MOL0     C85096  12.289   8.779   0.927  0.0106 -0.8992 -0.0548
  631MOL0     C85097  12.150   8.787   0.927 -0.0643 -0.0414  0.7383
  631MOL0     O85098  11.907   8.697   1.071 -0.0542  0.3901  0.8155
  631MOL0     C85099  11.637   8.659   1.047  0.7452  0.1337  0.0933
  631MOL0     C85100  11.497   8.668   1.031  0.2253  1.0621 -0.6216
  631MOL0     N85101  11.127   9.288   0.994  1.0536  0.1209 -0.1264
  631MOL0     N85102  11.078   9.326   1.109  0.8055  0.1400 -0.7097
  631MOL0     C85103  10.558   9.923   0.633 -0.3210 -0.2424 -1.1329
  631MOL0     C85104  10.640   9.956   0.530 -0.1285  0.5682 -0.2894
  631MOL0     C85105  10.960  10.150   0.266  0.4927  0.1721  0.5243
  631MOL0     C85106  10.957  10.152   0.128 -0.6418  0.0441 -0.2640
  631MOL0     C85107  11.047  10.228   0.051  0.1672 -0.1271  0.1379
  631MOL0     C85108  11.160  10.287   0.109 -0.5241 -0.0653 -0.5685
  631MOL0     O85109  11.244  10.372   0.047  0.3782 -0.2132  0.5256
  631MOL0     C85110  11.294  10.336  -0.080 -0.0899 -0.0861 -0.9880
  631MOL0     C85111  11.227  10.412  -0.194  0.3077  0.9512 -0.0193
  631MOL0     C85112  11.231  10.574  -0.183 -0.0858  0.4323 -0.0367
  631MOL0     C85113  11.197  10.641  -0.313 -0.4359  0.1592  1.0804
  631MOL0     C85114  11.057  10.621  -0.363 -0.7346  0.4070  0.0283
  631MOL0     C85115  10.941  10.603  -0.390  0.1999 -0.4643 -0.4166
  631MOL0     C85116  11.173  10.275   0.253 -0.0982 -0.4424  0.4192
  631MOL0     C85117  11.072  10.212   0.333 -0.5871 -0.2755  0.7736
  631MOL0     H85118  10.879  10.105   0.707 -0.7240  2.2050  0.3537
  631MOL0     H85119  10.738  10.036   0.903 -2.8437  1.9107  0.1255
  631MOL0     H85120  10.374   9.750   0.807  0.0079  0.0803  0.2731
  631MOL0     H85121  10.553   9.729   0.847  0.5811  1.5637  0.1849
  631MOL0     H85122  10.394   9.832   1.074 -1.7822 -2.2919  3.5439
  631MOL0     H85123  10.334   9.671   1.017 -3.0933  2.5426 -2.5519
  631MOL0     H85124  10.589   9.605   1.056  1.5357  0.5657  3.2997
  631MOL0     H85125  10.602   9.768   1.113  1.3021  0.1732 -0.9767
  631MOL0     H85126  10.422   9.706   1.288 -1.3148 -1.0401 -1.2082
  631MOL0     H85127  10.423   9.545   1.223  0.7009  0.4594 -0.0666
  631MOL0     H85128  10.695   9.672   1.318 -0.1647  0.0579 -1.3450
  631MOL0     H85129  10.580   9.618   1.436  0.4832  0.1415  0.1467
  631MOL0     H85130  10.719   9.426   1.414  1.9012 -3.1081 -0.7544
  631MOL0     H85131  10.593   9.384   1.305  0.2246  1.3557 -3.0410
  631MOL0     H85132  10.747   9.455   1.109  2.2549 -0.2605 -0.3799
  631MOL0     H85133  10.847   9.550   1.220  0.2986  0.7125  0.7432
  631MOL0     H85134  10.815   9.240   1.244  2.5250 -1.9084  0.8549
  631MOL0     H85135  10.949   9.347   1.304 -0.8792  1.1790  0.3149
  631MOL0     H85136  10.809   9.226   0.952  0.5875 -4.5584  1.8947
  631MOL0     H85137  10.988   9.196   0.712 -0.7791 -0.2346  0.3289
  631MOL0     H85138  11.169   9.217   0.755  1.2401  0.1619  4.3516
  631MOL0     H85139  11.092   8.992   0.684  0.6818  2.0683 -0.2915
  631MOL0     H85140  10.967   8.993   0.812 -1.1974  2.3953  0.3569
  631MOL0     H85141  11.172   8.993   0.977  0.7224  2.3998  0.3698
  631MOL0     H85142  11.265   9.001   0.826 -0.3004  0.7094 -1.8790
  631MOL0     H85143  11.249   8.780   0.769 -4.3985 -3.1706 -1.3919
  631MOL0     H85144  11.115   8.762   0.887 -1.4592  1.6123 -0.8969
  631MOL0     H85145  11.458   8.878   0.776  0.1168 -1.1947 -0.5636
  631MOL0     H85146  11.732   8.820   0.662  3.1831  2.3120 -0.2720
  631MOL0     H85147  11.677   8.981   0.732 -1.0488 -0.5372 -0.0485
  631MOL0     H85148  11.824   8.919   0.775  0.5749  2.4503 -1.9581
  631MOL0     H85149  12.080   8.554   0.696 -2.3093  1.9676 -1.7452
  631MOL0     H85150  12.327   8.546   0.690 -1.1249 -1.9284  2.0940
  631MOL0     H85151  12.551   8.840   0.953 -2.5952 -1.5538 -1.0126
  631MOL0     H85152  12.601   8.684   1.012 -0.3011 -1.8706 -0.9638
  631MOL0     H85153  12.702   8.810   0.759 -0.3733  0.0696  1.0314
  631MOL0     H85154  12.797   8.806   0.905  1.4697  3.3842 -4.0763
  631MOL0     H85155  12.722   8.592   0.706  1.5456  0.5264 -1.2514
  631MOL0     H85156  12.770   8.535   0.864  1.0582 -0.9641 -0.6317
  631MOL0     H85157  12.931   8.560   0.695 -1.7094  1.1306 -1.3054
  631MOL0     H85158  12.909   8.733   0.669 -3.9745  1.3393  1.6249
  631MOL0     H85159  13.003   8.613   0.940  0.3775 -3.8741 -1.8683
  631MOL0     H85160  13.026   8.782   0.890  1.0337  0.2299 -0.3498
  631MOL0     H85161  13.152   8.558   0.736 -1.0549  2.4529 -2.9200
  631MOL0     H85162  13.183   8.719   0.706 -0.2776  0.1364 -0.2769
  631MOL0     H85163  13.237   8.593   0.987  0.4279 -0.4683 -0.1757
  631MOL0     H85164  13.253   8.753   0.951 -3.1797  0.3982 -1.7073
  631MOL0     H85165  13.483   8.647   0.928  2.0692 -0.0388 -0.5853
  631MOL0     H85166  13.437   8.698   0.767  0.0247 -2.7422 -1.5045
  631MOL0     H85167  12.343   8.839   0.999 -1.3343  0.8183 -0.4256
  631MOL0     H85168  12.104   8.862   0.990  1.9607 -1.0784  3.6731
  631MOL0     H85169  11.668   8.597   1.130 -0.2591 -0.8137 -0.2226
  631MOL0     H85170  11.445   8.625   1.116  2.4191 -1.3184 -0.3719
  631MOL0     H85171  10.463   9.872   0.618 -1.1145  0.7430  0.2659
  631MOL0     H85172  10.617   9.923   0.429  3.0062 -0.6268 -0.7452
  631MOL0     H85173  10.882  10.090   0.079 -0.1408 -2.7042  2.1630
  631MOL0     H85174  11.040  10.216  -0.057  0.1890  1.7013 -0.0926
  631MOL0     H85175  11.401  10.354  -0.069 -0.1876 -0.3860  0.7982
  631MOL0     H85176  11.286  10.229  -0.102  5.0981 -0.8699 -0.2991
  631MOL0     H85177  11.125  10.377  -0.208  0.8006 -0.6922  0.3535
  631MOL0     H85178  11.282  10.376  -0.282  0.4218 -1.1020  0.8454
  631MOL0     H85179  11.334  10.600  -0.160  0.2098  2.7429 -3.3362
  631MOL0     H85180  11.166  10.610  -0.102 -0.3773  4.5026 -1.8852
  631MOL0     H85181  11.260  10.608  -0.396 -1.4912 -2.6636  1.3138
  631MOL0     H85182  11.214  10.749  -0.307  2.9944 -0.2197  0.2679
  631MOL0     H85183  10.836  10.585  -0.391 -0.1073  0.8704 -3.4633
  631MOL0     H85184  11.258  10.320   0.304 -1.1278  1.8889  0.2121
  631MOL0     H85185  11.087  10.196   0.439 -0.7714 -2.4375  0.5257
  632MOL0     O85186   2.904  10.680   2.331  0.2598  0.1335 -0.2987
  632MOL0     C85187   2.821  10.693   2.241 -0.3271 -0.0802  0.0587
  632MOL0     O85188   2.834  10.778   2.131 -0.1833  0.0814 -0.1542
  632MOL0     C85189   2.941  10.860   2.131 -0.1093  0.4275  0.0704
  632MOL0     C85190   2.947  10.973   2.208  0.3010  0.2059 -0.1284
  632MOL0     C85191   3.064  11.045   2.222  0.3192 -0.9271  0.3481
  632MOL0     C85192   3.182  11.007   2.154  0.0352  0.0923  0.6479
  632MOL0     O85193   3.298  11.084   2.158 -0.2484 -0.4163  0.7697
  632MOL0     C85194   3.311  11.191   2.252  0.2891 -0.0183 -0.1746
  632MOL0     C85195   3.451  11.258   2.258  0.0796 -0.4132 -0.9078
  632MOL0     C85196   3.564  11.166   2.300 -0.1511  0.6830 -0.7011
  632MOL0     C85197   3.704  11.233   2.305  0.4236 -0.3160 -0.2622
  632MOL0     C85198   3.790  11.143   2.400  0.1994 -0.3593 -0.3295
  632MOL0     C85199   3.920  11.200   2.447 -1.0253  0.2418  0.5890
  632MOL0     C85200   4.015  11.242   2.330 -0.0274  0.3264  0.0234
  632MOL0     C85201   4.090  11.121   2.273 -0.2555 -0.3934 -0.4911
  632MOL0     N85202   4.085  11.118   2.127  0.7227  0.2526  0.8208
  632MOL0     C85203   3.961  11.099   2.064  0.8456  0.0191  0.9141
  632MOL0     C85204   3.992  11.120   1.934 -0.1661  0.3405  0.5940
  632MOL0     C85205   3.911  11.117   1.823  0.0943 -0.3031  1.1962
  632MOL0     C85206   3.756  11.123   1.853  0.4783  0.2403  0.8426
  632MOL0     C85207   3.678  11.099   1.723 -0.2849  0.0774 -0.5032
  632MOL0     C85208   3.537  11.034   1.732  0.1197  0.6100  0.5897
  632MOL0     O85209   3.450  11.135   1.777 -0.2380 -0.0702  0.6081
  632MOL0     C85210   3.320  11.106   1.768  0.1403  0.6217  0.4896
  632MOL0     C85211   3.260  10.990   1.702 -0.0585 -0.6679  0.3711
  632MOL0     C85212   3.126  10.972   1.712  0.0294 -0.8394  0.2790
  632MOL0     C85213   3.074  10.848   1.649 -1.5808  0.1055  0.2013
  632MOL0     C85214   3.044  11.058   1.795  0.1998 -0.0342 -0.0499
  632MOL0     C85215   2.898  11.036   1.825  0.1473  0.2315  0.5743
  632MOL0     O85216   2.845  10.910   1.796  0.5404  0.3162 -0.3206
  632MOL0     C85217   2.710  10.888   1.812 -0.1496  0.0699  0.9469
  632MOL0     C85218   2.606  10.986   1.816  0.1343  0.5013  0.4967
  632MOL0     C85219   2.471  10.952   1.840 -0.1744  0.0232  0.1623
  632MOL0     C85220   2.445  10.823   1.873  0.0895  0.4182  0.1696
  632MOL0     O85221   2.323  10.774   1.904 -0.5321 -0.2934  0.4251
  632MOL0     C85222   2.224  10.860   1.961  0.4551  0.4844  0.3932
  632MOL0     C85223   2.117  10.790   2.047 -0.1129 -0.2854 -0.2857
  632MOL0     C85224   2.046  10.673   1.982  0.2713 -0.7203 -0.3827
  632MOL0     C85225   1.980  10.584   2.090  0.4341 -0.0553 -0.8081
  632MOL0     C85226   1.911  10.457   2.043 -0.0978  0.4961 -0.3313
  632MOL0     C85227   1.788  10.477   1.958 -0.3486  0.0109 -0.3726
  632MOL0     C85228   1.771  10.353   1.859  0.7133 -0.9003 -0.4236
  632MOL0     C85229   1.635  10.372   1.787 -0.3762 -0.1833 -0.0865
  632MOL0    Cl85230   1.610  10.246   1.665 -0.3322 -0.0236 -0.1090
  632MOL0     C85231   2.545  10.719   1.858  0.7722  0.1957  0.4585
  632MOL0     C85232   2.677  10.754   1.825 -0.0106 -0.8917 -0.3367
  632MOL0     O85233   2.837  11.134   1.875  0.0808 -0.6405 -0.5100
  632MOL0     C85234   3.107  11.169   1.854  0.4676  0.8621  0.4856
  632MOL0     C85235   3.245  11.191   1.843  0.2727  0.1530  0.0855
  632MOL0     N85236   4.125  11.141   1.918 -0.0389  0.0545  0.3346
  632MOL0     N85237   4.185  11.131   2.033  0.6534  0.6008 -0.2425
  632MOL0     C85238   3.176  10.897   2.073 -0.1161 -0.3300 -0.6956
  632MOL0     C85239   3.055  10.827   2.058 -0.4276 -0.1938 -0.9340
  632MOL0     C85240   2.685  10.640   2.260 -0.4542  0.2855 -0.0121
  632MOL0     C85241   2.667  10.533   2.345 -0.3285  0.6129  0.2506
  632MOL0     C85242   2.541  10.474   2.352  0.1116  0.6182  0.5169
  632MOL0     C85243   2.435  10.525   2.278 -0.2516 -0.1694 -0.0689
  632MOL0     O85244   2.303  10.469   2.276 -0.4362  0.2735 -0.4915
  632MOL0     C85245   2.293  10.340   2.323  1.3446  0.5668  0.2643
  632MOL0     C85246   2.182  10.270   2.246 -0.5272  0.6832 -0.0899
  632MOL0     C85247   2.169  10.123   2.295 -0.3727  0.6178  0.0893
  632MOL0     C85248   2.044  10.053   2.230  0.2950 -0.0858  0.7491
  632MOL0     C85249   1.920  10.103   2.288 -0.2731  0.7245  0.1795
  632MOL0     C85250   1.817  10.123   2.352 -0.7297 -0.2449  0.0530
  632MOL0     C85251   2.454  10.646   2.220  0.5373 -0.7002  0.3824
  632MOL0     C85252   2.577  10.708   2.197  0.0596  0.1094 -0.1197
  632MOL0     H85253   2.856  10.986   2.265 -0.0817 -2.0353 -0.1579
  632MOL0     H85254   3.052  11.144   2.265 -1.1440 -0.8707 -0.1142
  632MOL0     H85255   3.239  11.269   2.228 -0.7262  0.1679  2.9807
  632MOL0     H85256   3.295  11.151   2.353 -2.3821  0.7035 -0.2354
  632MOL0     H85257   3.470  11.279   2.152 -0.7280 -1.3155 -1.2469
  632MOL0     H85258   3.438  11.348   2.319 -1.4644 -2.6232  2.3000
  632MOL0     H85259   3.540  11.115   2.394  3.1600 -0.7382 -0.4989
  632MOL0     H85260   3.570  11.091   2.221 -1.5015  1.9363 -2.0617
  632MOL0     H85261   3.746  11.259   2.207 -1.2243 -1.3333 -1.2796
  632MOL0     H85262   3.690  11.327   2.360  2.3203 -1.6953  2.7808
  632MOL0     H85263   3.732  11.133   2.493 -0.2591 -2.0762 -0.7683
  632MOL0     H85264   3.788  11.043   2.355 -1.4533 -1.4137  1.8897
  632MOL0     H85265   3.904  11.282   2.517  2.1315 -1.1543  3.2528
  632MOL0     H85266   3.970  11.124   2.508 -1.5479 -0.5708  0.0259
  632MOL0     H85267   3.971  11.304   2.252 -1.9069 -1.2992 -0.2786
  632MOL0     H85268   4.095  11.304   2.371  2.0741 -1.1552 -1.6185
  632MOL0     H85269   4.053  11.029   2.318 -0.9023 -0.3581 -0.9421
  632MOL0     H85270   4.199  11.127   2.281 -0.4098  1.4635  1.0125
  632MOL0     H85271   3.861  11.084   2.102 -0.3097 -4.1656 -2.8529
  632MOL0     H85272   3.938  11.208   1.767  1.9790 -0.6743  1.4584
  632MOL0     H85273   3.931  11.025   1.769  1.5241  0.5931  0.1338
  632MOL0     H85274   3.728  11.223   1.887  1.5815  0.4476  1.1804
  632MOL0     H85275   3.731  11.039   1.918 -2.3553  0.9983  0.8656
  632MOL0     H85276   3.735  11.023   1.668  0.8857 -1.3200  2.4510
  632MOL0     H85277   3.687  11.188   1.660  3.2444 -0.1792 -0.5783
  632MOL0     H85278   3.534  10.948   1.799  2.3542 -1.1428 -1.3937
  632MOL0     H85279   3.498  11.001   1.636  0.5314  2.5587 -0.3153
  632MOL0     H85280   3.311  10.917   1.640  0.9229  0.2882  0.0414
  632MOL0     H85281   3.148  10.806   1.580  0.0605  0.9670  1.3932
  632MOL0     H85282   3.052  10.778   1.730  3.5462  0.4092  2.2223
  632MOL0     H85283   2.988  10.863   1.582  0.6072  0.2152 -2.7907
  632MOL0     H85284   2.628  11.091   1.799 -1.3753  0.9021  0.8530
  632MOL0     H85285   2.389  11.024   1.842 -0.7364 -0.4903 -1.9737
  632MOL0     H85286   2.276  10.939   2.016  0.4416  1.9259 -1.5509
  632MOL0     H85287   2.188  10.916   1.875  3.0030  2.1130  0.3083
  632MOL0     H85288   2.169  10.755   2.137  0.0432 -1.7205 -0.8969
  632MOL0     H85289   2.038  10.860   2.071 -0.9998 -1.7534  1.2950
  632MOL0     H85290   2.121  10.615   1.927  1.0136 -0.5834  0.4664
  632MOL0     H85291   1.974  10.706   1.906  0.2994 -2.2656 -1.1057
  632MOL0     H85292   2.059  10.556   2.159  1.7783 -1.6326 -2.8666
  632MOL0     H85293   1.906  10.651   2.135 -0.1308 -0.4489 -1.1418
  632MOL0     H85294   1.879  10.398   2.129  1.9461  0.2179  0.2907
  632MOL0     H85295   1.994  10.408   1.990  1.8691  2.2933  0.9175
  632MOL0     H85296   1.701  10.483   2.024  1.3006 -0.7204  2.0024
  632MOL0     H85297   1.784  10.571   1.902 -2.9503  2.3458  3.2667
  632MOL0     H85298   1.776  10.256   1.910 -2.5040 -1.0845 -0.2482
  632MOL0     H85299   1.854  10.354   1.788  0.4135 -0.8276 -0.7730
  632MOL0     H85300   1.614  10.466   1.733  2.5305  0.0895 -0.9187
  632MOL0     H85301   1.550  10.358   1.854 -0.0202  1.0138  0.6500
  632MOL0     H85302   2.517  10.614   1.864  0.6593  0.1596 -0.5141
  632MOL0     H85303   2.752  10.675   1.833  0.1511 -0.6338  0.8780
  632MOL0     H85304   3.048  11.225   1.925  2.0498 -1.0312  3.4724
  632MOL0     H85305   3.298  11.269   1.897  4.0304 -1.5634 -0.8370
  632MOL0     H85306   3.266  10.860   2.025  0.0337  0.3840 -0.9801
  632MOL0     H85307   3.044  10.732   2.007 -3.1995 -0.4795 -0.0063
  632MOL0     H85308   2.748  10.502   2.410  0.8131  2.8354 -0.0047
  632MOL0     H85309   2.529  10.387   2.416 -1.5785  0.1482 -0.3834
  632MOL0     H85310   2.382  10.284   2.296 -0.0093 -1.5718 -0.0188
  632MOL0     H85311   2.277  10.349   2.431  1.3047  0.3217  0.2804
  632MOL0     H85312   2.183  10.286   2.137 -1.2733  1.7637  0.0461
  632MOL0     H85313   2.095  10.322   2.287  2.5351  3.1621  4.0359
  632MOL0     H85314   2.167  10.114   2.404 -2.2359  0.7672  0.0957
  632MOL0     H85315   2.252  10.061   2.259 -0.4221  0.1650  0.7195
  632MOL0     H85316   2.045   9.945   2.247 -4.0097 -0.2725  0.7285
  632MOL0     H85317   2.040  10.073   2.123 -1.7046 -3.7681 -0.0170
  632MOL0     H85318   1.734  10.146   2.417  0.5616  2.1160  0.9856
  632MOL0     H85319   2.376  10.702   2.170  2.7516  0.8932 -1.5143
  632MOL0     H85320   2.586  10.797   2.136 -0.8603 -1.2106 -2.2753
  633MOL0     O85321   1.150   1.631   4.905  0.0784  0.2539  0.3321
  633MOL0     C85322   1.164   1.707   4.995  0.4840  0.3492 -0.1760
  633MOL0     O85323   1.106   1.697   5.119 -0.1032 -0.7224 -0.0425
  633MOL0     C85324   1.008   1.601   5.150 -0.1334 -0.3406 -0.7020
  633MOL0     C85325   0.930   1.635   5.263 -0.3179 -0.1318 -0.6390
  633MOL0     C85326   0.831   1.543   5.309  0.5791 -0.3951  0.2288
  633MOL0     C85327   0.794   1.431   5.227  0.5680 -0.5620 -0.6560
  633MOL0     O85328   0.705   1.349   5.281  0.2823 -0.5347  0.1895
  633MOL0     C85329   0.617   1.269   5.201  0.2631 -1.2950  0.4414
  633MOL0     C85330   0.506   1.371   5.159 -0.0975  0.7361  0.5999
  633MOL0     C85331   0.445   1.302   5.035 -0.2952 -1.0452 -0.1870
  633MOL0     C85332   0.329   1.374   4.981  1.3441  0.2663 -0.0876
  633MOL0     C85333   0.239   1.296   4.885 -1.0938  0.3967  0.4954
  633MOL0     C85334   0.125   1.388   4.831 -0.7703 -0.2794  0.6604
  633MOL0     C85335   0.008   1.408   4.926  0.1301 -0.1979 -1.4626
  633MOL0     C85336  -0.071   1.272   4.944 -0.1290  0.1132 -0.1980
  633MOL0     N85337  -0.205   1.300   5.001 -0.1684 -0.4804  0.3121
  633MOL0     C85338  -0.286   1.405   4.965 -0.5807  0.0872 -0.2374
  633MOL0     C85339  -0.409   1.371   5.012  0.1078  0.6712 -0.0020
  633MOL0     C85340  -0.544   1.416   4.965  0.6039  0.0036 -0.0785
  633MOL0     C85341  -0.618   1.517   5.057 -1.5441  0.8936 -0.2082
  633MOL0     C85342  -0.725   1.602   4.987  0.2779 -0.3454 -0.4193
  633MOL0     C85343  -0.811   1.522   4.886  0.4623 -0.0044  0.6797
  633MOL0     O85344  -0.877   1.412   4.952 -0.5815  0.2055 -0.1097
  633MOL0     C85345  -0.988   1.424   5.028  0.0378 -0.0027 -0.7107
  633MOL0     C85346  -1.098   1.512   5.004  0.8930 -0.2443 -0.1016
  633MOL0     C85347  -1.211   1.522   5.098 -0.4509 -0.2792 -0.4927
  633MOL0     C85348  -1.321   1.623   5.074  0.8429  0.1722 -0.2199
  633MOL0     C85349  -1.207   1.434   5.210  1.0222 -0.0570 -1.0195
  633MOL0     C85350  -1.319   1.407   5.297  0.3847  0.0090  0.1670
  633MOL0     O85351  -1.287   1.345   5.418 -0.8092  0.0206 -1.0385
  633MOL0     C85352  -1.377   1.280   5.496  0.2574  0.5423 -0.2991
  633MOL0     C85353  -1.460   1.188   5.439  0.1038 -0.7088 -0.6994
  633MOL0     C85354  -1.563   1.127   5.517  0.6099  0.0123  1.2457
  633MOL0     C85355  -1.572   1.145   5.656 -1.1879  0.6756 -0.5124
  633MOL0     O85356  -1.661   1.076   5.738  0.0725  0.2305 -0.2519
  633MOL0     C85357  -1.667   0.933   5.704  0.0761  0.0088  0.1245
  633MOL0     C85358  -1.765   0.866   5.792 -0.8205 -0.7748 -0.2625
  633MOL0     C85359  -1.907   0.916   5.769  0.2933 -0.2445  0.2187
  633MOL0     C85360  -2.002   0.829   5.849  0.0286  0.2811  0.9622
  633MOL0     C85361  -2.092   0.720   5.772 -0.4081 -0.0926  0.1315
  633MOL0     C85362  -2.212   0.776   5.689 -0.0922  1.0865 -0.8852
  633MOL0     C85363  -2.308   0.870   5.762  0.3078 -1.1037  0.6081
  633MOL0     C85364  -2.413   0.918   5.671  0.6240 -0.4245  0.6681
  633MOL0    Cl85365  -2.359   1.054   5.566 -0.4352 -0.0533 -0.2912
  633MOL0     C85366  -1.478   1.245   5.717 -0.0097  0.9454  0.1330
  633MOL0     C85367  -1.383   1.305   5.638 -0.6078  0.9857  0.2600
  633MOL0     O85368  -1.433   1.424   5.258  0.2447 -0.9518 -0.2446
  633MOL0     C85369  -1.093   1.344   5.224  0.3965 -0.2919  0.0114
  633MOL0     C85370  -0.986   1.346   5.136  0.3136 -0.2972  0.1866
  633MOL0     N85371  -0.398   1.251   5.085 -0.4754  1.1161  0.8195
  633MOL0     N85372  -0.277   1.208   5.079  0.5217 -0.3228  0.8885
  633MOL0     C85373   0.875   1.399   5.124  0.3892 -0.2029 -0.1601
  633MOL0     C85374   0.977   1.483   5.084  0.1204 -0.3151 -0.4957
  633MOL0     C85375   1.267   1.809   4.992  0.2004 -0.2723  0.1682
  633MOL0     C85376   1.236   1.925   5.063  0.5079  0.4234  0.3528
  633MOL0     C85377   1.341   2.019   5.056 -0.3790 -0.6128  0.8932
  633MOL0     C85378   1.466   2.003   4.988  0.4118  0.5704  1.0912
  633MOL0     O85379   1.562   2.097   4.983 -0.5057  0.3859  0.0054
  633MOL0     C85380   1.683   2.065   5.052  0.5286  0.0187  0.5721
  633MOL0     C85381   1.794   2.135   4.961 -0.3088 -0.8809 -0.2152
  633MOL0     C85382   1.798   2.288   4.989 -0.9544  0.9783  0.0967
  633MOL0     C85383   1.917   2.353   4.911  0.2525 -0.0954 -0.7111
  633MOL0     C85384   2.053   2.330   4.963 -0.7664  0.3079  0.2902
  633MOL0     C85385   2.172   2.315   5.009 -0.9783  0.9309  1.2225
  633MOL0     C85386   1.487   1.883   4.916 -0.6184  0.3706  0.4577
  633MOL0     C85387   1.388   1.787   4.919 -0.7655 -0.1910 -0.0673
  633MOL0     H85388   0.962   1.719   5.323 -1.9755  1.1885 -1.5371
  633MOL0     H85389   0.784   1.569   5.404 -0.3846  0.8835 -0.5649
  633MOL0     H85390   0.668   1.234   5.110  2.8078  2.2173  0.2828
  633MOL0     H85391   0.578   1.185   5.260  1.3234  0.0823  3.3026
  633MOL0     H85392   0.425   1.380   5.232 -1.4935 -0.1275 -0.7834
  633MOL0     H85393   0.540   1.473   5.137 -2.8267  0.9971 -3.7473
  633MOL0     H85394   0.520   1.278   4.959  1.5310 -0.8467  1.4638
  633MOL0     H85395   0.404   1.206   5.067 -0.2160 -0.4264  1.9405
  633MOL0     H85396   0.269   1.397   5.069  2.8363  1.2580  0.7215
  633MOL0     H85397   0.352   1.468   4.930 -0.5568  0.5818 -0.4279
  633MOL0     H85398   0.292   1.246   4.804  0.9036 -0.0284  1.9753
  633MOL0     H85399   0.203   1.214   4.947  0.6403 -0.6831  0.1068
  633MOL0     H85400   0.159   1.484   4.790 -3.1190  0.0457 -0.6967
  633MOL0     H85401   0.086   1.340   4.741 -0.7667  4.3488 -2.1348
  633MOL0     H85402   0.042   1.437   5.026 -2.8061  3.4692 -1.3170
  633MOL0     H85403  -0.055   1.490   4.890  0.2603  0.1519 -0.8969
  633MOL0     H85404  -0.016   1.209   5.015  2.1731  3.7488  1.5776
  633MOL0     H85405  -0.076   1.215   4.851 -1.1656  1.1271 -0.7893
  633MOL0     H85406  -0.274   1.492   4.901 -2.7928  0.1369 -0.6787
  633MOL0     H85407  -0.513   1.461   4.870 -1.5559  2.4820  0.2705
  633MOL0     H85408  -0.605   1.328   4.946 -0.8443  1.0667 -0.5283
  633MOL0     H85409  -0.549   1.592   5.097 -2.3927  2.1622 -1.0698
  633MOL0     H85410  -0.660   1.469   5.146  1.0413 -2.8941 -0.7836
  633MOL0     H85411  -0.673   1.683   4.936  0.5704 -1.1903 -1.5134
  633MOL0     H85412  -0.802   1.646   5.051 -0.1106 -0.9776 -0.4440
  633MOL0     H85413  -0.749   1.487   4.803  0.9876  2.0990  0.1084
  633MOL0     H85414  -0.881   1.594   4.841  1.9032  1.9545  1.4243
  633MOL0     H85415  -1.098   1.571   4.913  0.9727 -0.9420 -0.5536
  633MOL0     H85416  -1.349   1.625   4.968 -3.0144 -0.8484  0.6101
  633MOL0     H85417  -1.417   1.601   5.122  1.8168 -1.3417  1.1468
  633MOL0     H85418  -1.307   1.730   5.089 -4.2595  0.7560  2.7396
  633MOL0     H85419  -1.448   1.173   5.332 -3.3401 -0.4527 -1.2510
  633MOL0     H85420  -1.626   1.055   5.466  3.1077 -2.2707  1.1266
  633MOL0     H85421  -1.693   0.914   5.599 -0.0067  0.8916 -0.0252
  633MOL0     H85422  -1.573   0.892   5.740  1.1734  1.2070 -1.2549
  633MOL0     H85423  -1.740   0.762   5.772  2.5879 -0.1934  0.2978
  633MOL0     H85424  -1.733   0.890   5.894  1.3467 -1.5562 -0.6930
  633MOL0     H85425  -1.931   0.907   5.662 -0.2159 -0.1739  0.3234
  633MOL0     H85426  -1.925   1.021   5.791 -0.7275 -0.8234  2.4257
  633MOL0     H85427  -1.944   0.775   5.925  0.7983 -1.0039 -0.4611
  633MOL0     H85428  -2.083   0.890   5.889 -2.0490 -1.7540  0.0647
  633MOL0     H85429  -2.133   0.655   5.850  0.5022 -0.1888  0.5310
  633MOL0     H85430  -2.034   0.665   5.698 -1.1057  1.8324 -1.9502
  633MOL0     H85431  -2.179   0.834   5.602  0.1758  4.4803  1.2785
  633MOL0     H85432  -2.278   0.695   5.656 -4.5358  4.4546 -1.2344
  633MOL0     H85433  -2.258   0.963   5.789  0.1350 -0.4619 -1.1501
  633MOL0     H85434  -2.358   0.832   5.851  0.1035 -4.0665 -0.6359
  633MOL0     H85435  -2.499   0.946   5.733 -2.0744 -0.8562 -2.5514
  633MOL0     H85436  -2.442   0.839   5.601  4.2733 -1.4245  0.0991
  633MOL0     H85437  -1.495   1.276   5.819 -1.4084 -1.3694  0.6753
  633MOL0     H85438  -1.303   1.372   5.671  1.4018 -1.0101 -0.3305
  633MOL0     H85439  -1.082   1.279   5.311  4.1195 -1.4596 -1.1282
  633MOL0     H85440  -0.906   1.276   5.157 -0.5950 -1.0960  1.0560
  633MOL0     H85441   0.863   1.306   5.068  1.5103 -0.3254 -0.2369
  633MOL0     H85442   1.028   1.457   4.992 -0.8250 -2.8487 -0.3856
  633MOL0     H85443   1.145   1.942   5.120  1.6476  0.8922  2.1229
  633MOL0     H85444   1.333   2.124   5.083  1.9143  0.4821 -2.0845
  633MOL0     H85445   1.682   2.111   5.151 -1.7006 -0.9276  1.0714
  633MOL0     H85446   1.698   1.957   5.056  2.8323  0.2727  0.0766
  633MOL0     H85447   1.791   2.113   4.854  0.7112 -0.4356 -0.3440
  633MOL0     H85448   1.894   2.095   4.982 -0.1784  0.1654  1.3280
  633MOL0     H85449   1.810   2.320   5.093  2.8211 -1.9749  0.8056
  633MOL0     H85450   1.700   2.325   4.958 -0.7365  1.5901  0.1218
  633MOL0     H85451   1.905   2.462   4.914  3.2240  0.3473 -1.4148
  633MOL0     H85452   1.908   2.317   4.809  0.3653 -1.9931 -0.0842
  633MOL0     H85453   2.269   2.283   5.040 -1.1471  0.5676  1.3841
  633MOL0     H85454   1.561   1.848   4.845 -2.1240 -2.1882  0.0454
  633MOL0     H85455   1.412   1.696   4.865 -0.6418 -0.5989  0.6657
  634MOL0     O85456   6.354   2.760   0.399 -0.7910  0.5042 -0.8737
  634MOL0     C85457   6.400   2.736   0.510  0.0357 -0.3478 -0.2107
  634MOL0     O85458   6.337   2.738   0.623  0.0274 -0.7993  0.2244
  634MOL0     C85459   6.206   2.787   0.614 -0.2135 -0.3041  0.7943
  634MOL0     C85460   6.107   2.697   0.609 -0.0408  0.1236 -0.5284
  634MOL0     C85461   5.977   2.741   0.573 -0.2521  0.0425 -0.0928
  634MOL0     C85462   5.936   2.874   0.591  0.3316 -0.1915 -0.3180
  634MOL0     O85463   5.808   2.896   0.583  0.4562 -0.0999 -0.1692
  634MOL0     C85464   5.746   2.991   0.667 -0.2141  0.0340 -0.1965
  634MOL0     C85465   5.613   2.953   0.725  0.6738 -0.5012  0.0578
  634MOL0     C85466   5.479   2.983   0.640 -0.2065 -0.3763  0.5266
  634MOL0     C85467   5.361   2.900   0.687 -0.9256  0.5713 -0.6533
  634MOL0     C85468   5.264   2.867   0.582  0.7311  0.0565  0.4747
  634MOL0     C85469   5.135   2.825   0.636  0.2977 -1.1321 -0.3535
  634MOL0     C85470   5.024   2.818   0.532  0.4390  0.5355  0.7588
  634MOL0     C85471   4.892   2.775   0.601 -0.2500  0.0517  0.4607
  634MOL0     N85472   4.802   2.884   0.648  0.0810 -0.3073 -0.3952
  634MOL0     C85473   4.845   3.010   0.685  0.2620  0.9803 -0.3769
  634MOL0     C85474   4.735   3.077   0.729 -0.3960  0.4900 -0.3480
  634MOL0     C85475   4.719   3.221   0.747 -0.5072 -1.1798 -0.6284
  634MOL0     C85476   4.594   3.253   0.832  0.5313  0.6513  0.3337
  634MOL0     C85477   4.536   3.393   0.816  0.3222  0.2705  0.1959
  634MOL0     C85478   4.402   3.393   0.763  0.8888  0.2498  0.7838
  634MOL0     O85479   4.359   3.527   0.754  0.1314  0.9412  0.2165
  634MOL0     C85480   4.247   3.556   0.679 -0.6478 -0.0781 -0.3011
  634MOL0     C85481   4.222   3.690   0.647 -0.1458  0.3169  0.6560
  634MOL0     C85482   4.123   3.732   0.560  0.8586 -0.6121 -0.1091
  634MOL0     C85483   4.105   3.881   0.532 -0.6323 -0.4069  0.3739
  634MOL0     C85484   4.029   3.638   0.506  0.0795  0.0201  0.2135
  634MOL0     C85485   3.899   3.667   0.428 -0.1630 -0.2339  0.0308
  634MOL0     O85486   3.814   3.566   0.430  0.0501  0.8968 -0.3038
  634MOL0     C85487   3.688   3.612   0.417 -0.9507  0.3290  0.1953
  634MOL0     C85488   3.614   3.592   0.298 -0.1842  0.4325 -0.0482
  634MOL0     C85489   3.488   3.642   0.285  0.8439 -0.2009 -0.8386
  634MOL0     C85490   3.414   3.699   0.390 -0.0652  0.9265  0.1196
  634MOL0     O85491   3.284   3.740   0.391 -0.3237  0.4370 -0.4676
  634MOL0     C85492   3.182   3.646   0.327 -0.6467 -0.5011  0.6168
  634MOL0     C85493   3.168   3.521   0.417  1.2235  0.4942 -0.2697
  634MOL0     C85494   3.049   3.529   0.515 -0.5429  0.1212  0.9526
  634MOL0     C85495   3.070   3.621   0.633  0.3653 -0.5773 -0.0954
  634MOL0     C85496   2.955   3.613   0.739 -0.2252  1.2291 -0.0850
  634MOL0     C85497   3.000   3.701   0.851  0.3427 -0.7567  0.2945
  634MOL0     C85498   2.893   3.696   0.955 -0.7722 -0.3444  0.1538
  634MOL0     C85499   2.910   3.810   1.054 -0.1195 -0.2117  1.4441
  634MOL0    Cl85500   2.778   3.814   1.177 -0.0736  0.1943  0.0051
  634MOL0     C85501   3.487   3.712   0.508  0.3407  0.3336 -0.4593
  634MOL0     C85502   3.617   3.669   0.526  0.3390  0.1835  0.7133
  634MOL0     O85503   3.875   3.780   0.381 -0.4436  0.2498 -0.1077
  634MOL0     C85504   4.051   3.503   0.543  0.6196  0.6262  0.9065
  634MOL0     C85505   4.154   3.467   0.627  0.3045  0.5917  0.2271
  634MOL0     N85506   4.635   2.990   0.726 -0.0713  0.6952  0.4096
  634MOL0     N85507   4.670   2.876   0.678 -0.6458 -0.0617  0.3128
  634MOL0     C85508   6.039   2.968   0.624  1.3693 -0.0710  0.0555
  634MOL0     C85509   6.172   2.925   0.629 -0.6317 -0.5375  0.8186
  634MOL0     C85510   6.536   2.695   0.521  0.4234  0.0025 -0.0102
  634MOL0     C85511   6.586   2.651   0.647  0.0004  0.5944 -0.0390
  634MOL0     C85512   6.728   2.608   0.659  0.5242 -1.0778  0.8103
  634MOL0     C85513   6.809   2.609   0.549 -0.5395  0.6093  0.2815
  634MOL0     O85514   6.942   2.575   0.590  0.3880  0.1691 -0.1312
  634MOL0     C85515   7.018   2.526   0.473  1.1419  0.8618  0.3146
  634MOL0     C85516   7.161   2.475   0.512  0.1397 -0.1948  0.4893
  634MOL0     C85517   7.268   2.583   0.540  0.4908 -0.2842  0.5449
  634MOL0     C85518   7.280   2.646   0.681 -0.2849  0.3113 -0.4333
  634MOL0     C85519   7.367   2.760   0.670  0.1774 -0.6719 -0.1518
  634MOL0     C85520   7.448   2.849   0.654  0.0991 -0.2500  0.5839
  634MOL0     C85521   6.758   2.657   0.419 -0.9195  1.3826 -0.4857
  634MOL0     C85522   6.626   2.700   0.412  0.1171  0.6566 -0.3509
  634MOL0     H85523   6.139   2.595   0.592  1.9691  0.7762 -0.9753
  634MOL0     H85524   5.908   2.660   0.553  0.2098 -1.5914  4.1027
  634MOL0     H85525   5.815   3.005   0.750 -1.3016  1.1904  0.5465
  634MOL0     H85526   5.753   3.087   0.614 -1.2476  0.8255  1.0440
  634MOL0     H85527   5.615   2.850   0.762 -1.4213 -0.3983  0.5966
  634MOL0     H85528   5.608   3.024   0.808 -3.8915 -0.2312 -0.1839
  634MOL0     H85529   5.447   3.087   0.638 -2.5268 -1.0602 -1.5259
  634MOL0     H85530   5.491   2.949   0.537 -4.2087  0.5850 -0.4019
  634MOL0     H85531   5.407   2.811   0.731 -0.8034  0.7655 -0.3848
  634MOL0     H85532   5.312   2.964   0.761 -2.2731 -0.8059 -0.3183
  634MOL0     H85533   5.249   2.949   0.511  1.3062 -1.7130 -1.7952
  634MOL0     H85534   5.298   2.778   0.528 -3.8464 -1.1319 -0.9355
  634MOL0     H85535   5.148   2.722   0.673 -1.4502 -1.4654 -0.5864
  634MOL0     H85536   5.095   2.885   0.718 -1.4615  1.5107 -2.9194
  634MOL0     H85537   5.010   2.917   0.488 -0.2357 -0.5066 -1.5145
  634MOL0     H85538   5.051   2.751   0.450  0.1514 -0.2606  1.3015
  634MOL0     H85539   4.918   2.711   0.685  2.3183  0.2863 -0.0816
  634MOL0     H85540   4.836   2.721   0.524  2.6352 -0.0149 -1.7456
  634MOL0     H85541   4.944   3.053   0.667  0.5590  0.7882  0.7483
  634MOL0     H85542   4.801   3.267   0.803 -1.5646  1.6069 -1.1986
  634MOL0     H85543   4.711   3.274   0.652 -2.2737 -0.0091  0.1344
  634MOL0     H85544   4.626   3.242   0.936  2.3547 -0.0575 -0.2534
  634MOL0     H85545   4.513   3.180   0.822 -0.6018  2.0187 -0.8973
  634MOL0     H85546   4.601   3.451   0.749 -0.5807 -3.2516 -4.2135
  634MOL0     H85547   4.546   3.426   0.920 -0.0911  0.3810  0.2011
  634MOL0     H85548   4.332   3.340   0.828  0.6221  0.2663  0.5147
  634MOL0     H85549   4.408   3.347   0.664  2.4762 -1.2288  1.5196
  634MOL0     H85550   4.283   3.769   0.689  0.3542  0.2813  0.0180
  634MOL0     H85551   4.008   3.920   0.563 -1.3898 -2.8711  1.2704
  634MOL0     H85552   4.196   3.931   0.567  0.6192 -2.8087  0.7112
  634MOL0     H85553   4.123   3.897   0.425  2.1858  0.4869  0.8948
  634MOL0     H85554   3.672   3.549   0.217  1.3194  1.3315  0.5127
  634MOL0     H85555   3.444   3.623   0.188 -0.6195 -0.9582 -0.0533
  634MOL0     H85556   3.086   3.698   0.334 -1.4200 -1.7036 -0.5131
  634MOL0     H85557   3.196   3.615   0.223 -3.4824 -0.5864  0.1917
  634MOL0     H85558   3.142   3.436   0.354  0.3269  0.7123 -0.2066
  634MOL0     H85559   3.260   3.489   0.467  1.0367 -1.0324 -0.8475
  634MOL0     H85560   3.041   3.428   0.558  1.0875 -1.0132 -1.2230
  634MOL0     H85561   2.961   3.560   0.458 -0.3644  0.1982  0.7229
  634MOL0     H85562   3.158   3.596   0.693  0.2825 -1.1238 -0.1962
  634MOL0     H85563   3.076   3.722   0.592  1.1947 -0.4484  0.3181
  634MOL0     H85564   2.949   3.510   0.775 -1.6243  1.2771 -0.1255
  634MOL0     H85565   2.860   3.637   0.691 -0.1549  0.1854 -0.7813
  634MOL0     H85566   3.096   3.672   0.895 -0.6960 -1.9738  1.8900
  634MOL0     H85567   3.017   3.799   0.805  4.3393 -2.4679 -2.3879
  634MOL0     H85568   2.895   3.603   1.011  0.3854  0.9170  2.3369
  634MOL0     H85569   2.797   3.707   0.903 -1.3840 -1.9158  0.9055
  634MOL0     H85570   2.908   3.903   0.996 -1.5373 -1.8515 -1.3473
  634MOL0     H85571   3.006   3.816   1.106 -0.0461  2.2507  1.1815
  634MOL0     H85572   3.446   3.773   0.588  2.4039  2.9518 -1.2396
  634MOL0     H85573   3.650   3.671   0.629  0.4799 -2.0138  0.7553
  634MOL0     H85574   3.982   3.432   0.498 -2.6428  3.9297  0.2070
  634MOL0     H85575   4.157   3.359   0.633 -1.1822  0.0848 -4.2117
  634MOL0     H85576   6.014   3.073   0.635  1.7599 -0.2476  3.6122
  634MOL0     H85577   6.255   2.995   0.636  1.4735 -2.9956  2.4511
  634MOL0     H85578   6.527   2.652   0.738 -1.1549 -0.5237 -0.7659
  634MOL0     H85579   6.772   2.580   0.754 -4.2618 -1.5950  3.1545
  634MOL0     H85580   6.965   2.446   0.421  3.0454  0.0699 -0.4717
  634MOL0     H85581   7.022   2.600   0.393  1.0854 -0.6098 -1.0899
  634MOL0     H85582   7.199   2.411   0.432  1.3528 -1.0196  1.6838
  634MOL0     H85583   7.139   2.412   0.598 -0.2361 -1.5677 -0.5771
  634MOL0     H85584   7.259   2.659   0.462  5.2078 -0.8078 -0.8595
  634MOL0     H85585   7.363   2.535   0.513  0.7441  0.7486 -0.4757
  634MOL0     H85586   7.310   2.572   0.755 -2.2823  1.1543  1.3497
  634MOL0     H85587   7.182   2.687   0.709  0.8973  1.6759  2.0262
  634MOL0     H85588   7.529   2.920   0.657  2.1928 -2.4583 -0.5876
  634MOL0     H85589   6.822   2.681   0.335 -0.4337  0.7410 -0.2992
  634MOL0     H85590   6.588   2.735   0.317  2.8877  0.1787 -1.7422
  635MOL0     O85591   8.610   7.335   7.728  0.0393 -0.5379 -0.0048
  635MOL0     C85592   8.614   7.220   7.774 -0.2993 -0.0040 -0.3369
  635MOL0     O85593   8.510   7.134   7.794  0.3263 -0.4419  0.1223
  635MOL0     C85594   8.382   7.194   7.774 -0.0734 -0.2218  0.5383
  635MOL0     C85595   8.299   7.184   7.878 -0.2346  0.1952 -0.4412
  635MOL0     C85596   8.170   7.240   7.874  1.0222  0.2081  0.5601
  635MOL0     C85597   8.127   7.295   7.755  1.0407 -0.3480 -0.9468
  635MOL0     O85598   7.997   7.341   7.761  0.4130  0.0283 -0.6147
  635MOL0     C85599   7.932   7.388   7.645  0.1970 -0.6214  0.5883
  635MOL0     C85600   7.975   7.533   7.626  0.1894  2.1783 -0.4286
  635MOL0     C85601   7.890   7.603   7.523 -0.2156 -0.5998 -0.1741
  635MOL0     C85602   7.939   7.747   7.503 -0.6302  0.1201  0.1433
  635MOL0     C85603   7.871   7.814   7.387 -0.2336 -0.9765  0.7166
  635MOL0     C85604   7.926   7.776   7.244  0.7346 -0.4829  0.7440
  635MOL0     C85605   7.837   7.841   7.132 -0.2741  0.2077 -0.9408
  635MOL0     C85606   7.906   7.962   7.073 -0.0733 -0.3592  0.1561
  635MOL0     N85607   7.815   8.030   6.982  0.4334 -0.0724  0.5358
  635MOL0     C85608   7.789   7.995   6.852  0.3549 -0.2350  0.1338
  635MOL0     C85609   7.715   8.103   6.809 -0.4420  0.0591  0.4352
  635MOL0     C85610   7.651   8.095   6.673 -0.6130 -0.0807 -0.4181
  635MOL0     C85611   7.580   7.969   6.650  0.5551 -0.1800 -0.6325
  635MOL0     C85612   7.506   7.969   6.519  0.3536  0.2443  0.9761
  635MOL0     C85613   7.376   8.052   6.534  0.7555 -0.3375 -0.3308
  635MOL0     O85614   7.289   8.003   6.637 -0.1182 -0.8150 -0.2457
  635MOL0     C85615   7.201   7.901   6.602 -0.2369 -0.7156 -0.1221
  635MOL0     C85616   7.235   7.765   6.593  0.0437  0.0276  0.1710
  635MOL0     C85617   7.150   7.659   6.564  0.2197 -0.2608 -0.3913
  635MOL0     C85618   7.203   7.520   6.547  0.7423 -0.4650  0.3276
  635MOL0     C85619   7.008   7.695   6.551 -0.6533 -0.4307  0.4304
  635MOL0     C85620   6.905   7.594   6.528 -0.2930 -0.2977  0.1858
  635MOL0     O85621   6.778   7.646   6.518  0.2652 -0.0717 -0.9793
  635MOL0     C85622   6.666   7.569   6.531  0.6475  0.6316 -0.0865
  635MOL0     C85623   6.647   7.460   6.620 -0.5782  1.1847  0.0361
  635MOL0     C85624   6.515   7.407   6.623 -0.4774  0.8833  0.3609
  635MOL0     C85625   6.412   7.462   6.552  0.8808 -0.3315 -0.1682
  635MOL0     O85626   6.276   7.430   6.569  0.4240  0.3671 -0.2348
  635MOL0     C85627   6.215   7.487   6.684  0.4050 -0.2945  0.7840
  635MOL0     C85628   6.070   7.526   6.650 -0.4141 -0.6989  0.1097
  635MOL0     C85629   5.958   7.411   6.658  0.0732  0.0688  0.2657
  635MOL0     C85630   5.809   7.457   6.644 -0.7154 -0.0887  0.6114
  635MOL0     C85631   5.775   7.462   6.493  0.3379  0.5688 -0.0630
  635MOL0     C85632   5.657   7.563   6.461 -1.4279 -0.9290 -0.2243
  635MOL0     C85633   5.577   7.534   6.341  0.0799 -0.1599  0.9750
  635MOL0     C85634   5.456   7.627   6.313 -0.0704  0.6590  0.0078
  635MOL0    Cl85635   5.335   7.570   6.429 -0.3997  0.4729  0.3004
  635MOL0     C85636   6.433   7.573   6.474  0.0674 -0.8585  0.3163
  635MOL0     C85637   6.561   7.623   6.460 -0.0960 -0.2944  0.1589
  635MOL0     O85638   6.931   7.475   6.550  0.1628 -0.2252  0.3453
  635MOL0     C85639   6.979   7.831   6.554 -0.6758 -0.1037  1.0029
  635MOL0     C85640   7.072   7.936   6.579  0.3076  0.4463 -0.0923
  635MOL0     N85641   7.701   8.196   6.913  0.2826 -0.2887  0.9551
  635MOL0     N85642   7.754   8.142   7.015 -0.0088 -0.2549  0.3902
  635MOL0     C85643   8.218   7.299   7.648  0.5199 -1.9196 -0.5918
  635MOL0     C85644   8.346   7.249   7.654  0.2628  0.2193  0.5588
  635MOL0     C85645   8.752   7.185   7.825  1.1890 -0.3691  0.6342
  635MOL0     C85646   8.867   7.241   7.762 -0.4763  0.0982 -0.1961
  635MOL0     C85647   8.996   7.209   7.804 -1.3353 -0.4897 -0.1096
  635MOL0     C85648   9.013   7.099   7.893 -0.4586 -0.8521  0.6518
  635MOL0     O85649   9.134   7.051   7.931 -0.2628  0.1407 -0.5136
  635MOL0     C85650   9.194   7.129   8.043  0.3913 -0.6519 -0.2331
  635MOL0     C85651   9.099   7.175   8.158 -0.3567 -0.0529 -0.6824
  635MOL0     C85652   9.075   7.071   8.267  0.8293 -0.4192 -1.3357
  635MOL0     C85653   8.973   7.125   8.376  0.1682  0.3176  0.6926
  635MOL0     C85654   9.037   7.224   8.455  0.0804  0.3824 -0.3354
  635MOL0     C85655   9.105   7.294   8.522 -0.4263 -0.4154  0.2002
  635MOL0     C85656   8.903   7.034   7.947  1.0277  0.6108  0.3079
  635MOL0     C85657   8.773   7.071   7.907 -0.0591  0.2034 -0.4764
  635MOL0     H85658   8.328   7.143   7.974  1.6099  3.6754  0.6571
  635MOL0     H85659   8.095   7.245   7.953  0.4403  2.3097 -0.0662
  635MOL0     H85660   7.956   7.331   7.555 -0.2120  1.7976 -1.1539
  635MOL0     H85661   7.823   7.382   7.653  0.1309 -0.1273  0.1427
  635MOL0     H85662   7.972   7.575   7.727  2.1634  1.3742  0.0137
  635MOL0     H85663   8.080   7.538   7.596  0.6661 -1.9822 -0.0619
  635MOL0     H85664   7.887   7.542   7.432 -0.0850 -0.4465 -0.2822
  635MOL0     H85665   7.785   7.605   7.555 -0.7530 -0.3005 -1.8608
  635MOL0     H85666   7.930   7.808   7.593  0.8223 -0.3479  0.6345
  635MOL0     H85667   8.046   7.752   7.482 -0.8461 -1.4784 -1.6519
  635MOL0     H85668   7.766   7.794   7.408 -1.2584  1.5601 -1.4492
  635MOL0     H85669   7.883   7.923   7.393 -0.9890 -0.9359  1.9180
  635MOL0     H85670   8.031   7.796   7.223  0.8673 -0.7227  1.1665
  635MOL0     H85671   7.917   7.667   7.240  3.3060 -0.7169 -0.2289
  635MOL0     H85672   7.827   7.776   7.045  1.7187  1.1187 -1.9217
  635MOL0     H85673   7.744   7.882   7.172  0.2277 -0.4648  1.0505
  635MOL0     H85674   7.999   7.940   7.020 -1.0662 -1.3076 -1.2592
  635MOL0     H85675   7.935   8.034   7.151  3.2068  0.3274 -1.5191
  635MOL0     H85676   7.808   7.907   6.791 -1.3158 -0.5823  0.0825
  635MOL0     H85677   7.588   8.183   6.660 -0.3908  0.1608  0.1421
  635MOL0     H85678   7.726   8.093   6.593 -1.9275  0.1947 -1.7123
  635MOL0     H85679   7.508   7.944   6.729 -1.3343 -0.9102 -2.5070
  635MOL0     H85680   7.663   7.898   6.645  1.9412  1.2955  0.0338
  635MOL0     H85681   7.487   7.866   6.489  2.1284  0.8136 -2.6535
  635MOL0     H85682   7.567   8.017   6.442 -0.8183  0.5782  0.2238
  635MOL0     H85683   7.321   8.047   6.440  2.0271 -0.5171 -1.0947
  635MOL0     H85684   7.404   8.156   6.554 -0.4012 -0.1889  0.5868
  635MOL0     H85685   7.338   7.732   6.602  0.3121 -0.3609 -3.0653
  635MOL0     H85686   7.311   7.524   6.536  0.4683  1.2466 -2.7555
  635MOL0     H85687   7.161   7.457   6.627 -0.1432  0.1067  0.3171
  635MOL0     H85688   7.165   7.482   6.452  1.8559 -1.8633  0.4045
  635MOL0     H85689   6.728   7.416   6.679 -1.5319  0.0779  0.5638
  635MOL0     H85690   6.492   7.321   6.686  0.4780  1.2947  1.3102
  635MOL0     H85691   6.211   7.426   6.775  1.5997 -2.9831 -0.8528
  635MOL0     H85692   6.264   7.582   6.705 -2.4675  1.7283 -0.9176
  635MOL0     H85693   6.042   7.615   6.707 -1.3751  0.9006 -2.6771
  635MOL0     H85694   6.072   7.561   6.546 -1.8330 -0.7762  0.0293
  635MOL0     H85695   5.973   7.354   6.750  2.0215 -1.1757 -0.7618
  635MOL0     H85696   5.983   7.343   6.576 -0.0009 -1.4993  1.5040
  635MOL0     H85697   5.750   7.372   6.681 -2.1451  0.6340  0.0907
  635MOL0     H85698   5.778   7.543   6.703 -2.3560  1.3832 -2.1545
  635MOL0     H85699   5.749   7.362   6.459 -0.0616  0.9026 -0.7714
  635MOL0     H85700   5.861   7.493   6.433  1.4253 -0.3845  0.9685
  635MOL0     H85701   5.598   7.559   6.553  1.6850  2.3089  2.1884
  635MOL0     H85702   5.704   7.662   6.458 -0.1600 -1.5342 -0.9924
  635MOL0     H85703   5.551   7.428   6.346 -0.0462 -0.2073 -0.3777
  635MOL0     H85704   5.645   7.556   6.258  0.4570  2.4419  1.8622
  635MOL0     H85705   5.419   7.613   6.211  1.3565 -1.2641 -0.2867
  635MOL0     H85706   5.477   7.734   6.319  2.2448  0.2747 -0.5593
  635MOL0     H85707   6.343   7.615   6.431  0.0740 -1.2647 -0.1057
  635MOL0     H85708   6.569   7.715   6.403  0.8636  0.5742  1.6316
  635MOL0     H85709   6.877   7.867   6.548 -0.3439  0.6253 -1.6195
  635MOL0     H85710   7.041   8.040   6.578 -0.8315  0.1794  1.7834
  635MOL0     H85711   8.192   7.346   7.553 -2.6752  0.5114  1.2997
  635MOL0     H85712   8.420   7.242   7.575 -0.8796 -1.2518 -0.4237
  635MOL0     H85713   8.869   7.314   7.681  0.9935  1.4688  1.0007
  635MOL0     H85714   9.089   7.246   7.760 -1.3865  0.7126  0.7310
  635MOL0     H85715   9.259   7.062   8.099 -0.3498 -2.3513 -1.3193
  635MOL0     H85716   9.249   7.215   8.003 -1.3725 -0.3567 -2.2188
  635MOL0     H85717   9.003   7.212   8.119  0.9474  1.3414 -2.7788
  635MOL0     H85718   9.148   7.259   8.207  2.1152 -3.0353  2.3887
  635MOL0     H85719   9.170   7.048   8.317  1.9829  1.9177 -2.2991
  635MOL0     H85720   9.030   6.984   8.219 -0.5443 -0.8698  0.6562
  635MOL0     H85721   8.937   7.049   8.445  1.8505 -2.3691 -1.1751
  635MOL0     H85722   8.890   7.179   8.329 -1.0600 -1.5793  0.5760
  635MOL0     H85723   9.166   7.343   8.595 -0.3299 -1.8241  1.1046
  635MOL0     H85724   8.901   6.959   8.025 -1.4586 -1.3966 -1.4717
  635MOL0     H85725   8.679   7.035   7.948 -0.9071  2.1109 -0.6276
  636MOL0     O85726   9.127   3.440   5.564  0.6426  0.7044 -0.2950
  636MOL0     C85727   9.204   3.373   5.632 -0.4558  0.0931  1.1021
  636MOL0     O85728   9.176   3.248   5.689 -0.1236  0.0540  0.0138
  636MOL0     C85729   9.065   3.185   5.661  0.5045 -0.4745 -0.5722
  636MOL0     C85730   9.004   3.191   5.530 -0.7999  0.1261  1.9629
  636MOL0     C85731   8.881   3.135   5.504 -0.0859 -0.3379 -0.2631
  636MOL0     C85732   8.814   3.062   5.599  0.0157 -0.2915 -0.3930
  636MOL0     O85733   8.695   3.011   5.551  0.6751 -0.0385  0.1654
  636MOL0     C85734   8.630   2.900   5.615 -0.0667  0.5436 -0.4729
  636MOL0     C85735   8.510   2.849   5.533  0.1525  0.7707 -0.3512
  636MOL0     C85736   8.565   2.803   5.394  0.9659 -0.1719 -0.5675
  636MOL0     C85737   8.460   2.740   5.316 -0.0165  0.4164  0.0460
  636MOL0     C85738   8.514   2.680   5.183  0.5558 -1.2876 -0.0160
  636MOL0     C85739   8.408   2.614   5.099  0.1299 -0.7657  0.5298
  636MOL0     C85740   8.282   2.700   5.062 -0.4262  0.9899 -0.8472
  636MOL0     C85741   8.173   2.608   5.002 -0.3713 -0.9186  1.1897
  636MOL0     N85742   8.054   2.686   4.953 -0.3505  0.5260  0.2025
  636MOL0     C85743   8.040   2.820   4.930  0.4873  1.1245 -1.9812
  636MOL0     C85744   7.918   2.842   4.884  0.5162  0.1265 -0.6800
  636MOL0     C85745   7.822   2.956   4.851 -1.0737 -0.3690 -0.2642
  636MOL0     C85746   7.773   3.028   4.971 -0.2618 -0.4261  0.2101
  636MOL0     C85747   7.677   3.133   4.946  0.8519  0.1680  0.9765
  636MOL0     C85748   7.618   3.200   5.068  0.3994  0.6316 -0.4619
  636MOL0     O85749   7.510   3.287   5.042  0.4058  0.2254 -0.0573
  636MOL0     C85750   7.394   3.246   4.981 -0.7032  0.3813 -0.4777
  636MOL0     C85751   7.301   3.342   4.930 -0.2004  0.4375  0.6471
  636MOL0     C85752   7.177   3.304   4.869  0.0969  0.6983 -0.3634
  636MOL0     C85753   7.094   3.418   4.821  0.2787 -1.0416 -0.9863
  636MOL0     C85754   7.139   3.162   4.862 -0.0152 -0.1605 -0.1039
  636MOL0     C85755   6.996   3.128   4.810 -0.0178 -0.0392 -0.2732
  636MOL0     O85756   6.962   2.994   4.820 -0.5497 -0.2533 -0.3644
  636MOL0     C85757   6.857   2.936   4.756 -0.4497  0.3595 -0.3025
  636MOL0     C85758   6.799   2.991   4.642  0.7935  0.2525 -0.8886
  636MOL0     C85759   6.695   2.920   4.568 -1.4584  0.0623 -0.2957
  636MOL0     C85760   6.644   2.800   4.628  0.1477 -0.5283  1.0059
  636MOL0     O85761   6.529   2.741   4.568  0.1257  0.0374  0.4063
  636MOL0     C85762   6.459   2.790   4.455 -0.6624 -0.1124 -0.0259
  636MOL0     C85763   6.364   2.908   4.495 -0.0154  0.5983  0.1142
  636MOL0     C85764   6.223   2.849   4.539 -0.4558 -0.6412  0.7739
  636MOL0     C85765   6.207   2.799   4.684 -0.3143 -0.1119 -0.2246
  636MOL0     C85766   6.259   2.893   4.792  0.2528 -0.6672 -0.4436
  636MOL0     C85767   6.208   2.862   4.932  0.0485  0.4158 -0.4013
  636MOL0     C85768   6.281   2.962   5.026  0.9435 -0.2214 -0.0129
  636MOL0     C85769   6.432   2.989   5.021  0.1965 -0.3660 -0.0617
  636MOL0    Cl85770   6.470   3.091   5.160 -0.4102 -0.6877 -0.3628
  636MOL0     C85771   6.694   2.760   4.754 -0.6361  0.1740  0.5997
  636MOL0     C85772   6.798   2.823   4.822  0.2204 -1.0327  0.9669
  636MOL0     O85773   6.914   3.215   4.779  0.2524  0.0625  0.7200
  636MOL0     C85774   7.239   3.064   4.907  0.2497 -0.4343 -0.0691
  636MOL0     C85775   7.357   3.104   4.968  0.1931 -1.0706  0.1535
  636MOL0     N85776   7.865   2.713   4.858  0.3801 -0.4676 -0.0530
  636MOL0     N85777   7.942   2.622   4.912  0.0396 -0.6783  0.0961
  636MOL0     C85778   8.871   3.041   5.726 -0.0708 -0.3008  0.8730
  636MOL0     C85779   8.986   3.116   5.752  0.8318 -0.0911 -1.4721
  636MOL0     C85780   9.336   3.445   5.659 -0.0620  1.3343 -0.5695
  636MOL0     C85781   9.344   3.586   5.653  0.2930 -0.8995  0.2237
  636MOL0     C85782   9.468   3.645   5.677  0.8953 -0.4853  0.6675
  636MOL0     C85783   9.591   3.583   5.700  0.0772 -0.5206 -0.2075
  636MOL0     O85784   9.701   3.666   5.706  0.1069  0.6820 -0.2360
  636MOL0     C85785   9.820   3.616   5.763  0.1025  1.1765 -0.0991
  636MOL0     C85786   9.862   3.736   5.849  0.0487  0.9918 -0.5417
  636MOL0     C85787  10.019   3.732   5.884  0.4596  0.0804 -0.0171
  636MOL0     C85788  10.045   3.824   6.004 -0.8004  0.5935  0.3150
  636MOL0     C85789  10.188   3.827   6.043 -0.6111 -0.9712  1.1768
  636MOL0     C85790  10.297   3.829   6.094 -0.7424  0.0716 -0.0423
  636MOL0     C85791   9.576   3.447   5.720 -0.1201  0.4080 -0.0530
  636MOL0     C85792   9.456   3.374   5.701  0.3608 -0.6673  0.5148
  636MOL0     H85793   9.053   3.235   5.444  2.8017 -2.3157  2.5666
  636MOL0     H85794   8.838   3.125   5.406  0.9474  0.3497 -0.8090
  636MOL0     H85795   8.702   2.818   5.612 -1.4652 -0.7530 -3.3865
  636MOL0     H85796   8.599   2.929   5.716  1.6381  1.0392 -0.0534
  636MOL0     H85797   8.458   2.776   5.595 -0.2563  1.8220  0.5659
  636MOL0     H85798   8.443   2.933   5.515  1.7238  1.6997 -2.3702
  636MOL0     H85799   8.609   2.882   5.333  1.8843  1.5549  2.1381
  636MOL0     H85800   8.640   2.724   5.406  1.7777  0.8853  1.9357
  636MOL0     H85801   8.414   2.654   5.367 -1.0104  0.2500 -1.0783
  636MOL0     H85802   8.376   2.810   5.306  0.1865  0.6932  0.3056
  636MOL0     H85803   8.532   2.776   5.133 -0.6454 -0.4389  1.0811
  636MOL0     H85804   8.606   2.622   5.192  1.6347  0.1720 -1.0235
  636MOL0     H85805   8.440   2.568   5.005 -1.3583 -0.1134 -0.3354
  636MOL0     H85806   8.365   2.536   5.163  0.1879 -1.3129 -0.0986
  636MOL0     H85807   8.250   2.744   5.156  0.4870 -1.3465  0.6490
  636MOL0     H85808   8.311   2.780   4.993 -0.4676  1.2759 -0.5314
  636MOL0     H85809   8.152   2.535   5.081  1.6031 -0.0574  2.6001
  636MOL0     H85810   8.217   2.564   4.912 -0.5158  1.3177 -0.0376
  636MOL0     H85811   8.121   2.888   4.954 -1.3518  2.1591  2.0224
  636MOL0     H85812   7.879   3.026   4.790  0.8892  0.3401  2.2284
  636MOL0     H85813   7.744   2.926   4.781  0.5917  0.7520 -2.7133
  636MOL0     H85814   7.855   3.077   5.024 -0.9863 -2.0108  3.0282
  636MOL0     H85815   7.730   2.950   5.035  0.9871 -1.6669 -0.4114
  636MOL0     H85816   7.591   3.106   4.883  1.7932  1.4408 -0.9817
  636MOL0     H85817   7.733   3.205   4.885  1.2394 -0.1270  0.9846
  636MOL0     H85818   7.704   3.250   5.114 -0.3060  1.9485 -0.5085
  636MOL0     H85819   7.581   3.124   5.137 -0.3908 -0.5956 -2.1768
  636MOL0     H85820   7.340   3.442   4.949  0.8736  0.1764 -0.1251
  636MOL0     H85821   7.134   3.518   4.838 -1.5850 -0.3148 -0.7066
  636MOL0     H85822   7.060   3.404   4.718  0.2738 -3.9695 -0.6927
  636MOL0     H85823   7.012   3.408   4.893  1.7729 -0.8966  0.8441
  636MOL0     H85824   6.819   3.085   4.591  0.4907  1.0121  0.3598
  636MOL0     H85825   6.651   2.975   4.485  3.4258  2.5646 -1.6185
  636MOL0     H85826   6.532   2.821   4.380  0.0973 -3.4298 -0.8341
  636MOL0     H85827   6.396   2.713   4.410 -2.0460  0.8367  0.2272
  636MOL0     H85828   6.405   2.969   4.576 -0.3597 -0.5186  1.1615
  636MOL0     H85829   6.344   2.957   4.399 -1.8804 -0.2988 -0.0109
  636MOL0     H85830   6.197   2.770   4.469  0.4507  1.3086 -1.9569
  636MOL0     H85831   6.136   2.913   4.521 -0.0763 -0.5723 -0.9906
  636MOL0     H85832   6.110   2.755   4.709 -0.2642 -0.6492 -0.9469
  636MOL0     H85833   6.264   2.706   4.681  1.9909  1.2360 -0.5565
  636MOL0     H85834   6.236   2.998   4.776  0.1707 -1.0031 -2.7905
  636MOL0     H85835   6.368   2.897   4.788  0.3806 -1.9208  0.9427
  636MOL0     H85836   6.099   2.861   4.941 -0.4911  0.1212 -4.6907
  636MOL0     H85837   6.239   2.766   4.974  1.9189  0.8592 -0.6534
  636MOL0     H85838   6.264   2.919   5.126 -0.7551  3.6237  1.5423
  636MOL0     H85839   6.218   3.051   5.033 -1.3768 -1.7935  0.3968
  636MOL0     H85840   6.455   3.046   4.931 -0.8731  3.3637  1.8409
  636MOL0     H85841   6.486   2.894   5.023  2.7599  0.9147  4.0870
  636MOL0     H85842   6.632   2.682   4.797 -1.0815  0.4162  0.4028
  636MOL0     H85843   6.839   2.787   4.916  0.8544  0.2726  1.2120
  636MOL0     H85844   7.219   2.957   4.908 -4.2173  0.1671  3.5223
  636MOL0     H85845   7.417   3.022   5.005  0.1579 -1.1172  0.1066
  636MOL0     H85846   8.812   2.990   5.802 -0.0009  0.6359  1.5672
  636MOL0     H85847   9.026   3.127   5.853 -2.0341  3.3212 -0.4774
  636MOL0     H85848   9.252   3.642   5.643  1.1500  1.0582  2.3080
  636MOL0     H85849   9.467   3.753   5.671  4.0453 -0.4461 -2.2086
  636MOL0     H85850   9.796   3.528   5.824  1.0808  0.1946 -1.1123
  636MOL0     H85851   9.896   3.589   5.690  0.8160 -2.0640  1.6574
  636MOL0     H85852   9.809   3.739   5.944 -1.2941  2.2117 -1.2970
  636MOL0     H85853   9.838   3.824   5.789 -1.4785 -0.2547 -1.8869
  636MOL0     H85854  10.071   3.768   5.795 -1.0341  1.1615 -0.4992
  636MOL0     H85855  10.045   3.627   5.904  0.3561  0.0051 -0.2710
  636MOL0     H85856   9.986   3.803   6.094  0.8626 -1.8119  0.9332
  636MOL0     H85857  10.029   3.926   5.969 -0.0985  1.2468  1.8133
  636MOL0     H85858  10.392   3.820   6.144 -0.6124 -0.8616 -0.4260
  636MOL0     H85859   9.655   3.379   5.747 -2.0767 -1.7923  0.4222
  636MOL0     H85860   9.436   3.269   5.720 -0.0512 -0.7150 -0.1511
  637MOL0     O85861   5.944   4.115   1.265 -0.0154 -0.7750  0.3326
  637MOL0     C85862   5.956   4.224   1.314 -0.0644  0.7395 -0.0003
  637MOL0     O85863   5.892   4.338   1.271  0.4298 -0.7624 -0.4529
  637MOL0     C85864   5.783   4.338   1.185 -0.2106  0.3889 -0.3085
  637MOL0     C85865   5.731   4.470   1.175  0.0815 -1.0709  0.6240
  637MOL0     C85866   5.619   4.491   1.097  0.0115 -0.3114  0.2250
  637MOL0     C85867   5.550   4.388   1.034 -1.2274  1.3488  0.6785
  637MOL0     O85868   5.430   4.381   0.977 -0.3984  0.3123  0.7416
  637MOL0     C85869   5.347   4.487   1.014  0.3017  0.2230 -0.0970
  637MOL0     C85870   5.212   4.432   0.972 -0.0141  0.7207 -0.1009
  637MOL0     C85871   5.113   4.519   1.043  0.1941 -0.9712  0.4139
  637MOL0     C85872   4.972   4.476   1.004  0.5923 -0.7401 -0.0698
  637MOL0     C85873   4.871   4.579   1.049 -0.3908 -0.9229 -0.0463
  637MOL0     C85874   4.730   4.547   1.005 -0.2253  0.9297  0.7968
  637MOL0     C85875   4.620   4.653   1.011 -0.3719 -1.2771 -0.4201
  637MOL0     C85876   4.475   4.608   1.020  0.1597 -0.3157  0.1036
  637MOL0     N85877   4.386   4.728   1.010  0.0533 -0.4767 -0.1207
  637MOL0     C85878   4.350   4.803   0.904 -1.0996  0.4376  0.2879
  637MOL0     C85879   4.281   4.906   0.952  0.2081 -1.1253 -0.5179
  637MOL0     C85880   4.249   5.032   0.877 -0.1106  0.2499 -0.4445
  637MOL0     C85881   4.373   5.086   0.796  0.5689  0.3320  0.9134
  637MOL0     C85882   4.518   5.075   0.845 -0.0998  0.1466  0.4674
  637MOL0     C85883   4.617   5.155   0.775 -0.9726  0.5932  0.2556
  637MOL0     O85884   4.748   5.113   0.799 -0.5403 -0.0851 -0.2092
  637MOL0     C85885   4.833   5.174   0.895  0.2275  1.3344  0.1011
  637MOL0     C85886   4.963   5.138   0.901 -0.1410  0.1641  0.9367
  637MOL0     C85887   5.057   5.196   0.990 -0.5086  0.5961  0.7716
  637MOL0     C85888   5.200   5.147   0.967 -0.3604 -0.3694 -0.6372
  637MOL0     C85889   5.012   5.295   1.073  0.6442  0.3454  0.1824
  637MOL0     C85890   5.084   5.381   1.167 -0.4889  0.5578 -0.5496
  637MOL0     O85891   5.177   5.315   1.231 -0.4537 -0.4534 -0.1845
  637MOL0     C85892   5.275   5.388   1.301  0.6335 -0.2744 -0.1331
  637MOL0     C85893   5.256   5.486   1.401  0.6216 -0.1187  0.2234
  637MOL0     C85894   5.367   5.556   1.460 -0.3492  0.2733 -0.2379
  637MOL0     C85895   5.496   5.534   1.405  0.3922 -0.7081  0.5445
  637MOL0     O85896   5.600   5.607   1.465  0.3891  0.6523 -0.2945
  637MOL0     C85897   5.702   5.526   1.523  0.0232  0.0999 -0.1669
  637MOL0     C85898   5.841   5.558   1.470 -0.1073  0.3192  0.2588
  637MOL0     C85899   5.896   5.695   1.518  0.8001 -0.6090  0.2476
  637MOL0     C85900   5.953   5.696   1.655 -0.4942 -0.7583  0.4636
  637MOL0     C85901   6.039   5.826   1.675 -0.1574  0.5803  0.2442
  637MOL0     C85902   6.130   5.809   1.798  0.4081 -1.4478 -0.5791
  637MOL0     C85903   6.189   5.948   1.834 -0.5351  0.3978  0.3313
  637MOL0     C85904   6.272   5.927   1.959 -0.3317 -0.4006 -0.2108
  637MOL0    Cl85905   6.419   5.820   1.933  0.4158  0.3569 -0.1595
  637MOL0     C85906   5.515   5.443   1.303  1.0146  0.0297  0.5364
  637MOL0     C85907   5.406   5.366   1.255  0.1672 -0.1787  0.8107
  637MOL0     O85908   5.046   5.500   1.185  0.0940  0.4228 -0.3669
  637MOL0     C85909   4.869   5.321   1.086 -0.1218  0.1381 -0.2831
  637MOL0     C85910   4.778   5.256   0.991 -0.5156 -0.1342 -0.3118
  637MOL0     N85911   4.282   4.893   1.091  0.2546 -0.2105  0.0188
  637MOL0     N85912   4.344   4.789   1.123 -0.0919  0.0163  0.4954
  637MOL0     C85913   5.597   4.255   1.058  0.7236 -0.6315 -0.2017
  637MOL0     C85914   5.718   4.229   1.121 -0.2975 -0.4242  0.0420
  637MOL0     C85915   6.070   4.232   1.403 -0.5038 -0.5523 -1.0118
  637MOL0     C85916   6.106   4.132   1.497 -0.6035 -0.7976 -0.5234
  637MOL0     C85917   6.216   4.155   1.587  0.3335 -0.1773 -1.0550
  637MOL0     C85918   6.292   4.275   1.582 -0.0507 -0.1677 -0.1662
  637MOL0     O85919   6.405   4.270   1.666 -0.3692  0.3851  0.0683
  637MOL0     C85920   6.468   4.398   1.692 -0.3365  0.2057 -0.5174
  637MOL0     C85921   6.607   4.382   1.637  0.1400 -0.1153  0.7362
  637MOL0     C85922   6.672   4.516   1.623 -0.3237 -0.2280 -0.4169
  637MOL0     C85923   6.782   4.524   1.522 -0.9989  0.4663 -0.2017
  637MOL0     C85924   6.899   4.437   1.549 -0.1593 -0.0540  0.5742
  637MOL0     C85925   6.996   4.359   1.554 -0.5127 -0.5891  0.0347
  637MOL0     C85926   6.254   4.375   1.494  0.6973 -0.2897 -0.2878
  637MOL0     C85927   6.134   4.357   1.419  0.2970 -0.3321  0.1158
  637MOL0     H85928   5.762   4.562   1.223 -0.6128 -0.9431  0.8295
  637MOL0     H85929   5.575   4.589   1.084 -1.2467 -1.0059 -0.9730
  637MOL0     H85930   5.352   4.496   1.123  0.6797 -1.0951  0.0157
  637MOL0     H85931   5.374   4.579   0.962 -0.5957  0.7674  0.3900
  637MOL0     H85932   5.184   4.455   0.868  1.2776  1.6195 -0.2777
  637MOL0     H85933   5.202   4.328   1.005  0.3094 -0.0801 -2.3151
  637MOL0     H85934   5.130   4.525   1.151  0.8378  2.9502  0.2456
  637MOL0     H85935   5.129   4.618   0.999 -3.6846 -0.8294 -1.0581
  637MOL0     H85936   4.966   4.473   0.894 -2.9662  3.9732 -0.3182
  637MOL0     H85937   4.941   4.381   1.048 -3.5399 -0.3598 -1.7079
  637MOL0     H85938   4.873   4.594   1.157 -0.1855  0.1852 -0.1882
  637MOL0     H85939   4.901   4.668   0.993 -0.6126 -1.4320 -1.0054
  637MOL0     H85940   4.731   4.503   0.905 -1.7933 -2.1027  1.9871
  637MOL0     H85941   4.702   4.468   1.076  0.7357  0.1781  0.3659
  637MOL0     H85942   4.630   4.711   1.103 -0.3978 -0.9244 -0.6372
  637MOL0     H85943   4.642   4.722   0.929  2.1418 -0.3760  0.9127
  637MOL0     H85944   4.457   4.566   1.119  0.2959  1.5625  0.9587
  637MOL0     H85945   4.453   4.539   0.938 -2.0808  0.1383  0.2711
  637MOL0     H85946   4.383   4.786   0.803 -1.6098  0.1065  0.1762
  637MOL0     H85947   4.169   5.014   0.805 -3.8801  0.2023  3.3953
  637MOL0     H85948   4.222   5.104   0.954  2.9293 -0.1560  1.1814
  637MOL0     H85949   4.344   5.188   0.769  0.7449 -0.0297 -0.7686
  637MOL0     H85950   4.371   5.037   0.697  1.0670  0.1141  1.0069
  637MOL0     H85951   4.554   4.972   0.844  2.4490  0.9754  0.5672
  637MOL0     H85952   4.512   5.114   0.947  0.1701  1.1098  0.1303
  637MOL0     H85953   4.597   5.261   0.793 -1.8524  0.8329 -1.8624
  637MOL0     H85954   4.600   5.135   0.669 -0.1451  0.7252  0.0949
  637MOL0     H85955   4.998   5.059   0.835  1.8204  0.3375  1.6967
  637MOL0     H85956   5.207   5.128   0.860 -4.5702  1.1088 -1.3559
  637MOL0     H85957   5.274   5.219   1.003  0.4288 -2.2072  1.7040
  637MOL0     H85958   5.214   5.056   1.026  1.3979 -0.5484 -1.2882
  637MOL0     H85959   5.156   5.497   1.440 -0.1173 -1.0975 -1.2980
  637MOL0     H85960   5.345   5.608   1.553 -2.5299 -1.0411  0.0615
  637MOL0     H85961   5.697   5.539   1.631 -1.5947  1.8105 -0.3864
  637MOL0     H85962   5.680   5.420   1.506 -1.0433  0.4686 -1.2333
  637MOL0     H85963   5.913   5.479   1.493  0.2115  0.4251 -0.3457
  637MOL0     H85964   5.828   5.550   1.361  0.1333  0.6480  0.2024
  637MOL0     H85965   5.821   5.774   1.506  1.3670  0.0865  1.1569
  637MOL0     H85966   5.970   5.723   1.443 -1.5848  0.5820 -1.8374
  637MOL0     H85967   5.873   5.683   1.728 -1.3535 -0.1447 -0.3373
  637MOL0     H85968   6.020   5.611   1.665  4.8549  2.4189 -2.8510
  637MOL0     H85969   5.982   5.919   1.682 -0.2559  0.4309  1.7433
  637MOL0     H85970   6.096   5.845   1.583 -2.6036 -0.7247 -1.6521
  637MOL0     H85971   6.065   5.778   1.881 -4.4878  1.7318 -2.7192
  637MOL0     H85972   6.208   5.735   1.779  1.4255 -0.4736 -0.3387
  637MOL0     H85973   6.113   6.024   1.855  0.9192  1.6751  1.2543
  637MOL0     H85974   6.267   5.970   1.760  1.0641 -3.8170  0.4699
  637MOL0     H85975   6.208   5.876   2.030  1.2653 -1.2735  0.6637
  637MOL0     H85976   6.304   6.014   2.016 -2.3070 -0.1430  0.5495
  637MOL0     H85977   5.608   5.427   1.248  0.8682  0.6730  0.1000
  637MOL0     H85978   5.427   5.304   1.168 -0.7764 -1.8844  1.7623
  637MOL0     H85979   4.828   5.383   1.165  1.2226  0.1956  0.4054
  637MOL0     H85980   4.672   5.254   1.015  0.1391 -4.3742  3.5327
  637MOL0     H85981   5.544   4.171   1.015 -1.6317 -0.4646  2.0989
  637MOL0     H85982   5.762   4.131   1.121 -0.0118 -0.3393  2.4594
  637MOL0     H85983   6.045   4.042   1.495 -1.8253 -0.0173 -0.2050
  637MOL0     H85984   6.246   4.074   1.654 -3.2950 -0.9858 -0.2052
  637MOL0     H85985   6.409   4.486   1.664 -1.1460  0.9056  2.8847
  637MOL0     H85986   6.478   4.423   1.798 -1.3134  1.2770 -0.6541
  637MOL0     H85987   6.585   4.333   1.542 -1.6309 -0.0136  1.0551
  637MOL0     H85988   6.662   4.315   1.704 -2.7167 -0.9622  2.4224
  637MOL0     H85989   6.713   4.533   1.723 -1.1613 -5.6877  1.1687
  637MOL0     H85990   6.603   4.595   1.593 -2.4667 -2.5205 -1.8575
  637MOL0     H85991   6.815   4.628   1.526 -0.6760  0.3458  0.5333
  637MOL0     H85992   6.749   4.512   1.418  2.4407 -0.7017 -1.3051
  637MOL0     H85993   7.083   4.299   1.535  1.1793  1.2070  1.7165
  637MOL0     H85994   6.315   4.464   1.483 -0.1858  0.3448 -0.2028
  637MOL0     H85995   6.108   4.442   1.357  1.2778  0.7431  1.1174
  638MOL0     O85996   1.967   6.596   4.617  0.3846  0.0346  0.6549
  638MOL0     C85997   2.053   6.652   4.690  0.7093 -0.2238 -0.1471
  638MOL0     O85998   2.102   6.778   4.683  0.1322 -0.0085  1.1073
  638MOL0     C85999   2.024   6.889   4.644 -0.2316  0.5939  0.2951
  638MOL0     C86000   1.886   6.899   4.622  0.6662  0.2151  0.5918
  638MOL0     C86001   1.827   7.014   4.566 -0.4659  0.0700 -0.6764
  638MOL0     C86002   1.907   7.132   4.548  0.6697 -0.9775  0.3468
  638MOL0     O86003   1.842   7.248   4.524 -0.4649 -0.0105  0.2718
  638MOL0     C86004   1.849   7.334   4.638 -0.6675  0.6327  0.6446
  638MOL0     C86005   1.852   7.484   4.616  0.9379  0.4124  0.3116
  638MOL0     C86006   1.970   7.534   4.535 -0.1423 -0.2433 -0.3681
  638MOL0     C86007   2.094   7.559   4.630  0.5136 -0.3526 -0.0251
  638MOL0     C86008   2.220   7.539   4.556 -0.7131 -0.8063 -0.9938
  638MOL0     C86009   2.344   7.585   4.640  0.3203 -0.9322 -0.1709
  638MOL0     C86010   2.459   7.585   4.540  0.0156 -0.2689 -0.0153
  638MOL0     C86011   2.560   7.465   4.551  0.2653  0.2810  0.2468
  638MOL0     N86012   2.509   7.326   4.550 -0.9127 -0.5058 -0.4122
  638MOL0     C86013   2.539   7.230   4.453  0.5261 -0.5974  0.5971
  638MOL0     C86014   2.493   7.121   4.508  0.2578  0.2334  0.5091
  638MOL0     C86015   2.477   6.985   4.440 -0.6036 -1.2146 -0.1969
  638MOL0     C86016   2.561   6.876   4.508 -0.5488  0.0021 -0.0008
  638MOL0     C86017   2.696   6.929   4.554  0.0902 -1.3140  0.5777
  638MOL0     C86018   2.784   6.816   4.616  0.5185 -0.9234  0.2549
  638MOL0     O86019   2.708   6.750   4.717 -0.4451 -0.0394 -0.6016
  638MOL0     C86020   2.757   6.637   4.774 -0.7074 -0.0034  1.1453
  638MOL0     C86021   2.701   6.599   4.894  0.9117  0.5744  0.5861
  638MOL0     C86022   2.768   6.509   4.977 -0.5652 -0.2624 -0.3042
  638MOL0     C86023   2.709   6.482   5.110  0.1856 -0.0210 -0.1577
  638MOL0     C86024   2.899   6.468   4.945 -0.0301  0.4391  0.0837
  638MOL0     C86025   2.984   6.386   5.040 -0.4916  0.4792 -0.1130
  638MOL0     O86026   3.115   6.414   5.032  0.0323  0.3194 -0.2675
  638MOL0     C86027   3.212   6.346   5.086 -0.9665 -0.2635 -0.0638
  638MOL0     C86028   3.211   6.204   5.107 -0.1778 -2.0329  0.0363
  638MOL0     C86029   3.324   6.138   5.151 -0.6845 -0.2826 -0.3568
  638MOL0     C86030   3.441   6.199   5.184  0.9721  0.1166 -0.4653
  638MOL0     O86031   3.547   6.115   5.217  0.1622 -0.1088 -0.9844
  638MOL0     C86032   3.666   6.174   5.263  0.1822  0.2735 -0.8966
  638MOL0     C86033   3.773   6.071   5.292  0.5265  0.1332  0.0709
  638MOL0     C86034   3.913   6.138   5.333  0.5393  0.2424  0.7658
  638MOL0     C86035   4.016   6.023   5.336 -0.0445  0.6573 -0.0351
  638MOL0     C86036   4.156   6.038   5.393 -0.9867  0.2484 -1.1991
  638MOL0     C86037   4.265   5.947   5.332  0.2281  0.2444 -0.6981
  638MOL0     C86038   4.299   5.835   5.426 -1.0368  0.3937 -0.5062
  638MOL0     C86039   4.364   5.721   5.352 -0.3981 -0.3538 -0.1608
  638MOL0    Cl86040   4.400   5.604   5.486 -0.0335  0.2069 -0.2691
  638MOL0     C86041   3.442   6.341   5.171  0.0329 -0.1575  0.8827
  638MOL0     C86042   3.332   6.415   5.112  0.2741  0.3949 -1.4217
  638MOL0     O86043   2.931   6.301   5.121 -0.4314  0.2626  0.0243
  638MOL0     C86044   2.957   6.503   4.826  0.8123  0.5834  0.6160
  638MOL0     C86045   2.888   6.590   4.746 -0.0274  0.0582  0.2879
  638MOL0     N86046   2.432   7.151   4.629  0.4121 -0.0562  0.3774
  638MOL0     N86047   2.436   7.272   4.649 -0.1534 -1.4379  0.3720
  638MOL0     C86048   2.040   7.129   4.569 -0.7109  0.7433  0.1359
  638MOL0     C86049   2.099   7.005   4.610 -0.6320  0.7764  0.7598
  638MOL0     C86050   2.119   6.575   4.800 -0.0257 -0.2187  0.4354
  638MOL0     C86051   2.131   6.437   4.793  0.2308  0.2362  0.5178
  638MOL0     C86052   2.216   6.367   4.880  0.2551 -0.5042  1.3547
  638MOL0     C86053   2.284   6.438   4.977  0.8376  0.7394  0.7609
  638MOL0     O86054   2.357   6.366   5.067  0.0967  0.4709 -0.0276
  638MOL0     C86055   2.296   6.359   5.199 -1.1965 -0.0724 -0.8041
  638MOL0     C86056   2.362   6.448   5.312  0.4869 -0.0445  0.1130
  638MOL0     C86057   2.478   6.370   5.379  0.8673 -0.0378  0.1987
  638MOL0     C86058   2.539   6.466   5.481  0.1773  0.2241 -0.4388
  638MOL0     C86059   2.668   6.404   5.519 -0.3884 -0.0593 -0.0295
  638MOL0     C86060   2.783   6.370   5.540  0.4326 -0.6045  0.3227
  638MOL0     C86061   2.272   6.574   4.993 -1.2161 -0.3295  0.1335
  638MOL0     C86062   2.187   6.640   4.904 -0.0224 -0.0410  0.4024
  638MOL0     H86063   1.824   6.812   4.641 -1.8880  2.0553  1.1744
  638MOL0     H86064   1.720   7.027   4.558 -0.5123  0.6713  0.6981
  638MOL0     H86065   1.758   7.305   4.692 -0.5275  1.9289  1.6153
  638MOL0     H86066   1.935   7.315   4.703 -0.5976  0.2516  0.4434
  638MOL0     H86067   1.757   7.525   4.580  0.7828  0.2733  0.5644
  638MOL0     H86068   1.859   7.529   4.715 -0.3947 -0.5544  0.8826
  638MOL0     H86069   2.002   7.459   4.462 -0.8489 -2.6558  1.6492
  638MOL0     H86070   1.938   7.628   4.489  2.5360 -0.2649 -2.5813
  638MOL0     H86071   2.087   7.660   4.672 -0.3188 -1.1988  1.9876
  638MOL0     H86072   2.089   7.485   4.710 -3.7300  0.5412  0.7992
  638MOL0     H86073   2.246   7.437   4.528 -1.5411 -0.4383 -3.4340
  638MOL0     H86074   2.214   7.592   4.460  0.9940  0.1417 -0.6150
  638MOL0     H86075   2.309   7.685   4.668 -0.0908 -1.2641  0.5405
  638MOL0     H86076   2.365   7.530   4.732 -3.4394 -1.2533  0.6681
  638MOL0     H86077   2.431   7.595   4.435  1.9487  1.5030 -0.4369
  638MOL0     H86078   2.508   7.680   4.563  1.4274 -0.5026 -1.8299
  638MOL0     H86079   2.612   7.473   4.647  0.1599  3.9688  0.1606
  638MOL0     H86080   2.631   7.476   4.468 -0.3270  1.3667 -0.1458
  638MOL0     H86081   2.607   7.224   4.369  0.2803 -0.1884  0.3665
  638MOL0     H86082   2.369   6.967   4.448 -0.7903  0.2204  1.2092
  638MOL0     H86083   2.509   7.000   4.337  0.8269  1.5321  0.5606
  638MOL0     H86084   2.583   6.788   4.448  0.3178  0.0909  0.1703
  638MOL0     H86085   2.498   6.827   4.582  1.0195 -0.7410  0.8755
  638MOL0     H86086   2.692   7.014   4.623 -0.7246 -1.1975  0.3999
  638MOL0     H86087   2.753   6.957   4.465 -1.4064 -3.3242 -1.1171
  638MOL0     H86088   2.875   6.861   4.656 -0.0039  0.3436  0.0724
  638MOL0     H86089   2.810   6.752   4.531 -0.3746  1.5153 -2.0189
  638MOL0     H86090   2.606   6.648   4.915  0.7698  0.1365  0.9875
  638MOL0     H86091   2.784   6.477   5.189  0.4408  0.8335 -0.3418
  638MOL0     H86092   2.643   6.562   5.146 -0.1896 -2.2657  5.1102
  638MOL0     H86093   2.671   6.379   5.102  2.5294 -1.0319  0.7379
  638MOL0     H86094   3.122   6.149   5.080 -1.6713  0.9071 -1.4781
  638MOL0     H86095   3.336   6.030   5.158 -3.9628 -0.8345 -1.4133
  638MOL0     H86096   3.714   6.245   5.195  1.5539 -0.5416 -0.8330
  638MOL0     H86097   3.648   6.224   5.358  3.1767  1.5296 -0.8558
  638MOL0     H86098   3.735   5.994   5.361 -0.7684  1.3389  0.7688
  638MOL0     H86099   3.790   6.010   5.203  0.4825 -0.7633  0.6504
  638MOL0     H86100   3.909   6.175   5.436  0.6555 -2.6215  1.8826
  638MOL0     H86101   3.947   6.222   5.272 -2.6735  1.7937  0.8840
  638MOL0     H86102   3.975   5.933   5.383 -0.2460  0.9710  0.3957
  638MOL0     H86103   4.026   6.011   5.228 -1.0873  1.6971 -0.2782
  638MOL0     H86104   4.153   6.044   5.502  0.3073  3.8278 -1.2337
  638MOL0     H86105   4.174   6.141   5.361 -1.7368  0.8339  0.2028
  638MOL0     H86106   4.234   5.909   5.234 -0.0204 -0.6819 -0.2764
  638MOL0     H86107   4.345   6.019   5.313 -0.6683  1.7878  1.0040
  638MOL0     H86108   4.205   5.802   5.470  0.7842  1.2711  4.7200
  638MOL0     H86109   4.362   5.863   5.511 -3.3072  2.5592  0.5762
  638MOL0     H86110   4.455   5.744   5.296  2.0510 -3.1530  2.3158
  638MOL0     H86111   4.287   5.684   5.284  0.7695 -0.5249 -1.4375
  638MOL0     H86112   3.531   6.397   5.196  0.7710 -0.1513 -1.4523
  638MOL0     H86113   3.338   6.518   5.076 -1.3746  0.5680 -1.2624
  638MOL0     H86114   3.055   6.461   4.802 -0.0522 -1.1587 -0.0776
  638MOL0     H86115   2.945   6.617   4.658 -0.8929 -1.1317 -0.6730
  638MOL0     H86116   2.105   7.215   4.555 -0.6364  0.4502 -1.5644
  638MOL0     H86117   2.205   7.001   4.591 -0.9137  3.1220 -2.0723
  638MOL0     H86118   2.082   6.394   4.706  1.2590  1.2689 -0.6127
  638MOL0     H86119   2.236   6.260   4.871 -2.6620 -0.9986 -0.6520
  638MOL0     H86120   2.190   6.384   5.186 -1.8862 -2.5132 -0.4942
  638MOL0     H86121   2.297   6.253   5.228  3.2860  0.1717  0.6393
  638MOL0     H86122   2.284   6.481   5.382  0.9811  3.2771 -0.7399
  638MOL0     H86123   2.412   6.532   5.264  0.2685 -0.7231 -1.3614
  638MOL0     H86124   2.544   6.344   5.296  0.3585  0.5748 -0.4174
  638MOL0     H86125   2.429   6.282   5.421  0.1226  0.5539  0.6050
  638MOL0     H86126   2.486   6.481   5.575  1.1807  0.5446  0.0899
  638MOL0     H86127   2.570   6.563   5.441 -1.7481  2.6931  3.4065
  638MOL0     H86128   2.886   6.354   5.563  0.3036 -1.2067  0.5015
  638MOL0     H86129   2.329   6.623   5.070 -0.8145 -2.5163  1.3202
  638MOL0     H86130   2.181   6.747   4.919  0.9928 -0.0485  0.9366
  639MOL0     O86131   9.879   6.233  11.292 -0.0552 -0.4557  0.0915
  639MOL0     C86132   9.825   6.342  11.267  0.6829  0.4525 -0.0105
  639MOL0     O86133   9.891   6.455  11.221  0.4574 -0.6438 -0.0839
  639MOL0     C86134  10.029   6.454  11.234  0.3467 -0.2701  0.6552
  639MOL0     C86135  10.107   6.480  11.123 -0.3108 -0.7342 -0.3148
  639MOL0     C86136  10.251   6.493  11.137 -0.1060  0.0482  1.0859
  639MOL0     C86137  10.313   6.493  11.261 -0.0092 -0.2085  0.4366
  639MOL0     O86138  10.435   6.539  11.284 -1.1157  0.2411  0.3433
  639MOL0     C86139  10.508   6.590  11.177  1.2780  0.7247 -0.9341
  639MOL0     C86140  10.653   6.626  11.209  0.1824  0.6950  0.3941
  639MOL0     C86141  10.677   6.747  11.310 -0.9016 -0.4011  0.6135
  639MOL0     C86142  10.830   6.768  11.296  0.9401  0.2708 -0.1427
  639MOL0     C86143  10.888   6.878  11.384 -0.1091 -0.3381 -0.1132
  639MOL0     C86144  10.829   7.017  11.348 -0.7528  0.0706 -0.3920
  639MOL0     C86145  10.891   7.129  11.437 -0.7047  0.2786  0.2033
  639MOL0     C86146  10.902   7.097  11.582  0.1204 -0.2017  0.1260
  639MOL0     N86147  10.907   7.210  11.669  0.0906 -0.4651 -0.1754
  639MOL0     C86148  11.020   7.289  11.700  0.0305 -0.2848 -0.8002
  639MOL0     C86149  10.988   7.354  11.819 -0.2840 -0.1511  0.0463
  639MOL0     C86150  11.070   7.452  11.896 -0.4284 -0.1822 -0.7753
  639MOL0     C86151  11.150   7.553  11.822  0.5892 -0.2373  0.6730
  639MOL0     C86152  11.067   7.649  11.735  0.4280 -0.5349  0.1930
  639MOL0     C86153  11.140   7.771  11.676 -0.5033  0.4596 -0.8917
  639MOL0     O86154  11.064   7.881  11.624 -0.0703  0.6583 -1.1731
  639MOL0     C86155  11.123   7.997  11.585 -0.1116 -0.6966 -0.0382
  639MOL0     C86156  11.264   8.018  11.580  0.5688  0.2330  0.3023
  639MOL0     C86157  11.318   8.143  11.565 -0.0852 -0.8437  1.3248
  639MOL0     C86158  11.473   8.150  11.535 -0.8944  0.5088 -0.2014
  639MOL0     C86159  11.237   8.260  11.573  0.0361 -0.2071 -0.4664
  639MOL0     C86160  11.288   8.398  11.562 -0.3855 -0.2196  0.1383
  639MOL0     O86161  11.205   8.482  11.489  0.4357 -0.2979  0.6196
  639MOL0     C86162  11.267   8.584  11.416  0.1783  0.2569  0.8032
  639MOL0     C86163  11.330   8.547  11.293 -0.1308  0.3436  0.0727
  639MOL0     C86164  11.375   8.646  11.208  0.4015 -0.2085 -0.2114
  639MOL0     C86165  11.371   8.784  11.236  0.8534  0.2557  0.8059
  639MOL0     O86166  11.432   8.871  11.147  1.0056  0.0006 -0.7983
  639MOL0     C86167  11.450   9.006  11.189 -0.1719  0.3049 -1.1489
  639MOL0     C86168  11.518   9.084  11.077  0.3308 -0.1589 -0.1361
  639MOL0     C86169  11.672   9.075  11.069  0.0948 -0.3107 -0.0768
  639MOL0     C86170  11.731   9.182  10.969 -0.3615 -0.2740  0.5338
  639MOL0     C86171  11.878   9.147  10.931  1.2257  0.3029  0.1839
  639MOL0     C86172  11.953   9.258  10.857 -0.1703 -0.0314  0.1566
  639MOL0     C86173  12.098   9.220  10.869  0.2261  0.9811 -0.3805
  639MOL0     C86174  12.192   9.308  10.784 -0.2651 -0.0676 -0.0771
  639MOL0    Cl86175  12.171   9.268  10.604  0.1457  0.1149 -0.4424
  639MOL0     C86176  11.321   8.814  11.358  0.1517  0.1354 -0.6875
  639MOL0     C86177  11.261   8.723  11.446 -1.0649  0.1143 -0.6056
  639MOL0     O86178  11.402   8.431  11.604 -0.3377  0.5262 -0.0432
  639MOL0     C86179  11.096   8.233  11.587  0.1195 -0.2508  0.3685
  639MOL0     C86180  11.040   8.107  11.597  0.2051  0.1252  0.1712
  639MOL0     N86181  10.861   7.310  11.858 -0.2394 -1.1719 -0.3311
  639MOL0     N86182  10.818   7.218  11.771 -0.3326 -0.1987 -0.4322
  639MOL0     C86183  10.232   6.468  11.378 -0.1801  0.0364 -0.4384
  639MOL0     C86184  10.094   6.452  11.360  0.3763 -0.2569  0.0425
  639MOL0     C86185   9.680   6.347  11.291  0.7500 -0.0264  0.0902
  639MOL0     C86186   9.615   6.249  11.370 -0.3368  0.3432  0.2161
  639MOL0     C86187   9.477   6.259  11.391 -0.8466  0.1047  0.0257
  639MOL0     C86188   9.402   6.353  11.318  0.0882  0.0980 -0.3367
  639MOL0     O86189   9.269   6.335  11.343  0.0361 -0.5656  0.6286
  639MOL0     C86190   9.173   6.415  11.262 -1.6689 -0.1141  0.7662
  639MOL0     C86191   9.149   6.356  11.120 -0.4487  0.4063 -0.7249
  639MOL0     C86192   9.046   6.433  11.027  0.4116  0.2305  0.4038
  639MOL0     C86193   8.977   6.323  10.936  0.0343  0.4738  0.0582
  639MOL0     C86194   8.879   6.390  10.846 -0.8164 -0.1761 -0.7871
  639MOL0     C86195   8.815   6.464  10.769 -0.5871 -0.2030  0.6089
  639MOL0     C86196   9.463   6.454  11.236  0.2399  1.7233  0.2274
  639MOL0     C86197   9.601   6.445  11.221  0.4447 -0.2054  0.4767
  639MOL0     H86198  10.059   6.492  11.027 -0.7635  0.7264  0.0626
  639MOL0     H86199  10.313   6.505  11.049 -0.7475 -2.4738  0.2029
  639MOL0     H86200  10.516   6.512  11.101 -2.4842 -0.5063 -0.2618
  639MOL0     H86201  10.454   6.680  11.148 -0.5215 -0.0649 -0.1793
  639MOL0     H86202  10.699   6.533  11.245 -1.0728 -0.3511 -0.5861
  639MOL0     H86203  10.701   6.643  11.113  1.0512 -5.4410 -0.6423
  639MOL0     H86204  10.619   6.838  11.289 -1.7324 -0.6755  1.6266
  639MOL0     H86205  10.651   6.714  11.411 -1.4139  0.5276  0.7935
  639MOL0     H86206  10.871   6.677  11.340 -1.5488 -0.3509  1.0721
  639MOL0     H86207  10.858   6.786  11.192 -1.5658 -0.4007 -0.9942
  639MOL0     H86208  10.854   6.860  11.486  0.6617 -0.8229  0.0638
  639MOL0     H86209  10.997   6.868  11.388 -0.1615 -2.3202 -1.8938
  639MOL0     H86210  10.858   7.038  11.245 -0.6262  1.0500 -0.1655
  639MOL0     H86211  10.720   7.012  11.354 -0.7723  0.1834 -0.6403
  639MOL0     H86212  10.989   7.159  11.399 -0.9421  1.0548  0.1857
  639MOL0     H86213  10.822   7.214  11.426  0.6451  1.1928 -1.7974
  639MOL0     H86214  11.006   7.064  11.587  0.4723  0.4117 -2.0805
  639MOL0     H86215  10.839   7.023  11.631 -1.7164  0.1830 -1.5504
  639MOL0     H86216  11.113   7.310  11.648  1.3277  2.8278  2.3484
  639MOL0     H86217  11.010   7.509  11.967 -0.4586  2.6657 -2.8873
  639MOL0     H86218  11.141   7.394  11.956 -0.4861  1.9812  1.5509
  639MOL0     H86219  11.212   7.498  11.750  1.4075 -1.1460  2.0208
  639MOL0     H86220  11.206   7.616  11.891 -2.0594  2.1544  0.8003
  639MOL0     H86221  10.988   7.679  11.804  1.2301  1.2171  0.4027
  639MOL0     H86222  11.019   7.594  11.653  1.6350 -0.7761 -0.3680
  639MOL0     H86223  11.218   7.735  11.608  0.0436 -0.4574  0.1819
  639MOL0     H86224  11.192   7.808  11.765  0.3413  0.0375 -1.1966
  639MOL0     H86225  11.322   7.928  11.594  1.1308  0.2792 -1.5091
  639MOL0     H86226  11.496   8.060  11.477  0.6828  1.0318 -0.4247
  639MOL0     H86227  11.504   8.240  11.482 -2.9530  2.4028  1.5676
  639MOL0     H86228  11.526   8.140  11.631 -0.8579  0.6319 -0.2082
  639MOL0     H86229  11.345   8.443  11.266  1.9696  0.0631  1.9999
  639MOL0     H86230  11.426   8.614  11.117  1.4592  0.9196 -0.0495
  639MOL0     H86231  11.357   9.051  11.225  0.5946 -1.5189  4.0797
  639MOL0     H86232  11.518   9.006  11.275  1.2884  2.3766 -2.2280
  639MOL0     H86233  11.472   9.049  10.984  1.7877  1.4469 -1.5333
  639MOL0     H86234  11.502   9.192  11.087 -0.7759 -0.3082 -0.1385
  639MOL0     H86235  11.703   8.978  11.029  3.1562 -0.3303  2.0194
  639MOL0     H86236  11.726   9.104  11.160 -0.4164 -0.7436  0.3707
  639MOL0     H86237  11.682   9.183  10.871  2.2295  0.9348 -0.8618
  639MOL0     H86238  11.713   9.282  11.009  3.6135  0.4484  0.9742
  639MOL0     H86239  11.873   9.061  10.864 -0.9355  1.4531 -1.2266
  639MOL0     H86240  11.926   9.122  11.026  2.2022 -1.9354 -0.8324
  639MOL0     H86241  11.926   9.276  10.752  1.6004  1.3203 -0.1011
  639MOL0     H86242  11.943   9.358  10.899  3.6354  1.1835 -1.3991
  639MOL0     H86243  12.109   9.119  10.829  0.1533  1.5777 -1.9702
  639MOL0     H86244  12.129   9.207  10.974 -0.7497 -0.0936 -0.1994
  639MOL0     H86245  12.297   9.289  10.810  0.4177  0.5188 -2.2253
  639MOL0     H86246  12.171   9.415  10.796 -2.6824 -0.4745 -0.0898
  639MOL0     H86247  11.316   8.915  11.396 -0.9912 -0.9761  2.4471
  639MOL0     H86248  11.202   8.759  11.530  0.1719  0.0763  0.3033
  639MOL0     H86249  11.025   8.316  11.579  0.4830  0.4970  3.5483
  639MOL0     H86250  10.935   8.093  11.620 -0.3309  1.2221 -1.4019
  639MOL0     H86251  10.278   6.457  11.475  0.4106 -2.9380 -0.9350
  639MOL0     H86252  10.031   6.433  11.447  0.4030 -1.4630 -0.1949
  639MOL0     H86253   9.674   6.175  11.423 -3.0970 -0.2892  2.6275
  639MOL0     H86254   9.425   6.194  11.460  0.4128 -1.3563 -0.3536
  639MOL0     H86255   9.081   6.418  11.320 -0.6275  1.7656  2.4452
  639MOL0     H86256   9.204   6.520  11.263  0.0090 -0.5384 -0.8303
  639MOL0     H86257   9.106   6.261  11.153 -1.3521  1.2942  0.7682
  639MOL0     H86258   9.240   6.339  11.061 -0.1808 -0.8480  0.0172
  639MOL0     H86259   9.105   6.497  10.962  0.6122 -2.4333 -2.2648
  639MOL0     H86260   8.964   6.481  11.080 -1.0437 -0.1995 -1.3517
  639MOL0     H86261   8.923   6.247  10.992  2.4812 -1.5345 -0.1379
  639MOL0     H86262   9.049   6.267  10.876 -2.6872  0.4780 -3.5619
  639MOL0     H86263   8.755   6.519  10.699  1.0964  0.5892 -0.2798
  639MOL0     H86264   9.421   6.536  11.179  1.1003 -0.3684 -3.8432
  639MOL0     H86265   9.656   6.514  11.158  1.1276  0.1932  1.4868
  640MOL0     O86266   3.032   0.701   8.236 -0.1714  0.0444 -0.5610
  640MOL0     C86267   3.082   0.764   8.149  0.0156 -0.2929  0.0312
  640MOL0     O86268   3.013   0.845   8.059  0.1294  0.1965 -0.0281
  640MOL0     C86269   2.878   0.843   8.052  0.2863 -0.4987  0.0397
  640MOL0     C86270   2.811   0.962   8.063  0.0742 -0.5176 -0.2023
  640MOL0     C86271   2.667   0.955   8.083 -0.6790  1.5286 -0.6464
  640MOL0     C86272   2.592   0.839   8.063  0.4135 -1.2346 -0.6329
  640MOL0     O86273   2.457   0.820   8.087  0.4116 -0.5077  0.0067
  640MOL0     C86274   2.364   0.921   8.048 -0.8535 -0.2219 -0.7221
  640MOL0     C86275   2.245   0.918   8.143 -0.2306  0.0814 -0.6605
  640MOL0     C86276   2.144   1.010   8.072  0.5531  0.0402  0.0635
  640MOL0     C86277   2.016   1.030   8.154 -0.6411  0.1219 -0.3016
  640MOL0     C86278   1.954   1.162   8.144 -1.3384 -0.2330 -0.0758
  640MOL0     C86279   1.877   1.184   8.024 -0.2884 -0.0559 -0.6185
  640MOL0     C86280   1.823   1.328   8.020 -0.4105  0.5595  0.4742
  640MOL0     C86281   1.713   1.342   8.130 -1.0734 -1.6364  0.2484
  640MOL0     N86282   1.623   1.446   8.100  0.5608  0.3115 -0.7439
  640MOL0     C86283   1.580   1.498   7.977  0.5344 -0.3156 -0.0210
  640MOL0     C86284   1.503   1.607   8.013 -0.2766  0.5648 -0.4557
  640MOL0     C86285   1.426   1.700   7.932 -0.2538  0.0304 -0.5391
  640MOL0     C86286   1.278   1.714   7.970  0.3564  0.1758  0.5855
  640MOL0     C86287   1.210   1.826   7.893  0.3352 -0.0844 -0.3233
  640MOL0     C86288   1.087   1.778   7.818  0.2875 -0.3541 -0.6363
  640MOL0     O86289   0.984   1.737   7.910 -0.5796  0.2699 -0.4200
  640MOL0     C86290   0.866   1.687   7.866 -0.0119  0.0807  0.1910
  640MOL0     C86291   0.837   1.669   7.730  0.2774 -0.3994  1.0159
  640MOL0     C86292   0.711   1.618   7.684 -0.3889 -0.0063  0.1026
  640MOL0     C86293   0.694   1.613   7.538  0.9248  0.7939  1.3986
  640MOL0     C86294   0.619   1.578   7.783  0.0431 -0.0587 -0.6543
  640MOL0     C86295   0.483   1.527   7.745  0.6047  0.2132  0.1536
  640MOL0     O86296   0.420   1.596   7.653 -0.4071 -0.2715  0.2381
  640MOL0     C86297   0.287   1.614   7.658  0.4481  0.1645 -1.0084
  640MOL0     C86298   0.190   1.528   7.613 -0.0594 -0.6764 -0.5440
  640MOL0     C86299   0.057   1.555   7.640  0.1446  0.1856  0.1381
  640MOL0     C86300   0.018   1.662   7.715 -0.0059 -1.2857  0.2358
  640MOL0     O86301  -0.116   1.680   7.741 -0.0450 -0.8516 -1.6491
  640MOL0     C86302  -0.148   1.780   7.840 -0.0060  0.3075  0.8770
  640MOL0     C86303  -0.302   1.805   7.820  0.7656 -0.5149 -0.2165
  640MOL0     C86304  -0.383   1.681   7.880  0.2912 -0.3002  0.3271
  640MOL0     C86305  -0.392   1.696   8.022 -0.9315  0.6123 -0.0492
  640MOL0     C86306  -0.507   1.786   8.073 -0.1352 -0.0118 -0.4570
  640MOL0     C86307  -0.525   1.766   8.227 -0.1972  0.1533  0.2547
  640MOL0     C86308  -0.422   1.851   8.314  0.0822 -0.5664 -0.0055
  640MOL0     C86309  -0.486   1.958   8.391  0.5531  0.2458 -0.5165
  640MOL0    Cl86310  -0.559   2.075   8.284 -0.3451  0.4873  0.5410
  640MOL0     C86311   0.117   1.742   7.774 -0.7532 -0.2214  0.1397
  640MOL0     C86312   0.248   1.718   7.743  0.0021  0.1136 -0.2667
  640MOL0     O86313   0.427   1.442   7.819 -0.2958  0.5916 -0.2564
  640MOL0     C86314   0.650   1.601   7.920 -0.1537  0.6731  0.1394
  640MOL0     C86315   0.774   1.648   7.959  0.5765  0.3012 -0.6897
  640MOL0     N86316   1.499   1.607   8.147 -0.0156 -0.6158  0.4132
  640MOL0     N86317   1.579   1.528   8.203 -0.5927 -0.2690 -0.3580
  640MOL0     C86318   2.659   0.717   8.041 -0.1366 -0.3014 -0.7662
  640MOL0     C86319   2.801   0.724   8.032 -0.0014 -0.0641 -0.8215
  640MOL0     C86320   3.216   0.735   8.120 -0.4897 -0.3121 -0.1882
  640MOL0     C86321   3.272   0.608   8.134 -0.0872  0.3229 -0.0243
  640MOL0     C86322   3.399   0.577   8.088 -0.7558  0.0478 -0.4730
  640MOL0     C86323   3.483   0.672   8.042 -0.1056  0.5704  1.0269
  640MOL0     O86324   3.611   0.638   7.991  0.4396 -0.5627 -0.1541
  640MOL0     C86325   3.680   0.509   7.997 -0.4746  0.8986  0.7625
  640MOL0     C86326   3.801   0.509   8.099  0.9238  0.6030 -0.9738
  640MOL0     C86327   3.744   0.525   8.240 -0.1429  0.1061 -0.7029
  640MOL0     C86328   3.852   0.549   8.343  0.6522  0.8801 -0.3837
  640MOL0     C86329   3.914   0.430   8.403 -1.4621  0.3621 -0.4724
  640MOL0     C86330   3.945   0.326   8.458  0.1835 -0.5852 -0.2338
  640MOL0     C86331   3.434   0.804   8.036  0.3706  0.2872 -0.2173
  640MOL0     C86332   3.300   0.832   8.074  1.1258  0.3008  0.5283
  640MOL0     H86333   2.861   1.057   8.080 -1.2862  0.3481 -0.8617
  640MOL0     H86334   2.615   1.044   8.117  2.3341  2.2034  2.7029
  640MOL0     H86335   2.399   1.024   8.050  0.7824 -0.7510  1.0845
  640MOL0     H86336   2.324   0.900   7.948 -2.4209  1.8030 -0.5779
  640MOL0     H86337   2.203   0.817   8.145  1.7572 -0.9081  3.9946
  640MOL0     H86338   2.277   0.949   8.242 -0.6101  1.0212 -0.8171
  640MOL0     H86339   2.185   1.106   8.042  0.4927 -0.0381 -0.2690
  640MOL0     H86340   2.102   0.969   7.980  2.2242 -0.3029 -0.5755
  640MOL0     H86341   1.938   0.956   8.136 -0.9105  0.7309 -1.7098
  640MOL0     H86342   2.048   1.017   8.258  0.9770  1.0043 -0.6558
  640MOL0     H86343   1.889   1.175   8.231 -1.1904 -0.1060  0.0166
  640MOL0     H86344   2.027   1.242   8.158 -2.1543  0.2411  1.6999
  640MOL0     H86345   1.943   1.157   7.941 -1.4429 -0.8234 -1.3257
  640MOL0     H86346   1.795   1.111   8.028  1.5283 -2.1554  1.3927
  640MOL0     H86347   1.905   1.399   8.034  1.0404 -1.1384  0.9869
  640MOL0     H86348   1.780   1.342   7.921 -1.8516  1.1720  1.1610
  640MOL0     H86349   1.764   1.365   8.224  0.0266  1.4624 -0.9772
  640MOL0     H86350   1.641   1.260   8.139 -1.8244 -1.4231 -2.7705
  640MOL0     H86351   1.620   1.478   7.878  1.5279  3.2843 -0.4855
  640MOL0     H86352   1.457   1.804   7.946 -1.0395  0.4503 -1.7335
  640MOL0     H86353   1.448   1.678   7.827  0.4635 -1.7492 -0.0479
  640MOL0     H86354   1.272   1.730   8.078  1.6184  1.6233  0.4695
  640MOL0     H86355   1.242   1.612   7.954  0.2716 -0.1453  2.6359
  640MOL0     H86356   1.285   1.840   7.815  1.8736  1.3630  1.3451
  640MOL0     H86357   1.204   1.923   7.943 -1.4688  0.8244 -2.1599
  640MOL0     H86358   1.134   1.698   7.760  4.2690  0.0220  1.7410
  640MOL0     H86359   1.056   1.864   7.757  3.2772 -0.3319 -2.2972
  640MOL0     H86360   0.914   1.690   7.657 -0.6935 -1.1587 -0.2816
  640MOL0     H86361   0.787   1.617   7.480  0.4870  0.0049  0.6296
  640MOL0     H86362   0.657   1.519   7.496  0.4575  0.3431  2.7948
  640MOL0     H86363   0.629   1.689   7.493  2.9639  0.7398 -1.9939
  640MOL0     H86364   0.219   1.445   7.550 -1.8023 -0.5340 -1.5950
  640MOL0     H86365  -0.022   1.498   7.592 -2.1225  0.7862  2.8988
  640MOL0     H86366  -0.120   1.748   7.941  1.7136 -0.9251  0.0660
  640MOL0     H86367  -0.096   1.875   7.825 -1.6026  1.6930  3.3311
  640MOL0     H86368  -0.338   1.903   7.854  0.3007 -0.2138 -1.5173
  640MOL0     H86369  -0.324   1.806   7.713 -0.6846  3.5648 -0.0645
  640MOL0     H86370  -0.342   1.581   7.860 -3.4713 -1.9461  0.0003
  640MOL0     H86371  -0.486   1.683   7.844  0.7150 -1.4593 -1.0690
  640MOL0     H86372  -0.404   1.597   8.067 -1.3130  0.7997  0.2691
  640MOL0     H86373  -0.304   1.753   8.052 -1.7146  1.7715  0.1214
  640MOL0     H86374  -0.607   1.761   8.034 -0.3086 -3.0584  1.5879
  640MOL0     H86375  -0.490   1.888   8.039 -0.2363 -0.6721 -2.6869
  640MOL0     H86376  -0.626   1.799   8.250 -0.9958  2.1549 -4.7483
  640MOL0     H86377  -0.510   1.659   8.245  0.9324  0.3990  0.8155
  640MOL0     H86378  -0.336   1.884   8.256 -1.8470  2.3691 -1.4645
  640MOL0     H86379  -0.380   1.779   8.385 -4.5127 -3.1787  0.4900
  640MOL0     H86380  -0.418   2.015   8.455 -0.3250  0.6233  0.1055
  640MOL0     H86381  -0.563   1.920   8.459 -1.1334  2.9739 -0.7777
  640MOL0     H86382   0.109   1.831   7.835 -2.7849 -0.5527  0.4288
  640MOL0     H86383   0.321   1.784   7.788  0.4007 -1.2529  1.1783
  640MOL0     H86384   0.575   1.575   7.994 -0.9600 -0.8311 -1.1524
  640MOL0     H86385   0.791   1.657   8.066  1.3687  3.2710 -0.9666
  640MOL0     H86386   2.613   0.618   8.043  0.8071 -0.7995 -2.0880
  640MOL0     H86387   2.859   0.633   8.022  2.9280  1.6098 -0.1664
  640MOL0     H86388   3.209   0.533   8.179  1.9924  0.5964  3.7786
  640MOL0     H86389   3.417   0.471   8.098 -0.4878  0.2648  2.0931
  640MOL0     H86390   3.614   0.427   8.024  1.0799  0.0647  2.1871
  640MOL0     H86391   3.717   0.493   7.895 -2.4179 -1.8027  0.3851
  640MOL0     H86392   3.881   0.581   8.080  1.5631  1.4612  3.7642
  640MOL0     H86393   3.850   0.413   8.115  2.4346  1.8071  2.7937
  640MOL0     H86394   3.693   0.434   8.273  0.4987  0.9041  3.0255
  640MOL0     H86395   3.689   0.620   8.238  0.8892  0.7527  0.1834
  640MOL0     H86396   3.809   0.602   8.428  2.6738  3.3244 -0.7638
  640MOL0     H86397   3.936   0.606   8.303  1.7232 -0.5345 -0.2311
  640MOL0     H86398   3.972   0.244   8.521 -0.6056 -0.5146  0.2026
  640MOL0     H86399   3.492   0.885   7.994 -0.7716  2.1791  1.6575
  640MOL0     H86400   3.267   0.935   8.062 -0.7938 -0.2066  1.2106
  641MOL0     O86401   1.476   5.343   2.900  0.3297  0.6415  0.5577
  641MOL0     C86402   1.356   5.361   2.925  0.6416 -0.3317 -0.7337
  641MOL0     O86403   1.305   5.464   3.002  0.1466 -0.1696  0.3807
  641MOL0     C86404   1.389   5.557   3.061 -0.7086 -0.1911  0.9689
  641MOL0     C86405   1.404   5.683   2.995  0.1811 -0.2956 -0.5111
  641MOL0     C86406   1.489   5.781   3.057  0.5754  0.7384 -0.2889
  641MOL0     C86407   1.562   5.751   3.172 -1.0068  0.8947 -0.1150
  641MOL0     O86408   1.641   5.851   3.217 -0.1998 -0.4556 -0.0387
  641MOL0     C86409   1.697   5.830   3.349 -0.8333 -0.5528  0.3160
  641MOL0     C86410   1.739   5.962   3.411 -0.2870 -0.3089 -0.0922
  641MOL0     C86411   1.881   6.016   3.362  0.1618  0.5540 -0.1526
  641MOL0     C86412   1.874   6.069   3.217  0.3609  1.0082 -1.2681
  641MOL0     C86413   2.002   6.159   3.188  0.1897  0.4771 -0.4267
  641MOL0     C86414   2.132   6.083   3.171 -0.5503  0.0130  0.2983
  641MOL0     C86415   2.256   6.179   3.142  0.0990 -0.4039  0.0722
  641MOL0     C86416   2.242   6.241   3.011  0.3855  0.0975  0.2359
  641MOL0     N86417   2.332   6.355   2.994 -0.5292  0.5469 -0.3222
  641MOL0     C86418   2.338   6.423   2.880 -0.0331 -0.5125 -0.6473
  641MOL0     C86419   2.456   6.496   2.892  0.5646  0.3892  0.1120
  641MOL0     C86420   2.526   6.568   2.780  0.1894  0.1204  0.0412
  641MOL0     C86421   2.468   6.708   2.736 -0.2286  0.0954  0.6807
  641MOL0     C86422   2.538   6.810   2.826 -0.6633  0.0769 -0.4819
  641MOL0     C86423   2.521   6.818   2.985  0.0513 -0.1144  0.4410
  641MOL0     O86424   2.598   6.934   3.035  0.3768  0.2312 -0.7321
  641MOL0     C86425   2.734   6.933   3.066  0.0668 -0.2635  0.0841
  641MOL0     C86426   2.825   6.819   3.058 -0.3839 -0.5606  0.1957
  641MOL0     C86427   2.965   6.826   3.091 -0.5638 -0.0529 -1.0682
  641MOL0     C86428   3.052   6.707   3.072 -0.3567  0.7243 -0.9996
  641MOL0     C86429   3.016   6.955   3.117 -0.0682  0.5332 -0.2918
  641MOL0     C86430   3.155   6.988   3.160  0.4423 -0.1172 -0.3410
  641MOL0     O86431   3.259   6.900   3.120 -0.9327  0.3397 -0.6031
  641MOL0     C86432   3.390   6.935   3.153  0.1562  0.3299  0.1845
  641MOL0     C86433   3.483   6.939   3.043  0.6078  0.9446 -0.4513
  641MOL0     C86434   3.624   6.970   3.060 -0.0360 -0.1957 -0.4902
  641MOL0     C86435   3.673   7.015   3.192  0.1339  0.9847 -0.0873
  641MOL0     O86436   3.803   7.038   3.224 -0.4395 -0.9492  0.6850
  641MOL0     C86437   3.901   6.990   3.127 -0.0651  0.0912  0.5900
  641MOL0     C86438   4.046   6.998   3.170  0.0836 -0.4751 -0.0147
  641MOL0     C86439   4.084   7.139   3.219  0.0359 -0.1275  0.3671
  641MOL0     C86440   4.219   7.132   3.292  1.0450 -0.0992  0.6880
  641MOL0     C86441   4.271   7.268   3.323  0.5549  0.1047 -0.5759
  641MOL0     C86442   4.213   7.328   3.452  1.2701  1.1423  0.1670
  641MOL0     C86443   4.297   7.435   3.518  0.6642  0.3360  0.2969
  641MOL0     C86444   4.285   7.558   3.437  0.1620 -0.6018 -0.0631
  641MOL0    Cl86445   4.371   7.686   3.515  0.0738  0.1460  0.0246
  641MOL0     C86446   3.570   7.027   3.290  0.2034  0.0521 -0.6257
  641MOL0     C86447   3.434   6.986   3.273 -0.3115  0.0923 -0.0423
  641MOL0     O86448   3.165   7.095   3.222 -0.6839 -1.1632  0.1793
  641MOL0     C86449   2.923   7.068   3.114  0.6331 -0.7342 -0.0678
  641MOL0     C86450   2.783   7.058   3.084  0.4195 -0.3543 -0.1455
  641MOL0     N86451   2.516   6.471   3.017  0.1428 -1.0252  0.1698
  641MOL0     N86452   2.435   6.394   3.078  0.8099  0.8312  0.6644
  641MOL0     C86453   1.546   5.623   3.230 -0.2052  1.0381 -0.3628
  641MOL0     C86454   1.472   5.522   3.169 -0.0266 -0.3366 -0.4447
  641MOL0     C86455   1.253   5.273   2.876  0.1036 -0.8966  0.7739
  641MOL0     C86456   1.279   5.160   2.801  0.5422  0.8789 -0.6276
  641MOL0     C86457   1.180   5.067   2.748 -0.2888 -0.5688 -0.6158
  641MOL0     C86458   1.050   5.104   2.763  0.2838 -0.3114 -0.5169
  641MOL0     O86459   0.962   5.019   2.708  0.1634  0.1985 -0.0685
  641MOL0     C86460   0.827   5.064   2.692  0.6899 -0.7509 -0.3939
  641MOL0     C86461   0.752   4.979   2.589  0.3750 -0.6925  0.2474
  641MOL0     C86462   0.605   5.025   2.575  0.1690  0.5098 -0.4728
  641MOL0     C86463   0.508   4.960   2.677  0.2546 -0.2607 -0.5018
  641MOL0     C86464   0.385   5.041   2.677 -0.1977 -0.5828 -0.3516
  641MOL0     C86465   0.283   5.108   2.674 -0.2275 -0.6954  0.6601
  641MOL0     C86466   1.013   5.213   2.843 -0.0652 -0.1281 -0.6900
  641MOL0     C86467   1.113   5.300   2.902  0.6461  0.6820  1.0902
  641MOL0     H86468   1.331   5.706   2.919  0.8597  0.6535 -0.8983
  641MOL0     H86469   1.491   5.887   3.033  1.9729  0.4411 -1.6661
  641MOL0     H86470   1.629   5.789   3.424 -1.8920 -1.2166 -0.9627
  641MOL0     H86471   1.781   5.761   3.343  0.6002  0.9802  1.7871
  641MOL0     H86472   1.666   6.040   3.388  1.4274  0.8374 -2.1351
  641MOL0     H86473   1.736   5.950   3.519  1.4364 -2.3320 -0.2059
  641MOL0     H86474   1.898   6.106   3.422 -0.6915  1.1385 -0.7581
  641MOL0     H86475   1.952   5.934   3.372 -3.4985 -3.2308 -2.1586
  641MOL0     H86476   1.867   5.985   3.147  0.1806 -0.3985  0.3604
  641MOL0     H86477   1.782   6.126   3.203 -0.7343 -0.1245  0.7981
  641MOL0     H86478   1.984   6.206   3.091  0.2930 -1.4914 -1.4496
  641MOL0     H86479   2.018   6.223   3.275  2.5057 -1.2076  0.4677
  641MOL0     H86480   2.155   6.036   3.267  0.9590  1.4372  0.6818
  641MOL0     H86481   2.118   6.010   3.091  1.1834 -1.0920  0.9443
  641MOL0     H86482   2.254   6.252   3.223 -1.7333  0.9544 -1.1217
  641MOL0     H86483   2.353   6.128   3.146  0.2618 -0.0366  2.0476
  641MOL0     H86484   2.142   6.282   2.997 -0.8874 -2.6029  0.6665
  641MOL0     H86485   2.253   6.162   2.935 -0.2917 -0.6379  0.8808
  641MOL0     H86486   2.282   6.409   2.788 -0.5404  0.0783 -0.4373
  641MOL0     H86487   2.632   6.578   2.804 -0.4003  1.2549  2.5413
  641MOL0     H86488   2.522   6.503   2.693  1.7957 -0.9872  0.7503
  641MOL0     H86489   2.361   6.710   2.761  0.1938 -1.4903  2.9005
  641MOL0     H86490   2.485   6.747   2.635 -1.7951  1.8069  1.0386
  641MOL0     H86491   2.508   6.913   2.801 -0.0902  1.4268  3.5907
  641MOL0     H86492   2.646   6.814   2.806 -0.1156  4.4565  1.9822
  641MOL0     H86493   2.550   6.727   3.038  0.2644 -0.7569 -0.7644
  641MOL0     H86494   2.416   6.843   3.007  0.9772  3.3420  1.6584
  641MOL0     H86495   2.778   6.724   3.036 -3.4019 -0.0939  3.7321
  641MOL0     H86496   2.989   6.619   3.052  1.8951 -1.1199 -0.3888
  641MOL0     H86497   3.119   6.711   2.986 -2.0114 -1.4564 -2.5158
  641MOL0     H86498   3.107   6.684   3.163 -4.0566 -0.9786  1.0615
  641MOL0     H86499   3.463   6.892   2.948  0.2420  1.3503 -0.5788
  641MOL0     H86500   3.702   6.952   2.987  2.2540 -0.9479  1.9819
  641MOL0     H86501   3.881   6.885   3.104 -0.9065  0.4308 -0.3731
  641MOL0     H86502   3.888   7.044   3.032 -0.6984 -3.4948 -1.5567
  641MOL0     H86503   4.068   6.923   3.247 -1.9617  0.2440  1.3623
  641MOL0     H86504   4.110   6.979   3.083  1.0479 -2.3325  1.0291
  641MOL0     H86505   4.003   7.170   3.286  0.9404  1.6362  0.6984
  641MOL0     H86506   4.099   7.203   3.131  4.5181 -2.6211 -0.9939
  641MOL0     H86507   4.207   7.065   3.377 -3.8731 -1.4655 -0.7618
  641MOL0     H86508   4.282   7.089   3.213 -2.4646 -1.8003 -1.4057
  641MOL0     H86509   4.271   7.331   3.233 -3.7704  1.5567  0.1790
  641MOL0     H86510   4.379   7.260   3.333  0.7858 -1.1698 -3.2506
  641MOL0     H86511   4.114   7.363   3.421  2.0524  0.9063 -2.8935
  641MOL0     H86512   4.195   7.258   3.534 -1.1371  1.8472  0.3057
  641MOL0     H86513   4.395   7.391   3.539 -1.1231 -3.9623  0.8758
  641MOL0     H86514   4.257   7.457   3.617  1.2694  1.2642  0.3427
  641MOL0     H86515   4.176   7.574   3.435  0.4776  1.9297 -1.0817
  641MOL0     H86516   4.315   7.540   3.333 -3.3934  5.0837 -2.5695
  641MOL0     H86517   3.610   7.068   3.382  0.8586 -1.3497 -0.2517
  641MOL0     H86518   3.369   6.977   3.358  0.6036 -0.4698  0.6148
  641MOL0     H86519   2.954   7.169   3.139 -2.2277  0.0330  0.7392
  641MOL0     H86520   2.716   7.143   3.082  0.6196 -0.1850  0.3923
  641MOL0     H86521   1.602   5.585   3.314 -2.0990 -1.4394 -0.1053
  641MOL0     H86522   1.455   5.431   3.227  0.2741  0.3544  0.7726
  641MOL0     H86523   1.385   5.136   2.797  0.5396 -0.8435  3.7116
  641MOL0     H86524   1.211   4.972   2.705  3.3062 -0.6868  1.8030
  641MOL0     H86525   0.779   5.054   2.790  2.0058  4.7432  1.1707
  641MOL0     H86526   0.826   5.171   2.671 -2.7717 -0.9469 -1.8980
  641MOL0     H86527   0.754   4.871   2.602 -0.9853 -1.2968 -3.3352
  641MOL0     H86528   0.792   5.004   2.490 -4.8061 -0.4286 -2.1035
  641MOL0     H86529   0.563   5.002   2.477 -0.8167  0.8476 -0.1444
  641MOL0     H86530   0.609   5.134   2.580  2.4417  0.4314  0.6670
  641MOL0     H86531   0.566   4.970   2.769 -0.7276  0.9733  0.0107
  641MOL0     H86532   0.491   4.854   2.659  0.6097 -0.4816  0.4026
  641MOL0     H86533   0.202   5.178   2.683  0.4696  0.3009 -0.5338
  641MOL0     H86534   0.914   5.249   2.867 -0.3119 -0.1507 -1.6243
  641MOL0     H86535   1.072   5.386   2.953  1.1247  1.8158 -0.3775
  642MOL0     O86536  10.003   0.714   9.916  0.3173  0.5537 -0.3275
  642MOL0     C86537  10.038   0.812   9.978 -0.2036 -0.4834  0.4412
  642MOL0     O86538  10.173   0.848   9.995 -0.4208 -0.5040 -1.1347
  642MOL0     C86539  10.262   0.783   9.918 -0.0299 -0.1833  0.8438
  642MOL0     C86540  10.303   0.854   9.799  0.0818  1.6530  0.4479
  642MOL0     C86541  10.410   0.796   9.719 -0.2310  0.3200 -0.6075
  642MOL0     C86542  10.471   0.685   9.756 -0.0572  0.1243  0.0193
  642MOL0     O86543  10.577   0.647   9.679 -0.3672  0.9983 -0.3594
  642MOL0     C86544  10.591   0.500   9.661  0.2837 -0.2442  0.1917
  642MOL0     C86545  10.695   0.468   9.545  0.8425 -0.4918  0.1415
  642MOL0     C86546  10.635   0.488   9.404 -0.0603  0.0479  0.0145
  642MOL0     C86547  10.511   0.403   9.362 -0.5223  0.0588 -0.1752
  642MOL0     C86548  10.482   0.430   9.221 -0.2032  0.2327 -0.2609
  642MOL0     C86549  10.360   0.342   9.178  0.1042  0.0559 -0.1464
  642MOL0     C86550  10.316   0.380   9.043  0.1530 -0.8036  0.3925
  642MOL0     C86551  10.203   0.272   9.009 -0.6873  0.5053 -0.0176
  642MOL0     N86552  10.084   0.279   9.100 -0.0610  0.5843  0.2954
  642MOL0     C86553   9.987   0.373   9.108 -0.0935 -0.8328 -0.8505
  642MOL0     C86554   9.901   0.332   9.202 -0.1428  0.2239 -1.2724
  642MOL0     C86555   9.760   0.385   9.216 -0.0769  0.5774 -0.7774
  642MOL0     C86556   9.670   0.300   9.309  0.0889 -0.3187 -0.0210
  642MOL0     C86557   9.541   0.371   9.352  0.3152 -0.0745 -1.0106
  642MOL0     C86558   9.452   0.276   9.439 -0.6192 -1.5493  0.0384
  642MOL0     O86559   9.320   0.320   9.484 -0.1495 -0.8048 -0.6980
  642MOL0     C86560   9.211   0.328   9.397  0.7195  0.5709  0.7966
  642MOL0     C86561   9.099   0.399   9.441  0.0400 -0.3331  0.8741
  642MOL0     C86562   8.992   0.431   9.355 -1.1638  0.8718  0.9510
  642MOL0     C86563   8.897   0.538   9.403 -0.2686  0.5167  0.1592
  642MOL0     C86564   8.981   0.358   9.240  0.0983  0.2038  0.6195
  642MOL0     C86565   8.857   0.354   9.168 -0.2532 -0.1323 -0.1542
  642MOL0     O86566   8.868   0.386   9.032 -0.4992 -0.3471  0.1471
  642MOL0     C86567   8.761   0.440   8.959  0.3703  0.5889 -0.1935
  642MOL0     C86568   8.714   0.570   8.981  0.5161  0.4471 -0.1381
  642MOL0     C86569   8.590   0.605   8.916 -0.3266 -0.0986  0.4642
  642MOL0     C86570   8.520   0.516   8.833 -0.9565  0.0276 -0.2620
  642MOL0     O86571   8.400   0.547   8.772 -0.4151 -0.0742  0.3691
  642MOL0     C86572   8.407   0.542   8.626 -0.7149 -0.1127  0.7265
  642MOL0     C86573   8.342   0.420   8.573  0.4655 -0.1843 -0.2351
  642MOL0     C86574   8.287   0.441   8.438 -0.9264  0.3204  0.2055
  642MOL0     C86575   8.231   0.324   8.368  0.7934 -0.3001 -0.6549
  642MOL0     C86576   8.130   0.251   8.456  0.4952 -0.2718  0.2039
  642MOL0     C86577   8.039   0.159   8.355  0.7099 -0.9360  0.4846
  642MOL0     C86578   7.926   0.092   8.439 -0.1395 -0.0903  0.1589
  642MOL0     C86579   7.822   0.014   8.342 -0.6456 -0.0051 -0.4066
  642MOL0    Cl86580   7.731   0.146   8.264 -0.3758 -0.4018  0.3593
  642MOL0     C86581   8.576   0.393   8.811  0.1637  0.3849 -0.2340
  642MOL0     C86582   8.692   0.358   8.869  0.0453 -0.1938  0.0574
  642MOL0     O86583   8.747   0.341   9.226 -0.0749 -0.4586 -0.0549
  642MOL0     C86584   9.090   0.275   9.189  0.2909  0.3230  0.3036
  642MOL0     C86585   9.200   0.262   9.272 -0.3707  0.7995 -0.0489
  642MOL0     N86586   9.932   0.207   9.250 -0.2655 -0.3803  0.6727
  642MOL0     N86587  10.049   0.178   9.187 -0.1525 -0.7249 -0.0878
  642MOL0     C86588  10.435   0.622   9.875  0.4758  0.3358 -0.1819
  642MOL0     C86589  10.326   0.669   9.957  0.4668 -0.0135  0.4241
  642MOL0     C86590   9.938   0.898  10.035 -0.8292  0.0285 -0.1053
  642MOL0     C86591   9.792   0.870  10.029  0.2885  0.0062  0.3833
  642MOL0     C86592   9.698   0.950  10.089  0.4682  0.5633  0.3158
  642MOL0     C86593   9.737   1.068  10.153 -0.4170 -0.3167  0.4225
  642MOL0     O86594   9.666   1.156  10.234  0.5730  0.5157 -0.5833
  642MOL0     C86595   9.533   1.127  10.270 -0.7746 -0.3656 -0.3509
  642MOL0     C86596   9.526   1.117  10.425  0.4975 -0.8238  0.5593
  642MOL0     C86597   9.572   0.978  10.466 -0.5292 -0.7301 -0.1047
  642MOL0     C86598   9.546   0.930  10.607  0.1460  0.6352  1.5524
  642MOL0     C86599   9.583   1.025  10.714  0.7886 -0.3231  0.2492
  642MOL0     C86600   9.607   1.118  10.782  0.0770  0.7427  0.6919
  642MOL0     C86601   9.878   1.095  10.148  1.0917 -0.1530 -0.8522
  642MOL0     C86602   9.972   1.022  10.092  0.7645  1.0028 -0.6934
  642MOL0     H86603  10.256   0.951   9.788  0.5623  2.0748  1.8508
  642MOL0     H86604  10.459   0.860   9.646  1.3395  0.2782  0.3604
  642MOL0     H86605  10.635   0.463   9.754 -3.2716 -3.9152  0.6720
  642MOL0     H86606  10.498   0.444   9.651 -1.3403  2.5854 -2.5345
  642MOL0     H86607  10.785   0.530   9.551 -0.9920  2.4454 -0.4448
  642MOL0     H86608  10.724   0.363   9.533 -0.7685 -0.9318 -0.1581
  642MOL0     H86609  10.604   0.592   9.393  0.6804  0.3004  0.2978
  642MOL0     H86610  10.707   0.462   9.326  0.5602  1.5373  0.0799
  642MOL0     H86611  10.527   0.295   9.368 -2.9563 -0.6453 -3.5392
  642MOL0     H86612  10.425   0.427   9.425 -2.2239  0.4753 -2.5279
  642MOL0     H86613  10.455   0.533   9.200 -4.1615 -0.8869 -1.3901
  642MOL0     H86614  10.578   0.404   9.175  0.8786  1.4302  1.2040
  642MOL0     H86615  10.382   0.234   9.180 -0.1417 -0.0036  1.9304
  642MOL0     H86616  10.279   0.373   9.244  0.4156  2.9931 -1.0249
  642MOL0     H86617  10.279   0.483   9.045  1.7843 -0.1846  0.0746
  642MOL0     H86618  10.400   0.393   8.974  1.5890  0.5103  2.2950
  642MOL0     H86619  10.248   0.175   9.036 -2.1594  0.3522  2.0924
  642MOL0     H86620  10.165   0.273   8.907  3.1562 -0.3028 -1.6678
  642MOL0     H86621   9.968   0.462   9.048  2.2715 -0.5297 -1.2500
  642MOL0     H86622   9.782   0.481   9.263  0.0487  1.1540 -1.9886
  642MOL0     H86623   9.717   0.399   9.117  2.6436  0.3538 -2.0632
  642MOL0     H86624   9.734   0.284   9.397 -0.7329  4.4253  1.7347
  642MOL0     H86625   9.651   0.203   9.262 -0.7109  0.8884 -2.3207
  642MOL0     H86626   9.476   0.405   9.270 -1.1060  3.5089  1.3530
  642MOL0     H86627   9.562   0.461   9.410 -0.9168 -1.8465  2.5074
  642MOL0     H86628   9.510   0.260   9.531  0.8016 -0.6662 -0.6663
  642MOL0     H86629   9.440   0.182   9.384  1.0919 -0.6640 -1.9975
  642MOL0     H86630   9.120   0.433   9.542 -0.4833  0.7248  0.6351
  642MOL0     H86631   8.857   0.600   9.323 -1.1137  0.9935  0.9296
  642MOL0     H86632   8.809   0.489   9.447  0.0809  1.1778  1.6925
  642MOL0     H86633   8.951   0.599   9.477  1.4093  0.1084 -0.6868
  642MOL0     H86634   8.771   0.617   9.060  1.7079 -2.6654  1.0018
  642MOL0     H86635   8.555   0.701   8.952  1.4019  0.8699 -0.3077
  642MOL0     H86636   8.366   0.635   8.586  4.0233  2.1405  0.3799
  642MOL0     H86637   8.508   0.557   8.587 -1.4432  0.3350 -1.0955
  642MOL0     H86638   8.398   0.326   8.580 -2.7384 -2.2586 -0.3254
  642MOL0     H86639   8.262   0.397   8.645 -0.0677 -1.6562 -1.2377
  642MOL0     H86640   8.364   0.477   8.368  0.1980  1.1941  1.8156
  642MOL0     H86641   8.205   0.512   8.451 -3.2059 -2.3488  1.3490
  642MOL0     H86642   8.184   0.355   8.274 -2.4804 -1.4475  0.4676
  642MOL0     H86643   8.316   0.263   8.338  2.9220  2.9486 -1.7937
  642MOL0     H86644   8.069   0.321   8.514  0.9915 -1.1445  1.8169
  642MOL0     H86645   8.183   0.183   8.523  2.2350 -0.9926 -1.7925
  642MOL0     H86646   8.000   0.222   8.273  3.7804  0.7797  0.1948
  642MOL0     H86647   8.094   0.083   8.299 -2.2582 -1.4720 -1.9761
  642MOL0     H86648   7.872   0.172   8.492  1.4938  0.8122  0.5428
  642MOL0     H86649   7.954   0.015   8.512 -4.0540 -1.6141  0.3030
  642MOL0     H86650   7.753  -0.048   8.401 -1.9439  1.7133 -0.0449
  642MOL0     H86651   7.876  -0.047   8.270  1.1999  1.9229 -0.7511
  642MOL0     H86652   8.526   0.319   8.751  0.0833 -0.3256  0.6879
  642MOL0     H86653   8.726   0.257   8.847  0.0533 -0.3562  0.7864
  642MOL0     H86654   9.077   0.218   9.097 -4.4614 -1.7425  1.9265
  642MOL0     H86655   9.287   0.222   9.222 -0.8053  2.8019 -2.6097
  642MOL0     H86656  10.487   0.532   9.907  0.7468  0.3355 -0.6128
  642MOL0     H86657  10.301   0.621  10.050  3.4244 -2.3838  0.1371
  642MOL0     H86658   9.755   0.775   9.993 -0.4126  0.0639  0.9290
  642MOL0     H86659   9.593   0.924  10.097  1.0621 -2.0661  0.4495
  642MOL0     H86660   9.481   1.218  10.239  0.3195  2.4891  4.8719
  642MOL0     H86661   9.484   1.044  10.218 -2.9241  0.6844 -0.1005
  642MOL0     H86662   9.422   1.127  10.458  0.3969 -0.4785  0.1454
  642MOL0     H86663   9.584   1.201  10.464  0.0990 -0.0409 -0.4964
  642MOL0     H86664   9.680   0.984  10.448 -0.9073  0.3873 -2.3447
  642MOL0     H86665   9.528   0.899  10.404 -2.2633  0.3846 -0.3432
  642MOL0     H86666   9.590   0.830  10.613  0.7808  0.9529  2.4707
  642MOL0     H86667   9.437   0.925  10.611 -0.0177 -1.5347 -1.7711
  642MOL0     H86668   9.624   1.213  10.828 -0.2558  0.8653  0.5585
  642MOL0     H86669   9.916   1.193  10.175 -2.0268  1.7968 -2.8951
  642MOL0     H86670  10.073   1.055  10.114  0.3367  1.4609  0.6725
  643MOL0     O86671   2.791   6.439   0.104 -0.3988  0.3513  0.3522
  643MOL0     C86672   2.814   6.553   0.143  0.2061 -0.9608  0.2181
  643MOL0     O86673   2.738   6.664   0.133 -0.2865 -0.2313 -1.1854
  643MOL0     C86674   2.628   6.662   0.060  0.2995  1.3266  0.4251
  643MOL0     C86675   2.624   6.599  -0.067  0.4534 -0.1842  0.5327
  643MOL0     C86676   2.495   6.580  -0.129  0.2864  0.5823 -0.2646
  643MOL0     C86677   2.380   6.634  -0.076 -0.6475  0.1379  0.8529
  643MOL0     O86678   2.256   6.593  -0.126 -0.4608  0.3118 -0.1662
  643MOL0     C86679   2.214   6.647  -0.258 -0.0972  0.0406 -0.6718
  643MOL0     C86680   2.096   6.725  -0.229  0.6683  0.5932  0.3959
  643MOL0     C86681   1.996   6.719  -0.351 -0.4978  0.0577  0.8507
  643MOL0     C86682   1.870   6.799  -0.326  0.3437 -0.1677  0.5382
  643MOL0     C86683   1.768   6.792  -0.442  0.2262  0.2202  0.4425
  643MOL0     C86684   1.637   6.857  -0.386 -0.5100 -0.2407  0.0335
  643MOL0     C86685   1.524   6.825  -0.488  0.3604 -0.3753  0.9419
  643MOL0     C86686   1.391   6.893  -0.466  0.0083 -0.3376 -0.6552
  643MOL0     N86687   1.385   7.045  -0.500  0.2377 -0.1126  0.0462
  643MOL0     C86688   1.299   7.109  -0.598  0.5148 -0.3174  0.1706
  643MOL0     C86689   1.336   7.238  -0.589  0.0107 -0.0069 -0.2764
  643MOL0     C86690   1.280   7.345  -0.673  0.1407  0.6892 -0.1224
  643MOL0     C86691   1.343   7.370  -0.817  0.7506 -0.5751 -1.1963
  643MOL0     C86692   1.500   7.359  -0.820 -0.0479  0.1250 -0.4156
  643MOL0     C86693   1.553   7.462  -0.726  0.2412  0.6880 -0.2803
  643MOL0     O86694   1.685   7.497  -0.754  0.1422 -0.6049  0.2036
  643MOL0     C86695   1.788   7.453  -0.676 -0.2534 -0.0995  0.5997
  643MOL0     C86696   1.781   7.329  -0.608 -0.5818 -0.1055 -0.5736
  643MOL0     C86697   1.882   7.284  -0.527 -0.0185  0.3421  0.4764
  643MOL0     C86698   1.855   7.165  -0.442  0.7804  0.1818  0.9817
  643MOL0     C86699   2.012   7.343  -0.546 -0.7567  0.2810 -0.4917
  643MOL0     C86700   2.143   7.289  -0.490 -0.3583  0.1772  0.4044
  643MOL0     O86701   2.146   7.155  -0.463 -0.0233 -0.0507 -0.5578
  643MOL0     C86702   2.273   7.102  -0.423  0.4883  0.5193 -0.0658
  643MOL0     C86703   2.366   7.081  -0.523 -0.0453  0.5082 -0.4747
  643MOL0     C86704   2.491   7.024  -0.479 -0.2243  0.3919  0.5511
  643MOL0     C86705   2.521   6.992  -0.339 -0.0954 -0.3530  0.7376
  643MOL0     O86706   2.653   6.970  -0.309  0.2649  0.6810  1.1033
  643MOL0     C86707   2.691   6.958  -0.175  0.3807 -0.3381  0.2877
  643MOL0     C86708   2.844   6.918  -0.172  0.6993 -0.1793 -0.7759
  643MOL0     C86709   2.906   6.905  -0.028 -0.2744 -0.3053 -0.0964
  643MOL0     C86710   3.040   6.843  -0.044 -0.3443  0.9664 -0.0499
  643MOL0     C86711   3.147   6.940  -0.093  0.5137 -0.8622 -0.3194
  643MOL0     C86712   3.292   6.890  -0.063  0.2851  0.2766  0.2807
  643MOL0     C86713   3.397   6.982  -0.123 -0.0160  0.4776  1.0589
  643MOL0     C86714   3.539   6.974  -0.060 -0.1281 -0.3437 -0.5304
  643MOL0    Cl86715   3.589   6.806  -0.033 -0.2850  0.3195 -0.2109
  643MOL0     C86716   2.413   7.004  -0.243  0.2038  0.2924  0.4580
  643MOL0     C86717   2.289   7.054  -0.292  0.3561  0.5254 -1.1030
  643MOL0     O86718   2.242   7.364  -0.489 -0.3782  0.5130  0.0019
  643MOL0     C86719   2.025   7.469  -0.614  0.8498  0.0186 -0.3289
  643MOL0     C86720   1.910   7.515  -0.680  0.2678  0.4439  0.3063
  643MOL0     N86721   1.438   7.257  -0.499  0.1069  0.5355 -0.3423
  643MOL0     N86722   1.457   7.146  -0.436 -0.1743 -0.5528  0.4578
  643MOL0     C86723   2.389   6.713   0.043 -0.3912  0.6581  0.3564
  643MOL0     C86724   2.513   6.723   0.105 -0.6579 -0.0483 -0.9358
  643MOL0     C86725   2.957   6.585   0.180 -0.3065 -0.3884  1.3792
  643MOL0     C86726   2.992   6.688   0.267  0.2312  0.6128  0.1296
  643MOL0     C86727   3.125   6.721   0.302  0.1121  0.0562  0.3546
  643MOL0     C86728   3.232   6.654   0.242  0.4376  0.3974 -0.0462
  643MOL0     O86729   3.360   6.689   0.267  0.5565  0.0843 -0.2803
  643MOL0     C86730   3.477   6.624   0.227 -0.4142 -0.6770 -0.0892
  643MOL0     C86731   3.593   6.717   0.276  0.8850 -0.4268  0.2733
  643MOL0     C86732   3.730   6.658   0.243  0.3001  0.2934  0.3969
  643MOL0     C86733   3.747   6.517   0.295 -0.2283  0.2211 -0.0247
  643MOL0     C86734   3.892   6.498   0.282 -1.0025  0.3599  0.4071
  643MOL0     C86735   4.010   6.494   0.310  0.5343  0.2047  0.1771
  643MOL0     C86736   3.194   6.551   0.149 -1.3054 -0.6972 -0.0857
  643MOL0     C86737   3.067   6.514   0.123 -0.2236  0.2267  0.1845
  643MOL0     H86738   2.706   6.560  -0.127 -0.5109  1.9744 -2.3957
  643MOL0     H86739   2.480   6.534  -0.226 -1.0649  1.2018 -0.3805
  643MOL0     H86740   2.289   6.711  -0.304 -1.0777  1.9208  0.2477
  643MOL0     H86741   2.184   6.563  -0.322  0.3854  0.2813 -1.2216
  643MOL0     H86742   2.048   6.681  -0.141 -0.2105  1.8265  0.5594
  643MOL0     H86743   2.127   6.827  -0.202  1.9740  0.3872 -0.2555
  643MOL0     H86744   2.041   6.764  -0.440  0.1055 -2.1183 -0.0018
  643MOL0     H86745   1.973   6.616  -0.379  1.0456 -0.3774  1.1345
  643MOL0     H86746   1.818   6.765  -0.236 -1.5152 -4.3384 -1.8131
  643MOL0     H86747   1.893   6.903  -0.298  1.1562 -0.7567  2.1850
  643MOL0     H86748   1.793   6.846  -0.534 -3.6311  1.9831  0.2371
  643MOL0     H86749   1.755   6.686  -0.465  1.4841  0.2872 -0.7098
  643MOL0     H86750   1.607   6.806  -0.294 -0.6581 -0.1275  0.0487
  643MOL0     H86751   1.652   6.962  -0.358 -0.8617 -0.3806  0.7773
  643MOL0     H86752   1.561   6.858  -0.586 -3.7650  2.7095  0.1731
  643MOL0     H86753   1.506   6.717  -0.488  0.7183 -0.4413  0.3176
  643MOL0     H86754   1.375   6.892  -0.358 -0.6665  1.3919 -0.7049
  643MOL0     H86755   1.314   6.836  -0.519  0.2001  0.7658 -2.2011
  643MOL0     H86756   1.221   7.081  -0.668  1.2946 -0.9767 -0.4540
  643MOL0     H86757   1.177   7.311  -0.684 -0.4592  2.2551  0.2992
  643MOL0     H86758   1.272   7.440  -0.620 -1.8439 -0.2965  1.4722
  643MOL0     H86759   1.308   7.469  -0.850 -1.3134 -0.7285  0.3586
  643MOL0     H86760   1.289   7.297  -0.878  0.4588 -4.9866  3.6805
  643MOL0     H86761   1.535   7.399  -0.916  0.8457 -1.0795 -0.6140
  643MOL0     H86762   1.533   7.259  -0.790 -3.1506 -0.2818  2.1607
  643MOL0     H86763   1.545   7.430  -0.622  2.8144  0.3914 -0.1257
  643MOL0     H86764   1.496   7.554  -0.743 -3.3164 -1.0358  1.2682
  643MOL0     H86765   1.685   7.280  -0.595 -0.7401  0.5866  1.0864
  643MOL0     H86766   1.747   7.147  -0.443  0.6878  0.6835 -0.0008
  643MOL0     H86767   1.916   7.081  -0.478  3.2965  1.3220  2.3127
  643MOL0     H86768   1.887   7.188  -0.340 -0.7044  4.2519  0.7050
  643MOL0     H86769   2.348   7.115  -0.624 -0.5721 -3.1751 -1.7486
  643MOL0     H86770   2.568   7.014  -0.555 -0.3775 -0.0921  0.4544
  643MOL0     H86771   2.661   7.046  -0.119 -0.1353  0.3453 -1.0085
  643MOL0     H86772   2.639   6.873  -0.130  1.2238  0.0586  2.0664
  643MOL0     H86773   2.861   6.826  -0.229 -2.2666 -1.0245 -0.4745
  643MOL0     H86774   2.890   7.005  -0.220  1.9892 -1.0906 -1.2677
  643MOL0     H86775   2.846   6.831   0.025 -1.1780  1.5220  1.5381
  643MOL0     H86776   2.914   6.994   0.036  1.4591 -0.0507 -0.6257
  643MOL0     H86777   3.071   6.807   0.054  0.3173  0.4219 -0.4522
  643MOL0     H86778   3.037   6.760  -0.115  1.0137 -1.0568  2.1277
  643MOL0     H86779   3.133   7.033  -0.038  0.2525 -2.4168  2.4361
  643MOL0     H86780   3.150   6.967  -0.199  0.7615  1.2407  0.1797
  643MOL0     H86781   3.296   6.890   0.046  0.2258  1.1986  0.2905
  643MOL0     H86782   3.294   6.790  -0.108  1.7937  1.4608 -2.5625
  643MOL0     H86783   3.355   7.083  -0.126 -1.1619 -0.0033  0.6604
  643MOL0     H86784   3.407   6.945  -0.226 -3.9114 -1.4261  1.1992
  643MOL0     H86785   3.531   7.040   0.027  3.2940  0.5455 -0.7530
  643MOL0     H86786   3.608   7.034  -0.121 -1.8319  2.4455  0.0998
  643MOL0     H86787   2.416   6.982  -0.137  1.3934 -2.3580 -0.0378
  643MOL0     H86788   2.202   7.071  -0.230  2.0945  1.5734  1.2023
  643MOL0     H86789   2.118   7.523  -0.631  0.8835 -0.1599 -0.7445
  643MOL0     H86790   1.922   7.602  -0.745  2.1589 -0.3252 -0.4377
  643MOL0     H86791   2.297   6.744   0.093 -0.8225 -0.6589  0.4210
  643MOL0     H86792   2.526   6.779   0.197  4.5855 -2.5669  0.2641
  643MOL0     H86793   2.908   6.735   0.318  0.4815  0.6871  0.4784
  643MOL0     H86794   3.148   6.795   0.378 -1.1167  1.0023 -0.1520
  643MOL0     H86795   3.479   6.517   0.253 -2.7131 -0.1019  3.0257
  643MOL0     H86796   3.480   6.613   0.118 -2.0258 -2.5353 -0.0129
  643MOL0     H86797   3.577   6.721   0.384 -3.9642  3.1411 -0.2171
  643MOL0     H86798   3.592   6.817   0.232  0.2729 -1.0322 -1.1396
  643MOL0     H86799   3.801   6.730   0.284 -2.3974  2.6157  1.3797
  643MOL0     H86800   3.741   6.651   0.135 -3.1046 -2.5925  0.0186
  643MOL0     H86801   3.689   6.439   0.245  1.3359 -0.5211 -0.7641
  643MOL0     H86802   3.733   6.516   0.403  0.9849  0.1768  0.1494
  643MOL0     H86803   4.112   6.501   0.341  0.8842 -1.2658 -0.5553
  643MOL0     H86804   3.276   6.504   0.095 -1.3317  0.5826 -1.2719
  643MOL0     H86805   3.045   6.416   0.082 -1.0020  0.8678 -0.9935
  644MOL0     O86806   5.688   1.788   3.862 -0.4526  0.0294  0.5485
  644MOL0     C86807   5.599   1.867   3.832  0.9549  0.1522  0.6779
  644MOL0     O86808   5.617   1.964   3.739 -0.5315  0.1615  0.2428
  644MOL0     C86809   5.723   1.958   3.656 -0.3935  0.4013  1.0091
  644MOL0     C86810   5.723   1.875   3.540  0.4584 -0.0195 -0.1498
  644MOL0     C86811   5.821   1.873   3.450  1.0309 -0.4115  0.8645
  644MOL0     C86812   5.923   1.977   3.458 -0.8152  0.8024 -0.0131
  644MOL0     O86813   6.024   1.996   3.367 -0.1443 -0.2229 -0.2837
  644MOL0     C86814   6.034   1.906   3.257  0.3449  0.3583 -0.4684
  644MOL0     C86815   6.168   1.909   3.178  0.6058  0.3706  0.6194
  644MOL0     C86816   6.288   1.862   3.270  0.3885  0.4552 -0.1479
  644MOL0     C86817   6.306   1.705   3.283  0.1483  0.8352  0.4949
  644MOL0     C86818   6.427   1.660   3.373  0.0558 -0.2080  1.1477
  644MOL0     C86819   6.560   1.698   3.311 -0.7067  0.3774 -0.3675
  644MOL0     C86820   6.690   1.653   3.390 -0.0811  0.0323 -0.9157
  644MOL0     C86821   6.806   1.636   3.290  1.0004 -0.0582 -0.1544
  644MOL0     N86822   6.927   1.607   3.368 -0.0926 -0.1776  0.1607
  644MOL0     C86823   6.954   1.495   3.438  1.1189 -0.1835 -0.2663
  644MOL0     C86824   7.067   1.513   3.502 -0.0009  0.1576 -0.2960
  644MOL0     C86825   7.142   1.421   3.589 -0.0550  0.8807 -0.4424
  644MOL0     C86826   7.262   1.353   3.524 -0.1758 -1.2489 -0.3555
  644MOL0     C86827   7.335   1.252   3.602  0.9549  1.4533 -0.5243
  644MOL0     C86828   7.262   1.120   3.649  0.2256  1.0807 -0.3030
  644MOL0     O86829   7.349   1.029   3.725  0.0058 -0.4762 -0.3829
  644MOL0     C86830   7.289   0.916   3.787 -0.7507  0.6871 -0.1464
  644MOL0     C86831   7.354   0.858   3.897 -0.0610  0.4529 -1.2145
  644MOL0     C86832   7.300   0.742   3.960 -0.7047  0.3998 -0.5171
  644MOL0     C86833   7.377   0.672   4.077 -0.1521 -0.5849  1.0689
  644MOL0     C86834   7.169   0.691   3.918 -0.6809  0.5255 -0.0935
  644MOL0     C86835   7.097   0.573   3.964  0.1540  0.9308  0.8079
  644MOL0     O86836   6.978   0.550   3.908 -0.2118  0.7125 -0.6974
  644MOL0     C86837   6.889   0.440   3.908 -0.4418 -0.2863 -1.3807
  644MOL0     C86838   6.913   0.330   3.992  1.2612  0.2491 -0.4191
  644MOL0     C86839   6.811   0.238   3.993  1.4497  0.2793  0.7236
  644MOL0     C86840   6.695   0.245   3.910  0.7552 -0.6354  0.9423
  644MOL0     O86841   6.589   0.155   3.913 -0.0418  0.3304 -0.7562
  644MOL0     C86842   6.642   0.035   3.853  0.4906 -0.3558 -0.0631
  644MOL0     C86843   6.528  -0.073   3.857 -0.4033  1.0072 -0.2112
  644MOL0     C86844   6.562  -0.173   3.978  0.5372  0.2027  0.8397
  644MOL0     C86845   6.533  -0.115   4.118 -0.2735 -0.3555 -0.1907
  644MOL0     C86846   6.551  -0.225   4.228  0.5017  0.3971  0.1153
  644MOL0     C86847   6.414  -0.295   4.248  0.6657 -0.3588 -0.0175
  644MOL0     C86848   6.430  -0.438   4.297 -0.2936 -0.7425  0.7844
  644MOL0     C86849   6.300  -0.514   4.331  0.2605  0.8064  0.4937
  644MOL0    Cl86850   6.222  -0.531   4.166 -0.3347  0.4860 -0.0549
  644MOL0     C86851   6.678   0.347   3.821  0.4162  0.4104  0.5412
  644MOL0     C86852   6.773   0.451   3.828 -0.0231 -0.1755  0.2946
  644MOL0     O86853   7.157   0.496   4.041 -0.3546 -0.1386  0.6173
  644MOL0     C86854   7.115   0.758   3.804  0.8913  0.6833  0.3292
  644MOL0     C86855   7.175   0.864   3.739 -0.9728  0.9052  0.3676
  644MOL0     N86856   7.107   1.640   3.476  0.5310 -0.1083  0.2176
  644MOL0     N86857   7.026   1.693   3.394 -0.0897 -0.3454  0.7610
  644MOL0     C86858   5.924   2.060   3.566 -0.1421 -1.0569 -0.6483
  644MOL0     C86859   5.824   2.056   3.672 -0.3236  0.3268  0.0166
  644MOL0     C86860   5.483   1.874   3.928 -0.0035 -0.0080  0.3200
  644MOL0     C86861   5.438   1.764   3.999 -0.2452 -0.4185 -0.5653
  644MOL0     C86862   5.334   1.775   4.089 -0.3527  0.2006  0.1698
  644MOL0     C86863   5.250   1.889   4.091 -0.5280 -0.3724 -0.0101
  644MOL0     O86864   5.137   1.907   4.166 -0.1555  0.1595  0.3411
  644MOL0     C86865   5.105   1.800   4.256 -1.8627  0.7311  1.5291
  644MOL0     C86866   4.974   1.844   4.310 -0.6937 -0.9870  0.1231
  644MOL0     C86867   4.854   1.783   4.233 -0.9133 -0.0871  0.7296
  644MOL0     C86868   4.709   1.819   4.283  0.7264  0.1875 -0.8992
  644MOL0     C86869   4.601   1.744   4.215  0.0031  0.2341  0.0222
  644MOL0     C86870   4.516   1.686   4.158  0.1316  0.6408  1.2155
  644MOL0     C86871   5.282   1.996   4.013  0.2920 -0.1205  0.6494
  644MOL0     C86872   5.405   1.989   3.936 -0.3802  0.6037 -0.7574
  644MOL0     H86873   5.634   1.816   3.520  0.2941  0.5147 -1.0432
  644MOL0     H86874   5.811   1.795   3.375 -0.0499  0.0071  0.5539
  644MOL0     H86875   6.038   1.809   3.308  4.5187  1.7306  2.3194
  644MOL0     H86876   5.947   1.917   3.192 -0.7992  0.0095  0.9560
  644MOL0     H86877   6.163   1.837   3.095  0.3955  0.4489  0.5635
  644MOL0     H86878   6.193   2.007   3.136 -0.4984  0.2657 -0.3132
  644MOL0     H86879   6.378   1.911   3.233  1.3617 -2.1042 -1.4419
  644MOL0     H86880   6.257   1.901   3.368 -0.0668  0.3919 -0.2609
  644MOL0     H86881   6.219   1.672   3.341  0.6287  0.1834  0.8465
  644MOL0     H86882   6.306   1.658   3.184 -0.0088 -2.0238  1.7591
  644MOL0     H86883   6.411   1.718   3.465 -2.1497 -0.4953  1.0107
  644MOL0     H86884   6.429   1.554   3.400 -2.4895 -0.8348 -0.6592
  644MOL0     H86885   6.564   1.631   3.225 -1.6388 -1.7142  1.1382
  644MOL0     H86886   6.569   1.801   3.275  0.0780 -0.1988 -1.9141
  644MOL0     H86887   6.708   1.731   3.464 -2.3628  0.9041 -1.1731
  644MOL0     H86888   6.694   1.554   3.438  3.8090  1.0924  1.3359
  644MOL0     H86889   6.821   1.733   3.241  1.0001 -0.3826 -0.8106
  644MOL0     H86890   6.787   1.564   3.210  2.0850 -0.7064  0.1567
  644MOL0     H86891   6.900   1.401   3.445 -1.8510  1.3286 -0.8962
  644MOL0     H86892   7.171   1.478   3.677 -2.2693  0.8403  0.3765
  644MOL0     H86893   7.069   1.349   3.628  0.0888  0.6023 -0.6867
  644MOL0     H86894   7.335   1.432   3.504 -1.5620 -0.2659 -1.8947
  644MOL0     H86895   7.219   1.299   3.439 -3.0542  1.2961 -0.7517
  644MOL0     H86896   7.369   1.299   3.695 -0.3677 -2.0634  1.9661
  644MOL0     H86897   7.427   1.232   3.546  0.9794  0.3675 -0.1113
  644MOL0     H86898   7.234   1.060   3.562  1.2530  0.1096  0.0156
  644MOL0     H86899   7.173   1.132   3.710 -0.0637 -2.1078  0.0416
  644MOL0     H86900   7.445   0.913   3.918 -2.0320  3.2600  0.7417
  644MOL0     H86901   7.315   0.658   4.166  0.9628 -1.6106  1.7094
  644MOL0     H86902   7.420   0.579   4.037  1.1484 -0.3424  1.8409
  644MOL0     H86903   7.449   0.737   4.128  1.1608 -1.7467  0.7689
  644MOL0     H86904   7.007   0.319   4.044  0.6953  3.7888  1.7357
  644MOL0     H86905   6.827   0.157   4.063  0.6626 -0.7242 -0.2268
  644MOL0     H86906   6.668   0.051   3.748 -1.1910  1.3058 -0.2574
  644MOL0     H86907   6.736   0.004   3.901  1.0123  0.9332 -0.2145
  644MOL0     H86908   6.429  -0.029   3.867 -0.1174  1.6661 -0.2696
  644MOL0     H86909   6.546  -0.129   3.764  2.6961  2.3002 -0.5156
  644MOL0     H86910   6.666  -0.204   3.963 -0.4111 -2.7653 -0.2866
  644MOL0     H86911   6.498  -0.260   3.966  0.3684  0.5190 -0.9386
  644MOL0     H86912   6.601  -0.032   4.135  1.9397 -1.5239 -2.6238
  644MOL0     H86913   6.435  -0.069   4.134  0.4660  1.7896 -1.4431
  644MOL0     H86914   6.575  -0.178   4.324  4.1237  0.2243 -0.5648
  644MOL0     H86915   6.638  -0.290   4.217 -1.3658 -2.2793  0.1946
  644MOL0     H86916   6.362  -0.238   4.326  0.3213  0.8977 -1.1202
  644MOL0     H86917   6.351  -0.295   4.158 -0.9536  3.1336  0.9161
  644MOL0     H86918   6.498  -0.436   4.383  2.3629 -0.5398 -1.1839
  644MOL0     H86919   6.490  -0.488   4.221 -2.0787 -0.3938 -0.9167
  644MOL0     H86920   6.235  -0.473   4.409  0.1081 -0.3782  1.0280
  644MOL0     H86921   6.330  -0.614   4.364 -1.7251 -0.5245 -1.4244
  644MOL0     H86922   6.589   0.346   3.760 -0.7871 -0.0985  2.2259
  644MOL0     H86923   6.774   0.539   3.765  0.9222  0.8689  1.7106
  644MOL0     H86924   7.024   0.716   3.762  1.5316 -0.2068 -0.2082
  644MOL0     H86925   7.121   0.905   3.655 -0.4341 -1.1140 -1.0559
  644MOL0     H86926   5.997   2.141   3.567  0.5434 -1.6289  1.6536
  644MOL0     H86927   5.818   2.128   3.753  0.4154  0.8902 -0.4169
  644MOL0     H86928   5.507   1.680   3.998  2.0675  1.3463  1.1935
  644MOL0     H86929   5.315   1.694   4.158  0.1040 -0.3993 -0.3999
  644MOL0     H86930   5.091   1.700   4.212  1.6846  0.6508  0.2818
  644MOL0     H86931   5.186   1.801   4.329  0.4795  0.7192 -0.9056
  644MOL0     H86932   4.954   1.950   4.327 -4.7200 -0.8962 -3.5625
  644MOL0     H86933   4.974   1.800   4.410 -0.1953 -3.7988 -1.0144
  644MOL0     H86934   4.863   1.675   4.248  1.0697 -0.0790 -0.0374
  644MOL0     H86935   4.862   1.811   4.128 -2.5320 -1.8845  0.0578
  644MOL0     H86936   4.695   1.925   4.262 -0.1987  0.0791 -0.8717
  644MOL0     H86937   4.703   1.800   4.391  2.4285  1.0849 -0.6110
  644MOL0     H86938   4.458   1.619   4.098 -1.7818  0.9715  2.6054
  644MOL0     H86939   5.220   2.085   4.016  1.0755  0.4171  1.7241
  644MOL0     H86940   5.419   2.072   3.868 -0.9509  0.1266 -1.4741
  645MOL0     O86941  10.434   6.641   5.489  0.2698 -0.0032 -0.3249
  645MOL0     C86942  10.423   6.767   5.478  0.5693 -0.5877 -0.3523
  645MOL0     O86943  10.306   6.838   5.486 -0.2131 -1.1108 -0.2630
  645MOL0     C86944  10.190   6.762   5.486 -0.5533  0.3335 -0.0814
  645MOL0     C86945  10.120   6.743   5.365 -0.0535 -0.0857 -0.5256
  645MOL0     C86946  10.002   6.672   5.373  0.0617  0.4953  1.2628
  645MOL0     C86947   9.945   6.621   5.490 -0.6184  0.3138  0.1217
  645MOL0     O86948   9.823   6.563   5.499  0.2818 -0.3712  0.4945
  645MOL0     C86949   9.721   6.552   5.398  0.1529  0.4977  0.1421
  645MOL0     C86950   9.599   6.495   5.468 -0.0804 -0.0704 -0.5254
  645MOL0     C86951   9.596   6.337   5.469  0.4067  0.0062 -0.3459
  645MOL0     C86952   9.722   6.269   5.512 -0.3589  0.1563 -0.2163
  645MOL0     C86953   9.692   6.131   5.574 -0.3969 -0.6739 -0.3045
  645MOL0     C86954   9.820   6.053   5.596 -0.3643  0.3815 -0.2465
  645MOL0     C86955   9.916   6.100   5.698 -0.4772 -0.5464  0.3362
  645MOL0     C86956   9.911   6.032   5.829  0.4074  0.1712 -0.3185
  645MOL0     N86957   9.785   6.069   5.901 -0.4417  0.7349 -0.1855
  645MOL0     C86958   9.771   6.193   5.960  0.9980 -0.5944  0.0416
  645MOL0     C86959   9.642   6.207   5.998 -0.0817  0.4857  0.3200
  645MOL0     C86960   9.579   6.323   6.072  1.5254  0.0244  0.9939
  645MOL0     C86961   9.571   6.449   5.991 -0.2138 -0.0901  0.0698
  645MOL0     C86962   9.497   6.429   5.851 -0.3604  0.4155  0.7785
  645MOL0     C86963   9.460   6.566   5.803  0.6498 -0.0153  0.1559
  645MOL0     O86964   9.336   6.599   5.872 -0.3190 -0.0611  0.3361
  645MOL0     C86965   9.287   6.725   5.847  0.3114 -0.0714 -0.9523
  645MOL0     C86966   9.145   6.741   5.878  0.2523  0.0989 -0.6032
  645MOL0     C86967   9.072   6.855   5.845  0.3264 -0.0830 -0.6343
  645MOL0     C86968   8.930   6.863   5.877  0.3022  0.3237  1.0329
  645MOL0     C86969   9.131   6.951   5.757 -0.0019 -0.1605  0.0437
  645MOL0     C86970   9.055   7.056   5.690  0.1490 -0.4757 -0.0728
  645MOL0     O86971   8.958   7.022   5.595 -0.3833 -0.1210 -0.3056
  645MOL0     C86972   8.882   7.129   5.544 -0.2302  0.6313  0.0785
  645MOL0     C86973   8.927   7.245   5.492  0.0428  0.4516 -0.4697
  645MOL0     C86974   8.850   7.349   5.444  0.0629  0.2933  0.4495
  645MOL0     C86975   8.711   7.340   5.456 -0.3366 -0.3180  0.4220
  645MOL0     O86976   8.639   7.434   5.394  1.2371 -0.5839 -0.2102
  645MOL0     C86977   8.675   7.578   5.412  0.0953 -0.5546  0.6130
  645MOL0     C86978   8.552   7.655   5.451 -0.4269 -0.2915 -0.5317
  645MOL0     C86979   8.436   7.636   5.347 -0.6648 -0.0608 -0.1409
  645MOL0     C86980   8.315   7.718   5.385  0.7449 -0.6131  0.2173
  645MOL0     C86981   8.206   7.687   5.278  1.0302 -0.2213 -0.3583
  645MOL0     C86982   8.077   7.773   5.289 -0.7649  0.2348  0.9934
  645MOL0     C86983   8.109   7.918   5.270  0.5912  0.5115 -1.2764
  645MOL0     C86984   7.978   7.987   5.266 -0.2420  0.0353 -0.8710
  645MOL0    Cl86985   7.897   8.045   5.417 -0.0858  0.6214 -0.0999
  645MOL0     C86986   8.659   7.216   5.499  0.0484 -0.7368 -1.2956
  645MOL0     C86987   8.744   7.116   5.544  0.7174 -0.0195 -0.0851
  645MOL0     O86988   9.095   7.168   5.713 -0.7658 -0.1901  0.3746
  645MOL0     C86989   9.273   6.943   5.734 -0.2828  0.0256  0.4465
  645MOL0     C86990   9.348   6.834   5.786  0.3876 -1.0787  0.0795
  645MOL0     N86991   9.578   6.095   5.967 -0.1357  0.3057  0.2626
  645MOL0     N86992   9.659   6.011   5.899  0.2999 -0.8383 -0.4533
  645MOL0     C86993  10.018   6.631   5.603  0.6568 -1.1971  0.3789
  645MOL0     C86994  10.139   6.696   5.604 -0.7329  0.0203  0.2334
  645MOL0     C86995  10.549   6.842   5.492 -0.8239  0.6362 -0.3876
  645MOL0     C86996  10.674   6.786   5.471 -0.1825 -0.1967  0.9886
  645MOL0     C86997  10.786   6.866   5.450  0.2736 -0.4968  1.1999
  645MOL0     C86998  10.770   7.008   5.467  0.1088  0.1484  0.1791
  645MOL0     O86999  10.883   7.084   5.464  0.0634  0.0568 -0.6509
  645MOL0     C87000  10.911   7.128   5.328 -0.4309  0.1346 -0.2736
  645MOL0     C87001  10.836   7.248   5.291  0.3160  0.1046  1.0531
  645MOL0     C87002  10.852   7.376   5.388  0.0087 -0.1474 -0.2876
  645MOL0     C87003  10.821   7.509   5.320 -0.3451  0.6884  0.0074
  645MOL0     C87004  10.678   7.524   5.282  0.1477  1.0420  0.1753
  645MOL0     C87005  10.558   7.526   5.253 -0.4183 -0.2320 -0.6214
  645MOL0     C87006  10.648   7.061   5.501 -0.7594 -0.3717  0.2508
  645MOL0     C87007  10.538   6.982   5.503  0.2032  1.4408 -0.8831
  645MOL0     H87008  10.154   6.777   5.267  1.4258  0.9125  0.3054
  645MOL0     H87009   9.955   6.661   5.275 -0.5500 -0.6751  1.6720
  645MOL0     H87010   9.718   6.653   5.356 -0.1201  0.1022 -0.7961
  645MOL0     H87011   9.748   6.491   5.312  0.4726  1.2722 -0.3227
  645MOL0     H87012   9.591   6.531   5.571  0.4688 -0.9886 -0.1556
  645MOL0     H87013   9.508   6.533   5.420 -0.8912  0.4729  1.3182
  645MOL0     H87014   9.519   6.310   5.542 -1.5334  2.6446 -1.2365
  645MOL0     H87015   9.562   6.297   5.373 -1.3009  0.5860 -0.0116
  645MOL0     H87016   9.778   6.259   5.419 -0.2097  0.7557 -0.1952
  645MOL0     H87017   9.773   6.340   5.579  1.7322 -0.2755 -1.2647
  645MOL0     H87018   9.632   6.137   5.665  2.1948  1.0385  1.4244
  645MOL0     H87019   9.627   6.069   5.512  0.0371 -1.5648  0.1142
  645MOL0     H87020   9.796   5.947   5.603 -0.3392  0.4488  1.1465
  645MOL0     H87021   9.875   6.058   5.502  0.4994  1.8881  0.3059
  645MOL0     H87022  10.015   6.078   5.656 -0.8600 -0.6094 -0.5574
  645MOL0     H87023   9.917   6.209   5.702 -0.2296 -0.5620  0.7871
  645MOL0     H87024   9.997   6.049   5.894 -1.2312  2.1867  1.4965
  645MOL0     H87025   9.903   5.924   5.816 -1.8068 -0.0448  2.1034
  645MOL0     H87026   9.854   6.260   5.975  0.8212 -0.1754 -0.7872
  645MOL0     H87027   9.478   6.300   6.104  2.6556 -3.1593  2.7058
  645MOL0     H87028   9.645   6.346   6.156  1.2162  4.0238  0.3585
  645MOL0     H87029   9.668   6.496   5.976  1.2236 -2.4862  1.3089
  645MOL0     H87030   9.511   6.517   6.052  2.1878 -0.1752  2.7113
  645MOL0     H87031   9.411   6.362   5.854  1.7183 -2.5139 -0.2424
  645MOL0     H87032   9.552   6.385   5.767 -1.3039  2.8834 -1.2946
  645MOL0     H87033   9.435   6.571   5.697  2.1847  0.7685 -0.1997
  645MOL0     H87034   9.545   6.628   5.835  1.6033 -0.6809 -1.0184
  645MOL0     H87035   9.097   6.655   5.925  1.5373  0.5571  1.7318
  645MOL0     H87036   8.898   6.966   5.895  2.2441  1.0155  0.7746
  645MOL0     H87037   8.874   6.815   5.796 -1.1230  0.9786  1.5966
  645MOL0     H87038   8.908   6.817   5.974  1.4541 -0.3418  0.9948
  645MOL0     H87039   9.034   7.264   5.498  0.1955 -0.6799  0.8612
  645MOL0     H87040   8.898   7.444   5.425  0.0197  0.2716  0.2380
  645MOL0     H87041   8.758   7.595   5.481 -1.8244 -0.1402  2.9377
  645MOL0     H87042   8.701   7.606   5.310 -0.0816 -1.7966  0.2043
  645MOL0     H87043   8.508   7.610   5.541 -1.6826 -1.1526 -1.5475
  645MOL0     H87044   8.573   7.761   5.466 -1.4400 -0.3892  2.1900
  645MOL0     H87045   8.412   7.530   5.335 -2.7690  0.6727 -4.4447
  645MOL0     H87046   8.480   7.668   5.252  0.7249  1.9369  1.0837
  645MOL0     H87047   8.268   7.698   5.482 -1.0653  0.7914 -0.3071
  645MOL0     H87048   8.345   7.823   5.381 -2.7379  0.5034 -0.9222
  645MOL0     H87049   8.185   7.580   5.288 -0.9583  0.0776 -0.9865
  645MOL0     H87050   8.260   7.712   5.186  0.9565  2.7206  0.2814
  645MOL0     H87051   8.008   7.744   5.209  1.6712  1.7974 -1.8773
  645MOL0     H87052   8.035   7.755   5.389 -0.2146  0.0738  1.1958
  645MOL0     H87053   8.171   7.935   5.182  0.2435 -2.1943 -2.1350
  645MOL0     H87054   8.168   7.959   5.353  1.4196 -2.0584 -0.4848
  645MOL0     H87055   7.905   7.921   5.219  1.6445 -4.1879  1.5982
  645MOL0     H87056   7.983   8.074   5.200  4.3239  1.9680  1.5842
  645MOL0     H87057   8.550   7.216   5.508  0.1494  0.5718  0.3330
  645MOL0     H87058   8.700   7.025   5.582  0.3211  0.6112  1.0136
  645MOL0     H87059   9.323   7.013   5.668  0.2510 -0.3970  0.3922
  645MOL0     H87060   9.455   6.825   5.773  0.5191 -1.6397  1.3836
  645MOL0     H87061   9.975   6.593   5.695 -0.1568 -1.4433 -0.0887
  645MOL0     H87062  10.195   6.710   5.696 -1.3197  1.8444  0.3604
  645MOL0     H87063  10.666   6.681   5.443 -1.1883 -0.0696  0.7273
  645MOL0     H87064  10.880   6.819   5.421 -1.1803 -2.1212 -1.2460
  645MOL0     H87065  11.018   7.154   5.329  0.1992 -2.0835 -1.4886
  645MOL0     H87066  10.904   7.048   5.254 -4.0044  2.0608 -2.2585
  645MOL0     H87067  10.735   7.227   5.253 -0.5292  3.6083  0.9574
  645MOL0     H87068  10.871   7.276   5.191 -0.8909 -0.9969  0.2867
  645MOL0     H87069  10.955   7.375   5.424  1.3615 -4.0285 -3.5104
  645MOL0     H87070  10.773   7.354   5.461 -3.8748  1.7825 -3.4684
  645MOL0     H87071  10.885   7.503   5.231 -0.8853 -1.5403 -0.2738
  645MOL0     H87072  10.854   7.593   5.383  1.2334 -0.0854  0.2614
  645MOL0     H87073  10.453   7.515   5.238 -0.2842 -2.2822 -0.3658
  645MOL0     H87074  10.632   7.168   5.505  0.5879 -0.0051 -2.2180
  645MOL0     H87075  10.445   7.027   5.537 -0.7248 -2.2346  2.1730
  646MOL0     O87076   3.048   8.739  10.776  0.3259 -0.1623  0.4929
  646MOL0     C87077   3.159   8.763  10.826 -0.3291 -0.5774 -0.6890
  646MOL0     O87078   3.213   8.887  10.847  0.6390  0.3976 -0.3424
  646MOL0     C87079   3.149   8.996  10.800  0.4540 -0.0600  0.4181
  646MOL0     C87080   3.227   9.089  10.725 -0.3158  0.2478  0.4656
  646MOL0     C87081   3.162   9.186  10.655 -0.3473 -0.0410  0.3149
  646MOL0     C87082   3.034   9.224  10.684  0.1716  0.0506  1.3666
  646MOL0     O87083   2.977   9.330  10.619  0.7373 -0.5706  0.2664
  646MOL0     C87084   3.029   9.386  10.496 -0.4613 -0.5116  0.0265
  646MOL0     C87085   2.912   9.428  10.408 -0.1743  0.7729  0.2480
  646MOL0     C87086   2.826   9.537  10.471  0.2172 -0.3498  0.0901
  646MOL0     C87087   2.678   9.532  10.438  0.2363 -0.4053 -0.0236
  646MOL0     C87088   2.600   9.616  10.535 -0.4239 -0.0842  0.7412
  646MOL0     C87089   2.449   9.611  10.505  0.1697 -0.1838  0.8352
  646MOL0     C87090   2.392   9.642  10.359 -0.2169 -0.6888  0.3009
  646MOL0     C87091   2.350   9.793  10.363  1.4995  0.1278 -0.1811
  646MOL0     N87092   2.253   9.839  10.466 -0.2766 -0.1402 -0.2470
  646MOL0     C87093   2.148   9.772  10.505  0.0973 -0.0787  0.3971
  646MOL0     C87094   2.099   9.841  10.609 -0.2144 -0.4580  0.1170
  646MOL0     C87095   1.979   9.824  10.694  0.3500 -0.3401  0.2483
  646MOL0     C87096   1.856   9.792  10.609  0.2133  0.3748  0.2008
  646MOL0     C87097   1.733   9.777  10.703  0.8178 -0.1814  0.1279
  646MOL0     C87098   1.698   9.895  10.797  0.1616 -0.1568 -0.3152
  646MOL0     O87099   1.592   9.867  10.883  0.1882  0.2025 -0.9842
  646MOL0     C87100   1.459   9.901  10.848 -0.3221  0.0387  0.2551
  646MOL0     C87101   1.356   9.897  10.934 -0.3693  0.1353  0.7554
  646MOL0     C87102   1.225   9.945  10.908 -0.1819  0.8161  0.4246
  646MOL0     C87103   1.129   9.925  11.023 -0.3634 -0.3689 -1.0223
  646MOL0     C87104   1.194  10.013  10.785  0.0456  0.3231 -0.5472
  646MOL0     C87105   1.063  10.060  10.746 -0.6842  0.8380 -0.8362
  646MOL0     O87106   1.068  10.161  10.657  0.5950  0.2685 -0.1141
  646MOL0     C87107   0.960  10.201  10.582 -0.6303  0.1878 -0.1423
  646MOL0     C87108   0.972  10.322  10.515  0.7049 -0.3617 -0.1224
  646MOL0     C87109   0.870  10.372  10.425  0.0689  0.3859  0.3058
  646MOL0     C87110   0.759  10.284  10.398  0.2282  0.0013  0.0292
  646MOL0     O87111   0.650  10.331  10.333 -0.9768 -0.0124  0.2956
  646MOL0     C87112   0.689  10.413  10.217  0.2965  0.5127  0.2883
  646MOL0     C87113   0.556  10.416  10.141 -0.1175  1.2476  0.3149
  646MOL0     C87114   0.454  10.515  10.191  0.4652 -0.3562  1.0914
  646MOL0     C87115   0.318  10.537  10.109 -0.0811  0.1313 -0.5362
  646MOL0     C87116   0.252  10.674  10.108  0.7773 -0.1207 -0.8015
  646MOL0     C87117   0.319  10.786  10.014 -0.2237 -0.0743  0.0065
  646MOL0     C87118   0.238  10.919   9.982  0.0070  0.2923 -0.1969
  646MOL0     C87119   0.122  10.904   9.896  1.0858  0.0601 -1.1935
  646MOL0    Cl87120   0.047  11.058   9.868  0.1248  0.5480 -0.2860
  646MOL0     C87121   0.748  10.158  10.464  1.0421  0.7307 -1.0323
  646MOL0     C87122   0.849  10.115  10.552 -0.3393 -1.0955 -0.0531
  646MOL0     O87123   0.961  10.016  10.806 -0.1512 -0.1709  0.2259
  646MOL0     C87124   1.301  10.003  10.687 -0.2626 -1.1719  0.2570
  646MOL0     C87125   1.426   9.958  10.717 -0.0464 -0.4616 -1.0764
  646MOL0     N87126   2.170   9.964  10.626 -0.6826  1.0017  0.6966
  646MOL0     N87127   2.268   9.955  10.540  0.1188 -0.2772  0.8930
  646MOL0     C87128   2.951   9.148  10.772  0.2644 -0.7147  0.0684
  646MOL0     C87129   3.009   9.033  10.827  0.2986 -0.2506 -0.7237
  646MOL0     C87130   3.234   8.653  10.895 -0.6504 -0.0358 -0.6984
  646MOL0     C87131   3.196   8.519  10.874 -0.3127 -0.1305  0.0026
  646MOL0     C87132   3.262   8.421  10.949 -0.0188 -0.1296 -0.3676
  646MOL0     C87133   3.370   8.451  11.031  0.5915  0.3776  0.0478
  646MOL0     O87134   3.437   8.347  11.091 -0.0854 -0.3534  1.0586
  646MOL0     C87135   3.543   8.285  11.021 -0.1171 -0.1837 -0.6040
  646MOL0     C87136   3.519   8.161  10.943 -1.1923  0.0700 -0.7219
  646MOL0     C87137   3.456   8.044  11.025 -0.4003 -0.2559 -0.2692
  646MOL0     C87138   3.542   7.997  11.139 -0.1422 -0.2521 -0.4129
  646MOL0     C87139   3.495   7.875  11.209  0.3493  0.4833  0.1824
  646MOL0     C87140   3.448   7.778  11.256 -0.5821  0.5708  0.7096
  646MOL0     C87141   3.410   8.584  11.058 -1.3172 -0.1081  0.2894
  646MOL0     C87142   3.347   8.691  10.986 -1.1668  1.1421 -0.2598
  646MOL0     H87143   3.335   9.080  10.719 -0.3785 -0.4828  0.3277
  646MOL0     H87144   3.219   9.243  10.583 -3.7782  3.0784 -0.2617
  646MOL0     H87145   3.087   9.477  10.516  1.3121 -1.8075  1.0767
  646MOL0     H87146   3.097   9.320  10.441 -3.1050 -3.3668 -0.0759
  646MOL0     H87147   2.947   9.475  10.315  2.0691  0.0648  0.6782
  646MOL0     H87148   2.862   9.336  10.377  1.5097  0.1968 -0.9486
  646MOL0     H87149   2.840   9.539  10.580  0.5934 -1.6414  0.0786
  646MOL0     H87150   2.853   9.639  10.440  0.9633  0.6480  3.4734
  646MOL0     H87151   2.664   9.547  10.331 -2.4564  0.4569  0.3655
  646MOL0     H87152   2.639   9.430  10.449  0.8586 -0.4568  2.1968
  646MOL0     H87153   2.623   9.587  10.638  0.8895  0.9092  0.7371
  646MOL0     H87154   2.627   9.718  10.506 -2.2184  0.2435  0.0779
  646MOL0     H87155   2.410   9.519  10.551 -2.0125  1.2053  1.9440
  646MOL0     H87156   2.394   9.680  10.570 -3.8859 -0.5471 -1.8186
  646MOL0     H87157   2.465   9.632  10.277  0.6588  0.2082  0.9437
  646MOL0     H87158   2.301   9.584  10.345 -1.3296  0.1591  3.2978
  646MOL0     H87159   2.306   9.800  10.263 -0.4714 -1.7667  0.4821
  646MOL0     H87160   2.445   9.847  10.360 -0.0192  2.9698 -2.7453
  646MOL0     H87161   2.113   9.678  10.464  1.8821  0.3092 -2.2942
  646MOL0     H87162   1.999   9.741  10.763  0.2662 -1.4915 -1.0560
  646MOL0     H87163   1.965   9.915  10.752 -3.6268  0.6867 -1.9418
  646MOL0     H87164   1.878   9.694  10.564 -1.1305  0.0675  0.1836
  646MOL0     H87165   1.843   9.868  10.532 -1.2924 -0.2712 -0.2231
  646MOL0     H87166   1.744   9.698  10.778 -0.4929  0.4651  1.0332
  646MOL0     H87167   1.648   9.753  10.638 -1.5317 -0.5365  3.1098
  646MOL0     H87168   1.681   9.987  10.740  1.2457  1.9282  2.5124
  646MOL0     H87169   1.782   9.922  10.861  2.2685 -2.7216 -1.8127
  646MOL0     H87170   1.389   9.854  11.028  0.1512  3.5642  2.2999
  646MOL0     H87171   1.066  10.010  11.050 -0.7421 -0.1745 -2.4423
  646MOL0     H87172   1.062   9.838  11.018 -0.6355 -0.1565 -1.1263
  646MOL0     H87173   1.196   9.925  11.109 -0.8093 -2.7542 -0.6070
  646MOL0     H87174   1.066  10.376  10.527  2.0053 -2.2444 -1.1198
  646MOL0     H87175   0.896  10.462  10.371  0.5267  0.0488 -0.0412
  646MOL0     H87176   0.714  10.515  10.248  1.1242  0.2790  0.3977
  646MOL0     H87177   0.768  10.365  10.159 -0.8796 -0.8460 -0.2442
  646MOL0     H87178   0.574  10.443  10.037 -0.1785 -1.5973 -0.5240
  646MOL0     H87179   0.520  10.313  10.135  1.1564  0.8590 -1.2108
  646MOL0     H87180   0.503  10.612  10.196 -3.3754  1.8087  0.2880
  646MOL0     H87181   0.422  10.485  10.292 -0.5474  1.4602  1.3412
  646MOL0     H87182   0.346  10.528  10.004  0.1642 -1.2043 -0.3835
  646MOL0     H87183   0.245  10.456  10.120 -1.1550  0.6087 -3.3128
  646MOL0     H87184   0.251  10.709  10.212  2.3676  0.3926 -0.9369
  646MOL0     H87185   0.149  10.660  10.073  1.0084 -0.3131 -1.4190
  646MOL0     H87186   0.411  10.816  10.064 -0.3079  0.6878 -0.2816
  646MOL0     H87187   0.347  10.737   9.920  4.4936  0.0928  1.0476
  646MOL0     H87188   0.310  10.974   9.922 -1.1993 -2.1125 -4.2466
  646MOL0     H87189   0.221  10.979  10.072 -1.7504  1.1723 -1.0753
  646MOL0     H87190   0.047  10.836   9.938  0.5513  0.9568 -0.6638
  646MOL0     H87191   0.160  10.870   9.799  1.1875 -3.0408 -0.1794
  646MOL0     H87192   0.668  10.091  10.435 -1.0750  1.2979  2.7787
  646MOL0     H87193   0.841  10.019  10.603 -2.2596  0.0149  1.8756
  646MOL0     H87194   1.295  10.026  10.581  2.6605 -0.0404  0.2284
  646MOL0     H87195   1.490   9.954  10.630 -0.0372 -0.3269 -1.0759
  646MOL0     H87196   2.849   9.178  10.793  0.0336  0.0694 -1.9765
  646MOL0     H87197   2.948   8.971  10.893  0.9345 -1.6205 -1.3845
  646MOL0     H87198   3.121   8.501  10.797  0.1736 -0.0405 -0.5018
  646MOL0     H87199   3.235   8.316  10.945  0.9861 -0.5413  2.0880
  646MOL0     H87200   3.593   8.359  10.958 -2.1161  0.5733 -1.3824
  646MOL0     H87201   3.609   8.243  11.098 -2.3107 -2.0320  0.4078
  646MOL0     H87202   3.611   8.129  10.894 -1.4903  3.0909 -3.5879
  646MOL0     H87203   3.453   8.189  10.861 -1.7088  0.4024 -0.2058
  646MOL0     H87204   3.440   7.964  10.952  0.2456 -1.9372  1.3554
  646MOL0     H87205   3.366   8.084  11.071  0.3601 -0.2076  1.2317
  646MOL0     H87206   3.537   8.077  11.213  5.0116  1.5435 -1.5846
  646MOL0     H87207   3.645   7.980  11.107  0.6657  2.4506  0.5153
  646MOL0     H87208   3.411   7.705  11.324 -0.3481 -2.1746 -1.9248
  646MOL0     H87209   3.479   8.603  11.140  0.4866  3.6073 -1.8380
  646MOL0     H87210   3.380   8.793  10.997  0.2651  0.7877 -0.9496
  647MOL0     O87211   5.413   5.448   7.988  0.8161 -0.1929  0.2532
  647MOL0     C87212   5.342   5.418   8.092  0.1087 -0.1305  1.1167
  647MOL0     O87213   5.382   5.356   8.208  0.3162  0.8523 -0.3660
  647MOL0     C87214   5.516   5.366   8.257  0.2100  0.3541  0.8221
  647MOL0     C87215   5.627   5.372   8.161 -0.8326 -0.0997 -0.6844
  647MOL0     C87216   5.756   5.412   8.202  1.5837  0.5742  0.3115
  647MOL0     C87217   5.781   5.442   8.330 -0.2837 -0.0388 -0.2502
  647MOL0     O87218   5.910   5.469   8.354 -0.1210 -0.0951  0.2802
  647MOL0     C87219   5.965   5.507   8.484 -0.0961  0.9860  0.6953
  647MOL0     C87220   6.101   5.459   8.504 -0.2941 -0.3457 -0.6201
  647MOL0     C87221   6.176   5.562   8.585  0.3335 -0.0689  0.0618
  647MOL0     C87222   6.150   5.558   8.739 -0.0264 -0.0517 -0.6834
  647MOL0     C87223   6.253   5.650   8.814  0.4648  0.2328 -0.1385
  647MOL0     C87224   6.397   5.572   8.817 -0.0634 -0.0546  0.6136
  647MOL0     C87225   6.512   5.668   8.806  0.4520 -0.6352 -0.3023
  647MOL0     C87226   6.550   5.728   8.944  0.5274 -0.2422  0.5809
  647MOL0     N87227   6.647   5.841   8.934  0.2288  0.3356 -0.3545
  647MOL0     C87228   6.761   5.851   9.007 -0.6708  0.7898 -0.4483
  647MOL0     C87229   6.818   5.963   8.971 -0.2794 -0.6015  0.6563
  647MOL0     C87230   6.963   6.005   9.020  0.0169 -0.5615  0.4913
  647MOL0     C87231   6.971   6.145   9.084 -0.2868  0.8509  0.0718
  647MOL0     C87232   7.080   6.234   9.012  0.3959 -0.0373  0.3092
  647MOL0     C87233   7.051   6.381   9.057 -0.3738  1.4979 -0.2651
  647MOL0     O87234   7.037   6.395   9.200  0.0656 -0.4247  0.0957
  647MOL0     C87235   6.946   6.471   9.256  0.4672 -0.1387  0.7244
  647MOL0     C87236   6.909   6.601   9.217  0.1170 -0.1974  1.1397
  647MOL0     C87237   6.805   6.673   9.272 -0.0926  0.0235 -0.7904
  647MOL0     C87238   6.794   6.811   9.229  0.0355  0.3643  0.5978
  647MOL0     C87239   6.729   6.613   9.376  0.5417  0.0477 -0.5482
  647MOL0     C87240   6.619   6.685   9.444 -0.0581 -0.7480  0.7647
  647MOL0     O87241   6.595   6.646   9.578 -0.1475  0.5832 -0.4011
  647MOL0     C87242   6.481   6.678   9.638 -0.2568 -0.8974  0.1787
  647MOL0     C87243   6.359   6.627   9.612 -0.2059  0.0651  0.2058
  647MOL0     C87244   6.247   6.670   9.684  0.5358  0.1172 -0.3362
  647MOL0     C87245   6.258   6.774   9.788  0.2412 -0.5892 -0.0084
  647MOL0     O87246   6.154   6.832   9.855  0.8754  0.6585  0.3018
  647MOL0     C87247   6.157   6.789   9.994  0.4741  0.5088 -0.5424
  647MOL0     C87248   6.021   6.798  10.065  0.2527 -0.1548 -0.9959
  647MOL0     C87249   5.912   6.709  10.001  0.8534 -0.3389  0.6167
  647MOL0     C87250   5.785   6.726  10.082 -0.2443  0.1445 -0.6909
  647MOL0     C87251   5.683   6.629  10.026 -0.3008  0.3371 -0.0906
  647MOL0     C87252   5.544   6.639  10.102  0.0813 -0.0543 -0.6160
  647MOL0     C87253   5.456   6.548  10.020 -0.4433 -0.2108 -0.5848
  647MOL0     C87254   5.318   6.556  10.086  0.1517  0.5732  0.4405
  647MOL0    Cl87255   5.255   6.728  10.060 -0.1711 -0.1631 -0.7253
  647MOL0     C87256   6.381   6.842   9.799  0.0238  0.1009 -0.4383
  647MOL0     C87257   6.488   6.782   9.725 -0.1158 -0.4059 -0.3767
  647MOL0     O87258   6.546   6.758   9.375 -0.1739  0.3774  0.7888
  647MOL0     C87259   6.763   6.484   9.414  0.3602  0.0728 -0.4119
  647MOL0     C87260   6.871   6.417   9.358 -0.3766  0.1256  0.2800
  647MOL0     N87261   6.728   6.036   8.885  0.0229 -0.5603  0.2744
  647MOL0     N87262   6.630   5.958   8.860  0.4685  0.9643 -0.3572
  647MOL0     C87263   5.674   5.436   8.431  0.4244 -0.2301 -0.1757
  647MOL0     C87264   5.541   5.398   8.387 -0.6361  0.0759 -0.3626
  647MOL0     C87265   5.195   5.403   8.064 -0.2193 -1.0504  0.4726
  647MOL0     C87266   5.104   5.349   8.159 -0.3192  0.8689 -0.7623
  647MOL0     C87267   4.964   5.344   8.154 -0.4057 -0.5363 -0.2673
  647MOL0     C87268   4.899   5.404   8.047 -0.2604 -0.7983 -0.4961
  647MOL0     O87269   4.760   5.389   8.028 -0.6718  0.3273  0.4121
  647MOL0     C87270   4.726   5.395   7.887  0.1128  0.1868 -0.6534
  647MOL0     C87271   4.575   5.351   7.860 -0.5292 -0.2204  0.1181
  647MOL0     C87272   4.546   5.212   7.919  0.5467 -0.9734  0.3024
  647MOL0     C87273   4.397   5.174   7.896  0.1180 -0.6291  0.6295
  647MOL0     C87274   4.393   5.032   7.886 -0.2860  1.3971  0.4784
  647MOL0     C87275   4.398   4.908   7.891 -0.3281  0.2585 -0.0156
  647MOL0     C87276   4.981   5.459   7.948 -1.4452  0.0881 -0.1154
  647MOL0     C87277   5.126   5.446   7.951 -1.3497  0.2917  1.2933
  647MOL0     H87278   5.603   5.342   8.059 -0.1738 -1.5801 -0.4351
  647MOL0     H87279   5.844   5.416   8.139  0.6750 -0.0152 -1.0573
  647MOL0     H87280   5.967   5.616   8.480 -1.0373  0.9821 -0.0657
  647MOL0     H87281   5.904   5.469   8.567 -0.1417 -2.3755 -0.7123
  647MOL0     H87282   6.101   5.363   8.556  0.7091  0.5999  1.2199
  647MOL0     H87283   6.158   5.454   8.411  0.1654  0.9214 -0.4269
  647MOL0     H87284   6.282   5.550   8.561  0.1952 -2.0594  0.2495
  647MOL0     H87285   6.151   5.662   8.549  1.3348 -0.1744 -0.9550
  647MOL0     H87286   6.051   5.599   8.763 -1.1600 -1.4684 -2.6666
  647MOL0     H87287   6.147   5.460   8.787  5.2855  0.4719  1.4009
  647MOL0     H87288   6.266   5.748   8.767  2.2146 -0.1879 -0.5842
  647MOL0     H87289   6.223   5.677   8.916 -0.1898 -0.0623 -0.2454
  647MOL0     H87290   6.403   5.510   8.906 -0.5447  2.7119  2.7262
  647MOL0     H87291   6.394   5.509   8.728  0.2326  1.2232 -0.3411
  647MOL0     H87292   6.602   5.615   8.772  1.7838 -0.1797  2.2949
  647MOL0     H87293   6.492   5.740   8.725 -2.9889 -1.2989 -0.1759
  647MOL0     H87294   6.595   5.643   8.996  0.6479 -0.0358  0.8144
  647MOL0     H87295   6.469   5.773   9.003  0.8641 -0.7533  1.4449
  647MOL0     H87296   6.811   5.769   9.058  0.6378  1.5033 -0.5303
  647MOL0     H87297   6.995   5.934   9.097 -3.4979 -0.5871  2.1364
  647MOL0     H87298   7.039   5.995   8.942  1.6214 -0.0342  1.9237
  647MOL0     H87299   6.996   6.128   9.189 -3.6298 -0.5683  0.7547
  647MOL0     H87300   6.878   6.203   9.082 -0.4835  0.5169 -1.9028
  647MOL0     H87301   7.066   6.241   8.904  1.4146 -1.2594  0.0818
  647MOL0     H87302   7.184   6.206   9.034  0.5424  0.2059 -0.0636
  647MOL0     H87303   6.976   6.435   8.998  1.4045  0.7327 -3.4476
  647MOL0     H87304   7.144   6.431   9.030  0.6153  0.5246  1.1910
  647MOL0     H87305   6.983   6.637   9.146  0.1103 -1.7838  0.2836
  647MOL0     H87306   6.863   6.873   9.287 -0.3701  2.1567 -0.7587
  647MOL0     H87307   6.826   6.819   9.125  2.4241 -0.0283  1.2323
  647MOL0     H87308   6.693   6.852   9.220  0.8649  2.3066 -0.3172
  647MOL0     H87309   6.356   6.557   9.529  1.3292  1.3100 -0.9657
  647MOL0     H87310   6.150   6.630   9.657 -0.1447  0.8853  0.8617
  647MOL0     H87311   6.185   6.684  10.000 -2.7802 -0.4090  0.3975
  647MOL0     H87312   6.227   6.849  10.053  0.8670 -1.2600  0.9001
  647MOL0     H87313   6.039   6.762  10.166 -2.5636 -2.4011 -1.1602
  647MOL0     H87314   6.007   6.907  10.064  1.2642  0.0288 -3.5400
  647MOL0     H87315   5.941   6.604   9.999  0.9032 -0.3441 -2.6535
  647MOL0     H87316   5.907   6.754   9.902 -0.8865  1.2757  1.3786
  647MOL0     H87317   5.813   6.701  10.185  2.7278  0.0764 -1.4475
  647MOL0     H87318   5.749   6.829  10.074  1.3838  0.6944 -1.3524
  647MOL0     H87319   5.721   6.533  10.061  1.3079  2.5714  5.3048
  647MOL0     H87320   5.686   6.647   9.919  4.0890 -0.1934 -0.2269
  647MOL0     H87321   5.542   6.604  10.205 -3.8240  1.4317 -0.0422
  647MOL0     H87322   5.502   6.740  10.097  1.0676  0.3449 -1.1948
  647MOL0     H87323   5.493   6.445  10.029  0.8170 -0.0842 -3.3121
  647MOL0     H87324   5.450   6.586   9.918  0.3508  1.3810 -0.0641
  647MOL0     H87325   5.330   6.522  10.189  1.0735  1.0849  0.5191
  647MOL0     H87326   5.253   6.483  10.038  0.5772 -0.4637  1.3947
  647MOL0     H87327   6.406   6.922   9.868  4.4208 -1.0029 -0.4578
  647MOL0     H87328   6.580   6.839   9.733 -1.2584  1.5660 -0.6271
  647MOL0     H87329   6.693   6.439   9.483  1.2646 -0.4335  0.1870
  647MOL0     H87330   6.898   6.314   9.379  2.3891  0.4507 -1.2479
  647MOL0     H87331   5.695   5.446   8.537  2.1862 -1.6130 -0.3351
  647MOL0     H87332   5.459   5.406   8.458  0.1231 -0.6215  0.6281
  647MOL0     H87333   5.140   5.305   8.251 -0.4841  0.7220 -0.7681
  647MOL0     H87334   4.903   5.304   8.234  0.0702  0.2685  0.5124
  647MOL0     H87335   4.736   5.497   7.848 -2.7554  1.4953  1.6380
  647MOL0     H87336   4.785   5.323   7.830 -1.0513 -1.1945 -0.1611
  647MOL0     H87337   4.566   5.349   7.751 -1.0919  0.6429  0.1393
  647MOL0     H87338   4.512   5.425   7.911 -1.7834 -0.8497 -0.4947
  647MOL0     H87339   4.551   5.216   8.028 -2.4402  2.7808  0.5122
  647MOL0     H87340   4.604   5.137   7.865  1.3801  0.1501 -0.4103
  647MOL0     H87341   4.368   5.231   7.807  2.8625  1.6854  1.0469
  647MOL0     H87342   4.342   5.200   7.986 -2.5395  1.2603 -1.3766
  647MOL0     H87343   4.399   4.804   7.916 -0.7693 -0.0525 -1.2048
  647MOL0     H87344   4.948   5.506   7.856  1.5480  0.1222 -1.2665
  647MOL0     H87345   5.166   5.492   7.861  0.0430 -2.5849  0.2961
  648MOL0     O87346   3.925   8.180   6.597 -0.6053  0.6723  0.4471
  648MOL0     C87347   3.962   8.195   6.482 -0.1858  0.7676 -0.1828
  648MOL0     O87348   3.901   8.153   6.369 -0.2184  0.2382 -0.0093
  648MOL0     C87349   3.777   8.104   6.386  0.8835  0.7636 -0.6508
  648MOL0     C87350   3.743   7.972   6.371 -0.9675 -0.1423  0.4053
  648MOL0     C87351   3.612   7.926   6.379  0.0027 -0.7291  0.7655
  648MOL0     C87352   3.511   8.010   6.400  0.4751  1.0161 -0.4613
  648MOL0     O87353   3.375   7.965   6.395  0.1282 -0.5105  0.0903
  648MOL0     C87354   3.285   8.060   6.337 -0.1963  0.1880 -0.0051
  648MOL0     C87355   3.162   7.990   6.282  0.9844 -0.2331  0.5349
  648MOL0     C87356   3.079   8.083   6.182 -0.2618  0.4975 -0.1765
  648MOL0     C87357   2.971   7.994   6.130  0.3766  0.1598 -0.5147
  648MOL0     C87358   2.883   8.079   6.042 -0.3649 -0.0555 -0.2661
  648MOL0     C87359   2.792   8.188   6.099  0.0299 -0.3204  0.7349
  648MOL0     C87360   2.680   8.112   6.173 -0.1446 -0.6028 -0.2860
  648MOL0     C87361   2.579   8.197   6.254 -0.3764 -0.0542 -1.0019
  648MOL0     N87362   2.525   8.293   6.158  0.3992 -0.5814 -0.3000
  648MOL0     C87363   2.408   8.275   6.085  0.2277 -0.0592 -0.2818
  648MOL0     C87364   2.390   8.394   6.019  0.2473 -0.4666 -0.0487
  648MOL0     C87365   2.285   8.423   5.914  0.2621  0.5628 -1.1709
  648MOL0     C87366   2.150   8.436   5.976  0.5228  0.4362  0.0666
  648MOL0     C87367   2.051   8.469   5.860 -0.4237  0.3039 -0.2033
  648MOL0     C87368   1.902   8.518   5.902  0.0396 -0.9959  0.4525
  648MOL0     O87369   1.814   8.411   5.912  0.1421 -0.5391 -0.8617
  648MOL0     C87370   1.676   8.424   5.935  0.2643  0.5106 -0.1810
  648MOL0     C87371   1.601   8.331   6.008  1.0715  1.2006 -0.7102
  648MOL0     C87372   1.466   8.339   6.030  1.1543 -0.4344  0.0671
  648MOL0     C87373   1.404   8.226   6.100  0.7750  0.1213  0.2755
  648MOL0     C87374   1.394   8.448   5.969  0.1876  0.1239  0.4605
  648MOL0     C87375   1.253   8.477   5.971  0.2420  0.9748  0.0272
  648MOL0     O87376   1.212   8.601   5.928 -0.0641  0.2787  0.7016
  648MOL0     C87377   1.076   8.628   5.915 -0.3776  0.0096  0.7378
  648MOL0     C87378   1.035   8.762   5.954  0.2596 -0.1942  0.5574
  648MOL0     C87379   0.900   8.811   5.923 -0.5596  0.0181 -0.1436
  648MOL0     C87380   0.805   8.726   5.866 -0.5338  0.5876  0.2276
  648MOL0     O87381   0.683   8.775   5.845 -0.1099  0.4454 -0.1774
  648MOL0     C87382   0.584   8.708   5.926 -0.2959  0.0136 -0.0919
  648MOL0     C87383   0.465   8.800   5.948 -0.6343 -0.3199  0.0354
  648MOL0     C87384   0.340   8.723   5.996 -0.1385 -0.1044 -0.7310
  648MOL0     C87385   0.233   8.826   6.053  0.6945 -0.0966 -0.2504
  648MOL0     C87386   0.215   8.784   6.205  0.3642 -0.1790  0.4432
  648MOL0     C87387   0.121   8.872   6.285  0.2739 -0.1057  0.1148
  648MOL0     C87388   0.102   8.800   6.418  0.0414 -0.2660 -0.1754
  648MOL0     C87389   0.019   8.882   6.524 -0.2548 -0.6743 -0.1093
  648MOL0    Cl87390  -0.027   8.763   6.653  0.6739 -0.2770  0.0814
  648MOL0     C87391   0.848   8.592   5.833  0.2478 -1.0110 -0.7331
  648MOL0     C87392   0.978   8.542   5.857  0.8910  0.2963 -0.6381
  648MOL0     O87393   1.177   8.391   6.012 -0.5517  0.0585 -0.3639
  648MOL0     C87394   1.476   8.541   5.902 -0.5837 -1.2849 -0.3254
  648MOL0     C87395   1.613   8.540   5.885  0.2529  0.3021  0.1909
  648MOL0     N87396   2.503   8.478   6.056  0.0840  0.6770  0.2223
  648MOL0     N87397   2.570   8.419   6.148  1.0139 -0.5727  0.6882
  648MOL0     C87398   3.545   8.145   6.425 -0.7975 -0.1121 -0.5474
  648MOL0     C87399   3.672   8.190   6.420 -0.4267  0.9288 -0.9357
  648MOL0     C87400   4.087   8.267   6.464 -0.8555 -0.2314 -0.4941
  648MOL0     C87401   4.151   8.258   6.338 -0.3379 -0.0916 -0.0478
  648MOL0     C87402   4.272   8.320   6.324 -0.3361  1.0463  0.7572
  648MOL0     C87403   4.339   8.389   6.432 -0.2476 -0.3757  0.3901
  648MOL0     O87404   4.471   8.431   6.427 -0.6822 -0.1797 -0.8096
  648MOL0     C87405   4.550   8.418   6.314 -0.8150 -0.0988 -0.7562
  648MOL0     C87406   4.692   8.446   6.330  0.0990 -0.0197 -0.3172
  648MOL0     C87407   4.720   8.600   6.356  0.9367  0.0310 -1.0898
  648MOL0     C87408   4.869   8.620   6.400 -1.1567 -0.6581  0.0377
  648MOL0     C87409   4.962   8.564   6.302 -0.2650  0.0506  0.5807
  648MOL0     C87410   5.018   8.513   6.206 -0.1694 -0.0377 -0.1721
  648MOL0     C87411   4.262   8.411   6.546  0.5069  0.1740  0.0010
  648MOL0     C87412   4.140   8.346   6.565 -0.4452  0.0011  0.2875
  648MOL0     H87413   3.823   7.904   6.343 -0.2427  0.8074  0.1275
  648MOL0     H87414   3.590   7.825   6.344 -1.2226 -0.3323  0.3546
  648MOL0     H87415   3.260   8.136   6.411 -2.2554 -2.8886  2.7627
  648MOL0     H87416   3.328   8.117   6.254 -2.1136  0.6643 -0.7369
  648MOL0     H87417   3.203   7.902   6.232  0.0210  0.6358 -1.9535
  648MOL0     H87418   3.103   7.956   6.367 -0.5988  0.4943 -0.2216
  648MOL0     H87419   3.032   8.165   6.237 -1.4835 -1.0680  1.2318
  648MOL0     H87420   3.139   8.112   6.096 -1.6492 -0.9296 -1.6833
  648MOL0     H87421   3.017   7.915   6.071  0.6393 -0.6733  0.7700
  648MOL0     H87422   2.910   7.950   6.209  0.6014  0.8327  0.0365
  648MOL0     H87423   2.940   8.119   5.958 -0.1091 -2.6389 -1.4100
  648MOL0     H87424   2.819   8.016   5.978 -0.1984 -0.4125 -0.0835
  648MOL0     H87425   2.850   8.264   6.152  0.1958  1.3724 -1.7157
  648MOL0     H87426   2.746   8.241   6.015  0.4247 -1.2111 -0.0617
  648MOL0     H87427   2.613   8.053   6.110  0.0627 -1.0304 -0.1047
  648MOL0     H87428   2.725   8.040   6.242 -1.8319 -0.1223  1.3823
  648MOL0     H87429   2.625   8.254   6.336 -0.6193  0.7911 -1.4387
  648MOL0     H87430   2.502   8.138   6.305  0.8733 -0.8693  0.0185
  648MOL0     H87431   2.343   8.188   6.081 -0.4657  0.4864 -1.4596
  648MOL0     H87432   2.313   8.515   5.863 -0.6029  1.0436 -0.8054
  648MOL0     H87433   2.285   8.343   5.840 -3.6753 -2.5295  1.7484
  648MOL0     H87434   2.148   8.518   6.049 -1.6544  0.2518  0.2708
  648MOL0     H87435   2.124   8.346   6.032  2.4773 -0.6949 -0.7572
  648MOL0     H87436   2.038   8.379   5.798 -2.0304  2.0658 -2.6180
  648MOL0     H87437   2.097   8.556   5.811  1.9227 -0.7163  0.0215
  648MOL0     H87438   1.862   8.575   5.818  3.3611  0.7463 -0.1370
  648MOL0     H87439   1.902   8.591   5.983 -0.8731  1.1764 -1.3963
  648MOL0     H87440   1.652   8.244   6.047 -2.2660 -0.5777  0.0642
  648MOL0     H87441   1.364   8.265   6.194  0.7469 -2.0842  1.2661
  648MOL0     H87442   1.328   8.177   6.038 -0.9671  0.3174  2.1288
  648MOL0     H87443   1.484   8.156   6.128  0.6676 -0.2106 -0.2420
  648MOL0     H87444   1.112   8.825   5.998 -0.7499  1.2799  0.2756
  648MOL0     H87445   0.881   8.913   5.954  0.9851  0.9006 -1.8727
  648MOL0     H87446   0.555   8.620   5.868  1.2638 -1.9791  1.9373
  648MOL0     H87447   0.618   8.673   6.025 -1.9609 -2.2115 -0.2087
  648MOL0     H87448   0.487   8.873   6.026 -1.8137  1.5278 -1.2938
  648MOL0     H87449   0.438   8.859   5.861 -2.1318  0.6049  1.0881
  648MOL0     H87450   0.376   8.654   6.073 -3.0345 -0.3124  0.5572
  648MOL0     H87451   0.306   8.660   5.913 -0.0390 -0.7058 -0.3252
  648MOL0     H87452   0.280   8.924   6.050  3.2787 -1.2116  1.0280
  648MOL0     H87453   0.146   8.824   5.986 -1.0789 -0.9656  1.9567
  648MOL0     H87454   0.304   8.795   6.267  0.6920 -3.1047  0.6283
  648MOL0     H87455   0.179   8.681   6.211 -1.2857  0.4569  3.2781
  648MOL0     H87456   0.150   8.976   6.300 -3.4502  1.0149  0.7506
  648MOL0     H87457   0.028   8.878   6.228  0.5171 -1.3632 -0.4516
  648MOL0     H87458   0.201   8.773   6.455 -0.3397 -1.3606  0.0983
  648MOL0     H87459   0.042   8.711   6.394 -0.7276 -0.3927  1.9831
  648MOL0     H87460  -0.078   8.910   6.482 -0.4554 -0.8646  0.2231
  648MOL0     H87461   0.059   8.973   6.570 -0.9974 -0.2171 -0.3630
  648MOL0     H87462   0.774   8.529   5.784 -0.7908  0.5000 -1.1740
  648MOL0     H87463   1.002   8.442   5.825 -1.7284 -0.7742  0.4829
  648MOL0     H87464   1.431   8.629   5.858 -2.0269 -1.3775  0.8803
  648MOL0     H87465   1.659   8.622   5.831 -2.9799  3.6194  2.0077
  648MOL0     H87466   3.464   8.211   6.455 -2.0180 -1.8018  0.0152
  648MOL0     H87467   3.682   8.292   6.456 -1.8880 -0.2348  3.3347
  648MOL0     H87468   4.100   8.216   6.252 -0.9074 -1.2921  0.8580
  648MOL0     H87469   4.327   8.313   6.231 -1.2945 -0.2943  0.2511
  648MOL0     H87470   4.543   8.316   6.274 -1.4594  0.9372 -3.5065
  648MOL0     H87471   4.514   8.473   6.227 -0.7459 -0.8313 -1.2561
  648MOL0     H87472   4.741   8.410   6.240 -1.5771  1.6816 -2.0062
  648MOL0     H87473   4.718   8.381   6.414 -0.9708  0.1757  0.1831
  648MOL0     H87474   4.655   8.654   6.426  3.1269  0.7442  0.5091
  648MOL0     H87475   4.699   8.653   6.263 -0.1096  2.0798  0.2425
  648MOL0     H87476   4.881   8.548   6.482 -0.0186 -1.4242 -0.7698
  648MOL0     H87477   4.885   8.723   6.433 -0.4224 -1.1364  1.2431
  648MOL0     H87478   5.054   8.454   6.124 -3.1313 -1.2181 -0.7538
  648MOL0     H87479   4.318   8.471   6.617  3.4516  0.0857 -2.0354
  648MOL0     H87480   4.088   8.344   6.660  1.3995 -2.5549  1.3660
  649MOL0     O87481   2.105   7.931   9.970 -0.0336 -0.3188 -0.0657
  649MOL0     C87482   2.145   7.940   9.852 -0.2993  0.2831 -0.4101
  649MOL0     O87483   2.062   7.922   9.743  0.2139 -1.0328  0.6759
  649MOL0     C87484   1.928   7.876   9.753  0.3406  0.7791  0.5058
  649MOL0     C87485   1.836   7.902   9.860 -0.7504 -0.6009 -0.8704
  649MOL0     C87486   1.718   7.832   9.861 -0.4699 -0.1677 -0.1458
  649MOL0     C87487   1.676   7.750   9.762 -0.4939  0.1006  0.6417
  649MOL0     O87488   1.557   7.682   9.769  0.0297  0.4638  0.5747
  649MOL0     C87489   1.506   7.641   9.630 -0.4376  0.7659 -0.2826
  649MOL0     C87490   1.360   7.606   9.644  0.5150 -0.8064 -0.0562
  649MOL0     C87491   1.324   7.484   9.732 -1.0998  0.5954  0.2193
  649MOL0     C87492   1.187   7.492   9.799 -0.3495  0.1303 -0.1648
  649MOL0     C87493   1.168   7.383   9.910  0.3877 -0.0907 -0.5400
  649MOL0     C87494   1.270   7.403  10.028  0.8153  0.0934  0.7276
  649MOL0     C87495   1.250   7.284  10.121 -0.4957 -0.8257 -0.6864
  649MOL0     C87496   1.327   7.300  10.253 -0.2516 -0.3753  0.0539
  649MOL0     N87497   1.475   7.302  10.237  0.1250 -0.0185 -0.4525
  649MOL0     C87498   1.556   7.410  10.254  0.8415 -0.2716 -0.1937
  649MOL0     C87499   1.680   7.364  10.249 -0.1141  0.4215  0.6043
  649MOL0     C87500   1.802   7.440  10.287 -0.3678 -1.2375  0.0027
  649MOL0     C87501   1.923   7.344  10.328  0.5043  0.6622  0.0000
  649MOL0     C87502   2.056   7.413  10.339 -0.8725 -0.6806 -0.7218
  649MOL0     C87503   2.150   7.372  10.446 -0.5128 -0.4074  0.4211
  649MOL0     O87504   2.288   7.421  10.411  0.8313  0.8444 -0.4244
  649MOL0     C87505   2.389   7.403  10.493 -0.9491 -0.2765 -0.7921
  649MOL0     C87506   2.389   7.445  10.626  0.3723  0.6941 -0.8340
  649MOL0     C87507   2.505   7.439  10.711 -0.3187 -1.7455  0.1774
  649MOL0     C87508   2.486   7.510  10.847 -0.1060 -0.3915  0.4409
  649MOL0     C87509   2.618   7.364  10.667 -0.1721 -0.8372 -0.6180
  649MOL0     C87510   2.740   7.344  10.750 -0.3132  0.0034 -0.4185
  649MOL0     O87511   2.837   7.261  10.704 -0.4793 -0.5633  0.2926
  649MOL0     C87512   2.957   7.254  10.773  0.5954  0.4972  0.2252
  649MOL0     C87513   2.955   7.196  10.898 -0.2688  0.0606 -0.0868
  649MOL0     C87514   3.073   7.182  10.957 -0.7117 -0.0603  0.0559
  649MOL0     C87515   3.193   7.218  10.896 -0.3517 -0.2436 -0.7093
  649MOL0     O87516   3.302   7.199  10.975  0.3476  0.7743 -0.2147
  649MOL0     C87517   3.429   7.245  10.927  0.5789 -0.3030 -0.0859
  649MOL0     C87518   3.519   7.232  11.043 -0.9386 -0.1198 -0.7496
  649MOL0     C87519   3.648   7.305  11.002  0.4519 -0.7725 -0.2456
  649MOL0     C87520   3.742   7.327  11.127 -0.1434  0.3473 -0.3769
  649MOL0     C87521   3.861   7.418  11.095  0.4611  0.3609  0.7330
  649MOL0     C87522   3.841   7.572  11.141  0.1942 -0.4892 -0.2455
  649MOL0     C87523   3.722   7.639  11.078  0.5743 -0.3909 -0.4390
  649MOL0     C87524   3.725   7.652  10.925 -0.5726  0.8005 -0.2656
  649MOL0    Cl87525   3.849   7.771  10.874 -0.0229  0.0504  0.5075
  649MOL0     C87526   3.197   7.293  10.775 -0.0248 -0.4486  0.4566
  649MOL0     C87527   3.070   7.307  10.711  0.6693  0.1421  0.1437
  649MOL0     O87528   2.754   7.419  10.845  0.7803  0.1920 -0.4083
  649MOL0     C87529   2.611   7.314  10.540 -0.9199  0.3727 -0.3832
  649MOL0     C87530   2.501   7.330  10.450  0.2304 -1.0721  0.2414
  649MOL0     N87531   1.671   7.239  10.183 -0.1535 -0.2094 -0.7488
  649MOL0     N87532   1.549   7.204  10.180  0.3792  0.2498  0.4637
  649MOL0     C87533   1.762   7.731   9.657 -0.3078  0.3613  0.0809
  649MOL0     C87534   1.880   7.796   9.645 -0.1514 -1.3975 -1.1783
  649MOL0     C87535   2.284   7.961   9.845 -0.2056  0.2984  0.7239
  649MOL0     C87536   2.336   7.955   9.716 -0.6267 -0.4704 -0.0537
  649MOL0     C87537   2.474   7.971   9.690 -0.8686 -0.6765 -0.7406
  649MOL0     C87538   2.556   7.998   9.808 -0.3013  0.2069 -0.6857
  649MOL0     O87539   2.690   7.999   9.789 -0.2797 -0.6813  0.2963
  649MOL0     C87540   2.771   7.980   9.907  0.0210  0.6535 -0.2290
  649MOL0     C87541   2.926   7.973   9.871 -0.1914 -0.1656 -0.8038
  649MOL0     C87542   2.971   7.881   9.756  0.0776 -0.2456  0.3099
  649MOL0     C87543   3.122   7.863   9.736  0.1327  0.3300 -0.4017
  649MOL0     C87544   3.149   7.740   9.652  0.6177  0.0265 -0.5003
  649MOL0     C87545   3.159   7.630   9.610  0.8876  0.4119 -0.2405
  649MOL0     C87546   2.499   8.000   9.940  0.4362  0.4740 -0.6150
  649MOL0     C87547   2.361   7.996   9.961  0.0676  0.6050  0.1315
  649MOL0     H87548   1.855   7.962   9.948 -3.4819  0.4282 -0.8873
  649MOL0     H87549   1.651   7.859   9.942 -1.3238  1.3553 -1.2903
  649MOL0     H87550   1.513   7.722   9.558 -1.9284 -1.0064 -2.5650
  649MOL0     H87551   1.550   7.549   9.590  0.4821  1.0025  0.1480
  649MOL0     H87552   1.320   7.701   9.680  0.1478 -1.1302  0.4156
  649MOL0     H87553   1.319   7.594   9.544 -0.2312  3.0379 -0.3604
  649MOL0     H87554   1.316   7.396   9.667  0.1215  0.3522  0.3703
  649MOL0     H87555   1.401   7.458   9.805 -1.5932  1.5348  1.0915
  649MOL0     H87556   1.173   7.594   9.835 -0.7397  0.4336 -1.1703
  649MOL0     H87557   1.111   7.490   9.720  0.7434 -2.3583 -1.2598
  649MOL0     H87558   1.068   7.396   9.952  1.5706  1.0670  2.1125
  649MOL0     H87559   1.169   7.280   9.874 -2.4546 -0.9729  1.5859
  649MOL0     H87560   1.371   7.392   9.989  1.2160  2.5557  0.8863
  649MOL0     H87561   1.262   7.501  10.076 -2.1842  0.1155  0.4049
  649MOL0     H87562   1.144   7.275  10.147  0.0695  0.5074  2.6532
  649MOL0     H87563   1.290   7.191  10.078  5.0657  0.0233  1.7183
  649MOL0     H87564   1.300   7.218  10.320  1.3612 -1.4974 -0.5969
  649MOL0     H87565   1.288   7.393  10.295  1.5924  1.6220 -2.3690
  649MOL0     H87566   1.533   7.513  10.280 -2.7873 -0.8195 -0.6645
  649MOL0     H87567   1.834   7.500  10.201 -0.7670  1.3966  1.5714
  649MOL0     H87568   1.779   7.506  10.371 -4.0371 -2.2191 -0.0979
  649MOL0     H87569   1.937   7.279  10.241 -0.9040  2.6375 -1.8108
  649MOL0     H87570   1.895   7.292  10.420 -0.5906  1.5662  0.1909
  649MOL0     H87571   2.041   7.521  10.355 -0.2184 -0.5360 -1.0521
  649MOL0     H87572   2.114   7.413  10.246  3.1346  3.0490  1.4182
  649MOL0     H87573   2.148   7.263  10.442  0.9274 -0.6487  3.4255
  649MOL0     H87574   2.125   7.399  10.549  1.4293 -0.2155  0.8835
  649MOL0     H87575   2.300   7.500  10.655 -0.7234 -0.6508 -1.5174
  649MOL0     H87576   2.562   7.587  10.863  0.2356 -0.2116 -1.7445
  649MOL0     H87577   2.392   7.566  10.846 -1.3309 -2.2456 -2.9225
  649MOL0     H87578   2.488   7.444  10.934 -2.3329 -0.2920  0.6306
  649MOL0     H87579   2.868   7.163  10.954 -0.3057  0.7585  0.2649
  649MOL0     H87580   3.077   7.138  11.056  2.1272 -0.3959 -0.1158
  649MOL0     H87581   3.468   7.186  10.843  0.3918 -2.3557  1.1962
  649MOL0     H87582   3.424   7.349  10.894 -2.1691 -0.9627 -2.0384
  649MOL0     H87583   3.478   7.285  11.129  4.6732  2.7449  0.6098
  649MOL0     H87584   3.535   7.126  11.066  2.0701  0.4648  0.2798
  649MOL0     H87585   3.620   7.407  10.975 -2.0728  0.4569  5.6392
  649MOL0     H87586   3.703   7.241  10.932  0.8839  0.5724 -1.1808
  649MOL0     H87587   3.689   7.354  11.219  0.6761 -3.2433  1.3322
  649MOL0     H87588   3.768   7.222  11.142  2.1150  1.1485  1.8751
  649MOL0     H87589   3.887   7.405  10.990 -0.6134 -1.4579  0.6405
  649MOL0     H87590   3.941   7.376  11.157  1.3518 -2.5546 -2.1177
  649MOL0     H87591   3.823   7.577  11.248 -2.0712 -0.7312 -0.5610
  649MOL0     H87592   3.933   7.628  11.124 -0.3805  1.1797  1.6973
  649MOL0     H87593   3.704   7.737  11.124  1.5542 -1.2227  1.8594
  649MOL0     H87594   3.628   7.589  11.104 -1.4280  3.4384  0.4112
  649MOL0     H87595   3.625   7.672  10.884 -1.3420 -3.1918 -0.7666
  649MOL0     H87596   3.752   7.555  10.883 -2.3546  0.1685 -0.0658
  649MOL0     H87597   3.273   7.349  10.721 -2.7598  1.2137 -2.0201
  649MOL0     H87598   3.059   7.319  10.604 -0.0790 -0.8475  0.0906
  649MOL0     H87599   2.698   7.257  10.507 -1.2130 -0.5490  0.3896
  649MOL0     H87600   2.498   7.290  10.349 -2.3136  1.3151 -0.7729
  649MOL0     H87601   1.748   7.660   9.577 -0.5667 -0.8424  1.1613
  649MOL0     H87602   1.947   7.760   9.568  4.0734 -1.7439  2.3040
  649MOL0     H87603   2.279   7.918   9.632  1.7835 -1.5813 -1.3179
  649MOL0     H87604   2.513   7.948   9.592 -1.3494 -0.5722 -0.9579
  649MOL0     H87605   2.767   8.064   9.977  2.3399  1.1497 -0.6118
  649MOL0     H87606   2.737   7.890   9.959 -2.7126  2.3295  1.1624
  649MOL0     H87607   2.973   7.955   9.968 -2.9557  1.1994  0.9060
  649MOL0     H87608   2.944   8.078   9.847 -1.7836  0.0291 -1.2794
  649MOL0     H87609   2.918   7.914   9.666 -2.8944 -0.8004  1.7328
  649MOL0     H87610   2.938   7.780   9.779  3.9510 -1.6395  0.5381
  649MOL0     H87611   3.166   7.858   9.836  1.5565 -1.0859 -1.0613
  649MOL0     H87612   3.165   7.952   9.688  0.3784  1.7055  2.1952
  649MOL0     H87613   3.173   7.531   9.571 -1.0473  1.1854 -3.2171
  649MOL0     H87614   2.564   8.004  10.027 -0.8601 -1.2222  0.5035
  649MOL0     H87615   2.315   8.009  10.058 -2.1522 -0.5912 -0.7000
  650MOL0     O87616   1.865   3.309  11.428  0.6353  0.2497  0.5288
  650MOL0     C87617   1.821   3.209  11.370  0.3266  0.2614  0.0653
  650MOL0     O87618   1.733   3.202  11.266 -0.3335  0.4785 -0.2743
  650MOL0     C87619   1.619   3.271  11.255 -0.5956 -0.3372 -0.1151
  650MOL0     C87620   1.539   3.225  11.156  0.2672 -0.6175 -0.2944
  650MOL0     C87621   1.413   3.297  11.128  0.5989  0.0914  1.3013
  650MOL0     C87622   1.370   3.394  11.217  0.7966 -0.4744 -0.5965
  650MOL0     O87623   1.262   3.469  11.187 -0.3040 -0.4902 -0.7056
  650MOL0     C87624   1.171   3.511  11.289  0.6955  0.1974  0.5744
  650MOL0     C87625   1.025   3.547  11.236 -0.5910  0.1307  0.5355
  650MOL0     C87626   0.943   3.426  11.208  0.8410  0.0291  0.4063
  650MOL0     C87627   0.867   3.361  11.330  0.6485  0.1824 -0.1616
  650MOL0     C87628   0.727   3.276  11.316 -0.2330  0.5664  0.2462
  650MOL0     C87629   0.744   3.170  11.210  0.2518  0.5612 -0.5875
  650MOL0     C87630   0.626   3.069  11.204 -0.3121  0.7102  0.2832
  650MOL0     C87631   0.482   3.119  11.184 -0.9428  0.6091 -0.2523
  650MOL0     N87632   0.374   3.038  11.240  0.6555  0.4405  0.4234
  650MOL0     C87633   0.249   3.040  11.192 -0.3012 -0.2201  0.1972
  650MOL0     C87634   0.175   2.968  11.290  0.3035  0.3590 -0.1497
  650MOL0     C87635   0.032   2.929  11.274  0.0534  0.5841  0.0885
  650MOL0     C87636  -0.037   3.024  11.379  0.1042 -0.1371 -0.1668
  650MOL0     C87637  -0.188   3.043  11.349  0.0247  0.5436 -1.0680
  650MOL0     C87638  -0.249   3.133  11.457  0.2160 -0.1248  0.0233
  650MOL0     O87639  -0.376   3.188  11.405 -0.0182  0.5707 -0.2560
  650MOL0     C87640  -0.441   3.286  11.477  0.2897  0.0815  0.8108
  650MOL0     C87641  -0.548   3.343  11.421 -0.3146  0.5357  0.5429
  650MOL0     C87642  -0.622   3.448  11.478 -0.7305  0.8883 -0.2135
  650MOL0     C87643  -0.730   3.492  11.394 -0.0958  0.2452  0.8233
  650MOL0     C87644  -0.574   3.508  11.595  0.1630  0.4503 -0.4893
  650MOL0     C87645  -0.635   3.625  11.667  0.1667  0.2956  0.8434
  650MOL0     O87646  -0.759   3.667  11.629  0.4028  0.5255 -0.6675
  650MOL0     C87647  -0.844   3.748  11.706 -0.2939 -0.1949  0.3402
  650MOL0     C87648  -0.942   3.822  11.636 -0.0002 -0.1550  0.1975
  650MOL0     C87649  -1.012   3.922  11.698 -0.6153  0.0690  1.0120
  650MOL0     C87650  -1.010   3.936  11.841 -0.5461 -0.2848  0.1286
  650MOL0     O87651  -1.099   4.030  11.901  0.0131 -0.0680 -0.1123
  650MOL0     C87652  -1.028   4.146  11.961 -0.3236 -0.6231  0.1253
  650MOL0     C87653  -1.130   4.264  11.975  0.2329 -0.8595 -0.6923
  650MOL0     C87654  -1.144   4.348  11.847 -0.3578 -0.1550  0.8878
  650MOL0     C87655  -1.278   4.417  11.837  0.3238 -0.6330  0.2825
  650MOL0     C87656  -1.300   4.471  11.695 -0.5191  0.0454 -1.1517
  650MOL0     C87657  -1.414   4.564  11.690 -0.1108  0.8398  1.0163
  650MOL0     C87658  -1.443   4.612  11.547  0.8953 -0.6653 -0.5165
  650MOL0     C87659  -1.334   4.710  11.497  0.3166  0.2189 -0.7928
  650MOL0    Cl87660  -1.295   4.845  11.602  0.0862 -0.2168 -0.3853
  650MOL0     C87661  -0.921   3.854  11.910 -0.5173 -0.4488 -0.4371
  650MOL0     C87662  -0.829   3.762  11.846 -0.2119  0.4724  0.1905
  650MOL0     O87663  -0.567   3.673  11.756  0.3106 -0.9760  0.1513
  650MOL0     C87664  -0.462   3.451  11.661 -0.0701  0.3381 -0.3130
  650MOL0     C87665  -0.403   3.335  11.608 -0.5035 -0.6409  0.6778
  650MOL0     N87666   0.247   2.952  11.401 -0.3218 -0.6672  0.8113
  650MOL0     N87667   0.362   2.992  11.373  0.5902  0.4234 -0.7678
  650MOL0     C87668   1.451   3.425  11.328 -0.2349  0.1810  0.6651
  650MOL0     C87669   1.579   3.371  11.344  0.4216  0.5229  0.7896
  650MOL0     C87670   1.882   3.079  11.415  0.1548 -0.0794  0.4305
  650MOL0     C87671   1.977   3.074  11.523 -0.7284 -0.2857  0.0765
  650MOL0     C87672   2.028   2.952  11.562 -0.3321  0.0473 -0.0733
  650MOL0     C87673   1.980   2.830  11.502  0.9527  1.3572  0.8158
  650MOL0     O87674   2.007   2.695  11.532 -0.1315 -0.1136  0.6196
  650MOL0     C87675   2.153   2.669  11.529 -0.2657  0.3885  0.0863
  650MOL0     C87676   2.218   2.663  11.389  0.3711  0.3228 -0.1376
  650MOL0     C87677   2.154   2.544  11.309 -0.2074 -0.2588  0.6273
  650MOL0     C87678   2.126   2.572  11.160 -0.3247  0.4941 -0.5240
  650MOL0     C87679   2.030   2.677  11.128 -0.1802 -0.1593  0.0789
  650MOL0     C87680   1.961   2.771  11.109 -0.3913 -0.3624 -1.0352
  650MOL0     C87681   1.881   2.836  11.413 -0.2684 -0.4505 -0.6838
  650MOL0     C87682   1.835   2.955  11.363  0.4821 -0.0962  0.4865
  650MOL0     H87683   1.554   3.140  11.091 -2.9365 -0.4154 -1.4914
  650MOL0     H87684   1.362   3.251  11.044  1.8562  2.9173 -1.2327
  650MOL0     H87685   1.149   3.424  11.351 -3.5449 -1.6367 -2.9606
  650MOL0     H87686   1.225   3.593  11.337  2.6072  0.3098 -1.5726
  650MOL0     H87687   0.977   3.607  11.314  2.5141  2.3277  0.9267
  650MOL0     H87688   1.041   3.607  11.146 -0.7191 -0.1800  0.3055
  650MOL0     H87689   0.866   3.472  11.146  1.0532  3.7982  2.6747
  650MOL0     H87690   0.993   3.346  11.151  1.6529 -1.2157  2.7326
  650MOL0     H87691   0.936   3.301  11.390 -0.8293 -1.0647  0.3646
  650MOL0     H87692   0.838   3.443  11.397  1.3577 -1.9979  3.0369
  650MOL0     H87693   0.706   3.225  11.410  1.3277 -1.2391 -0.3203
  650MOL0     H87694   0.642   3.345  11.306 -0.4253  0.7367  2.5706
  650MOL0     H87695   0.764   3.211  11.110 -2.2734 -1.7248 -2.1936
  650MOL0     H87696   0.839   3.120  11.232  1.1623  0.9924 -3.1810
  650MOL0     H87697   0.658   3.005  11.121 -1.6725  2.6352 -1.8301
  650MOL0     H87698   0.633   3.016  11.299  2.9735  2.4601  1.1556
  650MOL0     H87699   0.469   3.122  11.076 -0.6943  0.0116 -0.2995
  650MOL0     H87700   0.478   3.223  11.219 -0.7888  0.6412 -0.3352
  650MOL0     H87701   0.220   3.066  11.091  1.8024  0.7214 -0.2183
  650MOL0     H87702   0.001   2.958  11.173  0.6446 -1.1095 -0.6250
  650MOL0     H87703  -0.001   2.825  11.276  2.2110 -0.1451  1.2805
  650MOL0     H87704   0.015   3.120  11.387  0.5677 -0.3327 -0.7407
  650MOL0     H87705  -0.040   2.981  11.479  0.7500 -0.1375 -0.1447
  650MOL0     H87706  -0.252   2.954  11.353  0.5512  0.2119  0.8051
  650MOL0     H87707  -0.198   3.095  11.253 -0.5552  0.4217 -1.0750
  650MOL0     H87708  -0.189   3.222  11.478  1.7254 -1.5251  2.0416
  650MOL0     H87709  -0.267   3.085  11.553 -0.1245 -0.6550 -0.3017
  650MOL0     H87710  -0.569   3.310  11.320 -0.4552  1.2618  0.3316
  650MOL0     H87711  -0.827   3.470  11.438 -0.9096  0.1853 -0.9144
  650MOL0     H87712  -0.722   3.600  11.377  2.3717 -0.0663 -0.4483
  650MOL0     H87713  -0.718   3.450  11.294  1.1344 -1.4539  1.6360
  650MOL0     H87714  -0.970   3.792  11.536  1.0991 -1.9058  0.3798
  650MOL0     H87715  -1.074   3.982  11.630  0.9918  2.4573  1.5267
  650MOL0     H87716  -0.984   4.116  12.056  1.3817  0.8239 -0.1602
  650MOL0     H87717  -0.954   4.184  11.892 -1.7793  1.2355 -0.4954
  650MOL0     H87718  -1.229   4.228  12.005 -0.0817 -1.0067 -1.8588
  650MOL0     H87719  -1.087   4.326  12.054  1.5291  1.4751 -3.0856
  650MOL0     H87720  -1.121   4.274  11.769 -0.6342 -2.4714  2.8942
  650MOL0     H87721  -1.057   4.414  11.846 -1.6905  1.8706 -2.8815
  650MOL0     H87722  -1.355   4.344  11.864  1.0324 -1.5936 -0.2103
  650MOL0     H87723  -1.277   4.502  11.904  0.5919 -0.7600  0.4413
  650MOL0     H87724  -1.308   4.391  11.620 -0.3662 -0.3869 -0.7110
  650MOL0     H87725  -1.206   4.524  11.677  0.5122 -0.2933  2.4240
  650MOL0     H87726  -1.509   4.527  11.728  0.0960 -3.0313 -1.6753
  650MOL0     H87727  -1.385   4.644  11.759  1.8238  1.1658 -0.1082
  650MOL0     H87728  -1.538   4.664  11.560  1.3072 -0.3938  2.1962
  650MOL0     H87729  -1.446   4.527  11.478  1.1904  0.2870 -1.7261
  650MOL0     H87730  -1.365   4.750  11.400 -0.9455 -0.4417 -0.6805
  650MOL0     H87731  -1.235   4.668  11.474 -0.3008 -0.0526 -3.2846
  650MOL0     H87732  -0.932   3.846  12.017  2.9228  0.5688  0.1178
  650MOL0     H87733  -0.752   3.712  11.903 -2.2411 -2.9789  0.1419
  650MOL0     H87734  -0.417   3.495  11.750 -1.2430  0.2488  0.3441
  650MOL0     H87735  -0.321   3.289  11.663 -1.1370 -0.3397  1.9173
  650MOL0     H87736   1.423   3.499  11.402  0.0525  0.1051  0.8519
  650MOL0     H87737   1.634   3.396  11.434 -0.2421  3.7188  0.4003
  650MOL0     H87738   2.012   3.165  11.570 -2.0580  0.5903 -0.5671
  650MOL0     H87739   2.103   2.934  11.637 -1.8733 -1.8870  1.1159
  650MOL0     H87740   2.202   2.751  11.582 -0.7375 -0.2317  1.5343
  650MOL0     H87741   2.168   2.582  11.593 -0.9874 -2.2337 -3.0261
  650MOL0     H87742   2.325   2.650  11.404  0.1706  0.6166  1.8695
  650MOL0     H87743   2.200   2.756  11.334 -1.8784  0.7122  1.1039
  650MOL0     H87744   2.061   2.512  11.356 -0.3977  0.1230  0.5060
  650MOL0     H87745   2.222   2.458  11.308  0.3536  0.1620 -1.5681
  650MOL0     H87746   2.088   2.477  11.120 -0.8966  0.0937  0.8926
  650MOL0     H87747   2.224   2.597  11.120 -0.2435  3.5984  1.3349
  650MOL0     H87748   1.900   2.859  11.105  0.6795  0.4253 -0.4626
  650MOL0     H87749   1.847   2.747  11.360 -0.1623 -0.1948 -1.1921
  650MOL0     H87750   1.764   2.960  11.281  3.5071  1.3833 -2.3377
  651MOL0     O87751   2.037   4.908   4.909  0.3570  0.0515  0.1000
  651MOL0     C87752   2.027   4.935   5.027  0.3450 -0.2560 -0.4417
  651MOL0     O87753   2.130   4.987   5.106 -0.1881  0.2708 -0.0658
  651MOL0     C87754   2.245   5.047   5.050 -0.4174  0.7805 -0.7756
  651MOL0     C87755   2.364   5.020   5.099 -0.5739  0.8488  0.1165
  651MOL0     C87756   2.485   5.066   5.040  0.0860 -0.2839  0.1500
  651MOL0     C87757   2.488   5.168   4.937  1.0711  0.2742 -0.2302
  651MOL0     O87758   2.608   5.224   4.905 -0.5863  0.4314  0.5276
  651MOL0     C87759   2.598   5.348   4.828  1.2295 -0.2408  0.4144
  651MOL0     C87760   2.571   5.467   4.931  0.1377 -0.4414  0.0871
  651MOL0     C87761   2.494   5.574   4.850  0.3665  0.0919 -0.3174
  651MOL0     C87762   2.496   5.717   4.915  0.1065  0.1319 -0.1813
  651MOL0     C87763   2.457   5.831   4.819 -0.3738  0.0562  0.3651
  651MOL0     C87764   2.360   5.940   4.867  0.1433 -0.0806  0.4306
  651MOL0     C87765   2.230   5.892   4.908  0.8301  0.0303  0.6422
  651MOL0     C87766   2.133   6.004   4.909  0.8698 -0.3680 -0.0270
  651MOL0     N87767   2.000   5.958   4.939  0.6100 -0.0444 -0.0384
  651MOL0     C87768   1.965   5.867   5.038  0.1232  0.3447 -0.1045
  651MOL0     C87769   1.827   5.863   5.050  0.2499 -0.2818  0.0533
  651MOL0     C87770   1.726   5.774   5.127  0.0494 -0.1780 -0.3447
  651MOL0     C87771   1.671   5.843   5.261  0.3307  0.5112  0.9641
  651MOL0     C87772   1.598   5.969   5.233 -0.6796 -0.6128  0.8902
  651MOL0     C87773   1.544   6.030   5.365  0.0070  0.2509 -0.2955
  651MOL0     O87774   1.476   5.927   5.445 -0.5345 -0.0277 -0.6328
  651MOL0     C87775   1.340   5.914   5.443  0.4053 -0.1851 -0.5304
  651MOL0     C87776   1.255   5.995   5.361 -0.4985  0.1742 -0.5455
  651MOL0     C87777   1.111   5.998   5.371  0.3332  0.3174 -0.5549
  651MOL0     C87778   1.041   6.082   5.276  0.8277 -0.1890  0.6133
  651MOL0     C87779   1.055   5.919   5.476 -0.3912 -0.0220  0.7307
  651MOL0     C87780   0.910   5.904   5.478 -0.4488  0.3847 -0.3790
  651MOL0     O87781   0.864   5.775   5.515  0.4602 -0.5957  0.7612
  651MOL0     C87782   0.723   5.760   5.527  0.2396 -0.6174  1.0165
  651MOL0     C87783   0.624   5.795   5.428  0.2147  0.2687  0.1895
  651MOL0     C87784   0.490   5.759   5.446 -0.7637  0.7771 -0.3641
  651MOL0     C87785   0.445   5.701   5.557  0.0401  0.2696 -0.2812
  651MOL0     O87786   0.308   5.661   5.568  0.1899  0.0365  0.2402
  651MOL0     C87787   0.259   5.577   5.672  1.2581  0.1565 -0.4128
  651MOL0     C87788   0.109   5.545   5.644  0.2584 -0.5200 -0.1693
  651MOL0     C87789   0.039   5.662   5.585  0.8560 -0.0849 -0.8027
  651MOL0     C87790  -0.113   5.653   5.597 -0.1881  0.6974  0.3199
  651MOL0     C87791  -0.177   5.763   5.499  1.0813 -0.3183  0.3837
  651MOL0     C87792  -0.329   5.773   5.529 -0.4761 -0.8012  0.3161
  651MOL0     C87793  -0.377   5.901   5.478 -1.0238 -0.4130 -0.4553
  651MOL0     C87794  -0.528   5.907   5.495 -0.1122  0.4996 -0.3788
  651MOL0    Cl87795  -0.592   5.876   5.653 -0.5677 -0.3407  0.2508
  651MOL0     C87796   0.529   5.681   5.669  0.3534 -0.0268 -0.1824
  651MOL0     C87797   0.666   5.717   5.652 -0.1306  1.6403  0.1774
  651MOL0     O87798   0.834   5.996   5.455  0.3744 -0.3153 -0.0366
  651MOL0     C87799   1.136   5.843   5.558  0.4909  0.8180  0.4200
  651MOL0     C87800   1.276   5.836   5.539  1.0033  0.1616 -0.3521
  651MOL0     N87801   1.778   5.961   4.956 -0.5752 -0.5528  0.2778
  651MOL0     N87802   1.881   6.017   4.899  0.0961  0.6313 -0.3546
  651MOL0     C87803   2.360   5.200   4.891  0.4436 -0.2469 -0.5183
  651MOL0     C87804   2.243   5.139   4.947  0.8846 -0.5990 -0.4077
  651MOL0     C87805   1.897   4.899   5.093 -1.0755 -0.5666 -0.3100
  651MOL0     C87806   1.885   4.889   5.230  0.2297  0.5674 -0.0833
  651MOL0     C87807   1.762   4.846   5.287 -0.1135  0.1582 -0.0890
  651MOL0     C87808   1.655   4.806   5.211  0.2683 -0.5046 -0.4376
  651MOL0     O87809   1.554   4.753   5.285 -0.2237 -0.0909 -0.5100
  651MOL0     C87810   1.433   4.727   5.221 -0.3451 -0.5473 -0.1108
  651MOL0     C87811   1.326   4.743   5.316  1.3028 -0.1182 -0.0273
  651MOL0     C87812   1.194   4.700   5.262 -0.7182  0.0359  0.3954
  651MOL0     C87813   1.091   4.703   5.376 -0.8217  0.1820  0.3704
  651MOL0     C87814   0.974   4.634   5.324 -0.2097 -0.2243  0.1436
  651MOL0     C87815   0.867   4.581   5.304  1.8886 -0.8313  0.6309
  651MOL0     C87816   1.668   4.827   5.073 -0.0514 -0.0560 -0.1573
  651MOL0     C87817   1.788   4.862   5.018  0.4345 -0.0413  0.2427
  651MOL0     H87818   2.373   4.959   5.188  3.0095  1.0417  0.0277
  651MOL0     H87819   2.579   5.029   5.080  0.9514  2.7845  1.2456
  651MOL0     H87820   2.697   5.363   4.784  1.1176  2.8565  1.0322
  651MOL0     H87821   2.541   5.335   4.736  2.7962  0.0466 -0.6310
  651MOL0     H87822   2.512   5.445   5.020 -1.1578 -1.3719 -0.9654
  651MOL0     H87823   2.668   5.507   4.963  1.3074 -1.1081 -2.3662
  651MOL0     H87824   2.546   5.587   4.754  3.8639  0.5727  1.4567
  651MOL0     H87825   2.392   5.544   4.825  0.0540 -0.5820  1.6438
  651MOL0     H87826   2.420   5.712   4.994  1.0431 -0.3374  0.7148
  651MOL0     H87827   2.595   5.738   4.955  0.3940 -3.5543  1.4131
  651MOL0     H87828   2.550   5.868   4.774  0.4876 -0.9346  1.2614
  651MOL0     H87829   2.402   5.774   4.744 -2.3529 -0.8001  2.3676
  651MOL0     H87830   2.408   6.003   4.942  2.0272  0.7875 -1.3988
  651MOL0     H87831   2.350   6.006   4.780  2.6223  0.5046  0.5137
  651MOL0     H87832   2.187   5.808   4.852  0.6250 -0.1491  1.0627
  651MOL0     H87833   2.232   5.857   5.011 -3.6824  1.9059  1.6272
  651MOL0     H87834   2.127   6.062   4.816 -0.8818  1.1747  0.9838
  651MOL0     H87835   2.151   6.081   4.984 -2.2889  0.9975 -0.5082
  651MOL0     H87836   2.021   5.810   5.112  0.7420  0.9251 -0.1101
  651MOL0     H87837   1.642   5.744   5.064  0.1411 -1.0925 -0.0520
  651MOL0     H87838   1.775   5.680   5.156  1.5252  0.2726 -1.2705
  651MOL0     H87839   1.755   5.864   5.328  0.7675 -4.3348  2.3157
  651MOL0     H87840   1.597   5.773   5.299  0.9360  0.7066  2.5721
  651MOL0     H87841   1.523   5.959   5.154 -0.4368  0.3330  0.5297
  651MOL0     H87842   1.664   6.042   5.186 -1.4908 -1.5398 -1.9002
  651MOL0     H87843   1.476   6.114   5.355 -0.2426 -0.1249 -2.1004
  651MOL0     H87844   1.628   6.062   5.427  0.8899  0.8564 -1.7452
  651MOL0     H87845   1.287   6.060   5.280 -0.5573  5.0226  2.8937
  651MOL0     H87846   0.948   6.033   5.248  0.6171 -1.3843  3.0708
  651MOL0     H87847   1.011   6.181   5.311  1.5644 -0.4690  2.1315
  651MOL0     H87848   1.094   6.096   5.182  0.4159  2.0792  0.6685
  651MOL0     H87849   0.655   5.871   5.357  0.2087  1.0670  1.0186
  651MOL0     H87850   0.422   5.806   5.375  1.6786  2.5778 -1.6811
  651MOL0     H87851   0.306   5.479   5.671 -2.9718 -2.0950  0.5177
  651MOL0     H87852   0.276   5.617   5.773  2.9901 -1.3337 -0.0620
  651MOL0     H87853   0.108   5.468   5.566  0.5146 -0.3560 -0.3348
  651MOL0     H87854   0.049   5.507   5.727 -2.6232  2.7495 -0.5256
  651MOL0     H87855   0.075   5.656   5.482  0.3191  1.5159 -1.1125
  651MOL0     H87856   0.080   5.757   5.622  1.3158 -0.7862  0.5685
  651MOL0     H87857  -0.130   5.551   5.562  4.0444  0.0167 -0.2880
  651MOL0     H87858  -0.140   5.668   5.702 -1.0928 -0.8915  0.3486
  651MOL0     H87859  -0.166   5.724   5.398  1.4237  0.5806  0.0602
  651MOL0     H87860  -0.125   5.859   5.507  2.3822 -0.9446 -0.3085
  651MOL0     H87861  -0.379   5.689   5.481 -2.7015  0.9364 -0.5710
  651MOL0     H87862  -0.349   5.770   5.636 -0.1715 -1.1904  0.3684
  651MOL0     H87863  -0.338   5.912   5.376  2.1454  0.7412  0.7515
  651MOL0     H87864  -0.323   5.980   5.531  0.0661  0.7747 -3.1318
  651MOL0     H87865  -0.583   5.836   5.432 -0.3191 -0.3872  0.7763
  651MOL0     H87866  -0.545   6.012   5.468  0.4013  0.4904 -0.7518
  651MOL0     H87867   0.501   5.631   5.761  2.2123  2.3161  1.7678
  651MOL0     H87868   0.735   5.697   5.734  0.1590  1.6307 -0.0694
  651MOL0     H87869   1.087   5.788   5.638  1.3436 -1.9001 -0.8223
  651MOL0     H87870   1.326   5.762   5.602 -1.7482 -2.8445 -1.4068
  651MOL0     H87871   2.344   5.284   4.825  0.2496  0.7047  0.7251
  651MOL0     H87872   2.145   5.172   4.917  0.5298 -0.2173  1.0949
  651MOL0     H87873   1.972   4.912   5.292 -1.2847 -0.3090  2.5377
  651MOL0     H87874   1.744   4.832   5.393  1.4342  2.2474  0.5162
  651MOL0     H87875   1.417   4.796   5.138  0.2629 -0.6833 -0.3468
  651MOL0     H87876   1.423   4.625   5.182 -0.5972 -0.9519  0.9653
  651MOL0     H87877   1.325   4.848   5.346  2.5963 -0.7263  2.4387
  651MOL0     H87878   1.335   4.678   5.403  0.2166 -0.6801 -0.3104
  651MOL0     H87879   1.207   4.605   5.209 -1.9617 -1.1678  2.1412
  651MOL0     H87880   1.175   4.782   5.192 -1.8412  0.4349  1.1377
  651MOL0     H87881   1.069   4.808   5.398  2.6724  1.0660  0.3649
  651MOL0     H87882   1.132   4.654   5.465  2.2317 -0.0620 -1.0402
  651MOL0     H87883   0.771   4.534   5.306  0.9173  0.9573 -1.1551
  651MOL0     H87884   1.594   4.790   5.003  0.4476 -2.5249  0.5258
  651MOL0     H87885   1.796   4.847   4.911  1.5167 -1.3663  0.4921
  652MOL0     O87886  10.821   1.227   9.288 -0.4861 -0.1821  0.4292
  652MOL0     C87887  10.875   1.304   9.209 -1.0122 -0.1385  0.2324
  652MOL0     O87888  10.908   1.437   9.233  0.0419 -0.6830 -0.4350
  652MOL0     C87889  10.819   1.525   9.311  0.5834 -0.1303  0.3752
  652MOL0     C87890  10.679   1.497   9.345  0.1743 -0.2728  0.2173
  652MOL0     C87891  10.612   1.587   9.430  0.3441 -0.4237  0.8856
  652MOL0     C87892  10.669   1.709   9.470 -0.1807  0.3576 -0.1736
  652MOL0     O87893  10.612   1.805   9.548  0.2339 -0.1288  0.1067
  652MOL0     C87894  10.491   1.776   9.616  0.2298 -0.0890 -0.3362
  652MOL0     C87895  10.367   1.825   9.549 -0.1164 -0.7182  0.0570
  652MOL0     C87896  10.242   1.824   9.639 -0.2350  0.1689 -0.2000
  652MOL0     C87897  10.120   1.881   9.559  0.2574  1.0491  0.8525
  652MOL0     C87898  10.076   1.776   9.449 -1.2816  0.0323 -0.2207
  652MOL0     C87899   9.944   1.805   9.399  0.0096  0.6937  0.5487
  652MOL0     C87900   9.942   1.938   9.320 -0.6330 -1.0043 -1.0669
  652MOL0     C87901   9.808   1.965   9.256  0.6237  0.4982  0.0022
  652MOL0     N87902   9.704   1.986   9.357  0.8021  0.2270  0.5078
  652MOL0     C87903   9.643   1.887   9.435 -0.2603  0.1905  0.0077
  652MOL0     C87904   9.564   1.944   9.522 -0.5364 -0.5600  0.4215
  652MOL0     C87905   9.485   1.886   9.634 -0.0742 -0.0303  0.0944
  652MOL0     C87906   9.544   1.942   9.770  0.1680 -0.5653 -0.1671
  652MOL0     C87907   9.439   1.969   9.877 -0.6941 -0.4218  0.2180
  652MOL0     C87908   9.349   2.096   9.863 -0.7922  0.1880  0.3339
  652MOL0     O87909   9.260   2.099   9.975  0.5685 -0.3701  0.0216
  652MOL0     C87910   9.315   2.122  10.101 -1.1621  0.6122  0.0217
  652MOL0     C87911   9.415   2.215  10.127 -0.9802  0.3586 -0.0947
  652MOL0     C87912   9.457   2.231  10.265 -0.3983 -0.3759 -0.2302
  652MOL0     C87913   9.582   2.325  10.276 -0.6914  0.0477  0.1984
  652MOL0     C87914   9.412   2.145  10.368  0.4904 -0.0749 -0.9502
  652MOL0     C87915   9.466   2.156  10.512  0.9037  0.4731  0.1910
  652MOL0     O87916   9.398   2.075  10.599  0.3497 -0.1934 -0.5972
  652MOL0     C87917   9.424   2.087  10.732  0.0913 -0.6202 -0.0598
  652MOL0     C87918   9.504   2.001  10.792 -0.4896  0.2536  0.4588
  652MOL0     C87919   9.538   2.018  10.922 -0.4029  1.2554 -0.0916
  652MOL0     C87920   9.501   2.132  10.999 -0.3995 -0.3225  0.0083
  652MOL0     O87921   9.549   2.149  11.130  0.2700 -0.0296 -0.6728
  652MOL0     C87922   9.441   2.124  11.217  0.5985  0.2387 -1.2597
  652MOL0     C87923   9.505   2.057  11.341 -0.0466 -0.1368  0.0425
  652MOL0     C87924   9.414   2.050  11.474 -0.2780  0.1438 -0.4639
  652MOL0     C87925   9.496   1.987  11.588  0.0942  0.4895 -0.2700
  652MOL0     C87926   9.401   1.946  11.695  1.0135  0.7310 -0.2294
  652MOL0     C87927   9.451   1.833  11.796  0.1383 -0.0244  0.2097
  652MOL0     C87928   9.350   1.816  11.920 -0.5606  0.0110 -0.7098
  652MOL0     C87929   9.374   1.681  11.999  0.7032 -0.5211 -0.2379
  652MOL0    Cl87930   9.540   1.678  12.075 -0.4652  0.7954  0.3067
  652MOL0     C87931   9.414   2.218  10.937 -0.5477  0.3527 -1.0453
  652MOL0     C87932   9.372   2.193  10.807  0.2583 -0.2990 -0.1887
  652MOL0     O87933   9.564   2.227  10.539  0.5722  0.1668 -0.6442
  652MOL0     C87934   9.320   2.045  10.331  0.4316  0.0409  0.1714
  652MOL0     C87935   9.268   2.033  10.200 -0.3998 -0.0588  0.0550
  652MOL0     N87936   9.575   2.079   9.494  0.5825 -0.3180  0.1135
  652MOL0     N87937   9.652   2.104   9.393 -0.2962 -0.0477 -0.1640
  652MOL0     C87938  10.796   1.741   9.428 -0.2545  0.3350 -0.0617
  652MOL0     C87939  10.871   1.646   9.356  0.0100  0.3417  0.3804
  652MOL0     C87940  10.916   1.243   9.082 -0.2015  0.4418  0.4879
  652MOL0     C87941  10.943   1.330   8.978  0.0031  1.0911  0.4557
  652MOL0     C87942  10.973   1.283   8.855 -0.1423 -0.0958 -0.9102
  652MOL0     C87943  10.987   1.144   8.833  0.7683 -0.4454  0.2063
  652MOL0     O87944  11.023   1.094   8.714  0.0060  0.4943  0.4330
  652MOL0     C87945  10.958   1.145   8.600  0.0783  0.3651 -0.1670
  652MOL0     C87946  10.801   1.131   8.608 -1.9522  0.6258  0.5408
  652MOL0     C87947  10.757   0.978   8.575 -0.2581  0.2510 -0.0522
  652MOL0     C87948  10.763   0.921   8.437 -0.3585  0.4615 -0.1390
  652MOL0     C87949  10.696   1.012   8.346  0.1238 -0.7377 -0.8990
  652MOL0     C87950  10.620   1.090   8.289 -0.9977  0.4643  0.8512
  652MOL0     C87951  10.953   1.053   8.934  0.3071 -0.3067 -0.0002
  652MOL0     C87952  10.921   1.099   9.059 -0.2997 -0.5759 -0.3108
  652MOL0     H87953  10.624   1.406   9.323  2.1980 -1.5204  0.1115
  652MOL0     H87954  10.512   1.557   9.457 -0.3422  0.7023 -0.3098
  652MOL0     H87955  10.491   1.667   9.627 -0.0546  0.0001  0.6525
  652MOL0     H87956  10.489   1.821   9.716 -1.0639 -0.1885 -0.2971
  652MOL0     H87957  10.389   1.931   9.528  1.8045  0.8933  7.3558
  652MOL0     H87958  10.351   1.761   9.462  2.0203  1.1530 -1.8593
  652MOL0     H87959  10.231   1.719   9.671  3.9465 -0.7960 -1.1990
  652MOL0     H87960  10.262   1.889   9.725 -1.2860 -0.5572  0.6220
  652MOL0     H87961  10.039   1.900   9.630 -1.0395 -2.4148  0.5208
  652MOL0     H87962  10.158   1.971   9.510  1.9893 -0.4831 -0.8474
  652MOL0     H87963  10.134   1.765   9.356 -3.3116  0.3473 -1.5974
  652MOL0     H87964  10.065   1.678   9.496 -3.3005 -0.4967 -1.6350
  652MOL0     H87965   9.906   1.723   9.337 -5.1930  3.4223 -0.4772
  652MOL0     H87966   9.870   1.813   9.480 -1.0165 -1.4201 -0.0969
  652MOL0     H87967   9.958   2.023   9.387  0.1493  0.5030 -3.0499
  652MOL0     H87968  10.017   1.933   9.241  1.4476 -0.6228  0.7924
  652MOL0     H87969   9.772   1.874   9.209  2.6802 -2.4909  3.6696
  652MOL0     H87970   9.828   2.052   9.192  1.4522 -0.7887 -1.5384
  652MOL0     H87971   9.654   1.780   9.431 -3.8479 -0.5049  3.1787
  652MOL0     H87972   9.381   1.905   9.609  0.1109 -0.3617 -0.9917
  652MOL0     H87973   9.508   1.778   9.634 -2.6807 -0.6666  1.4897
  652MOL0     H87974   9.601   2.034   9.752 -0.1444  0.2590  2.6403
  652MOL0     H87975   9.621   1.874   9.806 -1.1610 -0.8872  2.2892
  652MOL0     H87976   9.511   1.985   9.958 -0.1922 -1.0675 -0.0840
  652MOL0     H87977   9.379   1.881   9.902  1.7060 -2.2874 -0.1971
  652MOL0     H87978   9.301   2.086   9.766 -1.6654  1.2037  0.6372
  652MOL0     H87979   9.401   2.192   9.872 -4.1766  2.0736  1.7809
  652MOL0     H87980   9.458   2.280  10.051  0.5415 -1.3649 -0.7829
  652MOL0     H87981   9.557   2.418  10.328 -1.0016  0.4610 -0.6549
  652MOL0     H87982   9.663   2.271  10.326 -0.9425  2.0949  3.0557
  652MOL0     H87983   9.618   2.352  10.176 -0.5742 -2.5851 -0.5475
  652MOL0     H87984   9.549   1.922  10.733 -0.1275  1.0111 -0.3108
  652MOL0     H87985   9.596   1.936  10.964 -3.4205 -0.3836  1.2299
  652MOL0     H87986   9.389   2.218  11.241 -0.3292 -0.2802 -1.1919
  652MOL0     H87987   9.369   2.055  11.173 -0.6108  0.8464 -0.2903
  652MOL0     H87988   9.538   1.957  11.312 -1.5598 -1.0311  1.2428
  652MOL0     H87989   9.600   2.109  11.357  0.0209 -1.0435  3.0440
  652MOL0     H87990   9.314   2.011  11.451 -0.3826  1.9393 -3.6287
  652MOL0     H87991   9.401   2.156  11.494 -1.8181  0.1979 -1.5497
  652MOL0     H87992   9.554   1.901  11.555  1.5986  1.8808 -1.3718
  652MOL0     H87993   9.569   2.054  11.633 -1.0882  0.7844  1.3012
  652MOL0     H87994   9.306   1.917  11.648 -0.3382 -1.0500  3.2400
  652MOL0     H87995   9.373   2.028  11.762 -1.4331 -2.0051  2.4227
  652MOL0     H87996   9.456   1.732  11.755 -0.1389 -0.6922  1.7452
  652MOL0     H87997   9.555   1.843  11.829  0.1573 -3.1806  1.4332
  652MOL0     H87998   9.254   1.814  11.868 -0.9598  3.7871 -0.4274
  652MOL0     H87999   9.361   1.891  11.999  1.6792 -0.5756 -0.3765
  652MOL0     H88000   9.360   1.602  11.925 -0.1064  0.4152 -1.1212
  652MOL0     H88001   9.292   1.669  12.070 -0.8295 -2.3211 -2.1747
  652MOL0     H88002   9.371   2.294  11.001 -0.8167 -0.9617  0.4100
  652MOL0     H88003   9.305   2.264  10.758  1.8670  0.9860 -0.5941
  652MOL0     H88004   9.273   1.982  10.406 -1.9294 -1.3039 -2.2457
  652MOL0     H88005   9.202   1.951  10.174 -1.4661  0.4261  1.1111
  652MOL0     H88006  10.833   1.839   9.459  0.2289 -0.3707  1.7198
  652MOL0     H88007  10.979   1.656   9.346  0.5983 -3.7841  0.7033
  652MOL0     H88008  10.921   1.436   8.983  0.0539  1.1935 -1.0558
  652MOL0     H88009  10.993   1.352   8.774  1.0506 -1.4853 -1.8385
  652MOL0     H88010  10.988   1.250   8.597  0.4758  0.2498 -0.3544
  652MOL0     H88011  10.991   1.100   8.506  0.9435  2.6339 -1.0195
  652MOL0     H88012  10.766   1.210   8.540 -1.2801  0.8186  0.4045
  652MOL0     H88013  10.765   1.150   8.709  0.1838  0.8462  1.3129
  652MOL0     H88014  10.651   0.972   8.601 -0.2941 -1.2279 -0.4589
  652MOL0     H88015  10.813   0.908   8.637 -1.2884 -1.4287 -0.9488
  652MOL0     H88016  10.728   0.817   8.443  2.3248 -0.4376  1.4004
  652MOL0     H88017  10.868   0.907   8.409  0.5304  3.4622  1.3420
  652MOL0     H88018  10.577   1.180   8.250 -0.6208  0.1867 -0.2630
  652MOL0     H88019  10.958   0.947   8.913 -1.7903 -0.4948  0.1943
  652MOL0     H88020  10.897   1.028   9.137 -0.7126 -1.7125 -1.4286
  653MOL0     O88021  10.242   2.863   0.816 -0.0198  0.7245 -0.1073
  653MOL0     C88022  10.357   2.821   0.840  0.4191  0.0359 -0.2117
  653MOL0     O88023  10.416   2.814   0.967  0.2859 -0.1051  0.9078
  653MOL0     C88024  10.342   2.881   1.063 -0.8008  0.0211 -0.1128
  653MOL0     C88025  10.310   3.017   1.051 -0.4430 -0.0286  0.5862
  653MOL0     C88026  10.227   3.087   1.141  0.0838  0.2863 -0.3106
  653MOL0     C88027  10.171   3.019   1.256 -0.3113  1.1518  0.4137
  653MOL0     O88028  10.098   3.078   1.357 -0.0461 -0.0817  0.6587
  653MOL0     C88029  10.082   3.220   1.368 -0.4391 -0.0984  0.4000
  653MOL0     C88030   9.954   3.255   1.295  0.3470 -0.4979 -0.7437
  653MOL0     C88031   9.925   3.400   1.315 -0.8864 -0.0313  0.6722
  653MOL0     C88032   9.770   3.427   1.288 -0.0673  0.1142 -0.3891
  653MOL0     C88033   9.737   3.571   1.280  0.3324 -0.5615  0.9716
  653MOL0     C88034   9.771   3.652   1.395 -0.2167 -0.0724 -0.6155
  653MOL0     C88035   9.672   3.751   1.443 -0.2024 -0.1197  0.1825
  653MOL0     C88036   9.647   3.877   1.358  0.4184 -0.0686  0.1480
  653MOL0     N88037   9.768   3.934   1.310 -0.0933  0.1231  0.2088
  653MOL0     C88038   9.839   4.039   1.363  0.5730  0.1704 -0.4232
  653MOL0     C88039   9.947   4.050   1.278 -0.0981 -0.9689 -0.0242
  653MOL0     C88040  10.056   4.151   1.303  0.3071 -0.0260 -0.4242
  653MOL0     C88041  10.194   4.096   1.348 -0.5722 -0.2127 -0.0870
  653MOL0     C88042  10.296   4.212   1.350  0.5040  0.6034  0.6306
  653MOL0     C88043  10.285   4.307   1.463  0.6901 -0.1320  0.0300
  653MOL0     O88044  10.398   4.404   1.472  0.1830  0.5789 -0.1005
  653MOL0     C88045  10.407   4.488   1.369 -0.3273 -0.9538 -0.0540
  653MOL0     C88046  10.534   4.534   1.346  0.2677  0.2286  0.2541
  653MOL0     C88047  10.557   4.652   1.276  0.1929  0.9553  0.3327
  653MOL0     C88048  10.689   4.727   1.291 -0.6396 -0.1054  0.1693
  653MOL0     C88049  10.452   4.717   1.195 -1.1073 -0.3235 -0.7158
  653MOL0     C88050  10.471   4.843   1.121  0.9250 -0.0377  0.1313
  653MOL0     O88051  10.585   4.895   1.085  0.3365 -0.3894  0.1302
  653MOL0     C88052  10.595   5.015   1.022 -0.1826 -0.2352 -0.0746
  653MOL0     C88053  10.521   5.128   1.050  0.2332  0.0541 -0.3056
  653MOL0     C88054  10.548   5.256   0.999  0.1177 -0.1235 -0.3530
  653MOL0     C88055  10.660   5.267   0.907  0.0215 -1.1809 -0.1669
  653MOL0     O88056  10.689   5.386   0.833  0.3505 -0.1764  0.0462
  653MOL0     C88057  10.618   5.508   0.855  0.8168 -0.1507 -0.3535
  653MOL0     C88058  10.667   5.616   0.753 -0.7449 -0.1570 -0.4544
  653MOL0     C88059  10.820   5.642   0.780 -0.6963  0.4100  0.0015
  653MOL0     C88060  10.857   5.783   0.811  1.0534 -0.4850 -0.3708
  653MOL0     C88061  10.987   5.805   0.894  0.2118  0.2942  0.5109
  653MOL0     C88062  11.021   5.955   0.899  0.3468  0.2942  0.1118
  653MOL0     C88063  11.150   5.993   0.985 -0.0884 -0.0366 -0.0459
  653MOL0     C88064  11.191   6.136   0.973  0.6859 -0.4013  0.3061
  653MOL0    Cl88065  11.309   6.174   1.089 -0.0313  0.5414  0.1065
  653MOL0     C88066  10.745   5.159   0.891 -0.0696  0.4477  0.1135
  653MOL0     C88067  10.723   5.037   0.955  0.0933 -0.7669  0.3413
  653MOL0     O88068  10.362   4.886   1.070  0.4229  0.0757 -0.0615
  653MOL0     C88069  10.325   4.651   1.200  0.1659 -0.4576 -1.1244
  653MOL0     C88070  10.299   4.547   1.297  0.7275 -0.0816 -0.2392
  653MOL0     N88071   9.938   3.958   1.176 -0.8727  0.6580  0.7749
  653MOL0     N88072   9.822   3.898   1.194 -1.0834  0.1593 -0.8788
  653MOL0     C88073  10.203   2.882   1.255  1.1402 -0.1654 -0.4465
  653MOL0     C88074  10.288   2.815   1.168 -0.9979 -0.5595 -0.2245
  653MOL0     C88075  10.435   2.764   0.731  0.1133 -0.0956  0.5233
  653MOL0     C88076  10.375   2.733   0.603 -0.7858  1.1115  0.7698
  653MOL0     C88077  10.439   2.644   0.512  0.0158 -1.0313 -0.0644
  653MOL0     C88078  10.570   2.610   0.539  0.0120 -0.2005  0.8391
  653MOL0     O88079  10.649   2.528   0.463  0.2986  0.8142  0.8193
  653MOL0     C88080  10.600   2.466   0.343 -0.1276 -0.4080 -0.3636
  653MOL0     C88081  10.518   2.350   0.379 -0.1986  0.3473 -0.1434
  653MOL0     C88082  10.581   2.245   0.472 -0.0922  0.0905 -0.0036
  653MOL0     C88083  10.537   2.253   0.619  0.2102  0.2244  0.7426
  653MOL0     C88084  10.604   2.147   0.695 -0.7734  0.6063  1.3351
  653MOL0     C88085  10.682   2.080   0.762  0.1029  0.6250  0.6796
  653MOL0     C88086  10.631   2.652   0.654 -0.4436 -0.1275  0.0525
  653MOL0     C88087  10.569   2.730   0.752  0.8707  0.0777 -0.2043
  653MOL0     H88088  10.368   3.069   0.976  3.6084 -3.1961  1.1460
  653MOL0     H88089  10.208   3.192   1.118 -0.7533  0.4435  0.9797
  653MOL0     H88090  10.065   3.237   1.474  0.5690 -2.4143  0.9838
  653MOL0     H88091  10.174   3.267   1.333  0.6608 -2.2951  0.1662
  653MOL0     H88092   9.955   3.228   1.189 -0.8791  0.1722 -0.9507
  653MOL0     H88093   9.867   3.207   1.340 -0.4986  2.1866  0.7222
  653MOL0     H88094   9.944   3.420   1.421 -1.5142  3.3850  0.2848
  653MOL0     H88095   9.992   3.460   1.252 -2.5990 -2.2066 -3.6094
  653MOL0     H88096   9.730   3.379   1.198 -0.7247 -0.3657  0.1463
  653MOL0     H88097   9.714   3.381   1.370  0.6871  1.3382  0.8560
  653MOL0     H88098   9.797   3.616   1.200  0.8120 -1.6244  0.7088
  653MOL0     H88099   9.632   3.587   1.252  0.7790  0.0773 -0.4422
  653MOL0     H88100   9.787   3.579   1.475 -1.9314  2.1985  1.9707
  653MOL0     H88101   9.866   3.700   1.373  0.2451 -0.4875  0.4186
  653MOL0     H88102   9.582   3.690   1.457  0.2963 -0.9442 -0.1886
  653MOL0     H88103   9.701   3.786   1.542  0.5382 -0.3489  0.0489
  653MOL0     H88104   9.603   3.955   1.422  2.0503  1.2879 -0.3331
  653MOL0     H88105   9.581   3.857   1.274 -0.3209  0.3074  0.6230
  653MOL0     H88106   9.810   4.095   1.451 -3.0715 -0.9856 -0.7470
  653MOL0     H88107  10.062   4.220   1.219 -2.0041  1.0110  0.1971
  653MOL0     H88108  10.024   4.217   1.384  0.8912  0.6660 -0.7411
  653MOL0     H88109  10.227   4.019   1.278 -3.5718 -0.3660 -1.4853
  653MOL0     H88110  10.182   4.057   1.449 -1.7849  1.2687  0.3797
  653MOL0     H88111  10.288   4.273   1.259  1.1717  2.0170  1.4741
  653MOL0     H88112  10.401   4.183   1.364  0.2263  0.2161  1.9762
  653MOL0     H88113  10.295   4.249   1.555 -0.3201  1.5601  1.2527
  653MOL0     H88114  10.187   4.355   1.465  0.7804  0.1131 -0.8221
  653MOL0     H88115  10.619   4.489   1.395 -0.9579 -0.5440  1.7306
  653MOL0     H88116  10.683   4.832   1.321 -0.3952  0.1532 -0.6614
  653MOL0     H88117  10.750   4.687   1.372 -0.3291  2.4714  1.3070
  653MOL0     H88118  10.755   4.717   1.205 -1.6932 -1.3520 -0.5376
  653MOL0     H88119  10.433   5.114   1.111  0.0892 -3.0061 -1.0689
  653MOL0     H88120  10.490   5.345   1.022  1.5541  0.9373 -0.6939
  653MOL0     H88121  10.511   5.493   0.836 -0.2397  0.7728  3.8575
  653MOL0     H88122  10.630   5.556   0.953  1.9680  0.8914 -0.9854
  653MOL0     H88123  10.660   5.583   0.649 -1.3966  0.5086 -0.6298
  653MOL0     H88124  10.618   5.714   0.760 -0.1877  0.2464 -1.8772
  653MOL0     H88125  10.884   5.608   0.698 -3.0180 -1.4678 -1.1809
  653MOL0     H88126  10.857   5.579   0.861 -1.0450  0.5473  0.2711
  653MOL0     H88127  10.858   5.837   0.716  2.9340 -3.2580 -2.0746
  653MOL0     H88128  10.780   5.834   0.870  1.9355  0.0123  0.3836
  653MOL0     H88129  11.070   5.751   0.848 -0.5394 -1.8068  1.5232
  653MOL0     H88130  10.971   5.766   0.995  0.3675  0.7720  0.7244
  653MOL0     H88131  11.051   5.979   0.797  1.2189  0.3158  0.3703
  653MOL0     H88132  10.938   6.012   0.941 -0.8593 -1.7350  0.6467
  653MOL0     H88133  11.240   5.937   0.956 -0.0792  0.4815 -1.0644
  653MOL0     H88134  11.133   5.988   1.093  0.5838  5.1649  0.5331
  653MOL0     H88135  11.104   6.197   0.997  0.1691 -1.4889  1.2862
  653MOL0     H88136  11.214   6.165   0.870  0.0550  0.3187  0.3663
  653MOL0     H88137  10.834   5.184   0.835 -0.2278  1.6812  0.3819
  653MOL0     H88138  10.797   4.958   0.944  1.1082  0.1335  0.4264
  653MOL0     H88139  10.240   4.691   1.146 -2.4823 -3.5366  0.4371
  653MOL0     H88140  10.194   4.522   1.312  0.9018  0.0639  1.5002
  653MOL0     H88141  10.162   2.832   1.342  1.6006 -0.6480 -0.5002
  653MOL0     H88142  10.304   2.708   1.165  4.4393 -0.0207 -1.2981
  653MOL0     H88143  10.275   2.772   0.593 -1.1717  0.2843  1.2535
  653MOL0     H88144  10.382   2.613   0.425  0.7528 -2.4422 -0.0693
  653MOL0     H88145  10.545   2.537   0.279 -3.4921 -2.5481 -0.0908
  653MOL0     H88146  10.695   2.436   0.298 -0.0311  0.8406 -1.0470
  653MOL0     H88147  10.485   2.299   0.288  1.2535 -3.7863  1.4322
  653MOL0     H88148  10.435   2.394   0.435  1.7758  1.7800  1.8727
  653MOL0     H88149  10.691   2.245   0.466 -0.0660 -0.9728  0.3662
  653MOL0     H88150  10.558   2.147   0.432  1.6874  0.1255 -1.2398
  653MOL0     H88151  10.431   2.232   0.632  0.1270 -0.1955 -0.5330
  653MOL0     H88152  10.565   2.348   0.667 -1.7480  0.8462  0.7495
  653MOL0     H88153  10.755   2.023   0.815  0.4451 -0.0130 -0.4515
  653MOL0     H88154  10.735   2.625   0.671 -0.4637  0.1061  0.5731
  653MOL0     H88155  10.628   2.745   0.842  0.3535  2.5208 -0.1978
  654MOL0     O88156   9.209   7.792   1.222  0.0030  0.1660  0.2391
  654MOL0     C88157   9.293   7.876   1.250 -0.3259 -1.1149  0.7868
  654MOL0     O88158   9.401   7.853   1.327 -1.1001  0.6860  0.2290
  654MOL0     C88159   9.422   7.756   1.426  0.1613  0.6848  0.7977
  654MOL0     C88160   9.545   7.740   1.482 -0.6108 -0.4807  0.6054
  654MOL0     C88161   9.571   7.657   1.594  1.2034 -0.1766  0.1452
  654MOL0     C88162   9.463   7.567   1.629 -0.6959 -0.1870 -0.5757
  654MOL0     O88163   9.494   7.474   1.723  0.0863  0.0446 -0.1291
  654MOL0     C88164   9.508   7.339   1.667 -0.6048  0.0273  0.3764
  654MOL0     C88165   9.596   7.250   1.757 -0.5786 -0.3862 -0.0979
  654MOL0     C88166   9.732   7.314   1.802  0.0830 -0.0287 -0.2182
  654MOL0     C88167   9.821   7.358   1.681 -0.5188  0.6136  0.3272
  654MOL0     C88168   9.887   7.239   1.608  0.3019  0.2923 -0.3837
  654MOL0     C88169   9.940   7.279   1.471 -0.3693  0.5077  0.4581
  654MOL0     C88170   9.829   7.312   1.367 -0.7716 -0.1724 -0.1153
  654MOL0     C88171   9.880   7.334   1.224 -0.3940  0.7792  0.3683
  654MOL0     N88172   9.899   7.209   1.150 -1.0041 -0.9841  0.5068
  654MOL0     C88173   9.812   7.128   1.088  0.3437 -0.3657  0.1281
  654MOL0     C88174   9.883   7.043   1.013  0.4882  0.0778  0.3335
  654MOL0     C88175   9.821   6.943   0.928  0.0733  0.2284 -0.5669
  654MOL0     C88176   9.822   7.002   0.790 -0.0716  1.1124  1.0483
  654MOL0     C88177   9.753   6.923   0.680  0.6029 -0.4083 -0.0475
  654MOL0     C88178   9.611   6.874   0.711 -0.5416 -0.3319 -0.0617
  654MOL0     O88179   9.533   6.886   0.593 -0.0461 -0.9619  0.8365
  654MOL0     C88180   9.402   6.845   0.586 -0.1287  0.4585  0.4416
  654MOL0     C88181   9.351   6.848   0.458 -0.6297 -0.3227 -0.5132
  654MOL0     C88182   9.217   6.811   0.435  0.0542  0.2713 -0.3306
  654MOL0     C88183   9.173   6.826   0.298  0.7596  0.0093  0.7273
  654MOL0     C88184   9.131   6.764   0.543  0.1861  0.6522 -0.4149
  654MOL0     C88185   9.000   6.699   0.524  0.4174 -0.4304 -0.1455
  654MOL0     O88186   8.948   6.717   0.407 -0.3659 -0.4551  0.3116
  654MOL0     C88187   8.822   6.676   0.375  0.1102 -0.8599  0.1726
  654MOL0     C88188   8.705   6.726   0.440  0.4097  0.7397 -0.1712
  654MOL0     C88189   8.578   6.679   0.399  0.5618  0.1413 -0.0156
  654MOL0     C88190   8.562   6.589   0.294 -0.1108  0.2278  0.9146
  654MOL0     O88191   8.436   6.550   0.273 -0.3245  0.1981  0.7870
  654MOL0     C88192   8.416   6.419   0.214 -0.7916  0.4238 -0.1580
  654MOL0     C88193   8.267   6.374   0.241 -0.0882 -0.5948 -0.4401
  654MOL0     C88194   8.234   6.230   0.205  0.1976  0.3074 -0.1401
  654MOL0     C88195   8.304   6.126   0.300  0.0984  0.0461  0.0442
  654MOL0     C88196   8.230   5.989   0.272  0.1796 -0.1408 -0.1037
  654MOL0     C88197   8.317   5.875   0.327 -0.0030  0.1080 -0.4108
  654MOL0     C88198   8.256   5.728   0.316  0.4105 -1.2187  1.0333
  654MOL0     C88199   8.373   5.631   0.311  0.6060 -0.3685  0.4236
  654MOL0    Cl88200   8.292   5.478   0.269  0.1547  0.1042  0.3998
  654MOL0     C88201   8.675   6.545   0.223 -0.5236 -0.4288  0.3092
  654MOL0     C88202   8.806   6.587   0.267  1.3413 -0.0367  0.1000
  654MOL0     O88203   8.948   6.635   0.622 -0.5729  0.3770  0.0017
  654MOL0     C88204   9.191   6.755   0.671  0.2449 -0.2263 -0.5567
  654MOL0     C88205   9.323   6.797   0.698 -0.4857  1.2633  0.2725
  654MOL0     N88206  10.017   7.069   1.032  0.2785  0.0903 -0.4074
  654MOL0     N88207  10.019   7.168   1.112 -0.0555  0.0717  0.0938
  654MOL0     C88208   9.330   7.587   1.578 -0.7011 -0.0622 -0.1482
  654MOL0     C88209   9.317   7.683   1.482 -0.6018  0.2253  0.1719
  654MOL0     C88210   9.266   8.009   1.211 -0.6176  0.9062  0.4186
  654MOL0     C88211   9.138   8.053   1.193 -0.9288  0.4037  0.3302
  654MOL0     C88212   9.116   8.177   1.139  0.1017 -0.4559  0.7922
  654MOL0     C88213   9.213   8.260   1.106 -0.3782 -0.2578  1.0094
  654MOL0     O88214   9.196   8.395   1.076 -0.2608 -0.1146 -1.0004
  654MOL0     C88215   9.073   8.457   1.118  0.2555 -0.3373 -0.0241
  654MOL0     C88216   9.076   8.610   1.089 -0.2834 -0.0748 -0.2342
  654MOL0     C88217   9.132   8.647   0.946  0.0444  0.0279  0.3873
  654MOL0     C88218   9.069   8.578   0.823  1.0101  0.2106 -0.0721
  654MOL0     C88219   9.119   8.624   0.694  0.5303 -0.5022  0.1248
  654MOL0     C88220   9.153   8.677   0.592  0.5624 -0.7712 -0.1651
  654MOL0     C88221   9.344   8.218   1.132  0.2821  0.1002  0.0232
  654MOL0     C88222   9.373   8.092   1.173 -0.0409  0.5314 -0.4690
  654MOL0     H88223   9.629   7.799   1.446 -1.3891  1.3705  1.6527
  654MOL0     H88224   9.667   7.665   1.642  0.8913  0.8970  0.6349
  654MOL0     H88225   9.413   7.291   1.640  0.5113 -2.0131 -0.1189
  654MOL0     H88226   9.559   7.349   1.571 -1.3832 -0.4573 -0.0942
  654MOL0     H88227   9.536   7.218   1.842  2.2737 -0.9266  1.8211
  654MOL0     H88228   9.621   7.164   1.694  1.5265  1.0653 -1.3913
  654MOL0     H88229   9.715   7.404   1.861  3.7153  1.5070 -1.1836
  654MOL0     H88230   9.780   7.232   1.857  2.6390  1.6112  0.1873
  654MOL0     H88231   9.774   7.419   1.603 -0.6605 -2.2004 -2.0010
  654MOL0     H88232   9.891   7.425   1.730 -1.8393 -0.1308  3.4553
  654MOL0     H88233   9.962   7.210   1.683 -0.1242  0.3873  0.0856
  654MOL0     H88234   9.822   7.153   1.595  0.0738  0.7019 -2.1236
  654MOL0     H88235  10.008   7.364   1.486 -1.2743  1.7243 -1.7749
  654MOL0     H88236   9.990   7.197   1.419 -1.0688  1.0440 -1.1555
  654MOL0     H88237   9.757   7.230   1.358  1.7372 -3.2748  4.1631
  654MOL0     H88238   9.774   7.396   1.410  0.9262  0.8911  0.0510
  654MOL0     H88239   9.978   7.383   1.223 -0.9832  1.9801  0.0156
  654MOL0     H88240   9.801   7.390   1.174  1.2697  0.7993 -2.5328
  654MOL0     H88241   9.704   7.115   1.096 -0.0769  1.1808 -1.9562
  654MOL0     H88242   9.886   6.855   0.931  1.0575  0.9360 -0.4385
  654MOL0     H88243   9.725   6.899   0.957  1.2496 -1.3847  1.1127
  654MOL0     H88244   9.927   7.007   0.760 -0.8005  0.2801 -2.0043
  654MOL0     H88245   9.783   7.105   0.792  0.6567  1.4485 -0.4549
  654MOL0     H88246   9.812   6.832   0.665 -1.1850 -1.6784  0.3084
  654MOL0     H88247   9.755   6.983   0.588  4.8752 -0.9937 -0.5429
  654MOL0     H88248   9.568   6.936   0.790 -0.4139  0.5558 -0.6711
  654MOL0     H88249   9.615   6.775   0.756 -2.1330  0.0229  0.9316
  654MOL0     H88250   9.429   6.887   0.394 -0.7102 -1.9758 -1.6920
  654MOL0     H88251   9.095   6.902   0.304  0.1372 -0.7484  2.9580
  654MOL0     H88252   9.257   6.859   0.235  1.4998 -0.9319  1.1850
  654MOL0     H88253   9.137   6.735   0.249 -0.6746  0.2427  1.3190
  654MOL0     H88254   8.712   6.795   0.524 -1.5329 -1.4618  1.9355
  654MOL0     H88255   8.489   6.707   0.455  0.3912 -0.0939 -0.1656
  654MOL0     H88256   8.444   6.412   0.108 -1.3603  0.3646 -0.3081
  654MOL0     H88257   8.486   6.349   0.260  0.9937  2.4609  0.3993
  654MOL0     H88258   8.246   6.380   0.348 -0.5662 -3.5812 -0.2904
  654MOL0     H88259   8.206   6.445   0.185  1.3792 -0.5534 -2.0830
  654MOL0     H88260   8.244   6.198   0.100  1.6675 -0.4791  0.2080
  654MOL0     H88261   8.126   6.222   0.219  0.3060  0.4704  0.8657
  654MOL0     H88262   8.409   6.123   0.268  0.7136 -0.8505  1.9395
  654MOL0     H88263   8.292   6.157   0.404  0.3224 -2.0906  0.7539
  654MOL0     H88264   8.225   5.973   0.164  1.2564 -1.8149  0.0490
  654MOL0     H88265   8.126   5.998   0.306 -0.2374  1.3225 -1.6713
  654MOL0     H88266   8.415   5.885   0.278  0.2749  1.3419  0.3393
  654MOL0     H88267   8.335   5.894   0.433  1.7555  2.0571 -0.9843
  654MOL0     H88268   8.202   5.719   0.221  2.0782 -1.5752  0.0623
  654MOL0     H88269   8.182   5.707   0.393 -2.5416 -0.6401 -1.4399
  654MOL0     H88270   8.422   5.635   0.408  2.0950  0.3233 -0.3317
  654MOL0     H88271   8.451   5.655   0.238 -1.6980  0.1276 -2.0863
  654MOL0     H88272   8.679   6.464   0.150  0.8096 -0.3576  0.2722
  654MOL0     H88273   8.889   6.547   0.210  1.1454  2.3692 -2.0680
  654MOL0     H88274   9.128   6.711   0.748 -1.5381 -1.1913 -2.4924
  654MOL0     H88275   9.368   6.797   0.796  1.9711  1.1003 -0.7782
  654MOL0     H88276   9.254   7.512   1.598 -0.6492 -0.5748 -1.7237
  654MOL0     H88277   9.220   7.689   1.433  0.4991  2.4278 -1.9782
  654MOL0     H88278   9.045   8.000   1.210 -1.4845  1.1003 -0.4463
  654MOL0     H88279   9.014   8.210   1.126  0.5866  0.9671  0.3558
  654MOL0     H88280   8.987   8.406   1.074 -0.0059 -1.0950  1.3010
  654MOL0     H88281   9.055   8.431   1.222  2.9798 -0.9275  0.3731
  654MOL0     H88282   9.138   8.663   1.162 -1.0141  1.7774 -0.8843
  654MOL0     H88283   8.974   8.648   1.100 -1.0730 -2.5899  2.3345
  654MOL0     H88284   9.238   8.623   0.945 -0.1411 -0.8581  0.7959
  654MOL0     H88285   9.121   8.755   0.931 -0.0302 -0.2413 -1.8325
  654MOL0     H88286   8.960   8.587   0.824  1.1039  2.5482  3.2168
  654MOL0     H88287   9.093   8.471   0.828 -0.8082 -0.1884  1.6316
  654MOL0     H88288   9.193   8.722   0.503 -0.3815 -1.8377 -1.1653
  654MOL0     H88289   9.422   8.286   1.099  0.9520 -1.0003 -0.7511
  654MOL0     H88290   9.479   8.072   1.188  0.3936  1.2714 -2.2074
  655MOL0     O88291   7.927   7.692  11.071 -0.4431 -0.4378  0.2095
  655MOL0     C88292   7.834   7.716  11.146  0.2425 -0.7935 -0.0313
  655MOL0     O88293   7.847   7.736  11.286 -0.3985 -0.7674  0.2952
  655MOL0     C88294   7.964   7.702  11.346  0.2798 -0.0838  0.2102
  655MOL0     C88295   8.003   7.566  11.353  0.5131  1.1970 -0.2582
  655MOL0     C88296   8.129   7.531  11.414 -0.2879 -0.2248 -0.1310
  655MOL0     C88297   8.210   7.625  11.483  0.3984  0.4794 -0.4195
  655MOL0     O88298   8.331   7.590  11.537  0.0020  0.1077  0.0040
  655MOL0     C88299   8.338   7.565  11.674 -0.3625  0.9158 -0.4678
  655MOL0     C88300   8.415   7.432  11.707 -0.6305  1.3194  0.4538
  655MOL0     C88301   8.330   7.314  11.683 -0.2270 -0.1656  0.4974
  655MOL0     C88302   8.395   7.178  11.666 -1.0078  0.0277 -0.8618
  655MOL0     C88303   8.299   7.078  11.585 -0.2637  0.2036 -0.7310
  655MOL0     C88304   8.352   6.934  11.583 -0.1905  0.3900  0.4640
  655MOL0     C88305   8.247   6.831  11.568 -0.0331  0.0816  0.4501
  655MOL0     C88306   8.161   6.814  11.703 -0.4426  1.5135 -0.0340
  655MOL0     N88307   8.028   6.758  11.669  0.4744  0.2052 -0.2461
  655MOL0     C88308   7.925   6.820  11.598 -0.2135  0.4004  0.2353
  655MOL0     C88309   7.819   6.744  11.635 -1.1834 -0.2923  0.5385
  655MOL0     C88310   7.680   6.762  11.600  0.0032  0.6713 -0.4662
  655MOL0     C88311   7.611   6.867  11.690  0.1729  0.1747 -0.1694
  655MOL0     C88312   7.464   6.826  11.699  0.0843 -0.0620 -0.4605
  655MOL0     C88313   7.397   6.893  11.814  0.1421 -0.7122  0.7896
  655MOL0     O88314   7.359   7.028  11.789 -0.0771 -0.2601 -0.2351
  655MOL0     C88315   7.402   7.131  11.863  0.4102 -0.6954  0.6269
  655MOL0     C88316   7.455   7.124  11.987 -0.0829  0.0586  0.7593
  655MOL0     C88317   7.490   7.232  12.056 -0.9098 -1.1170 -0.1210
  655MOL0     C88318   7.571   7.217  12.183 -0.1572 -0.3128 -0.4318
  655MOL0     C88319   7.466   7.360  11.998 -0.1566  0.5693  0.6999
  655MOL0     C88320   7.491   7.492  12.067  0.5813  0.6840 -0.2732
  655MOL0     O88321   7.489   7.598  11.994 -0.8343 -0.5795  0.3326
  655MOL0     C88322   7.556   7.716  12.044 -0.2124  0.6766  0.7748
  655MOL0     C88323   7.546   7.824  11.960 -0.6223  0.4424 -0.4984
  655MOL0     C88324   7.618   7.944  11.983  0.0622  0.5434 -0.0599
  655MOL0     C88325   7.680   7.959  12.106  0.0250 -0.1357 -0.5850
  655MOL0     O88326   7.722   8.087  12.126 -0.2394 -0.9206  1.1882
  655MOL0     C88327   7.837   8.117  12.201 -0.9422 -0.0725  0.0245
  655MOL0     C88328   7.862   8.257  12.199  0.6997  0.4404 -0.8720
  655MOL0     C88329   7.879   8.309  12.057 -1.0400  0.1427  0.5868
  655MOL0     C88330   7.890   8.459  12.071  0.7803  0.8921 -0.6797
  655MOL0     C88331   7.916   8.524  11.936 -0.5290  0.4732  0.3036
  655MOL0     C88332   7.968   8.671  11.936  0.5018 -0.4819  0.5103
  655MOL0     C88333   7.952   8.738  11.797  0.2573  0.3547 -0.0903
  655MOL0     C88334   7.836   8.839  11.796 -0.1710 -0.2041  0.2831
  655MOL0    Cl88335   7.702   8.762  11.871 -0.0253 -0.0843 -0.0967
  655MOL0     C88336   7.675   7.853  12.198 -0.5360 -0.0152  0.4209
  655MOL0     C88337   7.622   7.729  12.165  0.4106 -0.5810 -0.7673
  655MOL0     O88338   7.472   7.495  12.185  0.2388 -0.0706 -0.4257
  655MOL0     C88339   7.416   7.373  11.873  0.2605  1.0897  0.6476
  655MOL0     C88340   7.380   7.259  11.795  0.1172  0.3972  0.1030
  655MOL0     N88341   7.856   6.644  11.726 -0.1719 -0.4848  0.4893
  655MOL0     N88342   7.979   6.665  11.753 -0.0407  0.6719  1.3430
  655MOL0     C88343   8.156   7.754  11.480 -0.7449 -0.0871  0.1481
  655MOL0     C88344   8.040   7.793  11.410 -0.4217 -0.1653 -0.6449
  655MOL0     C88345   7.696   7.733  11.086 -0.6906  0.0308  0.1777
  655MOL0     C88346   7.670   7.727  10.948 -0.1905  0.1536  0.9593
  655MOL0     C88347   7.538   7.749  10.900 -0.4213  0.3149  0.5202
  655MOL0     C88348   7.435   7.782  10.988  0.4003 -0.5456  1.2157
  655MOL0     O88349   7.319   7.821  10.926 -0.1121 -1.1366 -0.6875
  655MOL0     C88350   7.232   7.920  10.994 -0.1154  0.4489 -1.1719
  655MOL0     C88351   7.140   7.983  10.890  0.6822  0.1405  0.6246
  655MOL0     C88352   7.209   8.073  10.794 -0.3528  0.5029 -0.5636
  655MOL0     C88353   7.140   8.053  10.648 -0.7858  0.4605 -0.0052
  655MOL0     C88354   7.180   8.158  10.553  0.1004  0.3765  0.1574
  655MOL0     C88355   7.205   8.244  10.479 -0.3336  0.4973  0.3003
  655MOL0     C88356   7.456   7.787  11.121  1.2857 -0.1917 -0.8024
  655MOL0     C88357   7.585   7.764  11.181 -0.1956 -0.3398  0.1401
  655MOL0     H88358   7.940   7.486  11.315  1.6867 -1.5661  3.0979
  655MOL0     H88359   8.162   7.428  11.404  1.4087  0.4358 -2.0125
  655MOL0     H88360   8.412   7.636  11.714  2.6004 -3.6451  3.2169
  655MOL0     H88361   8.246   7.569  11.732  0.2549  0.6526  0.5697
  655MOL0     H88362   8.505   7.417  11.647  0.3484  1.9190  1.7251
  655MOL0     H88363   8.444   7.439  11.812 -1.2668 -1.1700  0.8668
  655MOL0     H88364   8.259   7.303  11.766  3.0176 -1.3070  3.3732
  655MOL0     H88365   8.272   7.344  11.595  1.0878  0.0032 -0.3342
  655MOL0     H88366   8.492   7.179  11.616 -2.2178 -0.7476 -3.4120
  655MOL0     H88367   8.413   7.142  11.767 -0.0929 -0.8525 -1.3285
  655MOL0     H88368   8.209   7.076  11.648  1.8816 -0.3951  2.5533
  655MOL0     H88369   8.265   7.120  11.490  1.1284  1.4979 -0.6953
  655MOL0     H88370   8.431   6.927  11.507  0.0816  1.9800  0.5667
  655MOL0     H88371   8.405   6.911  11.676  3.5648  1.6881 -1.1464
  655MOL0     H88372   8.188   6.855  11.478  1.0785 -0.1395 -0.3605
  655MOL0     H88373   8.288   6.731  11.549  1.3333  0.9758 -1.7347
  655MOL0     H88374   8.161   6.906  11.762  0.9503  3.2510 -2.5593
  655MOL0     H88375   8.216   6.745  11.768 -0.7191  1.1729 -0.1583
  655MOL0     H88376   7.929   6.892  11.517 -2.6706 -0.7718 -1.0343
  655MOL0     H88377   7.675   6.809  11.501  0.4966  1.6733 -0.0322
  655MOL0     H88378   7.631   6.665  11.601 -1.4812  1.3334 -2.5735
  655MOL0     H88379   7.610   6.966  11.644 -0.1757 -0.0534 -0.6642
  655MOL0     H88380   7.662   6.874  11.786 -1.2736  0.8877  0.5846
  655MOL0     H88381   7.452   6.721  11.728 -1.8348 -0.0500 -1.0657
  655MOL0     H88382   7.403   6.853  11.612  2.0615  2.7971 -1.1305
  655MOL0     H88383   7.458   6.877  11.903 -0.0800 -0.6356  0.9579
  655MOL0     H88384   7.302   6.843  11.834 -1.0459  0.9388 -0.3865
  655MOL0     H88385   7.448   7.029  12.039  1.2715 -0.8064 -0.5358
  655MOL0     H88386   7.554   7.115  12.220 -1.9391  0.2101  0.2809
  655MOL0     H88387   7.677   7.236  12.163 -0.2348  0.4857 -0.0989
  655MOL0     H88388   7.532   7.276  12.266  1.9534 -0.8039  0.9872
  655MOL0     H88389   7.500   7.801  11.864 -0.9552  1.7029 -0.6595
  655MOL0     H88390   7.622   8.019  11.905 -0.4275 -0.7664 -1.3704
  655MOL0     H88391   7.845   8.087  12.306  4.3604 -2.3729 -0.6867
  655MOL0     H88392   7.915   8.054  12.157  1.6925  0.9710  2.8099
  655MOL0     H88393   7.776   8.305  12.246  1.2483 -0.1310  0.7951
  655MOL0     H88394   7.951   8.279  12.259 -1.1480 -1.5433  2.9639
  655MOL0     H88395   7.796   8.278  11.993  0.0337 -0.5839 -0.5113
  655MOL0     H88396   7.968   8.259  12.017 -1.4065 -4.9195  4.9072
  655MOL0     H88397   7.797   8.503  12.107  0.9304 -0.2871  1.3015
  655MOL0     H88398   7.965   8.491  12.144  1.6911  0.6479 -1.4728
  655MOL0     H88399   7.820   8.528  11.882 -1.2965 -2.8988  1.1548
  655MOL0     H88400   7.984   8.470  11.869  0.5024  3.9532 -1.7480
  655MOL0     H88401   7.911   8.724  12.014 -0.4245 -1.7685  0.7470
  655MOL0     H88402   8.074   8.671  11.963  0.0929  0.4352  2.2831
  655MOL0     H88403   7.940   8.663  11.718 -1.1337  1.1803 -0.7255
  655MOL0     H88404   8.037   8.801  11.767 -0.6097  1.8389  0.4340
  655MOL0     H88405   7.813   8.882  11.698 -1.5901 -0.4603  0.4767
  655MOL0     H88406   7.863   8.926  11.856 -1.6026 -0.0242  0.7120
  655MOL0     H88407   7.702   7.879  12.300 -0.5005  0.2219  0.3519
  655MOL0     H88408   7.615   7.659  12.248 -5.6427  1.6911  1.2219
  655MOL0     H88409   7.402   7.466  11.818  0.8366  1.0562  0.4371
  655MOL0     H88410   7.334   7.251  11.697  0.4692  0.4024 -0.0654
  655MOL0     H88411   8.201   7.835  11.536 -1.5248 -1.7587  3.4426
  655MOL0     H88412   8.002   7.895  11.408 -0.6865 -0.2592 -0.5456
  655MOL0     H88413   7.746   7.690  10.879  2.3073  0.8748  3.1732
  655MOL0     H88414   7.507   7.758  10.796 -2.5395 -0.7531  1.0097
  655MOL0     H88415   7.165   7.861  11.055 -0.6136 -0.7898 -2.8426
  655MOL0     H88416   7.283   8.006  11.038 -2.7978  2.4221 -1.7040
  655MOL0     H88417   7.063   8.047  10.936  1.6508  0.9189  1.2034
  655MOL0     H88418   7.099   7.895  10.839 -0.3067  0.5400  0.7022
  655MOL0     H88419   7.310   8.035  10.780 -1.0064 -0.7290 -2.3729
  655MOL0     H88420   7.205   8.179  10.817 -1.0621  1.5644 -4.7638
  655MOL0     H88421   7.032   8.037  10.654 -0.6181 -1.2900 -1.1519
  655MOL0     H88422   7.168   7.952  10.616 -0.5457  0.4940  0.0921
  655MOL0     H88423   7.213   8.326  10.411  0.0846 -0.9696 -1.5080
  655MOL0     H88424   7.375   7.811  11.189  0.0011 -3.2600 -1.1039
  655MOL0     H88425   7.610   7.767  11.286  2.6268 -4.2059 -0.1974
  656MOL0     O88426  10.929   6.917   4.706 -0.2853  0.0922  0.4364
  656MOL0     C88427  10.961   6.824   4.628  0.3468 -0.3886 -0.3807
  656MOL0     O88428  10.883   6.752   4.545 -0.2925  0.2680 -0.0022
  656MOL0     C88429  10.747   6.750   4.546 -0.1415  0.6400 -0.0313
  656MOL0     C88430  10.672   6.732   4.426  0.5956  0.6566  0.0122
  656MOL0     C88431  10.533   6.735   4.436 -0.0585 -0.4506 -0.2621
  656MOL0     C88432  10.464   6.760   4.562 -0.7070  1.1014  0.4600
  656MOL0     O88433  10.327   6.757   4.553  0.4609  1.2264 -0.3355
  656MOL0     C88434  10.246   6.787   4.667  0.7431  0.5019  0.3076
  656MOL0     C88435  10.097   6.791   4.629  0.3143 -0.0200 -0.8435
  656MOL0     C88436   9.996   6.714   4.712 -0.0314  0.2160 -1.3963
  656MOL0     C88437  10.002   6.568   4.673 -0.1810 -0.0715  0.4588
  656MOL0     C88438   9.919   6.496   4.773 -0.2631  0.1385  0.5149
  656MOL0     C88439   9.898   6.350   4.721  0.0201  0.5753  0.4312
  656MOL0     C88440   9.823   6.261   4.817 -0.1725 -0.0791 -0.7070
  656MOL0     C88441   9.748   6.143   4.754 -0.3869 -0.5436  0.5126
  656MOL0     N88442   9.839   6.026   4.750  1.1715 -0.6311  0.3009
  656MOL0     C88443   9.812   5.911   4.819 -0.6485  0.1204 -0.0796
  656MOL0     C88444   9.903   5.831   4.764 -1.5976 -0.4210 -0.5362
  656MOL0     C88445   9.923   5.688   4.810  0.2518  0.3183 -0.8764
  656MOL0     C88446   9.830   5.580   4.759  0.1397 -0.7835  0.5143
  656MOL0     C88447   9.850   5.549   4.610 -0.0203  0.5251  0.0795
  656MOL0     C88448   9.747   5.441   4.575  0.4565 -0.7307  0.6151
  656MOL0     O88449   9.646   5.516   4.527  0.8944 -0.5918 -0.1039
  656MOL0     C88450   9.523   5.458   4.505 -0.0627  0.3307 -0.0113
  656MOL0     C88451   9.474   5.345   4.576  0.2415 -0.1364 -0.6358
  656MOL0     C88452   9.349   5.287   4.538 -0.5485  0.4937 -0.1122
  656MOL0     C88453   9.323   5.157   4.597 -0.8368  0.7723  0.7512
  656MOL0     C88454   9.263   5.343   4.431  0.0600  0.3926  0.2791
  656MOL0     C88455   9.127   5.294   4.389  0.0790  0.9822 -0.1843
  656MOL0     O88456   9.061   5.361   4.292 -0.3798  0.2467  0.2541
  656MOL0     C88457   8.938   5.308   4.263  0.9658 -0.5125  0.8026
  656MOL0     C88458   8.912   5.253   4.138  0.4764 -0.2991  0.0693
  656MOL0     C88459   8.786   5.199   4.103  0.3447  0.0081 -0.3710
  656MOL0     C88460   8.681   5.227   4.189  1.1011  0.9491  0.2750
  656MOL0     O88461   8.549   5.194   4.150 -0.6905  0.8389  0.0973
  656MOL0     C88462   8.471   5.310   4.147  0.1146 -0.3306  0.3549
  656MOL0     C88463   8.349   5.276   4.061  0.7155 -0.4686  0.8712
  656MOL0     C88464   8.229   5.371   4.091  0.0511  0.0987 -0.4223
  656MOL0     C88465   8.109   5.316   4.014  0.3445 -0.1382  1.7197
  656MOL0     C88466   7.988   5.405   4.060  0.2134  0.3457 -0.4415
  656MOL0     C88467   7.849   5.344   4.023  0.2947 -0.4383 -0.4771
  656MOL0     C88468   7.737   5.446   4.015  0.1747  0.1861 -1.5559
  656MOL0     C88469   7.720   5.519   4.150  0.0640 -0.4628 -0.3873
  656MOL0    Cl88470   7.669   5.402   4.275 -0.3724  0.1324  0.1303
  656MOL0     C88471   8.703   5.292   4.316  0.2737 -0.4539 -0.7747
  656MOL0     C88472   8.833   5.320   4.358 -0.8246  0.0896  0.1064
  656MOL0     O88473   9.077   5.205   4.458 -0.3505 -0.0273  0.7532
  656MOL0     C88474   9.308   5.470   4.382  0.1439 -0.0807  0.1953
  656MOL0     C88475   9.434   5.526   4.416  0.3605 -0.4838 -0.6011
  656MOL0     N88476   9.996   5.890   4.681 -0.2108 -0.1688  0.0739
  656MOL0     N88477   9.945   6.009   4.664 -0.6724 -0.3110  0.2609
  656MOL0     C88478  10.536   6.757   4.678  0.8235 -0.1003  0.3527
  656MOL0     C88479  10.675   6.760   4.669  0.5560  0.7572  1.3036
  656MOL0     C88480  11.107   6.781   4.617  0.4431 -0.1655  0.5717
  656MOL0     C88481  11.148   6.691   4.516  0.0351  1.2012  1.1291
  656MOL0     C88482  11.278   6.637   4.505  0.3869  0.5021  0.1239
  656MOL0     C88483  11.375   6.671   4.595 -0.1236 -0.5544 -0.0194
  656MOL0     O88484  11.506   6.627   4.579  0.7851 -0.1722  0.6644
  656MOL0     C88485  11.532   6.525   4.483 -0.8925 -0.2423 -0.0010
  656MOL0     C88486  11.680   6.479   4.479 -0.3520 -0.7149 -0.9633
  656MOL0     C88487  11.778   6.589   4.464  1.2368  0.8418 -0.2994
  656MOL0     C88488  11.728   6.692   4.360  0.0407 -0.2674 -0.7030
  656MOL0     C88489  11.849   6.777   4.348  0.3607  0.3883  0.1829
  656MOL0     C88490  11.951   6.844   4.349 -0.8074 -0.2122 -0.3928
  656MOL0     C88491  11.341   6.767   4.702 -0.6616  0.9455 -0.2647
  656MOL0     C88492  11.210   6.817   4.711 -0.7675 -0.1222 -0.9677
  656MOL0     H88493  10.732   6.711   4.339 -0.6751  0.2992 -0.7995
  656MOL0     H88494  10.483   6.735   4.339  0.4262  0.2394 -0.5130
  656MOL0     H88495  10.252   6.707   4.741  0.7965  1.3789  1.2682
  656MOL0     H88496  10.277   6.881   4.713 -1.4040  3.0710 -3.0429
  656MOL0     H88497  10.069   6.897   4.631  0.6968  0.0787  0.9322
  656MOL0     H88498  10.092   6.760   4.524  0.2423 -0.5328 -0.6864
  656MOL0     H88499  10.012   6.723   4.820 -1.6883 -0.5351 -1.0694
  656MOL0     H88500   9.893   6.749   4.709 -1.0144 -2.2086  0.6309
  656MOL0     H88501   9.959   6.549   4.574 -0.8095 -4.6520  1.3869
  656MOL0     H88502  10.103   6.528   4.672 -0.1736 -0.1015 -1.4212
  656MOL0     H88503   9.957   6.500   4.875 -0.5390 -1.3596  0.6932
  656MOL0     H88504   9.816   6.530   4.787 -0.0747  1.0295 -0.1206
  656MOL0     H88505   9.839   6.365   4.630 -0.5388  0.2507  0.7362
  656MOL0     H88506   9.993   6.301   4.698  0.8393  0.3625  3.7290
  656MOL0     H88507   9.889   6.223   4.895 -0.1772 -1.0162 -1.1406
  656MOL0     H88508   9.743   6.321   4.863 -0.6370 -0.9267 -0.3760
  656MOL0     H88509   9.705   6.169   4.656 -1.6824  2.6264  1.7659
  656MOL0     H88510   9.667   6.120   4.823 -1.0204 -0.3091 -0.1311
  656MOL0     H88511   9.735   5.892   4.893 -2.7136 -1.5226 -2.4652
  656MOL0     H88512  10.027   5.662   4.789  0.2369 -0.1027 -0.4498
  656MOL0     H88513   9.911   5.682   4.919 -3.0510  0.2844 -1.1351
  656MOL0     H88514   9.729   5.615   4.782  1.3378  1.5229  2.7049
  656MOL0     H88515   9.850   5.486   4.812 -0.8268 -0.9545  0.5984
  656MOL0     H88516   9.948   5.505   4.588 -0.4123 -0.3873  0.1201
  656MOL0     H88517   9.853   5.642   4.553  2.6065  1.2262  1.1993
  656MOL0     H88518   9.704   5.383   4.657 -3.0991  0.2938 -0.3514
  656MOL0     H88519   9.802   5.377   4.505  0.1938 -0.4182  0.1171
  656MOL0     H88520   9.530   5.299   4.656  1.7542  2.2973 -0.2106
  656MOL0     H88521   9.360   5.074   4.537 -2.2530  1.0310 -0.5530
  656MOL0     H88522   9.389   5.158   4.684 -0.4135 -0.6277  0.4599
  656MOL0     H88523   9.220   5.138   4.629 -1.0627  1.1921  0.2835
  656MOL0     H88524   8.999   5.233   4.076  0.8889 -2.3564  1.2308
  656MOL0     H88525   8.764   5.152   4.008 -0.0534  1.2876 -0.9350
  656MOL0     H88526   8.456   5.360   4.243  2.2854  0.6257  0.2492
  656MOL0     H88527   8.527   5.389   4.097 -2.2224  1.4462  0.3639
  656MOL0     H88528   8.373   5.291   3.955  1.6039 -1.4069  0.9296
  656MOL0     H88529   8.322   5.172   4.079  1.3687 -1.2561 -2.0871
  656MOL0     H88530   8.256   5.470   4.051  1.1974  0.5704  1.4060
  656MOL0     H88531   8.205   5.373   4.198  2.0119 -1.4315  0.0979
  656MOL0     H88532   8.124   5.307   3.906  1.6155 -2.4867  2.0148
  656MOL0     H88533   8.090   5.215   4.053 -0.7696 -0.5151  0.3209
  656MOL0     H88534   8.001   5.502   4.011 -0.6198 -0.3126 -2.0386
  656MOL0     H88535   7.993   5.411   4.170  2.1629  0.1859 -0.4896
  656MOL0     H88536   7.849   5.280   3.934 -0.7464 -1.9283  0.5451
  656MOL0     H88537   7.829   5.272   4.102 -3.1657  3.0584  2.2403
  656MOL0     H88538   7.639   5.409   3.984  0.5318 -1.1908 -1.1265
  656MOL0     H88539   7.761   5.517   3.936 -3.3198  3.5197  0.0618
  656MOL0     H88540   7.634   5.585   4.136 -1.1403 -1.4988  1.6853
  656MOL0     H88541   7.818   5.563   4.171  1.3867 -3.0475 -0.6901
  656MOL0     H88542   8.617   5.310   4.379 -0.4058  1.7000 -2.1966
  656MOL0     H88543   8.850   5.370   4.453  0.5788  2.5634 -1.3396
  656MOL0     H88544   9.240   5.530   4.321 -1.7669 -0.2815  2.0245
  656MOL0     H88545   9.457   5.618   4.364 -3.4601 -0.3465 -2.4398
  656MOL0     H88546  10.490   6.761   4.776 -1.0035  0.7613 -0.4987
  656MOL0     H88547  10.735   6.756   4.759 -1.6929  0.8136  2.8958
  656MOL0     H88548  11.066   6.660   4.452 -1.0111  1.0268  2.5069
  656MOL0     H88549  11.299   6.582   4.413 -2.4761  2.0797 -1.6122
  656MOL0     H88550  11.469   6.436   4.493  1.3996 -2.1436 -1.5166
  656MOL0     H88551  11.513   6.571   4.385  0.8245 -1.9572 -1.1918
  656MOL0     H88552  11.705   6.407   4.401  1.6425 -3.6071  2.0533
  656MOL0     H88553  11.704   6.426   4.572  0.6369  2.2066  0.5854
  656MOL0     H88554  11.875   6.550   4.431  1.3912  0.9752 -0.0084
  656MOL0     H88555  11.805   6.633   4.560 -0.1939 -3.1250  2.1295
  656MOL0     H88556  11.644   6.761   4.374 -0.1183  0.0420 -2.8079
  656MOL0     H88557  11.710   6.654   4.259  3.5193 -1.3364 -1.0412
  656MOL0     H88558  12.046   6.890   4.331 -1.6605  0.5824 -3.5127
  656MOL0     H88559  11.429   6.792   4.760 -0.0508  0.1011 -0.8014
  656MOL0     H88560  11.203   6.880   4.799  0.8678 -2.2891  0.8390
  657MOL0     O88561   5.002  11.179   0.900 -0.3408  0.3266  0.0167
  657MOL0     C88562   4.961  11.290   0.929  0.0354 -0.6131 -0.0783
  657MOL0     O88563   4.940  11.344   1.052 -1.2252  0.8801  0.4299
  657MOL0     C88564   4.918  11.267   1.166  0.5283 -0.4819  0.2150
  657MOL0     C88565   4.976  11.147   1.207 -0.5637  0.6862 -0.0535
  657MOL0     C88566   4.957  11.092   1.331 -0.5590  0.7410  0.2070
  657MOL0     C88567   4.888  11.154   1.429 -1.3291  0.7581  0.5489
  657MOL0     O88568   4.895  11.090   1.548  0.2481 -0.1963 -0.2349
  657MOL0     C88569   4.790  11.137   1.640 -0.8854 -0.8599  0.8101
  657MOL0     C88570   4.788  11.034   1.756 -0.1215  1.0203 -0.1442
  657MOL0     C88571   4.720  10.898   1.727  0.2706 -0.2586 -0.1700
  657MOL0     C88572   4.758  10.794   1.833 -1.0423 -0.3155  0.4533
  657MOL0     C88573   4.751  10.838   1.983  0.1544 -0.4982  0.0714
  657MOL0     C88574   4.604  10.876   2.030 -0.4298 -0.4422 -0.3797
  657MOL0     C88575   4.600  10.914   2.175  0.1548  0.7380 -0.0643
  657MOL0     C88576   4.463  10.950   2.228  0.7771 -0.0686 -0.2560
  657MOL0     N88577   4.450  10.920   2.371  0.2359  0.3006 -0.9322
  657MOL0     C88578   4.360  10.828   2.417  0.0878  0.5589 -0.4333
  657MOL0     C88579   4.399  10.816   2.551  0.4942 -0.3028 -0.0360
  657MOL0     C88580   4.345  10.714   2.650  0.4764  0.2721  0.0483
  657MOL0     C88581   4.230  10.761   2.735  0.0380  0.3325  0.5603
  657MOL0     C88582   4.118  10.830   2.645  0.4352  0.1774  0.3387
  657MOL0     C88583   3.981  10.803   2.701 -0.0975  1.0610 -0.6789
  657MOL0     O88584   3.879  10.869   2.628  0.7304 -0.0146  0.6776
  657MOL0     C88585   3.761  10.861   2.696 -0.2290  0.6777 -0.6848
  657MOL0     C88586   3.724  10.973   2.771  0.7800  0.3784  0.7185
  657MOL0     C88587   3.621  10.974   2.855  0.5336  0.0113 -0.1669
  657MOL0     C88588   3.613  11.092   2.955  0.0841 -0.7892 -0.7048
  657MOL0     C88589   3.527  10.859   2.858 -0.0906 -0.4900 -0.6352
  657MOL0     C88590   3.391  10.861   2.936  0.4150  0.5025 -0.0038
  657MOL0     O88591   3.352  10.744   2.971 -0.4716  0.5416 -0.1486
  657MOL0     C88592   3.231  10.739   3.026  0.2781  0.0600 -0.1170
  657MOL0     C88593   3.222  10.673   3.150  0.4539 -0.0547 -0.3015
  657MOL0     C88594   3.093  10.640   3.196 -0.0753 -0.1741  0.8766
  657MOL0     C88595   2.978  10.677   3.122  0.2392 -0.1908  0.6022
  657MOL0     O88596   2.852  10.645   3.170  0.0896 -0.1986 -0.0040
  657MOL0     C88597   2.754  10.744   3.175  0.4405  0.0260  0.4586
  657MOL0     C88598   2.793  10.853   3.272 -0.0068  0.0006  0.3989
  657MOL0     C88599   2.823  10.809   3.420  0.6092 -0.4264  0.1460
  657MOL0     C88600   2.712  10.719   3.469 -0.1348 -0.5177 -0.2612
  657MOL0     C88601   2.714  10.714   3.617 -0.2721  1.0025  0.4565
  657MOL0     C88602   2.619  10.615   3.669  0.7089  0.3779 -0.0020
  657MOL0     C88603   2.468  10.665   3.649  0.5240 -0.3531  0.7383
  657MOL0     C88604   2.377  10.574   3.730 -0.5815 -0.2515  1.3241
  657MOL0    Cl88605   2.239  10.654   3.794 -0.2425 -0.1575  0.0958
  657MOL0     C88606   2.992  10.746   3.001  0.1848  0.6458 -0.0040
  657MOL0     C88607   3.118  10.783   2.952  0.5910  0.1786 -0.1927
  657MOL0     O88608   3.334  10.970   2.953  0.6658  0.2304 -0.0870
  657MOL0     C88609   3.566  10.747   2.784 -0.2907 -0.1925 -0.1974
  657MOL0     C88610   3.682  10.741   2.711 -0.8388  0.5973 -0.2971
  657MOL0     N88611   4.499  10.904   2.582 -0.7625  0.1343 -0.0965
  657MOL0     N88612   4.538  10.958   2.469 -0.1857  0.2077  0.2620
  657MOL0     C88613   4.822  11.272   1.388 -0.1477  0.6248 -1.2444
  657MOL0     C88614   4.846  11.331   1.268  0.2547  0.8974  0.4109
  657MOL0     C88615   4.955  11.390   0.819 -0.6249 -0.2762 -0.4089
  657MOL0     C88616   5.025  11.358   0.700 -0.3810 -0.0832 -0.5469
  657MOL0     C88617   5.021  11.443   0.594 -0.2166  0.1956 -0.4164
  657MOL0     C88618   4.939  11.566   0.594 -0.5764  0.4541 -0.2110
  657MOL0     O88619   4.923  11.640   0.483 -0.2072 -0.8698  0.0780
  657MOL0     C88620   4.893  11.583   0.353 -0.7988 -0.8604 -0.3282
  657MOL0     C88621   4.861  11.693   0.246  1.5565  1.1053  0.2756
  657MOL0     C88622   4.985  11.758   0.185 -0.7823 -0.3459  0.2179
  657MOL0     C88623   4.960  11.876   0.080 -0.3924  0.0945 -0.3789
  657MOL0     C88624   5.071  11.890  -0.018 -0.2162  0.0697  0.3164
  657MOL0     C88625   5.152  11.913  -0.100 -1.0324 -0.3798 -0.4528
  657MOL0     C88626   4.889  11.597   0.723  0.2389 -0.0501 -0.1783
  657MOL0     C88627   4.906  11.516   0.837 -0.5721 -1.3830  0.5100
  657MOL0     H88628   5.039  11.106   1.129 -1.0161 -1.3047  0.5585
  657MOL0     H88629   5.005  10.999   1.363 -0.4158  0.7151 -0.0780
  657MOL0     H88630   4.812  11.236   1.681 -1.0126 -0.5920  0.2376
  657MOL0     H88631   4.693  11.135   1.590  0.5910  1.2293 -2.3864
  657MOL0     H88632   4.886  11.013   1.799 -0.2190 -0.2498 -0.5054
  657MOL0     H88633   4.726  11.081   1.834 -0.7396 -2.8642  1.9374
  657MOL0     H88634   4.614  10.925   1.726 -0.6834 -3.4854 -1.9548
  657MOL0     H88635   4.744  10.844   1.634 -0.3187 -1.2326  0.2225
  657MOL0     H88636   4.712  10.696   1.820 -0.1084 -0.4566 -2.9501
  657MOL0     H88637   4.865  10.773   1.819 -0.2630  1.8250  2.5889
  657MOL0     H88638   4.786  10.748   2.036  0.3122 -0.9871 -0.8393
  657MOL0     H88639   4.823  10.915   2.010  0.1431 -0.6128  0.4307
  657MOL0     H88640   4.587  10.965   1.968 -0.3768  0.1182  0.3877
  657MOL0     H88641   4.528  10.805   1.997 -1.8353  0.9090 -0.2088
  657MOL0     H88642   4.629  10.831   2.241 -5.0336 -0.9828  0.4961
  657MOL0     H88643   4.672  10.995   2.191  3.0056 -1.4599 -0.7960
  657MOL0     H88644   4.383  10.898   2.175 -0.0542  1.9963 -1.1214
  657MOL0     H88645   4.446  11.058   2.223  0.5436 -0.0423  0.8733
  657MOL0     H88646   4.289  10.766   2.362 -0.1928  0.3169  0.1987
  657MOL0     H88647   4.322  10.622   2.596  0.2421  0.8760 -0.9042
  657MOL0     H88648   4.427  10.680   2.714  0.3783 -2.4006 -1.0877
  657MOL0     H88649   4.267  10.827   2.814  1.1595 -1.9563  2.0706
  657MOL0     H88650   4.178  10.676   2.780  0.2040 -1.7692 -2.7958
  657MOL0     H88651   4.121  10.807   2.538  1.3408  0.6594  0.2542
  657MOL0     H88652   4.130  10.937   2.661  1.1197  0.3407 -1.1073
  657MOL0     H88653   3.981  10.830   2.807 -2.3469  1.1311 -0.6369
  657MOL0     H88654   3.958  10.696   2.700  3.0811  0.2761 -0.6805
  657MOL0     H88655   3.785  11.062   2.766 -0.1842  1.0066 -0.3992
  657MOL0     H88656   3.713  11.119   2.992  0.0511  1.9541 -2.3771
  657MOL0     H88657   3.570  11.174   2.897  1.6044 -1.4741 -2.9353
  657MOL0     H88658   3.553  11.062   3.041 -0.6591  0.6736 -0.6870
  657MOL0     H88659   3.311  10.640   3.203  1.1684  2.4844  0.1901
  657MOL0     H88660   3.079  10.581   3.287  1.8498 -1.5402  0.3424
  657MOL0     H88661   2.728  10.777   3.075  0.4970 -2.7981 -0.5944
  657MOL0     H88662   2.663  10.692   3.207 -0.5729  1.2514 -0.3560
  657MOL0     H88663   2.860  10.916   3.213 -2.5152  2.7589  0.3031
  657MOL0     H88664   2.701  10.913   3.273  0.6591  1.0706 -0.6263
  657MOL0     H88665   2.821  10.905   3.472  2.5510 -0.8717  1.1643
  657MOL0     H88666   2.921  10.759   3.415  0.1845 -1.2564 -0.0110
  657MOL0     H88667   2.616  10.766   3.448 -0.3197 -0.8821 -0.2211
  657MOL0     H88668   2.718  10.624   3.414 -2.4338 -0.2693 -1.0428
  657MOL0     H88669   2.693  10.817   3.647 -1.0556  1.2793 -0.9605
  657MOL0     H88670   2.817  10.694   3.648  0.0769 -2.9650 -2.5014
  657MOL0     H88671   2.620  10.516   3.622  1.2664  0.2941  0.1804
  657MOL0     H88672   2.637  10.600   3.775 -1.2796  0.5653  0.4100
  657MOL0     H88673   2.439  10.662   3.544  3.2000  1.4059 -0.1552
  657MOL0     H88674   2.449  10.764   3.691  3.9373  0.4449  0.6961
  657MOL0     H88675   2.420  10.524   3.817  0.1221 -3.6720 -0.7976
  657MOL0     H88676   2.339  10.499   3.660  3.7497 -0.5778 -1.0402
  657MOL0     H88677   2.903  10.775   2.946  0.9972  0.9354 -1.2243
  657MOL0     H88678   3.121  10.839   2.859 -2.2637 -0.5106 -0.7993
  657MOL0     H88679   3.510  10.654   2.788 -0.8516 -0.1159 -3.3752
  657MOL0     H88680   3.709  10.656   2.649 -3.7823 -0.5114 -0.2017
  657MOL0     H88681   4.773  11.330   1.465  0.9326  0.2039 -0.1977
  657MOL0     H88682   4.812  11.434   1.260 -1.7057  0.1640 -2.1159
  657MOL0     H88683   5.073  11.266   0.667 -0.1644  0.7846 -2.8849
  657MOL0     H88684   5.073  11.407   0.505  1.8368  4.8558 -1.4041
  657MOL0     H88685   4.983  11.528   0.322  0.4485 -1.1367  3.2823
  657MOL0     H88686   4.814  11.510   0.369 -1.2509 -0.1895  0.6173
  657MOL0     H88687   4.802  11.774   0.289 -0.1731 -0.5460  1.1678
  657MOL0     H88688   4.808  11.642   0.165  1.6865  0.2821  0.6923
  657MOL0     H88689   5.037  11.679   0.130 -2.8638 -1.8417  0.2775
  657MOL0     H88690   5.055  11.794   0.261 -0.2014  1.0881 -0.9560
  657MOL0     H88691   4.939  11.976   0.120  3.3874  0.0018  2.3899
  657MOL0     H88692   4.875  11.848   0.017  1.2862  0.7109 -3.0486
  657MOL0     H88693   5.228  11.934  -0.173 -1.6709  2.3337 -0.4571
  657MOL0     H88694   4.836  11.692   0.729 -0.0101 -0.2180  0.3306
  657MOL0     H88695   4.866  11.550   0.932 -3.3993 -1.4591 -0.5581
  658MOL0     O88696   5.154   3.557   6.508 -0.3305 -0.4026  0.1391
  658MOL0     C88697   5.232   3.539   6.604  0.6063  1.2923  0.4208
  658MOL0     O88698   5.198   3.472   6.715  0.1018  0.2844 -0.6917
  658MOL0     C88699   5.072   3.418   6.741  0.9655 -0.1213 -0.2000
  658MOL0     C88700   5.079   3.302   6.820 -0.8966 -0.9711  0.1696
  658MOL0     C88701   4.964   3.250   6.870 -0.2497 -0.6521 -0.2197
  658MOL0     C88702   4.834   3.305   6.859  0.1141  0.1017 -0.0601
  658MOL0     O88703   4.724   3.251   6.914  0.5329 -0.4848 -0.1067
  658MOL0     C88704   4.594   3.244   6.851 -0.4428 -0.6498  0.0758
  658MOL0     C88705   4.540   3.097   6.833 -0.1414 -0.1359  1.1172
  658MOL0     C88706   4.390   3.093   6.811  0.1720 -0.3893  0.8451
  658MOL0     C88707   4.325   2.954   6.836  0.5553  0.3487  0.1940
  658MOL0     C88708   4.181   2.959   6.787 -0.9218  1.4925 -0.5712
  658MOL0     C88709   4.183   2.906   6.645  0.6336 -0.0693 -0.9948
  658MOL0     C88710   4.044   2.914   6.571  0.2479  0.0331 -0.0305
  658MOL0     C88711   3.960   3.046   6.578 -0.8268  0.4085 -0.8744
  658MOL0     N88712   3.859   3.049   6.470 -0.0026 -0.1797  0.6794
  658MOL0     C88713   3.898   3.026   6.333 -0.0586  0.3526 -0.5891
  658MOL0     C88714   3.784   3.057   6.263  0.0482  0.2147  0.3229
  658MOL0     C88715   3.766   3.056   6.113 -0.7476  0.7008 -0.1033
  658MOL0     C88716   3.678   3.166   6.060  0.1490  0.2142  0.7568
  658MOL0     C88717   3.531   3.124   6.066  1.0896  0.0681  0.6072
  658MOL0     C88718   3.439   3.236   6.004 -0.2288 -0.8276  0.1952
  658MOL0     O88719   3.471   3.268   5.869 -0.3089 -0.7116  0.2887
  658MOL0     C88720   3.368   3.324   5.798 -0.6391 -0.7913  0.0620
  658MOL0     C88721   3.405   3.359   5.666 -0.6440 -0.1968  0.4224
  658MOL0     C88722   3.317   3.410   5.573 -0.2680 -0.9076 -0.0157
  658MOL0     C88723   3.370   3.462   5.444 -0.7163 -0.2680  0.3859
  658MOL0     C88724   3.187   3.441   5.613 -0.1041  0.0808  0.8188
  658MOL0     C88725   3.083   3.496   5.523  0.4653  0.6211 -0.4779
  658MOL0     O88726   2.949   3.450   5.543  0.5349  0.5276  0.1328
  658MOL0     C88727   2.850   3.506   5.472  0.3906 -0.2138  0.7147
  658MOL0     C88728   2.732   3.436   5.446 -0.6675 -0.4566  0.7608
  658MOL0     C88729   2.620   3.498   5.394  0.4634 -1.4001  0.2230
  658MOL0     C88730   2.632   3.626   5.341  0.5823 -0.4320 -0.3784
  658MOL0     O88731   2.522   3.702   5.300  0.2875  0.3458 -0.5606
  658MOL0     C88732   2.387   3.668   5.340 -0.6501  1.2889 -0.5096
  658MOL0     C88733   2.291   3.778   5.285 -0.0506  0.4067 -0.1365
  658MOL0     C88734   2.156   3.777   5.354 -0.2243 -1.0896 -0.9111
  658MOL0     C88735   2.168   3.774   5.514  0.0297  0.1290 -0.6877
  658MOL0     C88736   2.031   3.785   5.584 -0.0957  0.1502  1.4514
  658MOL0     C88737   1.973   3.937   5.581 -0.1619  0.4459 -0.4717
  658MOL0     C88738   2.036   4.029   5.687 -0.6442  0.6358  0.4352
  658MOL0     C88739   1.993   4.000   5.833  0.3422  0.6933  0.0499
  658MOL0    Cl88740   2.025   4.150   5.924 -0.0066  0.3343  0.4637
  658MOL0     C88741   2.742   3.704   5.365 -0.0044  0.4700  0.3134
  658MOL0     C88742   2.852   3.648   5.427 -0.6548  0.9638 -0.0886
  658MOL0     O88743   3.125   3.574   5.438  0.2271 -0.0277  0.8290
  658MOL0     C88744   3.145   3.420   5.752 -0.4793 -0.8227 -0.8139
  658MOL0     C88745   3.240   3.367   5.845 -0.4487  0.4206 -0.5023
  658MOL0     N88746   3.683   3.103   6.356  0.1343 -0.5188  0.1022
  658MOL0     N88747   3.735   3.099   6.472  0.8349  0.3033 -0.4464
  658MOL0     C88748   4.826   3.414   6.767  0.7707 -0.0010 -0.2819
  658MOL0     C88749   4.941   3.471   6.708  1.1889 -0.1733  0.2484
  658MOL0     C88750   5.366   3.603   6.603 -0.4097 -0.4813 -0.6638
  658MOL0     C88751   5.429   3.620   6.727 -0.6727  0.4092 -0.6150
  658MOL0     C88752   5.555   3.672   6.739  0.0240  0.3365  0.2200
  658MOL0     C88753   5.634   3.701   6.624 -0.0988  0.3887 -0.4748
  658MOL0     O88754   5.757   3.735   6.656 -0.8761  0.2252 -0.1164
  658MOL0     C88755   5.843   3.784   6.552 -0.4740  0.3025  0.0378
  658MOL0     C88756   5.845   3.940   6.531 -0.4385  0.2392 -1.0806
  658MOL0     C88757   5.973   4.012   6.583  0.1464  0.5750  0.8167
  658MOL0     C88758   5.991   4.160   6.541  0.1253  0.6611  0.3160
  658MOL0     C88759   5.893   4.252   6.594 -0.2041  0.7913  0.1354
  658MOL0     C88760   5.799   4.317   6.641  0.5739  0.4490  0.0970
  658MOL0     C88761   5.569   3.697   6.504  0.9622 -0.1648  0.3191
  658MOL0     C88762   5.442   3.633   6.492  0.8461 -0.4797  0.0457
  658MOL0     H88763   5.177   3.261   6.844  0.4641  1.7995 -0.2075
  658MOL0     H88764   4.972   3.158   6.928  0.8693 -1.2193 -1.2155
  658MOL0     H88765   4.526   3.301   6.916  1.0895 -0.2123  1.3644
  658MOL0     H88766   4.595   3.298   6.756  1.1934 -1.8476 -0.6358
  658MOL0     H88767   4.587   3.045   6.750 -0.7572 -0.0586  0.7113
  658MOL0     H88768   4.564   3.043   6.925  0.1524 -5.1202 -1.5739
  658MOL0     H88769   4.355   3.177   6.872 -0.8102 -0.0785 -0.1337
  658MOL0     H88770   4.374   3.132   6.710  1.0205  0.6568  1.0830
  658MOL0     H88771   4.380   2.875   6.783  0.0991 -0.1529  0.4546
  658MOL0     H88772   4.324   2.921   6.940 -3.5359 -3.0610 -0.6340
  658MOL0     H88773   4.119   2.890   6.845  1.6625 -2.0303 -1.7343
  658MOL0     H88774   4.136   3.058   6.801 -1.2448  1.3225 -0.3819
  658MOL0     H88775   4.259   2.956   6.584 -1.1443  2.1562 -1.5062
  658MOL0     H88776   4.218   2.802   6.647  0.9149  0.0262  0.3839
  658MOL0     H88777   4.070   2.893   6.467  1.1783  2.9754 -0.5067
  658MOL0     H88778   3.989   2.829   6.613  1.2159  0.7713  3.0749
  658MOL0     H88779   4.029   3.130   6.583  1.4992 -1.4652  1.2942
  658MOL0     H88780   3.902   3.049   6.671 -1.8255  3.4960 -1.4839
  658MOL0     H88781   3.995   2.995   6.297 -0.7353 -2.1380 -0.4908
  658MOL0     H88782   3.865   3.035   6.071 -0.5033 -0.9205  1.1675
  658MOL0     H88783   3.704   2.972   6.082 -0.9659  1.0569 -0.6456
  658MOL0     H88784   3.711   3.198   5.960  1.2106 -0.0069  1.0304
  658MOL0     H88785   3.691   3.248   6.131 -1.9721 -0.4552  2.0072
  658MOL0     H88786   3.506   3.111   6.172  2.7165 -0.6993  0.9175
  658MOL0     H88787   3.508   3.026   6.025  0.1265 -1.4918  4.3820
  658MOL0     H88788   3.452   3.322   6.071  2.3388  0.3193 -1.5927
  658MOL0     H88789   3.340   3.192   6.018 -0.8973 -0.3927 -2.5872
  658MOL0     H88790   3.505   3.332   5.634  1.0018  4.2772  1.1081
  658MOL0     H88791   3.375   3.572   5.444  1.3444 -0.3151 -0.7966
  658MOL0     H88792   3.474   3.430   5.437 -0.0022  1.8655  0.5686
  658MOL0     H88793   3.305   3.428   5.363 -1.5335 -1.4076  1.4884
  658MOL0     H88794   2.734   3.333   5.479 -0.3833 -0.0572  2.0597
  658MOL0     H88795   2.524   3.446   5.393  0.5473 -1.6599  2.0421
  658MOL0     H88796   2.353   3.572   5.298 -1.0965 -0.2141  2.9091
  658MOL0     H88797   2.385   3.638   5.446 -0.1052 -1.5370 -1.2132
  658MOL0     H88798   2.345   3.869   5.313 -4.6238  3.3852  0.0008
  658MOL0     H88799   2.276   3.781   5.177 -1.1336  3.4699  0.0039
  658MOL0     H88800   2.104   3.687   5.321 -3.9251  0.4750  0.2053
  658MOL0     H88801   2.085   3.857   5.329 -0.3502 -1.2627 -1.1075
  658MOL0     H88802   2.210   3.678   5.545  0.9958  1.0784  1.1213
  658MOL0     H88803   2.231   3.855   5.551 -0.7462  0.8178 -0.8573
  658MOL0     H88804   2.034   3.745   5.686 -0.1106  2.8256  2.5774
  658MOL0     H88805   1.960   3.729   5.523  0.1660  0.3370  0.9630
  658MOL0     H88806   1.988   3.980   5.482 -0.7473  2.2817  0.1887
  658MOL0     H88807   1.866   3.941   5.599 -0.6187 -1.6415 -2.2564
  658MOL0     H88808   1.988   4.125   5.663  0.4911  1.1075 -0.0337
  658MOL0     H88809   2.144   4.048   5.689 -0.4795  0.0693 -1.1285
  658MOL0     H88810   2.044   3.914   5.878 -1.7940 -0.3661  0.5534
  658MOL0     H88811   1.886   3.981   5.832  0.1834  1.3630  1.5703
  658MOL0     H88812   2.757   3.805   5.329  1.6099 -0.0293 -0.5384
  658MOL0     H88813   2.934   3.715   5.453  1.3511 -0.6480 -1.9374
  658MOL0     H88814   3.050   3.456   5.790 -0.1038 -1.2560  0.6254
  658MOL0     H88815   3.227   3.367   5.952  3.3560  2.4977  0.1523
  658MOL0     H88816   4.728   3.457   6.747  0.7171 -0.1790 -0.4055
  658MOL0     H88817   4.932   3.553   6.637  0.6511 -0.0917  0.4072
  658MOL0     H88818   5.369   3.613   6.818 -3.3329  2.3212 -2.0901
  658MOL0     H88819   5.589   3.684   6.841  1.2614  1.2139 -0.2805
  658MOL0     H88820   5.944   3.748   6.573 -1.4351 -0.9301  3.2335
  658MOL0     H88821   5.819   3.718   6.468 -2.2501  0.3561  0.4589
  658MOL0     H88822   5.762   3.984   6.588  0.5961  0.4626  0.3106
  658MOL0     H88823   5.834   3.960   6.425  1.2139  0.1924 -1.2846
  658MOL0     H88824   6.064   3.957   6.557  0.4866  0.3719  2.3325
  658MOL0     H88825   5.973   4.004   6.692  1.2409 -3.6809  0.6934
  658MOL0     H88826   5.983   4.153   6.432  0.7270  1.3763  0.2202
  658MOL0     H88827   6.091   4.186   6.576 -0.7627  1.2897  2.5356
  658MOL0     H88828   5.720   4.375   6.684  1.1719  2.1151 -0.9403
  658MOL0     H88829   5.623   3.744   6.423 -0.5217  0.9491 -0.0686
  658MOL0     H88830   5.399   3.620   6.393  1.6406  0.6246 -0.4705
  659MOL0     O88831   8.536   5.530   0.977 -0.0009  0.2181  0.0220
  659MOL0     C88832   8.592   5.423   0.945 -0.0508  0.2837  0.0551
  659MOL0     O88833   8.542   5.324   0.870  0.0568 -0.0966  0.3136
  659MOL0     C88834   8.420   5.351   0.813 -0.0435 -0.0924 -0.2460
  659MOL0     C88835   8.320   5.256   0.846 -0.0677 -0.6409  0.1722
  659MOL0     C88836   8.196   5.277   0.790  0.5092  0.1673  0.0231
  659MOL0     C88837   8.165   5.383   0.699  0.1116 -0.4421  0.8488
  659MOL0     O88838   8.042   5.384   0.637 -0.7529 -1.2644 -0.8214
  659MOL0     C88839   8.050   5.415   0.497  1.2525  0.4823  0.4148
  659MOL0     C88840   7.907   5.380   0.434  0.5363 -0.5422  0.0305
  659MOL0     C88841   7.912   5.388   0.275 -0.6916  0.1069 -0.2621
  659MOL0     C88842   7.919   5.525   0.214 -0.0951 -0.1515  0.7451
  659MOL0     C88843   7.950   5.505   0.065  0.2035 -0.6006 -0.6141
  659MOL0     C88844   7.944   5.639  -0.007 -1.2502  0.0011  0.5664
  659MOL0     C88845   7.982   5.621  -0.160  0.1399 -0.3494 -0.2315
  659MOL0     C88846   7.962   5.735  -0.258  0.4996 -0.1191  0.1996
  659MOL0     N88847   8.065   5.844  -0.231  0.0682 -0.1061  0.2752
  659MOL0     C88848   8.158   5.897  -0.315 -0.6893 -0.2089 -0.0665
  659MOL0     C88849   8.213   5.997  -0.229  0.2623  0.6453  1.2916
  659MOL0     C88850   8.323   6.088  -0.278 -0.0070  0.1937 -0.7373
  659MOL0     C88851   8.441   6.082  -0.186 -1.0102  0.3111  0.3272
  659MOL0     C88852   8.525   6.207  -0.206 -0.4489 -0.6538  0.5396
  659MOL0     C88853   8.667   6.200  -0.150 -0.0033  0.2005  0.0802
  659MOL0     O88854   8.657   6.199  -0.006 -0.1298  0.7869 -0.0219
  659MOL0     C88855   8.771   6.156   0.058  0.0366  0.2432  0.3612
  659MOL0     C88856   8.766   6.061   0.156  0.3658 -0.1210  0.1898
  659MOL0     C88857   8.879   6.010   0.232  0.3608 -1.3542  0.4988
  659MOL0     C88858   8.855   5.910   0.336 -0.2278 -0.3680  0.3852
  659MOL0     C88859   9.010   6.079   0.219  0.3515 -0.0426  0.5539
  659MOL0     C88860   9.143   6.033   0.279  0.1311  0.9285  1.0252
  659MOL0     O88861   9.135   5.950   0.387  0.0213  1.2096  0.0623
  659MOL0     C88862   9.244   5.933   0.476 -0.3955 -0.2090  0.5353
  659MOL0     C88863   9.275   6.025   0.571  0.2593  0.1158  0.4276
  659MOL0     C88864   9.377   6.008   0.674 -1.4257 -0.6059  0.8056
  659MOL0     C88865   9.448   5.881   0.677  0.4062 -0.3986 -0.6993
  659MOL0     O88866   9.540   5.862   0.772  0.0944 -0.0116 -0.4883
  659MOL0     C88867   9.587   5.730   0.819 -0.5072  0.0166 -0.9174
  659MOL0     C88868   9.483   5.649   0.888 -0.3539 -0.0821  0.1171
  659MOL0     C88869   9.435   5.703   1.021  0.2003 -0.1506  0.5929
  659MOL0     C88870   9.320   5.603   1.062  0.1157 -0.1765 -0.0239
  659MOL0     C88871   9.249   5.641   1.198 -0.7941  0.3906 -0.6091
  659MOL0     C88872   9.240   5.784   1.235  0.0540  0.1015 -0.1436
  659MOL0     C88873   9.164   5.799   1.367 -1.0755 -0.0493 -0.4477
  659MOL0     C88874   9.245   5.768   1.502  0.0341 -0.5559  0.0098
  659MOL0    Cl88875   9.130   5.789   1.659  0.3859  0.0648  0.5890
  659MOL0     C88876   9.407   5.788   0.583  0.2594  0.6658  0.2017
  659MOL0     C88877   9.302   5.806   0.494  0.2679  0.3202  0.5185
  659MOL0     O88878   9.246   6.066   0.222  0.3743  0.6690 -0.2392
  659MOL0     C88879   9.007   6.179   0.119  0.3912 -0.0896 -0.5230
  659MOL0     C88880   8.897   6.220   0.043 -0.1347  0.2757  1.3020
  659MOL0     N88881   8.153   5.987  -0.103  0.1142 -0.2028 -0.0675
  659MOL0     N88882   8.062   5.903  -0.110  0.0026 -0.0165  0.0558
  659MOL0     C88883   8.270   5.461   0.670 -0.0066  1.2729  0.4776
  659MOL0     C88884   8.397   5.454   0.727  0.0384 -0.2313 -0.1136
  659MOL0     C88885   8.718   5.381   1.009 -0.1899  0.0772  0.5259
  659MOL0     C88886   8.805   5.284   0.964 -1.0868  0.4093  0.1047
  659MOL0     C88887   8.931   5.266   1.026  0.9926 -0.2861 -0.3941
  659MOL0     C88888   8.975   5.351   1.120  0.3150 -0.2400 -1.3058
  659MOL0     O88889   9.106   5.337   1.160 -0.3369 -0.4355 -1.1889
  659MOL0     C88890   9.161   5.209   1.195 -0.1367 -0.0223 -0.8090
  659MOL0     C88891   9.262   5.222   1.320  0.4428  0.4720 -0.4431
  659MOL0     C88892   9.181   5.288   1.439  0.0617  0.3578  0.8239
  659MOL0     C88893   9.269   5.315   1.555  0.0320 -0.5949 -0.4122
  659MOL0     C88894   9.283   5.192   1.625 -0.2367 -0.2377 -0.6232
  659MOL0     C88895   9.308   5.092   1.693  0.3170  0.5243  0.1511
  659MOL0     C88896   8.895   5.456   1.165  0.0652  0.3291  0.8297
  659MOL0     C88897   8.771   5.472   1.111 -0.4748 -0.5135  0.9961
  659MOL0     H88898   8.345   5.179   0.918  3.0974 -0.1600 -0.2622
  659MOL0     H88899   8.122   5.200   0.808  1.7224 -1.1861 -0.4785
  659MOL0     H88900   8.070   5.521   0.480  1.9639  0.1664 -0.8251
  659MOL0     H88901   8.121   5.357   0.437 -2.2334 -1.5605 -2.1002
  659MOL0     H88902   7.867   5.284   0.468 -3.3688  1.0657  0.5553
  659MOL0     H88903   7.835   5.456   0.469  0.0298 -1.4683  1.0610
  659MOL0     H88904   8.001   5.331   0.250 -0.5054 -0.0611  0.7310
  659MOL0     H88905   7.820   5.343   0.238 -1.6515  1.2790  0.5988
  659MOL0     H88906   7.828   5.585   0.225  2.1690  4.2950 -1.6769
  659MOL0     H88907   7.992   5.580   0.275 -1.5864  1.1808  1.4046
  659MOL0     H88908   8.052   5.465   0.068 -0.0613 -1.3397  2.8219
  659MOL0     H88909   7.894   5.424   0.019 -2.6829  0.9104  0.0122
  659MOL0     H88910   7.844   5.684  -0.005 -2.1291 -1.9047  1.1167
  659MOL0     H88911   8.020   5.699   0.045 -1.8131  0.2014  1.1636
  659MOL0     H88912   8.090   5.607  -0.162  0.5911  2.5141  0.0861
  659MOL0     H88913   7.935   5.529  -0.196  0.4496 -0.7726  0.4306
  659MOL0     H88914   7.862   5.776  -0.242  0.5183 -0.0768  0.2102
  659MOL0     H88915   7.963   5.700  -0.362 -2.5544  2.8404 -1.0156
  659MOL0     H88916   8.178   5.871  -0.419 -0.5583  1.1654 -0.3980
  659MOL0     H88917   8.353   6.061  -0.380 -1.0553 -0.4358 -0.8871
  659MOL0     H88918   8.288   6.192  -0.274  0.5309  0.3468  2.6051
  659MOL0     H88919   8.503   5.992  -0.189  0.1946  1.0616  1.4915
  659MOL0     H88920   8.398   6.081  -0.086 -0.6417  1.1127  0.5034
  659MOL0     H88921   8.471   6.298  -0.179 -0.9125 -0.4293 -1.0539
  659MOL0     H88922   8.532   6.219  -0.314 -0.0029  0.5464  0.6898
  659MOL0     H88923   8.717   6.294  -0.174  5.2189 -2.0773  0.6665
  659MOL0     H88924   8.724   6.116  -0.191 -1.7456 -0.5350 -0.9379
  659MOL0     H88925   8.665   6.025   0.173  1.4479 -3.2862  0.6335
  659MOL0     H88926   8.932   5.833   0.344  0.3345  0.1480  0.0106
  659MOL0     H88927   8.846   5.964   0.431 -1.5426  1.0099 -0.4566
  659MOL0     H88928   8.767   5.850   0.311  0.3640 -0.9297 -0.3880
  659MOL0     H88929   9.216   6.117   0.569  0.7326  0.4191 -1.2046
  659MOL0     H88930   9.404   6.082   0.749 -2.1283  2.5089 -1.7894
  659MOL0     H88931   9.631   5.670   0.738  0.1475  0.2890 -0.7618
  659MOL0     H88932   9.668   5.747   0.890  0.0524 -0.6297 -1.3835
  659MOL0     H88933   9.394   5.646   0.824 -0.9847  1.3255  0.8957
  659MOL0     H88934   9.525   5.548   0.897  0.7139  0.2031 -1.2438
  659MOL0     H88935   9.398   5.804   1.005 -0.3774 -0.4345  0.0746
  659MOL0     H88936   9.515   5.693   1.094  1.8179  1.8074 -0.7990
  659MOL0     H88937   9.239   5.606   0.990 -0.2449  2.2963  0.4202
  659MOL0     H88938   9.352   5.500   1.081  0.3512  0.3120  2.7620
  659MOL0     H88939   9.304   5.588   1.276 -0.6209 -1.6890 -2.0406
  659MOL0     H88940   9.155   5.587   1.178  0.4198 -2.5851  1.0678
  659MOL0     H88941   9.340   5.828   1.236 -0.8961  2.4396 -0.9701
  659MOL0     H88942   9.183   5.844   1.164  2.1186  1.9979 -0.3447
  659MOL0     H88943   9.068   5.747   1.378 -0.6099 -1.5721 -2.8607
  659MOL0     H88944   9.138   5.905   1.374  3.9379  1.5958 -2.8784
  659MOL0     H88945   9.333   5.832   1.510 -0.6555  0.1433  4.1687
  659MOL0     H88946   9.291   5.669   1.503  1.2048 -0.0294 -0.0687
  659MOL0     H88947   9.458   5.692   0.576 -0.4856  0.2953 -0.1765
  659MOL0     H88948   9.281   5.728   0.422 -1.1153  0.2318  0.9888
  659MOL0     H88949   9.101   6.233   0.110 -0.3828  1.1458 -1.4293
  659MOL0     H88950   8.913   6.307  -0.020 -1.6822 -0.3781 -0.0563
  659MOL0     H88951   8.257   5.546   0.604  1.3120  0.3418 -1.0308
  659MOL0     H88952   8.475   5.526   0.705 -0.3436  0.1053 -0.3754
  659MOL0     H88953   8.764   5.225   0.882  1.4587 -0.6005 -0.5515
  659MOL0     H88954   8.980   5.175   0.996 -0.3263 -0.6477 -1.5844
  659MOL0     H88955   9.080   5.138   1.215 -2.2654  2.1636 -1.1801
  659MOL0     H88956   9.220   5.173   1.110  0.8849  1.0791 -0.5955
  659MOL0     H88957   9.346   5.287   1.294 -0.8688  2.1289 -0.6765
  659MOL0     H88958   9.309   5.127   1.349 -1.1537 -0.5563 -1.1253
  659MOL0     H88959   9.096   5.225   1.468  1.1941 -0.3411  2.7747
  659MOL0     H88960   9.147   5.386   1.406  0.6500 -0.3152 -2.1049
  659MOL0     H88961   9.218   5.390   1.617  0.9903 -0.7469  0.5936
  659MOL0     H88962   9.359   5.364   1.518 -0.8360 -1.2303 -3.7283
  659MOL0     H88963   9.320   4.995   1.735 -0.0234 -0.7973 -2.6212
  659MOL0     H88964   8.932   5.526   1.239  1.0500 -0.5025  1.1466
  659MOL0     H88965   8.716   5.553   1.158  0.4382  0.7627 -0.0693
  660MOL0     O88966   7.088   3.509   2.838  0.0442 -0.5542  0.0918
  660MOL0     C88967   7.165   3.533   2.932  1.2751 -0.1120 -0.4191
  660MOL0     O88968   7.202   3.654   2.978 -0.5591 -0.0133 -0.7985
  660MOL0     C88969   7.202   3.761   2.894 -0.0856 -0.2805 -0.4219
  660MOL0     C88970   7.079   3.788   2.834 -0.1228 -0.0875  0.0577
  660MOL0     C88971   7.080   3.892   2.740  0.6992 -0.5037 -0.2417
  660MOL0     C88972   7.202   3.956   2.695 -0.1574  0.3200  0.2250
  660MOL0     O88973   7.203   4.051   2.591  0.7491 -0.0195  0.6181
  660MOL0     C88974   7.119   4.039   2.476 -0.9203  0.8132 -0.2351
  660MOL0     C88975   7.199   4.007   2.345 -0.2163 -0.3796 -0.4488
  660MOL0     C88976   7.117   3.987   2.217 -0.2417 -0.4162  0.0600
  660MOL0     C88977   7.191   3.976   2.085 -0.8555  0.3102  0.0142
  660MOL0     C88978   7.095   3.999   1.972  0.1264  0.1317 -1.2168
  660MOL0     C88979   7.168   3.995   1.833  0.5308 -0.0005 -0.0456
  660MOL0     C88980   7.222   3.858   1.775 -0.5224 -0.0109  0.2159
  660MOL0     C88981   7.344   3.865   1.672 -0.1574  0.3189 -0.2893
  660MOL0     N88982   7.298   3.917   1.547 -0.5303  0.1723  0.9302
  660MOL0     C88983   7.244   3.857   1.436  0.2035  0.1838  0.6142
  660MOL0     C88984   7.247   3.954   1.340  1.2862  0.1529  0.2139
  660MOL0     C88985   7.188   3.955   1.193  0.1474  0.5366  0.2585
  660MOL0     C88986   7.042   3.985   1.207  0.2316  0.3242 -0.7380
  660MOL0     C88987   6.969   3.950   1.080 -1.0069  0.3744  0.1703
  660MOL0     C88988   7.021   4.014   0.951 -0.2774  0.5299 -0.4982
  660MOL0     O88989   6.940   3.990   0.836 -0.3263 -0.5229  0.6235
  660MOL0     C88990   6.816   4.041   0.832 -1.6570  0.4500 -0.4437
  660MOL0     C88991   6.712   3.952   0.818 -0.5383  0.1356 -0.1989
  660MOL0     C88992   6.584   4.002   0.786  0.8605 -0.0040 -1.0081
  660MOL0     C88993   6.483   3.887   0.756 -0.2585  0.1587  0.2449
  660MOL0     C88994   6.566   4.144   0.770 -0.8946  0.6483 -0.2668
  660MOL0     C88995   6.441   4.210   0.746 -0.2950  0.7392 -0.4274
  660MOL0     O88996   6.325   4.136   0.778 -0.1349  0.1979 -0.3234
  660MOL0     C88997   6.196   4.194   0.756  0.2543  1.1333 -0.2307
  660MOL0     C88998   6.110   4.176   0.864 -0.5277 -0.1484  0.8127
  660MOL0     C88999   5.977   4.216   0.849  0.3403  0.9720  0.1071
  660MOL0     C89000   5.935   4.271   0.729  0.3405 -0.2484  0.3994
  660MOL0     O89001   5.807   4.301   0.698  0.0145 -0.6612  0.0902
  660MOL0     C89002   5.749   4.410   0.768 -0.2266 -0.4721  0.3952
  660MOL0     C89003   5.748   4.538   0.686  0.2757  0.4585  0.0420
  660MOL0     C89004   5.672   4.659   0.741  0.7313  0.4648  0.6068
  660MOL0     C89005   5.534   4.675   0.687 -0.1337 -0.2779 -0.8939
  660MOL0     C89006   5.486   4.815   0.710 -0.0347 -0.3387  0.2780
  660MOL0     C89007   5.349   4.836   0.648 -0.1381  0.3785  0.4466
  660MOL0     C89008   5.234   4.761   0.727 -0.4970 -0.0028 -0.0461
  660MOL0     C89009   5.122   4.732   0.627  0.6779 -0.0151  0.4734
  660MOL0    Cl89010   5.065   4.887   0.576  0.1975  0.0408  0.0963
  660MOL0     C89011   6.025   4.293   0.623 -0.6131 -0.0839  0.5719
  660MOL0     C89012   6.158   4.253   0.640  1.1847 -0.0607  0.1861
  660MOL0     O89013   6.440   4.329   0.718  0.7817 -0.3842  0.3584
  660MOL0     C89014   6.681   4.223   0.793  0.7622  0.3785 -0.5094
  660MOL0     C89015   6.807   4.177   0.817 -0.4244  0.4817 -0.8511
  660MOL0     N89016   7.299   4.070   1.391  0.5276 -0.6677 -0.6127
  660MOL0     N89017   7.315   4.054   1.520  0.6276 -0.2244 -0.2567
  660MOL0     C89018   7.317   3.934   2.767  0.4643  0.3460 -0.3546
  660MOL0     C89019   7.321   3.830   2.866  0.1424  0.0920  0.3962
  660MOL0     C89020   7.205   3.429   3.015  0.1744  0.0116  0.2506
  660MOL0     C89021   7.328   3.423   3.091  0.9473 -0.3603 -0.3223
  660MOL0     C89022   7.364   3.313   3.169 -0.1532 -0.7948  0.0008
  660MOL0     C89023   7.281   3.203   3.179 -0.2525  0.6750 -0.3168
  660MOL0     O89024   7.313   3.098   3.264  0.2618 -0.5828 -0.5189
  660MOL0     C89025   7.209   3.026   3.332  0.6879 -0.2957 -0.5234
  660MOL0     C89026   7.198   2.880   3.292 -0.5417  0.2253 -0.0385
  660MOL0     C89027   7.089   2.813   3.378 -0.3763 -0.5195  0.2499
  660MOL0     C89028   6.954   2.819   3.307 -0.7448  0.4478 -0.7838
  660MOL0     C89029   6.847   2.752   3.378 -0.3833 -0.6918  0.3185
  660MOL0     C89030   6.749   2.704   3.435  0.1742  0.3276  0.2292
  660MOL0     C89031   7.170   3.207   3.101  0.5971  1.4072  0.1202
  660MOL0     C89032   7.132   3.316   3.029 -0.4171  0.6783  0.9866
  660MOL0     H89033   6.981   3.743   2.852 -0.5361 -0.2191 -2.2873
  660MOL0     H89034   6.982   3.911   2.698  0.2778  4.6737  2.2978
  660MOL0     H89035   7.047   3.962   2.505  0.7943 -0.4480  0.8178
  660MOL0     H89036   7.057   4.127   2.455 -0.6534  1.7838  2.6707
  660MOL0     H89037   7.268   4.087   2.318 -0.5383 -0.8808 -2.9687
  660MOL0     H89038   7.265   3.922   2.367  1.6259  1.5400  2.1396
  660MOL0     H89039   7.055   3.897   2.207  0.2894 -0.6033 -1.9976
  660MOL0     H89040   7.057   4.078   2.216 -0.9622 -0.8582  1.0428
  660MOL0     H89041   7.276   4.044   2.072 -0.8631  0.2785 -0.1970
  660MOL0     H89042   7.238   3.879   2.069  0.4467  1.1646 -1.7726
  660MOL0     H89043   7.018   3.922   1.968 -1.0761  1.3086 -1.3770
  660MOL0     H89044   7.033   4.089   1.979  0.6185  0.6472 -3.0421
  660MOL0     H89045   7.095   4.025   1.757 -0.6579 -1.5629  0.4382
  660MOL0     H89046   7.258   4.057   1.836 -0.1586  0.9756  1.8836
  660MOL0     H89047   7.256   3.799   1.861 -4.0741  2.3186  3.5855
  660MOL0     H89048   7.138   3.803   1.732 -2.2705 -0.7786  4.1391
  660MOL0     H89049   7.385   3.766   1.651 -0.3819  0.5989 -2.2807
  660MOL0     H89050   7.421   3.935   1.707 -0.5944  0.3925  0.5389
  660MOL0     H89051   7.204   3.757   1.425  3.4373 -1.4152  1.9509
  660MOL0     H89052   7.240   4.030   1.133 -0.1614  1.8308  1.5459
  660MOL0     H89053   7.210   3.857   1.149 -0.0168  1.3256 -1.6598
  660MOL0     H89054   7.024   4.089   1.235  3.5979  1.6569 -3.0045
  660MOL0     H89055   6.993   3.918   1.279 -1.5123 -0.3025 -2.3883
  660MOL0     H89056   6.864   3.979   1.092 -0.8581  0.6251  0.9230
  660MOL0     H89057   6.976   3.842   1.062 -0.4503  0.6482 -1.4267
  660MOL0     H89058   7.118   3.962   0.944 -1.1622 -1.0713 -1.5565
  660MOL0     H89059   7.031   4.122   0.965  0.2614  0.1563  2.7853
  660MOL0     H89060   6.736   3.847   0.830 -1.6803 -0.0109  1.0062
  660MOL0     H89061   6.422   3.865   0.844 -0.0823 -4.1361 -0.4659
  660MOL0     H89062   6.418   3.918   0.673  0.5858 -1.4210 -1.0691
  660MOL0     H89063   6.535   3.796   0.725 -1.1773 -0.2409 -0.1884
  660MOL0     H89064   6.137   4.115   0.950  0.5498 -1.3980 -0.3654
  660MOL0     H89065   5.909   4.194   0.931  1.4796  1.2635  1.1621
  660MOL0     H89066   5.650   4.371   0.794 -1.1215  1.8781  0.7527
  660MOL0     H89067   5.786   4.415   0.871 -0.6317 -2.9103  0.7065
  660MOL0     H89068   5.852   4.567   0.672  0.0719  0.7148 -1.0468
  660MOL0     H89069   5.712   4.512   0.586  1.5334 -1.2351 -0.0070
  660MOL0     H89070   5.736   4.746   0.722  0.4439  0.6080  0.2865
  660MOL0     H89071   5.661   4.650   0.849  0.5655 -3.9256  0.3850
  660MOL0     H89072   5.533   4.654   0.580 -2.1159 -2.0926 -0.5949
  660MOL0     H89073   5.463   4.604   0.732  2.5133 -2.5890 -0.0397
  660MOL0     H89074   5.552   4.886   0.658 -1.9501  1.1067 -0.3211
  660MOL0     H89075   5.491   4.831   0.818 -1.2238  0.2302  0.2658
  660MOL0     H89076   5.330   4.944   0.648 -0.0629  0.3973 -0.3907
  660MOL0     H89077   5.345   4.788   0.550  0.8031 -1.5602  1.2963
  660MOL0     H89078   5.199   4.820   0.812  0.1082 -0.7219  0.7197
  660MOL0     H89079   5.270   4.671   0.778  0.3327  0.8252  0.8775
  660MOL0     H89080   5.043   4.668   0.668  1.3820 -2.3196 -1.5884
  660MOL0     H89081   5.158   4.682   0.537  1.1026  3.5242 -1.4977
  660MOL0     H89082   5.996   4.336   0.528  0.7662  1.1149  0.6671
  660MOL0     H89083   6.230   4.278   0.563  0.6078  0.7490 -0.1035
  660MOL0     H89084   6.667   4.329   0.778 -1.7686  0.0684 -0.8403
  660MOL0     H89085   6.891   4.245   0.829  0.2897 -0.5714  0.3765
  660MOL0     H89086   7.413   3.976   2.741 -0.7563  2.8544 -1.0957
  660MOL0     H89087   7.413   3.812   2.921  0.6139  2.9071  0.6873
  660MOL0     H89088   7.392   3.511   3.091  0.0410  0.4415  3.1681
  660MOL0     H89089   7.457   3.316   3.225  1.6747 -1.8698 -2.7634
  660MOL0     H89090   7.227   3.032   3.439  0.3432 -1.1496 -0.4070
  660MOL0     H89091   7.113   3.076   3.317  0.6833 -0.6043 -1.6474
  660MOL0     H89092   7.291   2.825   3.307 -1.8096 -1.1364  3.9091
  660MOL0     H89093   7.177   2.861   3.186  0.4375  0.1479 -0.2233
  660MOL0     H89094   7.077   2.868   3.472  0.0185  1.2355 -0.6782
  660MOL0     H89095   7.126   2.715   3.409 -0.3495 -0.4732  0.3630
  660MOL0     H89096   6.970   2.762   3.215  2.0272  0.5339 -0.4537
  660MOL0     H89097   6.927   2.924   3.292 -1.3793  0.3604 -0.2832
  660MOL0     H89098   6.668   2.646   3.474 -1.7308  0.9143 -2.5131
  660MOL0     H89099   7.112   3.116   3.088  1.1858  1.1496 -0.7305
  660MOL0     H89100   7.042   3.303   2.970  0.7850 -2.1578 -0.4454
  661MOL0     O89101   4.869   2.718   4.767  0.1506 -0.9312 -0.4543
  661MOL0     C89102   4.826   2.833   4.752  0.0411  0.2928 -1.0570
  661MOL0     O89103   4.711   2.886   4.812  0.4506  0.6713 -0.2680
  661MOL0     C89104   4.639   2.795   4.878  0.9458  0.3274  0.1447
  661MOL0     C89105   4.568   2.699   4.805 -0.0959  0.6570 -0.6725
  661MOL0     C89106   4.486   2.606   4.877 -0.7992  0.4304  0.2855
  661MOL0     C89107   4.474   2.618   5.019 -0.3511 -0.3664 -0.1700
  661MOL0     O89108   4.407   2.508   5.079  0.2022  0.1665  0.5536
  661MOL0     C89109   4.427   2.492   5.218  0.1262  0.5949 -0.4980
  661MOL0     C89110   4.356   2.350   5.242 -0.6720  0.0139  0.4898
  661MOL0     C89111   4.461   2.235   5.235 -1.2245 -0.4389  0.6822
  661MOL0     C89112   4.419   2.090   5.233  0.2236  1.3031 -0.4985
  661MOL0     C89113   4.533   1.990   5.191  0.3847 -0.4864 -0.3177
  661MOL0     C89114   4.472   1.845   5.188  0.4421  0.4608  0.6750
  661MOL0     C89115   4.414   1.782   5.316 -0.8665  1.6164  0.1183
  661MOL0     C89116   4.372   1.635   5.273 -0.3764  0.6615 -0.3477
  661MOL0     N89117   4.393   1.540   5.388 -0.0870  0.8636  0.2542
  661MOL0     C89118   4.300   1.504   5.490  0.1098 -0.0737 -0.0438
  661MOL0     C89119   4.355   1.397   5.546 -0.6566 -0.1123 -0.1390
  661MOL0     C89120   4.287   1.339   5.668  0.1079  0.7158  0.0611
  661MOL0     C89121   4.296   1.419   5.800 -0.3947  0.9654 -0.1924
  661MOL0     C89122   4.433   1.404   5.864  1.1003 -0.5853  0.3628
  661MOL0     C89123   4.543   1.492   5.823  0.3604  0.9406  0.2437
  661MOL0     O89124   4.505   1.623   5.851 -0.3640  0.0598 -0.1547
  661MOL0     C89125   4.575   1.720   5.785 -0.0345 -0.0284  0.2826
  661MOL0     C89126   4.709   1.718   5.771  0.0119  0.2159 -0.5879
  661MOL0     C89127   4.776   1.830   5.712 -0.3813 -0.2078  0.3622
  661MOL0     C89128   4.918   1.848   5.713 -0.7868 -0.2065 -0.8145
  661MOL0     C89129   4.709   1.935   5.654  0.9626 -0.1217  0.8016
  661MOL0     C89130   4.770   2.054   5.575 -0.4167  0.4251  0.2000
  661MOL0     O89131   4.703   2.167   5.570 -0.5472  0.0436  0.1876
  661MOL0     C89132   4.758   2.294   5.569 -0.2565 -0.3517  0.7859
  661MOL0     C89133   4.892   2.319   5.605 -0.1777 -0.0077 -0.1137
  661MOL0     C89134   4.936   2.454   5.614  0.3917 -0.1069 -1.0459
  661MOL0     C89135   4.848   2.570   5.587 -0.3482  1.0672 -0.7517
  661MOL0     O89136   4.894   2.696   5.570 -0.2778  0.3026  0.0046
  661MOL0     C89137   4.977   2.738   5.680 -0.6357 -0.3139 -0.5010
  661MOL0     C89138   5.020   2.882   5.648 -0.0843 -0.5273  0.3067
  661MOL0     C89139   5.129   2.938   5.737  0.3165  0.6949 -0.2737
  661MOL0     C89140   5.168   3.089   5.720  0.3455 -0.1991 -0.3439
  661MOL0     C89141   5.255   3.134   5.842  0.3497  0.3903  0.7090
  661MOL0     C89142   5.399   3.097   5.828  0.1264 -0.2677 -0.3842
  661MOL0     C89143   5.482   3.167   5.941  0.1630  0.0148  0.1482
  661MOL0     C89144   5.621   3.187   5.893 -0.5051 -0.2181  0.3195
  661MOL0    Cl89145   5.638   3.339   5.783 -0.0541  0.1078 -0.1753
  661MOL0     C89146   4.718   2.536   5.562 -0.4742  0.4731  0.0983
  661MOL0     C89147   4.682   2.398   5.530 -0.1959  0.1689  0.0741
  661MOL0     O89148   4.869   2.035   5.503  0.9672  1.0017  0.0317
  661MOL0     C89149   4.566   1.927   5.653 -0.1944 -0.3941  0.1329
  661MOL0     C89150   4.499   1.823   5.724 -0.4215  0.2131  0.6779
  661MOL0     N89151   4.480   1.360   5.486  0.2789  0.8478 -0.1773
  661MOL0     N89152   4.499   1.456   5.401 -0.3085 -0.4092  0.2895
  661MOL0     C89153   4.536   2.723   5.094 -0.8688 -0.0898  0.2114
  661MOL0     C89154   4.619   2.807   5.015 -0.2095 -0.0983 -0.6258
  661MOL0     C89155   4.904   2.928   4.674 -1.1846  0.3105  0.4519
  661MOL0     C89156   5.037   2.890   4.629 -0.6765 -0.1112 -0.4576
  661MOL0     C89157   5.107   2.981   4.550 -0.6348 -1.0708  0.0763
  661MOL0     C89158   5.058   3.110   4.517  0.8802 -0.1266  0.4134
  661MOL0     O89159   5.126   3.197   4.439  1.0509 -0.1760 -0.4474
  661MOL0     C89160   5.222   3.138   4.353 -0.3300 -0.0688  0.8477
  661MOL0     C89161   5.291   3.247   4.269  0.8722 -0.2757  0.4642
  661MOL0     C89162   5.330   3.382   4.346  0.5804 -0.1892  0.9463
  661MOL0     C89163   5.411   3.350   4.468  0.3067 -0.0520 -0.0923
  661MOL0     C89164   5.406   3.461   4.560 -0.1803 -0.7627 -0.4287
  661MOL0     C89165   5.409   3.553   4.637  0.4568 -0.4000 -0.0110
  661MOL0     C89166   4.924   3.140   4.558 -0.1674  0.0931  0.1564
  661MOL0     C89167   4.854   3.055   4.646  1.1519 -0.0862  0.1277
  661MOL0     H89168   4.579   2.690   4.697  2.0337 -3.3788 -0.3421
  661MOL0     H89169   4.446   2.519   4.827  1.8429  0.7354 -2.6952
  661MOL0     H89170   4.535   2.494   5.234 -0.0496 -0.5959  1.0488
  661MOL0     H89171   4.374   2.572   5.271  1.2551 -0.3117  2.1830
  661MOL0     H89172   4.305   2.347   5.339 -3.5719  0.5041 -0.9022
  661MOL0     H89173   4.280   2.338   5.164  1.3306 -1.8024 -1.2957
  661MOL0     H89174   4.528   2.254   5.151 -1.5045 -0.7044  0.3956
  661MOL0     H89175   4.528   2.261   5.318 -1.0642 -1.5626  0.9195
  661MOL0     H89176   4.372   2.078   5.331  2.0764  3.1136  0.6977
  661MOL0     H89177   4.337   2.068   5.163  0.4046 -2.6865  0.2886
  661MOL0     H89178   4.569   2.020   5.092  0.9957 -0.3987 -0.0723
  661MOL0     H89179   4.608   1.993   5.271  0.6118  0.0653 -0.5424
  661MOL0     H89180   4.396   1.844   5.109  0.3809 -1.2759  0.7151
  661MOL0     H89181   4.549   1.780   5.145  1.2491  1.3679  0.6992
  661MOL0     H89182   4.489   1.784   5.394 -0.7557 -0.5315  0.1271
  661MOL0     H89183   4.325   1.834   5.354 -1.1638  0.0996  1.5818
  661MOL0     H89184   4.435   1.598   5.191  1.8951 -2.0832  2.3818
  661MOL0     H89185   4.266   1.639   5.248 -0.1548  0.5687 -1.3624
  661MOL0     H89186   4.213   1.566   5.512  1.6942  1.4189  2.6553
  661MOL0     H89187   4.188   1.295   5.652  1.8654 -3.2214 -1.4313
  661MOL0     H89188   4.337   1.243   5.683 -1.6338 -0.2062  0.2162
  661MOL0     H89189   4.218   1.378   5.864 -0.1739  1.6082  0.4959
  661MOL0     H89190   4.268   1.524   5.785 -2.4466  0.7536  1.7531
  661MOL0     H89191   4.470   1.304   5.838  0.6661 -0.9387  1.0603
  661MOL0     H89192   4.429   1.404   5.974 -2.7049 -3.2206  0.4257
  661MOL0     H89193   4.557   1.486   5.714 -0.7331 -1.5307  0.1784
  661MOL0     H89194   4.632   1.474   5.884  0.1553 -0.4649  0.1712
  661MOL0     H89195   4.766   1.639   5.817 -1.9370  0.2506  2.1401
  661MOL0     H89196   4.979   1.777   5.771 -0.6761  0.4401 -0.1149
  661MOL0     H89197   4.975   1.856   5.620  1.6661 -2.8185  0.2638
  661MOL0     H89198   4.932   1.944   5.762 -1.8628 -0.3973 -0.1113
  661MOL0     H89199   4.967   2.243   5.622  2.1423  1.4000 -3.1627
  661MOL0     H89200   5.041   2.464   5.641  0.3123  3.0312 -1.4703
  661MOL0     H89201   4.917   2.734   5.772 -0.5025 -0.4705 -0.4212
  661MOL0     H89202   5.066   2.677   5.692 -0.0804  0.2280 -1.6888
  661MOL0     H89203   5.069   2.891   5.550  2.8972  3.2080  1.8409
  661MOL0     H89204   4.925   2.936   5.657 -1.0028 -1.5663 -2.2643
  661MOL0     H89205   5.223   2.887   5.715  0.8670  2.0053 -1.0596
  661MOL0     H89206   5.101   2.924   5.842  2.5010 -1.4186  0.1008
  661MOL0     H89207   5.227   3.107   5.629  1.6811 -1.1970  0.3018
  661MOL0     H89208   5.071   3.140   5.720  0.2184 -0.3726  1.6650
  661MOL0     H89209   5.222   3.088   5.936  0.2942  0.8485  0.9171
  661MOL0     H89210   5.241   3.241   5.855  0.7151  0.4578  0.5561
  661MOL0     H89211   5.403   2.989   5.844 -0.6902  0.0452  2.3138
  661MOL0     H89212   5.432   3.134   5.730 -3.4535  1.1808 -1.2068
  661MOL0     H89213   5.493   3.107   6.032  1.2988  3.3167  2.3922
  661MOL0     H89214   5.430   3.254   5.983  1.7053  0.2513  1.7055
  661MOL0     H89215   5.665   3.104   5.836  1.5638  1.5519 -0.8066
  661MOL0     H89216   5.689   3.207   5.976 -0.3856  0.9782 -0.0530
  661MOL0     H89217   4.645   2.616   5.554  0.8856  1.7189 -0.2914
  661MOL0     H89218   4.579   2.373   5.505  0.4078  0.1479 -2.7178
  661MOL0     H89219   4.492   1.984   5.600  0.0419 -0.8414 -0.6999
  661MOL0     H89220   4.390   1.820   5.722 -0.5346  2.6366 -1.2446
  661MOL0     H89221   4.517   2.735   5.200  0.6786  0.3438  0.4752
  661MOL0     H89222   4.660   2.892   5.069 -1.7005 -0.9922  2.1029
  661MOL0     H89223   5.087   2.799   4.663 -1.1996 -0.8944 -1.7173
  661MOL0     H89224   5.208   2.951   4.527 -0.8664 -0.4394 -1.9680
  661MOL0     H89225   5.300   3.086   4.411 -2.3449 -1.0490  2.8523
  661MOL0     H89226   5.179   3.074   4.276 -2.1021  1.1994  0.7243
  661MOL0     H89227   5.222   3.272   4.188  0.6571  0.2001  0.7845
  661MOL0     H89228   5.384   3.202   4.233  2.7339  1.3444  2.8716
  661MOL0     H89229   5.239   3.441   4.361  0.5951  0.2857 -0.7059
  661MOL0     H89230   5.397   3.442   4.284  0.3924  0.2575  1.1739
  661MOL0     H89231   5.516   3.365   4.440 -0.2595  3.4419 -0.7761
  661MOL0     H89232   5.389   3.253   4.514 -0.8955  0.3236  0.1428
  661MOL0     H89233   5.417   3.622   4.719 -1.0927 -1.1505  0.8188
  661MOL0     H89234   4.886   3.232   4.514  3.6434  1.5708 -0.4976
  661MOL0     H89235   4.756   3.090   4.678  0.9853  1.1777 -1.5944
  662MOL0     O89236   8.939   7.693   9.489 -0.4427 -0.5624 -0.0041
  662MOL0     C89237   8.938   7.809   9.448 -0.2240 -0.1170  0.8344
  662MOL0     O89238   8.849   7.864   9.364  0.1049 -0.9446 -0.3244
  662MOL0     C89239   8.763   7.779   9.297  0.5312 -0.9127 -0.1493
  662MOL0     C89240   8.791   7.645   9.253 -0.4102 -1.4579 -0.4557
  662MOL0     C89241   8.696   7.577   9.180 -0.0970  0.2511  0.1117
  662MOL0     C89242   8.577   7.641   9.142 -0.3123  0.7789 -0.2101
  662MOL0     O89243   8.471   7.599   9.057 -0.1697  1.1609 -0.2722
  662MOL0     C89244   8.434   7.458   9.055 -0.2680 -0.8777 -0.1637
  662MOL0     C89245   8.370   7.390   9.184 -0.4822 -0.3600  0.5262
  662MOL0     C89246   8.262   7.493   9.242  0.4515 -0.0575 -0.2781
  662MOL0     C89247   8.133   7.508   9.159 -0.3597  0.1482 -0.1053
  662MOL0     C89248   8.031   7.585   9.227  0.0625 -0.0793 -0.4829
  662MOL0     C89249   8.068   7.732   9.197  0.2700  0.4010  0.2405
  662MOL0     C89250   7.961   7.834   9.210  0.8154 -0.1866 -0.3377
  662MOL0     C89251   7.891   7.831   9.347 -0.5080 -1.0788 -0.2934
  662MOL0     N89252   7.771   7.923   9.355  0.1371  0.6754 -0.5138
  662MOL0     C89253   7.778   8.056   9.342  0.0717  0.2019 -0.0720
  662MOL0     C89254   7.645   8.098   9.368  0.2516 -0.3907 -0.3115
  662MOL0     C89255   7.563   8.224   9.334  0.1081  0.8629 -0.2273
  662MOL0     C89256   7.633   8.356   9.368 -0.7351 -0.6096 -0.7621
  662MOL0     C89257   7.579   8.493   9.312 -0.6969  1.1199 -0.2639
  662MOL0     C89258   7.504   8.476   9.177  0.3446  1.6053  0.0817
  662MOL0     O89259   7.454   8.593   9.125  0.9180  0.2659  0.0771
  662MOL0     C89260   7.392   8.605   9.005 -0.5668 -0.1081  0.1038
  662MOL0     C89261   7.330   8.730   8.967 -0.0870 -0.4669 -0.3936
  662MOL0     C89262   7.273   8.751   8.838  1.2283 -0.3143 -0.2178
  662MOL0     C89263   7.219   8.897   8.807  0.3336  0.1430  0.6986
  662MOL0     C89264   7.272   8.641   8.749  0.0228 -0.2450  0.3058
  662MOL0     C89265   7.212   8.651   8.611  0.0020  0.6207  1.2295
  662MOL0     O89266   7.194   8.531   8.551  0.5944 -0.2441  0.6996
  662MOL0     C89267   7.183   8.526   8.413 -0.3834 -0.6816 -0.4322
  662MOL0     C89268   7.059   8.531   8.357 -0.4562  0.1703  0.0176
  662MOL0     C89269   7.042   8.535   8.218 -0.5467 -0.1447 -0.5726
  662MOL0     C89270   7.158   8.521   8.140 -0.2420 -0.8524  0.0290
  662MOL0     O89271   7.137   8.524   7.999  0.1408  0.4863  0.0769
  662MOL0     C89272   7.210   8.436   7.908  0.3884  0.2770 -0.0431
  662MOL0     C89273   7.129   8.424   7.773  0.0028 -0.0509 -0.1825
  662MOL0     C89274   7.088   8.559   7.710 -0.1834  0.2177 -1.0232
  662MOL0     C89275   6.999   8.528   7.592 -0.9366  0.0063 -0.2308
  662MOL0     C89276   6.956   8.651   7.517  0.2860  1.0674 -0.7178
  662MOL0     C89277   6.824   8.616   7.440  0.1388 -0.2344  0.6998
  662MOL0     C89278   6.746   8.742   7.421  0.5953 -0.9264  0.8488
  662MOL0     C89279   6.609   8.722   7.357 -0.1184  0.5192 -0.2027
  662MOL0    Cl89280   6.503   8.619   7.458  0.1680 -0.0524  0.2486
  662MOL0     C89281   7.283   8.513   8.200  0.5914 -0.3059  0.2112
  662MOL0     C89282   7.299   8.513   8.336  0.2258 -0.3168  0.7642
  662MOL0     O89283   7.203   8.762   8.559  0.0345  0.1752  0.1606
  662MOL0     C89284   7.328   8.515   8.789  0.1784 -0.0456  0.2296
  662MOL0     C89285   7.386   8.499   8.917  0.1195  0.7204 -0.7742
  662MOL0     N89286   7.576   7.983   9.412  0.2500 -0.5261 -0.5232
  662MOL0     N89287   7.650   7.879   9.409 -0.1932 -0.4719 -0.4382
  662MOL0     C89288   8.552   7.764   9.190  1.0072  0.7202 -0.6948
  662MOL0     C89289   8.643   7.840   9.264  0.1243 -0.1335  0.5330
  662MOL0     C89290   9.044   7.899   9.516 -0.1613 -0.1863 -0.0620
  662MOL0     C89291   9.133   7.843   9.615  0.2980 -0.2956  0.2535
  662MOL0     C89292   9.208   7.918   9.694  0.1839 -0.6771 -0.5361
  662MOL0     C89293   9.211   8.059   9.684  0.3102  1.6628  0.5457
  662MOL0     O89294   9.270   8.145   9.774 -0.0873  0.0526 -0.4429
  662MOL0     C89295   9.218   8.143   9.908 -0.3443 -1.0243  0.2170
  662MOL0     C89296   9.284   8.262   9.982  0.0084 -0.3605  0.1326
  662MOL0     C89297   9.272   8.391   9.898 -0.6558  1.3661 -0.2140
  662MOL0     C89298   9.282   8.513   9.990 -0.8110  0.9574  0.2974
  662MOL0     C89299   9.421   8.557  10.011 -1.0655 -0.2669 -0.0769
  662MOL0     C89300   9.539   8.577  10.015 -0.1159  0.2004  0.6343
  662MOL0     C89301   9.150   8.115   9.567 -0.1742  0.2919 -0.1724
  662MOL0     C89302   9.061   8.036   9.489 -0.8863 -0.0604 -0.2391
  662MOL0     H89303   8.868   7.578   9.291  2.7067  1.0745 -1.8403
  662MOL0     H89304   8.716   7.475   9.150  0.6966 -0.4134  2.6576
  662MOL0     H89305   8.353   7.470   8.984  1.2912  1.1907 -1.7208
  662MOL0     H89306   8.525   7.407   9.021  1.6649  1.8394  0.5744
  662MOL0     H89307   8.320   7.296   9.161  0.8523 -0.4726 -2.3717
  662MOL0     H89308   8.447   7.370   9.259 -0.1709 -0.0307  0.2938
  662MOL0     H89309   8.247   7.455   9.343 -1.6742  1.3297 -0.0212
  662MOL0     H89310   8.296   7.594   9.267  0.6177 -0.5207  1.5406
  662MOL0     H89311   8.147   7.553   9.060 -3.7095 -0.7492 -1.1178
  662MOL0     H89312   8.107   7.403   9.145  1.8374 -0.7288  1.7330
  662MOL0     H89313   7.938   7.553   9.179  1.0492  0.0698 -2.5844
  662MOL0     H89314   8.025   7.566   9.335 -2.8595 -0.0329 -0.5526
  662MOL0     H89315   8.150   7.753   9.267 -0.2900  1.9722  0.4656
  662MOL0     H89316   8.112   7.748   9.098 -0.0125 -1.2817 -0.1878
  662MOL0     H89317   7.999   7.933   9.185 -3.5994  1.4325 -1.4128
  662MOL0     H89318   7.887   7.817   9.132  0.1252 -0.1969  0.3051
  662MOL0     H89319   7.965   7.872   9.416  1.0389 -2.8036 -0.8348
  662MOL0     H89320   7.860   7.732   9.380  1.0032 -0.5345  3.1215
  662MOL0     H89321   7.854   8.117   9.295  0.9538  0.0456  1.1002
  662MOL0     H89322   7.550   8.231   9.226 -1.1131 -0.3536 -0.1874
  662MOL0     H89323   7.466   8.233   9.385 -1.0674  0.6403 -2.3199
  662MOL0     H89324   7.731   8.357   9.321 -0.7377  0.9665 -0.8001
  662MOL0     H89325   7.647   8.375   9.475 -0.8480  3.8010 -1.3267
  662MOL0     H89326   7.653   8.572   9.297  0.4281 -0.4402 -4.4473
  662MOL0     H89327   7.508   8.525   9.389 -0.5704  1.9974 -0.4976
  662MOL0     H89328   7.419   8.412   9.199  0.3495  2.6052  3.4549
  662MOL0     H89329   7.574   8.431   9.106  0.7454 -1.1522  2.0638
  662MOL0     H89330   7.332   8.809   9.041 -0.1130 -1.3030  0.5195
  662MOL0     H89331   7.231   8.973   8.885  1.0900  0.3000  0.4416
  662MOL0     H89332   7.272   8.946   8.724  0.4673  1.6879  1.6546
  662MOL0     H89333   7.112   8.887   8.790  0.6265 -0.8395 -0.7827
  662MOL0     H89334   6.965   8.530   8.412  0.4664 -0.2928  1.6534
  662MOL0     H89335   6.947   8.545   8.167 -0.6489  0.3831 -0.2884
  662MOL0     H89336   7.307   8.485   7.903 -1.7097  4.9168 -0.9330
  662MOL0     H89337   7.211   8.338   7.956 -4.5904  0.2061  0.4354
  662MOL0     H89338   7.191   8.374   7.698 -0.2023 -0.7834  0.1239
  662MOL0     H89339   7.041   8.364   7.797  1.3859 -0.8208  3.7953
  662MOL0     H89340   7.176   8.608   7.669  1.7300 -0.5628  1.8638
  662MOL0     H89341   7.044   8.630   7.781  1.3639  1.1395 -0.9539
  662MOL0     H89342   7.035   8.449   7.525 -0.7190 -0.9647  0.9882
  662MOL0     H89343   6.911   8.489   7.643 -1.0152 -0.6282 -0.8428
  662MOL0     H89344   7.032   8.686   7.447  0.3603  2.0252 -0.1638
  662MOL0     H89345   6.934   8.739   7.578  1.4217  1.6742 -1.1567
  662MOL0     H89346   6.848   8.576   7.341 -2.8198  0.2035 -0.2634
  662MOL0     H89347   6.762   8.549   7.500 -1.9321  0.7556 -0.2288
  662MOL0     H89348   6.802   8.808   7.355 -2.7871  1.2771 -0.0509
  662MOL0     H89349   6.727   8.790   7.517  0.9474 -1.2123  1.0648
  662MOL0     H89350   6.629   8.673   7.261  0.1180  1.7788 -0.8160
  662MOL0     H89351   6.562   8.818   7.334 -0.6075  0.2281 -0.4431
  662MOL0     H89352   7.368   8.500   8.133 -0.2238 -1.4083 -0.6285
  662MOL0     H89353   7.398   8.512   8.381  0.0692  0.6017  1.1535
  662MOL0     H89354   7.334   8.435   8.716 -0.4739  0.9195 -0.9095
  662MOL0     H89355   7.436   8.404   8.935 -0.5453  0.3291 -0.9815
  662MOL0     H89356   8.457   7.801   9.153  0.0928 -1.9511 -1.2948
  662MOL0     H89357   8.623   7.944   9.288 -0.1521 -0.3798  1.4079
  662MOL0     H89358   9.134   7.735   9.629 -1.1806 -0.3865 -0.1365
  662MOL0     H89359   9.283   7.885   9.765 -0.2589  0.5352  0.5508
  662MOL0     H89360   9.109   8.149   9.899 -0.4181 -2.0364  0.3100
  662MOL0     H89361   9.253   8.053   9.959  3.7669 -1.2188 -2.4838
  662MOL0     H89362   9.382   8.231  10.021 -0.8135 -0.6211  2.1220
  662MOL0     H89363   9.227   8.267  10.075 -0.4932 -1.3203 -0.1102
  662MOL0     H89364   9.176   8.384   9.845 -1.1575 -0.3060  0.8429
  662MOL0     H89365   9.350   8.392   9.822 -3.1287 -1.7361 -3.1328
  662MOL0     H89366   9.226   8.498  10.083 -0.6907 -0.8132  0.1344
  662MOL0     H89367   9.222   8.585   9.935 -0.4388  2.1130  1.3634
  662MOL0     H89368   9.638   8.596   9.977  0.5879 -2.4383  0.9512
  662MOL0     H89369   9.162   8.222   9.554 -0.8651  0.2611 -1.2008
  662MOL0     H89370   9.019   8.086   9.402  4.5057 -1.0273 -3.8989
  663MOL0     O89371   0.276  10.703   8.997 -0.0848 -0.0164 -0.3957
  663MOL0     C89372   0.288  10.584   9.020  0.2597  0.3836 -0.2692
  663MOL0     O89373   0.243  10.527   9.138  0.2682  0.2321  0.8888
  663MOL0     C89374   0.188  10.601   9.233  0.3070 -0.4193 -0.5172
  663MOL0     C89375   0.051  10.632   9.235 -0.5680  0.1077  0.6404
  663MOL0     C89376   0.003  10.699   9.345  0.1220  0.2035  1.0279
  663MOL0     C89377   0.086  10.738   9.456 -0.2749  0.9529  0.9089
  663MOL0     O89378   0.047  10.824   9.553 -0.7275 -0.9162 -0.0412
  663MOL0     C89379  -0.081  10.894   9.542 -0.3041 -0.4468 -0.2161
  663MOL0     C89380  -0.193  10.832   9.619 -0.6013  0.5096  1.0775
  663MOL0     C89381  -0.321  10.910   9.601  0.6711 -0.2198  0.2472
  663MOL0     C89382  -0.403  10.872   9.472 -0.4129 -0.1971  0.1173
  663MOL0     C89383  -0.534  10.941   9.458  0.3882  0.1448  0.1341
  663MOL0     C89384  -0.610  10.893   9.331 -0.3581  0.2509 -0.4398
  663MOL0     C89385  -0.555  10.962   9.198  0.1043 -0.2343 -0.4090
  663MOL0     C89386  -0.640  10.920   9.069  0.1262 -1.1511  0.2866
  663MOL0     N89387  -0.749  11.009   9.046 -0.3355 -0.0340 -0.1571
  663MOL0     C89388  -0.749  11.144   9.025  0.7705 -0.5568 -0.0481
  663MOL0     C89389  -0.884  11.182   9.019 -0.2970  0.9261  0.2143
  663MOL0     C89390  -0.936  11.318   8.980 -0.4389  0.0475  0.2829
  663MOL0     C89391  -0.866  11.389   8.856  0.2493 -0.0703  0.2104
  663MOL0     C89392  -0.912  11.531   8.811 -0.2553 -0.0140  0.6951
  663MOL0     C89393  -0.834  11.595   8.693 -0.8858 -0.0515  0.1219
  663MOL0     O89394  -0.868  11.530   8.574  0.1396 -0.0337 -0.6530
  663MOL0     C89395  -0.761  11.490   8.502  0.6590  0.7554  0.2422
  663MOL0     C89396  -0.742  11.557   8.388 -0.2703  0.7148  0.5183
  663MOL0     C89397  -0.626  11.544   8.314 -0.2411  0.3782  1.0019
  663MOL0     C89398  -0.599  11.633   8.204  0.2829 -0.0795 -0.1962
  663MOL0     C89399  -0.533  11.438   8.352 -0.0809 -0.8987  0.0513
  663MOL0     C89400  -0.401  11.425   8.286  0.5923  0.4606  0.1382
  663MOL0     O89401  -0.318  11.319   8.340  0.6915 -0.1047 -0.2942
  663MOL0     C89402  -0.183  11.329   8.329  0.1186  0.0894  1.3852
  663MOL0     C89403  -0.127  11.258   8.229  0.0975  0.5033  0.4490
  663MOL0     C89404   0.010  11.250   8.212  0.2526  0.7439  0.2859
  663MOL0     C89405   0.094  11.328   8.290 -0.5291 -0.4105 -0.5026
  663MOL0     O89406   0.221  11.344   8.250 -0.1411 -0.6168  0.9756
  663MOL0     C89407   0.286  11.471   8.272  0.4447  0.6314 -0.3910
  663MOL0     C89408   0.427  11.470   8.205 -0.3481 -0.5306 -0.6989
  663MOL0     C89409   0.492  11.609   8.220  0.8235  0.0032 -0.1869
  663MOL0     C89410   0.642  11.592   8.202  0.4144 -0.0875  0.7465
  663MOL0     C89411   0.712  11.725   8.206 -0.1734  0.0136 -1.0391
  663MOL0     C89412   0.863  11.713   8.227  0.2401  0.4249 -0.1056
  663MOL0     C89413   0.939  11.653   8.108  0.5571  0.6122 -0.7060
  663MOL0     C89414   1.085  11.685   8.121 -0.1203 -1.0685 -0.2699
  663MOL0    Cl89415   1.141  11.634   8.284 -0.2024 -0.4088  0.4476
  663MOL0     C89416   0.038  11.397   8.405 -0.1471  0.1671  1.3192
  663MOL0     C89417  -0.102  11.403   8.418 -0.2964 -0.8715 -0.1682
  663MOL0     O89418  -0.345  11.514   8.219  0.3679 -0.1240  0.1646
  663MOL0     C89419  -0.558  11.352   8.452  0.3584 -0.1721 -0.6278
  663MOL0     C89420  -0.665  11.388   8.539  0.0318 -0.1730 -0.0681
  663MOL0     N89421  -0.964  11.073   9.038 -0.4050 -0.1453  0.0849
  663MOL0     N89422  -0.876  10.980   9.050  0.3571  0.0362  0.6994
  663MOL0     C89423   0.223  10.712   9.449 -0.0066  0.2399 -0.5304
  663MOL0     C89424   0.275  10.642   9.342  0.1747  0.4469  0.2368
  663MOL0     C89425   0.342  10.487   8.916 -0.6718 -0.0167  0.0719
  663MOL0     C89426   0.359  10.349   8.929 -0.2615 -1.1104 -0.4864
  663MOL0     C89427   0.407  10.269   8.826 -0.1340 -0.2315  0.4926
  663MOL0     C89428   0.436  10.318   8.700  0.6993 -0.4587  0.5967
  663MOL0     O89429   0.489  10.253   8.591  0.4825 -0.3663 -0.6364
  663MOL0     C89430   0.583  10.160   8.625 -0.5205  0.1560 -0.7285
  663MOL0     C89431   0.622  10.087   8.494  0.1282  0.9054 -0.2857
  663MOL0     C89432   0.767  10.129   8.454 -0.8893 -0.9344 -0.3894
  663MOL0     C89433   0.824  10.058   8.327 -0.4408  0.1479  0.1174
  663MOL0     C89434   0.822   9.914   8.353  0.8658  0.0432  0.3102
  663MOL0     C89435   0.800   9.793   8.355 -0.9542  0.9658  0.6278
  663MOL0     C89436   0.428  10.461   8.695  0.1127 -0.1907  0.8278
  663MOL0     C89437   0.382  10.543   8.794 -0.6430 -0.1006 -0.5229
  663MOL0     H89438  -0.013  10.600   9.153 -1.6097  2.4554  0.4325
  663MOL0     H89439  -0.104  10.718   9.336  0.4329  1.3862 -0.6856
  663MOL0     H89440  -0.072  11.001   9.566 -3.6243  0.5446 -2.6449
  663MOL0     H89441  -0.113  10.907   9.439 -2.2979  0.3945  0.4623
  663MOL0     H89442  -0.201  10.726   9.591 -0.2145  1.1687 -1.8267
  663MOL0     H89443  -0.158  10.840   9.722  3.2610  0.5803 -0.0903
  663MOL0     H89444  -0.386  10.874   9.681  2.2394 -1.3232  1.0646
  663MOL0     H89445  -0.306  11.018   9.611  4.3573 -0.8376  3.2826
  663MOL0     H89446  -0.344  10.880   9.381 -2.2426  0.0605 -1.0825
  663MOL0     H89447  -0.427  10.766   9.488 -0.1151  0.0138  2.2626
  663MOL0     H89448  -0.598  10.918   9.543  0.6347 -0.4065  0.1701
  663MOL0     H89449  -0.524  11.050   9.465  2.3607 -0.0405  0.7860
  663MOL0     H89450  -0.607  10.784   9.324  4.3147  0.2234 -1.8564
  663MOL0     H89451  -0.717  10.915   9.330 -0.9167 -1.9039 -3.6584
  663MOL0     H89452  -0.539  11.067   9.222 -0.7734 -0.2297  0.2002
  663MOL0     H89453  -0.455  10.918   9.185  0.5617  0.1209  1.5200
  663MOL0     H89454  -0.668  10.815   9.075  0.8130 -1.2631  2.1102
  663MOL0     H89455  -0.567  10.911   8.989 -1.3223 -2.1322 -0.9841
  663MOL0     H89456  -0.670  11.217   9.009 -1.3451  2.2535  1.4133
  663MOL0     H89457  -1.043  11.325   8.955 -0.0654  1.2344 -1.1059
  663MOL0     H89458  -0.924  11.381   9.068  1.8525  2.3941 -1.5660
  663MOL0     H89459  -0.875  11.321   8.771 -3.2448  2.7021 -1.9094
  663MOL0     H89460  -0.758  11.384   8.868  0.5101  0.5272 -1.5742
  663MOL0     H89461  -0.890  11.594   8.898  4.1904 -0.9957  0.5478
  663MOL0     H89462  -1.018  11.528   8.788 -0.7479 -2.8566  2.7882
  663MOL0     H89463  -0.725  11.588   8.702 -0.8208  0.4220 -0.2421
  663MOL0     H89464  -0.856  11.702   8.689  0.5811  0.2994  0.6214
  663MOL0     H89465  -0.823  11.609   8.339  0.2127  1.4017  0.4438
  663MOL0     H89466  -0.556  11.582   8.118  2.1933 -0.6876  1.0693
  663MOL0     H89467  -0.690  11.688   8.174  0.4563  0.9812  1.1471
  663MOL0     H89468  -0.535  11.714   8.239  1.1121 -1.1960  0.9366
  663MOL0     H89469  -0.186  11.214   8.149 -2.4421  3.5476  0.4535
  663MOL0     H89470   0.047  11.184   8.135 -0.0045  1.0714 -0.1247
  663MOL0     H89471   0.232  11.559   8.236 -1.2440  0.3380  1.2889
  663MOL0     H89472   0.300  11.491   8.379  0.9088  2.6197 -0.7762
  663MOL0     H89473   0.486  11.386   8.243 -1.0975 -0.3535  0.9142
  663MOL0     H89474   0.422  11.446   8.098 -0.5246 -4.1316 -0.0075
  663MOL0     H89475   0.464  11.669   8.307  0.8929 -2.1482  1.4016
  663MOL0     H89476   0.460  11.655   8.127  1.7878  0.1314 -0.4693
  663MOL0     H89477   0.684  11.531   8.282  1.5078 -3.2909 -2.0543
  663MOL0     H89478   0.665  11.534   8.113  1.6150 -2.7176  2.6305
  663MOL0     H89479   0.672  11.790   8.284  2.4936  0.7461 -0.1771
  663MOL0     H89480   0.697  11.783   8.114  2.3634  1.5530 -0.5540
  663MOL0     H89481   0.900  11.816   8.238 -2.0371  1.1388  1.7373
  663MOL0     H89482   0.880  11.660   8.321 -0.0280  0.6993  0.0988
  663MOL0     H89483   0.897  11.682   8.011 -0.1613  1.0232 -0.2825
  663MOL0     H89484   0.930  11.544   8.110 -2.3329  0.6337 -3.9771
  663MOL0     H89485   1.104  11.792   8.121 -0.2432 -1.0267  1.1388
  663MOL0     H89486   1.129  11.641   8.030 -0.2648  0.5627 -1.1603
  663MOL0     H89487   0.099  11.457   8.472  0.7902 -0.6185  1.1901
  663MOL0     H89488  -0.151  11.461   8.495  2.7792  0.7300  0.7487
  663MOL0     H89489  -0.494  11.267   8.476 -1.6034 -1.8570 -1.0139
  663MOL0     H89490  -0.687  11.320   8.620  1.4347  1.3185  1.6616
  663MOL0     H89491   0.278  10.723   9.542  0.4225 -2.5569 -0.3519
  663MOL0     H89492   0.373  10.596   9.337 -0.1288 -0.3439  1.2658
  663MOL0     H89493   0.331  10.297   9.020 -2.2246 -0.7132 -0.8255
  663MOL0     H89494   0.421  10.162   8.840 -1.3369 -1.2043 -3.9185
  663MOL0     H89495   0.669  10.212   8.668 -1.5664 -1.7965  4.4804
  663MOL0     H89496   0.546  10.089   8.700  4.4449 -0.5679  1.3918
  663MOL0     H89497   0.548  10.096   8.414 -0.2631  0.2041 -0.0033
  663MOL0     H89498   0.623   9.981   8.520 -0.4334  1.1412  0.7607
  663MOL0     H89499   0.831  10.123   8.542  1.5399 -1.8299 -2.0996
  663MOL0     H89500   0.780  10.230   8.416  3.9758 -1.3292 -0.4467
  663MOL0     H89501   0.927  10.092   8.314 -1.3907  2.5845 -1.9811
  663MOL0     H89502   0.765  10.081   8.237  0.1888 -1.4708 -0.7554
  663MOL0     H89503   0.789   9.688   8.338  1.6182  0.6762  0.4250
  663MOL0     H89504   0.451  10.492   8.594 -1.5321  0.1312  0.5226
  663MOL0     H89505   0.378  10.651   8.782  1.6795 -0.1083 -2.0018
  664MOL0     O89506   2.229  11.103   8.521  0.2172 -0.3542  0.4238
  664MOL0     C89507   2.312  11.012   8.537  0.0210  0.4951  0.5142
  664MOL0     O89508   2.333  10.947   8.650  0.0875 -0.0768 -0.1959
  664MOL0     C89509   2.234  10.940   8.743  0.2976  0.0522 -0.0245
  664MOL0     C89510   2.100  10.931   8.712 -0.0381  0.1274 -0.8631
  664MOL0     C89511   2.002  10.905   8.814 -0.0896 -0.5672  0.3809
  664MOL0     C89512   2.035  10.931   8.946  0.0842 -0.1113  0.8963
  664MOL0     O89513   1.928  10.940   9.041  0.0941  0.2371 -0.5309
  664MOL0     C89514   1.942  10.994   9.174 -0.1170  0.1675  0.4942
  664MOL0     C89515   1.950  10.893   9.290  0.3110  0.2675  0.0838
  664MOL0     C89516   1.824  10.809   9.310 -0.4276 -0.2181 -0.7613
  664MOL0     C89517   1.843  10.703   9.420 -0.6789 -1.6539  0.7774
  664MOL0     C89518   1.714  10.618   9.451 -0.1149 -0.2754  0.1917
  664MOL0     C89519   1.654  10.553   9.329 -0.1751 -0.0794  0.7796
  664MOL0     C89520   1.528  10.474   9.361 -0.1839  0.4302  0.5873
  664MOL0     C89521   1.534  10.329   9.322  0.3769  0.3143 -0.4815
  664MOL0     N89522   1.546  10.323   9.178  0.4542  0.0352  0.5975
  664MOL0     C89523   1.669  10.292   9.115 -0.1221  0.2920  0.6743
  664MOL0     C89524   1.644  10.309   8.985  0.3246  0.0317  0.3027
  664MOL0     C89525   1.746  10.289   8.882  0.7185 -0.2795 -0.4302
  664MOL0     C89526   1.741  10.150   8.809 -0.5700 -0.2261  0.5647
  664MOL0     C89527   1.828  10.169   8.681  0.6742 -0.0821 -1.0459
  664MOL0     C89528   1.823  10.055   8.583 -0.0478 -0.0976 -0.0741
  664MOL0     O89529   1.875   9.932   8.648 -0.2547 -0.3004 -0.1416
  664MOL0     C89530   1.907   9.821   8.572  0.7003  0.2735 -0.2200
  664MOL0     C89531   1.851   9.814   8.439 -0.2639  0.0006 -1.0968
  664MOL0     C89532   1.879   9.701   8.363  0.7110  0.5749 -0.0757
  664MOL0     C89533   1.812   9.695   8.232 -0.0905  1.6638 -0.4985
  664MOL0     C89534   1.981   9.603   8.403 -0.4608  0.4594 -0.0169
  664MOL0     C89535   2.057   9.514   8.303 -0.0896  1.6804 -0.6338
  664MOL0     O89536   2.055   9.541   8.178 -0.1640  0.0482  0.5825
  664MOL0     C89537   2.119   9.475   8.079  0.1198 -0.0757  0.8187
  664MOL0     C89538   2.183   9.546   7.977 -0.2314  0.2322 -0.0293
  664MOL0     C89539   2.241   9.478   7.870  0.1889  0.3490 -0.1614
  664MOL0     C89540   2.222   9.342   7.857  0.4643  0.2254  0.0490
  664MOL0     O89541   2.261   9.296   7.742 -0.9484  0.2865 -0.0737
  664MOL0     C89542   2.179   9.329   7.632  0.6151 -0.4411 -0.1941
  664MOL0     C89543   2.217   9.251   7.506  0.2996  0.7308 -0.2426
  664MOL0     C89544   2.090   9.220   7.419 -0.8367 -0.4995  0.0950
  664MOL0     C89545   2.112   9.132   7.294 -0.6112 -0.1802  0.0486
  664MOL0     C89546   1.995   9.037   7.283  0.0386  1.0847  1.2596
  664MOL0     C89547   2.041   8.922   7.187 -0.1934  0.5464  0.2401
  664MOL0     C89548   2.121   8.956   7.065  0.6190  0.4979 -0.0050
  664MOL0     C89549   2.048   9.049   6.975  1.2536 -0.3732 -0.6504
  664MOL0    Cl89550   2.162   9.124   6.851  0.3489  0.0744  0.2122
  664MOL0     C89551   2.173   9.270   7.963 -0.0214  0.7074 -1.5546
  664MOL0     C89552   2.117   9.338   8.076 -0.1484 -1.0178 -0.5535
  664MOL0     O89553   2.109   9.414   8.350  0.4339  0.2792  0.4451
  664MOL0     C89554   2.019   9.607   8.537  0.3902 -0.4871 -0.6960
  664MOL0     C89555   1.976   9.715   8.626 -1.2130  0.0966  0.5228
  664MOL0     N89556   1.507  10.335   8.974 -0.1238  0.4293  0.8020
  664MOL0     N89557   1.441  10.335   9.087  0.1086  0.1720 -0.1413
  664MOL0     C89558   2.176  10.959   8.976  0.8854  0.3753 -0.9761
  664MOL0     C89559   2.272  10.949   8.878 -0.9823 -1.5031  0.0668
  664MOL0     C89560   2.385  10.971   8.414  0.1881 -0.3605 -0.6463
  664MOL0     C89561   2.477  10.865   8.416  0.0971 -0.2413  0.8358
  664MOL0     C89562   2.570  10.846   8.313 -0.3041  0.1796 -0.5558
  664MOL0     C89563   2.572  10.928   8.195  0.1279 -0.7626 -0.7498
  664MOL0     O89564   2.653  10.899   8.088  0.3647 -0.1362  0.1904
  664MOL0     C89565   2.758  10.803   8.092 -0.0630 -0.3274 -0.1467
  664MOL0     C89566   2.734  10.677   8.003 -0.6559  0.0862  0.7163
  664MOL0     C89567   2.825  10.555   8.040 -0.4771  0.6876 -0.5929
  664MOL0     C89568   2.852  10.468   7.916 -0.4285  1.0509 -0.0525
  664MOL0     C89569   2.912  10.548   7.812 -1.2704  0.6992  0.1042
  664MOL0     C89570   2.958  10.599   7.714  0.0810 -0.6372 -0.4733
  664MOL0     C89571   2.483  11.038   8.189  0.7903  0.1233 -0.6534
  664MOL0     C89572   2.387  11.049   8.300  0.2983 -0.9839 -0.1860
  664MOL0     H89573   2.076  10.941   8.606  1.9106  0.9831 -1.2659
  664MOL0     H89574   1.901  10.882   8.781 -0.2767 -1.8376  1.7737
  664MOL0     H89575   2.032  11.057   9.167 -2.0303  2.8505 -1.7866
  664MOL0     H89576   1.856  11.059   9.189 -2.0918 -1.0432 -4.0547
  664MOL0     H89577   2.034  10.830   9.260 -2.5879 -4.1484  0.3081
  664MOL0     H89578   1.982  10.935   9.386  2.3970 -1.7263  0.3564
  664MOL0     H89579   1.751  10.873   9.360 -0.1416 -1.8585  1.9238
  664MOL0     H89580   1.789  10.774   9.212  2.6771  2.1656 -2.9506
  664MOL0     H89581   1.917  10.631   9.382 -0.0508 -1.0503  0.8371
  664MOL0     H89582   1.875  10.762   9.506 -1.0794  1.4635 -1.0520
  664MOL0     H89583   1.739  10.550   9.533  0.4515 -1.7014 -1.1007
  664MOL0     H89584   1.636  10.688   9.480  0.2173  0.5025 -0.7466
  664MOL0     H89585   1.626  10.629   9.255  1.9454  1.1697  1.1670
  664MOL0     H89586   1.726  10.482   9.288 -1.6485 -0.4976 -1.2616
  664MOL0     H89587   1.507  10.476   9.469 -0.8736 -0.7355  0.4827
  664MOL0     H89588   1.442  10.513   9.307 -0.4934 -0.4402  0.4386
  664MOL0     H89589   1.456  10.268   9.369 -2.7272  2.4052 -2.6052
  664MOL0     H89590   1.623  10.279   9.365 -1.4194 -3.5051 -0.7571
  664MOL0     H89591   1.769  10.279   9.154  0.3034 -4.3944 -1.2943
  664MOL0     H89592   1.736  10.370   8.809 -0.0106  0.5848  0.5937
  664MOL0     H89593   1.844  10.304   8.930  0.8395  1.8149 -1.2123
  664MOL0     H89594   1.644  10.115   8.772 -0.1109 -0.7486 -0.1682
  664MOL0     H89595   1.798  10.074   8.864  1.0924 -1.4236 -2.5932
  664MOL0     H89596   1.931  10.168   8.718  0.7677 -3.3787 -1.1392
  664MOL0     H89597   1.801  10.261   8.627 -2.1232 -0.5589 -0.5848
  664MOL0     H89598   1.878  10.074   8.491 -1.1598  2.3561 -0.3103
  664MOL0     H89599   1.718  10.026   8.566 -0.5037 -0.2776  2.5258
  664MOL0     H89600   1.792   9.892   8.391  0.8647 -0.5019 -3.4729
  664MOL0     H89601   1.882   9.734   8.158 -1.3894  0.4174 -2.4862
  664MOL0     H89602   1.776   9.596   8.203  2.0170  0.8929 -0.6618
  664MOL0     H89603   1.718   9.751   8.241 -0.9132  0.8398 -3.1505
  664MOL0     H89604   2.177   9.654   7.987 -3.4858 -0.0320  2.5213
  664MOL0     H89605   2.277   9.538   7.787  0.4759 -1.5296 -1.4657
  664MOL0     H89606   2.077   9.314   7.666  1.1781  0.6249  2.1620
  664MOL0     H89607   2.186   9.436   7.610 -1.4565 -0.2401 -0.0592
  664MOL0     H89608   2.289   9.316   7.456 -1.4836  0.5982 -3.1953
  664MOL0     H89609   2.271   9.158   7.525  2.6279  2.0438 -0.0858
  664MOL0     H89610   2.065   9.323   7.391  2.0339  0.2256 -0.1874
  664MOL0     H89611   2.007   9.176   7.475 -0.0056 -1.4045  0.6334
  664MOL0     H89612   2.122   9.195   7.205  1.0745 -2.8780 -1.7970
  664MOL0     H89613   2.207   9.087   7.325 -0.2947  2.0239  2.8215
  664MOL0     H89614   1.907   9.089   7.244 -0.7025  0.6590  2.2743
  664MOL0     H89615   1.959   8.996   7.379 -1.5973 -0.9650 -0.1233
  664MOL0     H89616   2.096   8.853   7.252  1.4743  0.1587 -1.4796
  664MOL0     H89617   1.953   8.871   7.147 -0.6953  1.7814 -0.2903
  664MOL0     H89618   2.126   8.858   7.017 -0.5047 -0.0694  0.9787
  664MOL0     H89619   2.221   8.993   7.089  1.0207 -0.1382 -0.6454
  664MOL0     H89620   2.007   9.133   7.031 -0.8999 -0.0897 -2.5079
  664MOL0     H89621   1.967   9.001   6.920  1.9247  0.5112 -2.4963
  664MOL0     H89622   2.174   9.162   7.950 -2.1765  0.3494  0.6053
  664MOL0     H89623   2.060   9.291   8.155 -0.6583  0.5132  0.0352
  664MOL0     H89624   2.099   9.545   8.575 -0.2028 -2.0960 -1.9877
  664MOL0     H89625   2.029   9.705   8.721 -2.4682 -4.6133  1.0106
  664MOL0     H89626   2.211  10.975   9.078 -0.6849  0.0201 -0.3431
  664MOL0     H89627   2.378  10.962   8.898 -0.4148 -2.7785 -1.8828
  664MOL0     H89628   2.467  10.806   8.507 -1.3441  0.9112  1.4750
  664MOL0     H89629   2.639  10.763   8.314  0.3527  0.5941 -3.1528
  664MOL0     H89630   2.850  10.847   8.051 -1.0081  1.3929 -0.5047
  664MOL0     H89631   2.776  10.769   8.194 -2.1102 -1.1247 -0.0177
  664MOL0     H89632   2.743  10.710   7.899 -0.9265 -2.0956 -0.0494
  664MOL0     H89633   2.629  10.647   8.015 -0.2629 -0.8300  2.0968
  664MOL0     H89634   2.769  10.498   8.115 -3.8236  0.5711 -2.9411
  664MOL0     H89635   2.919  10.588   8.083 -0.0686  0.1915 -1.0972
  664MOL0     H89636   2.765  10.418   7.873 -0.8966  1.4288  0.4521
  664MOL0     H89637   2.928  10.400   7.955 -2.5016  0.6957  3.8166
  664MOL0     H89638   3.001  10.649   7.630  0.2008  2.2137  1.1212
  664MOL0     H89639   2.473  11.101   8.102  0.9201  2.1243  0.6966
  664MOL0     H89640   2.315  11.131   8.301  0.4766 -0.7637 -1.8952
  665MOL0     O89641   4.849   9.541   8.147 -0.9769 -0.7566  0.1331
  665MOL0     C89642   4.816   9.445   8.094 -0.1875  0.8151  1.1052
  665MOL0     O89643   4.794   9.326   8.154  1.8532  0.4486 -0.6918
  665MOL0     C89644   4.849   9.287   8.270 -0.6571  0.5178 -0.0741
  665MOL0     C89645   4.983   9.326   8.301 -0.6873 -0.9423  0.1347
  665MOL0     C89646   5.053   9.269   8.405 -0.5696 -0.3675  0.5175
  665MOL0     C89647   5.000   9.168   8.482  0.5910 -0.4634  0.3107
  665MOL0     O89648   5.058   9.119   8.590 -0.4471  0.0549 -0.6978
  665MOL0     C89649   5.201   9.127   8.624 -0.1438 -0.8075 -0.7044
  665MOL0     C89650   5.193   9.172   8.779 -0.7196 -0.5243 -0.0930
  665MOL0     C89651   5.329   9.191   8.869  0.8584 -0.3382  0.7222
  665MOL0     C89652   5.434   9.082   8.848  0.7239  0.3038 -1.2830
  665MOL0     C89653   5.571   9.116   8.906  0.3408  0.1079  0.3064
  665MOL0     C89654   5.668   8.998   8.896  0.0320 -0.0332 -0.0179
  665MOL0     C89655   5.755   8.991   9.028  0.1681 -0.0031 -0.0827
  665MOL0     C89656   5.682   8.907   9.139 -0.2490 -0.2490  0.3377
  665MOL0     N89657   5.728   8.964   9.264  0.2783  1.1468 -0.3451
  665MOL0     C89658   5.856   8.946   9.314  0.2703  0.8000  0.8253
  665MOL0     C89659   5.878   9.035   9.412 -0.6519  0.1223  1.3634
  665MOL0     C89660   5.993   9.062   9.504 -0.5866  0.2472 -0.2285
  665MOL0     C89661   5.950   9.038   9.649  0.2068  0.3090  0.0769
  665MOL0     C89662   6.062   8.987   9.737  0.3432  0.7189  0.1536
  665MOL0     C89663   6.033   8.983   9.885 -1.3479  0.4106 -0.9100
  665MOL0     O89664   6.143   8.925   9.949  0.1725  0.7211 -0.0552
  665MOL0     C89665   6.236   8.996  10.014 -0.3164 -0.3303  0.7516
  665MOL0     C89666   6.309   9.097   9.959 -0.5024  0.3223 -0.1696
  665MOL0     C89667   6.391   9.183  10.032 -0.7349 -0.2388 -0.1297
  665MOL0     C89668   6.481   9.281   9.956  0.2496 -0.0552 -0.1591
  665MOL0     C89669   6.390   9.173  10.172 -1.6140  0.0953  0.1784
  665MOL0     C89670   6.456   9.270  10.263  0.3552  0.1336  0.3728
  665MOL0     O89671   6.498   9.222  10.381 -0.0993  0.1818  0.7250
  665MOL0     C89672   6.574   9.298  10.469  0.4087  0.2163  0.4027
  665MOL0     C89673   6.678   9.393  10.428  0.3078  1.3811 -0.2317
  665MOL0     C89674   6.758   9.462  10.527 -0.4070 -0.0864 -0.3514
  665MOL0     C89675   6.724   9.440  10.659  0.8155 -0.3783  0.1907
  665MOL0     O89676   6.784   9.505  10.763 -0.2924 -0.6877  0.2243
  665MOL0     C89677   6.892   9.591  10.736  0.2085 -0.0084 -0.1620
  665MOL0     C89678   6.961   9.621  10.873  0.1577 -0.1483 -0.5297
  665MOL0     C89679   6.872   9.683  10.976  0.0343  0.0528 -0.3284
  665MOL0     C89680   6.960   9.771  11.069 -0.2556 -0.2864 -0.3688
  665MOL0     C89681   6.877   9.822  11.192 -0.5836 -0.8590  0.9646
  665MOL0     C89682   6.761   9.916  11.159  0.2115  0.4203  0.2322
  665MOL0     C89683   6.682   9.944  11.301  0.7928 -0.2894  0.2299
  665MOL0     C89684   6.603  10.068  11.280  0.2155  1.4869 -0.2029
  665MOL0    Cl89685   6.467  10.044  11.161  0.6072  0.4054 -0.3532
  665MOL0     C89686   6.617   9.357  10.699 -1.1955  0.2454 -0.3018
  665MOL0     C89687   6.549   9.284  10.607  0.4718 -0.6437 -0.0026
  665MOL0     O89688   6.447   9.389  10.239 -1.0702  0.3518  0.0444
  665MOL0     C89689   6.319   9.063  10.225 -0.8303  0.1943 -0.3245
  665MOL0     C89690   6.238   8.981  10.151  0.7259 -0.2879 -0.2671
  665MOL0     N89691   5.769   9.120   9.406  0.8527  0.8227 -0.1240
  665MOL0     N89692   5.678   9.080   9.323 -0.2528  1.0300  0.3727
  665MOL0     C89693   4.865   9.129   8.452 -0.1743 -0.2903  0.6782
  665MOL0     C89694   4.789   9.188   8.350 -0.4904  0.2182 -0.6291
  665MOL0     C89695   4.790   9.440   7.941  0.1085 -0.5406 -0.5869
  665MOL0     C89696   4.856   9.529   7.858 -0.5166 -1.1822  0.5310
  665MOL0     C89697   4.844   9.522   7.719  0.3397 -0.3232 -0.1803
  665MOL0     C89698   4.748   9.441   7.664  0.0740  0.4070  0.1587
  665MOL0     O89699   4.730   9.447   7.531 -0.1199  0.3904 -0.2165
  665MOL0     C89700   4.654   9.346   7.458  0.4027  0.3649  0.3866
  665MOL0     C89701   4.607   9.404   7.319  0.0827  1.0139 -0.1419
  665MOL0     C89702   4.732   9.463   7.247 -0.0378 -0.1921  0.3494
  665MOL0     C89703   4.696   9.497   7.101  0.6560 -0.8301 -0.6565
  665MOL0     C89704   4.805   9.575   7.040 -0.9656  0.8067 -1.1669
  665MOL0     C89705   4.889   9.644   6.985 -0.4146  0.4235  0.3380
  665MOL0     C89706   4.673   9.349   7.750 -0.1546 -0.0767  0.1316
  665MOL0     C89707   4.694   9.351   7.885  0.6595  1.1631  0.6644
  665MOL0     H89708   5.035   9.398   8.237  1.5336 -1.4000  1.3505
  665MOL0     H89709   5.157   9.299   8.416 -0.6043 -0.9795  3.1782
  665MOL0     H89710   5.248   9.029   8.614  0.4331 -0.4343 -1.7625
  665MOL0     H89711   5.257   9.182   8.548  0.8135 -1.3305 -0.4025
  665MOL0     H89712   5.149   9.272   8.783 -0.1800 -0.2800 -0.0582
  665MOL0     H89713   5.122   9.102   8.824 -0.4712 -0.5979  0.1912
  665MOL0     H89714   5.374   9.288   8.846  2.2293 -0.7917  1.3472
  665MOL0     H89715   5.288   9.186   8.970  1.1413  0.8451  0.9097
  665MOL0     H89716   5.408   8.994   8.907  3.8219  0.5546  0.6990
  665MOL0     H89717   5.438   9.056   8.742 -1.4060 -1.5255 -0.9833
  665MOL0     H89718   5.617   9.206   8.863  0.3188 -0.9616 -2.0819
  665MOL0     H89719   5.565   9.150   9.010  2.6350  2.1204 -0.1220
  665MOL0     H89720   5.608   8.908   8.882 -0.2942  0.0558  0.7730
  665MOL0     H89721   5.732   9.017   8.809 -1.1902 -1.4656 -1.2775
  665MOL0     H89722   5.841   8.929   9.001  1.5191  0.5270  2.6790
  665MOL0     H89723   5.776   9.091   9.065 -0.7338  1.2431 -2.6679
  665MOL0     H89724   5.704   8.800   9.130  0.1255 -0.2222  0.8516
  665MOL0     H89725   5.574   8.924   9.131  0.4166  4.1531 -2.1634
  665MOL0     H89726   5.922   8.862   9.295 -0.7064 -0.0332  1.0145
  665MOL0     H89727   6.084   9.006   9.481  1.0120  1.7883  1.9524
  665MOL0     H89728   6.013   9.170   9.496 -0.7353  0.2537 -0.5150
  665MOL0     H89729   5.870   8.964   9.652  0.4296  0.0602 -0.0580
  665MOL0     H89730   5.904   9.129   9.689  0.1603  0.4311 -0.2517
  665MOL0     H89731   6.150   9.050   9.728  0.9377  0.3187  2.5102
  665MOL0     H89732   6.079   8.882   9.712  0.0434  0.7930 -0.3834
  665MOL0     H89733   5.945   8.922   9.904 -0.6040 -0.4398 -0.0494
  665MOL0     H89734   6.012   9.084   9.922 -0.3972 -0.0103  0.9230
  665MOL0     H89735   6.306   9.114   9.852 -1.9800  2.5174  0.1487
  665MOL0     H89736   6.545   9.228   9.885 -2.0281 -5.5265  1.2816
  665MOL0     H89737   6.417   9.358   9.911 -4.6327 -2.1182  2.4275
  665MOL0     H89738   6.549   9.327  10.028 -0.8736  3.3607 -1.0985
  665MOL0     H89739   6.699   9.399  10.322 -1.0040 -0.9149 -0.6824
  665MOL0     H89740   6.833   9.536  10.502 -0.2414 -0.2472 -0.3401
  665MOL0     H89741   6.970   9.564  10.664  0.5685  0.7220 -0.0581
  665MOL0     H89742   6.855   9.687  10.700  2.0809  0.5751 -0.6426
  665MOL0     H89743   6.999   9.525  10.910  1.9957  0.7114 -0.0646
  665MOL0     H89744   7.044   9.688  10.846 -0.6704  0.7862 -0.8224
  665MOL0     H89745   6.823   9.616  11.048  0.5114  2.7931  2.7146
  665MOL0     H89746   6.785   9.743  10.948 -0.2480  0.7719  1.9411
  665MOL0     H89747   7.047   9.712  11.101 -1.1144 -2.5377 -2.0012
  665MOL0     H89748   6.997   9.861  11.019  2.4070 -2.2367 -2.1762
  665MOL0     H89749   6.946   9.883  11.251 -0.9576  2.6669 -1.8960
  665MOL0     H89750   6.847   9.735  11.252  3.6461 -2.1932  1.5032
  665MOL0     H89751   6.802  10.010  11.122 -1.5588  2.3968  2.9499
  665MOL0     H89752   6.696   9.859  11.093  0.0402 -2.0759  2.3705
  665MOL0     H89753   6.761   9.954  11.376 -0.7586 -1.0917  2.0464
  665MOL0     H89754   6.615   9.863  11.331  0.9737 -0.3284  0.5320
  665MOL0     H89755   6.673  10.146  11.250  2.4814 -0.2253  0.3892
  665MOL0     H89756   6.554  10.095  11.374  0.0780 -1.2574  0.6063
  665MOL0     H89757   6.592   9.353  10.805 -0.5392 -0.5840 -0.1649
  665MOL0     H89758   6.477   9.211  10.644 -1.7939  0.3363 -2.1909
  665MOL0     H89759   6.329   9.050  10.333  0.2922 -0.5616 -0.5057
  665MOL0     H89760   6.187   8.895  10.194 -1.6727  1.4183  0.5331
  665MOL0     H89761   4.819   9.066   8.527  2.7448 -1.1892  1.8639
  665MOL0     H89762   4.683   9.167   8.342 -0.1352 -1.1504 -2.2030
  665MOL0     H89763   4.911   9.611   7.904 -2.6501  0.7670 -0.1933
  665MOL0     H89764   4.897   9.598   7.663 -2.4532  0.2696 -2.2130
  665MOL0     H89765   4.704   9.249   7.449 -1.0312 -0.4584  0.7762
  665MOL0     H89766   4.563   9.325   7.517 -0.2139  1.0996 -0.2835
  665MOL0     H89767   4.521   9.471   7.324 -2.3148 -1.9922  2.1767
  665MOL0     H89768   4.588   9.320   7.252 -3.4369  0.8582  0.8504
  665MOL0     H89769   4.824   9.403   7.257  1.1251  1.0738 -1.8860
  665MOL0     H89770   4.756   9.561   7.290 -3.0015  1.1278 -0.8116
  665MOL0     H89771   4.612   9.567   7.112  1.9140  0.3705  2.0716
  665MOL0     H89772   4.673   9.400   7.055 -0.5353 -1.0022  0.2495
  665MOL0     H89773   4.956   9.718   6.946 -2.0926  1.6857 -0.2559
  665MOL0     H89774   4.602   9.277   7.710  0.2381 -1.0460  1.1087
  665MOL0     H89775   4.654   9.283   7.960 -0.3706  0.6022 -0.3476
  666MOL0     O89776   8.132   1.001   2.373 -0.2393 -0.0220 -0.0215
  666MOL0     C89777   8.168   1.026   2.484 -0.0503 -0.1285 -0.2339
  666MOL0     O89778   8.094   1.045   2.592  0.8282 -0.6198 -0.2860
  666MOL0     C89779   7.956   1.043   2.589 -0.2062  0.3623 -0.1271
  666MOL0     C89780   7.903   1.022   2.718  0.9998 -0.1724  0.6004
  666MOL0     C89781   7.761   1.017   2.732 -0.5394  0.4403 -0.1571
  666MOL0     C89782   7.679   1.021   2.622  0.0876 -0.6754 -0.6979
  666MOL0     O89783   7.548   0.998   2.653  0.1588  0.3010 -0.5161
  666MOL0     C89784   7.452   1.038   2.563  1.3789  0.6915  0.7699
  666MOL0     C89785   7.317   0.978   2.605  0.7245  0.1296 -0.5762
  666MOL0     C89786   7.308   0.829   2.585 -0.6694  0.5907  0.8213
  666MOL0     C89787   7.160   0.783   2.621 -0.0008  0.5884  0.4634
  666MOL0     C89788   7.161   0.623   2.625 -0.8553  0.2640  0.1926
  666MOL0     C89789   7.029   0.545   2.637 -0.5469  0.1170 -0.3542
  666MOL0     C89790   6.915   0.609   2.719  0.0991  0.4671 -0.0226
  666MOL0     C89791   6.958   0.634   2.863  0.4707 -0.5948  0.1322
  666MOL0     N89792   6.844   0.694   2.927  0.4942 -0.3405  0.4842
  666MOL0     C89793   6.744   0.625   2.989  0.7258  0.0120 -0.2155
  666MOL0     C89794   6.639   0.710   3.006 -0.8817  0.2528  0.6246
  666MOL0     C89795   6.503   0.682   3.065  0.1547 -0.5177  0.5654
  666MOL0     C89796   6.391   0.783   3.033  0.0687  0.1179  1.3433
  666MOL0     C89797   6.263   0.767   3.111  0.1570 -0.2795 -0.8662
  666MOL0     C89798   6.247   0.887   3.206  1.1259  0.1469  0.0649
  666MOL0     O89799   6.148   0.853   3.299  0.0970  0.3674 -0.8584
  666MOL0     C89800   6.010   0.880   3.276 -0.9989 -0.0101  0.6604
  666MOL0     C89801   5.956   0.905   3.151 -0.2919 -0.1695  0.4165
  666MOL0     C89802   5.817   0.921   3.136 -0.8114 -0.8473  0.0286
  666MOL0     C89803   5.763   0.965   2.999  0.4712  1.3829 -0.4621
  666MOL0     C89804   5.737   0.929   3.259  0.3569 -0.0176 -0.0710
  666MOL0     C89805   5.585   0.920   3.259 -0.4313 -0.2230 -1.0585
  666MOL0     O89806   5.536   0.939   3.387 -0.1668 -0.0992  0.3802
  666MOL0     C89807   5.398   0.945   3.397  0.4940  0.9002  0.7485
  666MOL0     C89808   5.343   1.065   3.440  1.0653  0.4748 -0.2318
  666MOL0     C89809   5.199   1.077   3.443 -0.1931  0.1104 -0.5728
  666MOL0     C89810   5.111   0.962   3.426 -0.0810  0.8454 -0.4996
  666MOL0     O89811   4.979   0.957   3.461 -0.2409 -0.1629 -0.5357
  666MOL0     C89812   4.905   1.079   3.455  0.2048 -1.1057 -0.2913
  666MOL0     C89813   4.753   1.042   3.459  0.8140  0.1607 -0.0733
  666MOL0     C89814   4.680   1.168   3.488 -0.1588  0.9778 -0.1568
  666MOL0     C89815   4.532   1.162   3.499  0.2683 -0.4511 -0.4184
  666MOL0     C89816   4.477   1.302   3.511 -0.7658  0.2198 -1.1085
  666MOL0     C89817   4.326   1.294   3.534  0.6406  0.4609  0.4908
  666MOL0     C89818   4.253   1.430   3.516  0.2746  0.3285 -0.0044
  666MOL0     C89819   4.103   1.410   3.547 -0.0661  0.1844 -0.2373
  666MOL0    Cl89820   4.019   1.562   3.528 -0.5084  0.1338 -0.2235
  666MOL0     C89821   5.173   0.841   3.393  0.1615 -0.4173 -0.9272
  666MOL0     C89822   5.310   0.833   3.375 -0.6514 -0.0971  0.6775
  666MOL0     O89823   5.516   0.902   3.156 -0.1650  0.8110  0.1822
  666MOL0     C89824   5.802   0.907   3.380  0.4500 -0.2291  0.5269
  666MOL0     C89825   5.939   0.892   3.395 -0.3695  0.9872  0.1609
  666MOL0     N89826   6.681   0.834   2.962  0.2395  0.1127 -0.1910
  666MOL0     N89827   6.801   0.824   2.912  0.0753  0.8063 -0.2019
  666MOL0     C89828   7.734   1.048   2.495  0.0147 -0.4502  0.1935
  666MOL0     C89829   7.873   1.043   2.470 -0.8894  0.2431 -1.0719
  666MOL0     C89830   8.314   1.023   2.516 -0.2631  0.6808  0.1133
  666MOL0     C89831   8.408   1.056   2.418  0.1355  0.1458  0.0831
  666MOL0     C89832   8.540   1.061   2.454 -0.6287  0.2362 -0.4260
  666MOL0     C89833   8.593   1.048   2.587  0.8446 -0.0759 -0.1182
  666MOL0     O89834   8.725   1.082   2.606 -0.6802  0.4067 -0.4887
  666MOL0     C89835   8.767   1.056   2.737 -0.1271  0.0517  0.3738
  666MOL0     C89836   8.921   1.062   2.749  0.0231  0.1144 -0.5121
  666MOL0     C89837   8.991   1.179   2.673  0.4869  0.5412 -0.5713
  666MOL0     C89838   9.138   1.157   2.662 -0.1705  0.1059  0.5330
  666MOL0     C89839   9.204   1.259   2.579 -0.8573  0.2865 -0.6336
  666MOL0     C89840   9.255   1.340   2.510 -0.4847 -1.1839 -0.2402
  666MOL0     C89841   8.495   1.024   2.687  0.0674  0.4935 -0.5245
  666MOL0     C89842   8.359   1.000   2.650 -0.7604 -0.7833 -0.0417
  666MOL0     H89843   7.956   1.021   2.813 -4.1141 -2.0639  3.8925
  666MOL0     H89844   7.712   1.017   2.829 -0.9558  0.2598 -0.3641
  666MOL0     H89845   7.430   1.145   2.572 -1.4513  0.6888 -3.2858
  666MOL0     H89846   7.475   1.020   2.458  1.5079  4.4608  0.0120
  666MOL0     H89847   7.298   0.997   2.711  2.3554  0.2666 -0.2749
  666MOL0     H89848   7.244   1.029   2.541 -0.4871 -0.9086 -0.0450
  666MOL0     H89849   7.325   0.816   2.478 -3.9420  0.6896  0.1920
  666MOL0     H89850   7.387   0.777   2.640 -0.4675 -0.8319 -0.7652
  666MOL0     H89851   7.118   0.821   2.715  0.0357 -0.8707  1.0993
  666MOL0     H89852   7.087   0.815   2.545 -2.0097  2.8636  3.1485
  666MOL0     H89853   7.217   0.586   2.539 -0.5861  2.6606 -0.7495
  666MOL0     H89854   7.226   0.576   2.699 -1.3454  1.0451  1.1533
  666MOL0     H89855   6.986   0.518   2.540 -1.1003 -1.2310  0.2459
  666MOL0     H89856   7.047   0.445   2.678  1.8953  0.0891 -1.3191
  666MOL0     H89857   6.888   0.703   2.671 -2.5276  0.5492  1.4471
  666MOL0     H89858   6.829   0.546   2.695  1.5661  0.4318 -7.5340
  666MOL0     H89859   7.039   0.708   2.863 -0.3318  0.4413 -2.9290
  666MOL0     H89860   6.993   0.543   2.912  1.3833 -0.9434 -1.1167
  666MOL0     H89861   6.748   0.522   3.022  1.9962  0.2802  0.5555
  666MOL0     H89862   6.478   0.584   3.025  2.7323 -0.1255 -2.3956
  666MOL0     H89863   6.501   0.673   3.174 -1.1461 -0.5358  0.5578
  666MOL0     H89864   6.380   0.777   2.924 -1.1311 -3.5367  1.5267
  666MOL0     H89865   6.441   0.879   3.044  3.6741 -1.1529 -1.5629
  666MOL0     H89866   6.259   0.670   3.161 -1.0607 -1.1747 -2.6156
  666MOL0     H89867   6.185   0.771   3.034  1.1694 -1.2877 -1.9943
  666MOL0     H89868   6.227   0.980   3.151 -1.7801  0.0258  0.7446
  666MOL0     H89869   6.339   0.902   3.263  0.1210  1.1490  1.4865
  666MOL0     H89870   6.026   0.900   3.069 -0.4767 -2.4082  0.3294
  666MOL0     H89871   5.692   1.047   3.005 -0.1733  0.7159  1.6637
  666MOL0     H89872   5.845   0.998   2.934  2.6145 -0.6099  1.0418
  666MOL0     H89873   5.708   0.880   2.956  1.3940  0.2826  0.4608
  666MOL0     H89874   5.419   1.142   3.452  1.1705  0.2375  0.7131
  666MOL0     H89875   5.158   1.173   3.473 -3.6791 -1.8706  1.6520
  666MOL0     H89876   4.931   1.142   3.541  2.1212 -0.9176 -0.9710
  666MOL0     H89877   4.923   1.124   3.358  1.5950 -0.1400  0.3868
  666MOL0     H89878   4.717   0.996   3.366  0.6547 -0.5713  0.3414
  666MOL0     H89879   4.743   0.968   3.539  0.8021  0.4851  0.2260
  666MOL0     H89880   4.709   1.245   3.416  0.5195  1.9630  1.1152
  666MOL0     H89881   4.703   1.198   3.591 -1.1164  1.6280 -0.1146
  666MOL0     H89882   4.495   1.123   3.404  0.9560 -4.1689  0.6916
  666MOL0     H89883   4.494   1.092   3.574 -2.9614  0.8616 -0.6509
  666MOL0     H89884   4.503   1.359   3.420  0.2098 -1.3623 -1.8653
  666MOL0     H89885   4.529   1.360   3.588  0.6123 -1.1449 -0.9620
  666MOL0     H89886   4.274   1.219   3.474  0.2912  0.0844  1.2471
  666MOL0     H89887   4.314   1.267   3.640  1.5933  1.3822  0.8473
  666MOL0     H89888   4.259   1.475   3.416 -0.1584 -1.6347 -0.9635
  666MOL0     H89889   4.284   1.513   3.581  1.5012  0.1875 -0.3738
  666MOL0     H89890   4.107   1.381   3.653  2.9914 -2.7346 -0.9487
  666MOL0     H89891   4.063   1.327   3.488  3.4528 -0.2797 -2.2557
  666MOL0     H89892   5.113   0.751   3.385  1.2408 -1.2463 -0.0069
  666MOL0     H89893   5.365   0.741   3.352  1.1361  0.5408  2.1568
  666MOL0     H89894   5.738   0.887   3.466  1.1077  0.0396  1.0879
  666MOL0     H89895   5.993   0.897   3.489  0.3082 -0.1335 -0.1597
  666MOL0     H89896   7.673   1.065   2.407 -0.6727  2.1025  1.0690
  666MOL0     H89897   7.912   1.053   2.369 -0.8466  0.5802 -1.0229
  666MOL0     H89898   8.368   1.083   2.321  0.1283  1.5393  0.4554
  666MOL0     H89899   8.618   1.093   2.386  0.7815 -1.0218  0.5216
  666MOL0     H89900   8.714   1.137   2.788 -3.8620 -1.4361 -0.8319
  666MOL0     H89901   8.732   0.960   2.776  0.3707 -0.8605 -1.3468
  666MOL0     H89902   8.978   0.971   2.728  2.7962  1.1843  1.6543
  666MOL0     H89903   8.949   1.064   2.855 -0.3347  1.7671 -0.4166
  666MOL0     H89904   8.976   1.270   2.732  5.0006  0.0028  1.8292
  666MOL0     H89905   8.944   1.185   2.574 -0.8510 -3.9879 -0.4541
  666MOL0     H89906   9.165   1.060   2.621  0.7006  0.2954  0.6421
  666MOL0     H89907   9.194   1.151   2.756  1.5910  2.3987 -0.2657
  666MOL0     H89908   9.302   1.422   2.460 -1.7579 -0.5381 -0.4146
  666MOL0     H89909   8.518   1.029   2.793 -0.3557  2.7230 -0.5045
  666MOL0     H89910   8.296   0.979   2.736  0.4572  1.1942  1.3974
  667MOL0     O89911   6.851   9.782   8.941 -0.6110  0.0843  0.4383
  667MOL0     C89912   6.847   9.671   8.890  0.2017  0.0183 -0.6925
  667MOL0     O89913   6.740   9.608   8.856 -0.3632  0.4778  0.2889
  667MOL0     C89914   6.618   9.658   8.900  0.7687 -0.2969  0.2145
  667MOL0     C89915   6.499   9.668   8.822 -0.0886 -0.2726 -0.1113
  667MOL0     C89916   6.372   9.696   8.877 -0.2900 -0.1108  0.7725
  667MOL0     C89917   6.352   9.717   9.011  0.2075 -0.7157  0.2072
  667MOL0     O89918   6.225   9.722   9.072  0.4870 -0.7245  0.2023
  667MOL0     C89919   6.116   9.798   9.004  0.2344 -0.0365  0.5609
  667MOL0     C89920   6.012   9.856   9.106 -0.2900  0.2475  0.2581
  667MOL0     C89921   6.078   9.955   9.202  0.5656 -0.0064  0.3580
  667MOL0     C89922   5.987  10.010   9.315  0.6397  0.9699  0.5815
  667MOL0     C89923   5.864  10.092   9.277  0.3000  1.3562  0.3533
  667MOL0     C89924   5.901  10.218   9.194  0.6278  0.0915 -0.3305
  667MOL0     C89925   5.786  10.315   9.221  0.0414 -0.3952  0.1249
  667MOL0     C89926   5.790  10.445   9.137  0.4647  0.1710  0.0584
  667MOL0     N89927   5.686  10.544   9.181  0.4456  0.8490  0.5582
  667MOL0     C89928   5.555  10.550   9.136 -0.1357  0.6835 -0.6095
  667MOL0     C89929   5.496  10.656   9.191 -0.6121  0.4154 -0.6465
  667MOL0     C89930   5.358  10.710   9.166  0.0470  0.0707 -0.5958
  667MOL0     C89931   5.260  10.673   9.282 -1.5538 -0.4383 -0.5085
  667MOL0     C89932   5.328  10.710   9.409  0.2654 -0.0219 -0.7247
  667MOL0     C89933   5.216  10.726   9.513 -0.1910  0.5600  0.7856
  667MOL0     O89934   5.270  10.771   9.641  0.2930 -0.2721 -0.1369
  667MOL0     C89935   5.276  10.679   9.741  0.8476 -0.1018  0.1236
  667MOL0     C89936   5.229  10.716   9.871  0.6440 -0.1347  0.1595
  667MOL0     C89937   5.237  10.622   9.982  0.1951 -0.0246  0.3632
  667MOL0     C89938   5.192  10.668  10.121 -0.4285 -0.0220  0.0434
  667MOL0     C89939   5.285  10.493   9.955  0.6912 -1.0186 -0.2559
  667MOL0     C89940   5.288  10.395  10.062 -0.4485  0.2867  0.3932
  667MOL0     O89941   5.186  10.388  10.153 -0.2477  0.0304 -0.5958
  667MOL0     C89942   5.165  10.279  10.232  0.8244 -0.7232 -0.2335
  667MOL0     C89943   5.254  10.185  10.281  0.3792  0.8076 -0.3573
  667MOL0     C89944   5.214  10.080  10.366 -0.4502  0.4715 -0.6502
  667MOL0     C89945   5.085  10.069  10.413 -0.6640 -1.1482  0.7890
  667MOL0     O89946   5.043   9.991  10.514  0.2016 -0.2221 -0.4968
  667MOL0     C89947   5.129   9.874  10.554 -0.0567 -0.3514 -0.0018
  667MOL0     C89948   5.056   9.800  10.663  0.1880  0.6435  0.2078
  667MOL0     C89949   5.149   9.751  10.776 -0.0225  1.0866  0.6806
  667MOL0     C89950   5.063   9.697  10.890 -0.5693 -0.5904  0.0318
  667MOL0     C89951   5.138   9.609  10.991  0.3800  0.4161  0.8574
  667MOL0     C89952   5.252   9.690  11.062  0.3011 -0.2325 -0.4923
  667MOL0     C89953   5.282   9.617  11.197 -0.8390  0.0010 -0.5050
  667MOL0     C89954   5.392   9.519  11.173 -0.0022 -0.3019 -0.5627
  667MOL0    Cl89955   5.443   9.457  11.330 -0.1116  0.3147 -0.1662
  667MOL0     C89956   5.002  10.165  10.368  1.5223  0.3203 -0.0929
  667MOL0     C89957   5.032  10.265  10.276 -0.3241  0.8649  0.3183
  667MOL0     O89958   5.374  10.306  10.053 -0.4464 -0.2478 -0.0887
  667MOL0     C89959   5.341  10.471   9.830 -0.2544 -0.0071  0.2156
  667MOL0     C89960   5.332  10.561   9.725  0.0726 -0.0556  0.6625
  667MOL0     N89961   5.591  10.720   9.260 -0.8485  0.0711 -0.6012
  667MOL0     N89962   5.701  10.658   9.257 -0.9135 -0.4922 -0.1520
  667MOL0     C89963   6.463   9.696   9.093 -1.0838 -0.4481 -0.8535
  667MOL0     C89964   6.592   9.672   9.039  0.5761 -0.0941  0.1295
  667MOL0     C89965   6.975   9.606   8.896  0.8055 -0.5982 -0.6355
  667MOL0     C89966   7.090   9.673   8.943 -0.4161  0.6409 -0.3378
  667MOL0     C89967   7.214   9.608   8.938  0.0281 -0.7043  0.5698
  667MOL0     C89968   7.215   9.468   8.916  0.3078  0.6776 -0.1411
  667MOL0     O89969   7.342   9.410   8.908 -0.0086 -0.3860 -0.2117
  667MOL0     C89970   7.372   9.275   8.900 -0.8078  0.4921 -0.1727
  667MOL0     C89971   7.515   9.259   8.961 -0.5238  0.5656  1.0686
  667MOL0     C89972   7.553   9.116   9.006  0.4533  0.0926 -0.7293
  667MOL0     C89973   7.492   9.081   9.142 -0.4894 -0.0302 -0.7136
  667MOL0     C89974   7.550   8.959   9.186 -0.4024  0.3866  0.7697
  667MOL0     C89975   7.599   8.864   9.245  0.4320 -0.2573  0.8232
  667MOL0     C89976   7.102   9.391   8.895 -0.0055  0.2492 -0.2544
  667MOL0     C89977   6.981   9.465   8.888 -0.7999  0.4003  0.7181
  667MOL0     H89978   6.518   9.663   8.715 -2.4475  0.5559 -0.6252
  667MOL0     H89979   6.290   9.672   8.810 -1.0463 -0.6256  1.8722
  667MOL0     H89980   6.161   9.874   8.938 -0.7943  0.2924  0.2152
  667MOL0     H89981   6.065   9.735   8.931 -2.1475 -0.2382  2.3035
  667MOL0     H89982   5.921   9.884   9.051  1.1309 -0.2030 -2.4730
  667MOL0     H89983   5.997   9.761   9.159  2.4222 -0.1801  0.3652
  667MOL0     H89984   6.164   9.907   9.248  1.8549  1.7162 -0.1672
  667MOL0     H89985   6.114  10.041   9.145 -0.8261  0.3473 -0.0401
  667MOL0     H89986   5.935   9.929   9.367 -0.3967  1.1180 -0.1902
  667MOL0     H89987   6.039  10.073   9.388 -0.5973  0.7512  1.7134
  667MOL0     H89988   5.794  10.023   9.230  0.9900  0.3519  0.7512
  667MOL0     H89989   5.823  10.123   9.374 -1.5770  3.5219 -1.0442
  667MOL0     H89990   6.000  10.256   9.221  1.3258 -1.0410 -1.2266
  667MOL0     H89991   5.901  10.183   9.091 -0.1622 -0.9604  0.0057
  667MOL0     H89992   5.689  10.273   9.192 -0.8181  3.5748 -3.9411
  667MOL0     H89993   5.779  10.334   9.328  2.4291  1.3235  0.0416
  667MOL0     H89994   5.789  10.422   9.030 -0.9433 -2.3211  0.5457
  667MOL0     H89995   5.888  10.491   9.155  0.2572  0.6342  0.0118
  667MOL0     H89996   5.519  10.474   9.068  1.6672 -0.1639 -0.6735
  667MOL0     H89997   5.367  10.819   9.157 -0.0828  0.3056  1.6772
  667MOL0     H89998   5.323  10.663   9.074 -2.2410 -1.8510  1.1512
  667MOL0     H89999   5.254  10.563   9.280 -2.1959 -0.5066  1.8270
  667MOL0     H90000   5.167  10.729   9.270 -1.9225 -1.0969 -0.8185
  667MOL0     H90001   5.381  10.805   9.397  1.0043 -0.7072 -3.7304
  667MOL0     H90002   5.394  10.627   9.437  0.6725  0.3232 -0.6530
  667MOL0     H90003   5.172  10.626   9.520 -1.4607  1.1113  0.8111
  667MOL0     H90004   5.138  10.796   9.483 -0.5357  0.6498  1.8490
  667MOL0     H90005   5.199  10.818   9.892  0.8907 -0.8415  5.2002
  667MOL0     H90006   5.088  10.647  10.144 -0.1682 -1.0380  0.3473
  667MOL0     H90007   5.254  10.648  10.209 -1.9482  1.9664  1.6600
  667MOL0     H90008   5.198  10.778  10.116  3.0010 -0.1214 -2.8967
  667MOL0     H90009   5.356  10.180  10.244 -0.8571 -2.0685 -4.1031
  667MOL0     H90010   5.281  10.004  10.403 -1.9075 -1.0177 -0.9459
  667MOL0     H90011   5.145   9.801  10.474  1.3554 -1.2922  1.0893
  667MOL0     H90012   5.221   9.903  10.605  0.8241  0.1847 -1.8153
  667MOL0     H90013   4.987   9.861  10.722  0.0188 -2.6964  3.9355
  667MOL0     H90014   5.005   9.718  10.611 -0.8554  2.4396 -1.7635
  667MOL0     H90015   5.207   9.833  10.819  1.2622  0.4931  0.1300
  667MOL0     H90016   5.212   9.669  10.738 -0.4448  2.1642 -2.7258
  667MOL0     H90017   5.010   9.774  10.946  1.0395 -0.5869  1.6234
  667MOL0     H90018   4.987   9.630  10.846 -0.0792 -0.5771 -0.8577
  667MOL0     H90019   5.178   9.518  10.946 -1.9164 -0.1398 -0.2341
  667MOL0     H90020   5.062   9.579  11.064 -1.1748 -2.8129 -1.7921
  667MOL0     H90021   5.345   9.696  11.005 -0.6802  1.0672 -2.0557
  667MOL0     H90022   5.225   9.793  11.088 -3.7337 -1.6233  1.8703
  667MOL0     H90023   5.195   9.562  11.233 -0.3738 -0.7315 -0.4889
  667MOL0     H90024   5.316   9.688  11.272  1.3403 -0.4960 -0.9498
  667MOL0     H90025   5.480   9.571  11.133  1.4811 -0.4935  2.1970
  667MOL0     H90026   5.354   9.438  11.109 -3.1917 -0.6121  1.5456
  667MOL0     H90027   4.901  10.143  10.398  1.0627  1.2854 -0.8821
  667MOL0     H90028   4.956  10.335  10.245 -0.6270 -0.5111 -2.3355
  667MOL0     H90029   5.379  10.373   9.801 -0.6189 -0.0397 -0.1668
  667MOL0     H90030   5.363  10.530   9.625 -1.7970  0.6361 -0.1932
  667MOL0     H90031   6.466   9.698   9.202 -2.5439 -1.8018 -0.7570
  667MOL0     H90032   6.680   9.673   9.102  0.4368  2.5753  0.3767
  667MOL0     H90033   7.098   9.779   8.961  2.4847  0.4156  0.2030
  667MOL0     H90034   7.305   9.667   8.934 -0.9005  0.8296  1.2092
  667MOL0     H90035   7.299   9.216   8.957 -0.1864 -1.1491 -1.0305
  667MOL0     H90036   7.368   9.231   8.800 -1.2962 -0.5221  0.2818
  667MOL0     H90037   7.535   9.316   9.053  0.4541 -2.4466  2.8754
  667MOL0     H90038   7.592   9.276   8.886 -1.7402 -1.1164 -0.6477
  667MOL0     H90039   7.661   9.103   9.020  0.0278 -2.3449  1.0584
  667MOL0     H90040   7.522   9.051   8.924 -0.4804  0.2583 -0.5197
  667MOL0     H90041   7.383   9.078   9.138 -0.6415  1.9529  0.5982
  667MOL0     H90042   7.527   9.156   9.213  0.1268 -0.4374 -0.5793
  667MOL0     H90043   7.649   8.783   9.294  2.6599  1.4565  1.5359
  667MOL0     H90044   7.101   9.283   8.886  1.8543 -0.0344  2.1695
  667MOL0     H90045   6.901   9.403   8.851 -0.6494 -1.3357  3.0685
  668MOL0     O90046   6.617   0.431   2.046  0.5163 -0.2202 -0.0090
  668MOL0     C90047   6.580   0.432   1.930  0.2435  0.1852 -0.2869
  668MOL0     O90048   6.655   0.383   1.826  0.1810  0.3747  0.2627
  668MOL0     C90049   6.766   0.308   1.858  0.0288 -0.0340 -0.4302
  668MOL0     C90050   6.896   0.368   1.880  0.4406  0.1041  0.4403
  668MOL0     C90051   7.012   0.285   1.890 -0.2040 -0.8855 -0.0664
  668MOL0     C90052   7.002   0.145   1.881 -0.2190  1.4572  0.3039
  668MOL0     O90053   7.109   0.055   1.895  0.7106 -0.1430 -0.2062
  668MOL0     C90054   7.138  -0.002   2.027  0.0592  0.1642 -0.1201
  668MOL0     C90055   7.196  -0.145   2.029 -0.0408 -0.7745 -0.0987
  668MOL0     C90056   7.100  -0.249   1.973  0.0503 -0.3438  0.5597
  668MOL0     C90057   6.996  -0.303   2.070 -0.6061 -0.6832 -0.2592
  668MOL0     C90058   6.899  -0.388   2.000  0.4948  0.1416 -0.5058
  668MOL0     C90059   6.771  -0.411   2.090  0.5637  0.1133 -0.1082
  668MOL0     C90060   6.660  -0.487   2.008 -0.4553 -0.2025 -0.4276
  668MOL0     C90061   6.546  -0.525   2.105 -0.8043  0.4631  0.7040
  668MOL0     N90062   6.439  -0.585   2.031 -0.0031  0.3539  0.1949
  668MOL0     C90063   6.307  -0.571   2.064  0.5911  0.0682 -0.4014
  668MOL0     C90064   6.239  -0.628   1.960  0.5945 -0.3760  0.6446
  668MOL0     C90065   6.080  -0.638   1.957  0.0218 -0.1109  0.3733
  668MOL0     C90066   6.027  -0.777   1.942  0.1489  0.3250 -0.7099
  668MOL0     C90067   6.034  -0.825   1.795  1.0070  0.5745  1.0792
  668MOL0     C90068   5.997  -0.976   1.793 -0.2875 -0.1250 -0.0373
  668MOL0     O90069   5.854  -1.001   1.791  0.2420 -0.4911 -0.4874
  668MOL0     C90070   5.787  -0.987   1.666  0.0894 -0.5724  0.5954
  668MOL0     C90071   5.851  -0.961   1.543  0.1043  0.0942  0.2384
  668MOL0     C90072   5.781  -0.921   1.429 -0.7555 -0.3698 -0.3351
  668MOL0     C90073   5.861  -0.887   1.304  0.2774 -0.2236  0.1874
  668MOL0     C90074   5.641  -0.928   1.432  0.4005  0.6353 -0.0508
  668MOL0     C90075   5.557  -0.873   1.312  0.0649 -0.8813 -1.0753
  668MOL0     O90076   5.448  -0.798   1.356 -0.1568 -0.0192  0.1956
  668MOL0     C90077   5.393  -0.717   1.263  0.2855  0.3337  0.9330
  668MOL0     C90078   5.421  -0.583   1.287 -1.0464 -0.2173 -0.0189
  668MOL0     C90079   5.394  -0.486   1.192  0.9534 -0.6386  0.1500
  668MOL0     C90080   5.328  -0.523   1.071  0.2155  0.0555 -0.5790
  668MOL0     O90081   5.308  -0.428   0.974  1.1765  0.4854  0.7852
  668MOL0     C90082   5.372  -0.297   0.969  0.5524  0.2940  0.2987
  668MOL0     C90083   5.364  -0.232   0.830  1.2219  0.9610 -0.0311
  668MOL0     C90084   5.470  -0.122   0.816 -1.2378 -0.3822 -0.2849
  668MOL0     C90085   5.536  -0.114   0.677 -0.1457 -1.4509 -0.7921
  668MOL0     C90086   5.682  -0.033   0.683  0.3477  0.1838 -0.2213
  668MOL0     C90087   5.738  -0.015   0.532 -0.3514  0.0285  0.3588
  668MOL0     C90088   5.878   0.056   0.518  0.3282  0.7980 -0.0391
  668MOL0     C90089   5.892   0.139   0.394  0.2951  0.2914 -0.5174
  668MOL0    Cl90090   6.060   0.210   0.386  0.4278  0.1510  0.0386
  668MOL0     C90091   5.291  -0.662   1.046 -0.1813 -0.1051  0.2947
  668MOL0     C90092   5.331  -0.758   1.141 -0.3542 -0.1041  0.3081
  668MOL0     O90093   5.593  -0.899   1.194 -0.1841 -1.0775  0.2710
  668MOL0     C90094   5.570  -0.954   1.556 -0.0139  0.0894 -0.3274
  668MOL0     C90095   5.644  -0.982   1.670 -0.0917  0.7198 -0.0275
  668MOL0     N90096   6.330  -0.668   1.866  0.1607  0.9896 -0.7733
  668MOL0     N90097   6.451  -0.644   1.907  0.2760 -0.5728 -0.4369
  668MOL0     C90098   6.878   0.088   1.865 -0.1642  0.3214  0.0264
  668MOL0     C90099   6.761   0.166   1.857 -0.2727 -0.4919  0.7745
  668MOL0     C90100   6.466   0.512   1.889 -0.5534 -0.0608  0.4456
  668MOL0     C90101   6.378   0.553   1.993  0.8909 -0.1800 -0.3028
  668MOL0     C90102   6.269   0.632   1.960  0.9330  0.3211 -0.6285
  668MOL0     C90103   6.238   0.670   1.830  1.0144  0.1324 -0.5490
  668MOL0     O90104   6.129   0.762   1.827 -0.0864 -0.6111 -0.0215
  668MOL0     C90105   6.084   0.802   1.690  0.1671 -0.9570 -0.6810
  668MOL0     C90106   6.155   0.937   1.678  0.3977 -0.6459  0.5674
  668MOL0     C90107   6.072   1.027   1.584 -0.2098  0.2415 -0.5249
  668MOL0     C90108   6.165   1.131   1.518  0.7038  0.6134 -0.7660
  668MOL0     C90109   6.237   1.219   1.607 -0.0189 -0.8893  0.1179
  668MOL0     C90110   6.291   1.281   1.695  1.0164 -0.3739 -0.3475
  668MOL0     C90111   6.315   0.617   1.726  0.0952 -0.3591  0.1907
  668MOL0     C90112   6.433   0.542   1.760  0.3987  0.8881  0.9307
  668MOL0     H90113   6.906   0.473   1.905 -0.3661 -0.0479  1.5191
  668MOL0     H90114   7.101   0.343   1.914 -1.2071 -0.1580  2.1548
  668MOL0     H90115   7.208   0.063   2.080 -1.0694  0.8614  0.5686
  668MOL0     H90116   7.043  -0.002   2.081  0.9498 -1.0188  1.5190
  668MOL0     H90117   7.295  -0.146   1.983  0.8151 -1.0477  1.6716
  668MOL0     H90118   7.234  -0.193   2.120  1.6193 -2.5947 -1.6609
  668MOL0     H90119   7.051  -0.197   1.890  1.7070 -2.9193 -2.2358
  668MOL0     H90120   7.150  -0.332   1.923 -2.8646 -2.6920  1.2197
  668MOL0     H90121   7.048  -0.359   2.148 -1.5563  2.5068  2.9088
  668MOL0     H90122   6.949  -0.221   2.125  1.2218  0.0628  0.2459
  668MOL0     H90123   6.861  -0.333   1.914 -0.3929 -1.6106 -1.2805
  668MOL0     H90124   6.938  -0.479   1.953 -0.9155 -0.2402 -0.9884
  668MOL0     H90125   6.790  -0.465   2.183  1.5743  1.3425  0.4215
  668MOL0     H90126   6.718  -0.319   2.117  1.1163  0.1835  0.7548
  668MOL0     H90127   6.612  -0.419   1.937 -1.9317  0.2981  0.9813
  668MOL0     H90128   6.708  -0.572   1.959 -0.0473 -1.0170  1.3314
  668MOL0     H90129   6.526  -0.440   2.171  0.6316  0.6566  0.9410
  668MOL0     H90130   6.568  -0.614   2.165 -1.6363 -1.0115 -1.0793
  668MOL0     H90131   6.259  -0.534   2.154  0.8128 -1.7109  0.4816
  668MOL0     H90132   6.035  -0.599   2.049 -1.4689 -0.3542 -0.2216
  668MOL0     H90133   6.052  -0.571   1.875  1.7717  0.5634  0.2720
  668MOL0     H90134   5.929  -0.779   1.991  1.1716 -0.0367  1.4036
  668MOL0     H90135   6.089  -0.841   2.005  0.9448 -0.5837 -2.3496
  668MOL0     H90136   6.133  -0.829   1.749 -0.0339 -1.2946 -1.2487
  668MOL0     H90137   5.973  -0.765   1.726  1.3129  2.6247  2.4885
  668MOL0     H90138   6.055  -1.015   1.878  1.3322 -0.2584 -1.1455
  668MOL0     H90139   6.042  -1.028   1.708 -0.4398  2.7795 -2.0134
  668MOL0     H90140   5.959  -0.965   1.541  0.1728 -1.9979 -4.1816
  668MOL0     H90141   5.827  -0.794   1.258 -1.5077 -1.3255 -0.8405
  668MOL0     H90142   5.963  -0.878   1.342 -0.2912 -3.5771  2.9977
  668MOL0     H90143   5.846  -0.966   1.229 -1.6173  0.7640 -0.5441
  668MOL0     H90144   5.471  -0.542   1.374 -0.7214 -0.4601 -0.0893
  668MOL0     H90145   5.432  -0.388   1.219 -1.5701  1.7240 -3.8352
  668MOL0     H90146   5.320  -0.234   1.042 -1.1600  1.7889 -2.0641
  668MOL0     H90147   5.473  -0.326   0.999 -0.1451 -0.9583  1.5599
  668MOL0     H90148   5.380  -0.309   0.754  2.3580  0.7211  0.4221
  668MOL0     H90149   5.267  -0.189   0.805 -0.1417 -2.6492 -1.5815
  668MOL0     H90150   5.558  -0.147   0.877 -0.9826 -0.6105 -0.7436
  668MOL0     H90151   5.425  -0.029   0.850  2.5366  1.8511 -0.8776
  668MOL0     H90152   5.549  -0.214   0.636  1.7210 -0.7493 -2.0539
  668MOL0     H90153   5.477  -0.061   0.603  2.5227  2.0982 -0.6679
  668MOL0     H90154   5.759  -0.090   0.735 -0.0660 -0.4682 -0.3169
  668MOL0     H90155   5.656   0.065   0.725 -1.7881 -1.1102  1.6762
  668MOL0     H90156   5.761  -0.115   0.493  1.5771  0.8802 -0.8005
  668MOL0     H90157   5.668   0.028   0.460 -0.5318 -2.3681 -1.0276
  668MOL0     H90158   5.960  -0.016   0.531 -0.7742 -0.3653  0.7813
  668MOL0     H90159   5.874   0.128   0.600  1.7456 -0.2147  0.9647
  668MOL0     H90160   5.812   0.213   0.406 -3.6087 -3.5038 -0.9879
  668MOL0     H90161   5.869   0.079   0.306  1.8359 -0.0843 -0.6849
  668MOL0     H90162   5.259  -0.697   0.949 -1.0430  1.9098 -0.2144
  668MOL0     H90163   5.308  -0.863   1.131  0.9053 -0.4104  0.3613
  668MOL0     H90164   5.462  -0.965   1.564  0.1982 -0.4341  2.8958
  668MOL0     H90165   5.585  -1.012   1.756 -0.2436  0.7794 -0.1085
  668MOL0     H90166   6.871  -0.017   1.838  1.0274  0.4586 -0.8692
  668MOL0     H90167   6.666   0.116   1.841 -0.7338  0.4626  0.5133
  668MOL0     H90168   6.392   0.536   2.099 -2.1567  1.0004  0.3663
  668MOL0     H90169   6.198   0.638   2.042  1.8561 -0.6039  0.2613
  668MOL0     H90170   6.119   0.727   1.619  0.9162  0.9876 -2.4614
  668MOL0     H90171   5.975   0.806   1.677  0.2574  0.3372 -1.2198
  668MOL0     H90172   6.252   0.923   1.629 -0.8239  0.9639 -2.5753
  668MOL0     H90173   6.176   0.988   1.773  0.3592 -1.1819  0.8704
  668MOL0     H90174   5.991   1.082   1.634 -0.4344  0.3765 -1.0282
  668MOL0     H90175   6.018   0.953   1.523  0.0583 -2.6115  2.4312
  668MOL0     H90176   6.102   1.199   1.459 -2.7955 -0.8884  0.9200
  668MOL0     H90177   6.244   1.094   1.452 -0.5402  2.7791 -3.7081
  668MOL0     H90178   6.342   1.336   1.771  0.3613  0.3940 -0.4579
  668MOL0     H90179   6.300   0.639   1.621 -3.1391 -0.4446  0.5142
  668MOL0     H90180   6.503   0.501   1.688 -0.2458 -3.0374  2.2723
  669MOL0     O90181   3.767   8.940   6.302  0.5260  0.3175 -0.8413
  669MOL0     C90182   3.866   8.991   6.347  0.2726 -0.3961  0.1363
  669MOL0     O90183   3.889   9.033   6.479  0.0322  0.3084  0.5334
  669MOL0     C90184   3.793   9.027   6.579  0.0672  0.2504  0.0196
  669MOL0     C90185   3.773   9.140   6.655 -0.7177  0.1498  0.7427
  669MOL0     C90186   3.687   9.136   6.760 -0.0266  0.9319 -0.0300
  669MOL0     C90187   3.616   9.023   6.795  0.6576  0.6550 -0.4826
  669MOL0     O90188   3.547   9.022   6.914  0.6136  0.9328 -0.1664
  669MOL0     C90189   3.444   9.120   6.927  1.0940 -0.3881  0.2912
  669MOL0     C90190   3.339   9.116   6.817 -0.2977 -0.4504 -0.4540
  669MOL0     C90191   3.218   9.190   6.856  0.4891  0.2224 -0.1085
  669MOL0     C90192   3.086   9.143   6.792  0.1384  0.0849  0.2517
  669MOL0     C90193   2.955   9.222   6.829 -0.7518  0.3686 -0.0959
  669MOL0     C90194   2.836   9.147   6.770 -1.0517 -0.0770 -0.6615
  669MOL0     C90195   2.726   9.238   6.720 -0.5383  0.5095  0.5047
  669MOL0     C90196   2.665   9.336   6.823  0.2316 -0.0735  0.0079
  669MOL0     N90197   2.743   9.462   6.839 -0.4815  1.5132  0.7463
  669MOL0     C90198   2.742   9.523   6.973  0.6539 -0.1854  0.1165
  669MOL0     C90199   2.777   9.650   6.937 -0.3615  0.1807  0.4590
  669MOL0     C90200   2.807   9.748   7.040  0.3586 -0.5913  0.2478
  669MOL0     C90201   2.735   9.885   7.041 -0.0301 -0.6163  0.7751
  669MOL0     C90202   2.744   9.957   7.167 -0.2839 -0.3401 -0.3194
  669MOL0     C90203   2.663   9.899   7.276 -0.9171 -0.2599  0.7616
  669MOL0     O90204   2.525   9.909   7.243  0.2937  0.4687 -0.2315
  669MOL0     C90205   2.443  10.019   7.251 -0.6789  0.4512 -0.8937
  669MOL0     C90206   2.313   9.999   7.228  0.9717 -0.2656  0.0433
  669MOL0     C90207   2.223  10.102   7.237  0.6962  0.0424 -0.0752
  669MOL0     C90208   2.081  10.064   7.209  0.1999 -0.9463 -0.0927
  669MOL0     C90209   2.267  10.236   7.282  0.1569 -0.7091  0.1391
  669MOL0     C90210   2.168  10.349   7.295 -0.3345  0.3038 -0.3605
  669MOL0     O90211   2.223  10.463   7.372 -0.1222  0.9011  0.0237
  669MOL0     C90212   2.151  10.579   7.380 -0.2993 -0.0747 -0.2768
  669MOL0     C90213   2.213  10.697   7.328  1.0784  0.4750  0.0652
  669MOL0     C90214   2.147  10.821   7.351 -0.4673  0.0097 -0.9476
  669MOL0     C90215   2.041  10.828   7.444 -0.1794  1.0423 -0.2240
  669MOL0     O90216   1.968  10.938   7.480  0.1545  0.0901  0.4375
  669MOL0     C90217   1.930  11.026   7.376 -0.2774 -0.0624 -0.2984
  669MOL0     C90218   1.811  11.116   7.418  0.0664  0.3706  0.6782
  669MOL0     C90219   1.777  11.197   7.303  0.2272  0.6303 -0.5765
  669MOL0     C90220   1.645  11.135   7.241  0.5343 -0.3885  0.0927
  669MOL0     C90221   1.607  11.210   7.118  0.8361 -0.2113 -0.0846
  669MOL0     C90222   1.454  11.202   7.077 -0.2083 -0.2546 -0.2624
  669MOL0     C90223   1.417  11.056   7.051 -0.0650  0.3661  0.5241
  669MOL0     C90224   1.267  11.033   7.034  0.6582  0.8424  0.1048
  669MOL0    Cl90225   1.167  11.068   7.173 -0.3038 -0.3221  0.2335
  669MOL0     C90226   1.991  10.711   7.509 -0.7483  0.1850 -0.2148
  669MOL0     C90227   2.052  10.587   7.473  1.1808 -1.0657 -0.2865
  669MOL0     O90228   2.054  10.359   7.238 -0.8508 -0.1405 -0.1410
  669MOL0     C90229   2.397  10.250   7.315 -0.4091 -0.3019 -0.4476
  669MOL0     C90230   2.479  10.138   7.303 -0.2484  0.2310 -0.2599
  669MOL0     N90231   2.794   9.660   6.799  0.4618 -0.9364  0.3080
  669MOL0     N90232   2.779   9.552   6.742  0.1705  0.5274 -1.0485
  669MOL0     C90233   3.619   8.909   6.711  0.1718 -0.1978 -0.3247
  669MOL0     C90234   3.711   8.912   6.605  0.0617  0.5169 -0.4871
  669MOL0     C90235   3.974   9.014   6.247  0.0856  0.4511  0.4846
  669MOL0     C90236   4.084   9.096   6.275 -0.2065 -0.0485 -0.5039
  669MOL0     C90237   4.177   9.131   6.178 -0.5999 -0.8841  0.3780
  669MOL0     C90238   4.171   9.077   6.052  0.0326  0.5105 -0.7320
  669MOL0     O90239   4.272   9.089   5.955  0.0170 -0.0998 -0.3248
  669MOL0     C90240   4.229   9.134   5.825 -1.1434 -0.3797 -0.2522
  669MOL0     C90241   4.287   9.278   5.791  0.5079  0.1100 -0.1254
  669MOL0     C90242   4.448   9.279   5.789 -0.4165 -0.1697 -0.4426
  669MOL0     C90243   4.480   9.422   5.764 -0.1496  1.0142 -0.1815
  669MOL0     C90244   4.618   9.458   5.760 -0.7624  0.3389  0.3623
  669MOL0     C90245   4.728   9.506   5.769 -0.1361  0.4374 -0.5749
  669MOL0     C90246   4.062   8.997   6.017  0.5596 -0.6316 -0.5196
  669MOL0     C90247   3.974   8.962   6.119  1.0268  0.7057 -0.1816
  669MOL0     H90248   3.839   9.224   6.637 -1.0555 -0.0100 -1.4837
  669MOL0     H90249   3.670   9.229   6.813  1.8501  1.3567 -0.1055
  669MOL0     H90250   3.393   9.106   7.022  0.3046 -0.6257 -0.1526
  669MOL0     H90251   3.475   9.225   6.920  0.0380 -0.1569 -2.3595
  669MOL0     H90252   3.389   9.163   6.732  1.4687  3.6446  2.5300
  669MOL0     H90253   3.321   9.009   6.800 -0.7540 -0.9434  2.6116
  669MOL0     H90254   3.195   9.202   6.963 -0.3372  0.2555 -0.2830
  669MOL0     H90255   3.227   9.296   6.830 -0.1291  0.8133  1.8940
  669MOL0     H90256   3.097   9.144   6.683 -0.2295  0.7805  0.2162
  669MOL0     H90257   3.079   9.038   6.822 -2.1832  0.6050  1.8042
  669MOL0     H90258   2.950   9.220   6.938  0.1926 -3.6703  0.0611
  669MOL0     H90259   2.945   9.321   6.783 -0.2145  0.9825  1.0854
  669MOL0     H90260   2.866   9.074   6.694 -1.8315 -0.0307 -1.0234
  669MOL0     H90261   2.791   9.083   6.846  0.3580  0.9075  1.0747
  669MOL0     H90262   2.760   9.299   6.635 -2.2383  0.3313 -0.3365
  669MOL0     H90263   2.652   9.175   6.672  1.7984  0.0256 -2.8306
  669MOL0     H90264   2.659   9.285   6.919  0.0534 -2.3341 -1.1335
  669MOL0     H90265   2.566   9.361   6.783  1.0234  2.5236 -0.5188
  669MOL0     H90266   2.727   9.470   7.066  2.2155 -0.3363  0.3054
  669MOL0     H90267   2.780   9.701   7.135 -2.0804 -0.9759 -0.5759
  669MOL0     H90268   2.916   9.756   7.041  0.5326 -2.4025  1.2555
  669MOL0     H90269   2.628   9.868   7.027  0.5429 -4.1711 -0.4812
  669MOL0     H90270   2.773   9.940   6.954  0.5892 -0.2179  1.2841
  669MOL0     H90271   2.702  10.056   7.147 -0.7473 -0.2022  1.2044
  669MOL0     H90272   2.851   9.963   7.190 -0.2202 -1.8265 -0.1412
  669MOL0     H90273   2.699   9.944   7.369  3.7244  2.9364 -2.1002
  669MOL0     H90274   2.700   9.798   7.291  0.4363 -0.1774 -1.5513
  669MOL0     H90275   2.271   9.907   7.188 -2.6188  1.8944 -1.5796
  669MOL0     H90276   2.022  10.086   7.298 -0.4869 -0.2271 -0.7074
  669MOL0     H90277   2.035  10.116   7.124 -1.5786  1.9243  2.4304
  669MOL0     H90278   2.075   9.956   7.195 -3.0373 -1.1601  2.0407
  669MOL0     H90279   2.294  10.684   7.257 -0.4167 -1.7180 -1.3712
  669MOL0     H90280   2.179  10.912   7.301  3.1874  0.6296  2.0190
  669MOL0     H90281   2.015  11.094   7.365 -0.5249  0.6793  1.9444
  669MOL0     H90282   1.914  10.969   7.284  1.3508 -0.0114 -0.6548
  669MOL0     H90283   1.733  11.061   7.470 -1.6014  3.1166  1.2794
  669MOL0     H90284   1.844  11.182   7.499  3.0528 -0.6610  0.4615
  669MOL0     H90285   1.854  11.201   7.226  0.2605  0.8887 -0.5321
  669MOL0     H90286   1.755  11.298   7.339 -3.7212 -0.9525  2.2900
  669MOL0     H90287   1.661  11.029   7.223 -1.4245 -1.5576  4.1847
  669MOL0     H90288   1.569  11.133   7.319 -1.4545 -0.1704 -1.7333
  669MOL0     H90289   1.664  11.172   7.032 -0.1634 -1.2856 -0.2990
  669MOL0     H90290   1.627  11.317   7.127  1.3739  0.0630 -3.2363
  669MOL0     H90291   1.397  11.250   7.157  0.3124  0.7993 -0.5127
  669MOL0     H90292   1.430  11.254   6.984  1.9212  2.2561  0.4774
  669MOL0     H90293   1.443  10.997   7.139 -1.0063  1.2399  1.4161
  669MOL0     H90294   1.468  11.028   6.959 -3.7968 -1.8323 -1.0760
  669MOL0     H90295   1.268  10.927   7.009 -0.3012  1.4184 -2.8864
  669MOL0     H90296   1.233  11.091   6.947  3.9767 -1.4223 -3.0065
  669MOL0     H90297   1.902  10.707   7.570 -0.9527 -1.2002 -0.5789
  669MOL0     H90298   1.999  10.501   7.513 -1.5406 -0.4032 -2.2046
  669MOL0     H90299   2.440  10.338   7.361 -1.6469 -1.9112  4.3677
  669MOL0     H90300   2.576  10.163   7.344  0.4120 -1.9776 -0.3398
  669MOL0     H90301   3.584   8.812   6.746  2.0457 -1.0228 -0.6116
  669MOL0     H90302   3.732   8.826   6.542 -0.8825  0.3276 -0.5529
  669MOL0     H90303   4.090   9.139   6.375  1.8121  1.5997 -1.2673
  669MOL0     H90304   4.270   9.179   6.207 -1.1198 -0.0528  0.6960
  669MOL0     H90305   4.256   9.056   5.754  1.4824 -4.3887  4.5076
  669MOL0     H90306   4.122   9.154   5.809 -0.6667  2.1295 -0.7181
  669MOL0     H90307   4.233   9.353   5.849 -1.4452  0.9068 -2.8109
  669MOL0     H90308   4.261   9.293   5.686  3.4945 -2.1397 -1.3514
  669MOL0     H90309   4.489   9.214   5.710  1.7072 -0.0273  0.5021
  669MOL0     H90310   4.493   9.238   5.879 -3.5181 -4.3914 -0.4426
  669MOL0     H90311   4.433   9.476   5.847  2.2034  1.2474  1.0775
  669MOL0     H90312   4.436   9.443   5.666  0.9618  1.4251 -0.6087
  669MOL0     H90313   4.824   9.549   5.789  1.3072 -0.9445 -3.6895
  669MOL0     H90314   4.051   8.953   5.918  1.2649  0.9386 -1.3234
  669MOL0     H90315   3.880   8.912   6.094  0.0400  2.6793 -0.6786
  670MOL0     O90316   3.224   4.951   9.077 -0.3889 -0.9708  0.8996
  670MOL0     C90317   3.349   4.963   9.067  0.5918  0.5728 -0.4817
  670MOL0     O90318   3.422   4.983   8.954 -0.4358  0.4958 -0.6732
  670MOL0     C90319   3.372   5.050   8.847 -0.3344 -0.4025 -0.5073
  670MOL0     C90320   3.406   5.007   8.726  0.1572 -0.1519  0.3169
  670MOL0     C90321   3.348   5.061   8.612 -0.5668  0.3314 -1.5140
  670MOL0     C90322   3.254   5.169   8.616 -0.8655  0.0141  0.3017
  670MOL0     O90323   3.191   5.214   8.505 -0.2992 -1.4764 -0.8315
  670MOL0     C90324   3.256   5.196   8.379  1.0589 -0.0092  0.6607
  670MOL0     C90325   3.367   5.300   8.359  0.1704  0.7982 -0.4208
  670MOL0     C90326   3.437   5.284   8.225 -0.6410 -0.2984  0.4542
  670MOL0     C90327   3.569   5.369   8.215  0.1637  0.4259 -0.4792
  670MOL0     C90328   3.623   5.398   8.071 -0.1099 -0.5431  0.1530
  670MOL0     C90329   3.708   5.282   8.013 -0.1930 -0.4126 -0.9319
  670MOL0     C90330   3.776   5.342   7.885  0.5888  0.2054  0.1054
  670MOL0     C90331   3.703   5.311   7.752 -0.5351  0.7882 -0.3266
  670MOL0     N90332   3.570   5.367   7.755  0.0359 -0.0538  1.1478
  670MOL0     C90333   3.458   5.296   7.732  0.5156  0.3307  0.1514
  670MOL0     C90334   3.375   5.386   7.678  0.2795  0.0337  0.9081
  670MOL0     C90335   3.233   5.349   7.618 -0.7744  0.0398 -0.1756
  670MOL0     C90336   3.121   5.408   7.702 -0.6347 -0.0070 -0.3020
  670MOL0     C90337   3.102   5.555   7.686 -0.7102 -0.7633 -0.7740
  670MOL0     C90338   2.952   5.582   7.706  0.0315  0.1656 -0.1130
  670MOL0     O90339   2.912   5.717   7.714  0.3677  0.3175 -0.5557
  670MOL0     C90340   2.917   5.779   7.837  0.1046 -0.0290 -0.7005
  670MOL0     C90341   2.933   5.916   7.826 -0.5980 -0.1800  0.3965
  670MOL0     C90342   2.947   6.006   7.932  0.4728 -0.0503  0.2827
  670MOL0     C90343   2.986   6.145   7.903 -0.2651 -0.7830  0.4108
  670MOL0     C90344   2.938   5.946   8.054  0.0256 -0.5516 -0.4736
  670MOL0     C90345   2.956   6.012   8.188  0.5419 -0.6823  0.0051
  670MOL0     O90346   2.969   5.930   8.290  0.3126  0.1714  0.7315
  670MOL0     C90347   3.021   5.979   8.404 -0.2700 -0.3432 -0.1781
  670MOL0     C90348   2.944   6.016   8.512 -0.0655  0.4644  0.0016
  670MOL0     C90349   3.004   6.072   8.626  0.1742  0.8480  0.5260
  670MOL0     C90350   3.140   6.063   8.645  0.2568  0.5308 -0.1973
  670MOL0     O90351   3.186   6.113   8.764 -0.5979 -0.8971  0.1019
  670MOL0     C90352   3.318   6.174   8.782  0.1058 -0.0267 -0.5649
  670MOL0     C90353   3.297   6.329   8.796 -0.1556  1.0794  0.1717
  670MOL0     C90354   3.229   6.369   8.921 -0.3070 -0.8219 -1.7250
  670MOL0     C90355   3.227   6.520   8.933  0.8509 -0.6324  0.7851
  670MOL0     C90356   3.370   6.585   8.965  0.0092 -0.8364 -0.3874
  670MOL0     C90357   3.348   6.703   9.052  0.0527 -0.2546 -0.0789
  670MOL0     C90358   3.483   6.784   9.043  0.0505 -0.4725  0.3032
  670MOL0     C90359   3.472   6.894   9.135 -0.5724  0.6548 -0.2372
  670MOL0    Cl90360   3.501   6.825   9.302  0.2364  0.2157  0.1026
  670MOL0     C90361   3.227   6.010   8.535  0.0460  0.7431 -0.8303
  670MOL0     C90362   3.160   5.972   8.414  0.2117  0.4956 -0.0102
  670MOL0     O90363   2.962   6.134   8.193 -0.0442  0.3237  0.2098
  670MOL0     C90364   2.923   5.804   8.069  0.6421  0.4771  0.0982
  670MOL0     C90365   2.918   5.720   7.963 -0.1280 -0.1355  0.6722
  670MOL0     N90366   3.419   5.512   7.693 -0.0852 -0.9662  0.0471
  670MOL0     N90367   3.545   5.503   7.738 -0.4413 -0.5496 -0.4044
  670MOL0     C90368   3.224   5.217   8.746  0.8057 -0.9464 -0.8418
  670MOL0     C90369   3.282   5.152   8.856 -0.2253 -0.3820 -0.0466
  670MOL0     C90370   3.441   4.940   9.183  0.3710 -0.3680  0.6832
  670MOL0     C90371   3.583   4.962   9.176  0.5037  0.3693 -0.9934
  670MOL0     C90372   3.677   4.940   9.279 -0.6057 -0.1670 -0.2657
  670MOL0     C90373   3.626   4.875   9.391 -0.7309 -0.5847  0.3145
  670MOL0     O90374   3.691   4.851   9.508  0.5257  0.4308 -0.4426
  670MOL0     C90375   3.826   4.881   9.516  0.4517  0.4034  0.5211
  670MOL0     C90376   3.865   4.845   9.655 -0.4466 -1.1420  0.2193
  670MOL0     C90377   4.010   4.904   9.695  0.3219 -0.0919  0.5055
  670MOL0     C90378   4.066   4.842   9.824  0.2241  0.0648  0.4121
  670MOL0     C90379   3.998   4.903   9.940  0.3234 -0.7633 -0.0126
  670MOL0     C90380   3.937   4.951  10.032 -0.7154 -0.6737  0.4394
  670MOL0     C90381   3.487   4.873   9.403  0.0309  0.3758  0.2742
  670MOL0     C90382   3.399   4.900   9.308  0.4634  0.1269  0.2966
  670MOL0     H90383   3.470   4.920   8.716 -1.1828 -1.2974  1.3400
  670MOL0     H90384   3.380   5.005   8.524 -0.1479 -0.4713 -0.8566
  670MOL0     H90385   3.284   5.090   8.368  2.9436  0.4761  0.3166
  670MOL0     H90386   3.178   5.216   8.306  0.7925 -1.2903  0.5620
  670MOL0     H90387   3.306   5.390   8.369 -0.8887  0.1764 -1.0492
  670MOL0     H90388   3.444   5.285   8.436 -0.3649  0.3679  0.0459
  670MOL0     H90389   3.466   5.179   8.213 -2.6725 -0.7235 -1.3704
  670MOL0     H90390   3.360   5.299   8.149 -0.7790 -2.4925  0.1069
  670MOL0     H90391   3.540   5.464   8.262  2.2966 -0.3477  2.6944
  670MOL0     H90392   3.642   5.316   8.277  2.6390  1.1621 -2.5884
  670MOL0     H90393   3.531   5.411   8.012  0.0758  1.2671  0.1859
  670MOL0     H90394   3.675   5.493   8.059  1.4242 -1.3932 -0.1316
  670MOL0     H90395   3.784   5.273   8.092 -1.0121 -0.9725 -0.1887
  670MOL0     H90396   3.667   5.181   8.003  0.0332 -0.4008 -2.1302
  670MOL0     H90397   3.801   5.448   7.889  2.3563 -0.1358 -0.5479
  670MOL0     H90398   3.878   5.301   7.879  0.6333  0.2103  0.7567
  670MOL0     H90399   3.702   5.202   7.748 -1.2899  0.6903  1.6543
  670MOL0     H90400   3.766   5.345   7.668 -1.5753  0.4691 -1.2505
  670MOL0     H90401   3.443   5.188   7.731 -0.3529  0.3851 -2.6728
  670MOL0     H90402   3.243   5.390   7.517 -0.1497  0.4215  0.0286
  670MOL0     H90403   3.214   5.242   7.612 -1.1043 -0.0752  2.2129
  670MOL0     H90404   3.141   5.394   7.809 -0.0216  0.9303 -0.2845
  670MOL0     H90405   3.027   5.368   7.661 -2.5153  1.6196  2.1278
  670MOL0     H90406   3.129   5.595   7.587 -0.3744  2.6956  0.5858
  670MOL0     H90407   3.164   5.616   7.752 -3.1039  1.5727 -0.5239
  670MOL0     H90408   2.916   5.519   7.787  3.1310 -0.7439  0.6752
  670MOL0     H90409   2.905   5.538   7.617  0.8542  1.7888 -1.3993
  670MOL0     H90410   2.950   5.953   7.726  2.3757  4.1226  2.1777
  670MOL0     H90411   2.895   6.206   7.892  1.7044  2.3222  0.0481
  670MOL0     H90412   3.055   6.179   7.981  1.0253  1.1825 -1.4807
  670MOL0     H90413   3.040   6.162   7.810 -3.0434  1.5228 -0.9353
  670MOL0     H90414   2.837   6.028   8.504  0.1058  2.4136  0.1420
  670MOL0     H90415   2.943   6.098   8.711  0.2062  1.5415  0.3430
  670MOL0     H90416   3.358   6.148   8.880 -2.8820  0.0242  0.7862
  670MOL0     H90417   3.390   6.155   8.701  0.0564 -2.8860 -0.0350
  670MOL0     H90418   3.397   6.372   8.813  1.3074 -2.1684  0.4780
  670MOL0     H90419   3.261   6.374   8.703 -2.0311 -0.3680  0.1348
  670MOL0     H90420   3.283   6.328   9.006 -1.5904 -3.1789 -1.9576
  670MOL0     H90421   3.129   6.327   8.934  0.2003 -1.6890 -0.3523
  670MOL0     H90422   3.175   6.575   8.853 -0.3081  1.2146  2.7112
  670MOL0     H90423   3.161   6.539   9.018 -1.5603  0.4713 -1.1846
  670MOL0     H90424   3.421   6.606   8.871  1.5724  0.7359  0.7528
  670MOL0     H90425   3.423   6.518   9.033 -1.4213 -2.2276 -0.5746
  670MOL0     H90426   3.274   6.760   8.995  0.4908  1.0577  0.6376
  670MOL0     H90427   3.314   6.678   9.153  1.5634  0.3507  0.6019
  670MOL0     H90428   3.490   6.821   8.940  2.9861  0.2487  0.6799
  670MOL0     H90429   3.572   6.726   9.069 -0.9900 -1.6985  1.2367
  670MOL0     H90430   3.376   6.946   9.123  0.2073  2.0770 -0.6331
  670MOL0     H90431   3.554   6.966   9.121  0.1475  0.0328  0.6509
  670MOL0     H90432   3.331   5.980   8.548 -0.7055 -1.9820 -0.3360
  670MOL0     H90433   3.226   5.930   8.338  1.1362 -2.9646  2.4728
  670MOL0     H90434   2.935   5.749   8.162 -1.2176  0.3531  0.3172
  670MOL0     H90435   2.895   5.615   7.977 -1.3002 -0.0095 -0.1427
  670MOL0     H90436   3.164   5.306   8.761  0.1827 -1.9805  5.0094
  670MOL0     H90437   3.261   5.195   8.954  1.0536  4.0638 -1.4961
  670MOL0     H90438   3.620   4.999   9.081  0.5797  1.3990 -0.5779
  670MOL0     H90439   3.784   4.949   9.263 -0.8229  2.4279 -0.7574
  670MOL0     H90440   3.896   4.825   9.453 -1.1233 -0.2974 -0.6663
  670MOL0     H90441   3.848   4.985   9.491  2.8408 -0.4869 -1.4912
  670MOL0     H90442   3.860   4.737   9.673  0.4518 -1.1303  0.6023
  670MOL0     H90443   3.787   4.886   9.721  0.7474 -0.6564  1.3705
  670MOL0     H90444   3.997   5.012   9.702 -0.0596 -0.2092  1.8107
  670MOL0     H90445   4.084   4.890   9.616  0.3686 -0.1736  0.5632
  670MOL0     H90446   4.173   4.861   9.830 -0.1955  2.4432  1.7384
  670MOL0     H90447   4.050   4.735   9.805  1.3040  0.0242 -0.3717
  670MOL0     H90448   3.897   5.004  10.116 -0.8826  1.9244 -1.1530
  670MOL0     H90449   3.448   4.826   9.493 -0.2481 -2.2875 -1.1359
  670MOL0     H90450   3.295   4.886   9.335  0.7244 -3.6225 -0.2203
  671MOL0     O90451   5.763   4.085   5.014 -0.6732 -0.4166 -0.0040
  671MOL0     C90452   5.701   4.184   5.037 -0.5112 -0.0048 -0.1913
  671MOL0     O90453   5.735   4.316   4.995 -0.6014  0.8571  0.1061
  671MOL0     C90454   5.848   4.352   4.933 -1.2071  0.4868 -0.1413
  671MOL0     C90455   5.936   4.264   4.857 -0.8387  0.3326 -0.0456
  671MOL0     C90456   6.051   4.324   4.793  0.6393 -0.6146  0.1770
  671MOL0     C90457   6.063   4.467   4.792  0.0074  0.1789 -0.0965
  671MOL0     O90458   6.171   4.538   4.725 -0.3743 -0.4032 -0.3352
  671MOL0     C90459   6.268   4.456   4.664 -0.0938  0.3467 -0.0578
  671MOL0     C90460   6.383   4.555   4.636 -0.4697  0.7400 -0.4391
  671MOL0     C90461   6.502   4.497   4.548 -0.2745  0.2035 -0.4869
  671MOL0     C90462   6.567   4.375   4.612 -0.3447 -0.6610  0.3259
  671MOL0     C90463   6.711   4.346   4.547  0.0121 -0.6540  0.0442
  671MOL0     C90464   6.817   4.454   4.586  0.0548 -0.4218 -0.4658
  671MOL0     C90465   6.962   4.414   4.541 -0.3626  0.0132 -0.1985
  671MOL0     C90466   7.066   4.486   4.631  0.4457  0.2654  0.2563
  671MOL0     N90467   7.187   4.509   4.563  0.0851  0.4383  0.0083
  671MOL0     C90468   7.259   4.413   4.487  0.4947 -0.0073 -0.5762
  671MOL0     C90469   7.349   4.485   4.413 -0.7484  0.1010  0.7398
  671MOL0     C90470   7.439   4.438   4.296  0.2186  0.5833  0.0270
  671MOL0     C90471   7.485   4.287   4.300 -0.3530  0.3367 -0.4760
  671MOL0     C90472   7.560   4.245   4.418 -0.5777  0.0690 -0.4170
  671MOL0     C90473   7.662   4.136   4.397 -0.6286 -1.2061  0.3022
  671MOL0     O90474   7.785   4.196   4.342  0.7910 -0.4151 -0.3232
  671MOL0     C90475   7.891   4.114   4.306 -0.1326 -0.3069 -0.3448
  671MOL0     C90476   7.885   3.979   4.289 -0.2401  0.1873  0.6014
  671MOL0     C90477   7.998   3.910   4.237 -0.4059 -0.2251  0.0715
  671MOL0     C90478   7.970   3.762   4.223  0.8055  0.0826 -0.2009
  671MOL0     C90479   8.120   3.970   4.216  0.1155  0.0534 -0.0374
  671MOL0     C90480   8.247   3.908   4.179 -0.3263 -0.3666 -0.4892
  671MOL0     O90481   8.345   3.994   4.147  1.4535 -1.1901 -0.7218
  671MOL0     C90482   8.474   3.955   4.153  0.2437  0.5211 -0.3209
  671MOL0     C90483   8.552   3.984   4.045 -0.0039  0.0362 -0.8542
  671MOL0     C90484   8.689   3.945   4.040  0.4851 -1.1721 -0.2713
  671MOL0     C90485   8.746   3.888   4.156 -0.4420 -0.9760  0.6135
  671MOL0     O90486   8.885   3.892   4.167  0.2173 -0.0000 -0.1811
  671MOL0     C90487   8.966   3.816   4.086  0.2436  0.6067  0.7024
  671MOL0     C90488   9.102   3.873   4.108  0.1366 -0.0244  0.7020
  671MOL0     C90489   9.149   3.851   4.242  0.5428  0.3812 -0.1610
  671MOL0     C90490   9.286   3.904   4.262  0.1971 -0.3480  0.7360
  671MOL0     C90491   9.342   3.879   4.399  0.8238  0.1805  0.7923
  671MOL0     C90492   9.485   3.931   4.431  0.4787 -0.3499 -0.6158
  671MOL0     C90493   9.489   4.083   4.464 -0.3633  0.3374  0.5367
  671MOL0     C90494   9.627   4.135   4.520 -0.5920 -0.0678  0.8196
  671MOL0    Cl90495   9.765   4.119   4.395  0.0506 -0.0566 -0.0576
  671MOL0     C90496   8.666   3.847   4.264 -0.3435 -0.1980 -0.3682
  671MOL0     C90497   8.538   3.876   4.257  0.1026  0.5817 -0.1546
  671MOL0     O90498   8.258   3.784   4.196 -0.8393 -0.0503  0.3852
  671MOL0     C90499   8.124   4.110   4.237 -0.2477 -0.0003 -0.7814
  671MOL0     C90500   8.009   4.176   4.284 -0.8801 -0.4645 -0.0276
  671MOL0     N90501   7.337   4.620   4.457 -0.0648 -1.1159  0.6848
  671MOL0     N90502   7.238   4.633   4.538 -0.5319 -0.5115 -0.6824
  671MOL0     C90503   5.965   4.546   4.848 -0.9787  0.5040 -0.8059
  671MOL0     C90504   5.863   4.493   4.914  0.0036 -0.2905 -0.2446
  671MOL0     C90505   5.579   4.176   5.123  0.6378  0.1537  0.4453
  671MOL0     C90506   5.506   4.290   5.132  0.3333 -0.5406 -0.2196
  671MOL0     C90507   5.400   4.306   5.217  0.0154  0.5409  0.4717
  671MOL0     C90508   5.364   4.197   5.294  0.3937 -0.1112  0.2409
  671MOL0     O90509   5.264   4.191   5.382  0.5118 -0.3749 -0.0805
  671MOL0     C90510   5.233   4.302   5.464  0.5817  0.1037 -1.2029
  671MOL0     C90511   5.100   4.273   5.536 -0.3555  0.3017  0.1982
  671MOL0     C90512   5.083   4.391   5.625  0.1134 -0.0941  0.3183
  671MOL0     C90513   4.968   4.370   5.710  0.5843  0.3989 -1.0743
  671MOL0     C90514   4.937   4.477   5.820 -0.3067 -0.0859 -0.2914
  671MOL0     C90515   4.923   4.565   5.904 -0.2375  0.4539  0.2412
  671MOL0     C90516   5.441   4.078   5.289  0.5023 -0.0339 -0.9367
  671MOL0     C90517   5.545   4.069   5.200  0.0757 -0.8192 -0.2661
  671MOL0     H90518   5.928   4.156   4.861 -1.7641  0.4136  3.7482
  671MOL0     H90519   6.121   4.259   4.741 -0.0078  1.3992 -3.5579
  671MOL0     H90520   6.300   4.373   4.728 -1.4959  0.1113  0.3701
  671MOL0     H90521   6.218   4.416   4.576  0.8291  1.3392 -1.0758
  671MOL0     H90522   6.345   4.647   4.591 -0.9058  1.1022  0.6460
  671MOL0     H90523   6.428   4.580   4.732 -0.9510  1.7023 -0.4459
  671MOL0     H90524   6.469   4.466   4.448  0.7725  1.0158 -1.1112
  671MOL0     H90525   6.572   4.578   4.525 -0.4052  0.1206 -1.2014
  671MOL0     H90526   6.582   4.391   4.719 -2.2638  2.3809  0.2557
  671MOL0     H90527   6.499   4.291   4.599  1.1455 -1.5034 -2.9588
  671MOL0     H90528   6.743   4.245   4.577 -1.7156 -1.7892 -1.6601
  671MOL0     H90529   6.714   4.356   4.438  1.2420  2.4719  0.2669
  671MOL0     H90530   6.789   4.551   4.544 -4.9598 -1.7042 -0.6768
  671MOL0     H90531   6.798   4.473   4.692 -2.4054  2.1067 -1.2494
  671MOL0     H90532   6.976   4.306   4.554  2.4503  0.3480  0.1414
  671MOL0     H90533   6.959   4.437   4.434 -1.9296  1.4336  0.1055
  671MOL0     H90534   7.084   4.425   4.721 -2.1155  1.6442  1.8347
  671MOL0     H90535   7.023   4.580   4.666  0.6832  0.3999  0.1828
  671MOL0     H90536   7.237   4.307   4.497 -0.3052  0.0881 -1.2095
  671MOL0     H90537   7.381   4.462   4.207  0.2916  0.8011  0.0373
  671MOL0     H90538   7.529   4.500   4.297 -0.8533  2.2116  1.2263
  671MOL0     H90539   7.560   4.267   4.223  0.2824  0.6316  0.0530
  671MOL0     H90540   7.399   4.221   4.289 -1.1869  1.3364 -0.2011
  671MOL0     H90541   7.495   4.219   4.503  1.1127  0.1176  0.9400
  671MOL0     H90542   7.618   4.331   4.454  0.0770 -0.7193  0.4561
  671MOL0     H90543   7.622   4.054   4.337  0.0013 -0.6101 -0.9721
  671MOL0     H90544   7.687   4.100   4.497  1.1665  1.0284  0.7385
  671MOL0     H90545   7.787   3.932   4.298 -0.1518  0.1714  1.5906
  671MOL0     H90546   7.864   3.740   4.239 -0.5712  4.3965 -1.9681
  671MOL0     H90547   8.001   3.733   4.122  2.8064 -1.6724  0.8335
  671MOL0     H90548   8.042   3.712   4.288  1.3487  0.9982 -0.0816
  671MOL0     H90549   8.513   4.030   3.955  0.2404 -0.8756 -1.4346
  671MOL0     H90550   8.750   3.988   3.961 -1.6454  2.4571 -0.1695
  671MOL0     H90551   8.961   3.709   4.110 -1.0835  0.6391  0.6324
  671MOL0     H90552   8.929   3.821   3.984  0.5555  2.9414  0.6486
  671MOL0     H90553   9.182   3.834   4.045  2.1537  0.6957  2.6890
  671MOL0     H90554   9.092   3.979   4.083  0.0932 -0.2822 -0.4263
  671MOL0     H90555   9.142   3.747   4.275  0.9711  0.8606  1.5509
  671MOL0     H90556   9.072   3.893   4.309 -0.4273 -1.4017 -0.0873
  671MOL0     H90557   9.358   3.873   4.186  0.7044 -1.7186  1.7375
  671MOL0     H90558   9.288   4.011   4.238  1.0077 -0.7361 -1.0904
  671MOL0     H90559   9.340   3.776   4.437  3.8601  0.2734  1.4279
  671MOL0     H90560   9.275   3.930   4.469  0.6551 -1.2699  1.7268
  671MOL0     H90561   9.516   3.879   4.522 -1.1807 -1.1386 -0.4643
  671MOL0     H90562   9.549   3.908   4.345 -0.3562  3.1143 -2.3556
  671MOL0     H90563   9.408   4.110   4.532  0.0571  1.1267  0.7382
  671MOL0     H90564   9.476   4.138   4.370 -0.1489 -1.1888 -0.4142
  671MOL0     H90565   9.646   4.076   4.610  1.0718 -3.0319 -1.3170
  671MOL0     H90566   9.608   4.241   4.536 -2.1830 -0.2927  0.5992
  671MOL0     H90567   8.723   3.803   4.345  1.6095  1.8668 -0.5280
  671MOL0     H90568   8.470   3.851   4.337  0.9015  2.5966  1.2295
  671MOL0     H90569   8.211   4.174   4.227 -0.0557  0.4465  2.5983
  671MOL0     H90570   8.000   4.280   4.315 -0.3784 -0.8847  1.6461
  671MOL0     H90571   5.973   4.652   4.826  2.0038 -0.1585 -3.8637
  671MOL0     H90572   5.789   4.562   4.953  3.0843  1.8884  2.1606
  671MOL0     H90573   5.529   4.375   5.068  1.2357 -1.7853 -1.6214
  671MOL0     H90574   5.354   4.401   5.240 -2.0930 -0.8968  2.6984
  671MOL0     H90575   5.304   4.305   5.547 -1.1553 -0.0908  0.3635
  671MOL0     H90576   5.243   4.399   5.416  0.0750 -0.2217 -1.9852
  671MOL0     H90577   5.102   4.179   5.592 -1.1370 -1.2246 -2.1817
  671MOL0     H90578   5.022   4.269   5.459 -0.8135 -2.6010  0.7058
  671MOL0     H90579   5.072   4.484   5.567 -0.0587 -0.8318 -0.8706
  671MOL0     H90580   5.170   4.388   5.691  1.5909  0.7046 -1.4905
  671MOL0     H90581   4.978   4.270   5.754  1.7790 -0.3768 -2.9970
  671MOL0     H90582   4.889   4.369   5.634  2.5171  0.0048 -3.1914
  671MOL0     H90583   4.936   4.642   5.977 -0.3131  1.5317 -0.8458
  671MOL0     H90584   5.403   4.004   5.359 -1.4359  1.7159 -0.0286
  671MOL0     H90585   5.609   3.982   5.204  4.0944  1.8679  0.0846
  672MOL0     O90586  10.645   8.157  10.054  0.0500 -0.4509  0.1011
  672MOL0     C90587  10.572   8.163   9.958  1.0026 -0.6345  0.2161
  672MOL0     O90588  10.554   8.054   9.869  0.7709  0.2245 -0.2957
  672MOL0     C90589  10.609   7.933   9.897 -0.0226  0.0414 -0.2820
  672MOL0     C90590  10.531   7.817   9.887  0.2468  0.4477  0.3667
  672MOL0     C90591  10.596   7.692   9.910  0.4006 -0.0940  0.1229
  672MOL0     C90592  10.738   7.690   9.930  0.6462  1.3560 -0.3864
  672MOL0     O90593  10.785   7.554   9.941  0.3404 -0.0776 -1.1461
  672MOL0     C90594  10.904   7.560  10.023 -0.2630 -0.4572  0.0829
  672MOL0     C90595  10.935   7.412  10.064  0.2109 -0.0605  0.3716
  672MOL0     C90596  11.067   7.412  10.147  0.2217 -0.3975 -0.4461
  672MOL0     C90597  11.191   7.469  10.085 -0.4855  0.0919  0.0557
  672MOL0     C90598  11.289   7.374  10.038  0.1471  0.8775 -0.5601
  672MOL0     C90599  11.407   7.448   9.971  0.1064  0.2184 -0.4792
  672MOL0     C90600  11.474   7.566  10.043 -0.0504  0.2809  0.0419
  672MOL0     C90601  11.543   7.531  10.172  0.0197  0.3430 -0.2868
  672MOL0     N90602  11.658   7.446  10.156 -0.3145 -0.9829 -0.0612
  672MOL0     C90603  11.773   7.480  10.087  0.0564 -0.6310 -0.0911
  672MOL0     C90604  11.858   7.379  10.108  0.5295 -0.1179 -0.2369
  672MOL0     C90605  12.012   7.378  10.071 -0.4486  0.0882 -0.4725
  672MOL0     C90606  12.112   7.434  10.177  0.4843  0.0670  0.0913
  672MOL0     C90607  12.096   7.580  10.206  0.0116 -0.0903  0.2470
  672MOL0     C90608  12.213   7.638  10.281 -0.5541 -1.0328  0.2569
  672MOL0     O90609  12.315   7.652  10.189 -0.4635  0.1152 -0.1060
  672MOL0     C90610  12.446   7.684  10.233 -0.1732  0.2983  0.2789
  672MOL0     C90611  12.527   7.715  10.129 -0.1289 -0.4813  0.1463
  672MOL0     C90612  12.659   7.767  10.149 -0.1847  0.9222  0.9458
  672MOL0     C90613  12.743   7.782  10.026 -0.4600 -0.3068 -1.3741
  672MOL0     C90614  12.707   7.778  10.280 -0.5829 -0.4541 -0.2075
  672MOL0     C90615  12.851   7.835  10.308 -0.3717 -0.1092  0.0343
  672MOL0     O90616  12.940   7.739  10.364  0.1655  0.4566  0.1629
  672MOL0     C90617  13.065   7.779  10.380 -0.4165  0.1603  0.0905
  672MOL0     C90618  13.142   7.823  10.270 -0.8583  0.2768  0.0279
  672MOL0     C90619  13.283   7.834  10.280  0.8990 -0.3265  0.0190
  672MOL0     C90620  13.345   7.834  10.401  0.2360  0.4106 -0.1800
  672MOL0     O90621  13.481   7.820  10.432  0.2045 -0.1097 -0.0432
  672MOL0     C90622  13.573   7.784  10.326  0.5322 -0.1362  0.0280
  672MOL0     C90623  13.712   7.764  10.379 -0.1425  0.9569 -0.0413
  672MOL0     C90624  13.818   7.701  10.284  0.1059  0.1566 -0.2425
  672MOL0     C90625  13.956   7.711  10.341 -0.2165  0.1802 -0.2008
  672MOL0     C90626  14.063   7.740  10.241  0.4818  0.0653  0.8832
  672MOL0     C90627  14.104   7.626  10.150 -1.3923  0.2132  0.3840
  672MOL0     C90628  13.988   7.558  10.078  0.3222  0.0777 -0.0756
  672MOL0     C90629  14.029   7.484   9.955  0.1301 -0.4903  0.6247
  672MOL0    Cl90630  14.100   7.599   9.834  0.3475 -0.2683  0.2120
  672MOL0     C90631  13.267   7.803  10.511  0.1438 -0.9879  0.1678
  672MOL0     C90632  13.132   7.776  10.512  0.5603  0.3377 -0.4277
  672MOL0     O90633  12.881   7.945  10.265 -0.0498  0.0230  0.1371
  672MOL0     C90634  12.619   7.738  10.381  1.2016 -0.6754 -0.8695
  672MOL0     C90635  12.488   7.697  10.362 -0.4225 -0.1139 -0.6192
  672MOL0     N90636  11.805   7.282  10.186 -0.0734 -1.0148 -0.8265
  672MOL0     N90637  11.682   7.325  10.211  0.5810  0.3492  0.6440
  672MOL0     C90638  10.813   7.811   9.939 -0.4314 -0.4770 -1.3655
  672MOL0     C90639  10.745   7.924   9.920  1.3189 -0.5476 -0.7169
  672MOL0     C90640  10.514   8.291   9.928  0.1350  0.6459  0.1133
  672MOL0     C90641  10.486   8.326   9.796 -0.4691  0.5308 -0.1738
  672MOL0     C90642  10.420   8.442   9.773 -0.2042  0.3670  0.0216
  672MOL0     C90643  10.384   8.539   9.863  0.3347  0.6404 -0.1350
  672MOL0     O90644  10.321   8.646   9.816  0.2839 -0.1895 -0.0074
  672MOL0     C90645  10.244   8.734   9.899 -0.4367 -0.1359  0.5017
  672MOL0     C90646  10.173   8.839   9.822  0.1688 -0.2171 -0.1909
  672MOL0     C90647  10.105   8.935   9.913  0.6273 -1.0042  0.0290
  672MOL0     C90648  10.058   9.059   9.837  0.5371 -0.2876  0.5711
  672MOL0     C90649  10.172   9.156   9.824  0.0228 -0.4216 -0.1071
  672MOL0     C90650  10.255   9.246   9.805  1.1683 -1.2828 -0.2143
  672MOL0     C90651  10.430   8.509   9.994 -0.5584 -0.5978  0.6084
  672MOL0     C90652  10.488   8.388  10.029 -0.0021 -0.2384  0.0339
  672MOL0     H90653  10.428   7.838   9.860 -0.0340 -2.1443 -0.8137
  672MOL0     H90654  10.544   7.598   9.895  1.2365 -0.5187 -0.1855
  672MOL0     H90655  10.978   7.607   9.958  0.2570 -0.8890  0.3627
  672MOL0     H90656  10.884   7.621  10.112  2.1670 -0.5801  0.7894
  672MOL0     H90657  10.853   7.368  10.121 -0.4664  0.4633 -0.1759
  672MOL0     H90658  10.959   7.357   9.972  1.0867  2.5507 -1.0515
  672MOL0     H90659  11.044   7.473  10.235 -0.0571 -2.6353  1.1478
  672MOL0     H90660  11.080   7.306  10.174 -1.4058 -0.3482  0.7283
  672MOL0     H90661  11.166   7.530   9.998 -0.4327 -1.0280 -0.7624
  672MOL0     H90662  11.250   7.532  10.152  2.8980  0.3358 -2.8214
  672MOL0     H90663  11.327   7.313  10.121  1.1228  0.7529 -1.0905
  672MOL0     H90664  11.234   7.311   9.967 -0.8541 -0.7788  1.5413
  672MOL0     H90665  11.477   7.366   9.952  1.7552  1.6430 -0.8455
  672MOL0     H90666  11.362   7.478   9.876 -1.0646 -0.7872 -0.2540
  672MOL0     H90667  11.549   7.611   9.977 -2.4828  1.8389 -1.8584
  672MOL0     H90668  11.403   7.648  10.057 -0.1495  0.8702 -3.0246
  672MOL0     H90669  11.466   7.484  10.235 -0.7352  2.1678  0.2291
  672MOL0     H90670  11.577   7.621  10.224 -2.5901  0.3788  1.6101
  672MOL0     H90671  11.797   7.572  10.036  1.0310 -0.3287  0.8755
  672MOL0     H90672  12.026   7.272  10.051 -3.4495 -0.3994 -0.3140
  672MOL0     H90673  12.024   7.425   9.973  1.6001 -0.0875 -0.3619
  672MOL0     H90674  12.216   7.433  10.141  0.3796 -1.9945 -0.2379
  672MOL0     H90675  12.096   7.374  10.267  0.7322 -0.6648 -0.3404
  672MOL0     H90676  12.005   7.608  10.259  0.2611  0.6408  0.3044
  672MOL0     H90677  12.088   7.637  10.113 -2.6152 -3.4658 -1.8403
  672MOL0     H90678  12.233   7.577  10.370 -3.3501 -1.0417  0.9577
  672MOL0     H90679  12.196   7.739  10.320 -1.2979 -1.6983  1.7666
  672MOL0     H90680  12.480   7.729  10.032  0.0293 -0.7146  0.0349
  672MOL0     H90681  12.804   7.872  10.017 -2.9970  2.0638  2.0708
  672MOL0     H90682  12.818   7.702  10.029 -0.3415 -0.1973  1.3010
  672MOL0     H90683  12.686   7.767   9.934 -0.7198  1.9541 -1.6307
  672MOL0     H90684  13.101   7.812  10.170 -1.4315 -3.0869  0.5046
  672MOL0     H90685  13.344   7.843  10.191 -0.8276 -1.4556 -1.3540
  672MOL0     H90686  13.533   7.700  10.268  0.7641 -2.1782  2.6632
  672MOL0     H90687  13.579   7.862  10.250 -0.6053 -0.7350 -0.7108
  672MOL0     H90688  13.750   7.862  10.408  0.6122  0.6758 -0.0423
  672MOL0     H90689  13.704   7.706  10.471 -0.9093  1.9622  0.5433
  672MOL0     H90690  13.795   7.750  10.190  0.4412  0.6084 -0.0908
  672MOL0     H90691  13.783   7.600  10.259  0.7995 -0.0669 -0.3318
  672MOL0     H90692  13.955   7.797  10.408  2.7422 -0.8729  1.3788
  672MOL0     H90693  13.994   7.628  10.402  3.3854  1.2787 -0.6989
  672MOL0     H90694  14.149   7.795  10.280 -0.1924  1.5559  0.3409
  672MOL0     H90695  14.023   7.818  10.175  1.0378 -1.6029 -1.5672
  672MOL0     H90696  14.164   7.676  10.074 -1.3998  0.2987  0.4343
  672MOL0     H90697  14.170   7.555  10.200  0.6383  0.7870 -1.3466
  672MOL0     H90698  13.919   7.636  10.043  0.2751 -0.6296 -1.6242
  672MOL0     H90699  13.946   7.482  10.145  2.7337 -1.4931 -0.2363
  672MOL0     H90700  13.949   7.424   9.909  0.1698 -2.3927  2.8662
  672MOL0     H90701  14.101   7.404   9.975  0.0156 -1.2481 -1.6132
  672MOL0     H90702  13.317   7.799  10.607 -0.4607 -0.2639  0.5157
  672MOL0     H90703  13.086   7.749  10.607  0.3891 -1.7237 -1.0418
  672MOL0     H90704  12.650   7.753  10.484  1.2217  0.5540 -1.0388
  672MOL0     H90705  12.419   7.684  10.445  0.0207  0.7062 -0.1093
  672MOL0     H90706  10.920   7.798   9.950 -0.6409 -1.3090  0.0072
  672MOL0     H90707  10.803   8.015   9.930 -1.9581  1.5597  0.8900
  672MOL0     H90708  10.516   8.258   9.717  0.7732 -0.0312  0.7635
  672MOL0     H90709  10.404   8.465   9.668 -0.8260  0.2611  0.0932
  672MOL0     H90710  10.171   8.680   9.960  0.0997 -1.1049  0.3182
  672MOL0     H90711  10.321   8.779   9.962 -1.3368 -0.2809  1.7290
  672MOL0     H90712  10.091   8.803   9.761  0.2809  2.3796 -2.0200
  672MOL0     H90713  10.242   8.882   9.749  1.7124 -2.7177 -0.3584
  672MOL0     H90714  10.170   8.972   9.994  1.2978 -1.6031 -0.2293
  672MOL0     H90715  10.011   8.888   9.944 -0.8201  0.3485 -2.0742
  672MOL0     H90716   9.977   9.101   9.897  1.8172 -0.9678  2.8930
  672MOL0     H90717  10.020   9.035   9.737  0.9456  3.1793 -0.5558
  672MOL0     H90718  10.326   9.325   9.786  0.9110 -0.9416  0.2009
  672MOL0     H90719  10.411   8.592  10.062 -1.8096  2.0777 -2.7338
  672MOL0     H90720  10.518   8.364  10.130  1.7508  4.0736  0.7472
  673MOL0     O90721   2.022   9.651   2.147  0.0754 -0.2136 -0.6072
  673MOL0     C90722   2.140   9.670   2.156 -0.3183 -0.0437  0.1343
  673MOL0     O90723   2.222   9.606   2.238 -0.2880  0.3884 -0.4079
  673MOL0     C90724   2.161   9.563   2.355  0.4581 -0.0200  0.1664
  673MOL0     C90725   2.177   9.626   2.475  1.1523 -0.2709 -0.9750
  673MOL0     C90726   2.092   9.599   2.586  0.2597 -0.0327 -0.1531
  673MOL0     C90727   1.994   9.502   2.574  0.2575 -1.0165 -0.3303
  673MOL0     O90728   1.911   9.492   2.689  0.6386  0.0939  0.7634
  673MOL0     C90729   1.858   9.357   2.694  0.4919  0.6624 -0.9095
  673MOL0     C90730   1.766   9.324   2.813  0.1918  0.4501  0.6373
  673MOL0     C90731   1.651   9.426   2.808  0.0525  0.0630 -0.1128
  673MOL0     C90732   1.537   9.379   2.890  0.4266  1.1347  0.1107
  673MOL0     C90733   1.420   9.483   2.885 -0.5385  0.3993 -0.2055
  673MOL0     C90734   1.300   9.444   2.982  0.9794 -0.3297  0.6016
  673MOL0     C90735   1.178   9.538   2.964 -0.6276 -0.1539 -0.1378
  673MOL0     C90736   1.079   9.524   3.083  0.5722  0.1114 -0.0379
  673MOL0     N90737   0.978   9.422   3.073 -0.0131  0.4131 -0.0812
  673MOL0     C90738   0.995   9.298   3.130  0.2214  0.0651  0.0097
  673MOL0     C90739   0.873   9.235   3.097 -0.2832 -0.2085 -0.3994
  673MOL0     C90740   0.843   9.089   3.124 -0.4843 -0.1015  0.0513
  673MOL0     C90741   0.733   9.068   3.225  0.7701 -0.2273 -0.7605
  673MOL0     C90742   0.766   9.133   3.362 -0.2065  0.4163 -0.6493
  673MOL0     C90743   0.681   9.070   3.471 -0.5839  1.0066 -1.0364
  673MOL0     O90744   0.747   9.110   3.593 -0.1478  0.0713 -0.4806
  673MOL0     C90745   0.869   9.059   3.643 -0.5450  0.1323 -0.3965
  673MOL0     C90746   0.923   9.115   3.759 -0.0799  0.2503  0.4390
  673MOL0     C90747   1.048   9.081   3.807 -0.5672  0.6307  0.6437
  673MOL0     C90748   1.090   9.165   3.925  0.7185  0.2574 -0.6628
  673MOL0     C90749   1.119   8.976   3.750  0.8996  0.4291  0.2145
  673MOL0     C90750   1.249   8.919   3.805 -0.4963  0.2865 -0.0187
  673MOL0     O90751   1.292   8.791   3.776  0.4130 -0.1439 -0.1848
  673MOL0     C90752   1.408   8.744   3.834 -0.0438 -0.1610  0.3203
  673MOL0     C90753   1.402   8.613   3.891 -0.0306 -0.7441  0.6197
  673MOL0     C90754   1.521   8.554   3.942 -0.5833  1.2372  0.0452
  673MOL0     C90755   1.640   8.628   3.933 -0.3513  1.1462  0.3301
  673MOL0     O90756   1.755   8.569   3.987  0.1074  0.0428 -0.7226
  673MOL0     C90757   1.880   8.620   3.946  0.6133  0.5228 -0.5286
  673MOL0     C90758   1.977   8.505   3.996 -0.1224 -1.2773  0.4108
  673MOL0     C90759   2.009   8.529   4.143  0.4099  0.0022 -0.0997
  673MOL0     C90760   2.109   8.427   4.202 -0.3045 -0.1748  0.1265
  673MOL0     C90761   2.130   8.434   4.351 -0.1949  0.0898 -0.4960
  673MOL0     C90762   2.056   8.327   4.425 -0.5936 -0.2187  1.2152
  673MOL0     C90763   2.071   8.316   4.575 -0.5879 -0.0503  0.2306
  673MOL0     C90764   2.008   8.426   4.646  1.0140  0.3955  0.3807
  673MOL0    Cl90765   2.013   8.409   4.826  0.1130  0.7001 -0.1187
  673MOL0     C90766   1.649   8.758   3.884  0.4480 -0.4042 -0.1868
  673MOL0     C90767   1.529   8.812   3.825  0.6476  0.6630  0.6060
  673MOL0     O90768   1.308   9.006   3.874 -0.4162 -0.0119 -0.2819
  673MOL0     C90769   1.060   8.913   3.636 -0.6058 -0.7124  0.5788
  673MOL0     C90770   0.946   8.963   3.576  0.9441  0.1785 -0.6622
  673MOL0     N90771   0.793   9.320   3.031  0.2016 -0.0786 -1.0554
  673MOL0     N90772   0.850   9.431   3.026 -0.1348 -0.8223  0.1212
  673MOL0     C90773   1.987   9.425   2.453  0.4037 -0.2746 -0.9870
  673MOL0     C90774   2.083   9.449   2.350 -0.0770  0.9727 -0.1961
  673MOL0     C90775   2.194   9.772   2.059  0.2720  0.3740 -0.2332
  673MOL0     C90776   2.321   9.821   2.078  0.7748 -0.0369 -0.4195
  673MOL0     C90777   2.377   9.920   1.994 -1.0237  0.2829 -0.2617
  673MOL0     C90778   2.301   9.962   1.881 -0.7102 -0.3705  0.3822
  673MOL0     O90779   2.355  10.050   1.785 -0.0815 -0.4776  0.0029
  673MOL0     C90780   2.483  10.111   1.794  0.2361  1.5385  0.7351
  673MOL0     C90781   2.514  10.181   1.667 -0.4140 -0.0781 -0.6432
  673MOL0     C90782   2.617  10.298   1.666 -0.2157 -0.5851  1.2524
  673MOL0     C90783   2.734  10.273   1.746  0.1200  0.3813  0.6785
  673MOL0     C90784   2.842  10.360   1.701  0.2476 -0.0439  0.2471
  673MOL0     C90785   2.931  10.436   1.666  0.7116 -0.1835  0.1332
  673MOL0     C90786   2.170   9.922   1.868 -0.7111 -0.4271 -0.8934
  673MOL0     C90787   2.117   9.825   1.952 -0.2972 -0.3230  0.5511
  673MOL0     H90788   2.241   9.713   2.480 -0.1056  0.7176 -1.2854
  673MOL0     H90789   2.103   9.670   2.667  1.6417  0.0217 -0.3541
  673MOL0     H90790   1.803   9.329   2.604 -2.5840  0.6897  0.8172
  673MOL0     H90791   1.944   9.290   2.703 -1.3423 -1.5232  3.2636
  673MOL0     H90792   1.732   9.224   2.787  0.7690 -0.0144  1.5859
  673MOL0     H90793   1.818   9.326   2.909  1.7779 -0.4322 -0.1689
  673MOL0     H90794   1.690   9.522   2.841 -1.0284  1.3474 -2.3101
  673MOL0     H90795   1.620   9.452   2.706 -0.1004 -2.1604 -0.6906
  673MOL0     H90796   1.501   9.290   2.838  1.7367  1.3104 -1.1438
  673MOL0     H90797   1.567   9.361   2.994 -1.5212  0.0543  0.5365
  673MOL0     H90798   1.469   9.578   2.910 -0.1298  0.6037 -1.7363
  673MOL0     H90799   1.387   9.484   2.781  0.8612 -2.0615 -0.7475
  673MOL0     H90800   1.269   9.341   2.958  2.6875 -0.9720  1.0064
  673MOL0     H90801   1.337   9.434   3.084  0.7270 -1.6961  0.5873
  673MOL0     H90802   1.199   9.644   2.946 -2.0766  0.1301 -0.3172
  673MOL0     H90803   1.125   9.511   2.872 -1.5262 -1.9234  0.8505
  673MOL0     H90804   1.019   9.615   3.072  0.6327  0.0818 -0.6459
  673MOL0     H90805   1.132   9.524   3.179 -0.9437 -0.0290  0.8456
  673MOL0     H90806   1.086   9.258   3.174 -0.8460 -1.7749  0.6382
  673MOL0     H90807   0.817   9.047   3.026 -3.3968  2.0716 -0.2389
  673MOL0     H90808   0.933   9.040   3.161 -0.2022  0.3089 -0.0771
  673MOL0     H90809   0.720   8.960   3.240 -2.1286  0.2987  1.5303
  673MOL0     H90810   0.631   9.100   3.201 -0.6886 -1.7067  2.7554
  673MOL0     H90811   0.747   9.240   3.354 -1.9326  0.1347 -0.7253
  673MOL0     H90812   0.871   9.125   3.390 -0.6298 -0.6241  0.7635
  673MOL0     H90813   0.679   8.963   3.449  0.9151  0.7707 -0.1473
  673MOL0     H90814   0.579   9.111   3.464 -1.7064 -1.7185 -2.1218
  673MOL0     H90815   0.861   9.195   3.800  0.7549  0.0455  2.2133
  673MOL0     H90816   1.020   9.230   3.978  2.5989  1.4719  0.4547
  673MOL0     H90817   1.125   9.104   4.008  0.8886  1.6520  0.3270
  673MOL0     H90818   1.180   9.217   3.890  3.0546 -0.0071  4.2098
  673MOL0     H90819   1.308   8.560   3.899 -0.4453 -0.3332 -1.1184
  673MOL0     H90820   1.517   8.457   3.990 -0.5226  1.7490  1.1384
  673MOL0     H90821   1.877   8.602   3.838 -1.4698 -1.5395 -0.2050
  673MOL0     H90822   1.907   8.721   3.977  1.8131  0.1484 -0.2713
  673MOL0     H90823   1.935   8.405   3.984 -1.5020 -0.5070 -1.6378
  673MOL0     H90824   2.073   8.510   3.943 -0.3409 -3.7249 -0.3097
  673MOL0     H90825   1.918   8.527   4.203 -0.1352  0.4979 -0.8989
  673MOL0     H90826   2.047   8.631   4.143  1.1053 -0.2410  0.5647
  673MOL0     H90827   2.067   8.329   4.180 -1.8422  0.4658  0.0916
  673MOL0     H90828   2.211   8.436   4.163  1.4928 -1.6397  3.9573
  673MOL0     H90829   2.103   8.529   4.398  1.9723 -0.3304  1.8313
  673MOL0     H90830   2.237   8.421   4.369 -0.3699 -0.4287  0.2173
  673MOL0     H90831   1.950   8.344   4.404 -0.7317 -0.3269  1.7980
  673MOL0     H90832   2.077   8.234   4.372  0.3348  1.6776 -2.0077
  673MOL0     H90833   2.177   8.305   4.601 -0.8784 -1.2357  1.0215
  673MOL0     H90834   2.023   8.220   4.595 -0.7173 -0.0981 -0.2953
  673MOL0     H90835   1.902   8.413   4.622  1.7565 -3.7712 -1.5135
  673MOL0     H90836   2.039   8.521   4.601  1.5373  0.0308 -0.0468
  673MOL0     H90837   1.740   8.817   3.875  2.3060 -2.7377  1.8974
  673MOL0     H90838   1.525   8.901   3.764  0.0680  0.4258  0.2863
  673MOL0     H90839   1.105   8.828   3.586 -1.6153 -0.3306 -1.0503
  673MOL0     H90840   0.896   8.911   3.495 -0.0893 -1.2254  0.8095
  673MOL0     H90841   1.919   9.341   2.446 -0.5776 -0.0754  3.2774
  673MOL0     H90842   2.074   9.402   2.252 -1.9549  0.3143  0.2336
  673MOL0     H90843   2.382   9.776   2.156 -0.0669  1.3499  1.0879
  673MOL0     H90844   2.481   9.945   2.013 -1.1526 -0.9580  2.7614
  673MOL0     H90845   2.483  10.174   1.883 -2.2140  2.6747 -0.0029
  673MOL0     H90846   2.558  10.036   1.820 -1.1010  0.3462  1.3089
  673MOL0     H90847   2.423  10.231   1.633 -2.1999 -2.6986 -0.0621
  673MOL0     H90848   2.543  10.101   1.598  3.4803 -1.4879  2.2480
  673MOL0     H90849   2.565  10.385   1.706 -2.8949 -0.7959 -1.4457
  673MOL0     H90850   2.647  10.318   1.563 -3.4889  0.6624  0.4197
  673MOL0     H90851   2.774  10.171   1.747 -0.7521  0.0300  0.2577
  673MOL0     H90852   2.716  10.300   1.851 -2.1266  0.9298  0.1882
  673MOL0     H90853   3.017  10.493   1.634  4.3883 -4.0608  2.0797
  673MOL0     H90854   2.123   9.961   1.778  0.6065 -0.9908 -1.8544
  673MOL0     H90855   2.017   9.786   1.935 -1.6588  2.6293  1.1642
  674MOL0     O90856   0.661   6.470   0.162  0.0813  0.8111  0.5559
  674MOL0     C90857   0.754   6.552   0.155 -0.3740 -0.3977  1.4081
  674MOL0     O90858   0.776   6.629   0.049 -0.5229 -0.8760 -0.3901
  674MOL0     C90859   0.678   6.660  -0.034  0.0837  0.0698 -0.3221
  674MOL0     C90860   0.669   6.797  -0.050  0.0660 -0.2775 -0.4890
  674MOL0     C90861   0.563   6.842  -0.135  0.0218 -0.1780  0.6158
  674MOL0     C90862   0.477   6.756  -0.204 -0.4396  0.4585 -0.1415
  674MOL0     O90863   0.404   6.818  -0.309 -0.3531  0.5077  0.3084
  674MOL0     C90864   0.289   6.739  -0.366 -0.6494 -0.3273 -0.0086
  674MOL0     C90865   0.207   6.814  -0.468  0.6193 -0.8742  0.3195
  674MOL0     C90866   0.085   6.747  -0.536 -0.0289  0.5607 -0.6968
  674MOL0     C90867   0.006   6.863  -0.600  0.2110  0.1127  0.7334
  674MOL0     C90868  -0.116   6.796  -0.671  0.7634 -1.0607 -0.4178
  674MOL0     C90869  -0.197   6.888  -0.751  0.6258 -0.4660  0.6670
  674MOL0     C90870  -0.314   6.828  -0.832  0.2963  0.1672  0.4386
  674MOL0     C90871  -0.276   6.724  -0.942  0.1880 -1.3723 -0.2487
  674MOL0     N90872  -0.394   6.662  -0.995 -0.0442  0.5075 -0.2004
  674MOL0     C90873  -0.490   6.718  -1.081 -0.2638  0.2795  0.1137
  674MOL0     C90874  -0.599   6.639  -1.079  0.4076  0.5308  0.6416
  674MOL0     C90875  -0.719   6.671  -1.162 -0.7051 -0.1312  0.8842
  674MOL0     C90876  -0.842   6.584  -1.120  0.7300 -0.4682  0.1143
  674MOL0     C90877  -0.835   6.431  -1.152 -0.7063  0.6599  0.2515
  674MOL0     C90878  -0.826   6.405  -1.301  0.6429  0.0353  0.4124
  674MOL0     O90879  -0.938   6.468  -1.361 -0.0446 -0.1198 -0.4828
  674MOL0     C90880  -1.022   6.389  -1.425  1.1344  0.3765  0.4303
  674MOL0     C90881  -0.986   6.286  -1.512 -0.4005 -0.7473  1.0590
  674MOL0     C90882  -1.079   6.212  -1.589 -0.2032  0.4708  0.3509
  674MOL0     C90883  -1.031   6.111  -1.693 -0.7197  0.3679  0.7152
  674MOL0     C90884  -1.214   6.245  -1.563 -0.0895  0.6804 -0.3671
  674MOL0     C90885  -1.315   6.162  -1.620  0.3890 -0.3931  0.6241
  674MOL0     O90886  -1.393   6.101  -1.525 -0.3910  0.6054  0.9234
  674MOL0     C90887  -1.519   6.075  -1.525  0.4551  0.0182 -0.1222
  674MOL0     C90888  -1.616   6.130  -1.611  0.1523  0.6206  0.2362
  674MOL0     C90889  -1.758   6.119  -1.581  0.9973  0.0896  0.3389
  674MOL0     C90890  -1.798   6.055  -1.461 -0.0419  0.4602  0.3809
  674MOL0     O90891  -1.937   6.032  -1.458 -0.1500 -0.3214 -0.2599
  674MOL0     C90892  -1.993   5.971  -1.342  0.8227  0.3655 -0.1052
  674MOL0     C90893  -2.145   5.976  -1.350 -0.0142 -0.7968 -0.1470
  674MOL0     C90894  -2.199   5.872  -1.443 -0.5907  0.2426 -0.0474
  674MOL0     C90895  -2.350   5.871  -1.468  0.1855  0.6021 -0.0723
  674MOL0     C90896  -2.407   5.731  -1.482  0.3784 -0.9943 -0.7530
  674MOL0     C90897  -2.564   5.754  -1.463 -0.6726  0.2684 -0.1108
  674MOL0     C90898  -2.633   5.618  -1.474 -1.1771 -0.8529 -0.7154
  674MOL0     C90899  -2.641   5.549  -1.333  0.5277 -0.4048 -1.1329
  674MOL0    Cl90900  -2.713   5.402  -1.369 -0.1526 -0.4492  0.1754
  674MOL0     C90901  -1.696   6.016  -1.370 -0.0835  0.7963 -0.4502
  674MOL0     C90902  -1.560   6.027  -1.402 -1.0345  0.7079 -0.2889
  674MOL0     O90903  -1.352   6.184  -1.737 -0.4929 -0.4175  0.2835
  674MOL0     C90904  -1.250   6.352  -1.477  1.0994 -0.1554  0.2942
  674MOL0     C90905  -1.155   6.417  -1.401  0.5514 -0.9832  0.3458
  674MOL0     N90906  -0.570   6.535  -0.995  0.3495  0.6828 -0.1160
  674MOL0     N90907  -0.458   6.561  -0.930  0.8158  0.0720 -0.1311
  674MOL0     C90908   0.483   6.622  -0.168  0.1040  0.0025 -0.0830
  674MOL0     C90909   0.584   6.576  -0.089 -0.4956 -0.0431 -0.2944
  674MOL0     C90910   0.846   6.553   0.269  0.5305  0.1544  0.4077
  674MOL0     C90911   0.891   6.672   0.318 -0.6947  0.4680 -0.7826
  674MOL0     C90912   0.980   6.668   0.429  0.1062  0.5366 -0.3376
  674MOL0     C90913   1.018   6.544   0.487  1.5748 -0.3747 -0.5259
  674MOL0     O90914   1.104   6.532   0.596  0.1678  0.0866 -0.1660
  674MOL0     C90915   1.181   6.651   0.632  1.0512 -0.7903  0.2336
  674MOL0     C90916   1.292   6.624   0.732  0.9622 -0.0077 -0.1316
  674MOL0     C90917   1.356   6.756   0.756 -0.5729 -0.5833 -0.7647
  674MOL0     C90918   1.475   6.731   0.853  1.2503  0.3066 -0.7450
  674MOL0     C90919   1.549   6.853   0.895  0.3042 -0.1683 -0.8327
  674MOL0     C90920   1.596   6.951   0.944  0.0338 -0.7953  0.7038
  674MOL0     C90921   0.968   6.422   0.435  0.0731 -0.2169  0.7862
  674MOL0     C90922   0.880   6.429   0.320 -1.1467 -0.1048  0.2956
  674MOL0     H90923   0.728   6.860   0.016  1.7827 -0.8682 -1.3845
  674MOL0     H90924   0.547   6.949  -0.148  3.6313  0.3619 -0.3035
  674MOL0     H90925   0.317   6.642  -0.409 -0.6355 -1.3341  2.1490
  674MOL0     H90926   0.223   6.720  -0.281 -0.0071 -2.6487  0.0497
  674MOL0     H90927   0.153   6.894  -0.415 -3.1755 -2.6234 -0.5312
  674MOL0     H90928   0.262   6.863  -0.549 -1.7680  0.9705 -0.3446
  674MOL0     H90929   0.100   6.663  -0.604  0.2449 -0.9488  1.1351
  674MOL0     H90930   0.022   6.710  -0.454  0.5350 -2.4231 -1.4849
  674MOL0     H90931  -0.028   6.938  -0.529 -0.4695  0.4844  0.0290
  674MOL0     H90932   0.067   6.911  -0.677 -0.3934  3.1247  2.0262
  674MOL0     H90933  -0.076   6.737  -0.754  1.6099  2.3429 -2.6706
  674MOL0     H90934  -0.174   6.739  -0.597 -3.9147  4.3451  0.8069
  674MOL0     H90935  -0.237   6.976  -0.699 -1.6354 -1.0120  0.0014
  674MOL0     H90936  -0.124   6.915  -0.828 -0.7317 -0.7387 -0.7629
  674MOL0     H90937  -0.382   6.774  -0.765  2.6989  0.1596  3.0252
  674MOL0     H90938  -0.375   6.901  -0.886 -1.4180 -1.1616  0.4631
  674MOL0     H90939  -0.205   6.653  -0.899  0.5676 -1.2650 -0.6859
  674MOL0     H90940  -0.219   6.784  -1.015 -2.2456  1.6501  0.1297
  674MOL0     H90941  -0.481   6.809  -1.140 -1.7217  1.1864  1.2587
  674MOL0     H90942  -0.729   6.779  -1.152 -4.1895 -0.1868 -0.6776
  674MOL0     H90943  -0.694   6.657  -1.267  1.9339 -0.3350  1.4650
  674MOL0     H90944  -0.928   6.640  -1.158  3.6025  2.4918 -2.6962
  674MOL0     H90945  -0.852   6.600  -1.012  2.4570  0.3688  0.1924
  674MOL0     H90946  -0.926   6.378  -1.123 -1.2753  0.8911 -1.0324
  674MOL0     H90947  -0.752   6.376  -1.107 -1.5850 -1.4729 -0.5940
  674MOL0     H90948  -0.821   6.296  -1.314  0.3416 -0.1711  1.8428
  674MOL0     H90949  -0.733   6.444  -1.343  1.3999 -1.4904  0.5768
  674MOL0     H90950  -0.880   6.268  -1.529  0.4699  3.9839  0.0847
  674MOL0     H90951  -1.048   6.142  -1.797 -3.7153 -0.8153  0.7627
  674MOL0     H90952  -0.924   6.094  -1.679 -1.0485 -1.7655  0.8524
  674MOL0     H90953  -1.081   6.016  -1.678 -0.5675 -0.5690 -3.4706
  674MOL0     H90954  -1.581   6.170  -1.706 -2.6499 -1.5212 -1.8832
  674MOL0     H90955  -1.828   6.156  -1.655  3.9250  3.4467 -1.1025
  674MOL0     H90956  -1.958   5.869  -1.324 -1.0625 -0.4508 -0.8909
  674MOL0     H90957  -1.973   6.032  -1.252 -1.2638 -1.7737  1.9347
  674MOL0     H90958  -2.189   5.973  -1.250 -0.4090  0.7253 -0.2539
  674MOL0     H90959  -2.173   6.070  -1.397 -0.1509 -1.8188 -2.2297
  674MOL0     H90960  -2.187   5.777  -1.391 -1.2746  1.1077  1.7929
  674MOL0     H90961  -2.135   5.851  -1.529  2.2756  0.2686  1.9123
  674MOL0     H90962  -2.399   5.921  -1.383 -0.8231 -0.9589  0.3150
  674MOL0     H90963  -2.364   5.933  -1.557  1.6222 -1.2661 -1.6809
  674MOL0     H90964  -2.362   5.663  -1.410  0.1822 -0.1921  0.1473
  674MOL0     H90965  -2.402   5.693  -1.585  0.3770 -0.3242 -1.0053
  674MOL0     H90966  -2.604   5.798  -1.371 -4.3912 -0.4283 -1.2253
  674MOL0     H90967  -2.602   5.820  -1.541 -2.1218 -0.4106 -0.0180
  674MOL0     H90968  -2.577   5.552  -1.540  0.1413 -1.3084  0.7902
  674MOL0     H90969  -2.729   5.637  -1.524  0.6156 -1.7804 -4.8736
  674MOL0     H90970  -2.709   5.611  -1.274 -0.1045 -1.7548 -0.3907
  674MOL0     H90971  -2.546   5.528  -1.284  1.0042  1.3597 -1.2502
  674MOL0     H90972  -1.726   5.971  -1.277  1.1676 -2.6064 -1.5621
  674MOL0     H90973  -1.481   6.003  -1.331 -1.5785 -0.2261  0.0259
  674MOL0     H90974  -1.354   6.383  -1.475  1.2193  0.1955  1.2613
  674MOL0     H90975  -1.182   6.501  -1.338 -1.8680  0.0247 -1.8493
  674MOL0     H90976   0.420   6.549  -0.218 -0.3198  0.9473 -0.9584
  674MOL0     H90977   0.583   6.468  -0.085 -2.7784 -0.0628 -0.2220
  674MOL0     H90978   0.884   6.768   0.269  1.2613  1.0165 -0.0816
  674MOL0     H90979   1.001   6.763   0.477  1.1545 -0.6594  1.7028
  674MOL0     H90980   1.220   6.696   0.540  0.8828 -1.2831 -0.0779
  674MOL0     H90981   1.110   6.727   0.667  1.3838  0.8065 -2.3027
  674MOL0     H90982   1.355   6.545   0.691  0.0181 -1.4277  1.0356
  674MOL0     H90983   1.247   6.593   0.827  1.0098  1.8266  0.5386
  674MOL0     H90984   1.286   6.823   0.807 -0.5903 -0.8859 -0.3788
  674MOL0     H90985   1.399   6.809   0.671 -0.8812  2.5007  0.8759
  674MOL0     H90986   1.546   6.660   0.810 -1.4029 -3.3973  0.5056
  674MOL0     H90987   1.440   6.684   0.946  3.3140  4.4560  2.4689
  674MOL0     H90988   1.641   7.036   0.990  1.1112 -1.4050  0.8042
  674MOL0     H90989   0.999   6.333   0.489 -2.3025 -0.8763  1.1748
  674MOL0     H90990   0.832   6.337   0.287  0.0593 -0.6966  0.1461
  675MOL0     O90991   2.725   0.873   6.226  0.5066 -0.2073 -0.1648
  675MOL0     C90992   2.664   0.771   6.250  0.1360  0.8477  0.2348
  675MOL0     O90993   2.654   0.703   6.368  0.4310  0.4013  0.4919
  675MOL0     C90994   2.733   0.745   6.478  0.0791  0.4975  0.0582
  675MOL0     C90995   2.851   0.678   6.508  0.0347 -0.5687  0.4015
  675MOL0     C90996   2.934   0.722   6.614  0.0442  0.0938 -0.4358
  675MOL0     C90997   2.902   0.825   6.695  0.1082  0.4618  0.4051
  675MOL0     O90998   2.978   0.857   6.797  0.2659 -0.0727  0.1596
  675MOL0     C90999   3.037   0.757   6.877  0.9004  1.0278 -0.1516
  675MOL0     C91000   3.131   0.826   6.976  0.5703  0.7996 -0.6736
  675MOL0     C91001   3.211   0.723   7.054 -0.0785 -0.2208 -0.8586
  675MOL0     C91002   3.294   0.778   7.168 -0.6944  0.7246  0.2503
  675MOL0     C91003   3.424   0.701   7.197 -0.3822 -0.3586  0.3677
  675MOL0     C91004   3.495   0.752   7.327  1.2897  0.0392 -0.1137
  675MOL0     C91005   3.405   0.751   7.460  1.5084  0.4101  0.2667
  675MOL0     C91006   3.356   0.605   7.498  0.6779 -0.4617  0.4400
  675MOL0     N91007   3.237   0.555   7.425 -0.2250 -0.7707 -0.2643
  675MOL0     C91008   3.116   0.611   7.434 -0.2837  0.2203  0.1819
  675MOL0     C91009   3.047   0.522   7.355 -0.0849 -0.5864  0.5261
  675MOL0     C91010   2.903   0.522   7.308  0.2129  0.4590  0.7811
  675MOL0     C91011   2.856   0.666   7.269 -0.5700 -0.6572  0.2201
  675MOL0     C91012   2.710   0.654   7.218  0.3842  0.4110 -0.2756
  675MOL0     C91013   2.692   0.566   7.097 -0.0983  0.4196  0.1064
  675MOL0     O91014   2.565   0.505   7.076  0.3565  0.1721  0.1164
  675MOL0     C91015   2.542   0.465   6.947 -0.5015  0.7797  1.0093
  675MOL0     C91016   2.654   0.434   6.858  0.9183 -0.2070  0.3780
  675MOL0     C91017   2.617   0.384   6.729 -0.1322 -0.9891 -0.2883
  675MOL0     C91018   2.723   0.367   6.623  0.1494  0.1112 -0.4765
  675MOL0     C91019   2.481   0.355   6.691 -0.8351  0.7403 -0.4175
  675MOL0     C91020   2.437   0.319   6.553  0.1360  0.3519 -0.2903
  675MOL0     O91021   2.348   0.227   6.541  0.2145  0.2298  1.0401
  675MOL0     C91022   2.323   0.175   6.415 -0.4537 -0.5133 -0.2259
  675MOL0     C91023   2.336   0.039   6.391 -0.0731  0.6768 -0.0080
  675MOL0     C91024   2.312  -0.015   6.257 -0.1664  0.5001 -0.5823
  675MOL0     C91025   2.271   0.072   6.162 -0.5155 -0.7702  0.6306
  675MOL0     O91026   2.220   0.039   6.038 -1.0946  0.0567 -0.3092
  675MOL0     C91027   2.200  -0.100   6.008 -0.7077 -1.0992  0.6951
  675MOL0     C91028   2.094  -0.170   6.087  0.6140 -0.0533  0.1237
  675MOL0     C91029   1.959  -0.092   6.105  0.6558  0.2584  0.1522
  675MOL0     C91030   1.864  -0.170   6.200 -0.0523  0.5590  0.2235
  675MOL0     C91031   1.729  -0.108   6.213  0.1803 -0.8687  1.1752
  675MOL0     C91032   1.643  -0.115   6.076  0.4480 -0.3480 -0.5878
  675MOL0     C91033   1.510  -0.047   6.096  0.3221 -0.2290 -0.4881
  675MOL0     C91034   1.408  -0.052   5.979 -0.3911 -0.3730 -0.2291
  675MOL0    Cl91035   1.478   0.024   5.829 -0.2283  0.1977 -0.6486
  675MOL0     C91036   2.263   0.208   6.175 -0.5679 -0.2434 -0.5959
  675MOL0     C91037   2.287   0.254   6.309 -0.1862 -0.1931  0.5852
  675MOL0     O91038   2.483   0.390   6.467 -0.5043  0.5361 -0.3905
  675MOL0     C91039   2.390   0.390   6.786 -0.0180  0.2881  0.5938
  675MOL0     C91040   2.409   0.448   6.910  0.8760  0.3685 -0.2319
  675MOL0     N91041   3.124   0.409   7.321 -0.0203  0.5590  0.4972
  675MOL0     N91042   3.235   0.431   7.367  0.2491 -0.4641 -0.0248
  675MOL0     C91043   2.776   0.888   6.673  0.3513  0.1733 -0.4984
  675MOL0     C91044   2.704   0.862   6.555 -0.6615  0.0891  0.6958
  675MOL0     C91045   2.597   0.691   6.148 -0.6358  0.6990  0.6600
  675MOL0     C91046   2.625   0.716   6.009  0.0699 -0.2404 -0.0269
  675MOL0     C91047   2.572   0.644   5.908  0.7047  0.0631  0.5714
  675MOL0     C91048   2.494   0.528   5.936 -0.9959  0.9837 -0.3710
  675MOL0     O91049   2.410   0.471   5.846 -0.3074  0.7529 -0.1014
  675MOL0     C91050   2.286   0.537   5.817 -0.3312 -1.2853  0.4907
  675MOL0     C91051   2.163   0.468   5.875  0.3672 -0.1069  0.5452
  675MOL0     C91052   2.033   0.503   5.808  0.4125 -0.2596  0.4277
  675MOL0     C91053   1.908   0.478   5.881  0.2016  0.7363  0.1819
  675MOL0     C91054   1.863   0.333   5.892 -0.7044  0.2553  0.3678
  675MOL0     C91055   1.811   0.227   5.906 -0.4568 -0.3196 -0.7148
  675MOL0     C91056   2.477   0.491   6.072  0.3508  0.5839  0.6743
  675MOL0     C91057   2.516   0.578   6.175  0.0303 -0.2998  0.3768
  675MOL0     H91058   2.896   0.602   6.443  0.0574  1.3894 -2.0246
  675MOL0     H91059   3.028   0.668   6.625 -0.0228  0.0882  0.1295
  675MOL0     H91060   2.952   0.709   6.927  1.7355 -0.3547 -0.0207
  675MOL0     H91061   3.086   0.674   6.827 -0.6861 -0.6236  0.9161
  675MOL0     H91062   3.198   0.900   6.932  2.2644  0.0464  0.5229
  675MOL0     H91063   3.067   0.876   7.049  0.2714  0.2580 -0.5545
  675MOL0     H91064   3.141   0.657   7.107 -1.1332 -0.0134 -1.9344
  675MOL0     H91065   3.275   0.659   6.992  2.4371  1.3725 -0.0192
  675MOL0     H91066   3.329   0.878   7.140 -0.3883  0.1225 -1.6617
  675MOL0     H91067   3.232   0.781   7.258  1.8891 -0.5536  2.2259
  675MOL0     H91068   3.396   0.595   7.203 -0.0302 -0.3660  3.1436
  675MOL0     H91069   3.489   0.720   7.111 -2.1018  0.7226 -0.7420
  675MOL0     H91070   3.582   0.688   7.344 -0.8103 -3.1073 -0.4569
  675MOL0     H91071   3.528   0.855   7.309  0.8417 -0.1767 -2.4330
  675MOL0     H91072   3.464   0.794   7.542  0.7163 -1.3195  1.8244
  675MOL0     H91073   3.321   0.821   7.452  0.3816 -1.1375 -2.5860
  675MOL0     H91074   3.331   0.613   7.604 -3.2476  1.1674 -0.4254
  675MOL0     H91075   3.439   0.536   7.479  1.6220  0.4376  1.1743
  675MOL0     H91076   3.085   0.697   7.493  0.3391  1.2844 -0.9791
  675MOL0     H91077   2.899   0.449   7.226 -1.9890  1.5581 -0.1660
  675MOL0     H91078   2.835   0.478   7.381 -1.2244  1.1096 -0.1227
  675MOL0     H91079   2.927   0.707   7.197  0.5155  1.5947  2.4111
  675MOL0     H91080   2.856   0.741   7.349  3.0403 -3.1219  2.8136
  675MOL0     H91081   2.668   0.754   7.206  4.8321  2.6444  0.7608
  675MOL0     H91082   2.651   0.607   7.298  0.3239  1.7861  0.5248
  675MOL0     H91083   2.765   0.485   7.097 -3.6261 -3.0980 -0.7917
  675MOL0     H91084   2.712   0.627   7.008  0.8148 -1.4299 -1.0087
  675MOL0     H91085   2.757   0.458   6.881  0.5990  1.9296 -0.2294
  675MOL0     H91086   2.823   0.349   6.661  0.8161 -0.5461 -2.3877
  675MOL0     H91087   2.701   0.288   6.550  3.7291 -1.4718 -0.0565
  675MOL0     H91088   2.729   0.457   6.561  2.1681 -0.2069 -0.8075
  675MOL0     H91089   2.355  -0.024   6.477 -3.2982  0.0101  0.3484
  675MOL0     H91090   2.327  -0.120   6.233  1.5492  0.8810 -1.3697
  675MOL0     H91091   2.162  -0.094   5.905 -1.4762  0.5031  1.0503
  675MOL0     H91092   2.296  -0.153   6.003  0.2170  0.5888 -0.8417
  675MOL0     H91093   2.079  -0.272   6.049  3.2056 -0.2404 -0.6599
  675MOL0     H91094   2.121  -0.192   6.191 -2.4028 -2.1861  0.5881
  675MOL0     H91095   1.909  -0.085   6.008 -2.0362 -3.1388  1.1256
  675MOL0     H91096   1.987   0.008   6.140  1.6933  0.3700 -0.9159
  675MOL0     H91097   1.852  -0.271   6.158  0.2443  1.5290 -2.3521
  675MOL0     H91098   1.917  -0.172   6.295 -3.4726  1.3356  2.3276
  675MOL0     H91099   1.743  -0.004   6.242  1.3596 -0.6014 -0.2441
  675MOL0     H91100   1.692  -0.169   6.296  1.3854  0.6830  2.9368
  675MOL0     H91101   1.694  -0.055   6.000 -0.6971 -0.0517 -1.1468
  675MOL0     H91102   1.642  -0.222   6.052  2.1287 -0.3312 -0.8908
  675MOL0     H91103   1.539   0.057   6.113  1.1732 -0.4034 -0.8244
  675MOL0     H91104   1.467  -0.087   6.189 -1.0818  0.0263 -1.0108
  675MOL0     H91105   1.310  -0.005   5.992  0.0223  0.9151 -1.4663
  675MOL0     H91106   1.380  -0.155   5.954  1.0506  0.2345 -5.4313
  675MOL0     H91107   2.225   0.275   6.098 -0.8997 -0.5406 -0.6946
  675MOL0     H91108   2.271   0.361   6.315 -0.9010 -0.1953 -0.7636
  675MOL0     H91109   2.288   0.360   6.764  0.2419 -1.6934  1.8341
  675MOL0     H91110   2.339   0.474   6.989  2.9312  2.8289  0.8967
  675MOL0     H91111   2.729   0.961   6.738  1.0388 -1.0476  1.4599
  675MOL0     H91112   2.624   0.926   6.520 -0.0451 -1.1631 -3.5820
  675MOL0     H91113   2.692   0.800   5.994 -0.8937  0.5815  0.1777
  675MOL0     H91114   2.592   0.672   5.805  1.8857  1.6601  1.1936
  675MOL0     H91115   2.283   0.644   5.840  1.0009 -1.0050 -0.4868
  675MOL0     H91116   2.270   0.541   5.709 -1.2472  0.0597  0.6463
  675MOL0     H91117   2.148   0.485   5.983 -0.2623  1.9722  0.1783
  675MOL0     H91118   2.180   0.361   5.867  2.2226  0.2211 -0.1817
  675MOL0     H91119   2.026   0.433   5.724 -0.4589 -0.2389  0.4735
  675MOL0     H91120   2.033   0.606   5.772 -0.5501 -0.1032  0.8527
  675MOL0     H91121   1.830   0.527   5.822  0.5575  2.5790  1.1764
  675MOL0     H91122   1.902   0.507   5.986  0.3043 -1.5148  0.8765
  675MOL0     H91123   1.748   0.143   5.931  2.7734 -3.0667 -1.0491
  675MOL0     H91124   2.426   0.400   6.102  2.3259 -0.8919 -0.2247
  675MOL0     H91125   2.494   0.554   6.279 -1.0043  1.6923  0.6699
  676MOL0     O91126  11.388   1.562   6.208  0.3279  0.8158 -0.0433
  676MOL0     C91127  11.388   1.469   6.288  0.5656 -0.3168 -0.4023
  676MOL0     O91128  11.276   1.402   6.320 -0.1536  0.7521 -0.5183
  676MOL0     C91129  11.149   1.447   6.286  0.1341 -0.4687 -0.5693
  676MOL0     C91130  11.089   1.568   6.342  0.0014 -0.6950  0.7728
  676MOL0     C91131  10.955   1.588   6.315  0.3616  0.1072 -0.5831
  676MOL0     C91132  10.879   1.503   6.242  1.2805  0.2152  0.0975
  676MOL0     O91133  10.734   1.511   6.231 -0.3178 -0.2657  0.2309
  676MOL0     C91134  10.658   1.601   6.308 -0.3427  0.5139 -0.3945
  676MOL0     C91135  10.510   1.560   6.281  0.1550 -0.1710 -0.2721
  676MOL0     C91136  10.424   1.640   6.376  0.1340 -0.1815 -0.3413
  676MOL0     C91137  10.291   1.566   6.417 -0.2429 -0.5530  0.3880
  676MOL0     C91138  10.245   1.611   6.563 -0.1337 -0.0915  0.3061
  676MOL0     C91139  10.109   1.574   6.593  0.1818  0.8503  0.1779
  676MOL0     C91140  10.082   1.583   6.739 -0.1427  0.2994  0.1745
  676MOL0     C91141   9.941   1.571   6.787 -0.1576 -0.1033  0.0723
  676MOL0     N91142   9.845   1.648   6.709 -0.5686 -0.4490  0.6308
  676MOL0     C91143   9.769   1.592   6.604 -0.5682  0.3193 -0.1315
  676MOL0     C91144   9.697   1.698   6.572 -0.2124 -1.6333 -0.3245
  676MOL0     C91145   9.599   1.709   6.467 -0.4548 -0.1747  0.0287
  676MOL0     C91146   9.465   1.774   6.503  0.3665 -0.5560 -0.4207
  676MOL0     C91147   9.390   1.727   6.622  0.7584  1.1761 -0.7843
  676MOL0     C91148   9.335   1.583   6.605 -0.0100  0.6826 -0.1649
  676MOL0     O91149   9.265   1.568   6.483 -0.2204 -0.1403  0.2146
  676MOL0     C91150   9.133   1.592   6.469 -0.3782  0.2518 -0.5045
  676MOL0     C91151   9.063   1.545   6.354  0.0092 -0.1454 -0.3910
  676MOL0     C91152   8.931   1.569   6.329 -0.3944 -0.4640  0.9423
  676MOL0     C91153   8.882   1.516   6.200 -0.8970 -0.9028 -0.6409
  676MOL0     C91154   8.866   1.667   6.409  0.0871 -1.6216  0.4755
  676MOL0     C91155   8.720   1.706   6.391  0.9351 -0.9278  0.3555
  676MOL0     O91156   8.647   1.614   6.315  0.0585  0.2087 -0.4923
  676MOL0     C91157   8.511   1.633   6.296 -0.4464  0.1833  0.7137
  676MOL0     C91158   8.456   1.523   6.233 -0.1419 -0.4684  0.7720
  676MOL0     C91159   8.321   1.518   6.193 -0.7655 -0.3636 -0.2319
  676MOL0     C91160   8.236   1.624   6.228  0.4396 -0.0188  0.2895
  676MOL0     O91161   8.102   1.625   6.191  0.5149  0.7007  0.3415
  676MOL0     C91162   8.032   1.498   6.185 -0.2048  0.3762  0.3493
  676MOL0     C91163   7.881   1.517   6.177  0.1412  0.4728 -0.4771
  676MOL0     C91164   7.808   1.378   6.177 -0.0075 -0.0004  0.1658
  676MOL0     C91165   7.672   1.391   6.240  0.4194  0.0584  0.0138
  676MOL0     C91166   7.586   1.262   6.213 -0.2787 -0.3500  1.1848
  676MOL0     C91167   7.471   1.275   6.308 -0.8799  0.6218  0.2050
  676MOL0     C91168   7.409   1.138   6.302  0.4497 -0.2377  0.4947
  676MOL0     C91169   7.296   1.148   6.403 -0.4257 -0.2090 -0.0707
  676MOL0    Cl91170   7.364   1.131   6.570  0.6940 -0.0433 -0.3885
  676MOL0     C91171   8.296   1.741   6.286 -0.3916  0.3319  0.4956
  676MOL0     C91172   8.433   1.746   6.308  0.1701  0.6441  0.0922
  676MOL0     O91173   8.680   1.812   6.438  0.4186 -0.9204  0.5430
  676MOL0     C91174   8.929   1.711   6.529 -0.7155 -0.2276 -0.3749
  676MOL0     C91175   9.061   1.672   6.559 -0.0991  0.2157 -0.3489
  676MOL0     N91176   9.726   1.810   6.650  0.3552  0.0265 -0.5673
  676MOL0     N91177   9.816   1.777   6.734  0.6368 -0.4157  1.6461
  676MOL0     C91178  10.939   1.400   6.171  0.8223 -0.2848 -0.1561
  676MOL0     C91179  11.063   1.375   6.207 -0.4537  0.0316 -0.5088
  676MOL0     C91180  11.518   1.415   6.350  0.4630  0.2005  0.2717
  676MOL0     C91181  11.636   1.471   6.329 -0.5978 -1.2833  0.0073
  676MOL0     C91182  11.750   1.428   6.388  0.1632  0.0284 -1.0790
  676MOL0     C91183  11.738   1.331   6.490 -0.0289  0.4025  0.7960
  676MOL0     O91184  11.849   1.278   6.559 -0.0986 -0.3203  0.7596
  676MOL0     C91185  11.983   1.332   6.550  0.1060  0.9929  0.2050
  676MOL0     C91186  12.044   1.235   6.449 -0.7933  0.3829 -0.2208
  676MOL0     C91187  12.170   1.283   6.376  0.5715 -0.4853 -0.5944
  676MOL0     C91188  12.227   1.177   6.284 -0.4657  1.2392  1.2227
  676MOL0     C91189  12.375   1.210   6.260  0.6635 -0.7153  0.4957
  676MOL0     C91190  12.489   1.222   6.235 -0.5587 -0.1350  1.0138
  676MOL0     C91191  11.623   1.275   6.525 -0.7321 -0.7621  0.3774
  676MOL0     C91192  11.509   1.311   6.449 -0.1295  0.5782  0.5217
  676MOL0     H91193  11.150   1.626   6.410  0.8378 -0.6993  0.0451
  676MOL0     H91194  10.904   1.673   6.358 -2.2549 -0.6715 -1.9343
  676MOL0     H91195  10.684   1.601   6.415  0.4015  3.4121 -0.4803
  676MOL0     H91196  10.658   1.706   6.276  3.8297  1.2401  1.3471
  676MOL0     H91197  10.477   1.580   6.179 -1.2900 -0.8648  0.0388
  676MOL0     H91198  10.503   1.453   6.303  2.2055 -0.1577  0.7428
  676MOL0     H91199  10.475   1.662   6.471 -3.5030  3.2791  1.1114
  676MOL0     H91200  10.398   1.742   6.346  0.1924  0.4517  1.6243
  676MOL0     H91201  10.215   1.602   6.347  1.3175  2.0124 -0.1188
  676MOL0     H91202  10.299   1.458   6.408 -2.0477 -0.6453 -0.5664
  676MOL0     H91203  10.320   1.583   6.637  1.1282  0.6240 -0.6738
  676MOL0     H91204  10.244   1.719   6.576  0.0119 -0.2371  1.6077
  676MOL0     H91205  10.045   1.647   6.543 -0.3356  0.4172  0.1942
  676MOL0     H91206  10.092   1.474   6.550  1.4431  0.0319  1.5265
  676MOL0     H91207  10.134   1.510   6.802  1.0843  0.4212 -0.6598
  676MOL0     H91208  10.120   1.684   6.757  1.3470  0.1494 -1.7095
  676MOL0     H91209   9.940   1.598   6.893 -2.6659 -0.5091  0.2093
  676MOL0     H91210   9.905   1.469   6.766  0.9157 -0.5707  0.4294
  676MOL0     H91211   9.782   1.502   6.544  5.2941  1.5737 -1.2962
  676MOL0     H91212   9.645   1.779   6.397  4.3678 -1.1547  1.8398
  676MOL0     H91213   9.592   1.617   6.408  0.9775  0.0503 -0.5385
  676MOL0     H91214   9.405   1.762   6.412 -0.0273  1.1044 -0.4119
  676MOL0     H91215   9.496   1.878   6.520  0.2578 -0.7902  1.3939
  676MOL0     H91216   9.303   1.792   6.636 -1.4934 -1.2346 -2.6832
  676MOL0     H91217   9.445   1.743   6.716  0.1832 -2.3404  0.3176
  676MOL0     H91218   9.267   1.565   6.688 -0.4607  0.0563 -0.6621
  676MOL0     H91219   9.418   1.512   6.601 -0.1173  0.6144 -1.6560
  676MOL0     H91220   9.126   1.482   6.291 -0.5417 -0.1756 -0.9164
  676MOL0     H91221   8.963   1.486   6.133  0.4430  1.4971 -0.2313
  676MOL0     H91222   8.821   1.430   6.226  2.6318 -2.6435  2.9810
  676MOL0     H91223   8.824   1.588   6.142  0.7022  0.2142 -0.9393
  676MOL0     H91224   8.522   1.443   6.204  1.4854  0.5497  1.5173
  676MOL0     H91225   8.287   1.433   6.135  0.3690  0.2666 -1.9027
  676MOL0     H91226   8.065   1.435   6.102 -1.6828 -1.1134  0.8283
  676MOL0     H91227   8.064   1.438   6.271  0.9974 -1.0290 -1.0050
  676MOL0     H91228   7.853   1.572   6.267 -1.0315  1.2519 -1.3019
  676MOL0     H91229   7.863   1.584   6.092  2.0480  0.5470 -0.8781
  676MOL0     H91230   7.872   1.306   6.229  0.1258  1.6861  2.5080
  676MOL0     H91231   7.800   1.346   6.073  2.3734  0.1056 -0.1043
  676MOL0     H91232   7.689   1.412   6.346  1.2551 -0.2788 -0.0510
  676MOL0     H91233   7.602   1.470   6.209 -1.1041 -0.2869  2.2813
  676MOL0     H91234   7.646   1.173   6.230  0.7513 -1.1298 -4.4700
  676MOL0     H91235   7.553   1.254   6.109  1.5225  0.1823  0.5328
  676MOL0     H91236   7.505   1.290   6.411 -0.7758 -2.9302  0.8085
  676MOL0     H91237   7.394   1.345   6.275  0.1097  0.0852 -3.6900
  676MOL0     H91238   7.474   1.052   6.319 -0.4397 -1.2692 -1.0194
  676MOL0     H91239   7.361   1.134   6.203 -0.2360 -1.4950  0.8540
  676MOL0     H91240   7.219   1.073   6.386 -1.3663  0.9781 -1.3370
  676MOL0     H91241   7.249   1.247   6.402  1.1432  0.5995 -1.7925
  676MOL0     H91242   8.258   1.836   6.322  0.9171  0.4962  1.4737
  676MOL0     H91243   8.478   1.834   6.353  1.0566  0.0182  0.4616
  676MOL0     H91244   8.882   1.780   6.599  0.1461  0.5695 -0.5643
  676MOL0     H91245   9.108   1.712   6.648 -2.7796 -0.7043  1.6211
  676MOL0     H91246  10.887   1.335   6.102  0.1163  1.0366 -0.9130
  676MOL0     H91247  11.096   1.284   6.158 -2.2849 -0.3048 -1.2020
  676MOL0     H91248  11.643   1.551   6.256 -1.8756 -0.1818  1.0402
  676MOL0     H91249  11.845   1.474   6.364  0.9535 -0.3985  0.9814
  676MOL0     H91250  11.983   1.439   6.525 -0.1392  1.4363  1.9952
  676MOL0     H91251  12.022   1.329   6.652 -1.8022  0.6407  0.9632
  676MOL0     H91252  11.974   1.211   6.368 -1.4424  1.2239  0.0657
  676MOL0     H91253  12.066   1.146   6.509 -0.6751 -0.3286 -1.2910
  676MOL0     H91254  12.247   1.314   6.447  2.5020 -0.8471 -2.4141
  676MOL0     H91255  12.154   1.375   6.318  1.7580  0.2236  0.1593
  676MOL0     H91256  12.167   1.193   6.194 -1.6161 -0.2951  1.6528
  676MOL0     H91257  12.225   1.077   6.330 -0.3495  1.0820  0.8897
  676MOL0     H91258  12.586   1.241   6.193  0.1400 -3.1234  1.0735
  676MOL0     H91259  11.620   1.204   6.608 -2.6742  0.2096  1.2075
  676MOL0     H91260  11.412   1.266   6.470  2.7188 -6.3914  1.4005
  677MOL0     O91261   5.475   9.463  10.641 -0.3526  0.3440  0.7601
  677MOL0     C91262   5.577   9.527  10.639  0.0178 -0.7882 -0.6533
  677MOL0     O91263   5.630   9.606  10.541  0.8507 -0.0060  0.3247
  677MOL0     C91264   5.555   9.651  10.435 -0.4605  1.0003  0.2268
  677MOL0     C91265   5.414   9.655  10.437 -0.4005  0.0292  0.1378
  677MOL0     C91266   5.351   9.662  10.310 -0.4550 -0.7856  0.1875
  677MOL0     C91267   5.414   9.664  10.187  0.0253  0.5490 -0.2490
  677MOL0     O91268   5.348   9.674  10.070  0.2023 -0.4991 -0.7002
  677MOL0     C91269   5.246   9.776  10.061  1.1400 -0.2040 -0.0778
  677MOL0     C91270   5.259   9.850   9.929 -0.3971 -0.1401 -0.8692
  677MOL0     C91271   5.203   9.995   9.947 -1.0031  0.3022 -0.3151
  677MOL0     C91272   5.052   9.984   9.917  1.2920 -0.4868 -0.1610
  677MOL0     C91273   4.968  10.105   9.936 -0.4368  0.0388  0.0369
  677MOL0     C91274   5.017  10.225   9.859 -0.3977 -0.0079 -0.1680
  677MOL0     C91275   4.912  10.331   9.849 -0.6970  0.2956  0.9034
  677MOL0     C91276   4.975  10.443   9.758 -0.7634  0.8506  0.1536
  677MOL0     N91277   5.009  10.401   9.617 -0.7528  0.3672 -0.3001
  677MOL0     C91278   4.913  10.387   9.525  1.6563  0.5047 -0.1680
  677MOL0     C91279   4.959  10.325   9.418  0.1271  0.3179 -1.1289
  677MOL0     C91280   4.889  10.265   9.296  0.2356  0.5778 -0.0927
  677MOL0     C91281   4.729  10.287   9.323 -0.7045 -0.0326  0.3019
  677MOL0     C91282   4.642  10.243   9.206 -0.0321  0.4971  0.1211
  677MOL0     C91283   4.509  10.303   9.234  0.1824 -0.0388 -0.9537
  677MOL0     O91284   4.414  10.243   9.142  0.0491  0.3398  0.4821
  677MOL0     C91285   4.288  10.307   9.129 -0.5404  0.3747  0.2225
  677MOL0     C91286   4.213  10.263   9.019  1.0922 -0.1446  0.9752
  677MOL0     C91287   4.086  10.319   8.990 -1.1161  0.3549  0.1274
  677MOL0     C91288   4.012  10.252   8.878 -0.9270  0.0844 -0.4359
  677MOL0     C91289   4.042  10.432   9.067  1.2127 -0.4987 -0.5793
  677MOL0     C91290   3.913  10.513   9.048 -0.6033  0.5913 -0.4508
  677MOL0     O91291   3.902  10.626   9.131 -0.2085  0.8406  0.0920
  677MOL0     C91292   3.783  10.691   9.142 -0.2539  0.2152  0.7246
  677MOL0     C91293   3.781  10.832   9.162 -0.7169  0.3619 -0.7373
  677MOL0     C91294   3.667  10.904   9.171  0.9963  0.2105 -0.1849
  677MOL0     C91295   3.538  10.843   9.153  0.4237 -0.4783 -1.1324
  677MOL0     O91296   3.431  10.926   9.172 -0.1043 -0.2480  0.6779
  677MOL0     C91297   3.325  10.918   9.075  0.5646 -0.5734  0.3553
  677MOL0     C91298   3.243  11.039   9.098  1.1530 -0.4296 -0.7541
  677MOL0     C91299   3.119  11.030   9.015  0.6917  0.5765 -0.3553
  677MOL0     C91300   3.030  11.144   9.022 -0.4128 -0.6930 -0.3945
  677MOL0     C91301   2.948  11.179   8.899 -0.3850  0.2925 -0.3353
  677MOL0     C91302   2.859  11.064   8.870  0.3569 -0.5543  0.0393
  677MOL0     C91303   2.747  11.105   8.762 -0.6754  0.8043 -0.6395
  677MOL0     C91304   2.619  11.031   8.775  0.6020 -0.4082  0.2848
  677MOL0    Cl91305   2.632  10.857   8.735  0.7745  0.0098  0.0584
  677MOL0     C91306   3.536  10.710   9.127 -0.5780  0.2512  0.3570
  677MOL0     C91307   3.655  10.634   9.124  0.0960 -0.4209  0.9912
  677MOL0     O91308   3.839  10.481   8.958  0.3534  0.1531  0.0182
  677MOL0     C91309   4.123  10.479   9.176  0.1024  0.2873 -1.0864
  677MOL0     C91310   4.246  10.416   9.202  0.0408 -0.3299  0.4664
  677MOL0     N91311   5.101  10.319   9.445  0.3610  0.5054 -0.9900
  677MOL0     N91312   5.133  10.360   9.569 -0.8408  0.8368 -0.6320
  677MOL0     C91313   5.551   9.647  10.189  0.3014  0.1002 -0.3999
  677MOL0     C91314   5.623   9.654  10.312 -0.2155 -0.8109  0.2951
  677MOL0     C91315   5.661   9.521  10.768 -0.3195  0.0159 -0.0972
  677MOL0     C91316   5.792   9.570  10.786 -0.8381 -0.0186 -0.2586
  677MOL0     C91317   5.876   9.543  10.898  0.6705 -0.0160 -0.7174
  677MOL0     C91318   5.818   9.469  11.005 -0.0473  0.2316 -0.0953
  677MOL0     O91319   5.874   9.412  11.119 -0.1181  0.4285 -0.0354
  677MOL0     C91320   6.013   9.428  11.140  0.1374 -0.5659  0.5462
  677MOL0     C91321   6.051   9.417  11.290  0.0410 -0.5129  0.2164
  677MOL0     C91322   5.985   9.517  11.379  0.6366 -0.7222  0.5322
  677MOL0     C91323   6.033   9.529  11.526  0.6053 -0.3931 -0.2982
  677MOL0     C91324   6.020   9.411  11.605 -0.2374  0.1162 -0.3159
  677MOL0     C91325   6.008   9.295  11.636  0.7417  0.3496  0.0184
  677MOL0     C91326   5.688   9.421  10.982  0.5219 -0.0527 -0.4461
  677MOL0     C91327   5.610   9.443  10.869 -0.3591 -0.7485 -0.9793
  677MOL0     H91328   5.361   9.630  10.528  1.2404 -2.2049  0.5754
  677MOL0     H91329   5.242   9.666  10.304 -0.3843  0.0070 -0.8262
  677MOL0     H91330   5.148   9.727  10.062 -0.1161  2.1339 -0.8885
  677MOL0     H91331   5.241   9.854  10.137 -0.8977  1.1979 -1.5242
  677MOL0     H91332   5.361   9.858   9.892 -0.0583  0.3183  0.1231
  677MOL0     H91333   5.213   9.783   9.856 -0.3844 -0.4072 -0.6306
  677MOL0     H91334   5.223  10.030  10.048  1.6082 -1.3145 -0.1942
  677MOL0     H91335   5.252  10.062   9.876  1.7923 -0.9913  0.2624
  677MOL0     H91336   5.051   9.955   9.812  0.4469  1.6195 -0.7734
  677MOL0     H91337   5.006   9.916   9.989 -0.0563  1.0549  0.4833
  677MOL0     H91338   4.864  10.088   9.906 -0.4991  0.7083 -0.1455
  677MOL0     H91339   4.958  10.131  10.042  3.4603  0.5650  0.4128
  677MOL0     H91340   5.106  10.276   9.899 -2.7151  3.0046  1.6263
  677MOL0     H91341   5.044  10.197   9.757  0.4286 -1.6600  0.4648
  677MOL0     H91342   4.818  10.294   9.807 -1.1189 -2.1668  3.6516
  677MOL0     H91343   4.892  10.379   9.945  3.3050  2.6268  0.7705
  677MOL0     H91344   5.058  10.490   9.811 -1.6307  3.5181 -0.7002
  677MOL0     H91345   4.899  10.522   9.755 -1.2956  0.4921  2.3512
  677MOL0     H91346   4.813  10.427   9.534  2.0097  1.6039 -0.9540
  677MOL0     H91347   4.917  10.309   9.200 -0.2916 -0.9404 -0.9800
  677MOL0     H91348   4.908  10.158   9.284 -3.3472 -0.4405  1.7812
  677MOL0     H91349   4.703  10.393   9.331 -1.7730 -0.3020  0.5602
  677MOL0     H91350   4.698  10.241   9.417 -1.7065  0.5410  0.2611
  677MOL0     H91351   4.635  10.135   9.188 -2.5321  0.8736 -1.7438
  677MOL0     H91352   4.676  10.289   9.112 -0.3348 -1.5511 -1.0587
  677MOL0     H91353   4.506  10.411   9.213 -2.2438  0.2861  0.7234
  677MOL0     H91354   4.485  10.295   9.340  2.7638 -2.0641 -0.3971
  677MOL0     H91355   4.247  10.170   8.973  0.7733  0.0159  0.4096
  677MOL0     H91356   3.991  10.331   8.806 -1.0703  1.0781  0.6550
  677MOL0     H91357   4.070  10.173   8.831 -0.0952  1.3822 -1.6807
  677MOL0     H91358   3.911  10.218   8.904 -0.9273 -0.5039 -1.2015
  677MOL0     H91359   3.879  10.877   9.173  1.1021 -3.3685  0.0262
  677MOL0     H91360   3.675  11.012   9.179 -0.9113  0.5247 -1.8773
  677MOL0     H91361   3.355  10.913   8.970  2.3694  0.8376  0.7649
  677MOL0     H91362   3.257  10.834   9.092 -0.8600  0.3247 -0.6624
  677MOL0     H91363   3.211  11.034   9.202 -1.0804 -0.7132 -1.4146
  677MOL0     H91364   3.301  11.129   9.072  0.6548  0.0251 -0.3250
  677MOL0     H91365   3.061  10.939   9.034  0.6273  0.2236 -2.0133
  677MOL0     H91366   3.153  11.007   8.913 -1.5095 -1.8898 -0.6461
  677MOL0     H91367   2.963  11.130   9.107  0.6946  4.4096  1.6382
  677MOL0     H91368   3.084  11.232   9.056 -2.2746  0.5154 -0.4363
  677MOL0     H91369   3.011  11.198   8.811 -0.2173  1.6108  0.0544
  677MOL0     H91370   2.890  11.270   8.916  1.3108  1.0872  1.5746
  677MOL0     H91371   2.918  10.979   8.833  0.9673 -0.7677  1.4086
  677MOL0     H91372   2.807  11.037   8.963 -0.7041  3.3795  0.7769
  677MOL0     H91373   2.790  11.078   8.665 -0.0933 -0.4055 -0.0612
  677MOL0     H91374   2.731  11.212   8.748  1.6176  1.2247 -0.4655
  677MOL0     H91375   2.545  11.083   8.714  0.1877 -2.0215 -0.6600
  677MOL0     H91376   2.584  11.043   8.878 -1.4839 -1.1065 -0.2968
  677MOL0     H91377   3.442  10.667   9.097  0.0255  1.8789 -4.8738
  677MOL0     H91378   3.645  10.529   9.101 -0.4241 -0.8706  3.1091
  677MOL0     H91379   4.097  10.560   9.243 -0.0303  0.4240 -1.3050
  677MOL0     H91380   4.309  10.443   9.286  0.5437 -1.0468  0.3296
  677MOL0     H91381   5.579   9.640  10.085 -0.8511 -1.1599 -0.6632
  677MOL0     H91382   5.731   9.651  10.304 -0.1646 -2.8794  1.1924
  677MOL0     H91383   5.846   9.614  10.703  1.2800 -0.5786  0.7438
  677MOL0     H91384   5.983   9.563  10.906  0.5396  0.3659  0.2076
  677MOL0     H91385   6.070   9.353  11.084  2.1931  1.4329 -0.1836
  677MOL0     H91386   6.043   9.528  11.109  0.4213 -0.7437  0.2481
  677MOL0     H91387   6.160   9.428  11.287 -0.0770  1.1993 -3.2624
  677MOL0     H91388   6.034   9.317  11.331  1.9807 -2.0036 -2.2821
  677MOL0     H91389   5.878   9.493  11.376  1.0997 -2.8974 -0.3994
  677MOL0     H91390   5.997   9.613  11.326  1.5363 -0.8617  0.4693
  677MOL0     H91391   5.967   9.608  11.562 -2.5182 -2.4573 -1.0515
  677MOL0     H91392   6.139   9.557  11.526 -0.1132  2.7032  0.5417
  677MOL0     H91393   5.995   9.199  11.681  1.0406 -0.3806 -1.3967
  677MOL0     H91394   5.626   9.367  11.053  0.4859  0.2552 -0.2418
  677MOL0     H91395   5.515   9.393  10.862 -1.4696  0.8131  1.5296
  678MOL0     O91396   8.510   2.777   7.964 -0.0250  1.0807  0.0108
  678MOL0     C91397   8.601   2.753   8.042 -0.6948 -0.4097  0.6604
  678MOL0     O91398   8.589   2.694   8.161  0.3259  0.6973 -0.0323
  678MOL0     C91399   8.468   2.628   8.184  0.7433 -0.8889  0.3301
  678MOL0     C91400   8.384   2.693   8.275  0.2762 -0.0142  1.2439
  678MOL0     C91401   8.264   2.624   8.315 -0.3503  0.4207 -0.1122
  678MOL0     C91402   8.223   2.502   8.245 -0.3968  0.3911 -0.3076
  678MOL0     O91403   8.096   2.447   8.267  0.1771  0.1377 -0.2168
  678MOL0     C91404   8.080   2.305   8.221 -0.1467 -0.5967 -0.5685
  678MOL0     C91405   7.941   2.264   8.267  0.1277  0.4296  0.2600
  678MOL0     C91406   7.827   2.349   8.207 -0.2416 -0.6589  0.5842
  678MOL0     C91407   7.786   2.474   8.292 -0.5868 -0.9820 -0.3012
  678MOL0     C91408   7.692   2.574   8.217  0.2604  0.6532 -0.4909
  678MOL0     C91409   7.739   2.658   8.095 -0.2317  0.4353  0.0228
  678MOL0     C91410   7.859   2.759   8.128 -0.0326  0.1672  0.2462
  678MOL0     C91411   7.821   2.871   8.219 -0.6147 -0.4354 -1.0102
  678MOL0     N91412   7.933   2.973   8.214 -0.6051  0.2992 -0.1351
  678MOL0     C91413   7.950   3.061   8.106  0.5306  0.0646 -0.3380
  678MOL0     C91414   8.048   3.149   8.148 -0.0222 -0.4131  0.2123
  678MOL0     C91415   8.109   3.270   8.076  0.0762 -0.5827 -0.3222
  678MOL0     C91416   8.245   3.219   8.021 -0.1806  0.2891 -0.1377
  678MOL0     C91417   8.301   3.327   7.932  0.2233 -0.3028 -0.3353
  678MOL0     C91418   8.442   3.302   7.878 -0.1904  0.7031  0.3095
  678MOL0     O91419   8.500   3.423   7.829 -0.2607 -0.1854 -0.1559
  678MOL0     C91420   8.623   3.404   7.765 -0.2719 -0.3297  0.3463
  678MOL0     C91421   8.656   3.510   7.693  0.2354 -1.0140  0.2364
  678MOL0     C91422   8.780   3.527   7.625  0.0282  0.1022 -0.0821
  678MOL0     C91423   8.800   3.674   7.584  0.0151 -0.0528 -0.3285
  678MOL0     C91424   8.869   3.415   7.639 -0.0163  0.4656  0.6059
  678MOL0     C91425   9.009   3.413   7.577 -0.2141  0.2839 -0.8056
  678MOL0     O91426   9.086   3.523   7.594  0.5018  0.2551 -0.1969
  678MOL0     C91427   9.212   3.536   7.541 -0.1265  0.2491  0.0946
  678MOL0     C91428   9.314   3.463   7.593 -0.7054  0.7392  0.0804
  678MOL0     C91429   9.445   3.480   7.535 -0.0474  0.7785  0.5799
  678MOL0     C91430   9.469   3.555   7.420  0.5581  1.1669 -0.6545
  678MOL0     O91431   9.597   3.556   7.374  0.1102  0.2427  0.2151
  678MOL0     C91432   9.637   3.600   7.237  0.1310 -0.6568  0.1940
  678MOL0     C91433   9.784   3.579   7.238  0.5567 -0.2600  0.2366
  678MOL0     C91434   9.859   3.633   7.117  0.4361 -0.3902 -0.0309
  678MOL0     C91435  10.012   3.607   7.126 -0.4543 -0.2196  0.0121
  678MOL0     C91436  10.083   3.682   7.020  0.4443 -0.8108  1.5239
  678MOL0     C91437  10.228   3.649   7.027 -0.2305  0.2430  0.6123
  678MOL0     C91438  10.313   3.738   6.932 -0.0886 -0.4800 -0.2926
  678MOL0     C91439  10.448   3.671   6.926 -0.4083 -0.2148 -0.6787
  678MOL0    Cl91440  10.512   3.685   7.093 -0.7666  0.2683 -0.1088
  678MOL0     C91441   9.359   3.633   7.371 -0.3252  0.7569  0.3995
  678MOL0     C91442   9.232   3.626   7.430 -0.7511 -0.2666 -0.0775
  678MOL0     O91443   9.042   3.309   7.514 -0.1210 -0.6579  0.8736
  678MOL0     C91444   8.835   3.305   7.721  0.3544 -0.6321  0.0497
  678MOL0     C91445   8.707   3.296   7.784 -0.3871 -0.5236  0.2796
  678MOL0     N91446   8.099   3.100   8.263 -0.1004 -0.8701 -0.4859
  678MOL0     N91447   8.032   2.993   8.300 -1.0278  0.3007 -1.1196
  678MOL0     C91448   8.315   2.451   8.146 -0.7426 -0.1903 -1.0360
  678MOL0     C91449   8.441   2.505   8.120  0.1043  0.4094 -0.5873
  678MOL0     C91450   8.741   2.799   8.013 -0.3515 -1.0168  0.5952
  678MOL0     C91451   8.761   2.839   7.882 -0.5242  0.8175  0.7137
  678MOL0     C91452   8.888   2.887   7.844 -0.0069  0.3315 -0.6119
  678MOL0     C91453   8.985   2.912   7.942  1.1655 -0.3101  0.3413
  678MOL0     O91454   9.104   2.973   7.902  0.3434 -1.3012 -0.0280
  678MOL0     C91455   9.135   3.009   7.770  1.2771  0.0640  0.3070
  678MOL0     C91456   9.255   3.109   7.768 -0.0571  0.2278 -1.1572
  678MOL0     C91457   9.378   3.050   7.837  0.2911  0.5101 -0.3534
  678MOL0     C91458   9.459   3.171   7.884  0.5423 -0.9022  0.0476
  678MOL0     C91459   9.603   3.150   7.898  0.6181  0.7396 -0.1492
  678MOL0     C91460   9.718   3.118   7.897 -0.2600 -0.4272  0.4991
  678MOL0     C91461   8.963   2.874   8.071  0.2148  0.0724 -1.2219
  678MOL0     C91462   8.843   2.814   8.110  0.7922  0.7571  0.0908
  678MOL0     H91463   8.413   2.793   8.306 -1.6618  1.3559 -1.0511
  678MOL0     H91464   8.194   2.672   8.383  0.6237 -1.4074  2.2970
  678MOL0     H91465   8.096   2.278   8.117  0.1820  1.2407 -1.0342
  678MOL0     H91466   8.154   2.246   8.277 -0.9951 -0.0455  1.1870
  678MOL0     H91467   7.931   2.161   8.232  3.5170  1.4221 -4.7661
  678MOL0     H91468   7.936   2.266   8.376 -3.0245  3.4220  0.2163
  678MOL0     H91469   7.866   2.381   8.110  1.1296  0.8663  1.5831
  678MOL0     H91470   7.736   2.291   8.190 -1.0444  1.0819 -1.4530
  678MOL0     H91471   7.726   2.444   8.379  0.2732  2.4983  1.6796
  678MOL0     H91472   7.869   2.531   8.335  1.3274 -2.6647 -1.5796
  678MOL0     H91473   7.613   2.512   8.173 -1.0147  2.1765 -0.4174
  678MOL0     H91474   7.659   2.643   8.295  0.0023  2.1624 -1.8790
  678MOL0     H91475   7.777   2.590   8.018 -1.4391 -0.6514  0.3418
  678MOL0     H91476   7.652   2.710   8.056  0.7200  1.6599 -0.5404
  678MOL0     H91477   7.945   2.706   8.169  1.5657  1.7264 -0.9677
  678MOL0     H91478   7.890   2.804   8.034  2.0693 -0.7282  0.4749
  678MOL0     H91479   7.815   2.828   8.319  2.8733  2.0178  0.4150
  678MOL0     H91480   7.732   2.921   8.179 -0.0574  0.8921 -0.6319
  678MOL0     H91481   7.890   3.061   8.015 -2.9033 -4.8429  1.4562
  678MOL0     H91482   8.052   3.317   7.995  2.7721 -0.7466 -2.4370
  678MOL0     H91483   8.122   3.339   8.160  2.4822 -0.0246 -1.0849
  678MOL0     H91484   8.213   3.130   7.966 -2.4823 -1.3195  3.4156
  678MOL0     H91485   8.321   3.180   8.089 -0.3402 -1.9209 -1.1481
  678MOL0     H91486   8.312   3.419   7.989  2.6945  1.7297 -3.6838
  678MOL0     H91487   8.234   3.339   7.846 -0.4150  1.2790  0.3458
  678MOL0     H91488   8.444   3.217   7.809  1.7373  0.5103  0.5609
  678MOL0     H91489   8.490   3.256   7.965  2.7336 -0.6544 -1.8604
  678MOL0     H91490   8.594   3.598   7.687  0.0877 -1.1665 -0.4559
  678MOL0     H91491   8.720   3.715   7.521  0.3402  1.5795  0.2650
  678MOL0     H91492   8.813   3.743   7.668  2.2597 -0.3546 -0.3712
  678MOL0     H91493   8.894   3.679   7.529  2.4615 -0.3278  3.4744
  678MOL0     H91494   9.295   3.391   7.672  1.5541 -1.7681 -1.5239
  678MOL0     H91495   9.526   3.418   7.574 -1.0220 -1.7597 -1.1526
  678MOL0     H91496   9.580   3.542   7.164  1.0400 -0.5343 -0.6132
  678MOL0     H91497   9.621   3.705   7.213 -4.8003 -1.6212 -2.0713
  678MOL0     H91498   9.833   3.605   7.332  1.4405  0.5062 -0.4103
  678MOL0     H91499   9.781   3.471   7.224 -3.5348 -0.3785  0.9488
  678MOL0     H91500   9.851   3.742   7.117  2.1277 -0.2303 -0.9253
  678MOL0     H91501   9.829   3.589   7.021  1.4223 -0.3583 -0.3632
  678MOL0     H91502  10.051   3.652   7.218 -1.6402  5.2457 -1.7279
  678MOL0     H91503  10.032   3.500   7.119  0.6789  0.0129 -0.5995
  678MOL0     H91504  10.074   3.791   7.025 -0.4311 -0.7340 -0.7716
  678MOL0     H91505  10.039   3.665   6.922  2.0150  3.2688 -0.1233
  678MOL0     H91506  10.261   3.655   7.131 -1.0838  2.3834  0.7986
  678MOL0     H91507  10.227   3.545   6.993 -1.9969 -0.2892  2.1525
  678MOL0     H91508  10.316   3.838   6.977 -1.1514 -0.3122 -0.5757
  678MOL0     H91509  10.273   3.746   6.831 -0.2426 -2.1388 -0.3888
  678MOL0     H91510  10.510   3.723   6.853  1.1491 -1.6177 -0.4158
  678MOL0     H91511  10.446   3.565   6.898  1.0362 -1.0163  1.9733
  678MOL0     H91512   9.381   3.701   7.289  1.2147 -0.8140 -0.5478
  678MOL0     H91513   9.151   3.689   7.394 -0.8422  0.7290  1.7778
  678MOL0     H91514   8.912   3.228   7.722  0.9542 -0.1808 -2.7867
  678MOL0     H91515   8.688   3.213   7.852 -1.1849  0.5982  1.4774
  678MOL0     H91516   8.289   2.354   8.104  0.5706 -1.6644  1.3210
  678MOL0     H91517   8.521   2.461   8.061  0.2658  1.5777 -1.2676
  678MOL0     H91518   8.670   2.828   7.822 -1.3628  1.5815  1.7999
  678MOL0     H91519   8.907   2.916   7.741 -0.9196  2.4009 -0.2317
  678MOL0     H91520   9.144   2.917   7.710 -2.0585  0.0976 -0.4397
  678MOL0     H91521   9.044   3.055   7.731  0.8048 -1.4494 -0.4682
  678MOL0     H91522   9.227   3.202   7.818 -0.3333 -1.3124  1.7836
  678MOL0     H91523   9.295   3.131   7.668  2.3209 -0.3004 -0.3709
  678MOL0     H91524   9.436   2.987   7.769 -0.8824 -0.6634 -0.2949
  678MOL0     H91525   9.354   2.989   7.924  0.4624  0.0023 -0.6552
  678MOL0     H91526   9.434   3.203   7.986  1.1474  1.3596 -0.4749
  678MOL0     H91527   9.436   3.258   7.823 -2.1439 -1.0029  0.7922
  678MOL0     H91528   9.818   3.082   7.913 -0.3763 -1.6125 -1.1109
  678MOL0     H91529   9.033   2.891   8.153 -1.3213 -0.5512  0.2776
  678MOL0     H91530   8.833   2.775   8.211  1.1308  1.6336  0.4818
  679MOL0     O91531   3.726   7.578   0.669  0.1128 -0.6595 -0.2032
  679MOL0     C91532   3.783   7.682   0.635 -0.7706  0.2292  0.2413
  679MOL0     O91533   3.908   7.715   0.666 -0.8723  0.5283 -0.0324
  679MOL0     C91534   3.981   7.662   0.778  0.7301 -0.8012 -0.6948
  679MOL0     C91535   4.119   7.647   0.773 -0.3470 -0.1101  1.3120
  679MOL0     C91536   4.190   7.593   0.883 -0.1623 -0.0768  0.6380
  679MOL0     C91537   4.118   7.560   0.993 -0.6258 -0.4443 -0.2096
  679MOL0     O91538   4.203   7.503   1.085 -0.1057 -0.4073 -0.4211
  679MOL0     C91539   4.129   7.450   1.197  0.3087 -0.1019 -0.1367
  679MOL0     C91540   4.246   7.409   1.285  0.0580  0.4673  0.2316
  679MOL0     C91541   4.297   7.526   1.377 -0.7509 -0.4488  0.5144
  679MOL0     C91542   4.377   7.480   1.496  0.2071  0.9671 -0.2525
  679MOL0     C91543   4.409   7.591   1.600  0.6555 -1.3085 -0.0747
  679MOL0     C91544   4.526   7.552   1.698 -0.0559  0.4486  0.0180
  679MOL0     C91545   4.514   7.653   1.815 -0.2319 -0.4772 -0.3953
  679MOL0     C91546   4.612   7.594   1.923 -0.1942  0.3959  0.2288
  679MOL0     N91547   4.750   7.585   1.895  0.4925 -0.0761 -0.3953
  679MOL0     C91548   4.834   7.688   1.924  1.1307 -1.1365 -0.0001
  679MOL0     C91549   4.960   7.634   1.938  0.0532 -0.2020 -0.5364
  679MOL0     C91550   5.075   7.716   1.991  0.2071  1.2264 -0.7786
  679MOL0     C91551   5.077   7.737   2.143  0.7066 -0.1769 -0.2056
  679MOL0     C91552   5.129   7.875   2.176 -0.1476 -0.0643  0.1090
  679MOL0     C91553   5.030   7.992   2.139 -1.0133 -0.1983 -0.0500
  679MOL0     O91554   5.049   8.100   2.236 -0.6620 -1.1606 -0.0836
  679MOL0     C91555   5.011   8.080   2.366 -0.3304  0.4396  0.5754
  679MOL0     C91556   4.911   7.993   2.413 -0.7158 -0.7195 -0.1386
  679MOL0     C91557   4.880   7.982   2.551  0.3938  0.7325  0.4063
  679MOL0     C91558   4.756   7.911   2.582  0.0839 -0.1189 -0.1013
  679MOL0     C91559   4.967   8.050   2.643 -0.8461 -0.1730 -0.3267
  679MOL0     C91560   4.963   8.044   2.803  0.6650 -1.1302 -0.5719
  679MOL0     O91561   5.010   8.155   2.865 -0.3084 -0.0266  0.7244
  679MOL0     C91562   5.071   8.149   2.990 -0.1921  0.1019  0.5657
  679MOL0     C91563   5.125   8.037   3.056 -0.7248  0.6386  0.0644
  679MOL0     C91564   5.188   8.060   3.180 -0.0991  0.2258 -0.6371
  679MOL0     C91565   5.198   8.186   3.240 -0.4103 -0.0132  0.8798
  679MOL0     O91566   5.260   8.195   3.366 -0.4089 -0.0665 -0.5225
  679MOL0     C91567   5.285   8.319   3.427  0.0485  0.8590 -0.5224
  679MOL0     C91568   5.378   8.314   3.546 -0.0882 -0.1044  0.1320
  679MOL0     C91569   5.338   8.218   3.662 -0.3534 -0.3175 -0.6600
  679MOL0     C91570   5.393   8.274   3.792  0.1487 -0.1248  0.1264
  679MOL0     C91571   5.537   8.234   3.812 -0.4449 -0.1334 -0.1137
  679MOL0     C91572   5.598   8.274   3.951  1.0924 -0.2099  0.7099
  679MOL0     C91573   5.732   8.201   3.978 -0.2599 -0.9192 -0.1552
  679MOL0     C91574   5.723   8.066   4.062  0.6515  0.0051 -0.1013
  679MOL0    Cl91575   5.892   8.030   4.145 -0.2646 -0.0500  0.1205
  679MOL0     C91576   5.146   8.297   3.168 -0.1953 -0.4891  0.3000
  679MOL0     C91577   5.089   8.272   3.042 -0.7775 -0.0336  0.8896
  679MOL0     O91578   4.901   7.953   2.854 -0.3747  0.5022 -0.4240
  679MOL0     C91579   5.063   8.130   2.589 -0.4439 -0.3661  0.0422
  679MOL0     C91580   5.083   8.149   2.462 -0.4818 -0.2998 -0.3447
  679MOL0     N91581   4.950   7.501   1.916 -0.1092  1.0350 -0.7443
  679MOL0     N91582   4.822   7.474   1.900 -0.2558  0.1806  0.3797
  679MOL0     C91583   3.985   7.589   1.005  0.2173 -0.3212 -0.5979
  679MOL0     C91584   3.914   7.637   0.898 -0.0358 -0.0091  0.2207
  679MOL0     C91585   3.711   7.771   0.543  0.1688  0.2895  0.7468
  679MOL0     C91586   3.742   7.909   0.528 -0.3214  0.2762  0.0552
  679MOL0     C91587   3.675   7.993   0.442  0.4880 -0.6790  0.2881
  679MOL0     C91588   3.577   7.941   0.361  0.8342  0.7029 -0.2663
  679MOL0     O91589   3.514   8.035   0.284 -0.2418 -0.2270  0.4446
  679MOL0     C91590   3.440   7.993   0.173  0.8516  0.4118  0.1525
  679MOL0     C91591   3.432   8.117   0.077 -0.7696  0.1878  0.0427
  679MOL0     C91592   3.368   8.241   0.143 -0.7095  0.2584  0.5165
  679MOL0     C91593   3.344   8.357   0.048  0.0594 -0.5655 -0.2507
  679MOL0     C91594   3.467   8.425   0.002  0.1783  0.6240  0.0267
  679MOL0     C91595   3.574   8.477  -0.038  0.2110 -0.6814  0.5161
  679MOL0     C91596   3.541   7.805   0.375 -1.0283 -0.6338  0.8368
  679MOL0     C91597   3.600   7.723   0.466 -0.2094 -0.5364 -0.3067
  679MOL0     H91598   4.177   7.686   0.690  3.0654 -2.5359  2.3420
  679MOL0     H91599   4.297   7.574   0.876 -0.5001 -1.7542 -0.8104
  679MOL0     H91600   4.084   7.535   1.249  0.8997 -0.7630  1.5239
  679MOL0     H91601   4.059   7.371   1.169 -0.6401  0.4946  0.4965
  679MOL0     H91602   4.215   7.327   1.350  1.9760 -1.6445 -1.3707
  679MOL0     H91603   4.328   7.361   1.231  0.0620 -1.1178  1.5870
  679MOL0     H91604   4.354   7.592   1.311 -2.1943 -0.9406 -1.2961
  679MOL0     H91605   4.214   7.583   1.418 -3.5601 -2.0310 -2.4732
  679MOL0     H91606   4.316   7.399   1.538 -4.1533  3.3728 -1.3061
  679MOL0     H91607   4.466   7.443   1.445 -1.1713 -0.9861 -1.3810
  679MOL0     H91608   4.432   7.690   1.558 -1.7568 -0.8640 -0.4611
  679MOL0     H91609   4.317   7.601   1.658  0.5548 -1.8374 -0.1414
  679MOL0     H91610   4.516   7.445   1.719  0.1247  0.3205 -0.5501
  679MOL0     H91611   4.618   7.557   1.639  1.8625 -4.8422  1.9452
  679MOL0     H91612   4.550   7.752   1.784  0.7725 -0.4496  0.7573
  679MOL0     H91613   4.412   7.650   1.854 -0.9900 -0.6205 -2.3103
  679MOL0     H91614   4.565   7.496   1.937 -0.7247  0.9298  2.6930
  679MOL0     H91615   4.588   7.634   2.022 -2.2973  1.7116 -0.7259
  679MOL0     H91616   4.806   7.788   1.953 -0.0733 -1.2622 -0.6469
  679MOL0     H91617   5.176   7.680   1.970 -1.4667 -3.4685 -2.0503
  679MOL0     H91618   5.076   7.814   1.943 -2.0398  1.7983  0.2254
  679MOL0     H91619   5.137   7.659   2.191  2.1129  0.0009 -1.5994
  679MOL0     H91620   4.977   7.735   2.188  0.9782 -1.6873  0.3884
  679MOL0     H91621   5.226   7.903   2.133  0.0622  1.1129  1.2927
  679MOL0     H91622   5.144   7.876   2.284 -1.8060 -0.5824  0.3683
  679MOL0     H91623   4.925   7.962   2.143 -0.9893 -0.4342 -1.1076
  679MOL0     H91624   5.055   8.032   2.040 -0.2386 -0.0229  0.2076
  679MOL0     H91625   4.845   7.947   2.339 -0.3966 -0.1334 -0.8050
  679MOL0     H91626   4.748   7.885   2.688 -0.0300 -0.4534 -0.1909
  679MOL0     H91627   4.671   7.971   2.551 -0.7898 -0.3220  1.7929
  679MOL0     H91628   4.751   7.810   2.540 -2.0014 -0.0641 -0.0655
  679MOL0     H91629   5.127   7.937   3.014 -0.1446  0.2983  0.8828
  679MOL0     H91630   5.230   7.977   3.237 -1.6336 -1.3569 -1.6991
  679MOL0     H91631   5.332   8.382   3.351 -1.7732  0.1715 -2.3013
  679MOL0     H91632   5.188   8.361   3.456 -0.9934 -1.5867 -0.2116
  679MOL0     H91633   5.480   8.286   3.520  0.8837  2.8493  0.3687
  679MOL0     H91634   5.381   8.418   3.579 -1.1097 -0.4602  1.4645
  679MOL0     H91635   5.365   8.117   3.629  0.8449  0.1204 -1.0927
  679MOL0     H91636   5.229   8.224   3.668 -0.2911 -0.5592  3.1789
  679MOL0     H91637   5.365   8.380   3.791 -3.5252 -0.9627  0.2499
  679MOL0     H91638   5.329   8.234   3.872 -3.7124 -2.3343 -3.6055
  679MOL0     H91639   5.594   8.293   3.739  2.0313  0.9599  2.5025
  679MOL0     H91640   5.554   8.128   3.788 -0.3869 -0.6717  2.0644
  679MOL0     H91641   5.608   8.383   3.946  1.7715 -0.2067  1.8236
  679MOL0     H91642   5.520   8.238   4.018  0.1664  0.6834  0.1328
  679MOL0     H91643   5.787   8.281   4.029  0.1879 -1.3540  0.0601
  679MOL0     H91644   5.779   8.170   3.885  0.5100 -0.1069 -0.0437
  679MOL0     H91645   5.698   7.996   3.982  1.4562  1.6098 -1.8500
  679MOL0     H91646   5.638   8.056   4.131  1.2243 -4.9203  0.2807
  679MOL0     H91647   5.140   8.393   3.218  2.8410 -1.9045  3.8445
  679MOL0     H91648   5.049   8.357   2.988  0.7811 -0.2123 -0.6578
  679MOL0     H91649   5.119   8.193   2.657 -0.1896  0.6056 -1.0325
  679MOL0     H91650   5.147   8.222   2.414 -1.3376  0.4476 -0.3760
  679MOL0     H91651   3.926   7.580   1.095 -1.3097 -2.0416 -1.7082
  679MOL0     H91652   3.810   7.661   0.913 -0.3544 -1.4266  0.3900
  679MOL0     H91653   3.821   7.953   0.587  0.7564 -1.3859 -0.0792
  679MOL0     H91654   3.711   8.094   0.427  3.9434 -1.7081  0.8091
  679MOL0     H91655   3.485   7.912   0.114  1.8798  0.6624  0.5778
  679MOL0     H91656   3.341   7.956   0.205  1.0284  1.7695  2.4489
  679MOL0     H91657   3.371   8.096  -0.012  0.7518  0.0562 -0.9909
  679MOL0     H91658   3.530   8.138   0.035 -1.4967  1.2329 -1.2148
  679MOL0     H91659   3.418   8.269   0.236  0.2889 -1.7552  0.6324
  679MOL0     H91660   3.263   8.213   0.162 -1.0667  0.6398 -0.7944
  679MOL0     H91661   3.282   8.433   0.096 -0.0269 -0.4564 -0.5333
  679MOL0     H91662   3.297   8.319  -0.043 -0.5015  1.9544 -1.0719
  679MOL0     H91663   3.657   8.538  -0.070  1.4993 -2.4524  0.3158
  679MOL0     H91664   3.461   7.770   0.312 -1.0978  0.8456  0.0744
  679MOL0     H91665   3.562   7.621   0.476  0.4580 -0.5988  2.3951
  680MOL0     O91666   0.716   0.645   8.073  0.6788  0.0821 -0.1345
  680MOL0     C91667   0.720   0.723   8.176 -1.1822  0.8422  0.3261
  680MOL0     O91668   0.826   0.730   8.265 -0.9254 -0.4539  1.2125
  680MOL0     C91669   0.950   0.696   8.216 -0.4990 -0.4556  0.2780
  680MOL0     C91670   1.043   0.649   8.313  0.3690 -0.2348  0.0590
  680MOL0     C91671   1.177   0.630   8.294 -0.2270 -0.3353  0.5892
  680MOL0     C91672   1.227   0.624   8.161  0.3201 -1.1635 -0.2466
  680MOL0     O91673   1.351   0.584   8.121  0.4420 -0.2274 -0.1076
  680MOL0     C91674   1.415   0.488   8.209  0.7100 -0.8550  0.3944
  680MOL0     C91675   1.530   0.445   8.124 -0.4428  1.0056 -0.8056
  680MOL0     C91676   1.630   0.380   8.223  0.1137 -0.1717 -0.4064
  680MOL0     C91677   1.749   0.304   8.158  0.3589 -1.3006  0.2114
  680MOL0     C91678   1.794   0.195   8.269  0.2675  1.1544 -0.5787
  680MOL0     C91679   1.926   0.129   8.247 -0.1618  0.1686  0.5480
  680MOL0     C91680   1.932   0.008   8.349  0.8257 -0.2787 -0.5513
  680MOL0     C91681   2.054  -0.079   8.352 -1.0721  0.1898 -0.0627
  680MOL0     N91682   2.172   0.007   8.350  0.0359  0.2917 -0.0431
  680MOL0     C91683   2.266   0.011   8.456  0.3350 -0.5414  0.2054
  680MOL0     C91684   2.364   0.080   8.400 -0.3432  0.8548  0.2216
  680MOL0     C91685   2.507   0.125   8.462  0.5939 -0.5722  0.4205
  680MOL0     C91686   2.608   0.009   8.449 -0.5354  0.5750  0.0246
  680MOL0     C91687   2.646  -0.004   8.296  0.2930 -0.5286  0.1324
  680MOL0     C91688   2.786  -0.079   8.283 -0.1164 -0.2738 -0.3664
  680MOL0     O91689   2.769  -0.222   8.323  0.4755  0.1100 -0.3554
  680MOL0     C91690   2.872  -0.305   8.310  0.0402 -0.1362  0.2219
  680MOL0     C91691   2.987  -0.290   8.238 -0.6704  0.3498  0.1720
  680MOL0     C91692   3.097  -0.378   8.253  0.7504  0.4090  0.6399
  680MOL0     C91693   3.223  -0.352   8.174 -0.3033 -0.1089 -0.4388
  680MOL0     C91694   3.079  -0.497   8.318  0.5777 -0.0543 -0.9295
  680MOL0     C91695   3.178  -0.608   8.347  0.5260  0.4616  0.0147
  680MOL0     O91696   3.135  -0.742   8.341  0.5467  0.0447  0.2521
  680MOL0     C91697   3.235  -0.833   8.327  0.5564  0.2599 -0.5095
  680MOL0     C91698   3.203  -0.929   8.231 -0.2815 -0.6554 -0.6907
  680MOL0     C91699   3.293  -1.031   8.203 -0.2615 -1.1553 -0.1487
  680MOL0     C91700   3.411  -1.057   8.283 -0.0255  0.1747 -0.6681
  680MOL0     O91701   3.509  -1.154   8.262  1.0103  0.1886 -0.1395
  680MOL0     C91702   3.480  -1.259   8.171  0.3865  0.8362 -0.1660
  680MOL0     C91703   3.534  -1.402   8.216  0.4090 -0.6421 -0.8120
  680MOL0     C91704   3.672  -1.414   8.261 -0.1422  0.1822 -0.5552
  680MOL0     C91705   3.767  -1.433   8.144  0.6570  0.2634  0.0481
  680MOL0     C91706   3.914  -1.456   8.179 -0.8046 -0.4776 -0.7617
  680MOL0     C91707   3.975  -1.325   8.244 -0.7600 -0.1079  0.0406
  680MOL0     C91708   4.099  -1.361   8.319  0.3080  1.1859 -1.2507
  680MOL0     C91709   4.134  -1.265   8.426 -0.4894  0.6279 -0.2094
  680MOL0    Cl91710   4.032  -1.315   8.566 -0.2542  0.4951 -0.1543
  680MOL0     C91711   3.437  -0.966   8.384  0.0813 -0.1944 -0.7038
  680MOL0     C91712   3.350  -0.856   8.404 -0.4000  0.1946  0.3135
  680MOL0     O91713   3.288  -0.572   8.378  0.7068  0.5620 -0.4985
  680MOL0     C91714   2.959  -0.521   8.377 -0.0148 -0.0940  0.3226
  680MOL0     C91715   2.864  -0.418   8.395 -0.6401  0.5497 -0.6082
  680MOL0     N91716   2.337   0.095   8.262 -0.1571 -0.3410  0.0588
  680MOL0     N91717   2.223   0.061   8.234  0.7225  0.7106  0.8358
  680MOL0     C91718   1.139   0.679   8.061  0.0404  0.7449 -0.1297
  680MOL0     C91719   1.004   0.711   8.085  0.0019  0.1913 -1.5150
  680MOL0     C91720   0.599   0.794   8.217 -0.1345  0.6398  0.3249
  680MOL0     C91721   0.598   0.887   8.318  0.2958  0.0062 -0.4113
  680MOL0     C91722   0.480   0.952   8.363  1.1937 -0.0553  0.9175
  680MOL0     C91723   0.354   0.918   8.311  0.1238 -0.1354  1.0353
  680MOL0     O91724   0.230   0.960   8.353  0.5967  0.1455  0.4389
  680MOL0     C91725   0.215   1.039   8.467 -0.8062 -1.1426 -0.0790
  680MOL0     C91726   0.060   1.056   8.493 -0.6604 -0.8744  0.0917
  680MOL0     C91727   0.040   1.145   8.606 -0.0069 -0.0674 -0.5656
  680MOL0     C91728  -0.107   1.158   8.650  0.4274 -0.1678  0.1663
  680MOL0     C91729  -0.123   1.250   8.757 -0.4171  0.1655 -0.8429
  680MOL0     C91730  -0.123   1.325   8.860 -0.9769 -1.0471  0.4965
  680MOL0     C91731   0.347   0.826   8.197  0.2059  0.0689 -0.8610
  680MOL0     C91732   0.476   0.769   8.153  0.1678  0.4260  0.7252
  680MOL0     H91733   1.007   0.633   8.414  0.9265 -0.8723  0.1654
  680MOL0     H91734   1.245   0.590   8.369 -0.8016 -0.5574  1.0005
  680MOL0     H91735   1.454   0.558   8.284  1.5855  0.2749 -1.0745
  680MOL0     H91736   1.350   0.408   8.244  1.0383 -0.8474  1.0419
  680MOL0     H91737   1.507   0.376   8.043  0.6851 -0.3320 -0.0298
  680MOL0     H91738   1.572   0.534   8.077 -0.6115  1.4926 -0.0552
  680MOL0     H91739   1.683   0.459   8.279 -1.0541 -0.2730  0.8797
  680MOL0     H91740   1.576   0.312   8.290 -1.5135 -1.1483 -2.6220
  680MOL0     H91741   1.722   0.256   8.063 -0.5904  2.0765 -1.3620
  680MOL0     H91742   1.823   0.376   8.123 -1.2583 -1.0975 -3.1966
  680MOL0     H91743   1.799   0.234   8.371  0.0438  0.4341 -0.2873
  680MOL0     H91744   1.716   0.118   8.274 -0.3237  1.8003  0.6316
  680MOL0     H91745   1.933   0.094   8.144 -1.2238  0.4686  0.3621
  680MOL0     H91746   2.001   0.208   8.265 -1.4059  1.0636  2.1614
  680MOL0     H91747   1.926   0.048   8.451  1.6352 -1.1019 -0.1624
  680MOL0     H91748   1.847  -0.057   8.330  1.9544 -2.8687  2.3897
  680MOL0     H91749   2.046  -0.147   8.266 -1.4678 -0.3010  0.3590
  680MOL0     H91750   2.050  -0.134   8.446  0.5714 -0.6127 -0.4141
  680MOL0     H91751   2.253  -0.003   8.563 -0.0457 -0.0894  0.2237
  680MOL0     H91752   2.533   0.219   8.412  0.8674 -1.2338 -0.7123
  680MOL0     H91753   2.497   0.144   8.570 -0.2957  1.9534 -0.0261
  680MOL0     H91754   2.559  -0.080   8.490 -3.2447  1.8510 -0.1990
  680MOL0     H91755   2.697   0.041   8.504 -0.8392 -1.7731  2.0603
  680MOL0     H91756   2.670   0.086   8.238  2.3292  0.1773  1.9381
  680MOL0     H91757   2.554  -0.044   8.252 -1.2191  1.7416  1.0317
  680MOL0     H91758   2.858  -0.028   8.346 -0.8633  1.9228 -1.1901
  680MOL0     H91759   2.806  -0.084   8.175 -2.9360  0.1448 -1.0108
  680MOL0     H91760   2.990  -0.202   8.174 -2.7305  1.6159  1.6638
  680MOL0     H91761   3.303  -0.334   8.246  1.8742  1.2066 -3.0075
  680MOL0     H91762   3.241  -0.436   8.107  2.4314  0.4722 -0.5194
  680MOL0     H91763   3.213  -0.263   8.110 -2.8499 -0.4787 -0.6834
  680MOL0     H91764   3.116  -0.920   8.166 -1.5050 -1.7887  0.6888
  680MOL0     H91765   3.263  -1.089   8.117 -0.5348 -0.2830 -0.6574
  680MOL0     H91766   3.371  -1.258   8.162  0.0336 -1.1169  2.5016
  680MOL0     H91767   3.531  -1.226   8.080  1.2436 -0.1387 -0.0585
  680MOL0     H91768   3.479  -1.430   8.307  1.6396  0.8404  0.4501
  680MOL0     H91769   3.507  -1.474   8.138 -0.9013 -0.7688 -0.2742
  680MOL0     H91770   3.674  -1.503   8.324 -1.3822  0.1152 -0.5996
  680MOL0     H91771   3.701  -1.326   8.319 -1.1632 -0.2298  0.6227
  680MOL0     H91772   3.743  -1.515   8.075  2.5052  0.8222 -1.3318
  680MOL0     H91773   3.754  -1.349   8.075  0.9217  0.2923  0.0288
  680MOL0     H91774   3.979  -1.478   8.094 -0.3933  0.8951 -0.8270
  680MOL0     H91775   3.920  -1.536   8.254 -0.6388  2.0303  2.1148
  680MOL0     H91776   4.009  -1.260   8.163 -1.9953 -0.0755 -0.4688
  680MOL0     H91777   3.904  -1.266   8.302 -2.5644 -0.8675 -1.2711
  680MOL0     H91778   4.187  -1.369   8.254  0.8128 -2.0490 -0.3676
  680MOL0     H91779   4.086  -1.463   8.359  0.8632  0.2842 -3.2407
  680MOL0     H91780   4.099  -1.166   8.394  0.4412  0.6440 -1.2532
  680MOL0     H91781   4.241  -1.266   8.448 -0.2558  0.9395 -1.2505
  680MOL0     H91782   3.525  -0.981   8.446  0.7590 -0.0757 -1.6124
  680MOL0     H91783   3.365  -0.788   8.487 -3.1621 -1.8206  2.6658
  680MOL0     H91784   2.935  -0.618   8.421  0.1075 -0.1016  0.3719
  680MOL0     H91785   2.769  -0.445   8.441 -0.7918 -2.4834 -2.4110
  680MOL0     H91786   1.165   0.687   7.956 -1.9289  3.8311 -0.5477
  680MOL0     H91787   0.947   0.735   7.996  1.7192 -1.1039 -3.0219
  680MOL0     H91788   0.687   0.911   8.375 -2.0224  2.4032  2.5117
  680MOL0     H91789   0.492   1.026   8.442  1.2573 -1.0475  1.8513
  680MOL0     H91790   0.266   1.007   8.558 -1.1160  0.8748  0.8671
  680MOL0     H91791   0.255   1.138   8.444  0.2141 -1.4444  0.3778
  680MOL0     H91792   0.017   0.961   8.525 -1.7244  0.2817  2.3354
  680MOL0     H91793   0.005   1.092   8.406  2.3158  2.8628 -0.5657
  680MOL0     H91794   0.085   1.244   8.590  1.3629 -0.9258 -2.4561
  680MOL0     H91795   0.095   1.100   8.689  1.5315  1.8915 -0.4335
  680MOL0     H91796  -0.146   1.064   8.690 -1.7375  0.2158 -0.9010
  680MOL0     H91797  -0.172   1.192   8.569 -0.0052  1.6254  1.2252
  680MOL0     H91798  -0.113   1.388   8.945  1.7237  0.9590 -1.1572
  680MOL0     H91799   0.247   0.804   8.160  0.3146  0.3516 -1.3406
  680MOL0     H91800   0.473   0.689   8.080  0.7631  0.0495  1.1032
  681MOL0     O91801   4.058   1.310   5.237 -0.2007 -0.0407  0.5367
  681MOL0     C91802   4.079   1.349   5.124  0.7531 -0.5546  1.2308
  681MOL0     O91803   3.983   1.385   5.024 -0.8132  0.1320  0.2808
  681MOL0     C91804   3.858   1.415   5.073  0.1495  0.1633  0.4198
  681MOL0     C91805   3.746   1.355   5.009  0.1839  0.5011 -0.6255
  681MOL0     C91806   3.615   1.383   5.055  0.0736  0.1570 -0.7259
  681MOL0     C91807   3.594   1.451   5.174 -0.2481 -0.3656  1.7589
  681MOL0     O91808   3.474   1.462   5.232 -0.9161 -0.1428  0.0915
  681MOL0     C91809   3.400   1.341   5.267  0.3408 -0.2094 -0.5191
  681MOL0     C91810   3.425   1.300   5.416  0.4386 -0.3150 -0.2174
  681MOL0     C91811   3.424   1.420   5.521 -1.5775  0.6701  1.0771
  681MOL0     C91812   3.477   1.373   5.654 -0.7046 -0.1458 -0.3080
  681MOL0     C91813   3.508   1.483   5.751 -0.0898  0.1968  0.0849
  681MOL0     C91814   3.533   1.427   5.889  0.0799 -0.2942  0.8233
  681MOL0     C91815   3.531   1.547   5.991 -0.3028 -0.6057  0.5392
  681MOL0     C91816   3.556   1.515   6.133  0.3431  0.3310 -0.3733
  681MOL0     N91817   3.432   1.468   6.189 -0.2550 -0.0110 -0.1941
  681MOL0     C91818   3.330   1.549   6.243  0.1159 -0.0550 -0.3877
  681MOL0     C91819   3.241   1.464   6.301 -0.3961  0.4146 -0.3620
  681MOL0     C91820   3.113   1.514   6.376 -0.6365  0.1677 -0.0496
  681MOL0     C91821   3.142   1.649   6.452 -0.5061 -0.5190 -0.0613
  681MOL0     C91822   3.051   1.668   6.576 -0.8585  0.2680 -0.1990
  681MOL0     C91823   2.904   1.653   6.536  0.3350 -0.0687 -0.6070
  681MOL0     O91824   2.817   1.683   6.652 -0.4649 -0.3995  1.2981
  681MOL0     C91825   2.687   1.713   6.622 -0.1979 -0.4047  0.2872
  681MOL0     C91826   2.618   1.789   6.718 -0.4756  0.4377  1.2875
  681MOL0     C91827   2.484   1.831   6.712  0.8080  0.8964 -0.4674
  681MOL0     C91828   2.418   1.885   6.841 -0.1860 -0.2131 -0.6172
  681MOL0     C91829   2.426   1.825   6.581  0.6928  0.1319 -1.1066
  681MOL0     C91830   2.301   1.892   6.540  0.6515 -0.3366 -0.5301
  681MOL0     O91831   2.283   1.907   6.404  0.6032 -0.7143 -1.2775
  681MOL0     C91832   2.174   1.973   6.370 -0.0089 -0.2496  0.3371
  681MOL0     C91833   2.044   1.920   6.387  0.6039  0.2224  0.0082
  681MOL0     C91834   1.924   1.980   6.334 -0.1925  0.6151 -0.8081
  681MOL0     C91835   1.941   2.103   6.275 -0.4363 -0.2809  0.0011
  681MOL0     O91836   1.822   2.167   6.262 -0.7349 -0.7115  0.1906
  681MOL0     C91837   1.812   2.294   6.197  0.6130  0.7519 -0.1483
  681MOL0     C91838   1.665   2.329   6.178  0.9438  0.5411  0.5026
  681MOL0     C91839   1.579   2.327   6.305  0.1683  0.7254 -0.4967
  681MOL0     C91840   1.426   2.310   6.271 -0.6982  0.5041 -0.2186
  681MOL0     C91841   1.340   2.329   6.399  0.5706  0.0643  0.4542
  681MOL0     C91842   1.190   2.323   6.371 -0.1768 -0.9280  0.4274
  681MOL0     C91843   1.112   2.350   6.495  0.8371  0.4283  0.1502
  681MOL0     C91844   0.964   2.373   6.479 -0.3131 -0.0217  0.4167
  681MOL0    Cl91845   0.906   2.530   6.417  0.1067  0.1552 -0.4938
  681MOL0     C91846   2.068   2.150   6.243 -0.1320 -0.4759 -0.6677
  681MOL0     C91847   2.185   2.092   6.298  0.1560  0.1458 -0.1929
  681MOL0     O91848   2.226   1.938   6.620  0.2761 -0.5733  0.0865
  681MOL0     C91849   2.488   1.736   6.485 -0.2234 -0.3539 -0.7520
  681MOL0     C91850   2.616   1.684   6.504 -0.2669 -0.0715  0.4167
  681MOL0     N91851   3.294   1.336   6.295  0.2231 -0.1971  0.2659
  681MOL0     N91852   3.404   1.335   6.221 -0.0312  0.0452 -0.2895
  681MOL0     C91853   3.701   1.516   5.230 -0.2147 -0.7588 -0.6512
  681MOL0     C91854   3.830   1.501   5.179 -0.1693 -0.5087 -0.6171
  681MOL0     C91855   4.216   1.356   5.075 -0.4685  0.2555  0.1917
  681MOL0     C91856   4.324   1.310   5.161  0.0409  0.1076 -0.0535
  681MOL0     C91857   4.457   1.306   5.117  0.7939  0.4268 -0.2142
  681MOL0     C91858   4.485   1.371   4.995  0.7776  0.1665  0.1329
  681MOL0     O91859   4.616   1.392   4.948 -0.1785  0.2982  0.4835
  681MOL0     C91860   4.722   1.317   5.011  0.2771  0.0545 -0.2280
  681MOL0     C91861   4.773   1.395   5.129 -0.1100  0.3196 -0.3959
  681MOL0     C91862   4.872   1.503   5.097  0.5932  0.4155 -0.0092
  681MOL0     C91863   4.950   1.547   5.225 -0.8853  0.6845 -0.2051
  681MOL0     C91864   4.854   1.596   5.331 -0.1856  0.0354 -0.5814
  681MOL0     C91865   4.788   1.645   5.419  0.3107 -0.6775 -0.0725
  681MOL0     C91866   4.388   1.424   4.913 -0.7220  0.8214  0.1184
  681MOL0     C91867   4.249   1.421   4.951 -0.1710  0.2259 -0.2699
  681MOL0     H91868   3.755   1.282   4.929  2.2300 -2.1502  1.7926
  681MOL0     H91869   3.538   1.342   4.990  1.1136 -0.2050 -1.7585
  681MOL0     H91870   3.292   1.357   5.261  0.4220 -0.0445 -1.9805
  681MOL0     H91871   3.410   1.262   5.192  1.9910  1.2832 -1.9827
  681MOL0     H91872   3.362   1.219   5.455  2.0840 -1.8812 -0.6808
  681MOL0     H91873   3.522   1.251   5.408 -0.3177 -1.7314 -1.0655
  681MOL0     H91874   3.493   1.497   5.487 -3.4123  0.4191 -4.1051
  681MOL0     H91875   3.324   1.465   5.522 -2.3207 -0.8667  2.9606
  681MOL0     H91876   3.411   1.301   5.703  0.8957  0.1757  2.5779
  681MOL0     H91877   3.572   1.327   5.626  0.5632  3.9620 -3.7704
  681MOL0     H91878   3.588   1.544   5.708  0.4586 -1.1078 -0.8057
  681MOL0     H91879   3.411   1.534   5.747 -1.1984 -1.8119 -4.1637
  681MOL0     H91880   3.459   1.352   5.917 -0.0804  0.3211  2.1090
  681MOL0     H91881   3.631   1.377   5.888  0.7348  0.9007 -0.8554
  681MOL0     H91882   3.611   1.616   5.961  0.1147 -0.8119  1.1698
  681MOL0     H91883   3.433   1.593   5.976 -1.3198 -1.6332  3.3602
  681MOL0     H91884   3.574   1.603   6.194 -2.7565 -1.9367  4.4053
  681MOL0     H91885   3.641   1.448   6.150  0.7869  1.0723  0.3996
  681MOL0     H91886   3.313   1.656   6.243 -0.9104 -0.1160  2.4739
  681MOL0     H91887   3.033   1.525   6.302 -0.7813  0.5064  0.1567
  681MOL0     H91888   3.081   1.451   6.459  0.2733  0.8805  0.8635
  681MOL0     H91889   3.139   1.733   6.382  2.1317  0.1348  0.4985
  681MOL0     H91890   3.245   1.645   6.489 -0.5726 -0.3595  0.1452
  681MOL0     H91891   3.067   1.764   6.626  1.7698 -0.7950  1.2036
  681MOL0     H91892   3.076   1.593   6.651 -0.2101  0.5049 -0.1701
  681MOL0     H91893   2.879   1.555   6.494 -0.5660 -0.5061  0.8761
  681MOL0     H91894   2.883   1.728   6.460  1.0647 -2.7410 -3.7137
  681MOL0     H91895   2.668   1.809   6.812  2.6075 -1.8483  0.2881
  681MOL0     H91896   2.419   1.994   6.839 -0.3341 -0.0790  2.3299
  681MOL0     H91897   2.313   1.859   6.857 -1.3682  3.9672 -0.4216
  681MOL0     H91898   2.472   1.855   6.931 -1.7884  2.8716  1.5637
  681MOL0     H91899   2.021   1.829   6.440 -1.8983  0.2372 -0.9024
  681MOL0     H91900   1.821   1.949   6.353 -0.1818  2.0487  2.1781
  681MOL0     H91901   1.858   2.363   6.268 -0.8999  0.7885  0.8418
  681MOL0     H91902   1.868   2.303   6.103  1.4984 -0.6014  0.2188
  681MOL0     H91903   1.651   2.433   6.148 -0.8424 -0.2278 -1.6142
  681MOL0     H91904   1.622   2.270   6.097  2.3479 -0.7071  0.6352
  681MOL0     H91905   1.591   2.417   6.364  0.5190 -0.6906  1.7018
  681MOL0     H91906   1.613   2.251   6.376  3.2808  3.6173  1.3798
  681MOL0     H91907   1.404   2.390   6.200  0.5404  0.3995 -0.7438
  681MOL0     H91908   1.393   2.213   6.233 -1.9416  0.0930  1.7518
  681MOL0     H91909   1.375   2.423   6.443 -0.6301  1.4209 -1.3451
  681MOL0     H91910   1.361   2.247   6.467  3.0219 -0.8504 -1.2811
  681MOL0     H91911   1.169   2.401   6.297  2.2331 -2.4902 -2.1360
  681MOL0     H91912   1.169   2.230   6.318 -1.6742 -0.0007 -0.6839
  681MOL0     H91913   1.149   2.437   6.550  0.5318  0.2852  0.5840
  681MOL0     H91914   1.126   2.267   6.565  0.4931  0.0708 -0.2036
  681MOL0     H91915   0.915   2.346   6.574  0.0637  1.6902  1.1433
  681MOL0     H91916   0.925   2.310   6.399 -1.9270  0.8752  0.4517
  681MOL0     H91917   2.083   2.243   6.190  3.5539  1.0129  2.5192
  681MOL0     H91918   2.283   2.138   6.283 -0.5731  1.6327 -0.6246
  681MOL0     H91919   2.449   1.710   6.387 -2.5061  1.5301 -0.4424
  681MOL0     H91920   2.676   1.647   6.421  0.2492 -2.0792  1.6062
  681MOL0     H91921   3.694   1.577   5.320  0.7738 -0.0173 -1.0494
  681MOL0     H91922   3.908   1.546   5.240 -1.3302 -1.0774  1.3878
  681MOL0     H91923   4.309   1.274   5.262 -2.0711  1.1337  0.0536
  681MOL0     H91924   4.537   1.263   5.177  1.0875  0.2469 -0.7267
  681MOL0     H91925   4.679   1.218   5.031  0.7754 -0.6234 -2.2963
  681MOL0     H91926   4.809   1.302   4.947 -0.6537 -0.7239 -1.3618
  681MOL0     H91927   4.831   1.324   5.189 -0.3811  1.2767  1.0690
  681MOL0     H91928   4.695   1.441   5.190  0.9900  0.7490  0.7256
  681MOL0     H91929   4.824   1.597   5.070 -2.8726 -0.5631  2.0431
  681MOL0     H91930   4.927   1.473   5.007 -0.1833 -0.1126 -0.3194
  681MOL0     H91931   5.002   1.630   5.176  1.1638 -0.9101 -0.8981
  681MOL0     H91932   5.015   1.468   5.265 -0.0970  1.4730  0.0920
  681MOL0     H91933   4.721   1.687   5.491 -0.1262 -1.1635 -0.1909
  681MOL0     H91934   4.421   1.464   4.817 -0.4693 -0.2569 -0.2532
  681MOL0     H91935   4.167   1.451   4.886  0.8052 -0.4866 -1.8847
  682MOL0     O91936   9.505   6.885  10.993  0.5479  0.0948 -0.2113
  682MOL0     C91937   9.585   6.976  10.996 -0.5241 -0.8546 -0.2457
  682MOL0     O91938   9.572   7.107  10.949  0.3534 -0.0693  0.1817
  682MOL0     C91939   9.480   7.129  10.852 -0.2922  0.1675  0.3927
  682MOL0     C91940   9.472   7.052  10.736  0.1348 -0.2424 -0.0484
  682MOL0     C91941   9.379   7.080  10.631  0.3499  0.1242 -0.3652
  682MOL0     C91942   9.309   7.195  10.632 -0.0377  0.5812 -0.9135
  682MOL0     O91943   9.236   7.238  10.525  0.4019  0.5846  0.5182
  682MOL0     C91944   9.119   7.148  10.503 -0.2674  0.2810  0.6070
  682MOL0     C91945   9.051   7.188  10.373  0.3380  0.0849 -0.4126
  682MOL0     C91946   8.974   7.324  10.375 -0.1171 -0.5330 -0.8023
  682MOL0     C91947   8.844   7.297  10.457  0.8189 -0.4901 -0.7298
  682MOL0     C91948   8.736   7.409  10.437  0.0284 -0.1137 -0.4325
  682MOL0     C91949   8.679   7.449  10.302  0.4075 -0.5599 -0.4701
  682MOL0     C91950   8.655   7.326  10.224 -0.1228  0.7451 -0.4060
  682MOL0     C91951   8.537   7.353  10.129  0.0304 -0.6308  0.1485
  682MOL0     N91952   8.581   7.445  10.028 -0.6556 -1.2904  0.1187
  682MOL0     C91953   8.650   7.410   9.914 -0.3748 -0.1417 -0.1011
  682MOL0     C91954   8.669   7.536   9.852 -1.5119 -0.0406 -0.1627
  682MOL0     C91955   8.720   7.549   9.712  0.2408 -0.4420  0.2488
  682MOL0     C91956   8.629   7.641   9.618  0.2392  0.3137 -0.1060
  682MOL0     C91957   8.492   7.571   9.594 -0.7529 -0.5879 -0.9905
  682MOL0     C91958   8.403   7.682   9.579 -0.0074  0.0233 -0.2244
  682MOL0     O91959   8.269   7.649   9.560 -0.4729 -0.1724 -0.1334
  682MOL0     C91960   8.177   7.632   9.670 -0.0109  0.3908  0.6090
  682MOL0     C91961   8.208   7.665   9.799  0.0619 -0.4900 -0.1487
  682MOL0     C91962   8.107   7.678   9.902 -0.0011 -0.8087 -0.7316
  682MOL0     C91963   8.164   7.697  10.044  0.2270  0.6333 -0.6822
  682MOL0     C91964   7.975   7.637   9.869  0.7293 -0.0693  0.2926
  682MOL0     C91965   7.865   7.656   9.962  0.2986  0.0073  0.2034
  682MOL0     O91966   7.880   7.737  10.077  0.1804 -0.4619 -0.4044
  682MOL0     C91967   7.787   7.755  10.171  0.3986 -0.9460  0.2369
  682MOL0     C91968   7.654   7.798  10.147  0.7947  0.6504  0.2658
  682MOL0     C91969   7.560   7.822  10.253 -1.5512 -0.5822 -0.3863
  682MOL0     C91970   7.615   7.813  10.386 -0.2317  0.5527 -0.4000
  682MOL0     O91971   7.536   7.840  10.496  0.1877  0.1306  0.5024
  682MOL0     C91972   7.470   7.967  10.499  0.0262 -0.0696  0.4125
  682MOL0     C91973   7.573   8.082  10.534  0.0639 -0.1739  0.3179
  682MOL0     C91974   7.628   8.071  10.682 -0.6190  0.4401  0.8518
  682MOL0     C91975   7.715   8.193  10.716 -0.8894 -0.1535  0.4891
  682MOL0     C91976   7.789   8.174  10.850 -0.0918 -0.6980 -0.3546
  682MOL0     C91977   7.689   8.174  10.969 -0.3281 -0.1410  0.1595
  682MOL0     C91978   7.775   8.176  11.101 -0.3183 -0.2029 -1.1945
  682MOL0     C91979   7.697   8.120  11.217 -0.0480  0.1855  0.3571
  682MOL0    Cl91980   7.793   8.018  11.329  0.2905  0.3779  0.4148
  682MOL0     C91981   7.739   7.748  10.406 -0.1793  1.0536 -0.2501
  682MOL0     C91982   7.832   7.721  10.293  0.5915  0.3933  0.4729
  682MOL0     O91983   7.759   7.620   9.919  0.3353 -0.6689  0.5989
  682MOL0     C91984   7.944   7.592   9.733  0.4476 -0.9882  0.1223
  682MOL0     C91985   8.043   7.594   9.641  0.8728 -0.4659  1.2374
  682MOL0     N91986   8.600   7.631   9.927 -0.3529  0.3165  0.1844
  682MOL0     N91987   8.548   7.576  10.030 -0.5182  0.3500  0.0994
  682MOL0     C91988   9.314   7.272  10.748 -0.6104  0.2829 -0.0563
  682MOL0     C91989   9.401   7.245  10.850 -0.6560  1.0555 -0.2651
  682MOL0     C91990   9.714   6.957  11.064 -0.3353  0.0144  0.0115
  682MOL0     C91991   9.757   6.829  11.118 -0.2356 -0.2291 -0.2477
  682MOL0     C91992   9.878   6.817  11.200  0.0140 -0.3617  0.4102
  682MOL0     C91993   9.971   6.919  11.195  0.6356  0.5847 -1.1108
  682MOL0     O91994  10.092   6.919  11.265  0.4461 -0.0805 -0.3295
  682MOL0     C91995  10.160   6.800  11.306  0.2241  0.2792 -0.7823
  682MOL0     C91996  10.253   6.833  11.423  0.5416 -0.4855 -0.2519
  682MOL0     C91997  10.190   6.946  11.497  0.0655  0.1812 -0.9499
  682MOL0     C91998  10.291   6.981  11.609 -0.0542 -0.2169 -0.3757
  682MOL0     C91999  10.418   7.040  11.556  0.1534  0.0418  0.5273
  682MOL0     C92000  10.519   7.093  11.527  0.6009 -0.3358 -0.0783
  682MOL0     C92001   9.931   7.045  11.126  0.2939  0.7318 -0.2827
  682MOL0     C92002   9.808   7.061  11.067 -0.7991  0.8392  0.3380
  682MOL0     H92003   9.540   6.968  10.724 -0.4665 -0.7107 -0.1815
  682MOL0     H92004   9.381   7.015  10.544 -0.6458  1.4588 -1.4215
  682MOL0     H92005   9.154   7.045  10.492 -0.0499  0.1317  2.4461
  682MOL0     H92006   9.049   7.147  10.587 -0.0664  0.5997  0.7798
  682MOL0     H92007   9.128   7.215  10.301  0.2158 -1.0252 -0.9770
  682MOL0     H92008   8.977   7.114  10.342 -2.4652  1.8584  1.5132
  682MOL0     H92009   9.030   7.400  10.430 -0.1503 -2.2911  1.8572
  682MOL0     H92010   8.964   7.370  10.276  3.1909  1.6813 -0.2765
  682MOL0     H92011   8.799   7.206  10.415 -1.6059 -0.6100  1.8674
  682MOL0     H92012   8.878   7.293  10.561 -0.2931 -0.3170 -0.3441
  682MOL0     H92013   8.664   7.383  10.515  2.9542  0.1166  2.6055
  682MOL0     H92014   8.800   7.493  10.468  1.6390 -1.2098 -0.6859
  682MOL0     H92015   8.584   7.500  10.322  1.0759 -0.2848  2.4111
  682MOL0     H92016   8.745   7.514  10.244  0.8963 -1.9942 -1.5868
  682MOL0     H92017   8.742   7.291  10.167  0.6684 -0.5305  1.4649
  682MOL0     H92018   8.616   7.250  10.293 -1.4479 -0.5852 -2.5128
  682MOL0     H92019   8.454   7.382  10.194 -0.5529 -0.4163 -0.6644
  682MOL0     H92020   8.517   7.255  10.085  0.5608  0.2961 -2.3258
  682MOL0     H92021   8.694   7.317   9.879 -1.8428 -0.4783 -1.1537
  682MOL0     H92022   8.821   7.589   9.710  0.1712 -0.2087 -2.7498
  682MOL0     H92023   8.720   7.446   9.676 -1.4626 -1.0817  1.8965
  682MOL0     H92024   8.673   7.668   9.521 -1.0222  2.5411 -0.1085
  682MOL0     H92025   8.622   7.734   9.674  1.1799  0.0014  0.5432
  682MOL0     H92026   8.470   7.511   9.684  0.3598 -0.0327 -0.3299
  682MOL0     H92027   8.504   7.501   9.511  0.2329 -0.6688 -0.7919
  682MOL0     H92028   8.427   7.748   9.495 -0.9744 -1.3534 -1.6366
  682MOL0     H92029   8.395   7.746   9.667  1.0604  1.0946 -0.8789
  682MOL0     H92030   8.311   7.665   9.832  1.0886  0.9679 -2.9769
  682MOL0     H92031   8.108   7.655  10.128  2.3096 -0.2509  0.3217
  682MOL0     H92032   8.254   7.638  10.064  1.6087  2.6604 -0.6035
  682MOL0     H92033   8.184   7.801  10.071 -1.6378  0.4429  1.7085
  682MOL0     H92034   7.614   7.811  10.047 -0.7906 -1.0418  0.6419
  682MOL0     H92035   7.460   7.856  10.228 -0.6849  1.2429 -1.6295
  682MOL0     H92036   7.417   7.982  10.405  0.5128 -0.5961  0.0437
  682MOL0     H92037   7.395   7.974  10.578 -1.2758  1.1792 -0.8894
  682MOL0     H92038   7.656   8.074  10.464 -1.2929 -0.4835 -1.3370
  682MOL0     H92039   7.538   8.185  10.523  2.9018  1.0373  1.8172
  682MOL0     H92040   7.692   7.983  10.689  0.1365  0.7976 -0.9398
  682MOL0     H92041   7.550   8.071  10.758 -0.9457  2.3649  0.5752
  682MOL0     H92042   7.795   8.211  10.644  2.4815 -0.6046  3.7676
  682MOL0     H92043   7.655   8.285  10.710 -0.1049  0.3066 -0.6454
  682MOL0     H92044   7.881   8.232  10.857  0.2187 -0.9125 -2.1655
  682MOL0     H92045   7.823   8.070  10.851 -0.2483 -0.7551  0.7663
  682MOL0     H92046   7.622   8.260  10.961  1.2514  0.9976 -1.9278
  682MOL0     H92047   7.640   8.076  10.963  0.6928 -0.5808 -3.3371
  682MOL0     H92048   7.822   8.272  11.123  1.5150 -1.5963  1.4604
  682MOL0     H92049   7.861   8.113  11.080 -0.3951 -2.6493  4.0741
  682MOL0     H92050   7.613   8.059  11.184 -0.7256  0.6990  1.0701
  682MOL0     H92051   7.657   8.205  11.273  1.0060  0.5784  0.5231
  682MOL0     H92052   7.767   7.732  10.509 -2.3498  1.0652  0.3828
  682MOL0     H92053   7.933   7.687  10.315  0.8183  1.0902  0.5295
  682MOL0     H92054   7.847   7.556   9.699  1.3753 -2.4798 -1.1234
  682MOL0     H92055   8.009   7.572   9.540 -3.4549 -0.3517  2.4619
  682MOL0     H92056   9.260   7.365  10.733  3.3143  3.0452  1.1065
  682MOL0     H92057   9.405   7.307  10.940  0.4094  0.6662 -0.0287
  682MOL0     H92058   9.685   6.748  11.110 -0.4360 -0.1392  0.5142
  682MOL0     H92059   9.904   6.724  11.249  3.1585  1.2713  2.1857
  682MOL0     H92060  10.093   6.720  11.341 -0.3155 -0.8644 -4.0434
  682MOL0     H92061  10.230   6.771  11.226  1.0616  1.3175 -0.4510
  682MOL0     H92062  10.349   6.870  11.385  0.4241  0.0543 -0.0274
  682MOL0     H92063  10.273   6.744  11.484  1.3455  0.1781  0.4787
  682MOL0     H92064  10.094   6.912  11.536  0.0545 -1.1689 -2.0837
  682MOL0     H92065  10.195   7.032  11.430  5.3029 -0.5707 -1.9469
  682MOL0     H92066  10.315   6.896  11.673  1.9499  1.1671  0.8455
  682MOL0     H92067  10.232   7.060  11.659  2.0012  2.9668 -2.5823
  682MOL0     H92068  10.613   7.143  11.513  0.5750  0.8231  3.0714
  682MOL0     H92069  10.003   7.123  11.107  1.4238  0.1304  1.2530
  682MOL0     H92070   9.786   7.155  11.018 -2.2774 -0.2919 -1.2804
  683MOL0     O92071   5.144   0.594   2.167  0.6230 -0.3633  0.0109
  683MOL0     C92072   5.200   0.649   2.263 -0.0785 -0.1862 -0.4306
  683MOL0     O92073   5.256   0.772   2.266 -0.8608  0.5806  0.6349
  683MOL0     C92074   5.241   0.837   2.144 -0.0662 -0.6037 -0.1246
  683MOL0     C92075   5.146   0.939   2.124 -0.6361 -1.0287 -0.4383
  683MOL0     C92076   5.149   0.997   1.995  0.4633  0.3394  0.0459
  683MOL0     C92077   5.235   0.964   1.885 -0.7809 -0.7654 -0.0274
  683MOL0     O92078   5.229   1.027   1.758 -0.7555 -0.2929  0.2485
  683MOL0     C92079   5.185   1.162   1.756 -0.7399 -0.6897 -0.0067
  683MOL0     C92080   5.156   1.198   1.609  0.0349 -0.4305  0.5732
  683MOL0     C92081   5.057   1.121   1.532 -0.2967 -0.3356 -0.8688
  683MOL0     C92082   4.929   1.086   1.606  0.3891 -0.0477  0.2835
  683MOL0     C92083   4.816   1.052   1.509 -0.1408 -0.3601 -1.0419
  683MOL0     C92084   4.687   1.053   1.606  0.8475  0.3286 -0.4692
  683MOL0     C92085   4.563   1.026   1.525 -0.8982  0.2666 -0.1191
  683MOL0     C92086   4.435   1.053   1.603  0.1179  0.9962 -0.1035
  683MOL0     N92087   4.412   0.950   1.705  0.0838 -0.5809 -0.4094
  683MOL0     C92088   4.447   0.813   1.710 -0.3002  0.1825 -0.6185
  683MOL0     C92089   4.379   0.768   1.819 -0.3214  0.6744 -0.6577
  683MOL0     C92090   4.360   0.623   1.856 -0.5926 -0.4672 -0.5545
  683MOL0     C92091   4.496   0.533   1.855  1.0983 -0.0774 -0.1935
  683MOL0     C92092   4.519   0.468   1.716  0.2497 -0.0306 -0.2068
  683MOL0     C92093   4.648   0.380   1.707 -0.6152 -0.7640  0.4014
  683MOL0     O92094   4.764   0.455   1.692 -0.3567  0.2187 -0.0870
  683MOL0     C92095   4.806   0.497   1.564  0.0812  0.2633  0.6056
  683MOL0     C92096   4.894   0.606   1.567 -0.5845  0.0673  0.0139
  683MOL0     C92097   4.948   0.660   1.448 -0.1504 -0.4139  0.1264
  683MOL0     C92098   5.058   0.779   1.464  0.6369  0.0824 -0.5939
  683MOL0     C92099   4.909   0.599   1.323 -0.1039 -0.8992 -0.4304
  683MOL0     C92100   4.949   0.647   1.195  0.7056  0.2006  0.2655
  683MOL0     O92101   4.897   0.588   1.084  0.0516 -0.9329  0.5453
  683MOL0     C92102   4.914   0.632   0.950  0.0902 -0.4272 -0.6580
  683MOL0     C92103   4.820   0.587   0.856  0.4813  0.2019 -0.7941
  683MOL0     C92104   4.819   0.634   0.726  0.9910  0.5276  0.1974
  683MOL0     C92105   4.907   0.728   0.679  0.0916 -0.3718  0.6228
  683MOL0     O92106   4.923   0.758   0.544  0.3456 -0.0003  0.4982
  683MOL0     C92107   4.797   0.794   0.473  0.0040  0.0246  0.4819
  683MOL0     C92108   4.747   0.929   0.500  0.1632 -0.8978 -0.3677
  683MOL0     C92109   4.618   0.952   0.416 -0.0852 -0.2869 -0.6004
  683MOL0     C92110   4.572   1.102   0.433  0.4232  0.1662  0.3338
  683MOL0     C92111   4.436   1.117   0.348 -0.9015  0.3196  0.0143
  683MOL0     C92112   4.320   1.042   0.410 -0.1035 -0.1548  0.0327
  683MOL0     C92113   4.270   1.095   0.545  0.0223 -0.0188  0.2017
  683MOL0     C92114   4.126   1.054   0.591  0.1230  0.3865 -0.4934
  683MOL0    Cl92115   4.008   1.123   0.489 -0.3061  0.2002  0.2132
  683MOL0     C92116   4.994   0.779   0.774  0.1382  0.2659  0.7304
  683MOL0     C92117   5.005   0.731   0.901 -0.3838  0.8602 -1.3455
  683MOL0     O92118   5.035   0.730   1.199  0.2193 -0.2534  1.2322
  683MOL0     C92119   4.802   0.493   1.329 -0.3434  0.3404 -1.1660
  683MOL0     C92120   4.764   0.438   1.443 -0.8860 -0.0861 -0.2281
  683MOL0     N92121   4.311   0.871   1.876 -0.0922 -0.5852  0.2041
  683MOL0     N92122   4.332   0.980   1.808 -0.5567 -0.1278 -0.2391
  683MOL0     C92123   5.322   0.862   1.906 -0.9884 -0.0615  0.0405
  683MOL0     C92124   5.320   0.797   2.035  0.1980 -0.4873  0.2891
  683MOL0     C92125   5.200   0.583   2.393  1.4265 -0.2704 -0.0536
  683MOL0     C92126   5.244   0.452   2.399  0.4204  0.5519 -0.0178
  683MOL0     C92127   5.250   0.384   2.526 -0.0408 -0.3692  0.2279
  683MOL0     C92128   5.222   0.460   2.648 -0.0289  0.0730  0.3114
  683MOL0     O92129   5.230   0.396   2.771  0.2377 -0.2340 -0.2382
  683MOL0     C92130   5.263   0.255   2.771 -0.6436  0.7479  0.1618
  683MOL0     C92131   5.264   0.187   2.912 -0.0879 -0.2180 -1.0024
  683MOL0     C92132   5.153   0.244   3.001  0.2385 -0.2818  0.0209
  683MOL0     C92133   5.137   0.172   3.134  0.8753  0.1586 -0.9545
  683MOL0     C92134   5.040   0.061   3.118  0.4429  0.2681 -0.3143
  683MOL0     C92135   4.950  -0.024   3.121  0.8435 -1.0912 -0.3979
  683MOL0     C92136   5.177   0.592   2.633 -0.2975 -0.3206 -0.0492
  683MOL0     C92137   5.171   0.647   2.510  0.9694 -0.7719  0.7188
  683MOL0     H92138   5.090   0.974   2.210  0.9071 -1.9033  0.9848
  683MOL0     H92139   5.075   1.077   1.989 -0.5450 -0.3861  1.9023
  683MOL0     H92140   5.096   1.184   1.815 -1.0753  0.9734 -1.0470
  683MOL0     H92141   5.263   1.232   1.788  0.7879 -1.3649 -2.0045
  683MOL0     H92142   5.112   1.298   1.598 -1.7856 -1.1520  0.9903
  683MOL0     H92143   5.251   1.195   1.555 -0.2485 -2.6419  0.0985
  683MOL0     H92144   5.036   1.163   1.434 -1.2214 -0.1586 -0.6050
  683MOL0     H92145   5.114   1.030   1.512  2.3758  1.5830 -2.6348
  683MOL0     H92146   4.937   1.002   1.675 -1.6185 -2.0638 -1.7573
  683MOL0     H92147   4.903   1.180   1.655  1.5526  1.8440 -2.4518
  683MOL0     H92148   4.807   1.141   1.447  1.0251 -0.3319 -1.2004
  683MOL0     H92149   4.835   0.961   1.451  2.9712 -1.4985  1.4588
  683MOL0     H92150   4.692   0.969   1.675  2.8372 -1.1616 -2.3103
  683MOL0     H92151   4.685   1.145   1.665 -0.9567 -0.8329  1.4222
  683MOL0     H92152   4.556   1.101   1.446  0.8986 -1.1233 -1.6767
  683MOL0     H92153   4.567   0.925   1.483 -0.0899 -0.5452  1.8065
  683MOL0     H92154   4.356   1.067   1.528 -0.3048  2.3946  0.5809
  683MOL0     H92155   4.442   1.144   1.662  0.2013  1.6867 -1.1469
  683MOL0     H92156   4.490   0.761   1.625 -0.8129 -0.4718 -0.4835
  683MOL0     H92157   4.317   0.624   1.957 -0.7888  3.3755 -0.5361
  683MOL0     H92158   4.287   0.587   1.784  1.9967  1.2184 -4.3370
  683MOL0     H92159   4.493   0.457   1.934 -2.7555  0.8675  0.7657
  683MOL0     H92160   4.566   0.615   1.875 -0.1748  1.1154 -0.4741
  683MOL0     H92161   4.520   0.540   1.634  1.1458 -0.6857 -0.7923
  683MOL0     H92162   4.430   0.407   1.697  0.1526  0.3261 -0.9081
  683MOL0     H92163   4.641   0.300   1.633  0.1775  0.3267 -0.8966
  683MOL0     H92164   4.656   0.329   1.803 -1.4825 -2.6781 -0.4849
  683MOL0     H92165   4.916   0.654   1.662 -4.0956  0.7285  0.6013
  683MOL0     H92166   5.037   0.855   1.388  1.1592  1.2058  0.3581
  683MOL0     H92167   5.066   0.810   1.568  1.8420 -2.4334  0.1490
  683MOL0     H92168   5.158   0.738   1.443  0.5566 -0.2081 -0.4129
  683MOL0     H92169   4.738   0.522   0.886 -0.6745  3.0535  3.0705
  683MOL0     H92170   4.756   0.575   0.660  1.6241  0.5824 -0.4777
  683MOL0     H92171   4.833   0.792   0.370  0.1493 -2.1667  0.5101
  683MOL0     H92172   4.718   0.719   0.486 -0.6530  0.3609 -1.3499
  683MOL0     H92173   4.720   0.943   0.606  0.3812  2.5361 -0.6711
  683MOL0     H92174   4.824   1.000   0.469  0.9957 -1.6269 -0.0183
  683MOL0     H92175   4.532   0.886   0.430 -2.3823  1.8234 -3.4731
  683MOL0     H92176   4.644   0.928   0.312 -0.5359 -0.4150 -0.6888
  683MOL0     H92177   4.566   1.131   0.538  2.7657 -0.5648  0.7401
  683MOL0     H92178   4.646   1.170   0.389  2.9383 -2.6161 -0.0382
  683MOL0     H92179   4.443   1.089   0.243 -1.4409  1.4496 -0.3384
  683MOL0     H92180   4.407   1.222   0.346 -0.2998  0.5157  0.8644
  683MOL0     H92181   4.251   1.049   0.326 -0.0769 -2.8282 -0.3192
  683MOL0     H92182   4.345   0.940   0.441 -0.2827  0.1504  1.2396
  683MOL0     H92183   4.267   1.205   0.544  0.3934  0.0040 -1.2635
  683MOL0     H92184   4.336   1.062   0.626  0.2319 -0.3932 -0.1199
  683MOL0     H92185   4.122   1.103   0.688 -1.0791 -0.6746  0.0118
  683MOL0     H92186   4.125   0.945   0.591  1.5159  0.3437 -1.2272
  683MOL0     H92187   5.065   0.853   0.739 -0.9133  1.1527  0.4176
  683MOL0     H92188   5.073   0.775   0.973  0.2124 -1.4405 -0.4117
  683MOL0     H92189   4.766   0.438   1.243 -1.5381 -1.1094  0.1927
  683MOL0     H92190   4.701   0.350   1.451  0.8118 -1.5562 -1.9826
  683MOL0     H92191   5.391   0.817   1.835  0.0035  1.3898  0.0623
  683MOL0     H92192   5.395   0.723   2.057  0.1635 -1.0281 -1.2572
  683MOL0     H92193   5.260   0.393   2.309  2.8976  1.0937 -0.0001
  683MOL0     H92194   5.278   0.280   2.516  3.3719  0.2787  1.8484
  683MOL0     H92195   5.181   0.207   2.718 -0.2831 -1.3794  1.4330
  683MOL0     H92196   5.357   0.233   2.720 -0.9601 -1.5188  0.4865
  683MOL0     H92197   5.361   0.192   2.964 -2.0868 -0.7381  3.2101
  683MOL0     H92198   5.255   0.079   2.898  0.0457 -0.1858 -1.3404
  683MOL0     H92199   5.056   0.246   2.950 -0.2066  0.3481  0.8526
  683MOL0     H92200   5.170   0.351   3.021 -1.3693  0.2125 -1.0316
  683MOL0     H92201   5.100   0.242   3.209 -0.8448  1.1147 -2.5940
  683MOL0     H92202   5.234   0.136   3.169  0.7699 -1.8977 -2.5868
  683MOL0     H92203   4.859  -0.079   3.135  1.3423 -1.5435  1.2631
  683MOL0     H92204   5.174   0.658   2.720  0.5245  2.1457 -1.7768
  683MOL0     H92205   5.166   0.756   2.506 -1.7259 -0.8580  0.0995
  684MOL0     O92206  10.579   1.791   7.833 -0.9250  0.5003  1.0751
  684MOL0     C92207  10.583   1.875   7.919  0.1763 -0.2981 -1.0035
  684MOL0     O92208  10.498   1.874   8.030  0.5097 -0.2264  0.0417
  684MOL0     C92209  10.450   1.758   8.092 -0.1120  0.1897 -0.3619
  684MOL0     C92210  10.487   1.627   8.071  0.8882 -0.7548  0.0774
  684MOL0     C92211  10.423   1.517   8.136  0.2125 -0.2466  0.7534
  684MOL0     C92212  10.307   1.540   8.218  0.0259  0.6717  0.2834
  684MOL0     O92213  10.234   1.435   8.276 -0.0423 -0.3640 -0.3658
  684MOL0     C92214  10.091   1.445   8.298  0.4880  0.0400  0.0170
  684MOL0     C92215  10.072   1.472   8.452  0.3533 -0.4302 -0.5806
  684MOL0     C92216   9.925   1.508   8.497 -0.1831 -0.7841 -1.2761
  684MOL0     C92217   9.887   1.650   8.450 -1.1972 -0.0006  0.5817
  684MOL0     C92218   9.746   1.671   8.516  0.8485  0.2701 -0.8752
  684MOL0     C92219   9.694   1.812   8.562 -0.4207 -0.9435  0.4078
  684MOL0     C92220   9.793   1.874   8.662 -0.1909 -0.5293 -0.0587
  684MOL0     C92221   9.760   2.018   8.715  0.1920 -0.4725  0.1904
  684MOL0     N92222   9.638   2.032   8.789 -0.1726  0.5900 -0.5771
  684MOL0     C92223   9.620   1.991   8.918  0.0289 -1.0012  0.3158
  684MOL0     C92224   9.485   1.958   8.926 -0.3900  0.2599 -0.2682
  684MOL0     C92225   9.421   1.887   9.042  0.7902  1.3249 -1.1849
  684MOL0     C92226   9.361   1.981   9.152  0.1592 -0.1535  0.2460
  684MOL0     C92227   9.231   2.047   9.102 -0.1091  0.3641 -0.0703
  684MOL0     C92228   9.185   2.171   9.179  0.4014  0.5216 -0.5443
  684MOL0     O92229   9.139   2.136   9.312 -0.4156 -0.1125 -0.3555
  684MOL0     C92230   9.158   2.238   9.396 -0.1912 -0.1515  0.1887
  684MOL0     C92231   9.058   2.333   9.408  0.2485  0.8657 -0.0069
  684MOL0     C92232   9.066   2.432   9.514 -0.0408 -1.1669 -0.0722
  684MOL0     C92233   8.946   2.523   9.518  0.7751  0.7685 -0.1322
  684MOL0     C92234   9.185   2.443   9.595 -0.1362 -0.6853 -0.3916
  684MOL0     C92235   9.196   2.531   9.708 -0.2315 -0.3377 -0.3901
  684MOL0     O92236   9.321   2.545   9.757 -0.6552 -0.7765  0.0740
  684MOL0     C92237   9.342   2.564   9.891  0.1684 -0.1163 -0.1323
  684MOL0     C92238   9.441   2.641   9.925 -1.0136 -0.4556  0.7451
  684MOL0     C92239   9.470   2.669  10.058 -0.8586 -0.1925  0.3428
  684MOL0     C92240   9.393   2.611  10.160  0.7780  0.4420 -0.5748
  684MOL0     O92241   9.405   2.636  10.299  0.4587  0.3110 -0.4366
  684MOL0     C92242   9.518   2.702  10.356  0.4005 -0.8933  1.4156
  684MOL0     C92243   9.552   2.656  10.494 -0.0664 -0.7328  0.3403
  684MOL0     C92244   9.442   2.675  10.594 -0.0911  0.3213 -0.1362
  684MOL0     C92245   9.475   2.588  10.727  0.9133  0.2596  0.0928
  684MOL0     C92246   9.418   2.642  10.859 -0.4184  0.0995  0.7362
  684MOL0     C92247   9.482   2.768  10.922 -1.0487 -0.7578 -0.3154
  684MOL0     C92248   9.425   2.905  10.883 -0.2370 -0.2400  0.5319
  684MOL0     C92249   9.527   3.002  10.911 -0.0023 -0.8682 -0.0026
  684MOL0    Cl92250   9.466   3.161  10.896  0.3872 -0.1032  0.6106
  684MOL0     C92251   9.285   2.529  10.119 -0.0864  0.1321  0.2111
  684MOL0     C92252   9.260   2.501   9.983 -0.0431  0.5204  0.3910
  684MOL0     O92253   9.097   2.590   9.755 -0.9776  0.2287  0.4299
  684MOL0     C92254   9.293   2.357   9.563  0.1193 -0.3048 -0.2918
  684MOL0     C92255   9.270   2.248   9.472 -0.9223 -0.1504 -0.6422
  684MOL0     N92256   9.421   1.994   8.811  0.1201  0.2755 -0.2920
  684MOL0     N92257   9.517   2.038   8.733  0.4107 -0.6362  0.2846
  684MOL0     C92258  10.273   1.672   8.246 -0.5843  0.6697 -0.7540
  684MOL0     C92259  10.345   1.775   8.178 -0.6163  0.2986  1.0871
  684MOL0     C92260  10.656   2.006   7.903  0.2114  0.6642  0.3241
  684MOL0     C92261  10.728   2.022   7.785 -0.4690  0.0974 -0.0776
  684MOL0     C92262  10.820   2.134   7.776  0.7408 -0.0968 -0.5175
  684MOL0     C92263  10.836   2.227   7.884 -0.1234  0.1815  0.2023
  684MOL0     O92264  10.936   2.328   7.886 -0.9300 -0.6653  0.0653
  684MOL0     C92265  11.061   2.268   7.904  0.1458 -0.6575 -0.3183
  684MOL0     C92266  11.174   2.377   7.915 -0.1013 -0.4559  0.4663
  684MOL0     C92267  11.313   2.319   7.950  0.2041 -0.3599  0.7749
  684MOL0     C92268  11.395   2.260   7.831  0.2312  0.5657  0.3586
  684MOL0     C92269  11.521   2.213   7.878  0.5244 -0.2108 -0.6501
  684MOL0     C92270  11.625   2.178   7.940  0.2518 -0.8137  1.4169
  684MOL0     C92271  10.750   2.210   7.997 -0.0013  0.5080 -0.1946
  684MOL0     C92272  10.658   2.104   8.005 -0.4296  0.2134 -0.8101
  684MOL0     H92273  10.569   1.597   8.007  1.9813  1.5222  0.3188
  684MOL0     H92274  10.462   1.418   8.112 -0.6240 -0.5700  0.6983
  684MOL0     H92275  10.057   1.528   8.236 -1.3827 -1.1565 -0.6537
  684MOL0     H92276  10.034   1.356   8.269 -0.1113 -0.2685  2.0124
  684MOL0     H92277  10.097   1.379   8.504  0.2560 -0.2666 -0.2333
  684MOL0     H92278  10.144   1.548   8.485 -1.1406  1.5830 -1.7473
  684MOL0     H92279   9.862   1.436   8.445 -2.7291  2.2488 -2.7023
  684MOL0     H92280   9.933   1.516   8.605  2.7487  1.4541 -1.5160
  684MOL0     H92281   9.954   1.728   8.485 -2.2700  0.9887  0.4893
  684MOL0     H92282   9.892   1.655   8.341 -3.1694 -1.0521  0.3836
  684MOL0     H92283   9.672   1.628   8.448 -0.6060  1.4229 -0.0957
  684MOL0     H92284   9.745   1.630   8.617  1.6055  4.9759  1.3407
  684MOL0     H92285   9.696   1.870   8.469 -0.3938 -1.1890  0.2551
  684MOL0     H92286   9.596   1.804   8.610 -0.2807 -0.0843  0.8495
  684MOL0     H92287   9.809   1.810   8.750  0.1523  0.9782  1.0254
  684MOL0     H92288   9.888   1.885   8.609 -0.8206  0.9941 -0.9246
  684MOL0     H92289   9.749   2.078   8.624  2.3362  0.7568  0.6888
  684MOL0     H92290   9.843   2.056   8.774 -1.2853  1.8657  0.8964
  684MOL0     H92291   9.701   1.973   8.988  3.0771 -1.3251 -3.0162
  684MOL0     H92292   9.340   1.827   9.000  0.4224 -1.2148  2.6306
  684MOL0     H92293   9.487   1.820   9.097 -0.9078 -0.3815 -1.1428
  684MOL0     H92294   9.441   2.052   9.174  1.4564 -1.1225 -1.0968
  684MOL0     H92295   9.341   1.917   9.238 -2.2127 -0.1465 -0.2322
  684MOL0     H92296   9.147   1.977   9.110 -1.3268  1.5742 -1.5269
  684MOL0     H92297   9.227   2.055   8.993 -3.9415  0.4740 -0.0522
  684MOL0     H92298   9.103   2.221   9.127  0.4588  1.3309  0.1190
  684MOL0     H92299   9.258   2.253   9.178  1.7561 -0.6458 -0.1956
  684MOL0     H92300   8.976   2.326   9.338 -0.0022  2.7525  0.0521
  684MOL0     H92301   8.977   2.627   9.509  1.7761  0.8811  3.1914
  684MOL0     H92302   8.882   2.497   9.433 -0.4109  2.7086  0.1119
  684MOL0     H92303   8.893   2.523   9.614 -2.3874  1.0521 -1.7303
  684MOL0     H92304   9.496   2.688   9.844  2.4767 -2.8223  1.4958
  684MOL0     H92305   9.558   2.730  10.073  0.8987 -2.9928  2.3080
  684MOL0     H92306   9.601   2.672  10.292 -0.4279 -3.7729  1.5134
  684MOL0     H92307   9.503   2.810  10.346 -4.7104 -1.5372 -2.5208
  684MOL0     H92308   9.581   2.551  10.496  1.5993 -0.3056  2.5144
  684MOL0     H92309   9.638   2.715  10.527 -1.5867  2.0133 -0.3059
  684MOL0     H92310   9.341   2.653  10.558 -0.2630  2.0389 -0.8258
  684MOL0     H92311   9.441   2.783  10.608  1.7100  0.3662 -0.0750
  684MOL0     H92312   9.435   2.487  10.724  0.4002  0.3743  1.7518
  684MOL0     H92313   9.584   2.590  10.736  1.2078  2.6108 -2.4804
  684MOL0     H92314   9.420   2.564  10.935 -2.8552 -1.5001 -0.6864
  684MOL0     H92315   9.309   2.648  10.845 -0.5004 -0.3638  1.1337
  684MOL0     H92316   9.481   2.758  11.031  2.8515 -0.1096 -0.0830
  684MOL0     H92317   9.587   2.766  10.895 -0.3785  0.5502  1.8881
  684MOL0     H92318   9.339   2.929  10.946 -0.8888  1.8380 -1.0420
  684MOL0     H92319   9.392   2.909  10.779 -0.4297  2.6775  0.6360
  684MOL0     H92320   9.601   2.983  10.833  2.5991 -0.1292  2.1491
  684MOL0     H92321   9.581   2.983  11.004  2.9153 -2.5553 -1.8898
  684MOL0     H92322   9.217   2.499  10.198 -0.6613  0.9662  0.0344
  684MOL0     H92323   9.175   2.437   9.963 -0.9632  0.8476  2.9248
  684MOL0     H92324   9.388   2.367   9.615 -0.2993  0.0076  0.4370
  684MOL0     H92325   9.352   2.180   9.454 -0.2529  1.2282 -3.3491
  684MOL0     H92326  10.192   1.702   8.311 -1.7695 -1.5332 -1.1332
  684MOL0     H92327  10.332   1.879   8.208  3.0348  0.1036  4.0341
  684MOL0     H92328  10.710   1.957   7.699 -0.6863  0.8579 -0.6172
  684MOL0     H92329  10.881   2.157   7.689  1.1564  0.3032 -0.1198
  684MOL0     H92330  11.057   2.202   7.991  0.6270 -0.3047 -0.0243
  684MOL0     H92331  11.082   2.211   7.813  1.3656  1.7827 -1.6815
  684MOL0     H92332  11.131   2.434   7.998  0.8361 -2.4018  2.3948
  684MOL0     H92333  11.185   2.436   7.824 -2.6086  0.6803  0.8191
  684MOL0     H92334  11.298   2.242   8.025  1.5859 -1.1365  0.2876
  684MOL0     H92335  11.376   2.389   8.005 -0.1208  0.1172  0.5472
  684MOL0     H92336  11.400   2.336   7.752  0.3443  2.8851  2.4660
  684MOL0     H92337  11.339   2.179   7.783  1.2744  1.5808 -2.8362
  684MOL0     H92338  11.714   2.149   7.992  1.8375  1.4020  0.0727
  684MOL0     H92339  10.774   2.274   8.081  2.0167  1.0840 -1.1426
  684MOL0     H92340  10.615   2.081   8.102  1.1381  1.7955  0.3250
  685MOL0     O92341   7.904  10.575   3.385 -0.1019 -0.1326  1.1436
  685MOL0     C92342   7.990  10.627   3.446 -0.3563 -0.0382 -0.2430
  685MOL0     O92343   8.007  10.622   3.582 -0.1169  0.1932  0.8175
  685MOL0     C92344   7.911  10.571   3.667 -0.3492  0.6289  0.6526
  685MOL0     C92345   7.777  10.590   3.651  0.0941 -0.6210  0.9108
  685MOL0     C92346   7.690  10.517   3.728 -0.1321  1.5481 -0.4620
  685MOL0     C92347   7.731  10.442   3.838  0.7656  0.9885 -0.7038
  685MOL0     O92348   7.642  10.382   3.933 -0.2647  0.1347  0.2621
  685MOL0     C92349   7.644  10.242   3.945  0.1426 -0.3584 -0.7549
  685MOL0     C92350   7.629  10.170   3.806  0.3983 -0.1367  0.5607
  685MOL0     C92351   7.494  10.209   3.742  0.1702 -0.1800  0.8131
  685MOL0     C92352   7.401  10.088   3.709 -0.2314  0.2408 -0.7251
  685MOL0     C92353   7.269  10.147   3.657  1.0102 -0.2366  0.6431
  685MOL0     C92354   7.189  10.039   3.577  0.4088 -0.4187  0.0858
  685MOL0     C92355   7.052  10.093   3.531 -0.8771  0.4156 -1.1453
  685MOL0     C92356   6.980   9.991   3.437 -0.0368  0.0093  0.1492
  685MOL0     N92357   6.942   9.869   3.507 -0.6173  0.9689  0.6343
  685MOL0     C92358   7.015   9.750   3.493 -0.6686 -0.1311 -0.3994
  685MOL0     C92359   6.945   9.660   3.568  0.4727 -0.5915 -0.3735
  685MOL0     C92360   6.988   9.527   3.606 -0.1987 -0.2352 -0.3435
  685MOL0     C92361   7.140   9.525   3.627 -0.6072  0.1375 -0.0359
  685MOL0     C92362   7.189   9.388   3.682  0.3022  0.0300 -1.2328
  685MOL0     C92363   7.339   9.402   3.687 -0.0967  1.1515  0.1590
  685MOL0     O92364   7.398   9.330   3.801 -0.0953  0.1078 -0.0715
  685MOL0     C92365   7.533   9.301   3.802  0.8251  1.0869 -0.6580
  685MOL0     C92366   7.624   9.380   3.870  0.6870 -0.2249  0.0601
  685MOL0     C92367   7.759   9.347   3.893  0.2021  0.6847  0.6762
  685MOL0     C92368   7.843   9.453   3.954 -1.6788 -0.6332  0.9813
  685MOL0     C92369   7.810   9.233   3.822  0.0923  0.1130 -0.1282
  685MOL0     C92370   7.951   9.200   3.810 -0.4480 -0.4672 -0.5621
  685MOL0     O92371   8.035   9.244   3.908  0.8512 -0.0845  0.0133
  685MOL0     C92372   8.168   9.206   3.910  0.4484  0.8454  0.2692
  685MOL0     C92373   8.209   9.073   3.893 -0.6170  0.2665 -0.0352
  685MOL0     C92374   8.350   9.043   3.892  0.8530  0.1245  0.0954
  685MOL0     C92375   8.452   9.142   3.912 -0.0335  0.0307  0.0906
  685MOL0     O92376   8.578   9.091   3.923 -0.2047  0.3299 -0.3628
  685MOL0     C92377   8.687   9.187   3.944  0.1924  0.4543 -0.6373
  685MOL0     C92378   8.823   9.126   3.967  0.5411  0.7848 -0.7848
  685MOL0     C92379   8.923   9.224   3.921 -1.0608 -0.0919  0.0766
  685MOL0     C92380   9.064   9.176   3.973 -0.1993  0.3115 -0.4740
  685MOL0     C92381   9.174   9.280   3.969 -0.3881 -0.0895 -0.0646
  685MOL0     C92382   9.249   9.280   3.842  0.6111 -0.0388  0.7139
  685MOL0     C92383   9.367   9.379   3.823  0.1553  0.1260  0.4963
  685MOL0     C92384   9.402   9.398   3.680  0.1640 -0.1853  0.9528
  685MOL0    Cl92385   9.460   9.234   3.618  0.5830 -0.2872  0.2487
  685MOL0     C92386   8.407   9.273   3.927 -0.1437 -1.1691 -0.3980
  685MOL0     C92387   8.268   9.304   3.925 -0.9177  0.9893  0.5786
  685MOL0     O92388   7.983   9.125   3.718  0.0149  0.3663 -0.8252
  685MOL0     C92389   7.718   9.149   3.757  0.6914  0.3004 -0.4325
  685MOL0     C92390   7.578   9.181   3.749 -0.2011  0.5408 -1.0175
  685MOL0     N92391   6.841   9.728   3.625  0.2623  0.3081 -0.1168
  685MOL0     N92392   6.837   9.853   3.588  0.4705  0.2863  0.4827
  685MOL0     C92393   7.875  10.439   3.865 -0.4089 -0.1131  0.0883
  685MOL0     C92394   7.962  10.508   3.777  0.6606 -0.5831 -0.7864
  685MOL0     C92395   8.096  10.684   3.361  0.7577  0.1465 -0.4624
  685MOL0     C92396   8.232  10.680   3.401 -0.1672  0.4511  0.6710
  685MOL0     C92397   8.329  10.739   3.325  0.2893  1.0235  0.7147
  685MOL0     C92398   8.295  10.803   3.196 -0.0709  0.7177 -0.4201
  685MOL0     O92399   8.392  10.862   3.110 -0.1896  0.0281  0.2005
  685MOL0     C92400   8.526  10.875   3.159  0.9286  0.3754  0.4467
  685MOL0     C92401   8.518  10.990   3.259 -0.2866  0.5022 -0.4443
  685MOL0     C92402   8.484  11.122   3.199 -0.1051 -0.1173  0.2857
  685MOL0     C92403   8.562  11.245   3.242  0.6727  0.3414  0.6631
  685MOL0     C92404   8.688  11.256   3.170 -0.7178 -0.1314  0.0625
  685MOL0     C92405   8.800  11.273   3.127  0.6270 -0.3151 -0.7093
  685MOL0     C92406   8.159  10.807   3.162  0.4851  0.5076 -0.8534
  685MOL0     C92407   8.069  10.747   3.249 -0.3428 -0.0321  0.7232
  685MOL0     H92408   7.752  10.642   3.559 -0.7907 -2.5267  0.0103
  685MOL0     H92409   7.582  10.523   3.713 -0.2352 -1.4016 -1.4325
  685MOL0     H92410   7.742  10.214   3.986 -0.2934  1.4503  1.7463
  685MOL0     H92411   7.566  10.196   4.006  0.1191  0.0212 -0.4997
  685MOL0     H92412   7.717  10.191   3.743  2.3534  0.5218  3.2965
  685MOL0     H92413   7.630  10.064   3.830 -0.2497  0.1698  2.0248
  685MOL0     H92414   7.444  10.284   3.803  1.0747  0.8223  0.3582
  685MOL0     H92415   7.507  10.259   3.645  3.0382 -0.7513  0.8086
  685MOL0     H92416   7.456  10.030   3.634  2.2409  1.6171 -0.1161
  685MOL0     H92417   7.373  10.018   3.788 -1.9894  0.0445 -1.4819
  685MOL0     H92418   7.216  10.168   3.750 -1.1204 -1.4673 -0.2127
  685MOL0     H92419   7.281  10.238   3.597  4.1612 -0.4718  0.7860
  685MOL0     H92420   7.249   9.999   3.496 -2.0049  1.2395 -2.7146
  685MOL0     H92421   7.166   9.955   3.644  0.6331  0.4108  1.2400
  685MOL0     H92422   6.991  10.105   3.621 -3.9647 -1.4997 -2.8064
  685MOL0     H92423   7.056  10.185   3.471 -0.3101  1.5778  0.5976
  685MOL0     H92424   7.042   9.961   3.352  0.6334  1.2818  0.1698
  685MOL0     H92425   6.895  10.039   3.388 -0.7108 -2.0425 -0.8022
  685MOL0     H92426   7.105   9.733   3.436  1.1402 -2.8183  2.8333
  685MOL0     H92427   6.945   9.496   3.702  2.5262  1.0313  1.4318
  685MOL0     H92428   6.960   9.457   3.527  0.9939 -2.8743  1.4102
  685MOL0     H92429   7.175   9.601   3.697 -0.5478 -0.1606  0.2630
  685MOL0     H92430   7.178   9.531   3.524 -4.1197 -0.9054 -1.5237
  685MOL0     H92431   7.163   9.305   3.615  0.2748  1.4798 -3.1046
  685MOL0     H92432   7.133   9.381   3.776 -0.2009  5.0064 -0.9234
  685MOL0     H92433   7.368   9.506   3.705  0.6671  1.0941 -0.6576
  685MOL0     H92434   7.378   9.365   3.592  1.4034  1.2632  0.7080
  685MOL0     H92435   7.588   9.470   3.918 -2.2464 -0.1812 -1.9460
  685MOL0     H92436   7.890   9.419   4.047  1.1113  0.2664  0.0273
  685MOL0     H92437   7.929   9.479   3.891  1.7798 -2.4715  4.4532
  685MOL0     H92438   7.787   9.545   3.971  0.1775  0.7954 -0.1907
  685MOL0     H92439   8.134   8.995   3.883  1.1587 -1.1684 -5.2808
  685MOL0     H92440   8.376   8.937   3.891 -1.5059 -0.4970 -1.0092
  685MOL0     H92441   8.689   9.272   3.874  1.1367  1.8305  0.9936
  685MOL0     H92442   8.655   9.240   4.034 -0.1229 -0.9124  0.0833
  685MOL0     H92443   8.825   9.121   4.077 -3.0944 -0.8410 -0.6372
  685MOL0     H92444   8.843   9.029   3.920  1.4128  0.6204 -0.1033
  685MOL0     H92445   8.895   9.314   3.977  1.7138 -0.6502  2.5859
  685MOL0     H92446   8.919   9.221   3.812 -1.1028 -1.1595  0.1001
  685MOL0     H92447   9.062   9.138   4.076 -2.8197 -1.2067 -0.9946
  685MOL0     H92448   9.104   9.093   3.915  2.1756 -0.5785  2.1835
  685MOL0     H92449   9.242   9.261   4.052 -1.1972 -1.5637  0.2870
  685MOL0     H92450   9.138   9.383   3.983  5.1087  2.2987 -0.7134
  685MOL0     H92451   9.301   9.184   3.840 -0.3867 -0.5943  0.7979
  685MOL0     H92452   9.181   9.300   3.758  1.3796  3.8089  0.8017
  685MOL0     H92453   9.456   9.340   3.874  1.4176  0.3019 -1.4880
  685MOL0     H92454   9.336   9.470   3.876  0.9546  0.8075 -0.1792
  685MOL0     H92455   9.486   9.467   3.689 -2.4588  3.3052  0.6242
  685MOL0     H92456   9.320   9.439   3.620  0.7490  1.1658  1.0584
  685MOL0     H92457   8.485   9.346   3.943  0.2852 -2.1719  2.8027
  685MOL0     H92458   8.231   9.406   3.937  2.3065  2.2205  1.0071
  685MOL0     H92459   7.763   9.062   3.710  0.5740 -0.1688  0.2967
  685MOL0     H92460   7.503   9.122   3.697 -1.9742  2.4340 -0.7398
  685MOL0     H92461   7.913  10.373   3.943 -0.9780 -0.5661 -0.0055
  685MOL0     H92462   8.068  10.500   3.795  0.2147 -1.0052  2.0481
  685MOL0     H92463   8.258  10.616   3.485 -1.2186 -2.1976 -0.8760
  685MOL0     H92464   8.430  10.737   3.364  0.8227 -1.5725 -0.6059
  685MOL0     H92465   8.555  10.778   3.202 -2.3225 -0.8463  0.1646
  685MOL0     H92466   8.595  10.915   3.084  0.5499  2.6726  1.2424
  685MOL0     H92467   8.618  11.000   3.304  0.2858  0.7791 -1.7525
  685MOL0     H92468   8.441  10.978   3.336 -0.4419  0.6950 -0.5664
  685MOL0     H92469   8.384  11.149   3.232 -0.4134 -0.4083 -0.3946
  685MOL0     H92470   8.475  11.115   3.090 -2.8625  1.4535  0.3222
  685MOL0     H92471   8.571  11.243   3.351 -0.1895 -0.3655  0.7292
  685MOL0     H92472   8.499  11.329   3.212 -4.5813 -2.8582  1.4870
  685MOL0     H92473   8.901  11.294   3.099  1.0081 -1.1308 -0.0075
  685MOL0     H92474   8.128  10.849   3.066  1.9642 -0.9716 -2.0522
  685MOL0     H92475   7.965  10.741   3.218 -0.2151 -1.7125  0.5439
  686MOL0     O92476   7.586   8.222   5.390  0.3566 -0.2224 -0.1669
  686MOL0     C92477   7.506   8.276   5.470  0.5206 -0.9590  0.2622
  686MOL0     O92478   7.366   8.270   5.473  0.6916 -0.4867 -1.3139
  686MOL0     C92479   7.304   8.217   5.369  0.8642  0.1693  0.6109
  686MOL0     C92480   7.218   8.116   5.379 -0.4361  0.5929 -0.2413
  686MOL0     C92481   7.157   8.051   5.263 -0.0487  0.5073 -0.4563
  686MOL0     C92482   7.181   8.092   5.136 -0.1222 -0.9072  0.5272
  686MOL0     O92483   7.110   8.045   5.027 -0.4838 -0.5935  0.1194
  686MOL0     C92484   7.166   8.050   4.896  0.0506  0.6111 -0.2581
  686MOL0     C92485   7.080   7.967   4.792  0.4184 -0.2223  0.0810
  686MOL0     C92486   6.955   8.042   4.744  0.5385 -0.5265 -0.4772
  686MOL0     C92487   6.932   8.008   4.602 -0.1110 -0.7230 -0.5771
  686MOL0     C92488   6.802   8.067   4.567 -0.1402 -0.2101  0.7540
  686MOL0     C92489   6.797   8.220   4.539  0.1492 -0.9388  0.2377
  686MOL0     C92490   6.657   8.245   4.481  0.0938 -0.7695 -0.2422
  686MOL0     C92491   6.640   8.396   4.451  0.0047  0.7543 -0.7873
  686MOL0     N92492   6.585   8.474   4.559  0.6549  0.4049 -1.0326
  686MOL0     C92493   6.651   8.497   4.673 -0.2293  0.2030  0.0302
  686MOL0     C92494   6.573   8.591   4.733 -0.3375 -0.4756 -1.4542
  686MOL0     C92495   6.592   8.666   4.864 -0.8648  1.1639  0.3622
  686MOL0     C92496   6.740   8.697   4.893  0.2570  0.3588  0.2098
  686MOL0     C92497   6.804   8.763   4.779  0.0376 -0.4752 -0.3130
  686MOL0     C92498   6.948   8.798   4.822 -0.1420  0.2349  0.6563
  686MOL0     O92499   7.019   8.674   4.857 -0.1672  0.1426 -0.3973
  686MOL0     C92500   7.154   8.679   4.892  0.1064  0.6655 -0.8101
  686MOL0     C92501   7.219   8.791   4.930  0.3143  0.0378 -0.2280
  686MOL0     C92502   7.360   8.787   4.948  0.0430 -0.5478 -0.9319
  686MOL0     C92503   7.416   8.920   4.985  0.0721  0.3286 -0.8385
  686MOL0     C92504   7.429   8.667   4.940  0.2097  0.7655  0.5932
  686MOL0     C92505   7.579   8.643   4.956  0.0266  0.9582  0.4132
  686MOL0     O92506   7.632   8.522   4.920 -0.2526  0.0206 -0.5657
  686MOL0     C92507   7.752   8.490   4.972  0.1739  0.2282 -0.7931
  686MOL0     C92508   7.867   8.556   4.923  0.1732  0.0460 -0.5648
  686MOL0     C92509   7.994   8.527   4.994  0.9909 -0.8384 -0.5290
  686MOL0     C92510   8.004   8.417   5.079 -0.0713 -0.3659  0.2221
  686MOL0     O92511   8.130   8.382   5.126  0.3281  0.0685  0.3746
  686MOL0     C92512   8.132   8.379   5.268  0.6399  0.2804  0.1248
  686MOL0     C92513   8.283   8.379   5.312 -0.7522 -0.2842 -0.3117
  686MOL0     C92514   8.295   8.399   5.461  0.3980 -0.6132 -0.4257
  686MOL0     C92515   8.204   8.310   5.553  0.6936 -0.0637 -1.2539
  686MOL0     C92516   8.286   8.184   5.587 -0.3411  0.1011 -0.0417
  686MOL0     C92517   8.225   8.084   5.679 -0.0092 -0.3103 -0.6839
  686MOL0     C92518   8.323   7.970   5.691 -0.1555  0.0473 -0.4631
  686MOL0     C92519   8.274   7.878   5.794  0.0436 -0.0458  0.2008
  686MOL0    Cl92520   8.131   7.773   5.741 -0.1635 -0.5550 -0.5125
  686MOL0     C92521   7.886   8.338   5.102 -1.0734 -0.0891  0.2691
  686MOL0     C92522   7.756   8.387   5.063 -0.9738 -0.2077 -0.0582
  686MOL0     O92523   7.652   8.734   4.986  0.3297  0.1729 -0.3247
  686MOL0     C92524   7.353   8.557   4.915  0.2099  0.3407  0.1459
  686MOL0     C92525   7.216   8.560   4.898  0.4685 -0.3450 -0.5105
  686MOL0     N92526   6.468   8.620   4.649  1.0569 -0.2730 -1.2195
  686MOL0     N92527   6.473   8.545   4.545 -0.4922  0.5341  0.4349
  686MOL0     C92528   7.280   8.193   5.123  0.0545 -0.4127 -0.2449
  686MOL0     C92529   7.333   8.254   5.238  1.1859  0.7563  0.4099
  686MOL0     C92530   7.566   8.349   5.591  0.6058  0.4500 -0.1676
  686MOL0     C92531   7.706   8.359   5.598 -0.5678 -0.5052  1.1977
  686MOL0     C92532   7.766   8.423   5.707  0.1114  0.0328  0.4063
  686MOL0     C92533   7.693   8.469   5.824 -0.2545 -0.0686  0.8888
  686MOL0     O92534   7.758   8.535   5.925 -0.6209 -0.7133 -0.1392
  686MOL0     C92535   7.698   8.511   6.058 -0.6591  0.0009 -0.6341
  686MOL0     C92536   7.778   8.591   6.167 -0.4753  0.3592 -0.1363
  686MOL0     C92537   7.774   8.746   6.140 -0.8979 -0.2310 -0.5498
  686MOL0     C92538   7.795   8.819   6.275  0.7089 -1.0020  1.0439
  686MOL0     C92539   7.800   8.964   6.248 -1.0890 -0.3878 -0.0854
  686MOL0     C92540   7.821   9.073   6.210  0.2387 -0.1916 -0.0050
  686MOL0     C92541   7.555   8.438   5.816 -0.1408 -0.3207  0.5122
  686MOL0     C92542   7.492   8.382   5.707 -0.0112  0.5278 -0.0246
  686MOL0     H92543   7.199   8.086   5.481 -1.0338  1.6449 -0.0241
  686MOL0     H92544   7.102   7.959   5.278 -1.1021  1.3746  1.3484
  686MOL0     H92545   7.171   8.157   4.875 -0.6349  1.0421  1.6215
  686MOL0     H92546   7.270   8.019   4.883 -0.2527  0.2676 -2.1524
  686MOL0     H92547   7.144   7.951   4.705  0.5767  0.9296 -0.0245
  686MOL0     H92548   7.046   7.870   4.829  1.7569 -0.6407  0.2522
  686MOL0     H92549   6.872   8.002   4.804  0.9492  1.7005  1.7267
  686MOL0     H92550   6.967   8.150   4.755 -2.2464 -0.3025  1.5572
  686MOL0     H92551   7.018   8.040   4.543 -0.4923  2.6557  0.4784
  686MOL0     H92552   6.923   7.899   4.601 -3.4346 -0.5645 -2.0134
  686MOL0     H92553   6.779   8.017   4.472 -1.5864  0.1528  0.8909
  686MOL0     H92554   6.726   8.031   4.636 -1.0233  3.0468  1.6320
  686MOL0     H92555   6.799   8.271   4.635 -1.5146 -2.8805  1.3778
  686MOL0     H92556   6.868   8.264   4.468 -1.4632  1.7798  0.1750
  686MOL0     H92557   6.642   8.187   4.389 -0.4862  1.0768 -1.3647
  686MOL0     H92558   6.593   8.213   4.564  0.9643  1.9320  1.5943
  686MOL0     H92559   6.576   8.405   4.363  1.4492 -0.6916 -2.0519
  686MOL0     H92560   6.734   8.442   4.420 -1.2422  3.2591 -1.0744
  686MOL0     H92561   6.749   8.460   4.702  0.2613  1.0709 -0.4495
  686MOL0     H92562   6.540   8.762   4.870 -0.6463  1.4130 -1.1687
  686MOL0     H92563   6.568   8.586   4.934 -0.3046 -1.6519 -2.4398
  686MOL0     H92564   6.772   8.593   4.904 -4.1759 -1.1674  0.7041
  686MOL0     H92565   6.755   8.753   4.986 -0.1205  0.9891 -0.1036
  686MOL0     H92566   6.748   8.855   4.758  0.9417  0.8581  2.5903
  686MOL0     H92567   6.822   8.707   4.687  2.6833 -1.2877  0.6153
  686MOL0     H92568   6.939   8.859   4.913 -1.2452 -0.8947  1.3407
  686MOL0     H92569   6.991   8.853   4.738  1.2539 -0.7894  0.6785
  686MOL0     H92570   7.172   8.888   4.939  1.4865  0.4368  2.6757
  686MOL0     H92571   7.506   8.925   4.923  2.6233 -0.6932  2.4454
  686MOL0     H92572   7.358   9.013   4.976 -1.2119 -0.2554  0.8763
  686MOL0     H92573   7.455   8.920   5.087  0.0557  0.7808 -0.8307
  686MOL0     H92574   7.855   8.617   4.835  1.4485  0.4531 -0.4685
  686MOL0     H92575   8.081   8.587   4.972 -0.8679  2.5122  0.5007
  686MOL0     H92576   8.093   8.476   5.298  2.7131  0.9583  0.7924
  686MOL0     H92577   8.082   8.293   5.313  2.8924 -0.3320  1.6482
  686MOL0     H92578   8.322   8.277   5.301  2.5685  0.9371 -0.8627
  686MOL0     H92579   8.347   8.453   5.264 -0.0604  1.2714  2.7382
  686MOL0     H92580   8.271   8.504   5.477 -0.0021 -1.1680  4.3872
  686MOL0     H92581   8.401   8.394   5.489 -0.2361 -1.8891  2.0761
  686MOL0     H92582   8.190   8.354   5.652  0.6335 -2.4930 -0.1120
  686MOL0     H92583   8.100   8.311   5.520  0.8990 -0.6646 -1.9348
  686MOL0     H92584   8.385   8.215   5.620 -0.2609 -0.0214 -0.1699
  686MOL0     H92585   8.307   8.137   5.491 -1.7183 -0.0760 -0.2783
  686MOL0     H92586   8.205   8.130   5.776 -1.5401 -1.1396 -0.5793
  686MOL0     H92587   8.130   8.043   5.643 -0.5307  2.5324 -2.8979
  686MOL0     H92588   8.428   7.997   5.705 -0.3086  2.4007 -3.0663
  686MOL0     H92589   8.310   7.925   5.592  0.0545  3.6462 -2.2897
  686MOL0     H92590   8.252   7.921   5.892 -0.6642 -1.0110  0.4881
  686MOL0     H92591   8.353   7.809   5.827 -0.0719  0.6120  2.0049
  686MOL0     H92592   7.900   8.244   5.153  1.3350  1.2647  2.3095
  686MOL0     H92593   7.668   8.349   5.115  0.2433 -1.9777  0.8281
  686MOL0     H92594   7.398   8.459   4.909  0.7695  0.5313  1.0372
  686MOL0     H92595   7.149   8.475   4.884  0.5717 -0.2530 -1.7067
  686MOL0     H92596   7.306   8.223   5.023  0.4500  0.4216  0.0996
  686MOL0     H92597   7.403   8.336   5.226 -0.8780  2.4842 -0.5159
  686MOL0     H92598   7.765   8.329   5.512  0.9135 -1.5496  2.5129
  686MOL0     H92599   7.873   8.436   5.712  0.1192 -0.2312  1.0556
  686MOL0     H92600   7.594   8.544   6.052 -0.5441  0.7605  0.9939
  686MOL0     H92601   7.696   8.404   6.080 -4.0883 -0.1580 -1.2753
  686MOL0     H92602   7.881   8.556   6.175 -0.5190  0.5482  1.5172
  686MOL0     H92603   7.733   8.572   6.264  3.7147  0.1827  1.9962
  686MOL0     H92604   7.679   8.785   6.100 -0.9708  0.6660  0.4480
  686MOL0     H92605   7.857   8.776   6.075  0.9459  1.0044  2.1980
  686MOL0     H92606   7.890   8.780   6.312  1.1379 -2.7692 -1.6605
  686MOL0     H92607   7.707   8.797   6.336 -0.5677  1.1587  0.1025
  686MOL0     H92608   7.850   9.164   6.163  3.8703 -0.0669  2.0134
  686MOL0     H92609   7.491   8.468   5.898  0.3259  0.2141  0.6854
  686MOL0     H92610   7.389   8.348   5.706  0.4127 -0.8809  0.6325
  687MOL0     O92611   2.772   7.039   1.841  0.6650  0.1087  0.1143
  687MOL0     C92612   2.838   7.059   1.739 -0.1991  0.1813 -0.6374
  687MOL0     O92613   2.793   7.045   1.613 -0.8718 -0.3671 -0.3863
  687MOL0     C92614   2.666   7.016   1.593 -0.1158  0.7989  0.2535
  687MOL0     C92615   2.575   7.116   1.554 -0.5412 -0.4337  1.0637
  687MOL0     C92616   2.441   7.081   1.527  0.8788 -0.2906  0.1872
  687MOL0     C92617   2.406   6.946   1.547 -0.1162 -1.3474  0.4601
  687MOL0     O92618   2.281   6.911   1.498  0.1617  0.6224  0.0783
  687MOL0     C92619   2.164   6.997   1.502 -0.0715 -0.1977  0.6342
  687MOL0     C92620   2.026   6.931   1.481  0.9387  0.0591 -0.5250
  687MOL0     C92621   1.920   7.037   1.531  0.1161  0.2195  0.1601
  687MOL0     C92622   1.773   6.982   1.510 -0.1797  0.8698  0.7726
  687MOL0     C92623   1.668   7.033   1.608  0.2636  0.0362  0.2266
  687MOL0     C92624   1.522   6.983   1.568  0.4559 -0.4537 -0.1958
  687MOL0     C92625   1.421   7.039   1.666 -0.4615  0.0158  0.8468
  687MOL0     C92626   1.279   7.019   1.619  0.0383 -0.3715  0.9592
  687MOL0     N92627   1.236   6.874   1.594  0.4727 -0.2787  0.1509
  687MOL0     C92628   1.174   6.793   1.691  0.3773  0.8380  0.1755
  687MOL0     C92629   1.150   6.668   1.639  0.4683  1.2260 -0.8288
  687MOL0     C92630   1.089   6.549   1.702  0.4024 -0.1234  0.0440
  687MOL0     C92631   0.953   6.535   1.625  0.1213  0.0486 -0.9596
  687MOL0     C92632   0.871   6.407   1.652  0.2875  0.1871  0.4114
  687MOL0     C92633   0.876   6.353   1.797  0.6582 -0.0992 -0.4808
  687MOL0     O92634   0.789   6.444   1.865 -0.4451 -0.6075 -0.0121
  687MOL0     C92635   0.761   6.427   2.003 -1.1266 -0.9137  0.2518
  687MOL0     C92636   0.821   6.326   2.084 -1.0982 -0.9063 -0.2520
  687MOL0     C92637   0.792   6.317   2.218  0.4955  0.6717 -0.4309
  687MOL0     C92638   0.843   6.200   2.284 -0.4265  0.0043  0.7738
  687MOL0     C92639   0.708   6.415   2.271  0.9537  0.2823 -0.2540
  687MOL0     C92640   0.659   6.406   2.405  0.3355  0.2121 -0.0581
  687MOL0     O92641   0.540   6.466   2.427  0.6127 -0.4951  0.0016
  687MOL0     C92642   0.482   6.464   2.551  0.1121 -0.0524 -0.5357
  687MOL0     C92643   0.380   6.377   2.567  0.1012 -0.2051  0.0725
  687MOL0     C92644   0.332   6.340   2.694 -0.5770 -0.0129  0.3332
  687MOL0     C92645   0.374   6.417   2.812  1.1788  0.5093 -0.0336
  687MOL0     O92646   0.330   6.371   2.933  0.0405  0.4254 -0.5348
  687MOL0     C92647   0.241   6.468   2.982 -0.0940 -0.6040 -0.8855
  687MOL0     C92648   0.156   6.402   3.096 -0.8548 -0.5920 -0.5844
  687MOL0     C92649   0.078   6.514   3.161  0.2249  0.3912 -0.6526
  687MOL0     C92650  -0.036   6.452   3.251 -1.2101 -0.1603  0.1225
  687MOL0     C92651  -0.105   6.559   3.328 -0.4821 -0.3530  1.6078
  687MOL0     C92652  -0.208   6.485   3.416  0.0406 -0.6301  0.0286
  687MOL0     C92653  -0.304   6.588   3.495  0.5331  0.0863 -0.2927
  687MOL0     C92654  -0.416   6.526   3.587 -0.5487 -0.2708 -0.4573
  687MOL0    Cl92655  -0.516   6.657   3.657 -0.6300  0.0572  0.1057
  687MOL0     C92656   0.475   6.503   2.796 -0.2094  0.1751 -0.1054
  687MOL0     C92657   0.525   6.534   2.666 -0.1156 -0.2614  0.3359
  687MOL0     O92658   0.727   6.355   2.494 -0.3417 -0.2515  0.3164
  687MOL0     C92659   0.659   6.525   2.200 -0.1837 -0.4192 -0.4681
  687MOL0     C92660   0.691   6.528   2.062 -0.2171  0.2402  0.7684
  687MOL0     N92661   1.195   6.680   1.511  0.6086 -0.7190  0.1852
  687MOL0     N92662   1.247   6.797   1.486 -0.0025  0.0764 -0.2971
  687MOL0     C92663   2.494   6.844   1.571 -0.3868 -0.6446  0.6388
  687MOL0     C92664   2.622   6.879   1.606  0.0764 -0.5692  0.5022
  687MOL0     C92665   2.978   7.100   1.750 -0.1496  0.7118  0.0993
  687MOL0     C92666   3.054   7.085   1.879 -0.9739 -0.3388 -0.0021
  687MOL0     C92667   3.182   7.126   1.880 -0.1835 -0.1843  0.0365
  687MOL0     C92668   3.244   7.166   1.761  0.2418 -0.0418 -0.6930
  687MOL0     O92669   3.377   7.184   1.780 -0.6309 -0.4122 -0.1915
  687MOL0     C92670   3.463   7.133   1.675  0.2160  0.9084 -0.8000
  687MOL0     C92671   3.532   7.256   1.606  0.6820  0.9941  0.1218
  687MOL0     C92672   3.567   7.366   1.710  0.4816 -0.0534 -0.4489
  687MOL0     C92673   3.677   7.314   1.806  0.8038  1.3281  0.2590
  687MOL0     C92674   3.783   7.239   1.747 -0.5426 -0.4553 -0.2129
  687MOL0     C92675   3.859   7.182   1.678  0.1234  0.8437 -0.0144
  687MOL0     C92676   3.177   7.179   1.639  0.2997 -0.5584 -0.2230
  687MOL0     C92677   3.046   7.153   1.638 -0.0876 -0.2718 -0.0661
  687MOL0     H92678   2.606   7.220   1.554  0.5972 -0.7289 -0.8436
  687MOL0     H92679   2.377   7.153   1.476  0.3571  0.2757  1.5892
  687MOL0     H92680   2.164   7.044   1.601 -1.0033 -1.1659  1.1107
  687MOL0     H92681   2.174   7.077   1.428 -1.0261 -0.4499  0.2167
  687MOL0     H92682   2.003   6.895   1.380 -3.0511 -1.4162  0.7197
  687MOL0     H92683   2.015   6.847   1.550 -1.2360  2.1031  1.8372
  687MOL0     H92684   1.938   7.039   1.639  0.0099 -2.0415  0.2569
  687MOL0     H92685   1.938   7.138   1.492 -0.8751  0.0881 -0.6847
  687MOL0     H92686   1.744   7.002   1.406  3.1317 -1.8710 -0.8850
  687MOL0     H92687   1.779   6.874   1.520 -2.8015  0.6500  0.5901
  687MOL0     H92688   1.701   6.987   1.702  0.6991  1.0076  0.5652
  687MOL0     H92689   1.672   7.141   1.621  2.3388 -0.2510  2.8753
  687MOL0     H92690   1.495   7.021   1.469 -0.0427 -2.0842 -0.7116
  687MOL0     H92691   1.525   6.875   1.554 -3.4122 -0.7516  0.2602
  687MOL0     H92692   1.441   6.990   1.762 -0.8833 -1.4735  0.1894
  687MOL0     H92693   1.424   7.147   1.681  1.4011  0.1692 -0.2328
  687MOL0     H92694   1.260   7.072   1.525 -3.7523 -2.0988  0.5813
  687MOL0     H92695   1.221   7.062   1.701  0.9250  1.3986  0.7217
  687MOL0     H92696   1.151   6.808   1.796 -0.0076  0.0630  0.2066
  687MOL0     H92697   1.154   6.461   1.696  0.4292 -0.0596 -0.6102
  687MOL0     H92698   1.062   6.574   1.805 -0.5443  3.9231 -1.0400
  687MOL0     H92699   0.967   6.536   1.517 -0.9657  1.1251 -1.1120
  687MOL0     H92700   0.883   6.615   1.651  1.8787  1.9251 -1.6726
  687MOL0     H92701   0.917   6.327   1.593 -0.3345 -0.1678  0.3946
  687MOL0     H92702   0.764   6.422   1.633  0.2979  2.8127  1.9237
  687MOL0     H92703   0.974   6.352   1.846  1.3023 -2.2816 -1.6853
  687MOL0     H92704   0.835   6.251   1.804  1.6505 -0.5530 -1.2227
  687MOL0     H92705   0.899   6.264   2.041  0.7552  0.2264  1.3164
  687MOL0     H92706   0.931   6.217   2.347  0.8556 -0.3501 -0.8722
  687MOL0     H92707   0.762   6.145   2.332  0.7857 -2.0529  0.5839
  687MOL0     H92708   0.863   6.134   2.200 -3.5478  2.5972 -2.3208
  687MOL0     H92709   0.358   6.318   2.479  2.7069  0.4468 -1.1052
  687MOL0     H92710   0.266   6.254   2.703 -1.4303  0.6666  0.7847
  687MOL0     H92711   0.301   6.549   3.026  2.0005 -2.1985 -0.6575
  687MOL0     H92712   0.171   6.504   2.906 -1.2981 -1.4825 -0.2220
  687MOL0     H92713   0.087   6.328   3.054 -0.6292  0.9117 -3.9230
  687MOL0     H92714   0.222   6.345   3.161 -1.1969 -0.8394 -0.4485
  687MOL0     H92715   0.045   6.584   3.083  2.1863  1.5477 -0.5018
  687MOL0     H92716   0.149   6.566   3.226  1.0768  0.0539 -1.2897
  687MOL0     H92717  -0.108   6.395   3.192  1.6242 -3.0165 -0.8899
  687MOL0     H92718   0.016   6.388   3.324 -0.5166  0.6808  0.3842
  687MOL0     H92719  -0.149   6.629   3.255 -1.8256 -1.9210  0.8634
  687MOL0     H92720  -0.036   6.613   3.394 -0.0308 -1.0798  1.7344
  687MOL0     H92721  -0.266   6.420   3.351  0.1503 -0.1221 -0.5863
  687MOL0     H92722  -0.157   6.428   3.495 -0.0587  1.3120  1.5975
  687MOL0     H92723  -0.354   6.657   3.427 -2.4472 -1.8467 -0.2450
  687MOL0     H92724  -0.236   6.642   3.562 -0.3007  1.6738 -0.7000
  687MOL0     H92725  -0.368   6.471   3.668  0.2913  2.5967  1.1190
  687MOL0     H92726  -0.479   6.462   3.525  0.0006 -2.8586  1.4816
  687MOL0     H92727   0.526   6.539   2.885 -0.8102 -0.6059  0.5793
  687MOL0     H92728   0.606   6.606   2.667 -1.0277  0.7774  1.5085
  687MOL0     H92729   0.605   6.606   2.247 -2.8670 -1.7899 -0.9785
  687MOL0     H92730   0.657   6.614   2.004  0.6673  0.5162  0.6566
  687MOL0     H92731   2.469   6.738   1.563 -0.3375 -0.6557  0.6316
  687MOL0     H92732   2.681   6.794   1.640 -4.8067 -4.2379  0.9248
  687MOL0     H92733   3.002   7.024   1.951 -0.0538 -2.3399 -0.9415
  687MOL0     H92734   3.244   7.116   1.969 -0.6134  1.4983  0.5645
  687MOL0     H92735   3.536   7.068   1.724  0.7342  3.1688  1.6599
  687MOL0     H92736   3.414   7.074   1.597  1.1784 -0.2155 -0.5930
  687MOL0     H92737   3.454   7.292   1.539 -0.0771  0.2011  0.5508
  687MOL0     H92738   3.618   7.224   1.546  2.0827  1.1821  1.9238
  687MOL0     H92739   3.489   7.389   1.783  1.5697  1.1348  0.3817
  687MOL0     H92740   3.589   7.460   1.659 -2.4784  0.6554 -0.6065
  687MOL0     H92741   3.638   7.243   1.880  2.5998  0.7973  0.7601
  687MOL0     H92742   3.728   7.383   1.874  0.5371  0.8675  0.9383
  687MOL0     H92743   3.932   7.134   1.615 -0.4304 -0.2473  0.1453
  687MOL0     H92744   3.227   7.216   1.550 -0.1593  1.9955  0.4867
  687MOL0     H92745   2.991   7.172   1.546  1.3102  1.2778 -0.6346
  688MOL0     O92746   4.504   5.912   4.455 -0.2293  0.3890  0.3516
  688MOL0     C92747   4.561   5.980   4.539 -0.5609  0.4689 -0.0008
  688MOL0     O92748   4.497   6.058   4.627 -0.4373 -0.6578  0.4642
  688MOL0     C92749   4.363   6.082   4.602  0.1593  0.5252 -0.5725
  688MOL0     C92750   4.266   5.991   4.634 -0.0308 -0.1297  0.0092
  688MOL0     C92751   4.131   6.014   4.634 -0.4247  0.6792  0.2300
  688MOL0     C92752   4.088   6.136   4.585  0.1334  0.4244  0.2919
  688MOL0     O92753   3.959   6.182   4.601  0.6012 -0.0496 -0.0419
  688MOL0     C92754   3.847   6.098   4.567 -0.0287  0.0340 -0.2894
  688MOL0     C92755   3.766   6.186   4.468  0.4056 -0.1575  0.0459
  688MOL0     C92756   3.700   6.309   4.541 -0.1570  0.0908  0.3835
  688MOL0     C92757   3.786   6.434   4.562 -0.9436  0.0676  0.1791
  688MOL0     C92758   3.705   6.557   4.561  0.3319 -0.0518  0.8474
  688MOL0     C92759   3.667   6.616   4.413 -0.3718  0.1396 -0.3876
  688MOL0     C92760   3.560   6.728   4.412 -0.2146 -0.0986  0.3534
  688MOL0     C92761   3.420   6.659   4.399  0.3358 -0.5281 -0.3513
  688MOL0     N92762   3.305   6.752   4.409  0.1436  0.0320 -0.2474
  688MOL0     C92763   3.273   6.863   4.331  0.9345 -0.3493 -0.4002
  688MOL0     C92764   3.147   6.899   4.383 -0.8168 -0.0309  1.1573
  688MOL0     C92765   3.062   7.018   4.332 -0.5163 -0.0015  0.3177
  688MOL0     C92766   2.999   6.975   4.200  0.2540 -0.5084  0.0925
  688MOL0     C92767   2.909   7.084   4.140 -0.9578  0.2920  0.3841
  688MOL0     C92768   2.849   7.032   4.005 -0.4097 -0.0857  1.0462
  688MOL0     O92769   2.726   7.108   3.981  0.0339 -0.4457  0.3439
  688MOL0     C92770   2.616   7.029   3.966 -0.2701 -0.1727  0.1073
  688MOL0     C92771   2.518   7.089   3.886  1.0614  0.0070  0.9762
  688MOL0     C92772   2.391   7.034   3.854 -0.0892 -0.8834 -0.1769
  688MOL0     C92773   2.277   7.111   3.779 -0.4604  0.3708 -0.5432
  688MOL0     C92774   2.371   6.898   3.901 -1.0614 -0.6095  0.7720
  688MOL0     C92775   2.248   6.817   3.872  0.2386 -0.6517  0.6675
  688MOL0     O92776   2.164   6.860   3.780  0.7245 -0.0063  0.0598
  688MOL0     C92777   2.051   6.790   3.753  0.2653  0.1183  1.5537
  688MOL0     C92778   1.928   6.807   3.825 -0.4948  0.3690  0.7258
  688MOL0     C92779   1.824   6.724   3.794  0.5259  0.4654  0.1153
  688MOL0     C92780   1.823   6.633   3.691 -0.0723 -0.1181 -0.3581
  688MOL0     O92781   1.707   6.574   3.652  0.4133  0.7047 -0.0493
  688MOL0     C92782   1.703   6.514   3.522 -0.0081 -0.5048  0.0381
  688MOL0     C92783   1.579   6.423   3.518  0.5369  0.0149  0.0787
  688MOL0     C92784   1.575   6.347   3.383  1.0273  0.0757  0.1823
  688MOL0     C92785   1.448   6.258   3.355 -0.0961 -0.1208 -1.1853
  688MOL0     C92786   1.322   6.344   3.358 -0.1128 -0.3509 -0.0355
  688MOL0     C92787   1.207   6.273   3.289 -0.0817 -0.0702 -0.0691
  688MOL0     C92788   1.165   6.134   3.354 -0.0939  0.5668 -0.2792
  688MOL0     C92789   1.237   6.009   3.295  0.2721  0.2928  1.4134
  688MOL0    Cl92790   1.202   6.012   3.123 -0.0692 -0.1241 -0.4348
  688MOL0     C92791   1.943   6.621   3.628  0.3625  0.0829  0.0663
  688MOL0     C92792   2.056   6.694   3.651  0.9237 -0.8955 -0.0948
  688MOL0     O92793   2.228   6.720   3.947 -0.0329  0.6238 -0.6735
  688MOL0     C92794   2.460   6.847   3.992 -0.5112  0.0924  0.2953
  688MOL0     C92795   2.582   6.906   4.020  0.1075  0.0286 -1.4387
  688MOL0     N92796   3.113   6.800   4.471  0.1030 -1.0045 -0.4128
  688MOL0     N92797   3.203   6.719   4.483  0.3525  0.3913  0.4739
  688MOL0     C92798   4.180   6.234   4.555  0.7731  0.1099 -0.5068
  688MOL0     C92799   4.319   6.213   4.568 -0.4347 -0.0120 -0.4992
  688MOL0     C92800   4.708   5.961   4.554 -0.8731 -0.1026  0.3258
  688MOL0     C92801   4.758   5.842   4.498 -0.8418  0.3658  0.8313
  688MOL0     C92802   4.898   5.836   4.494 -0.1222 -0.2687 -0.0043
  688MOL0     C92803   4.989   5.925   4.543  0.5459 -1.4297 -0.5221
  688MOL0     O92804   5.119   5.902   4.511 -0.7430 -0.4690 -0.5756
  688MOL0     C92805   5.211   6.000   4.575 -0.0676 -0.2558  0.2441
  688MOL0     C92806   5.363   5.966   4.541  0.2890  0.1610 -0.2029
  688MOL0     C92807   5.464   6.072   4.559 -0.8493  0.5249  0.3475
  688MOL0     C92808   5.474   6.128   4.705 -0.1706  0.1290  0.1241
  688MOL0     C92809   5.579   6.233   4.705  0.1708 -0.1238 -0.0396
  688MOL0     C92810   5.665   6.323   4.695 -0.8772  0.1843 -1.4051
  688MOL0     C92811   4.933   6.042   4.615  0.4144 -0.0467  0.2474
  688MOL0     C92812   4.790   6.055   4.620 -0.6983  0.4099 -0.5159
  688MOL0     H92813   4.306   5.896   4.668 -0.4404 -0.6633 -0.9644
  688MOL0     H92814   4.067   5.933   4.667  0.9732 -0.4877  0.1811
  688MOL0     H92815   3.885   6.006   4.522  0.8887  0.6167 -0.7294
  688MOL0     H92816   3.784   6.070   4.652 -0.8169  0.7988 -0.6073
  688MOL0     H92817   3.824   6.234   4.389 -1.2635  1.1661 -0.4427
  688MOL0     H92818   3.683   6.129   4.426  0.8572  1.1550 -2.8796
  688MOL0     H92819   3.615   6.352   4.487  1.2417  0.0086 -1.9976
  688MOL0     H92820   3.678   6.271   4.642  0.7210  0.3211  0.6668
  688MOL0     H92821   3.821   6.435   4.666  0.7210  1.4575 -0.3456
  688MOL0     H92822   3.870   6.446   4.493 -0.0057  0.4666  1.3499
  688MOL0     H92823   3.607   6.546   4.608 -0.5918  2.5919 -0.2385
  688MOL0     H92824   3.760   6.634   4.616 -0.7080  2.4292 -1.3659
  688MOL0     H92825   3.761   6.647   4.365 -0.2409  0.4701  0.0678
  688MOL0     H92826   3.636   6.530   4.354 -1.8706 -2.1400  3.3574
  688MOL0     H92827   3.548   6.776   4.510 -0.1674 -0.0518  0.3358
  688MOL0     H92828   3.572   6.802   4.333  1.6689 -0.5652  0.1633
  688MOL0     H92829   3.403   6.576   4.468  0.6593 -1.5134 -1.4111
  688MOL0     H92830   3.412   6.611   4.301  0.7993 -0.4782 -0.4183
  688MOL0     H92831   3.337   6.899   4.252  1.3057 -2.1841 -0.9872
  688MOL0     H92832   2.979   7.042   4.399 -3.3138 -0.0122 -2.8901
  688MOL0     H92833   3.123   7.108   4.318 -1.2465  0.4587  0.0689
  688MOL0     H92834   2.935   6.889   4.222  0.1842 -0.2274  1.0341
  688MOL0     H92835   3.082   6.956   4.131 -0.1578  2.7745 -1.5164
  688MOL0     H92836   2.970   7.172   4.122 -1.3213  0.9256  2.0673
  688MOL0     H92837   2.838   7.120   4.216  0.2682  1.6462  0.9312
  688MOL0     H92838   2.838   6.924   4.014  0.5856 -0.4128 -1.1372
  688MOL0     H92839   2.921   7.059   3.928 -3.3396 -0.3217 -2.0327
  688MOL0     H92840   2.544   7.183   3.838  1.2202  1.7433  4.1997
  688MOL0     H92841   2.189   7.114   3.844 -0.2832 -1.6141 -0.1368
  688MOL0     H92842   2.314   7.211   3.759 -0.5857  0.6235  0.4275
  688MOL0     H92843   2.244   7.070   3.684 -0.5765 -0.2899 -0.2276
  688MOL0     H92844   1.907   6.875   3.906  2.3430 -1.7327  3.4453
  688MOL0     H92845   1.735   6.729   3.857  0.1082 -3.2521  0.0589
  688MOL0     H92846   1.705   6.588   3.441  0.2845 -2.3595 -1.7338
  688MOL0     H92847   1.789   6.449   3.505 -0.9631 -1.4839 -1.2161
  688MOL0     H92848   1.577   6.355   3.604 -1.8082  0.9021  0.8139
  688MOL0     H92849   1.492   6.490   3.525  0.9447  0.3949  4.0703
  688MOL0     H92850   1.669   6.293   3.370  0.5870 -0.4234 -1.0750
  688MOL0     H92851   1.576   6.421   3.303 -1.6829 -2.2666 -2.2533
  688MOL0     H92852   1.467   6.208   3.259 -0.1959 -3.0531  0.2191
  688MOL0     H92853   1.441   6.175   3.427  2.0135  1.0615  0.5205
  688MOL0     H92854   1.347   6.434   3.301 -2.3951  0.4273  0.0897
  688MOL0     H92855   1.297   6.378   3.459 -0.2635  2.8415 -1.0401
  688MOL0     H92856   1.117   6.334   3.295 -0.8812 -1.3106  1.2938
  688MOL0     H92857   1.236   6.261   3.184 -1.5616  4.6804 -1.2721
  688MOL0     H92858   1.058   6.116   3.339  0.2249  0.4193 -2.9151
  688MOL0     H92859   1.176   6.147   3.462 -2.1183  2.1343 -0.2006
  688MOL0     H92860   1.197   5.918   3.341  4.2060 -1.1062  2.4662
  688MOL0     H92861   1.345   6.008   3.309  0.5016 -4.3101  0.8787
  688MOL0     H92862   1.969   6.549   3.550  0.5130  1.3670 -1.1103
  688MOL0     H92863   2.152   6.678   3.602  1.0676 -2.3196  0.5852
  688MOL0     H92864   2.456   6.744   4.026  0.0808 -0.0640 -0.1036
  688MOL0     H92865   2.644   6.843   4.083 -2.3779 -0.5354  0.6239
  688MOL0     H92866   4.154   6.333   4.517  1.0924  0.9346  1.3504
  688MOL0     H92867   4.388   6.295   4.548  0.5875 -0.6740  0.2064
  688MOL0     H92868   4.694   5.768   4.452 -0.3477  1.4782 -1.8692
  688MOL0     H92869   4.936   5.749   4.441 -4.7183 -0.9842 -2.7128
  688MOL0     H92870   5.209   6.101   4.532  2.6490 -0.3252 -0.2503
  688MOL0     H92871   5.202   6.000   4.684  3.3230  0.7396  0.6547
  688MOL0     H92872   5.357   5.942   4.434  0.6796 -0.2645 -0.1311
  688MOL0     H92873   5.383   5.870   4.589 -0.3309 -2.2540 -4.2363
  688MOL0     H92874   5.441   6.148   4.484 -0.2086 -0.3000 -0.7070
  688MOL0     H92875   5.555   6.022   4.526  1.0243  1.9501  2.9452
  688MOL0     H92876   5.507   6.046   4.769  1.9076 -1.3938 -2.6618
  688MOL0     H92877   5.385   6.175   4.747  0.7447  1.4587  0.6492
  688MOL0     H92878   5.737   6.402   4.687  1.1110 -0.8634  3.2045
  688MOL0     H92879   4.972   6.133   4.659 -1.3686  1.5640 -1.2997
  688MOL0     H92880   4.743   6.145   4.660  0.9528  0.7848  0.6983
  689MOL0     O92881   5.226   8.715   9.431  0.1299 -0.3734 -0.7341
  689MOL0     C92882   5.293   8.814   9.430  0.3017 -0.5543 -0.1866
  689MOL0     O92883   5.292   8.907   9.323  0.6809 -0.1606  0.0564
  689MOL0     C92884   5.176   8.915   9.248  0.7740 -0.2648 -0.7949
  689MOL0     C92885   5.049   8.923   9.319 -1.2260 -1.2757  0.1671
  689MOL0     C92886   4.922   8.928   9.245 -0.2794 -0.1348  0.1774
  689MOL0     C92887   4.931   8.933   9.103  0.3592 -0.6531 -0.0059
  689MOL0     O92888   4.812   8.910   9.035  0.4598  0.1939  0.6991
  689MOL0     C92889   4.774   8.989   8.934 -0.1325 -0.2066  0.0898
  689MOL0     C92890   4.788   9.144   8.967  1.0170 -0.1812  0.9171
  689MOL0     C92891   4.742   9.213   8.832  0.8909 -0.4603 -1.1193
  689MOL0     C92892   4.699   9.367   8.865 -0.6451  0.7794 -0.3745
  689MOL0     C92893   4.642   9.426   8.735 -1.0541  0.2559  0.3308
  689MOL0     C92894   4.748   9.451   8.633 -0.1620 -0.9594  0.5087
  689MOL0     C92895   4.680   9.519   8.504  0.9731 -0.2708 -1.3705
  689MOL0     C92896   4.604   9.649   8.538 -0.1457  0.7545  0.5673
  689MOL0     N92897   4.690   9.763   8.589  0.4888  0.1794 -0.2925
  689MOL0     C92898   4.711   9.791   8.722  0.3867  0.6032  0.8170
  689MOL0     C92899   4.762   9.915   8.713  0.3487  0.0002  0.5393
  689MOL0     C92900   4.795  10.009   8.831  0.5684  0.2853  1.0091
  689MOL0     C92901   4.720  10.148   8.817 -0.4264  0.2000  0.1710
  689MOL0     C92902   4.572  10.150   8.858  0.0986  0.3000 -1.3501
  689MOL0     C92903   4.475  10.123   8.739  0.1425 -0.5945  0.6389
  689MOL0     O92904   4.455  10.245   8.670 -0.0025 -0.0150  0.3821
  689MOL0     C92905   4.518  10.262   8.551 -0.1923  0.0392  0.1821
  689MOL0     C92906   4.560  10.161   8.457  0.5763 -0.1438 -0.9611
  689MOL0     C92907   4.634  10.196   8.347 -0.5492 -0.0036  0.5194
  689MOL0     C92908   4.669  10.087   8.251 -0.0512  0.5070  0.9049
  689MOL0     C92909   4.668  10.330   8.317  0.1075  0.0032  0.9559
  689MOL0     C92910   4.727  10.377   8.193 -0.2752  0.9689  0.0013
  689MOL0     O92911   4.773  10.507   8.195  0.0178  0.2060  0.3012
  689MOL0     C92912   4.822  10.560   8.076  0.1683 -0.2335 -0.0288
  689MOL0     C92913   4.954  10.523   8.053 -0.1414 -0.0051 -0.4097
  689MOL0     C92914   5.033  10.578   7.956  0.6828  0.4585 -0.2260
  689MOL0     C92915   4.977  10.678   7.875 -1.1486  0.9170  0.3586
  689MOL0     O92916   5.054  10.708   7.768 -0.3647 -0.3737  0.4264
  689MOL0     C92917   5.001  10.808   7.677 -0.0123  0.2617 -0.5783
  689MOL0     C92918   5.118  10.878   7.606 -0.4541 -0.0150  0.4415
  689MOL0     C92919   5.248  10.879   7.687  0.2540 -0.7731  0.4623
  689MOL0     C92920   5.357  10.966   7.617  0.2762  0.5511 -0.6876
  689MOL0     C92921   5.484  10.969   7.698  0.1089 -0.1119 -0.5319
  689MOL0     C92922   5.603  11.041   7.630  0.4017  1.1682 -0.1174
  689MOL0     C92923   5.583  11.191   7.636  0.9781 -0.1746 -0.1860
  689MOL0     C92924   5.695  11.291   7.599 -0.2565  0.3178 -0.4459
  689MOL0    Cl92925   5.664  11.459   7.634 -0.9597  0.0255 -0.4383
  689MOL0     C92926   4.844  10.726   7.908  0.1923  0.3330 -0.5134
  689MOL0     C92927   4.764  10.669   8.009 -1.0242 -0.0605  0.3852
  689MOL0     O92928   4.736  10.298   8.097 -0.4106 -0.4513 -0.2030
  689MOL0     C92929   4.633  10.431   8.408 -0.1694 -0.1984 -0.3140
  689MOL0     C92930   4.549  10.398   8.518  0.3874 -0.2870  0.5355
  689MOL0     N92931   4.788   9.948   8.585 -0.5541  0.4041  0.0717
  689MOL0     N92932   4.753   9.858   8.510  0.4416 -0.1094 -0.6197
  689MOL0     C92933   5.057   8.943   9.035  0.7504  0.0466  0.0287
  689MOL0     C92934   5.178   8.928   9.111 -0.4568  0.4096  0.8781
  689MOL0     C92935   5.368   8.844   9.554 -0.9169 -0.7345  0.9372
  689MOL0     C92936   5.433   8.969   9.577 -0.4203 -0.9043 -0.2685
  689MOL0     C92937   5.502   9.000   9.693  0.2240 -0.4477  0.3888
  689MOL0     C92938   5.511   8.909   9.793 -0.9947  0.1746  0.1775
  689MOL0     O92939   5.571   8.938   9.912  0.5311  0.5294  0.4380
  689MOL0     C92940   5.562   9.067   9.965  0.8071  0.5505  0.2085
  689MOL0     C92941   5.587   9.044  10.114  0.0843  0.1759 -0.2601
  689MOL0     C92942   5.722   9.010  10.155  0.5884 -0.6368 -0.9589
  689MOL0     C92943   5.725   9.019  10.301 -0.2056  0.4203 -1.1478
  689MOL0     C92944   5.701   9.152  10.367 -0.1320  0.1993  0.4152
  689MOL0     C92945   5.675   9.258  10.403 -0.6069 -0.0378 -0.1438
  689MOL0     C92946   5.452   8.783   9.777  1.6388  0.0890 -0.3771
  689MOL0     C92947   5.378   8.752   9.661 -0.3482  0.0839  1.0190
  689MOL0     H92948   5.047   8.930   9.427 -2.0254 -0.0811  0.0990
  689MOL0     H92949   4.834   8.948   9.304  1.4874  1.2694  2.4874
  689MOL0     H92950   4.845   8.972   8.854  0.7864  1.4068  0.5181
  689MOL0     H92951   4.669   8.966   8.913 -0.6372  2.2701 -0.4234
  689MOL0     H92952   4.721   9.167   9.050 -0.8251  0.5024 -0.6771
  689MOL0     H92953   4.888   9.178   8.996 -0.0243  1.3701  2.9623
  689MOL0     H92954   4.827   9.215   8.763 -0.6965 -0.0032 -3.1792
  689MOL0     H92955   4.661   9.151   8.794 -0.3721  1.0185 -0.9522
  689MOL0     H92956   4.629   9.361   8.949 -0.6520  1.2832 -0.3461
  689MOL0     H92957   4.778   9.431   8.904 -0.7274 -0.1065  1.3475
  689MOL0     H92958   4.564   9.354   8.706 -3.6099  2.7863  0.4155
  689MOL0     H92959   4.591   9.518   8.765 -0.7170  0.5199  0.0951
  689MOL0     H92960   4.822   9.523   8.669  0.2831 -1.2863  0.2598
  689MOL0     H92961   4.802   9.360   8.605  0.9114  0.8722 -4.5820
  689MOL0     H92962   4.753   9.559   8.433  0.6625  0.7509 -1.1411
  689MOL0     H92963   4.614   9.445   8.459 -1.6505  3.0037 -3.3666
  689MOL0     H92964   4.521   9.628   8.606  0.4871  1.7961  1.6931
  689MOL0     H92965   4.566   9.691   8.445  1.3986 -0.5268 -0.7131
  689MOL0     H92966   4.690   9.726   8.806  2.9633 -0.4650  0.7201
  689MOL0     H92967   4.769   9.967   8.928 -2.8706 -2.0292 -0.7443
  689MOL0     H92968   4.900  10.038   8.840  0.2938  0.8616  2.6524
  689MOL0     H92969   4.732  10.189   8.716 -1.0131 -0.6152 -0.2405
  689MOL0     H92970   4.769  10.222   8.881 -3.0644  3.6908 -1.4658
  689MOL0     H92971   4.555  10.245   8.909 -1.0005 -1.3168  1.5599
  689MOL0     H92972   4.547  10.073   8.932  1.0486 -0.9161 -2.2531
  689MOL0     H92973   4.379  10.104   8.787 -0.3173  2.2964  1.0271
  689MOL0     H92974   4.519  10.039   8.684  3.4591 -0.5847  3.0102
  689MOL0     H92975   4.543  10.056   8.474  1.0846  0.2764  2.9636
  689MOL0     H92976   4.662   9.987   8.295  2.4381  1.3486  3.5885
  689MOL0     H92977   4.609  10.103   8.162 -0.0215 -5.5771 -0.6406
  689MOL0     H92978   4.775  10.094   8.224 -0.2501  0.6895  0.1813
  689MOL0     H92979   5.008  10.449   8.110  3.5582  1.8255 -1.2335
  689MOL0     H92980   5.133  10.543   7.937  1.4297  0.7550  2.6989
  689MOL0     H92981   4.930  10.773   7.602  0.4666  1.1600 -1.4788
  689MOL0     H92982   4.947  10.890   7.726 -0.7161 -1.9703  2.7100
  689MOL0     H92983   5.139  10.825   7.513 -2.5814 -1.4432  0.7320
  689MOL0     H92984   5.088  10.979   7.576  1.8261  0.4260 -0.6309
  689MOL0     H92985   5.283  10.781   7.720 -1.6615 -1.5891  0.2154
  689MOL0     H92986   5.219  10.924   7.783  0.7528 -2.8235  1.6193
  689MOL0     H92987   5.389  10.932   7.518  3.1517  1.8053 -0.2964
  689MOL0     H92988   5.314  11.065   7.603  0.6884  0.5356 -2.1455
  689MOL0     H92989   5.504  10.864   7.722 -2.4539 -0.2379  1.4075
  689MOL0     H92990   5.468  11.013   7.796  2.7113  0.9760 -0.5160
  689MOL0     H92991   5.684  11.011   7.696 -0.7923  0.1995  0.9688
  689MOL0     H92992   5.629  11.011   7.528 -2.3641 -1.8084 -0.0946
  689MOL0     H92993   5.569  11.222   7.739 -0.5476  2.3208 -1.0445
  689MOL0     H92994   5.491  11.218   7.583 -1.0312 -0.5976  2.8516
  689MOL0     H92995   5.704  11.280   7.491  0.8135  2.0082 -0.5729
  689MOL0     H92996   5.787  11.269   7.654 -0.5754  0.0680 -0.0068
  689MOL0     H92997   4.802  10.798   7.838  1.6770  0.1647 -1.6221
  689MOL0     H92998   4.662  10.697   8.033 -1.0641  0.9105 -0.8349
  689MOL0     H92999   4.654  10.535   8.386 -0.7607 -0.0695 -0.2957
  689MOL0     H93000   4.516  10.477   8.585  1.8436  1.5298 -0.7924
  689MOL0     H93001   5.078   8.957   8.930 -0.4452  2.1075  0.0173
  689MOL0     H93002   5.271   8.931   9.056 -1.8099  0.0904 -1.5828
  689MOL0     H93003   5.433   9.042   9.497  0.2430 -0.6151 -0.0128
  689MOL0     H93004   5.552   9.096   9.696  0.4576 -0.5513 -0.1578
  689MOL0     H93005   5.642   9.129   9.924 -1.0881  0.3435 -4.3445
  689MOL0     H93006   5.460   9.102   9.945  0.2294 -1.7672 -1.3342
  689MOL0     H93007   5.519   8.967  10.152 -1.2253  0.8312 -1.1580
  689MOL0     H93008   5.555   9.133  10.169 -0.6591 -0.4895  0.4196
  689MOL0     H93009   5.793   9.083  10.115  1.7767 -1.3256 -0.1729
  689MOL0     H93010   5.748   8.908  10.128 -0.8136 -0.6610 -2.3653
  689MOL0     H93011   5.829   8.995  10.321  0.2095  2.0433 -1.2354
  689MOL0     H93012   5.651   8.948  10.340 -0.6510 -0.0380 -2.7458
  689MOL0     H93013   5.658   9.353  10.450 -0.4140  0.2463 -0.6455
  689MOL0     H93014   5.470   8.705   9.850 -0.1408  1.2742  1.4253
  689MOL0     H93015   5.322   8.660   9.655 -0.7267  0.3285  0.7203
  690MOL0     O93016  10.937   1.290   3.685  0.3730  0.5764 -0.0559
  690MOL0     C93017  11.028   1.341   3.756  0.3830 -0.2183  0.0297
  690MOL0     O93018  11.040   1.317   3.891  0.0576 -0.4115 -0.5077
  690MOL0     C93019  10.931   1.269   3.964 -0.1160  0.2878  0.8061
  690MOL0     C93020  10.970   1.216   4.084 -0.5887 -0.6483  0.2190
  690MOL0     C93021  10.872   1.148   4.165  0.5297  0.1623  0.9846
  690MOL0     C93022  10.733   1.140   4.132 -0.0857 -0.4582 -0.1294
  690MOL0     O93023  10.641   1.054   4.193 -0.1401  0.7050  0.2032
  690MOL0     C93024  10.662   0.983   4.320  0.1662 -0.2364  0.7382
  690MOL0     C93025  10.720   0.851   4.282 -1.1392 -0.1584 -0.2070
  690MOL0     C93026  10.717   0.756   4.402 -0.4752  0.7973  0.0008
  690MOL0     C93027  10.807   0.805   4.521  0.5209  1.2302 -0.0952
  690MOL0     C93028  10.801   0.703   4.650  0.7798  0.2092 -0.0310
  690MOL0     C93029  10.870   0.761   4.773  0.4600 -0.3002  0.1164
  690MOL0     C93030  11.023   0.795   4.759  0.6900 -0.2654 -0.1034
  690MOL0     C93031  11.071   0.841   4.890 -0.3861  1.0029  0.6522
  690MOL0     N93032  11.212   0.860   4.879  0.1387 -0.7848 -0.2821
  690MOL0     C93033  11.291   0.899   4.767 -0.0566  0.7155  0.3698
  690MOL0     C93034  11.421   0.906   4.796 -0.5466  0.4307  0.0771
  690MOL0     C93035  11.543   0.931   4.712 -0.5675  0.2686  0.6563
  690MOL0     C93036  11.528   0.881   4.564  0.1817  0.5818 -1.0092
  690MOL0     C93037  11.652   0.880   4.482  0.6987  0.5537  0.1234
  690MOL0     C93038  11.751   0.997   4.494  0.1276  0.5679  0.6214
  690MOL0     O93039  11.841   0.993   4.611  0.2770 -0.3486  0.0417
  690MOL0     C93040  11.962   0.938   4.579 -0.3033 -0.9891 -0.1651
  690MOL0     C93041  11.990   0.816   4.625 -0.4591  0.2568 -0.6133
  690MOL0     C93042  12.100   0.739   4.595  0.6688 -0.1455 -0.1174
  690MOL0     C93043  12.113   0.604   4.645  0.1139  0.6232  0.3469
  690MOL0     C93044  12.192   0.796   4.501  0.8149 -0.0403 -0.6859
  690MOL0     C93045  12.318   0.716   4.450  0.0828 -0.7610  0.0926
  690MOL0     O93046  12.433   0.796   4.432 -0.3462 -0.2840 -0.0614
  690MOL0     C93047  12.525   0.742   4.352 -0.0607 -0.4386  0.4150
  690MOL0     C93048  12.546   0.805   4.231 -0.0028  0.4490 -0.2701
  690MOL0     C93049  12.646   0.749   4.147  0.3286  0.0840 -0.2608
  690MOL0     C93050  12.726   0.639   4.176  0.8461  0.2256  0.1361
  690MOL0     O93051  12.809   0.602   4.092  0.3602  0.1692  0.0342
  690MOL0     C93052  12.955   0.607   4.112 -0.7997 -0.6969  0.3778
  690MOL0     C93053  13.025   0.531   3.993  0.1333 -0.3507  0.2227
  690MOL0     C93054  13.180   0.555   4.007  0.0012 -0.6608 -0.1623
  690MOL0     C93055  13.218   0.684   3.935 -0.2106  0.4312 -0.6347
  690MOL0     C93056  13.368   0.696   3.912  0.4067 -0.3242  0.0069
  690MOL0     C93057  13.457   0.656   4.034  0.4000  0.7684 -0.4446
  690MOL0     C93058  13.607   0.686   4.013  0.6891  0.1903  0.2813
  690MOL0     C93059  13.667   0.608   3.886 -1.1434 -0.6308 -0.1096
  690MOL0    Cl93060  13.634   0.438   3.908  0.6042  0.2357 -0.2160
  690MOL0     C93061  12.694   0.581   4.300 -0.4700  0.7215 -0.0848
  690MOL0     C93062  12.603   0.637   4.386 -0.2194  0.1931 -0.4669
  690MOL0     O93063  12.322   0.595   4.441 -0.2211  0.1008  1.3210
  690MOL0     C93064  12.169   0.932   4.463  0.5733  0.1834 -0.2670
  690MOL0     C93065  12.053   1.001   4.490  0.1594  0.5296 -0.7812
  690MOL0     N93066  11.424   0.877   4.933 -0.2270 -0.3492  0.5477
  690MOL0     N93067  11.298   0.863   4.980 -0.3193  0.5893 -0.7319
  690MOL0     C93068  10.702   1.204   4.010  1.3736  0.2559  0.3612
  690MOL0     C93069  10.795   1.272   3.937  0.8786 -0.3638  0.8225
  690MOL0     C93070  11.122   1.422   3.686 -0.4467  0.3397  0.4647
  690MOL0     C93071  11.229   1.482   3.751 -0.2356 -1.2395 -0.0616
  690MOL0     C93072  11.324   1.558   3.677  0.4091  0.2233  0.5683
  690MOL0     C93073  11.318   1.564   3.537 -0.3099 -0.3460  0.4435
  690MOL0     O93074  11.418   1.644   3.471 -0.0106  0.5346  0.5573
  690MOL0     C93075  11.452   1.616   3.333  0.0282 -0.0507  0.6008
  690MOL0     C93076  11.440   1.751   3.261 -0.3026 -0.2353  0.5737
  690MOL0     C93077  11.465   1.744   3.108 -0.9004  0.0245 -0.1433
  690MOL0     C93078  11.455   1.877   3.043  0.2056 -0.3075  0.5186
  690MOL0     C93079  11.325   1.924   3.001  0.4338  0.2426  0.9721
  690MOL0     C93080  11.216   1.976   2.976 -0.7130  1.2876 -0.0945
  690MOL0     C93081  11.212   1.497   3.472 -0.2222  0.4655  0.4280
  690MOL0     C93082  11.111   1.434   3.546 -0.4003  0.7949  0.4497
  690MOL0     H93083  11.076   1.216   4.108 -1.4596  1.3853  5.4243
  690MOL0     H93084  10.916   1.092   4.247  0.3319  0.7619  1.5057
  690MOL0     H93085  10.728   1.036   4.389  2.4300 -0.4212 -1.1577
  690MOL0     H93086  10.559   0.975   4.356 -0.1703 -0.7274 -0.3048
  690MOL0     H93087  10.674   0.814   4.190 -2.9301  3.6468 -1.0072
  690MOL0     H93088  10.828   0.850   4.260 -0.5133  0.4566  2.4851
  690MOL0     H93089  10.613   0.729   4.424  0.7578 -3.8652  1.4743
  690MOL0     H93090  10.755   0.659   4.369 -1.0265  1.6717 -3.5885
  690MOL0     H93091  10.909   0.801   4.483 -0.2983 -1.2429 -2.3228
  690MOL0     H93092  10.774   0.896   4.571  1.0275  0.1265  2.3857
  690MOL0     H93093  10.700   0.694   4.689  0.7796  1.3747  0.2785
  690MOL0     H93094  10.840   0.607   4.616 -2.0181 -1.3580  0.8678
  690MOL0     H93095  10.817   0.854   4.798 -0.9570 -1.1829  0.5401
  690MOL0     H93096  10.856   0.695   4.860 -4.2846 -0.4598 -0.4752
  690MOL0     H93097  11.082   0.711   4.722  0.7431 -1.3462  2.2456
  690MOL0     H93098  11.016   0.880   4.691  0.3704  3.0271  3.6615
  690MOL0     H93099  11.052   0.774   4.975  0.5646 -1.1880 -0.7718
  690MOL0     H93100  11.022   0.936   4.914 -0.4747  1.8784 -2.5271
  690MOL0     H93101  11.247   0.916   4.669 -1.9850  1.7917  1.3560
  690MOL0     H93102  11.562   1.038   4.709  0.6279  0.0649 -1.4075
  690MOL0     H93103  11.626   0.877   4.759 -0.2305 -1.2272 -1.5038
  690MOL0     H93104  11.464   0.960   4.525  0.5168  1.1182 -0.4964
  690MOL0     H93105  11.477   0.784   4.561 -0.0852  0.5164  2.0896
  690MOL0     H93106  11.621   0.873   4.377 -2.6931  0.0643  1.0377
  690MOL0     H93107  11.707   0.788   4.506 -0.4471  0.0695  0.9795
  690MOL0     H93108  11.698   1.091   4.508 -0.9560 -0.0740  0.9311
  690MOL0     H93109  11.801   1.013   4.399  2.0238  2.2695  1.8187
  690MOL0     H93110  11.904   0.780   4.679 -0.8547 -4.1187 -3.6696
  690MOL0     H93111  12.118   0.529   4.565  0.2782  1.4890 -0.4812
  690MOL0     H93112  12.208   0.585   4.696  0.0073 -4.7676 -0.8968
  690MOL0     H93113  12.029   0.575   4.708  0.5576 -0.0030  0.6647
  690MOL0     H93114  12.489   0.892   4.200 -2.1287  0.2056  2.5837
  690MOL0     H93115  12.662   0.798   4.051  0.2256  2.8765  1.0598
  690MOL0     H93116  12.981   0.713   4.121 -3.5826 -0.0331  1.7848
  690MOL0     H93117  12.992   0.550   4.198  2.2642 -3.2359 -2.3568
  690MOL0     H93118  13.011   0.423   3.999 -0.2275 -0.3993 -1.0598
  690MOL0     H93119  12.982   0.565   3.898 -1.0094 -0.3822  0.7084
  690MOL0     H93120  13.235   0.473   3.961 -1.3397 -1.3626 -0.5743
  690MOL0     H93121  13.210   0.562   4.112  1.7414 -1.5489 -0.5666
  690MOL0     H93122  13.157   0.703   3.847 -2.8615  0.7108  1.1325
  690MOL0     H93123  13.181   0.762   4.002  0.5567  0.0727  0.2432
  690MOL0     H93124  13.396   0.797   3.880  0.4567  0.3103  1.9142
  690MOL0     H93125  13.385   0.632   3.825 -1.1046  0.5920 -1.0065
  690MOL0     H93126  13.425   0.717   4.119  0.0056  3.0206 -2.1272
  690MOL0     H93127  13.445   0.548   4.045 -1.7248  0.6739 -2.8880
  690MOL0     H93128  13.665   0.672   4.104  0.5292  0.0610  0.3632
  690MOL0     H93129  13.616   0.792   3.987 -1.9236 -0.3081 -3.6036
  690MOL0     H93130  13.774   0.629   3.871 -1.6450  0.9084 -1.8624
  690MOL0     H93131  13.613   0.652   3.802 -1.1087 -0.5106 -0.0696
  690MOL0     H93132  12.743   0.490   4.333 -0.3722  0.3671 -1.1723
  690MOL0     H93133  12.581   0.593   4.482 -3.0822  0.4641 -0.9182
  690MOL0     H93134  12.249   0.978   4.404  1.1603 -0.6575 -0.1494
  690MOL0     H93135  12.044   1.105   4.460 -3.9336  0.6199  0.1856
  690MOL0     H93136  10.598   1.198   3.981  0.4508  0.0148  3.3250
  690MOL0     H93137  10.773   1.302   3.835  2.9052  1.5781  0.8956
  690MOL0     H93138  11.243   1.473   3.859  2.9953 -0.2730 -0.2920
  690MOL0     H93139  11.402   1.608   3.734  0.0449  2.0884 -0.4871
  690MOL0     H93140  11.555   1.583   3.321  0.4761  1.7609 -1.1627
  690MOL0     H93141  11.380   1.549   3.285 -0.8289 -0.1904  2.0222
  690MOL0     H93142  11.507   1.827   3.303  0.1909 -1.3093  1.7745
  690MOL0     H93143  11.337   1.788   3.271 -0.4253 -0.7615  1.3140
  690MOL0     H93144  11.382   1.679   3.076 -1.1419 -0.2287  0.9458
  690MOL0     H93145  11.568   1.711   3.096 -0.2155  0.8222  2.7371
  690MOL0     H93146  11.511   1.872   2.949 -1.0828 -1.5303 -0.2361
  690MOL0     H93147  11.495   1.949   3.114  1.2722 -1.1175  0.7522
  690MOL0     H93148  11.126   2.018   2.938 -0.3430  0.0090 -2.5376
  690MOL0     H93149  11.212   1.514   3.365  0.4109  1.9701  0.6396
  690MOL0     H93150  11.037   1.377   3.492  0.4902 -0.4762  0.5037
  691MOL0     O93151  10.143   6.052   7.612  0.1463 -0.2002 -0.6383
  691MOL0     C93152  10.146   6.110   7.504 -0.4856 -0.0729 -0.6843
  691MOL0     O93153  10.070   6.075   7.395  0.3023 -0.2519  0.1798
  691MOL0     C93154   9.962   5.994   7.393  0.1005 -0.0113 -0.4997
  691MOL0     C93155   9.930   5.945   7.267  1.3895 -0.3591 -0.3239
  691MOL0     C93156   9.814   5.869   7.258  0.3248 -0.0784  0.0892
  691MOL0     C93157   9.731   5.838   7.367 -0.2491 -0.4927  0.1701
  691MOL0     O93158   9.615   5.769   7.354 -0.1967  0.0396  0.7778
  691MOL0     C93159   9.520   5.783   7.245  0.1823 -0.4026 -0.1602
  691MOL0     C93160   9.523   5.649   7.170  0.7030  0.1930 -0.3716
  691MOL0     C93161   9.488   5.519   7.241  0.0081 -0.8630 -0.0308
  691MOL0     C93162   9.331   5.513   7.275  0.2213  0.1243 -0.3602
  691MOL0     C93163   9.277   5.372   7.324  0.3565  0.9681 -0.0414
  691MOL0     C93164   9.124   5.373   7.340  0.1404 -0.3056 -0.1565
  691MOL0     C93165   9.059   5.247   7.400  0.4894  0.0302  0.0243
  691MOL0     C93166   9.044   5.141   7.288  0.2584  0.1945 -0.4880
  691MOL0     N93167   8.959   5.025   7.301  0.0393  0.7429 -0.2059
  691MOL0     C93168   8.989   4.895   7.318 -0.3965 -0.1547  0.6768
  691MOL0     C93169   8.870   4.833   7.344 -0.4060 -0.6357 -0.2022
  691MOL0     C93170   8.855   4.686   7.360  1.2330 -0.0120  0.5966
  691MOL0     C93171   8.740   4.625   7.273 -0.7508 -0.0574 -0.2388
  691MOL0     C93172   8.607   4.655   7.348  0.4243  0.1305  0.4474
  691MOL0     C93173   8.500   4.656   7.240 -0.3562  0.0187 -0.6176
  691MOL0     O93174   8.361   4.666   7.299  0.3289  0.8315 -0.4499
  691MOL0     C93175   8.256   4.684   7.207  0.2686  0.2875 -0.0670
  691MOL0     C93176   8.125   4.728   7.248 -0.2410  0.3341  0.3684
  691MOL0     C93177   8.021   4.755   7.159  0.2661  0.5165  0.4740
  691MOL0     C93178   7.888   4.785   7.220  0.1472 -0.2566 -0.0918
  691MOL0     C93179   8.045   4.736   7.022  0.3031  0.4269 -0.7510
  691MOL0     C93180   7.932   4.749   6.926  0.5696 -0.4801  0.2813
  691MOL0     O93181   7.900   4.875   6.877 -0.5608 -0.0380  0.0003
  691MOL0     C93182   7.951   4.983   6.955 -0.2609  0.2412 -0.7923
  691MOL0     C93183   7.849   5.053   7.027 -0.2972  0.2610 -0.6414
  691MOL0     C93184   7.879   5.168   7.105  0.1795  0.8798  0.4454
  691MOL0     C93185   8.007   5.216   7.121  0.3557 -0.0454 -0.1105
  691MOL0     O93186   8.037   5.331   7.190  0.1857 -0.1432 -0.0736
  691MOL0     C93187   7.949   5.371   7.301 -0.1620  0.6485 -0.6527
  691MOL0     C93188   7.978   5.522   7.326  0.2797 -0.1196 -0.3021
  691MOL0     C93189   8.112   5.547   7.395  1.0671 -1.1975  0.5188
  691MOL0     C93190   8.112   5.681   7.472 -0.6443  0.8752  1.5859
  691MOL0     C93191   8.257   5.727   7.509  0.6312  0.1896 -0.1394
  691MOL0     C93192   8.327   5.829   7.422  0.2286 -0.7112 -0.3873
  691MOL0     C93193   8.467   5.850   7.470  0.0293  0.8179  0.8472
  691MOL0     C93194   8.544   5.948   7.382 -0.1171  0.3904  0.1192
  691MOL0    Cl93195   8.697   5.989   7.451  0.4932  0.2473  0.1042
  691MOL0     C93196   8.106   5.149   7.045 -0.5441 -0.0358 -0.4264
  691MOL0     C93197   8.088   5.031   6.968  0.8080 -0.1995 -0.1440
  691MOL0     O93198   7.882   4.643   6.889  0.4232 -0.6176  0.2007
  691MOL0     C93199   8.159   4.677   6.978 -0.7260 -0.1177 -0.1394
  691MOL0     C93200   8.264   4.644   7.068 -0.6993  0.5748 -0.2525
  691MOL0     N93201   8.765   4.924   7.337  0.0243 -0.1369 -0.5168
  691MOL0     N93202   8.823   5.033   7.300 -0.1341  0.2766 -0.5084
  691MOL0     C93203   9.767   5.881   7.494  0.4879  0.1398  0.2733
  691MOL0     C93204   9.882   5.957   7.511 -0.3780  0.2802  0.3755
  691MOL0     C93205  10.263   6.200   7.486  0.0937  0.1613 -1.3130
  691MOL0     C93206  10.266   6.297   7.389 -0.4397 -0.3879  0.3104
  691MOL0     C93207  10.358   6.401   7.381 -0.2982 -1.1454 -0.0576
  691MOL0     C93208  10.455   6.404   7.468  0.4024  1.1567  0.3627
  691MOL0     O93209  10.546   6.505   7.453 -0.0833  0.2056 -1.0638
  691MOL0     C93210  10.594   6.576   7.573 -0.3805  0.8867 -0.1343
  691MOL0     C93211  10.663   6.708   7.543  0.0134  0.2595  0.4211
  691MOL0     C93212  10.750   6.721   7.416 -0.2023 -0.7367 -0.3260
  691MOL0     C93213  10.813   6.856   7.396  0.1620  0.0542 -0.4877
  691MOL0     C93214  10.846   6.864   7.255  0.0137  0.0686 -0.1029
  691MOL0     C93215  10.866   6.873   7.136  0.4137  0.0791 -0.2458
  691MOL0     C93216  10.469   6.294   7.563  0.0483 -0.7962  0.7894
  691MOL0     C93217  10.362   6.200   7.579 -0.2108 -0.1984  0.9391
  691MOL0     H93218   9.986   5.977   7.179 -0.5260  0.1736 -1.4140
  691MOL0     H93219   9.773   5.843   7.160  1.3699  1.9402 -0.9664
  691MOL0     H93220   9.429   5.802   7.301  0.7565  0.9582  0.3603
  691MOL0     H93221   9.542   5.865   7.175  2.6198 -0.6629  0.2152
  691MOL0     H93222   9.465   5.668   7.079  0.3979  3.1195  0.3404
  691MOL0     H93223   9.626   5.629   7.139  0.9985 -1.2966  1.3890
  691MOL0     H93224   9.518   5.437   7.175  0.9615 -1.8974  1.6260
  691MOL0     H93225   9.539   5.518   7.338 -0.0433  0.2066  0.0250
  691MOL0     H93226   9.321   5.577   7.363  1.0561 -0.8864  0.4976
  691MOL0     H93227   9.281   5.555   7.187  0.7651 -1.4728 -1.4878
  691MOL0     H93228   9.311   5.299   7.250  2.7443  1.2048  0.7300
  691MOL0     H93229   9.326   5.343   7.417  2.9719  0.4298 -1.4900
  691MOL0     H93230   9.108   5.458   7.407 -1.4658 -0.0442 -0.8108
  691MOL0     H93231   9.070   5.394   7.247 -0.8654 -1.2249  0.1872
  691MOL0     H93232   9.132   5.214   7.475  3.5074 -1.4363 -3.2873
  691MOL0     H93233   8.963   5.271   7.446  0.0788 -1.7144  0.1317
  691MOL0     H93234   9.146   5.107   7.273 -0.3671 -2.1189  0.0808
  691MOL0     H93235   9.020   5.192   7.194  2.4141  0.2713 -1.0450
  691MOL0     H93236   9.091   4.859   7.310  0.1743  1.4725  0.3880
  691MOL0     H93237   8.955   4.647   7.338  1.7086  0.3843  1.9594
  691MOL0     H93238   8.819   4.668   7.461  0.2171 -0.3934  0.1777
  691MOL0     H93239   8.747   4.516   7.274  0.2537 -0.0372 -1.6003
  691MOL0     H93240   8.744   4.667   7.172  0.7849  0.4786  0.0206
  691MOL0     H93241   8.607   4.757   7.388 -0.0707  1.3069 -2.3031
  691MOL0     H93242   8.587   4.589   7.433 -2.4165 -0.4730 -0.5850
  691MOL0     H93243   8.504   4.570   7.172 -4.5360 -1.0272  0.1558
  691MOL0     H93244   8.514   4.738   7.168  1.3105 -0.5706 -1.0189
  691MOL0     H93245   8.104   4.747   7.353 -1.4832 -1.4570  0.4851
  691MOL0     H93246   7.898   4.887   7.257 -0.3559 -0.9166  2.0472
  691MOL0     H93247   7.799   4.765   7.159 -0.0265 -0.0250  0.0806
  691MOL0     H93248   7.878   4.716   7.305 -0.9949  1.2827  1.0784
  691MOL0     H93249   7.746   5.019   7.024 -0.8361  1.7128  0.1802
  691MOL0     H93250   7.793   5.204   7.161 -0.1147 -2.0888  2.1543
  691MOL0     H93251   7.843   5.362   7.274  0.0961 -0.4591 -1.3427
  691MOL0     H93252   7.964   5.320   7.396 -0.5824  1.1088 -0.3344
  691MOL0     H93253   7.984   5.569   7.227  3.0543 -0.0038 -0.1509
  691MOL0     H93254   7.895   5.565   7.383 -0.6649 -2.2835  0.0853
  691MOL0     H93255   8.173   5.549   7.305 -1.0192 -1.3093 -0.9876
  691MOL0     H93256   8.152   5.467   7.458  1.7791 -0.3270  1.1788
  691MOL0     H93257   8.061   5.762   7.419 -4.4257 -0.4041  2.8921
  691MOL0     H93258   8.052   5.669   7.563 -1.1779  0.7939  1.2297
  691MOL0     H93259   8.333   5.648   7.505 -0.3371 -0.7480 -3.0330
  691MOL0     H93260   8.244   5.775   7.606 -3.8595  2.5043 -1.6017
  691MOL0     H93261   8.332   5.798   7.317 -1.6004 -0.2404 -0.6581
  691MOL0     H93262   8.269   5.922   7.430  0.6145 -0.6185  2.8095
  691MOL0     H93263   8.523   5.756   7.471 -0.0518  0.5572 -3.1608
  691MOL0     H93264   8.456   5.883   7.574  1.5227 -0.4908  1.4544
  691MOL0     H93265   8.484   6.037   7.367 -0.4149  0.3632  1.0924
  691MOL0     H93266   8.559   5.890   7.291 -0.9813  0.0224  0.1974
  691MOL0     H93267   8.204   5.188   7.072 -1.1202  1.6368 -0.6267
  691MOL0     H93268   8.171   4.980   6.919  1.6004  1.5184 -0.6425
  691MOL0     H93269   8.171   4.660   6.871  0.7839  0.8061 -0.1565
  691MOL0     H93270   8.353   4.599   7.025 -0.9804 -1.1835  0.9033
  691MOL0     H93271   9.700   5.860   7.577 -0.2498 -0.0196 -0.3428
  691MOL0     H93272   9.896   6.002   7.609 -3.5872  1.8944  0.2347
  691MOL0     H93273  10.191   6.288   7.311  0.9955 -2.3761 -0.9238
  691MOL0     H93274  10.347   6.478   7.305  3.5742  0.3981  0.6795
  691MOL0     H93275  10.515   6.590   7.646 -2.8039 -0.1175 -2.4101
  691MOL0     H93276  10.667   6.514   7.626  2.2625  1.4335 -2.8377
  691MOL0     H93277  10.734   6.733   7.623 -0.6333 -0.9208  1.3909
  691MOL0     H93278  10.590   6.789   7.554  0.3348  0.7282 -0.7465
  691MOL0     H93279  10.688   6.689   7.332 -0.4622 -0.0996 -0.3805
  691MOL0     H93280  10.835   6.652   7.428 -0.2798 -0.9978 -1.1919
  691MOL0     H93281  10.907   6.860   7.452 -0.6661 -3.0786  1.3821
  691MOL0     H93282  10.736   6.928   7.427  0.8730  0.6426 -0.0587
  691MOL0     H93283  10.869   6.879   7.029 -2.1034  3.0502 -0.2686
  691MOL0     H93284  10.559   6.296   7.623  1.0257  4.0101 -0.4291
  691MOL0     H93285  10.374   6.121   7.652  0.0949 -0.3019  0.7762
  692MOL0     O93286   9.387   7.927   2.340 -0.7362 -0.0465  0.9141
  692MOL0     C93287   9.375   7.826   2.265  0.0116  0.0937  0.2039
  692MOL0     O93288   9.334   7.702   2.312 -0.3868  0.2979  0.1641
  692MOL0     C93289   9.347   7.677   2.447 -0.3004  0.3103 -0.4232
  692MOL0     C93290   9.246   7.611   2.514 -0.0581  0.2058 -0.0765
  692MOL0     C93291   9.269   7.554   2.636  0.5844  0.6418  0.9063
  692MOL0     C93292   9.395   7.567   2.699  0.4918  0.5455  0.6444
  692MOL0     O93293   9.420   7.509   2.816  0.2401  0.7609 -0.2487
  692MOL0     C93294   9.313   7.461   2.898  0.9909  0.4087  0.2722
  692MOL0     C93295   9.373   7.385   3.017  0.5298 -0.8714 -0.8221
  692MOL0     C93296   9.428   7.486   3.114 -0.4767  0.3064  0.8185
  692MOL0     C93297   9.519   7.409   3.214 -1.1169 -0.1856 -0.3168
  692MOL0     C93298   9.442   7.318   3.312 -0.1634 -0.5571  0.0541
  692MOL0     C93299   9.329   7.382   3.388 -0.8796 -0.2839 -1.4607
  692MOL0     C93300   9.294   7.304   3.511  0.0645  0.6618 -0.7201
  692MOL0     C93301   9.192   7.194   3.488 -0.3524 -1.1533 -0.6160
  692MOL0     N93302   9.253   7.077   3.436 -0.0365  0.4227  0.5107
  692MOL0     C93303   9.360   7.007   3.490  0.1740 -1.5431 -0.0193
  692MOL0     C93304   9.358   6.894   3.429  0.5422 -0.2513 -1.0490
  692MOL0     C93305   9.445   6.773   3.451 -0.1199  0.1015 -0.5063
  692MOL0     C93306   9.362   6.653   3.506  0.5441  0.5479  0.0566
  692MOL0     C93307   9.342   6.662   3.664 -0.4003 -0.4988 -0.4159
  692MOL0     C93308   9.465   6.604   3.746 -0.2203  0.1641  1.3328
  692MOL0     O93309   9.440   6.629   3.888 -0.2634  0.4211  0.3654
  692MOL0     C93310   9.538   6.567   3.961  0.7392 -0.0813 -0.1139
  692MOL0     C93311   9.492   6.482   4.052  0.5710  0.1857 -0.6963
  692MOL0     C93312   9.579   6.430   4.154  0.1366  1.0878  0.6667
  692MOL0     C93313   9.515   6.315   4.240  0.3081  0.4322  0.3547
  692MOL0     C93314   9.715   6.462   4.155  0.3900 -0.5335  0.3910
  692MOL0     C93315   9.806   6.420   4.266 -0.1749  0.1069  0.2402
  692MOL0     O93316   9.939   6.430   4.234 -0.0166 -0.1479  0.0259
  692MOL0     C93317  10.047   6.395   4.318 -0.5231 -0.1464 -1.0258
  692MOL0     C93318  10.157   6.484   4.326  0.0720 -0.1246  0.6991
  692MOL0     C93319  10.269   6.455   4.400 -0.1633 -0.6208  0.5841
  692MOL0     C93320  10.280   6.335   4.474  0.4520 -0.0878  0.3625
  692MOL0     O93321  10.384   6.312   4.563 -0.5507  0.0401  0.4759
  692MOL0     C93322  10.378   6.398   4.679  0.1378  0.1057 -0.1984
  692MOL0     C93323  10.495   6.386   4.777 -0.6342  0.3528  0.2305
  692MOL0     C93324  10.627   6.371   4.695  0.9934 -0.0112  0.0179
  692MOL0     C93325  10.754   6.388   4.770  0.6231 -0.1761  0.2667
  692MOL0     C93326  10.863   6.334   4.686  0.1068  0.6502 -0.3466
  692MOL0     C93327  10.986   6.359   4.769 -1.5821 -0.7804  0.1007
  692MOL0     C93328  11.110   6.370   4.693  0.2084  0.0050  0.2191
  692MOL0     C93329  11.170   6.233   4.663  0.6187 -0.0260 -0.3073
  692MOL0    Cl93330  11.327   6.264   4.596  0.5004  0.1040 -0.0041
  692MOL0     C93331  10.162   6.254   4.467 -0.6697  0.7447  0.3442
  692MOL0     C93332  10.047   6.281   4.394  0.2590  0.7073  0.5825
  692MOL0     O93333   9.759   6.386   4.377 -0.3416 -0.0754  0.4123
  692MOL0     C93334   9.757   6.544   4.048  0.4215  0.4414  0.1125
  692MOL0     C93335   9.668   6.604   3.955 -0.2210  0.5432  0.3255
  692MOL0     N93336   9.276   6.901   3.323 -0.4016  0.0685  0.5379
  692MOL0     N93337   9.208   7.014   3.324 -0.0930  0.2546 -0.0205
  692MOL0     C93338   9.492   7.638   2.640 -1.1933 -0.8540 -0.3463
  692MOL0     C93339   9.467   7.690   2.512 -0.4933  0.3443 -0.2571
  692MOL0     C93340   9.385   7.842   2.122 -0.0652 -0.4077 -0.0659
  692MOL0     C93341   9.334   7.755   2.025 -0.7311 -0.0492  0.0214
  692MOL0     C93342   9.338   7.782   1.885 -0.4638  0.3748  0.7263
  692MOL0     C93343   9.386   7.910   1.843  0.0804  0.2863 -0.8417
  692MOL0     O93344   9.391   7.949   1.714  0.0837 -0.4524 -0.1829
  692MOL0     C93345   9.355   8.086   1.684 -0.4538 -0.9577 -0.8137
  692MOL0     C93346   9.277   8.098   1.549 -0.7149  0.3876 -0.2363
  692MOL0     C93347   9.196   8.231   1.537 -0.2525  0.1674 -0.3297
  692MOL0     C93348   9.280   8.349   1.533 -0.3960  0.1260  0.1648
  692MOL0     C93349   9.196   8.469   1.517  0.6051 -0.3435 -0.4578
  692MOL0     C93350   9.142   8.577   1.501  1.2431  0.2921 -0.3116
  692MOL0     C93351   9.420   7.998   1.948  0.3117  0.0435  0.9963
  692MOL0     C93352   9.428   7.967   2.080 -0.1676  0.3984  0.6395
  692MOL0     H93353   9.158   7.585   2.457  0.1048 -1.2958  0.3171
  692MOL0     H93354   9.192   7.488   2.674  1.7710 -0.5476  1.3582
  692MOL0     H93355   9.253   7.550   2.921 -3.4822 -2.2666  0.2005
  692MOL0     H93356   9.246   7.389   2.850  4.9374 -1.5666 -2.8626
  692MOL0     H93357   9.295   7.325   3.064 -0.7833 -0.1792 -2.0265
  692MOL0     H93358   9.453   7.321   2.979  0.7598 -0.6132 -0.7696
  692MOL0     H93359   9.485   7.566   3.067  0.1566 -0.2854  0.5539
  692MOL0     H93360   9.345   7.532   3.167 -1.5687 -0.4931 -0.1386
  692MOL0     H93361   9.602   7.356   3.165  0.8702  0.3680  2.2069
  692MOL0     H93362   9.558   7.491   3.276 -0.8182  0.4520 -1.3276
  692MOL0     H93363   9.397   7.225   3.274 -0.6572 -0.3080  0.0177
  692MOL0     H93364   9.516   7.281   3.383  1.8750  2.3124 -0.3836
  692MOL0     H93365   9.356   7.479   3.430 -1.6226 -0.4860 -0.4730
  692MOL0     H93366   9.243   7.394   3.322 -1.5767 -0.6639 -0.6458
  692MOL0     H93367   9.382   7.262   3.560  2.1828  3.0235 -2.2538
  692MOL0     H93368   9.256   7.374   3.585 -0.6363  2.0560 -2.3212
  692MOL0     H93369   9.118   7.247   3.427  0.2455 -1.9423 -2.0775
  692MOL0     H93370   9.142   7.185   3.585  1.3651  0.8149  0.5203
  692MOL0     H93371   9.413   7.035   3.581 -0.3176  0.4863 -0.3042
  692MOL0     H93372   9.489   6.750   3.354  0.0254  0.6678 -0.5715
  692MOL0     H93373   9.520   6.788   3.529 -2.0294 -0.8802  1.6928
  692MOL0     H93374   9.425   6.564   3.496  2.0900  1.6748 -0.6717
  692MOL0     H93375   9.270   6.652   3.447  1.2721  1.8220 -1.1769
  692MOL0     H93376   9.253   6.610   3.700  0.4759 -1.1956  0.8131
  692MOL0     H93377   9.332   6.767   3.690 -1.5775 -0.2333 -1.8243
  692MOL0     H93378   9.555   6.660   3.717  0.2718 -2.3553 -2.6666
  692MOL0     H93379   9.477   6.499   3.719 -0.4051  0.2115  1.0683
  692MOL0     H93380   9.384   6.473   4.058  0.5425 -1.3187 -2.5498
  692MOL0     H93381   9.586   6.233   4.255 -0.2448 -0.3745 -1.1578
  692MOL0     H93382   9.488   6.352   4.339  0.3478  0.5677  0.3145
  692MOL0     H93383   9.428   6.276   4.186  0.3531  1.2431 -0.3347
  692MOL0     H93384  10.154   6.573   4.263  3.4246 -0.4090 -0.0052
  692MOL0     H93385  10.352   6.525   4.398  0.2528 -1.1254  0.0941
  692MOL0     H93386  10.354   6.504   4.669 -0.1427  0.3460  2.2210
  692MOL0     H93387  10.290   6.364   4.735  0.7112 -0.3776  0.4236
  692MOL0     H93388  10.510   6.473   4.843  0.6225  0.5947 -0.3465
  692MOL0     H93389  10.485   6.297   4.839  1.4152  0.5797  0.9472
  692MOL0     H93390  10.625   6.438   4.608 -2.3548 -0.4897 -0.4104
  692MOL0     H93391  10.622   6.266   4.661 -1.0423  0.3607 -0.9928
  692MOL0     H93392  10.763   6.494   4.794 -1.0708  0.0538  0.0312
  692MOL0     H93393  10.753   6.330   4.863  1.7260 -1.0859 -0.2550
  692MOL0     H93394  10.867   6.381   4.587 -1.8861 -0.5627 -1.0608
  692MOL0     H93395  10.841   6.227   4.679  1.3838  0.4412 -1.6035
  692MOL0     H93396  10.972   6.452   4.824 -1.8873 -0.7275 -0.0646
  692MOL0     H93397  10.997   6.277   4.842 -2.2029 -0.9256  0.0343
  692MOL0     H93398  11.187   6.435   4.735  1.0880 -0.2092 -1.0136
  692MOL0     H93399  11.083   6.410   4.595 -0.5153 -0.0979  0.3719
  692MOL0     H93400  11.098   6.173   4.605 -1.3427  0.7268  1.2429
  692MOL0     H93401  11.182   6.190   4.763  0.8946  4.1250  1.6352
  692MOL0     H93402  10.173   6.166   4.528 -2.3286 -0.3062 -0.7825
  692MOL0     H93403   9.974   6.202   4.377 -4.3270  4.5411  0.2911
  692MOL0     H93404   9.863   6.567   4.053  0.8105 -0.8299 -1.4965
  692MOL0     H93405   9.709   6.672   3.882  0.4064 -1.5271 -1.3703
  692MOL0     H93406   9.586   7.664   2.687 -0.6073  0.9837 -2.3786
  692MOL0     H93407   9.544   7.740   2.455 -0.4955  0.7128  0.0529
  692MOL0     H93408   9.286   7.665   2.061 -1.7641  1.4778  2.7507
  692MOL0     H93409   9.300   7.706   1.818  0.5088  0.2628  0.2897
  692MOL0     H93410   9.296   8.129   1.765 -0.5265  0.8198 -1.7611
  692MOL0     H93411   9.445   8.148   1.678 -0.0490 -1.4891 -0.1979
  692MOL0     H93412   9.208   8.014   1.541  0.3291 -1.1521  4.3099
  692MOL0     H93413   9.353   8.090   1.471 -0.5766 -0.4216 -0.0226
  692MOL0     H93414   9.138   8.239   1.629 -0.3879  0.4494 -0.4395
  692MOL0     H93415   9.145   8.227   1.440  2.4107 -3.5467 -1.8299
  692MOL0     H93416   9.352   8.339   1.451 -1.5748  0.3398 -0.9392
  692MOL0     H93417   9.332   8.352   1.629  0.4215  3.0229 -0.2626
  692MOL0     H93418   9.090   8.670   1.498 -0.1823 -0.5004 -1.1400
  692MOL0     H93419   9.443   8.101   1.926 -0.2564 -0.0174  0.0966
  692MOL0     H93420   9.471   8.044   2.142  0.1703  0.7147  0.0250
  693MOL0     O93421   9.549  11.290   9.519  0.3543  0.2433  0.5058
  693MOL0     C93422   9.499  11.177   9.531 -0.0727 -0.3784 -0.1780
  693MOL0     O93423   9.464  11.121   9.652 -0.6998 -0.1692  0.7051
  693MOL0     C93424   9.454  11.204   9.763  0.4765 -0.4076 -0.8133
  693MOL0     C93425   9.546  11.210   9.855  0.5609  0.0175 -0.2648
  693MOL0     C93426   9.531  11.290   9.970  0.9380  0.2418  0.0127
  693MOL0     C93427   9.410  11.359   9.992 -0.5471  0.3413  0.5887
  693MOL0     O93428   9.383  11.423  10.110 -0.8299  0.2628  0.5224
  693MOL0     C93429   9.465  11.542  10.121  0.7719 -0.5197  0.1158
  693MOL0     C93430   9.490  11.590  10.261  0.1025 -0.0756 -0.8155
  693MOL0     C93431   9.521  11.737  10.269  0.0081  0.4525 -0.4534
  693MOL0     C93432   9.650  11.763  10.195  0.0955 -0.6271 -0.5715
  693MOL0     C93433   9.720  11.888  10.248 -0.2397 -0.7857 -0.4784
  693MOL0     C93434   9.863  11.901  10.202 -0.4221  0.0283  0.2403
  693MOL0     C93435   9.939  12.007  10.279 -0.3808 -0.2750 -0.1655
  693MOL0     C93436  10.004  11.976  10.418  0.3132 -0.4850  0.2903
  693MOL0     N93437  10.038  12.097  10.495  0.0564 -0.8182 -0.1481
  693MOL0     C93438   9.961  12.150  10.600 -0.2346  0.4664  0.1194
  693MOL0     C93439  10.035  12.257  10.647 -0.3282 -0.8098  0.0003
  693MOL0     C93440   9.994  12.356  10.765 -0.0979  0.4580  0.3885
  693MOL0     C93441   9.944  12.284  10.896  0.1512 -0.4626 -0.0844
  693MOL0     C93442   9.946  12.367  11.017  0.4424  0.3199 -0.6799
  693MOL0     C93443   9.895  12.284  11.139  0.3462 -0.3046  0.4000
  693MOL0     O93444   9.750  12.268  11.139 -0.4410  0.3019  0.2529
  693MOL0     C93445   9.717  12.201  11.250 -0.3067 -0.2691  0.1064
  693MOL0     C93446   9.727  12.063  11.260  0.2520  0.1651  1.2812
  693MOL0     C93447   9.668  11.994  11.372  0.3604 -0.2276  0.2033
  693MOL0     C93448   9.679  11.843  11.367  0.3376  0.1833 -0.7197
  693MOL0     C93449   9.603  12.064  11.479  0.7859 -0.6640  0.6322
  693MOL0     C93450   9.535  12.008  11.593  0.2332 -0.6656  0.8026
  693MOL0     O93451   9.552  12.068  11.711  0.7237  0.2408 -0.4045
  693MOL0     C93452   9.490  12.015  11.823  0.0565  0.2469  0.2367
  693MOL0     C93453   9.356  11.962  11.818 -1.2816  0.5562  0.2108
  693MOL0     C93454   9.292  11.921  11.934 -0.1343  0.1746  0.1415
  693MOL0     C93455   9.345  11.954  12.054 -0.1643  0.5809 -0.7649
  693MOL0     O93456   9.291  11.920  12.172  0.4460 -0.2826  0.3739
  693MOL0     C93457   9.150  11.926  12.181  0.0476  0.2492  0.8477
  693MOL0     C93458   9.113  12.077  12.176 -0.3952 -0.1576  0.0060
  693MOL0     C93459   9.170  12.148  12.301 -0.7133 -0.5585 -0.4862
  693MOL0     C93460   9.286  12.241  12.266  0.0759 -0.1704 -0.0515
  693MOL0     C93461   9.344  12.304  12.392 -0.2266  0.5853  0.4245
  693MOL0     C93462   9.494  12.344  12.376 -0.4905 -0.2245  0.6957
  693MOL0     C93463   9.583  12.219  12.374  1.0758  0.0442  0.7100
  693MOL0     C93464   9.722  12.261  12.419 -0.6099  0.1922 -0.0720
  693MOL0    Cl93465   9.816  12.111  12.441 -0.0295 -0.2860  0.5645
  693MOL0     C93466   9.478  11.985  12.064  0.4619 -0.5544 -0.5302
  693MOL0     C93467   9.550  12.021  11.945 -0.7473 -0.1147  1.2302
  693MOL0     O93468   9.484  11.894  11.578  0.2174 -0.0934  0.1294
  693MOL0     C93469   9.614  12.204  11.472  0.7992 -0.2605 -0.3196
  693MOL0     C93470   9.673  12.265  11.366 -0.5842 -0.7148 -0.1556
  693MOL0     N93471  10.144  12.271  10.561  0.7814  0.4266  0.1765
  693MOL0     N93472  10.152  12.166  10.481 -0.9238 -0.2193  0.0652
  693MOL0     C93473   9.317  11.354   9.893  0.1088 -0.2298 -0.1266
  693MOL0     C93474   9.338  11.278   9.780  0.1590  0.5912 -0.4298
  693MOL0     C93475   9.471  11.100   9.411 -0.2207  0.8345 -0.0521
  693MOL0     C93476   9.399  10.979   9.420  0.1400 -0.4480  0.6014
  693MOL0     C93477   9.369  10.900   9.308  0.0864 -0.4336 -0.9976
  693MOL0     C93478   9.402  10.939   9.178  1.1344 -0.4002  0.3368
  693MOL0     O93479   9.363  10.883   9.060 -0.5293  0.3777 -0.7199
  693MOL0     C93480   9.299  10.754   9.066  0.2122  0.2364  1.0934
  693MOL0     C93481   9.262  10.692   8.926 -0.5164  0.2684 -0.7834
  693MOL0     C93482   9.363  10.755   8.827  0.7052 -0.1484  1.4026
  693MOL0     C93483   9.324  10.719   8.680 -0.9874 -0.6319 -0.1348
  693MOL0     C93484   9.404  10.793   8.583  0.8385 -0.3568 -0.3144
  693MOL0     C93485   9.476  10.841   8.502 -0.2570 -0.2682 -0.6926
  693MOL0     C93486   9.482  11.053   9.167 -0.2697 -0.1012 -0.3693
  693MOL0     C93487   9.510  11.133   9.281 -0.1606  0.6355 -0.4570
  693MOL0     H93488   9.640  11.156   9.843  1.8950  2.4425 -1.4701
  693MOL0     H93489   9.603  11.273  10.050 -0.8145  0.0431  1.6117
  693MOL0     H93490   9.567  11.534  10.083  1.7969  0.3564  2.5179
  693MOL0     H93491   9.410  11.616  10.062 -0.2049 -1.4710 -0.2144
  693MOL0     H93492   9.394  11.584  10.313  0.2021  0.9834 -0.4868
  693MOL0     H93493   9.573  11.529  10.296  0.8836 -0.4984 -3.2171
  693MOL0     H93494   9.445  11.799  10.220 -1.5198  0.3660  1.6686
  693MOL0     H93495   9.535  11.765  10.374 -5.2926 -2.8605  1.5787
  693MOL0     H93496   9.721  11.681  10.211 -1.8613 -1.9451  2.1170
  693MOL0     H93497   9.619  11.765  10.090 -1.6879 -0.8366 -0.0716
  693MOL0     H93498   9.670  11.980  10.217  2.2042  0.4346 -1.0173
  693MOL0     H93499   9.713  11.877  10.357 -1.1666 -1.6815 -0.6145
  693MOL0     H93500   9.910  11.802  10.210 -1.1148 -0.1755  2.4133
  693MOL0     H93501   9.858  11.930  10.096  1.4095 -0.9630 -0.1509
  693MOL0     H93502  10.024  12.041  10.219 -0.3355  1.5702  0.8706
  693MOL0     H93503   9.871  12.092  10.287  0.0168 -0.1196  2.2009
  693MOL0     H93504  10.095  11.918  10.399  1.5088  0.9418  1.4467
  693MOL0     H93505   9.928  11.919  10.474 -1.5141 -1.3261 -2.8208
  693MOL0     H93506   9.866  12.111  10.635 -0.8246 -0.9945 -2.8092
  693MOL0     H93507  10.081  12.417  10.791 -1.0040  1.3152  1.5342
  693MOL0     H93508   9.917  12.422  10.725  1.3175 -0.0318 -3.5818
  693MOL0     H93509   9.990  12.185  10.911  0.5523 -0.5003 -1.3926
  693MOL0     H93510   9.846  12.242  10.873  1.6182 -4.8343  0.6617
  693MOL0     H93511   9.885  12.455  10.997  0.7617  0.7433  0.1725
  693MOL0     H93512  10.052  12.383  11.039  0.8197 -2.3662 -0.1730
  693MOL0     H93513   9.925  12.336  11.230  1.6842  1.9843 -1.2295
  693MOL0     H93514   9.951  12.190  11.133 -1.0549 -1.2663  1.6367
  693MOL0     H93515   9.768  12.005  11.178  1.1823  0.8666  1.2336
  693MOL0     H93516   9.581  11.806  11.334 -0.6331  1.1825  0.8659
  693MOL0     H93517   9.766  11.805  11.313 -0.5289 -1.0295 -1.3122
  693MOL0     H93518   9.699  11.816  11.471 -1.9234 -0.7175 -0.4472
  693MOL0     H93519   9.293  11.947  11.730 -2.4259 -0.3699  1.1589
  693MOL0     H93520   9.189  11.888  11.923  0.2835 -0.7583 -1.2414
  693MOL0     H93521   9.092  11.875  12.103 -1.5355  0.4550  1.8527
  693MOL0     H93522   9.126  11.883  12.278 -1.3103 -0.8955  0.0403
  693MOL0     H93523   9.141  12.118  12.078 -2.2062 -3.0197 -1.8436
  693MOL0     H93524   9.004  12.088  12.175 -0.4399 -0.2923 -2.2576
  693MOL0     H93525   9.206  12.073  12.372  0.4760  0.9664  0.5856
  693MOL0     H93526   9.094  12.190  12.368 -0.7391 -2.0003  0.4389
  693MOL0     H93527   9.365  12.182  12.218  0.6121 -0.8472  1.5774
  693MOL0     H93528   9.259  12.322  12.198  1.0662  0.1721 -0.0646
  693MOL0     H93529   9.323  12.233  12.472 -0.9261 -0.1018 -0.3412
  693MOL0     H93530   9.291  12.399  12.405 -2.0023 -0.5042  1.6566
  693MOL0     H93531   9.512  12.391  12.279  2.1631 -0.3745  1.0620
  693MOL0     H93532   9.524  12.412  12.456 -0.8616  1.0706 -0.2229
  693MOL0     H93533   9.583  12.179  12.272  0.0715  1.5450  0.0907
  693MOL0     H93534   9.544  12.148  12.448 -2.1715  2.7479  1.8579
  693MOL0     H93535   9.707  12.307  12.517 -0.8395 -1.8339  0.9035
  693MOL0     H93536   9.768  12.329  12.347  0.3472 -0.4143 -0.0586
  693MOL0     H93537   9.518  11.971  12.164  0.9260 -2.7300 -0.9573
  693MOL0     H93538   9.650  12.063  11.950 -0.6596 -0.4738  4.1176
  693MOL0     H93539   9.581  12.265  11.556 -2.4990  0.1768 -1.7778
  693MOL0     H93540   9.675  12.374  11.370  2.0547 -0.7381  2.0744
  693MOL0     H93541   9.218  11.398   9.891  0.7072  1.3441  1.8168
  693MOL0     H93542   9.256  11.276   9.709 -2.1490 -2.0718  2.0218
  693MOL0     H93543   9.376  10.944   9.521 -2.5276 -0.4787  0.0547
  693MOL0     H93544   9.321  10.805   9.332 -0.4430 -0.0962 -0.7026
  693MOL0     H93545   9.371  10.680   9.101 -1.1015 -1.8968 -0.4851
  693MOL0     H93546   9.215  10.748   9.135  0.5753 -2.7562  1.4047
  693MOL0     H93547   9.156  10.707   8.905  0.0528  3.6872 -1.7950
  693MOL0     H93548   9.275  10.583   8.918  0.9143  0.3984 -0.4410
  693MOL0     H93549   9.468  10.739   8.856  0.7491  0.8615  1.8665
  693MOL0     H93550   9.335  10.860   8.842 -1.6859 -0.8931  2.6247
  693MOL0     H93551   9.219  10.743   8.660 -1.6301 -1.1832  2.2299
  693MOL0     H93552   9.323  10.609   8.678  1.4755 -0.7984  1.9031
  693MOL0     H93553   9.550  10.876   8.433  1.8233 -4.3998 -0.8726
  693MOL0     H93554   9.514  11.084   9.068 -0.5938  1.3769 -0.0406
  693MOL0     H93555   9.564  11.225   9.262  1.1129  0.1292  0.5502
  694MOL0     O93556   8.109   7.776   6.530 -0.3416  0.0158  0.3978
  694MOL0     C93557   8.073   7.900   6.529  0.2895  0.3140 -0.7740
  694MOL0     O93558   7.963   7.951   6.481 -0.2528  0.0025  1.0883
  694MOL0     C93559   7.865   7.860   6.442 -0.9988 -0.0408 -0.4823
  694MOL0     C93560   7.818   7.743   6.502  0.4304 -0.6802 -0.0889
  694MOL0     C93561   7.711   7.665   6.455  0.2544 -0.4102  0.2069
  694MOL0     C93562   7.645   7.700   6.342  0.7724  0.2555 -0.3780
  694MOL0     O93563   7.527   7.622   6.324 -0.0079 -0.5783 -0.4991
  694MOL0     C93564   7.444   7.641   6.209  0.1875 -0.2958 -0.3066
  694MOL0     C93565   7.382   7.781   6.203 -1.0008 -0.7416  0.3491
  694MOL0     C93566   7.228   7.768   6.234  0.5328  0.1664  0.2236
  694MOL0     C93567   7.155   7.715   6.113 -0.0653 -0.4424 -0.6012
  694MOL0     C93568   7.003   7.735   6.104  0.3134  0.6526 -0.3029
  694MOL0     C93569   6.956   7.886   6.122 -0.4043 -0.4105  0.1082
  694MOL0     C93570   6.801   7.897   6.106  0.5571 -0.0605 -0.4166
  694MOL0     C93571   6.758   8.042   6.112  0.1495 -0.1125  0.2768
  694MOL0     N93572   6.749   8.092   6.254  0.7998 -0.0931  0.6399
  694MOL0     C93573   6.841   8.153   6.335  0.1438  0.2363  0.3097
  694MOL0     C93574   6.789   8.176   6.459 -1.2702  0.1045  0.3674
  694MOL0     C93575   6.855   8.248   6.575 -0.3697  0.2215  0.1421
  694MOL0     C93576   6.939   8.361   6.523  0.3390  0.1779 -0.5584
  694MOL0     C93577   6.967   8.451   6.643 -1.3111 -0.3725  0.5670
  694MOL0     C93578   7.065   8.379   6.743 -0.3958  0.0047  0.5605
  694MOL0     O93579   7.197   8.390   6.685 -0.0905 -0.1433 -0.5912
  694MOL0     C93580   7.288   8.466   6.759  0.1507 -0.1358 -0.1048
  694MOL0     C93581   7.306   8.603   6.749  0.6750  0.2875 -0.0443
  694MOL0     C93582   7.395   8.666   6.834  0.1144 -1.1177 -0.4792
  694MOL0     C93583   7.422   8.812   6.818 -0.0110 -0.5469  0.5011
  694MOL0     C93584   7.476   8.594   6.932  0.2404 -0.7003  0.2315
  694MOL0     C93585   7.575   8.659   7.021  0.1292 -0.3808 -0.5545
  694MOL0     O93586   7.604   8.597   7.132  0.3103  0.1147  0.3643
  694MOL0     C93587   7.678   8.666   7.228  0.3408  0.2497  0.0066
  694MOL0     C93588   7.766   8.595   7.305  0.2096 -0.4107  0.1354
  694MOL0     C93589   7.847   8.649   7.405 -0.5293  0.2523 -0.4617
  694MOL0     C93590   7.809   8.777   7.452 -0.6024  0.0399  0.2400
  694MOL0     O93591   7.863   8.805   7.570  0.0649 -0.4259  0.4378
  694MOL0     C93592   7.898   8.939   7.596 -0.0045 -0.2734 -0.2642
  694MOL0     C93593   8.013   8.938   7.703 -0.5473 -0.4095  0.4624
  694MOL0     C93594   8.160   8.933   7.643  0.5114  0.6675  0.7714
  694MOL0     C93595   8.263   8.916   7.761 -1.2268 -1.1428 -0.2522
  694MOL0     C93596   8.392   8.859   7.696  1.3251 -0.4059 -0.5530
  694MOL0     C93597   8.490   8.817   7.809  0.6670 -0.1893 -0.4868
  694MOL0     C93598   8.629   8.800   7.750 -0.2717  0.7652 -0.4040
  694MOL0     C93599   8.730   8.752   7.864 -0.2483 -0.1352 -0.0382
  694MOL0    Cl93600   8.902   8.726   7.797  0.2285 -0.5389  0.0991
  694MOL0     C93601   7.706   8.844   7.386  0.1955  0.1222  0.2315
  694MOL0     C93602   7.649   8.801   7.268  0.4714 -0.7205 -0.1298
  694MOL0     O93603   7.646   8.740   6.972 -0.3861 -0.3690 -0.1552
  694MOL0     C93604   7.461   8.453   6.928 -0.1588  0.0761 -0.0671
  694MOL0     C93605   7.368   8.391   6.839  0.1507  0.5873 -0.8525
  694MOL0     N93606   6.655   8.147   6.441 -0.4431  0.0168  0.3976
  694MOL0     N93607   6.634   8.094   6.325  0.4248 -0.9026 -0.4026
  694MOL0     C93608   7.693   7.814   6.274  0.8203 -0.0610 -0.2074
  694MOL0     C93609   7.797   7.894   6.325  0.0895  0.0937  0.3061
  694MOL0     C93610   8.174   7.992   6.592 -0.2913 -0.2084 -0.1729
  694MOL0     C93611   8.163   8.123   6.588  0.1837 -1.4812 -0.2114
  694MOL0     C93612   8.256   8.207   6.644 -0.1344  0.1672  0.0014
  694MOL0     C93613   8.370   8.158   6.712 -0.6216  0.3859  0.6283
  694MOL0     O93614   8.458   8.259   6.747 -0.2234 -0.3858 -0.7195
  694MOL0     C93615   8.555   8.232   6.848  0.8038 -0.4865  0.4624
  694MOL0     C93616   8.596   8.366   6.907 -0.6123 -0.2543  0.2151
  694MOL0     C93617   8.717   8.339   6.996  0.2121  0.4187  1.0835
  694MOL0     C93618   8.807   8.463   7.017 -0.2127  0.0528  0.0845
  694MOL0     C93619   8.939   8.435   7.070 -0.1479  1.0600  1.3762
  694MOL0     C93620   9.054   8.412   7.102 -0.4158 -0.9921 -0.4276
  694MOL0     C93621   8.381   8.020   6.741 -0.1698 -0.3483  0.6314
  694MOL0     C93622   8.282   7.939   6.668 -0.0757  0.4639 -0.3091
  694MOL0     H93623   7.861   7.711   6.597 -0.2027  0.3753  0.5810
  694MOL0     H93624   7.689   7.574   6.509  0.2454  0.6864  2.1331
  694MOL0     H93625   7.506   7.625   6.121  1.5041  1.3055  0.2729
  694MOL0     H93626   7.365   7.566   6.223 -1.8141  2.0443  2.3202
  694MOL0     H93627   7.427   7.845   6.279  0.5278 -0.1410 -0.9979
  694MOL0     H93628   7.406   7.828   6.107  2.8091  1.3490  2.1407
  694MOL0     H93629   7.212   7.693   6.312  0.9153 -0.9083 -0.6963
  694MOL0     H93630   7.197   7.865   6.273  3.2492  0.5400  1.6641
  694MOL0     H93631   7.187   7.761   6.019 -2.3694  4.2158  0.5573
  694MOL0     H93632   7.178   7.608   6.107  3.1820  0.2104 -1.2555
  694MOL0     H93633   6.966   7.684   6.014  2.8535 -0.1983 -0.9456
  694MOL0     H93634   6.949   7.686   6.186  1.1227  1.4380  0.7228
  694MOL0     H93635   6.972   7.904   6.229 -4.1706 -0.5814  0.8472
  694MOL0     H93636   7.015   7.950   6.056 -4.4609  0.6966 -2.8071
  694MOL0     H93637   6.766   7.839   6.021 -1.1486 -0.9648  0.8249
  694MOL0     H93638   6.748   7.851   6.191  0.6196 -2.0846 -1.4276
  694MOL0     H93639   6.654   8.038   6.077 -0.9872 -1.9519  3.4459
  694MOL0     H93640   6.819   8.110   6.052  0.0064  1.6053  1.9906
  694MOL0     H93641   6.940   8.171   6.295  0.4870 -0.3316  0.8848
  694MOL0     H93642   6.783   8.277   6.652  0.3678  1.3523  0.4326
  694MOL0     H93643   6.923   8.181   6.630 -1.2248 -0.6771  0.1272
  694MOL0     H93644   6.876   8.413   6.451 -2.1371 -0.3246  1.1142
  694MOL0     H93645   7.036   8.342   6.476 -0.5159 -0.7538 -2.0137
  694MOL0     H93646   6.874   8.466   6.699 -2.2262  0.3007 -1.0788
  694MOL0     H93647   6.999   8.551   6.612 -4.2645  0.1195 -1.3159
  694MOL0     H93648   7.044   8.276   6.770  2.1463 -0.6674  0.2926
  694MOL0     H93649   7.056   8.436   6.836 -0.8115 -0.3654  0.7491
  694MOL0     H93650   7.242   8.657   6.681  1.2234  3.4352  1.6837
  694MOL0     H93651   7.516   8.822   6.761  0.5199 -1.6166  1.1619
  694MOL0     H93652   7.348   8.861   6.754  0.5835 -1.0816 -0.6311
  694MOL0     H93653   7.429   8.863   6.914  0.7185 -1.6090  1.0354
  694MOL0     H93654   7.780   8.488   7.295 -4.9019 -1.5542  2.1069
  694MOL0     H93655   7.935   8.598   7.443  0.4640  3.2691  1.6129
  694MOL0     H93656   7.942   8.999   7.516  0.1958  0.7582  0.5904
  694MOL0     H93657   7.819   8.978   7.662  1.7337  4.0719 -0.4045
  694MOL0     H93658   8.006   9.018   7.777  3.4646 -0.2515  0.9202
  694MOL0     H93659   8.004   8.848   7.764 -2.1277  0.7604  2.0299
  694MOL0     H93660   8.181   9.018   7.578  1.5727 -1.4219 -1.7887
  694MOL0     H93661   8.168   8.846   7.576  0.4970  1.6619 -0.5489
  694MOL0     H93662   8.272   9.013   7.812  0.5631 -1.9472  1.0401
  694MOL0     H93663   8.222   8.851   7.838 -0.7952 -0.0808  0.9144
  694MOL0     H93664   8.434   8.942   7.639  0.6782  1.9424  2.1620
  694MOL0     H93665   8.376   8.776   7.627 -1.8373  0.5764 -1.1771
  694MOL0     H93666   8.487   8.897   7.884 -2.3189 -0.0877 -0.6146
  694MOL0     H93667   8.460   8.727   7.864 -0.2879  0.2193 -0.3324
  694MOL0     H93668   8.661   8.894   7.704  0.5577  0.2642 -0.8794
  694MOL0     H93669   8.649   8.719   7.680  1.2752 -0.2337  1.1071
  694MOL0     H93670   8.683   8.663   7.906  0.8566 -0.1847  1.1472
  694MOL0     H93671   8.744   8.837   7.931 -1.0548  0.4248 -0.5555
  694MOL0     H93672   7.665   8.934   7.431 -0.2088 -0.1373  0.3917
  694MOL0     H93673   7.564   8.850   7.222 -1.1787 -3.8318 -0.6083
  694MOL0     H93674   7.511   8.391   7.002 -0.5051 -2.8069 -2.0949
  694MOL0     H93675   7.339   8.287   6.835 -1.6790  0.9129  1.7715
  694MOL0     H93676   7.637   7.852   6.189  3.2053  0.6270 -1.5768
  694MOL0     H93677   7.831   7.988   6.285  0.6020 -0.3930 -0.4326
  694MOL0     H93678   8.077   8.169   6.539 -0.9694 -1.8145  1.4307
  694MOL0     H93679   8.256   8.315   6.634  0.9957  1.0741  5.9884
  694MOL0     H93680   8.512   8.178   6.933 -0.0296  1.3181  1.2525
  694MOL0     H93681   8.636   8.173   6.803 -0.3660  0.6762 -3.5726
  694MOL0     H93682   8.509   8.412   6.954  0.0775  1.1334  0.1937
  694MOL0     H93683   8.619   8.431   6.822  2.7377 -3.3163 -1.4591
  694MOL0     H93684   8.785   8.264   6.955 -0.0071  1.0235 -0.4141
  694MOL0     H93685   8.672   8.304   7.090 -0.3177  1.5047  1.2530
  694MOL0     H93686   8.752   8.539   7.073 -1.0712 -0.6505  0.2190
  694MOL0     H93687   8.845   8.510   6.926  0.5763  0.7674  0.7609
  694MOL0     H93688   9.154   8.387   7.131 -0.0274  0.4986 -0.3818
  694MOL0     H93689   8.456   7.984   6.810  2.2882  0.3023 -1.5303
  694MOL0     H93690   8.274   7.834   6.694  0.4949  0.8215  1.4130
  695MOL0     O93691   9.360   4.884   3.564 -0.2265  0.2324  0.2927
  695MOL0     C93692   9.299   4.781   3.534  0.9665  0.5845  0.1812
  695MOL0     O93693   9.217   4.760   3.427 -0.2431  0.5175 -0.2525
  695MOL0     C93694   9.158   4.857   3.347  0.3644  0.0541  0.1489
  695MOL0     C93695   9.213   4.982   3.329 -0.1581 -0.2942 -0.0774
  695MOL0     C93696   9.148   5.078   3.253 -0.5129 -0.8571 -0.0662
  695MOL0     C93697   9.036   5.052   3.184 -0.0393  0.7840 -0.3698
  695MOL0     O93698   8.990   5.153   3.104  0.3387  0.0997  0.0244
  695MOL0     C93699   8.861   5.137   3.039 -0.3205  1.5983 -0.8454
  695MOL0     C93700   8.808   5.266   2.986 -0.2080 -0.9074  0.2958
  695MOL0     C93701   8.774   5.361   3.100  0.1037 -0.0808 -0.2327
  695MOL0     C93702   8.650   5.316   3.178  0.0726  0.0868  0.0532
  695MOL0     C93703   8.573   5.425   3.245  0.4280 -0.6204  0.5654
  695MOL0     C93704   8.499   5.526   3.147  1.2652  0.5061  0.0117
  695MOL0     C93705   8.425   5.632   3.234 -0.1841 -0.4020  0.3870
  695MOL0     C93706   8.289   5.584   3.298 -1.0624  0.6003  0.4451
  695MOL0     N93707   8.190   5.527   3.202 -0.0943 -0.3200  0.0178
  695MOL0     C93708   8.184   5.393   3.170 -0.3475  0.0830 -0.1749
  695MOL0     C93709   8.076   5.382   3.093 -0.1587 -0.3772  0.8652
  695MOL0     C93710   8.011   5.265   3.036 -0.3159 -0.0594  0.2390
  695MOL0     C93711   7.934   5.184   3.140  0.1033  1.7403  0.4953
  695MOL0     C93712   7.829   5.257   3.219  0.1897  0.3437  0.0317
  695MOL0     C93713   7.709   5.314   3.143  0.0830 -0.6151  0.4626
  695MOL0     O93714   7.581   5.278   3.187  0.0874  0.6979  0.2373
  695MOL0     C93715   7.463   5.328   3.125 -0.9232  0.0885  1.1533
  695MOL0     C93716   7.343   5.301   3.193 -0.0955  0.7848  0.1036
  695MOL0     C93717   7.218   5.339   3.146  0.9107 -0.2389 -1.3590
  695MOL0     C93718   7.111   5.315   3.254 -0.0691 -0.1634  0.4112
  695MOL0     C93719   7.217   5.416   3.036  1.6586 -0.3389 -0.1550
  695MOL0     C93720   7.094   5.491   2.996  0.2235 -0.5998  0.3319
  695MOL0     O93721   7.105   5.582   2.889  0.4306  0.2309 -0.6746
  695MOL0     C93722   7.009   5.665   2.846 -0.4339  0.5327  0.8536
  695MOL0     C93723   6.992   5.666   2.711 -0.9157  0.3621  0.2577
  695MOL0     C93724   6.893   5.747   2.642 -0.5034  0.0524 -1.0058
  695MOL0     C93725   6.816   5.844   2.720 -0.2681  0.0240  0.2418
  695MOL0     O93726   6.705   5.920   2.682  0.0423 -0.3073  0.0471
  695MOL0     C93727   6.656   5.916   2.548 -0.5873 -0.5630 -0.8208
  695MOL0     C93728   6.539   6.013   2.524 -0.6035 -0.8507 -0.6310
  695MOL0     C93729   6.506   6.015   2.372  0.4041 -1.1278  0.3948
  695MOL0     C93730   6.375   6.085   2.345  1.0540  0.2973  0.1150
  695MOL0     C93731   6.248   5.994   2.357 -0.2636 -1.1291 -0.8261
  695MOL0     C93732   6.119   6.073   2.313 -0.5166 -0.3883 -0.2438
  695MOL0     C93733   6.003   5.973   2.338  0.3182  0.5635 -0.2805
  695MOL0     C93734   5.878   5.989   2.248 -1.0107  0.7103 -0.1303
  695MOL0    Cl93735   5.914   5.899   2.100  0.2875  0.2348 -0.0194
  695MOL0     C93736   6.843   5.847   2.851  0.3053 -0.2888 -0.9866
  695MOL0     C93737   6.936   5.764   2.912 -0.6238  0.7425 -0.3525
  695MOL0     O93738   6.993   5.463   3.049 -0.0671 -0.1818 -0.3961
  695MOL0     C93739   7.332   5.448   2.960  0.4955  0.1007 -0.7657
  695MOL0     C93740   7.450   5.393   3.002  0.3519  0.1730  0.0244
  695MOL0     N93741   8.015   5.501   3.090 -0.0088 -0.1179 -0.4402
  695MOL0     N93742   8.085   5.590   3.150  0.2013 -0.0036 -0.2360
  695MOL0     C93743   8.975   4.928   3.199 -0.1445  0.2634 -0.9675
  695MOL0     C93744   9.042   4.830   3.276 -0.3197  0.5639  0.2792
  695MOL0     C93745   9.326   4.655   3.610  0.1177 -0.0407 -0.4337
  695MOL0     C93746   9.447   4.646   3.676 -0.3630  0.1130 -0.5673
  695MOL0     C93747   9.473   4.533   3.749 -0.4885  0.4756 -0.2297
  695MOL0     C93748   9.382   4.428   3.759  0.0033  0.4474  0.0821
  695MOL0     O93749   9.408   4.313   3.825 -0.2577 -0.7531  0.1353
  695MOL0     C93750   9.508   4.304   3.936  0.8810  0.0858  0.1165
  695MOL0     C93751   9.478   4.174   4.011  0.8062  0.2560  0.3336
  695MOL0     C93752   9.587   4.108   4.097 -0.0945 -0.3537 -0.6040
  695MOL0     C93753   9.713   4.054   4.035  0.4681  0.6175 -0.0589
  695MOL0     C93754   9.695   3.918   3.989  0.0283  0.7734  1.0164
  695MOL0     C93755   9.637   3.809   3.977  0.3501 -0.0455  0.1409
  695MOL0     C93756   9.256   4.441   3.693  0.1132  0.2443  0.2456
  695MOL0     C93757   9.231   4.558   3.623 -0.2518  1.0875 -0.4057
  695MOL0     H93758   9.304   5.021   3.374  0.5523  0.6751 -2.2265
  695MOL0     H93759   9.193   5.176   3.237  0.7802 -1.6884 -1.9121
  695MOL0     H93760   8.887   5.065   2.960 -0.0119  0.3965  0.3152
  695MOL0     H93761   8.787   5.088   3.102  1.5640 -0.5263 -0.1228
  695MOL0     H93762   8.891   5.313   2.933  2.5808 -1.2340  3.9383
  695MOL0     H93763   8.730   5.253   2.910  0.3946  1.9096 -0.9569
  695MOL0     H93764   8.858   5.368   3.171 -0.0734  0.3923 -0.0665
  695MOL0     H93765   8.760   5.463   3.065  2.4220  1.6116  3.1839
  695MOL0     H93766   8.585   5.266   3.106  1.5946  1.2481 -2.2253
  695MOL0     H93767   8.679   5.243   3.254 -1.1465 -0.2472  0.2140
  695MOL0     H93768   8.492   5.377   3.300  0.4485 -3.3353 -1.5545
  695MOL0     H93769   8.642   5.488   3.302  0.7054  0.2345 -0.6657
  695MOL0     H93770   8.574   5.576   3.085  0.9138  0.5971 -0.3392
  695MOL0     H93771   8.431   5.471   3.081  1.7602 -0.8404  0.5781
  695MOL0     H93772   8.488   5.681   3.308 -1.3254  0.7820  0.6243
  695MOL0     H93773   8.404   5.712   3.163  1.2594 -2.7623 -2.9668
  695MOL0     H93774   8.241   5.667   3.351  1.4068  0.3499  3.3549
  695MOL0     H93775   8.301   5.508   3.376  0.5534 -0.1443 -0.4708
  695MOL0     H93776   8.249   5.311   3.200 -1.7368 -1.4669 -1.2151
  695MOL0     H93777   7.945   5.288   2.952 -0.1478  1.1361  0.4045
  695MOL0     H93778   8.089   5.201   2.995  0.5748 -0.4586  2.4255
  695MOL0     H93779   8.009   5.156   3.214  1.2106  2.6264 -0.2710
  695MOL0     H93780   7.886   5.097   3.094  1.2988  0.5559  1.3991
  695MOL0     H93781   7.878   5.341   3.268  1.6309  1.0066 -2.3663
  695MOL0     H93782   7.789   5.184   3.290 -1.8459  1.9262  0.6159
  695MOL0     H93783   7.723   5.298   3.036  2.1624 -0.8558  0.7422
  695MOL0     H93784   7.729   5.421   3.157  0.1575 -0.5257 -0.2824
  695MOL0     H93785   7.363   5.246   3.284 -1.1333 -0.3885 -0.3452
  695MOL0     H93786   7.027   5.262   3.209  0.0804  1.9912 -2.7104
  695MOL0     H93787   7.146   5.257   3.340 -3.0998 -1.6014  0.8042
  695MOL0     H93788   7.067   5.411   3.282  0.2717 -0.1771  1.0129
  695MOL0     H93789   7.059   5.607   2.650 -0.2235 -0.0918  1.4295
  695MOL0     H93790   6.872   5.737   2.536 -0.9819 -2.5571 -0.7226
  695MOL0     H93791   6.737   5.945   2.480 -1.4969 -0.2008 -1.7655
  695MOL0     H93792   6.614   5.816   2.528 -1.3478 -0.3685 -0.2224
  695MOL0     H93793   6.448   5.990   2.579 -0.2217 -1.4804 -0.2439
  695MOL0     H93794   6.563   6.116   2.553  1.1764 -1.2947 -0.3782
  695MOL0     H93795   6.506   5.919   2.320  2.0752 -0.1199 -1.6082
  695MOL0     H93796   6.582   6.081   2.328 -3.0761  4.0239  1.1967
  695MOL0     H93797   6.351   6.182   2.391 -1.8454 -0.6406  0.7199
  695MOL0     H93798   6.381   6.114   2.240 -1.8433  0.6800 -0.0199
  695MOL0     H93799   6.255   5.968   2.463 -0.0767 -0.3362 -0.6297
  695MOL0     H93800   6.261   5.904   2.297 -1.8179 -1.8072 -0.2189
  695MOL0     H93801   6.110   6.164   2.372 -0.6310  0.0831 -0.9834
  695MOL0     H93802   6.120   6.118   2.214 -0.9437 -0.5499 -0.3232
  695MOL0     H93803   5.984   5.977   2.446 -0.4663  2.5093 -0.4439
  695MOL0     H93804   6.023   5.866   2.326 -2.1094 -0.3649  2.6446
  695MOL0     H93805   5.841   6.091   2.236 -4.9559 -0.4522  0.6232
  695MOL0     H93806   5.793   5.950   2.304 -1.0508  0.8751 -0.0745
  695MOL0     H93807   6.788   5.919   2.911 -2.0517 -1.4484 -1.6316
  695MOL0     H93808   6.956   5.759   3.018 -4.0388  0.8667  0.4198
  695MOL0     H93809   7.333   5.500   2.865  3.5117 -1.0823 -1.5046
  695MOL0     H93810   7.538   5.415   2.944  1.8554  0.2527  2.2114
  695MOL0     H93811   8.877   4.902   3.161 -0.6902  3.2150 -1.8273
  695MOL0     H93812   8.994   4.736   3.303  1.5867 -0.8431 -0.9283
  695MOL0     H93813   9.515   4.731   3.673 -0.6744  0.6470  3.0861
  695MOL0     H93814   9.570   4.519   3.796  0.6525  1.8095 -2.0820
  695MOL0     H93815   9.605   4.275   3.893  1.1644 -0.3845  1.0379
  695MOL0     H93816   9.512   4.399   3.990  0.6360  0.2198 -0.1036
  695MOL0     H93817   9.446   4.094   3.943 -0.2502  0.5437  0.4719
  695MOL0     H93818   9.393   4.199   4.075 -0.1883  2.2856 -1.6391
  695MOL0     H93819   9.535   4.028   4.150  2.1978 -0.6391  1.3867
  695MOL0     H93820   9.611   4.183   4.173 -5.9278  0.9352  0.4441
  695MOL0     H93821   9.789   4.050   4.114  1.2931 -0.9024 -0.8748
  695MOL0     H93822   9.745   4.123   3.957  2.3161 -1.0705 -0.8734
  695MOL0     H93823   9.585   3.717   3.963 -1.1420 -0.6642  6.4893
  695MOL0     H93824   9.184   4.361   3.705 -1.3715  0.6817 -3.9640
  695MOL0     H93825   9.131   4.569   3.582 -1.3777  1.1298  2.1269
  696MOL0     O93826   2.306  11.367   4.363 -1.0694 -0.4653  0.5839
  696MOL0     C93827   2.187  11.379   4.322 -0.8540  0.2644 -0.0968
  696MOL0     O93828   2.145  11.403   4.193 -0.2768 -0.0304 -0.2284
  696MOL0     C93829   2.238  11.462   4.108  0.0597 -0.4269  0.5461
  696MOL0     C93830   2.242  11.409   3.969 -0.4734  0.5322  0.4956
  696MOL0     C93831   2.342  11.455   3.883  0.4071  0.7484  0.2622
  696MOL0     C93832   2.449  11.527   3.932  0.1969  0.2041  0.5174
  696MOL0     O93833   2.553  11.582   3.859  0.1294  0.2018  0.5761
  696MOL0     C93834   2.508  11.672   3.754 -0.5478 -1.0249  0.6846
  696MOL0     C93835   2.611  11.698   3.649 -0.1078 -1.0724  0.5076
  696MOL0     C93836   2.557  11.797   3.540 -0.0995  0.5926 -0.0543
  696MOL0     C93837   2.550  11.949   3.585 -0.3300  0.5272 -0.4322
  696MOL0     C93838   2.439  12.031   3.508 -0.5045 -0.0718 -0.0644
  696MOL0     C93839   2.415  12.171   3.552 -0.3884 -0.6514  0.0730
  696MOL0     C93840   2.550  12.259   3.573  0.6382 -0.3282  0.0935
  696MOL0     C93841   2.514  12.403   3.603  0.2196  0.0446  0.3179
  696MOL0     N93842   2.401  12.405   3.693 -0.1397  0.6811  0.7140
  696MOL0     C93843   2.285  12.471   3.662 -0.7874 -0.9314  0.2614
  696MOL0     C93844   2.228  12.495   3.783  0.3839 -0.4439  0.3547
  696MOL0     C93845   2.093  12.557   3.817  0.4809 -0.5272  0.3967
  696MOL0     C93846   1.980  12.511   3.714 -0.2413 -0.0235 -0.2393
  696MOL0     C93847   1.860  12.596   3.724  0.4676 -1.1324  1.2750
  696MOL0     C93848   1.745  12.544   3.637  0.6002  0.0665  0.4827
  696MOL0     O93849   1.636  12.642   3.633  0.5372  0.3548  0.0742
  696MOL0     C93850   1.525  12.622   3.556  0.4316  0.6132  0.1622
  696MOL0     C93851   1.509  12.505   3.487 -0.1638 -0.1095 -0.0750
  696MOL0     C93852   1.387  12.484   3.415 -0.6202 -0.0159  0.5392
  696MOL0     C93853   1.381  12.344   3.335 -0.3929 -0.6341 -0.0996
  696MOL0     C93854   1.285  12.591   3.414 -0.3700  0.9329 -0.3282
  696MOL0     C93855   1.154  12.571   3.346  0.0735  0.1041  0.8007
  696MOL0     O93856   1.096  12.452   3.340 -0.8165 -0.2578 -0.8596
  696MOL0     C93857   0.967  12.449   3.302 -0.0136 -0.5492 -0.0002
  696MOL0     C93858   0.922  12.347   3.221  0.0876  0.0384  0.0224
  696MOL0     C93859   0.798  12.337   3.160  0.5115  0.3397 -0.3460
  696MOL0     C93860   0.693  12.418   3.212  0.0990 -0.3382  1.0958
  696MOL0     O93861   0.566  12.417   3.161  0.4665 -0.3465  0.3150
  696MOL0     C93862   0.515  12.293   3.122  0.6784 -0.0231 -0.5195
  696MOL0     C93863   0.364  12.307   3.098 -0.8404 -0.5455 -0.5725
  696MOL0     C93864   0.313  12.229   2.982  0.2189  0.2804 -0.2787
  696MOL0     C93865   0.187  12.297   2.933  0.0021 -0.7072  0.6076
  696MOL0     C93866   0.110  12.198   2.840  0.8899 -0.3732  0.2545
  696MOL0     C93867  -0.021  12.255   2.790  0.0250  0.2971 -0.4115
  696MOL0     C93868  -0.117  12.152   2.725 -0.0476 -0.1033 -0.4992
  696MOL0     C93869  -0.250  12.203   2.679  0.4325  0.2042  0.4272
  696MOL0    Cl93870  -0.366  12.093   2.599  0.2358  0.1350  0.2083
  696MOL0     C93871   0.726  12.508   3.313  0.0840 -0.5259  0.0701
  696MOL0     C93872   0.862  12.524   3.351 -0.6035 -0.0725 -0.9065
  696MOL0     O93873   1.114  12.670   3.286 -0.6199  0.1058 -0.2057
  696MOL0     C93874   1.315  12.708   3.483 -0.0016 -0.5988  0.3127
  696MOL0     C93875   1.437  12.722   3.559 -0.6131  0.0335 -0.3935
  696MOL0     N93876   2.312  12.434   3.874  0.1451 -0.3322  0.4493
  696MOL0     N93877   2.411  12.380   3.820 -0.1085 -0.5222 -1.5892
  696MOL0     C93878   2.437  11.574   4.060 -0.0872 -0.5143  0.6753
  696MOL0     C93879   2.333  11.551   4.146  0.6267 -0.8509  0.1340
  696MOL0     C93880   2.081  11.336   4.416  0.1820  0.0972 -0.3919
  696MOL0     C93881   2.108  11.264   4.540  0.5464  0.4043 -0.0125
  696MOL0     C93882   2.011  11.227   4.626  0.0821 -0.9905 -0.6308
  696MOL0     C93883   1.883  11.271   4.613 -0.2001 -0.7211  0.0548
  696MOL0     O93884   1.793  11.213   4.704 -0.1634  0.3099 -0.0542
  696MOL0     C93885   1.673  11.291   4.741  0.6223  0.0820 -0.7435
  696MOL0     C93886   1.708  11.407   4.833 -0.1436 -0.3186  0.6984
  696MOL0     C93887   1.766  11.371   4.972 -0.2954 -0.3311 -0.7677
  696MOL0     C93888   1.828  11.501   5.034  0.1415  0.3831 -1.2683
  696MOL0     C93889   1.943  11.552   4.967 -0.1195 -0.0260  0.3211
  696MOL0     C93890   2.032  11.575   4.892  0.4930 -0.2654  0.3545
  696MOL0     C93891   1.846  11.346   4.495 -0.5742  0.5497 -0.6296
  696MOL0     C93892   1.945  11.367   4.395  0.1060  0.4583  0.2734
  696MOL0     H93893   2.178  11.330   3.931  2.6111 -2.2735  0.7221
  696MOL0     H93894   2.346  11.413   3.783  1.6546 -2.7884  1.6348
  696MOL0     H93895   2.423  11.627   3.701  0.7402 -0.6542 -1.8699
  696MOL0     H93896   2.479  11.768   3.797 -3.5108 -0.6912 -1.6486
  696MOL0     H93897   2.696  11.751   3.694 -0.0113 -1.0234  0.2706
  696MOL0     H93898   2.648  11.606   3.602  1.9335  0.5336 -1.2197
  696MOL0     H93899   2.623  11.794   3.453  0.5176  1.1586  0.3805
  696MOL0     H93900   2.458  11.761   3.510  0.5596  0.7883 -2.6485
  696MOL0     H93901   2.510  11.945   3.687 -2.3106 -1.4550 -1.2278
  696MOL0     H93902   2.646  12.002   3.583 -0.8504  1.4793 -2.1997
  696MOL0     H93903   2.446  12.030   3.399  0.3317  4.1959 -0.2034
  696MOL0     H93904   2.354  11.966   3.531  1.7291 -2.8552  0.8719
  696MOL0     H93905   2.349  12.221   3.481 -0.6159 -0.6923  0.2551
  696MOL0     H93906   2.350  12.166   3.641 -0.5675 -0.0250 -0.0196
  696MOL0     H93907   2.606  12.202   3.647  2.8266 -2.3111 -2.8657
  696MOL0     H93908   2.606  12.262   3.479 -0.6349 -0.0728 -0.6832
  696MOL0     H93909   2.490  12.459   3.512 -0.6915 -1.9123 -0.7239
  696MOL0     H93910   2.593  12.460   3.654  2.6967  0.7825 -3.8380
  696MOL0     H93911   2.240  12.509   3.570 -1.4557 -3.2953 -0.4515
  696MOL0     H93912   2.065  12.539   3.922 -1.4865 -2.3815 -0.3790
  696MOL0     H93913   2.092  12.665   3.803 -2.6113 -0.6023 -0.7138
  696MOL0     H93914   1.945  12.416   3.755  0.1462  0.1573  0.5439
  696MOL0     H93915   2.017  12.502   3.612  0.7321 -0.8760  0.1708
  696MOL0     H93916   1.888  12.693   3.682  0.7897 -2.1639 -1.0714
  696MOL0     H93917   1.829  12.624   3.825 -0.7740 -1.0342  0.8862
  696MOL0     H93918   1.703  12.460   3.693  2.1305 -0.5621  0.7293
  696MOL0     H93919   1.779  12.508   3.540  1.9330 -3.1634  2.0057
  696MOL0     H93920   1.582  12.426   3.496  1.1330  1.0416 -0.2013
  696MOL0     H93921   1.482  12.306   3.316  0.7457  0.0976  3.6496
  696MOL0     H93922   1.331  12.271   3.399 -2.1838  0.8631  0.2721
  696MOL0     H93923   1.327  12.362   3.241  4.0276 -0.2303 -2.8926
  696MOL0     H93924   0.988  12.267   3.190  0.4635  0.5299 -0.4751
  696MOL0     H93925   0.781  12.262   3.083  1.9272  0.1663 -0.5172
  696MOL0     H93926   0.572  12.263   3.033  1.2525 -1.8573  0.4096
  696MOL0     H93927   0.539  12.221   3.201  1.2040  1.1814  0.4637
  696MOL0     H93928   0.308  12.281   3.188  1.4024  1.1519  1.4389
  696MOL0     H93929   0.335  12.411   3.079  2.1357 -0.2502 -5.2367
  696MOL0     H93930   0.278  12.135   3.026  0.1991  0.3027 -0.2475
  696MOL0     H93931   0.390  12.207   2.908  2.4287  0.6113  1.7878
  696MOL0     H93932   0.123  12.328   3.016 -0.9900 -1.8466  0.3058
  696MOL0     H93933   0.215  12.384   2.873 -3.0617 -0.0619 -0.0659
  696MOL0     H93934   0.083  12.112   2.903  1.2582  0.8267  2.1606
  696MOL0     H93935   0.169  12.164   2.755 -1.1964 -0.7026 -1.1151
  696MOL0     H93936  -0.083  12.299   2.869  1.5122  1.5313  0.1117
  696MOL0     H93937   0.003  12.328   2.711 -2.5595  1.0242 -0.6149
  696MOL0     H93938  -0.141  12.066   2.788  1.3313 -0.5749 -0.5854
  696MOL0     H93939  -0.067  12.120   2.633 -2.4084 -0.6480 -1.6692
  696MOL0     H93940  -0.229  12.282   2.606 -0.9015 -0.4180 -0.6865
  696MOL0     H93941  -0.305  12.248   2.762  0.3213 -0.2993  0.6284
  696MOL0     H93942   0.650  12.568   3.362  0.5540 -0.0589  0.2355
  696MOL0     H93943   0.884  12.597   3.428 -1.9327 -0.6609  0.0642
  696MOL0     H93944   1.235  12.781   3.484 -1.8984 -2.3224 -3.2881
  696MOL0     H93945   1.451  12.817   3.610  1.8423  1.2374 -3.0430
  696MOL0     H93946   2.516  11.643   4.086  0.6350 -1.2047  0.3542
  696MOL0     H93947   2.330  11.601   4.243 -3.0268 -2.3759  0.9571
  696MOL0     H93948   2.213  11.238   4.550  0.3935 -1.7583 -2.7187
  696MOL0     H93949   2.037  11.170   4.714 -2.6399 -3.0873 -1.0695
  696MOL0     H93950   1.624  11.330   4.651  1.2424  1.5622 -0.4829
  696MOL0     H93951   1.607  11.226   4.798  2.5771 -1.9467 -0.6329
  696MOL0     H93952   1.619  11.470   4.842  1.7015  2.2153  2.2934
  696MOL0     H93953   1.781  11.467   4.778 -3.0690  1.7656 -1.2675
  696MOL0     H93954   1.831  11.284   4.979  1.3378  0.9730  1.7739
  696MOL0     H93955   1.682  11.345   5.037 -0.2060 -0.2937 -0.6383
  696MOL0     H93956   1.848  11.488   5.141 -0.8615 -0.2585 -1.1457
  696MOL0     H93957   1.756  11.582   5.023  0.9052  0.7719 -4.5327
  696MOL0     H93958   2.105  11.583   4.814  0.3969 -4.2391 -0.3539
  696MOL0     H93959   1.740  11.369   4.486 -1.5916 -2.4593  1.9248
  696MOL0     H93960   1.924  11.414   4.299 -1.1015  2.1876  1.3289
  697MOL0     O93961  10.058   8.591   9.038  0.0427 -0.5465  0.0017
  697MOL0     C93962  10.071   8.579   9.158  0.3793  0.0639  0.3464
  697MOL0     O93963   9.977   8.562   9.245  0.0345  0.3124  0.8357
  697MOL0     C93964   9.844   8.577   9.212 -0.5967 -0.2573 -0.1084
  697MOL0     C93965   9.802   8.685   9.133 -0.1266 -0.7628 -0.4176
  697MOL0     C93966   9.665   8.697   9.098  0.8357 -0.2564 -0.3724
  697MOL0     C93967   9.570   8.617   9.164 -0.2547 -0.0120  0.5360
  697MOL0     O93968   9.436   8.627   9.124 -0.1355  0.0788  0.1231
  697MOL0     C93969   9.384   8.536   9.029 -0.1505 -0.1144 -0.3514
  697MOL0     C93970   9.391   8.584   8.893 -0.3754  0.2955 -0.1888
  697MOL0     C93971   9.517   8.556   8.816  0.9076  0.8602  0.3752
  697MOL0     C93972   9.474   8.496   8.676  0.0408 -0.2589 -0.0999
  697MOL0     C93973   9.601   8.461   8.599 -0.5642 -0.0299  0.4472
  697MOL0     C93974   9.591   8.459   8.451  0.7802  0.2660  0.0533
  697MOL0     C93975   9.728   8.439   8.387  0.7144 -0.8599  0.3559
  697MOL0     C93976   9.711   8.423   8.240 -0.3855 -0.9613  0.2331
  697MOL0     N93977   9.845   8.422   8.174 -0.2295  0.6071 -0.2510
  697MOL0     C93978   9.948   8.514   8.166  0.2619  0.7351 -0.5562
  697MOL0     C93979  10.049   8.451   8.109 -0.2388  0.6515 -0.6402
  697MOL0     C93980  10.183   8.505   8.080  0.1940  0.1413  0.9686
  697MOL0     C93981  10.198   8.659   8.085  0.6256  0.7777  1.1459
  697MOL0     C93982  10.320   8.709   8.020  0.1422 -0.3418  0.7374
  697MOL0     C93983  10.331   8.859   8.019 -0.6109 -0.3761 -0.9559
  697MOL0     O93984  10.366   8.886   8.156  0.3525 -0.3041  1.0595
  697MOL0     C93985  10.375   9.018   8.195  0.0200  0.3037  0.0945
  697MOL0     C93986  10.377   9.037   8.332 -0.3359 -1.2842 -0.0235
  697MOL0     C93987  10.385   9.163   8.388 -0.5998 -0.0936  0.0591
  697MOL0     C93988  10.402   9.157   8.530 -0.2466  0.5436 -0.3635
  697MOL0     C93989  10.394   9.286   8.313 -0.2542  0.0665 -0.8206
  697MOL0     C93990  10.405   9.430   8.370  0.1623 -1.2983 -0.3220
  697MOL0     O93991  10.453   9.529   8.283  0.7575  0.9456  0.4102
  697MOL0     C93992  10.416   9.668   8.313  0.1330 -0.0844 -0.1262
  697MOL0     C93993  10.282   9.698   8.328  0.6318 -0.8339  0.4443
  697MOL0     C93994  10.253   9.835   8.343 -0.3521 -1.0015  0.5458
  697MOL0     C93995  10.339   9.940   8.361  0.2098 -0.3198 -0.6339
  697MOL0     O93996  10.288  10.064   8.397  0.8848 -0.0889 -0.8112
  697MOL0     C93997  10.375  10.164   8.433 -0.3763 -1.2449 -0.2512
  697MOL0     C93998  10.433  10.164   8.576 -0.9427 -0.7918 -0.1477
  697MOL0     C93999  10.323  10.177   8.690  0.1204  0.8370  0.4789
  697MOL0     C94000  10.277  10.319   8.713 -0.7118 -0.2479  0.2303
  697MOL0     C94001  10.144  10.328   8.787  0.1029 -0.0765  0.0163
  697MOL0     C94002  10.162  10.289   8.935  0.6734 -0.2964 -1.2608
  697MOL0     C94003  10.025  10.328   9.011 -0.6065  0.0895  0.4837
  697MOL0     C94004  10.030  10.291   9.155  0.0179 -0.4544  0.7611
  697MOL0    Cl94005  10.164  10.369   9.235  0.2136 -0.0234  0.0927
  697MOL0     C94006  10.472   9.906   8.364 -0.5924 -0.4272  1.1157
  697MOL0     C94007  10.509   9.776   8.322  0.1060  0.2605 -0.4116
  697MOL0     O94008  10.344   9.456   8.474  0.1842 -0.3089 -0.4021
  697MOL0     C94009  10.402   9.265   8.174 -0.0871 -0.0167 -0.3374
  697MOL0     C94010  10.382   9.136   8.115  0.1992  0.3129 -0.4468
  697MOL0     N94011  10.015   8.321   8.089  0.7985  0.2180 -0.2146
  697MOL0     N94012   9.899   8.302   8.133  0.1868  0.0824  0.8924
  697MOL0     C94013   9.612   8.514   9.244 -0.0870  0.7732  0.3719
  697MOL0     C94014   9.747   8.490   9.274 -0.0129 -0.3938 -0.6421
  697MOL0     C94015  10.208   8.588   9.205  0.3807 -0.8888 -0.4984
  697MOL0     C94016  10.239   8.568   9.341  1.1835  0.7238 -0.5373
  697MOL0     C94017  10.364   8.588   9.393 -0.7763  0.8451 -0.5976
  697MOL0     C94018  10.467   8.638   9.315  0.5063  1.2920  0.1398
  697MOL0     O94019  10.586   8.658   9.374 -0.3056  0.2779  0.5440
  697MOL0     C94020  10.712   8.650   9.298  0.3912 -0.0419 -0.1353
  697MOL0     C94021  10.746   8.511   9.247  0.1548 -0.2691 -0.4440
  697MOL0     C94022  10.762   8.413   9.366  0.0775 -0.6174  0.1108
  697MOL0     C94023  10.773   8.268   9.316  0.5314  0.1732 -0.0837
  697MOL0     C94024  10.743   8.187   9.433  0.7427 -0.5628 -0.3058
  697MOL0     C94025  10.728   8.117   9.524  0.7433  0.3510  0.7842
  697MOL0     C94026  10.445   8.655   9.174 -0.0730  0.4584 -0.6135
  697MOL0     C94027  10.322   8.632   9.123  0.0456  1.2911 -0.6378
  697MOL0     H94028   9.867   8.746   9.072 -1.9655  1.5394 -0.2035
  697MOL0     H94029   9.630   8.774   9.030  0.6419 -0.5168 -0.5665
  697MOL0     H94030   9.439   8.442   9.036  2.8765  1.2528 -3.1781
  697MOL0     H94031   9.280   8.512   9.052  0.0819 -0.4550  0.3775
  697MOL0     H94032   9.304   8.542   8.842 -1.5945  0.5484  1.6110
  697MOL0     H94033   9.368   8.689   8.872 -2.2256  0.1678  0.9605
  697MOL0     H94034   9.567   8.652   8.809 -0.7018  1.6399 -1.8537
  697MOL0     H94035   9.584   8.490   8.872 -1.8568 -0.9338  1.8218
  697MOL0     H94036   9.414   8.406   8.694  0.4361 -0.2957  1.1211
  697MOL0     H94037   9.407   8.558   8.617  1.8969  0.3146 -1.6975
  697MOL0     H94038   9.672   8.540   8.624 -0.5546 -0.0009  0.3307
  697MOL0     H94039   9.636   8.362   8.629  1.8392  0.1236 -1.6010
  697MOL0     H94040   9.532   8.371   8.423 -0.6182  1.6463 -1.5445
  697MOL0     H94041   9.558   8.558   8.419  1.5635  1.2287  2.0393
  697MOL0     H94042   9.796   8.522   8.409 -0.1190 -1.0512  4.4471
  697MOL0     H94043   9.776   8.349   8.427  2.3143  0.6799  2.1383
  697MOL0     H94044   9.646   8.505   8.206  0.6478 -0.9048 -1.7667
  697MOL0     H94045   9.662   8.328   8.218  1.0403 -1.8641  0.8870
  697MOL0     H94046   9.947   8.620   8.191 -1.4457  0.4333  0.9400
  697MOL0     H94047  10.263   8.464   8.142  2.6502  1.0708 -1.3918
  697MOL0     H94048  10.211   8.467   7.981  1.0246  1.1858  0.7764
  697MOL0     H94049  10.186   8.682   8.191  3.3376 -0.8138  1.8844
  697MOL0     H94050  10.114   8.702   8.029  2.1822  1.5230 -0.7513
  697MOL0     H94051  10.323   8.667   7.919  2.1672  1.3196  0.0091
  697MOL0     H94052  10.402   8.666   8.078  1.5656  0.9446 -0.2288
  697MOL0     H94053  10.234   8.901   7.991  0.4184  2.1712 -0.9916
  697MOL0     H94054  10.405   8.900   7.949 -0.8290 -0.6493 -1.3503
  697MOL0     H94055  10.376   8.956   8.404  3.1593  1.3729  3.4449
  697MOL0     H94056  10.308   9.163   8.585 -0.7653  0.0037 -1.1616
  697MOL0     H94057  10.450   9.066   8.566 -0.4754  0.6375  0.1829
  697MOL0     H94058  10.463   9.241   8.564 -1.6755  2.1835 -1.6141
  697MOL0     H94059  10.210   9.617   8.324 -1.9755  1.3026  1.0267
  697MOL0     H94060  10.148   9.864   8.354  0.2065  1.3721  0.2176
  697MOL0     H94061  10.455  10.170   8.359 -1.3048  0.5046 -1.1836
  697MOL0     H94062  10.320  10.258   8.417  1.2461 -0.3654 -0.9622
  697MOL0     H94063  10.501  10.078   8.586 -1.7315 -1.1754  3.2488
  697MOL0     H94064  10.505  10.246   8.586 -0.8374 -0.7388 -1.2279
  697MOL0     H94065  10.349  10.135   8.788 -2.6605 -0.1855  0.8904
  697MOL0     H94066  10.236  10.118   8.660  2.2272 -2.4409  0.2979
  697MOL0     H94067  10.352  10.379   8.765  0.6250  1.4749 -3.3085
  697MOL0     H94068  10.272  10.378   8.621  2.1788  0.4846  0.4468
  697MOL0     H94069  10.073  10.263   8.736  0.2406 -1.0726  1.0421
  697MOL0     H94070  10.109  10.431   8.786  0.7427  0.2477  2.7064
  697MOL0     H94071  10.187  10.184   8.955 -0.7193 -0.2319  1.1307
  697MOL0     H94072  10.247  10.344   8.976  0.2507 -1.8273  1.9309
  697MOL0     H94073   9.946  10.278   8.954  0.7028 -0.4469 -0.9394
  697MOL0     H94074  10.012  10.437   9.005 -1.0246  0.1084  1.5260
  697MOL0     H94075  10.031  10.184   9.178 -0.3713 -0.3799  1.1373
  697MOL0     H94076   9.939  10.331   9.201  0.4687  1.3615  0.1491
  697MOL0     H94077  10.567   9.954   8.387  1.1626 -3.6685  1.2671
  697MOL0     H94078  10.615   9.761   8.303 -0.0644  0.8144 -1.9609
  697MOL0     H94079  10.402   9.338   8.094 -4.0472 -0.2909 -0.7748
  697MOL0     H94080  10.373   9.129   8.007  2.5450  3.5666 -1.0002
  697MOL0     H94081   9.538   8.442   9.278  1.1984 -2.0372 -2.2454
  697MOL0     H94082   9.774   8.416   9.349  2.0817  2.2989  1.5070
  697MOL0     H94083  10.165   8.534   9.412  1.6306 -2.5919 -1.4594
  697MOL0     H94084  10.379   8.583   9.501 -4.8688  1.6831  0.1686
  697MOL0     H94085  10.726   8.726   9.221 -1.2416  0.7467  0.3059
  697MOL0     H94086  10.789   8.665   9.375 -1.5296  0.7874  1.7443
  697MOL0     H94087  10.848   8.511   9.209  1.1730 -1.9384  2.0321
  697MOL0     H94088  10.675   8.469   9.175 -1.3704  0.7709  0.4037
  697MOL0     H94089  10.676   8.423   9.431  0.0461 -0.9695  0.1268
  697MOL0     H94090  10.855   8.432   9.421  1.0918 -1.2428 -1.3084
  697MOL0     H94091  10.869   8.243   9.270 -0.7326 -0.9195 -2.2663
  697MOL0     H94092  10.717   8.252   9.224  2.9438  2.1196 -2.0477
  697MOL0     H94093  10.696   8.073   9.616  1.1116  0.9814  1.2190
  697MOL0     H94094  10.531   8.676   9.111  1.2678 -0.1250  0.9186
  697MOL0     H94095  10.308   8.648   9.016  0.4548 -3.1792 -1.5577
  698MOL0     O94096   2.279   0.907   5.564  0.5406  0.1021 -0.3717
  698MOL0     C94097   2.298   0.974   5.665  0.1917  0.2483 -0.2471
  698MOL0     O94098   2.203   1.043   5.730  0.1315  0.1698 -0.4599
  698MOL0     C94099   2.082   0.998   5.710  0.4776  1.2665  0.4409
  698MOL0     C94100   1.999   1.038   5.603 -0.6103  0.1570  0.1296
  698MOL0     C94101   1.868   1.006   5.595  0.4634  1.0109 -1.1406
  698MOL0     C94102   1.819   0.915   5.696  0.4636  0.0325 -0.0527
  698MOL0     O94103   1.686   0.872   5.704  0.8475 -0.0689 -0.3568
  698MOL0     C94104   1.600   0.866   5.597  0.2298  0.4617  0.0991
  698MOL0     C94105   1.475   0.784   5.624  0.2467 -0.6039 -0.8870
  698MOL0     C94106   1.397   0.763   5.498  0.4700  0.4085 -0.2365
  698MOL0     C94107   1.281   0.654   5.527 -0.0692 -0.1280  0.7357
  698MOL0     C94108   1.146   0.719   5.537 -0.4448 -0.3868 -0.7426
  698MOL0     C94109   1.047   0.604   5.552  0.2404  0.1144 -0.6771
  698MOL0     C94110   0.902   0.652   5.595  1.1630 -0.4752  0.3755
  698MOL0     C94111   0.831   0.716   5.477  0.9585  0.1423 -0.0131
  698MOL0     N94112   0.684   0.713   5.498  1.2351 -0.1421  0.1324
  698MOL0     C94113   0.620   0.795   5.580  0.2977  1.1047  0.8513
  698MOL0     C94114   0.493   0.750   5.591 -0.4078 -0.1703  0.2009
  698MOL0     C94115   0.385   0.800   5.677  0.6958  0.0053  0.5326
  698MOL0     C94116   0.239   0.806   5.608 -0.3214  0.9444  0.0558
  698MOL0     C94117   0.125   0.849   5.700  0.5144  0.1810  0.0000
  698MOL0     C94118   0.068   0.728   5.765  0.5772 -0.0870 -0.3942
  698MOL0     O94119  -0.076   0.725   5.764  0.4409 -0.6332  0.6752
  698MOL0     C94120  -0.153   0.610   5.781 -0.1827  0.0425  1.0739
  698MOL0     C94121  -0.289   0.624   5.782 -0.9200 -0.3832  0.1649
  698MOL0     C94122  -0.383   0.519   5.799 -0.8577 -1.3945 -0.2339
  698MOL0     C94123  -0.534   0.558   5.807  0.3412 -0.4231 -0.0810
  698MOL0     C94124  -0.333   0.388   5.812 -0.5296 -0.0006 -0.1694
  698MOL0     C94125  -0.414   0.266   5.852  0.4657  0.0442  0.1916
  698MOL0     O94126  -0.548   0.263   5.857 -0.0427 -0.0987  0.5702
  698MOL0     C94127  -0.615   0.148   5.893  0.2367  0.8235  0.0414
  698MOL0     C94128  -0.737   0.169   5.960  0.5203  0.3116  0.2291
  698MOL0     C94129  -0.819   0.065   5.997  0.2506 -0.3824  0.6839
  698MOL0     C94130  -0.776  -0.073   5.987  0.3154  0.2341  0.0814
  698MOL0     O94131  -0.846  -0.179   6.027 -0.8857  0.5227  0.2380
  698MOL0     C94132  -0.986  -0.185   6.021 -0.1154 -0.4735 -0.5055
  698MOL0     C94133  -1.033  -0.314   6.072  0.1862  0.1659  0.8558
  698MOL0     C94134  -1.022  -0.425   5.964  0.5341 -0.1222 -0.5839
  698MOL0     C94135  -1.062  -0.562   6.013  0.8922 -0.2727 -0.2992
  698MOL0     C94136  -1.154  -0.644   5.930  0.1904 -0.6766  0.2452
  698MOL0     C94137  -1.099  -0.673   5.792  0.0713 -0.5310  0.9070
  698MOL0     C94138  -0.964  -0.738   5.806  0.4519  0.0892 -0.3616
  698MOL0     C94139  -0.910  -0.803   5.677  0.4255 -0.1771  0.3532
  698MOL0    Cl94140  -0.781  -0.919   5.711 -0.3018 -0.4696  0.1966
  698MOL0     C94141  -0.651  -0.088   5.932 -0.6076  0.5312 -0.0462
  698MOL0     C94142  -0.568   0.018   5.880  0.8190  0.2115 -0.3444
  698MOL0     O94143  -0.344   0.181   5.906 -0.2112 -0.2121 -0.0990
  698MOL0     C94144  -0.186   0.372   5.798  0.8431  0.0105 -0.4995
  698MOL0     C94145  -0.102   0.483   5.783  0.1527 -0.3931  0.1789
  698MOL0     N94146   0.482   0.640   5.506 -0.5544 -0.2631 -0.3075
  698MOL0     N94147   0.597   0.612   5.455  0.4837  0.3043 -0.1551
  698MOL0     C94148   1.899   0.859   5.788  0.1457 -0.3113 -0.0017
  698MOL0     C94149   2.037   0.900   5.799  0.2607 -0.1042  0.6213
  698MOL0     C94150   2.436   0.985   5.711  0.1077 -0.3519  0.2438
  698MOL0     C94151   2.540   0.896   5.672  0.8308 -0.0396 -0.7859
  698MOL0     C94152   2.673   0.921   5.700 -1.3707  0.3774  0.4241
  698MOL0     C94153   2.707   1.034   5.772 -0.3617 -0.1768 -0.1812
  698MOL0     O94154   2.841   1.058   5.803  0.3879  0.3490  0.7448
  698MOL0     C94155   2.859   1.042   5.947  0.3259 -0.3116 -0.0546
  698MOL0     C94156   2.940   1.162   5.999 -0.1468  0.6446  0.5302
  698MOL0     C94157   3.081   1.167   5.940  0.4341 -0.1248  0.0536
  698MOL0     C94158   3.152   1.294   5.992 -0.1819 -0.7032  0.2782
  698MOL0     C94159   3.124   1.411   5.907 -0.6455  0.5919 -0.2229
  698MOL0     C94160   3.121   1.513   5.841  0.8186  0.8320 -0.3867
  698MOL0     C94161   2.606   1.121   5.813 -0.1294  0.1250 -0.3457
  698MOL0     C94162   2.474   1.090   5.794  1.4176  1.1682 -0.0095
  698MOL0     H94163   2.045   1.099   5.526  1.3777 -2.8232 -1.2852
  698MOL0     H94164   1.802   1.049   5.520 -2.7768 -0.2519  0.7708
  698MOL0     H94165   1.577   0.966   5.558 -2.5674  0.0701  0.5200
  698MOL0     H94166   1.646   0.822   5.508 -2.5349  0.1521 -1.2709
  698MOL0     H94167   1.512   0.692   5.671  0.6373 -1.4153 -2.6935
  698MOL0     H94168   1.415   0.843   5.694 -1.3624 -0.4213 -2.3441
  698MOL0     H94169   1.346   0.850   5.456  0.5714 -1.2635 -4.2482
  698MOL0     H94170   1.461   0.718   5.421  0.4510 -1.5823  0.8272
  698MOL0     H94171   1.278   0.589   5.439 -0.1595  0.0758  0.5877
  698MOL0     H94172   1.306   0.610   5.624  2.0081  0.7635  0.6628
  698MOL0     H94173   1.143   0.795   5.615 -0.4067 -0.7425 -0.3896
  698MOL0     H94174   1.122   0.772   5.444 -1.8040  0.1605 -0.1030
  698MOL0     H94175   1.035   0.549   5.458 -3.9935  0.7083 -0.6444
  698MOL0     H94176   1.080   0.548   5.640 -0.4115  2.3550  1.0935
  698MOL0     H94177   0.855   0.559   5.629 -1.2906  0.8206  0.7192
  698MOL0     H94178   0.893   0.727   5.674 -0.9125  1.0093 -1.1624
  698MOL0     H94179   0.844   0.657   5.386 -0.2030  1.1767 -0.8810
  698MOL0     H94180   0.875   0.816   5.470  2.2581 -0.3615  0.6025
  698MOL0     H94181   0.664   0.869   5.648  0.1276  2.1407 -0.1323
  698MOL0     H94182   0.372   0.741   5.769  0.4536  0.1155  0.5700
  698MOL0     H94183   0.411   0.904   5.701  1.4339 -0.5301  2.1981
  698MOL0     H94184   0.231   0.714   5.550  1.2108  0.9386 -0.1995
  698MOL0     H94185   0.253   0.876   5.525  2.6156 -0.9765 -1.2615
  698MOL0     H94186   0.039   0.888   5.645  0.6070  1.7321  0.8751
  698MOL0     H94187   0.162   0.929   5.766  1.4444  0.0686 -0.3677
  698MOL0     H94188   0.118   0.722   5.862 -0.7509 -0.0407  0.3160
  698MOL0     H94189   0.099   0.636   5.714 -0.1604 -0.3279 -0.4199
  698MOL0     H94190  -0.320   0.727   5.775 -3.6166 -1.1313 -0.0949
  698MOL0     H94191  -0.584   0.486   5.741 -0.8156 -1.1397  1.5009
  698MOL0     H94192  -0.587   0.538   5.901  0.6148 -2.1867 -0.2694
  698MOL0     H94193  -0.563   0.658   5.775 -1.1301 -0.2601  1.5714
  698MOL0     H94194  -0.772   0.271   5.965  1.5244  0.7537 -1.1719
  698MOL0     H94195  -0.907   0.093   6.053  1.2232  0.7060  1.7160
  698MOL0     H94196  -1.035  -0.116   6.090 -0.4808 -1.6666  0.4586
  698MOL0     H94197  -1.013  -0.159   5.918 -0.5756  2.7674  0.2977
  698MOL0     H94198  -0.976  -0.342   6.161  2.0111  1.1819  0.0664
  698MOL0     H94199  -1.139  -0.313   6.099  0.2623  5.8312  1.9770
  698MOL0     H94200  -0.919  -0.425   5.930  0.9904 -0.3860  0.7258
  698MOL0     H94201  -1.088  -0.404   5.880 -0.3001 -2.2990 -0.5458
  698MOL0     H94202  -0.973  -0.620   6.038  2.6174  1.8856 -1.1090
  698MOL0     H94203  -1.115  -0.550   6.108  0.0145  2.6365 -1.0519
  698MOL0     H94204  -1.243  -0.582   5.913  0.0522 -0.7679  0.6079
  698MOL0     H94205  -1.186  -0.738   5.976 -1.1564  0.2297  1.2976
  698MOL0     H94206  -1.162  -0.744   5.735  1.8037 -2.7888  1.6436
  698MOL0     H94207  -1.075  -0.583   5.735  1.8632 -1.6444 -0.2094
  698MOL0     H94208  -0.969  -0.822   5.875 -1.8624 -0.3300 -0.9460
  698MOL0     H94209  -0.892  -0.663   5.841  1.7303 -1.5320  0.6027
  698MOL0     H94210  -0.881  -0.734   5.597  2.7001 -0.5458  0.7846
  698MOL0     H94211  -0.984  -0.869   5.631  2.2633  0.1407 -3.4858
  698MOL0     H94212  -0.614  -0.190   5.936  1.4932  1.2163 -0.6895
  698MOL0     H94213  -0.467  -0.012   5.853  1.6009  1.1517  1.3269
  698MOL0     H94214  -0.144   0.271   5.800  2.9578  0.8102 -1.4624
  698MOL0     H94215   0.004   0.466   5.767 -0.2157 -0.6157 -2.6760
  698MOL0     H94216   1.850   0.789   5.855 -1.3924  0.1350 -0.6394
  698MOL0     H94217   2.099   0.852   5.875 -2.5562 -4.1539  0.6697
  698MOL0     H94218   2.516   0.812   5.606  1.8953  1.4863 -3.2645
  698MOL0     H94219   2.747   0.845   5.677 -2.0744  0.1362 -1.1489
  698MOL0     H94220   2.764   1.045   6.000 -1.1024  4.6559 -2.3143
  698MOL0     H94221   2.923   0.957   5.973  0.3573  0.0813  1.2071
  698MOL0     H94222   2.954   1.164   6.107  0.6360  0.2100  0.4466
  698MOL0     H94223   2.873   1.245   5.976 -0.0282  0.2408 -1.5218
  698MOL0     H94224   3.082   1.161   5.831 -0.2619  1.9212 -0.1176
  698MOL0     H94225   3.126   1.079   5.988  2.0678  1.8885  2.4701
  698MOL0     H94226   3.260   1.274   5.986 -0.1590 -0.1068 -2.4768
  698MOL0     H94227   3.126   1.315   6.096 -0.0081  0.1743  0.1497
  698MOL0     H94228   3.140   1.598   5.778 -1.4366  2.6477  1.2045
  698MOL0     H94229   2.628   1.195   5.889  0.3190  2.0843 -2.2780
  698MOL0     H94230   2.404   1.163   5.833 -2.6596 -1.8399 -1.1223
  699MOL0     O94231   8.365   1.297   9.651 -0.5439  0.2586  0.2471
  699MOL0     C94232   8.345   1.392   9.728  0.4031 -0.1194  0.0155
  699MOL0     O94233   8.279   1.503   9.700 -0.8023 -0.0980  0.3432
  699MOL0     C94234   8.218   1.522   9.572 -0.8615 -0.4363 -0.0391
  699MOL0     C94235   8.294   1.523   9.457 -0.4257  0.1886  0.2045
  699MOL0     C94236   8.222   1.547   9.333 -0.2096  0.4898 -0.4499
  699MOL0     C94237   8.092   1.562   9.330 -0.7836 -0.1137  0.3873
  699MOL0     O94238   8.034   1.566   9.205 -0.2010 -0.4591  0.5099
  699MOL0     C94239   7.946   1.676   9.183 -0.1775 -0.4722 -0.2848
  699MOL0     C94240   7.938   1.712   9.028 -0.2525  0.3273  0.2465
  699MOL0     C94241   8.070   1.736   8.972 -0.1928  1.0133  0.7781
  699MOL0     C94242   8.142   1.863   9.013 -0.1998 -0.7891 -0.1732
  699MOL0     C94243   8.263   1.870   8.924 -0.8056 -0.0054 -0.4527
  699MOL0     C94244   8.344   1.999   8.916  0.1475  0.2531 -0.4564
  699MOL0     C94245   8.403   2.044   9.047 -0.0367 -0.9335 -0.4234
  699MOL0     C94246   8.456   2.184   9.029 -0.5635  0.3341  0.3820
  699MOL0     N94247   8.523   2.241   9.147 -0.3067 -0.0853  0.0950
  699MOL0     C94248   8.487   2.356   9.219  0.1304 -0.0063  0.5290
  699MOL0     C94249   8.589   2.391   9.287 -0.5302  0.1559 -0.4124
  699MOL0     C94250   8.595   2.513   9.377  0.5097 -0.4928 -0.2436
  699MOL0     C94251   8.651   2.637   9.321 -0.3967  0.1092 -0.8514
  699MOL0     C94252   8.664   2.747   9.432  0.4432  0.2611 -0.4050
  699MOL0     C94253   8.736   2.870   9.375 -0.2440  0.3002 -0.3505
  699MOL0     O94254   8.762   2.970   9.481  0.7715 -0.3066  0.2170
  699MOL0     C94255   8.863   3.066   9.449 -0.1986  0.6522 -0.6901
  699MOL0     C94256   8.892   3.108   9.319 -0.0719  0.3944  0.7742
  699MOL0     C94257   9.004   3.188   9.280  0.6147  0.1853  0.8438
  699MOL0     C94258   9.040   3.199   9.127  0.4102  0.1411  0.6686
  699MOL0     C94259   9.087   3.240   9.389 -0.3214  0.1431  1.0796
  699MOL0     C94260   9.212   3.330   9.357  0.2675 -0.1991 -0.0125
  699MOL0     O94261   9.284   3.365   9.466  0.0196  0.8596  0.4258
  699MOL0     C94262   9.390   3.438   9.440 -0.5256 -1.0422  0.5086
  699MOL0     C94263   9.383   3.576   9.443 -0.2538 -0.2719 -0.0202
  699MOL0     C94264   9.496   3.657   9.419  1.2878 -0.0381 -0.6375
  699MOL0     C94265   9.621   3.599   9.401  0.0153  0.3300 -0.1057
  699MOL0     O94266   9.742   3.663   9.391  0.0905  0.1536 -0.4021
  699MOL0     C94267   9.859   3.606   9.344  0.4211  0.1002  0.7700
  699MOL0     C94268   9.953   3.722   9.324  0.2293  0.3114 -0.2408
  699MOL0     C94269   9.900   3.824   9.223 -0.7710 -0.6179 -0.5313
  699MOL0     C94270   9.949   3.967   9.249  0.6545  1.2012 -0.6472
  699MOL0     C94271  10.095   3.972   9.207 -0.2655 -0.1663  0.0720
  699MOL0     C94272  10.139   4.108   9.183  0.4461  0.4024  0.4163
  699MOL0     C94273  10.138   4.191   9.308  0.2958  0.0053  0.0265
  699MOL0     C94274  10.172   4.342   9.286  0.3804  0.3260  0.6636
  699MOL0    Cl94275  10.337   4.369   9.210  0.6430 -0.3923 -0.0188
  699MOL0     C94276   9.625   3.461   9.421 -0.1622  0.2259 -0.3162
  699MOL0     C94277   9.513   3.377   9.439 -0.4047 -0.3888  0.2180
  699MOL0     O94278   9.244   3.358   9.247 -0.2589 -0.0501 -0.2575
  699MOL0     C94279   9.055   3.199   9.518 -0.7028 -0.9022  0.3622
  699MOL0     C94280   8.949   3.117   9.548  0.8855  0.3319  0.5801
  699MOL0     N94281   8.680   2.291   9.277 -0.0933  0.2055 -0.2097
  699MOL0     N94282   8.651   2.202   9.189  0.2262 -1.1213 -0.7334
  699MOL0     C94283   8.025   1.569   9.453  0.5104  0.5133 -0.6687
  699MOL0     C94284   8.083   1.552   9.574 -0.2229 -0.0247  0.2481
  699MOL0     C94285   8.416   1.393   9.862 -0.0783 -0.9475 -0.7452
  699MOL0     C94286   8.419   1.520   9.936  0.2116  1.3416 -0.5661
  699MOL0     C94287   8.482   1.525  10.061 -0.6226  0.2710 -1.3040
  699MOL0     C94288   8.545   1.413  10.108  0.3743  1.1755  0.3647
  699MOL0     O94289   8.623   1.424  10.223  0.6742  0.7432  0.4095
  699MOL0     C94290   8.596   1.339  10.326 -0.7866  0.9836 -0.1145
  699MOL0     C94291   8.707   1.359  10.433 -0.2453 -0.2070  0.3500
  699MOL0     C94292   8.717   1.234  10.530 -0.1847 -0.3457  0.0850
  699MOL0     C94293   8.585   1.207  10.585 -0.3116  0.2978 -0.3160
  699MOL0     C94294   8.606   1.124  10.709 -1.1358  0.3049 -0.1385
  699MOL0     C94295   8.617   1.051  10.804 -0.1384  1.2134 -0.2245
  699MOL0     C94296   8.563   1.298  10.033 -0.7091 -0.6850 -0.5566
  699MOL0     C94297   8.496   1.289   9.902 -0.4175 -0.5962  0.2970
  699MOL0     H94298   8.399   1.497   9.469 -0.7603 -0.4714  2.0318
  699MOL0     H94299   8.272   1.526   9.240  0.3848  0.4509 -0.1225
  699MOL0     H94300   7.852   1.644   9.227 -1.2658 -1.4617 -3.0731
  699MOL0     H94301   7.980   1.762   9.240  1.6195 -1.6999  0.5875
  699MOL0     H94302   7.888   1.625   8.984 -0.3283  0.6030 -0.2149
  699MOL0     H94303   7.876   1.802   9.021 -0.4836  0.0113 -3.2020
  699MOL0     H94304   8.140   1.656   8.996 -0.1502  0.9556  0.4764
  699MOL0     H94305   8.061   1.742   8.863  1.9282  0.9360  0.5504
  699MOL0     H94306   8.075   1.947   8.991  1.6353  0.9206  0.5303
  699MOL0     H94307   8.176   1.865   9.117 -1.9623 -0.5389  0.4302
  699MOL0     H94308   8.323   1.782   8.950 -1.7516 -0.3565  0.5964
  699MOL0     H94309   8.241   1.863   8.817  1.2025 -2.4230 -0.8010
  699MOL0     H94310   8.425   1.992   8.843 -0.5851 -0.4683 -1.2072
  699MOL0     H94311   8.288   2.087   8.883  0.7651  0.7974 -0.1019
  699MOL0     H94312   8.331   2.051   9.129 -0.2712  6.1829 -0.6013
  699MOL0     H94313   8.483   1.984   9.091 -0.3552 -2.5479 -1.9329
  699MOL0     H94314   8.376   2.252   9.000 -0.6946 -0.3591 -0.9313
  699MOL0     H94315   8.525   2.181   8.944 -2.2862 -2.5422 -1.0474
  699MOL0     H94316   8.389   2.396   9.197 -0.2244 -1.3413 -0.4111
  699MOL0     H94317   8.492   2.537   9.408 -0.7663 -0.7379 -3.8669
  699MOL0     H94318   8.647   2.474   9.465  1.3950  0.4134 -0.3557
  699MOL0     H94319   8.585   2.665   9.238  1.3605  0.6700 -2.1202
  699MOL0     H94320   8.749   2.631   9.271 -0.5186 -0.0516 -1.0745
  699MOL0     H94321   8.717   2.703   9.517 -4.8920  1.9913  4.4981
  699MOL0     H94322   8.568   2.770   9.480  2.5292  2.5374  3.0520
  699MOL0     H94323   8.670   2.921   9.304 -0.5023 -0.9165 -1.0092
  699MOL0     H94324   8.827   2.843   9.322 -0.8649 -3.2247  0.1171
  699MOL0     H94325   8.824   3.063   9.247  0.8747  0.2760 -0.0597
  699MOL0     H94326   9.134   3.153   9.095  0.5515  0.6122  0.3970
  699MOL0     H94327   8.966   3.151   9.063  0.7273  2.5228 -1.6372
  699MOL0     H94328   9.047   3.302   9.092 -1.4827  0.3671  0.8613
  699MOL0     H94329   9.283   3.614   9.461 -0.0412  0.9559 -1.3125
  699MOL0     H94330   9.477   3.763   9.427 -0.6765 -0.4616  1.3544
  699MOL0     H94331   9.903   3.540   9.419 -2.0729 -2.7975 -0.1327
  699MOL0     H94332   9.856   3.540   9.258  0.8197 -2.1025  2.3595
  699MOL0     H94333   9.978   3.772   9.418  0.0766  1.1393 -0.6309
  699MOL0     H94334  10.053   3.690   9.296  0.2590  1.4334 -1.4580
  699MOL0     H94335   9.792   3.826   9.235 -0.5290 -0.8618  2.2294
  699MOL0     H94336   9.908   3.795   9.117  5.0370 -1.9493 -0.1061
  699MOL0     H94337   9.886   4.032   9.187 -1.8372 -1.0682 -0.6675
  699MOL0     H94338   9.935   3.995   9.354 -0.1688 -0.2891 -0.3319
  699MOL0     H94339  10.096   3.921   9.110  1.6852 -4.0222  1.8625
  699MOL0     H94340  10.149   3.902   9.272 -1.1590 -0.2998  0.6978
  699MOL0     H94341  10.241   4.107   9.143 -0.0393  2.1831 -0.9946
  699MOL0     H94342  10.077   4.145   9.101 -0.6972 -3.4662 -0.7042
  699MOL0     H94343  10.224   4.156   9.366 -0.7999 -1.3761  0.8611
  699MOL0     H94344  10.046   4.185   9.365 -0.6772 -1.0503 -1.5888
  699MOL0     H94345  10.185   4.390   9.384  1.5378  2.3916 -0.4323
  699MOL0     H94346  10.092   4.384   9.226  0.6671 -1.2437 -0.8807
  699MOL0     H94347   9.726   3.421   9.428 -0.2408  0.0025 -0.4260
  699MOL0     H94348   9.529   3.270   9.451 -0.7381 -0.6258 -1.2809
  699MOL0     H94349   9.113   3.239   9.601  2.6719 -1.7159 -1.4242
  699MOL0     H94350   8.927   3.095   9.651  0.1221  0.5083  0.4647
  699MOL0     H94351   7.917   1.574   9.463  0.4001 -2.5134  0.9507
  699MOL0     H94352   8.042   1.546   9.674  1.4965  1.0529  1.0695
  699MOL0     H94353   8.365   1.606   9.898 -0.9660  0.3017 -1.3181
  699MOL0     H94354   8.473   1.616  10.120  0.1374 -0.8300  0.6109
  699MOL0     H94355   8.495   1.367  10.359 -0.2066 -1.0540  3.9863
  699MOL0     H94356   8.596   1.236  10.290  0.7509  1.0490 -0.3642
  699MOL0     H94357   8.698   1.446  10.498 -2.1112  1.0658 -1.4911
  699MOL0     H94358   8.803   1.370  10.381 -0.6829 -3.2185 -1.3459
  699MOL0     H94359   8.787   1.252  10.612  0.3251 -1.8407 -0.0004
  699MOL0     H94360   8.756   1.149  10.473  0.9818  0.2481 -0.0321
  699MOL0     H94361   8.516   1.150  10.521 -1.3676 -1.2260  2.0619
  699MOL0     H94362   8.527   1.295  10.614 -2.7933  0.0587 -3.7876
  699MOL0     H94363   8.619   0.983  10.887 -1.7747  0.2076 -0.9584
  699MOL0     H94364   8.633   1.225  10.073  1.1254  0.6860 -1.0813
  699MOL0     H94365   8.497   1.203   9.836 -0.0842 -1.3802  1.2908
  700MOL0     O94366   2.167   7.736   0.753 -0.8180  0.3839 -0.6165
  700MOL0     C94367   2.250   7.663   0.700  0.8559 -0.4101 -0.9250
  700MOL0     O94368   2.247   7.620   0.571 -0.5119  0.0234  0.2523
  700MOL0     C94369   2.129   7.614   0.506 -0.1319  0.5805 -0.4818
  700MOL0     C94370   2.149   7.608   0.366  0.0414 -0.8451 -1.3419
  700MOL0     C94371   2.054   7.583   0.280  0.9697 -0.0182 -1.2086
  700MOL0     C94372   1.926   7.555   0.326  0.6475 -0.0625  0.4809
  700MOL0     O94373   1.834   7.529   0.231 -0.2630 -0.3251  0.5714
  700MOL0     C94374   1.695   7.554   0.256  0.1630  0.4757 -0.8939
  700MOL0     C94375   1.634   7.417   0.302 -0.9597  0.6326  0.4130
  700MOL0     C94376   1.503   7.445   0.376 -0.1355  0.1683  0.9665
  700MOL0     C94377   1.396   7.492   0.268  0.1509  0.1285  0.6503
  700MOL0     C94378   1.262   7.461   0.325  0.3136 -0.6420  0.3528
  700MOL0     C94379   1.229   7.312   0.345  0.6286 -0.5814  0.2065
  700MOL0     C94380   1.086   7.284   0.385  0.9310 -0.1439 -0.4681
  700MOL0     C94381   1.079   7.131   0.430  0.3674  0.0592 -0.4221
  700MOL0     N94382   0.938   7.092   0.413  0.2579 -0.1903  0.2790
  700MOL0     C94383   0.835   7.141   0.483  0.0029 -0.0205 -0.4832
  700MOL0     C94384   0.715   7.110   0.423 -0.5875 -0.2927 -1.1316
  700MOL0     C94385   0.576   7.141   0.463 -0.7922  0.2847 -0.3549
  700MOL0     C94386   0.543   7.285   0.425  0.2437  0.0252 -0.7310
  700MOL0     C94387   0.596   7.395   0.525  0.2676 -0.0873 -0.5255
  700MOL0     C94388   0.689   7.502   0.461 -1.3357  0.1009 -0.3025
  700MOL0     O94389   0.725   7.589   0.566 -0.0319  0.7877  0.1934
  700MOL0     C94390   0.848   7.653   0.556 -0.5546  0.6702  0.6400
  700MOL0     C94391   0.905   7.704   0.670  0.3028 -0.3410  0.5767
  700MOL0     C94392   1.029   7.770   0.662 -1.1349 -0.1688 -0.8333
  700MOL0     C94393   1.095   7.832   0.785  0.4140  0.3204 -0.5261
  700MOL0     C94394   1.100   7.781   0.543  0.4030 -0.1552 -0.2050
  700MOL0     C94395   1.229   7.845   0.528 -1.2341  0.6468  0.1853
  700MOL0     O94396   1.338   7.779   0.480  0.2918  0.6593 -0.0824
  700MOL0     C94397   1.453   7.846   0.498 -0.5475  0.2023 -0.0960
  700MOL0     C94398   1.514   7.861   0.620  0.2078  0.4099 -0.5754
  700MOL0     C94399   1.646   7.908   0.630  0.4376  0.0807 -0.6576
  700MOL0     C94400   1.702   7.980   0.522 -0.7873  0.0751 -0.4569
  700MOL0     O94401   1.822   8.049   0.523  0.7214  0.1933 -0.5795
  700MOL0     C94402   1.912   8.036   0.633 -0.9220 -0.4672 -0.1979
  700MOL0     C94403   2.030   8.127   0.620 -0.4802  0.1958  0.9373
  700MOL0     C94404   2.127   8.128   0.740  0.3334 -0.5789  0.4355
  700MOL0     C94405   2.238   8.237   0.722  0.5297  0.3412  0.5715
  700MOL0     C94406   2.298   8.276   0.859 -0.2414 -0.0951  0.0033
  700MOL0     C94407   2.420   8.371   0.861  0.1854  1.2031  0.1133
  700MOL0     C94408   2.374   8.511   0.834 -0.5322  0.5260  1.1298
  700MOL0     C94409   2.466   8.615   0.913  0.0424  1.0225 -0.4345
  700MOL0    Cl94410   2.410   8.668   1.073  0.4458 -0.0585  0.0642
  700MOL0     C94411   1.643   7.972   0.401  0.3723 -0.0029  0.0992
  700MOL0     C94412   1.520   7.903   0.390  0.5414 -1.0383  0.7037
  700MOL0     O94413   1.215   7.959   0.544 -0.2168 -0.7904 -0.2521
  700MOL0     C94414   1.042   7.730   0.426 -0.8397 -0.5165 -0.4017
  700MOL0     C94415   0.919   7.665   0.432 -0.3342  0.6269  0.7896
  700MOL0     N94416   0.748   7.040   0.316 -0.5006  0.7919  0.1588
  700MOL0     N94417   0.879   7.018   0.309 -0.2155 -0.4417  0.1534
  700MOL0     C94418   1.899   7.555   0.465 -0.7575  0.6435  0.4542
  700MOL0     C94419   2.001   7.595   0.556  0.0715  0.5161  0.1684
  700MOL0     C94420   2.370   7.635   0.778  0.5061  0.0897  0.4327
  700MOL0     C94421   2.381   7.699   0.904  0.0218 -0.1819 -0.0857
  700MOL0     C94422   2.488   7.672   0.976 -0.3749  0.7997 -0.1275
  700MOL0     C94423   2.587   7.581   0.945  0.1122  1.3107 -0.2812
  700MOL0     O94424   2.685   7.558   1.037 -0.9081 -0.6544 -0.8916
  700MOL0     C94425   2.781   7.455   1.006  0.3735 -0.0470  0.2751
  700MOL0     C94426   2.854   7.435   1.133 -0.5122  0.2213 -1.0731
  700MOL0     C94427   2.901   7.292   1.125  0.4609  0.3827  0.9172
  700MOL0     C94428   2.957   7.263   1.268 -0.6562 -0.3721  0.2461
  700MOL0     C94429   3.061   7.165   1.268 -0.3034 -0.7271  0.1252
  700MOL0     C94430   3.153   7.089   1.274 -0.2229  0.4591  0.4182
  700MOL0     C94431   2.581   7.527   0.815 -0.3561  0.2932  1.2045
  700MOL0     C94432   2.467   7.550   0.727  0.7124 -0.4703  0.1861
  700MOL0     H94433   2.249   7.603   0.325 -0.2371 -1.6655 -1.9502
  700MOL0     H94434   2.080   7.572   0.175  0.5323 -0.5661 -1.2654
  700MOL0     H94435   1.669   7.635   0.324  3.4390  2.7730 -2.1502
  700MOL0     H94436   1.651   7.563   0.156 -2.0681 -5.4070 -0.8374
  700MOL0     H94437   1.619   7.358   0.212  1.1456  0.4729  0.1017
  700MOL0     H94438   1.698   7.357   0.367  1.8661  0.5404 -2.2042
  700MOL0     H94439   1.481   7.361   0.444  1.6195  0.0258  1.4105
  700MOL0     H94440   1.515   7.533   0.439 -3.3279  0.7148  0.9716
  700MOL0     H94441   1.407   7.595   0.234 -1.2043  0.1854  0.3472
  700MOL0     H94442   1.405   7.424   0.182  1.3553 -0.5209  1.2546
  700MOL0     H94443   1.253   7.515   0.420  1.2532 -0.4836  0.3558
  700MOL0     H94444   1.188   7.506   0.258  2.1666 -0.3482 -1.5974
  700MOL0     H94445   1.261   7.257   0.256  2.1709  1.3856 -0.5290
  700MOL0     H94446   1.290   7.285   0.431 -1.3668 -1.6063  1.3820
  700MOL0     H94447   1.063   7.351   0.468 -0.3882 -0.9760 -0.1381
  700MOL0     H94448   1.017   7.302   0.302  2.2180 -2.1120 -2.0551
  700MOL0     H94449   1.120   7.122   0.531 -0.9957 -1.7916  0.0243
  700MOL0     H94450   1.125   7.061   0.360  1.3895  1.3435 -1.0671
  700MOL0     H94451   0.837   7.195   0.577 -3.0029 -0.7594  0.1243
  700MOL0     H94452   0.504   7.086   0.402 -1.3024  0.6972 -0.1380
  700MOL0     H94453   0.554   7.124   0.569 -1.5251  1.8032 -0.2326
  700MOL0     H94454   0.437   7.303   0.408 -0.0454 -1.7023 -0.9347
  700MOL0     H94455   0.590   7.300   0.327  3.8495  1.9475  1.0798
  700MOL0     H94456   0.662   7.344   0.596  2.6882  1.9474 -1.1855
  700MOL0     H94457   0.515   7.434   0.586  0.5992  0.1465 -0.2313
  700MOL0     H94458   0.638   7.557   0.381  0.7114  0.0835 -1.6934
  700MOL0     H94459   0.780   7.450   0.429 -0.5598  0.6452  0.9442
  700MOL0     H94460   0.851   7.685   0.762  1.1588  1.2088  1.4308
  700MOL0     H94461   1.086   7.758   0.866 -1.1873 -0.4976 -1.4032
  700MOL0     H94462   1.200   7.859   0.783  0.4357  0.1929 -1.3722
  700MOL0     H94463   1.039   7.918   0.825  0.2725  0.0866 -0.2082
  700MOL0     H94464   1.470   7.809   0.705  2.3041  1.3519  1.1885
  700MOL0     H94465   1.708   7.899   0.718 -0.2990 -1.1846 -0.2413
  700MOL0     H94466   1.867   8.051   0.731 -0.3470 -1.3950  0.2111
  700MOL0     H94467   1.944   7.932   0.630 -2.7754 -1.1442  1.3906
  700MOL0     H94468   2.094   8.116   0.532 -0.0423 -0.9364  1.3848
  700MOL0     H94469   1.987   8.227   0.612 -0.6936  0.0293 -0.0676
  700MOL0     H94470   2.184   8.035   0.749  1.0637 -0.1457  0.3694
  700MOL0     H94471   2.069   8.144   0.831 -1.6929  0.8346 -1.0272
  700MOL0     H94472   2.307   8.199   0.646  1.1710  2.8909 -0.2361
  700MOL0     H94473   2.192   8.322   0.671 -0.4935  0.6714  1.9880
  700MOL0     H94474   2.315   8.179   0.906 -3.3880 -0.5775  0.3746
  700MOL0     H94475   2.219   8.327   0.915  2.4163  1.3667  2.6512
  700MOL0     H94476   2.472   8.373   0.957 -2.6922  2.1293  1.8084
  700MOL0     H94477   2.485   8.340   0.779  2.2760 -0.1673  2.1832
  700MOL0     H94478   2.277   8.531   0.879 -0.7216  1.0319  0.5017
  700MOL0     H94479   2.361   8.549   0.732  0.2721  1.2395  1.2782
  700MOL0     H94480   2.493   8.702   0.852  5.9067  0.7280  1.1119
  700MOL0     H94481   2.561   8.565   0.935 -1.3462 -0.8627  1.6185
  700MOL0     H94482   1.700   8.019   0.322 -0.6576 -2.5508 -2.3293
  700MOL0     H94483   1.481   7.903   0.288  0.9834 -3.4250  0.4710
  700MOL0     H94484   1.094   7.725   0.331 -2.0755 -1.4626 -1.0441
  700MOL0     H94485   0.877   7.634   0.337  1.0472 -1.5053  0.7847
  700MOL0     H94486   1.796   7.541   0.495 -0.8017 -1.6196 -0.5945
  700MOL0     H94487   1.984   7.577   0.661 -2.2310  0.7104 -0.1241
  700MOL0     H94488   2.304   7.759   0.952  0.6280 -2.1111  3.6381
  700MOL0     H94489   2.481   7.711   1.077 -1.9250  3.6250 -1.2062
  700MOL0     H94490   2.730   7.360   0.991  0.2794  0.1184 -0.4580
  700MOL0     H94491   2.856   7.485   0.932 -1.1600  2.1063 -0.5299
  700MOL0     H94492   2.790   7.439   1.222  2.2339 -1.9452  1.1768
  700MOL0     H94493   2.933   7.509   1.143 -0.3906 -0.0979  0.4732
  700MOL0     H94494   2.979   7.291   1.049 -0.1222  2.8271  0.1790
  700MOL0     H94495   2.826   7.213   1.110  0.8001 -0.2685  2.4830
  700MOL0     H94496   2.876   7.239   1.337 -0.3180  2.4494  1.7552
  700MOL0     H94497   2.998   7.359   1.300 -3.8411  3.2574 -4.9330
  700MOL0     H94498   3.222   7.007   1.273  0.5901  1.0834  2.3179
  700MOL0     H94499   2.663   7.469   0.773 -0.7170  0.3054  0.4618
  700MOL0     H94500   2.459   7.515   0.624  0.8127  0.1218 -0.0302
  701MOL0     O94501   1.488   5.931  10.764  0.4659  0.5301  0.3681
  701MOL0     C94502   1.487   6.025  10.685 -0.0357 -1.0933 -0.3510
  701MOL0     O94503   1.598   6.092  10.630  0.1248 -0.6951  0.1203
  701MOL0     C94504   1.723   6.055  10.668  0.2430 -0.3725  0.8975
  701MOL0     C94505   1.762   6.047  10.799  0.4140 -0.4159 -0.6391
  701MOL0     C94506   1.888   6.014  10.830 -0.5481  0.7289  0.1410
  701MOL0     C94507   1.986   6.005  10.730 -0.7931 -0.0127  0.7456
  701MOL0     O94508   2.121   5.992  10.754 -0.6974  0.0063 -0.0223
  701MOL0     C94509   2.183   6.118  10.783  1.5474  1.2150 -0.1232
  701MOL0     C94510   2.241   6.110  10.931  0.4840 -0.8265 -0.6077
  701MOL0     C94511   2.371   6.033  10.946 -0.7345  0.1743  0.3428
  701MOL0     C94512   2.425   6.018  11.085  0.8956 -0.3902 -0.4131
  701MOL0     C94513   2.539   6.117  11.116 -0.1436  0.2207 -0.4118
  701MOL0     C94514   2.594   6.083  11.255 -0.0988 -0.8217 -0.9923
  701MOL0     C94515   2.682   6.199  11.303 -0.5809  0.0030  0.1259
  701MOL0     C94516   2.826   6.204  11.249 -0.2656  0.2178 -0.2855
  701MOL0     N94517   2.901   6.099  11.301  0.7618 -0.9886 -1.0537
  701MOL0     C94518   2.923   6.080  11.438  0.4101 -0.5633 -0.7115
  701MOL0     C94519   2.996   5.965  11.434 -0.3111 -0.9412 -0.6166
  701MOL0     C94520   3.056   5.882  11.552 -0.0058  0.9748  0.4049
  701MOL0     C94521   2.969   5.768  11.617  0.4003 -0.1081 -0.3777
  701MOL0     C94522   2.904   5.667  11.513  0.3645  0.3706  0.5024
  701MOL0     C94523   2.771   5.726  11.468 -0.5254  0.1999 -0.6250
  701MOL0     O94524   2.691   5.767  11.570  0.7845 -0.0124  0.6133
  701MOL0     C94525   2.562   5.797  11.544 -0.2164 -0.0855  0.1549
  701MOL0     C94526   2.497   5.767  11.423  0.0105 -0.1084  0.2054
  701MOL0     C94527   2.355   5.773  11.409 -0.8704  0.1974 -0.9443
  701MOL0     C94528   2.299   5.710  11.282  0.6272 -0.2250 -0.3706
  701MOL0     C94529   2.271   5.837  11.510  0.3401 -0.7799 -0.0546
  701MOL0     C94530   2.120   5.857  11.507  0.4810  0.1560  0.2536
  701MOL0     O94531   2.062   5.833  11.392 -0.5464  0.4712  0.0657
  701MOL0     C94532   1.931   5.865  11.383 -0.4302  0.4549  0.2781
  701MOL0     C94533   1.882   5.957  11.293 -0.0199  0.7500  0.1894
  701MOL0     C94534   1.747   5.972  11.263 -0.4859  0.3311  0.3122
  701MOL0     C94535   1.659   5.892  11.340 -0.2769 -0.5096 -0.2955
  701MOL0     O94536   1.522   5.914  11.320  0.1476  0.1313  0.0836
  701MOL0     C94537   1.448   5.799  11.299 -0.4881  0.3673 -0.3484
  701MOL0     C94538   1.364   5.834  11.181 -0.3303  0.2317  0.1058
  701MOL0     C94539   1.251   5.936  11.205  0.7434  0.2658  0.0563
  701MOL0     C94540   1.116   5.870  11.199 -0.8852 -0.7678  0.8079
  701MOL0     C94541   1.010   5.977  11.180  0.4248 -0.1647 -0.4474
  701MOL0     C94542   0.972   6.050  11.307 -0.3756 -0.8503  1.2820
  701MOL0     C94543   0.868   6.159  11.290 -0.0619  0.4869  0.3408
  701MOL0     C94544   0.862   6.253  11.418  0.6606 -0.3891  0.9645
  701MOL0    Cl94545   1.026   6.341  11.445  0.6621 -0.0151 -0.0263
  701MOL0     C94546   1.707   5.803  11.437 -0.4285  0.3442  0.8797
  701MOL0     C94547   1.843   5.787  11.444  0.6877 -0.8728  0.2061
  701MOL0     O94548   2.076   5.918  11.607  0.1488 -0.1275  0.5332
  701MOL0     C94549   2.338   5.883  11.622  0.5804 -0.8333  0.5369
  701MOL0     C94550   2.477   5.864  11.637  0.6449 -0.5498 -0.0403
  701MOL0     N94551   3.025   5.922  11.309 -0.7505 -0.7173 -0.1931
  701MOL0     N94552   2.969   6.005  11.230 -0.4118 -0.2417  0.2020
  701MOL0     C94553   1.950   6.032  10.597  0.2180 -0.1824 -0.5617
  701MOL0     C94554   1.818   6.051  10.562  0.2438  1.3343 -0.0868
  701MOL0     C94555   1.351   6.079  10.646 -0.3917 -0.3161  0.7061
  701MOL0     C94556   1.228   6.042  10.714  0.9093 -0.0519  0.9025
  701MOL0     C94557   1.099   6.081  10.666  0.5212  0.5479  0.2352
  701MOL0     C94558   1.087   6.178  10.560 -0.6301 -0.2481 -1.2205
  701MOL0     O94559   0.955   6.207  10.532 -0.5452 -0.3830 -0.0694
  701MOL0     C94560   0.937   6.343  10.490  0.4525 -0.4765 -0.2095
  701MOL0     C94561   0.794   6.392  10.483 -0.4692  0.4397  0.1884
  701MOL0     C94562   0.702   6.284  10.420 -0.2335  0.0704  0.1977
  701MOL0     C94563   0.564   6.350  10.404 -0.9272 -0.2831  0.3472
  701MOL0     C94564   0.482   6.274  10.316 -0.6575  0.0789  0.0252
  701MOL0     C94565   0.410   6.235  10.226  0.5683 -0.6903  0.7961
  701MOL0     C94566   1.206   6.238  10.514 -0.2494 -0.2220  0.4219
  701MOL0     C94567   1.335   6.181  10.548  0.7483  0.2310  0.5634
  701MOL0     H94568   1.693   6.054  10.883  2.4870  1.3922  1.0032
  701MOL0     H94569   1.909   5.989  10.934 -1.0011 -0.7537 -0.0974
  701MOL0     H94570   2.270   6.144  10.722  1.9740 -0.3392 -0.2091
  701MOL0     H94571   2.102   6.191  10.774  1.1064  0.6610 -0.7623
  701MOL0     H94572   2.264   6.209  10.969 -0.5910 -0.6061 -0.4843
  701MOL0     H94573   2.159   6.069  10.991  0.0961  1.9186  0.9132
  701MOL0     H94574   2.350   5.929  10.916  2.8457 -1.1277  1.7826
  701MOL0     H94575   2.454   6.071  10.885 -1.1954  1.3793  0.4404
  701MOL0     H94576   2.342   6.033  11.155 -0.8087 -1.4498 -2.0883
  701MOL0     H94577   2.477   5.922  11.083  1.8646  0.1346 -2.5797
  701MOL0     H94578   2.618   6.102  11.043  0.2488 -0.1917  0.0833
  701MOL0     H94579   2.495   6.217  11.111  0.0347  0.5418  2.5417
  701MOL0     H94580   2.512   6.066  11.326  0.3027  2.8696  0.5959
  701MOL0     H94581   2.644   5.986  11.247 -1.1077 -1.4566  0.0402
  701MOL0     H94582   2.647   6.299  11.276  1.7961  0.6639 -0.7995
  701MOL0     H94583   2.697   6.188  11.411  1.3575 -1.7563 -0.2461
  701MOL0     H94584   2.878   6.294  11.282 -0.1675 -0.0342  0.2580
  701MOL0     H94585   2.831   6.199  11.140  1.6728 -1.6646 -0.1633
  701MOL0     H94586   2.886   6.141  11.520  0.4717 -0.9366 -0.4048
  701MOL0     H94587   3.143   5.832  11.509 -0.5948  0.5674 -0.3374
  701MOL0     H94588   3.083   5.953  11.630 -0.3008  0.6570  0.8017
  701MOL0     H94589   2.894   5.814  11.683 -2.0038 -0.0915 -2.9482
  701MOL0     H94590   3.033   5.708  11.683  0.5273 -0.3583 -0.7289
  701MOL0     H94591   2.902   5.565  11.554  2.7020 -0.5245 -1.4160
  701MOL0     H94592   2.975   5.671  11.430  1.5967 -0.7825  1.4568
  701MOL0     H94593   2.712   5.656  11.409 -0.7187  1.0906 -1.5254
  701MOL0     H94594   2.800   5.805  11.398  3.3741  1.5307  2.1642
  701MOL0     H94595   2.548   5.707  11.348  0.2906  0.5896 -0.1640
  701MOL0     H94596   2.227   5.631  11.307  1.5295 -0.7579  0.6444
  701MOL0     H94597   2.250   5.788  11.224  3.1143  2.0848  0.4133
  701MOL0     H94598   2.373   5.648  11.230  0.1047 -1.8277  0.7124
  701MOL0     H94599   1.956   6.011  11.234  0.4492 -0.6593 -0.5583
  701MOL0     H94600   1.724   6.055  11.197  0.6966  0.5126  0.0986
  701MOL0     H94601   1.496   5.702  11.284 -2.0145 -0.3944 -0.4404
  701MOL0     H94602   1.393   5.779  11.391  2.8258 -2.4092  1.2718
  701MOL0     H94603   1.421   5.870  11.094 -0.4763  1.1491  0.3795
  701MOL0     H94604   1.311   5.742  11.153 -0.8679  0.9128 -1.2351
  701MOL0     H94605   1.244   6.001  11.117 -4.3249 -0.5790 -0.4733
  701MOL0     H94606   1.256   6.004  11.291  1.9990 -1.2810  1.2621
  701MOL0     H94607   1.109   5.808  11.109 -0.7322  1.8161 -1.1059
  701MOL0     H94608   1.101   5.808  11.288 -1.6311 -1.8778 -0.0580
  701MOL0     H94609   0.917   5.923  11.159 -0.5666  0.3390  2.3114
  701MOL0     H94610   1.026   6.042  11.094 -1.2614 -0.1903 -0.8230
  701MOL0     H94611   0.934   5.965  11.365 -1.0782 -1.5785 -0.2056
  701MOL0     H94612   1.062   6.091  11.354  0.3054 -0.3101 -0.4182
  701MOL0     H94613   0.776   6.103  11.270  0.2797  0.0959 -0.1511
  701MOL0     H94614   0.884   6.231  11.209  1.0550  0.3151  0.3917
  701MOL0     H94615   0.837   6.186  11.501  1.5383 -0.6067  1.0692
  701MOL0     H94616   0.789   6.331  11.396  1.6363  0.0094 -1.1878
  701MOL0     H94617   1.649   5.732  11.495  1.8866 -1.5693  0.9655
  701MOL0     H94618   1.889   5.710  11.505 -1.7881  0.1979  3.6952
  701MOL0     H94619   2.286   5.939  11.699  2.0634  0.9124  0.3721
  701MOL0     H94620   2.508   5.912  11.729 -3.3309  1.7328  0.3010
  701MOL0     H94621   2.033   6.032  10.527  2.0397  1.3164  1.4676
  701MOL0     H94622   1.790   6.067  10.458  1.3792 -1.1569 -0.8499
  701MOL0     H94623   1.239   5.966  10.790 -1.4360 -0.0034  1.3671
  701MOL0     H94624   1.010   6.049  10.720  0.6646  1.4484  1.0358
  701MOL0     H94625   1.000   6.410  10.549  0.1458 -0.4942  0.1451
  701MOL0     H94626   0.974   6.345  10.387 -0.4683 -1.3151 -0.5712
  701MOL0     H94627   0.788   6.486  10.427 -0.5308  0.3145 -0.0176
  701MOL0     H94628   0.764   6.411  10.586 -1.5371 -0.3075  0.0322
  701MOL0     H94629   0.690   6.199  10.488  0.0094 -1.1378 -1.2336
  701MOL0     H94630   0.739   6.247  10.324  0.3176 -4.3239  1.8614
  701MOL0     H94631   0.569   6.456  10.378  1.7094 -0.9753 -2.5560
  701MOL0     H94632   0.519   6.346  10.503  1.9159 -1.3727  1.7233
  701MOL0     H94633   0.373   6.206  10.130  2.8849  2.5982 -1.3050
  701MOL0     H94634   1.196   6.309  10.432  3.4520 -1.2567 -1.1514
  701MOL0     H94635   1.426   6.209  10.496  0.9846 -0.8085  0.3977
  702MOL0     O94636   0.292   0.387   9.136  0.3195  0.6849  0.3263
  702MOL0     C94637   0.336   0.487   9.078 -0.2934 -0.0580  0.3279
  702MOL0     O94638   0.469   0.519   9.058 -0.4026 -0.5063 -0.0197
  702MOL0     C94639   0.563   0.444   9.122 -0.1831  0.6794 -0.0726
  702MOL0     C94640   0.593   0.323   9.061 -1.4523 -0.0136 -0.1642
  702MOL0     C94641   0.693   0.240   9.122 -0.2854 -0.3960  0.4741
  702MOL0     C94642   0.748   0.268   9.255 -0.3118 -0.7608 -0.4557
  702MOL0     O94643   0.829   0.180   9.322 -0.0755  0.5428 -0.2187
  702MOL0     C94644   0.835   0.039   9.283 -0.2842  0.2269  0.4654
  702MOL0     C94645   0.889  -0.029   9.405  0.8160 -0.1351 -0.5127
  702MOL0     C94646   0.857  -0.181   9.415  0.0523 -0.5826 -0.9818
  702MOL0     C94647   0.970  -0.245   9.497 -0.0739 -0.2038  0.0836
  702MOL0     C94648   0.965  -0.400   9.488  0.0368  0.1415 -0.4874
  702MOL0     C94649   1.067  -0.470   9.571  0.3813 -0.0638 -0.6642
  702MOL0     C94650   1.085  -0.615   9.534  0.5621  0.0265  0.0552
  702MOL0     C94651   0.984  -0.725   9.565  0.6414 -0.1746 -0.7568
  702MOL0     N94652   0.987  -0.844   9.483  0.3674  0.3155 -0.5027
  702MOL0     C94653   1.080  -0.942   9.480  0.3932 -0.3114 -0.2455
  702MOL0     C94654   1.037  -1.031   9.384  0.0194  0.6656  0.5031
  702MOL0     C94655   1.140  -1.130   9.316  0.8708  0.3121  0.1432
  702MOL0     C94656   1.132  -1.276   9.368  0.8649  0.8811  0.1860
  702MOL0     C94657   1.021  -1.356   9.290  0.3523  0.5477  0.2433
  702MOL0     C94658   1.006  -1.511   9.317  0.3533 -0.6825  0.0069
  702MOL0     O94659   0.985  -1.529   9.454 -1.3379  0.4371 -0.0214
  702MOL0     C94660   0.862  -1.558   9.495 -0.3308 -1.0083 -0.1276
  702MOL0     C94661   0.846  -1.643   9.607 -0.2607 -0.3423  0.4274
  702MOL0     C94662   0.721  -1.685   9.655 -0.5030  0.0039  0.7666
  702MOL0     C94663   0.724  -1.783   9.771  0.3130 -0.1360  0.7843
  702MOL0     C94664   0.611  -1.635   9.585  0.1862 -0.5517  0.1647
  702MOL0     C94665   0.469  -1.670   9.616  0.0658 -0.4989  0.2772
  702MOL0     O94666   0.372  -1.637   9.516 -0.9654 -0.7400  0.4254
  702MOL0     C94667   0.243  -1.651   9.551  0.8868  0.4004 -0.1347
  702MOL0     C94668   0.182  -1.569   9.648 -0.0564  0.3435 -0.1113
  702MOL0     C94669   0.042  -1.567   9.662 -0.7941  0.4283 -0.2171
  702MOL0     C94670  -0.041  -1.650   9.581 -0.5286  0.5820 -0.6994
  702MOL0     O94671  -0.178  -1.635   9.598  0.1477  0.5995  0.5379
  702MOL0     C94672  -0.256  -1.740   9.528 -0.2515  0.2486 -0.0088
  702MOL0     C94673  -0.405  -1.725   9.577 -0.7185 -0.3400  0.0849
  702MOL0     C94674  -0.424  -1.754   9.721  0.0232 -0.4323 -0.9626
  702MOL0     C94675  -0.567  -1.730   9.772  0.0013  0.1636  0.1133
  702MOL0     C94676  -0.582  -1.794   9.920 -0.1342  0.5273 -0.0914
  702MOL0     C94677  -0.470  -1.757  10.015 -1.4585  0.0263 -0.3982
  702MOL0     C94678  -0.496  -1.818  10.148  0.2789 -0.0879  1.1405
  702MOL0     C94679  -0.403  -1.944  10.159 -0.4156  0.2933 -0.5635
  702MOL0    Cl94680  -0.431  -2.027  10.308  0.3510  0.1201 -0.6042
  702MOL0     C94681   0.026  -1.725   9.484  0.7915 -0.0383 -0.2393
  702MOL0     C94682   0.166  -1.724   9.466 -0.1544  0.9870  0.4585
  702MOL0     O94683   0.442  -1.715   9.723  0.0812  0.2102 -0.6675
  702MOL0     C94684   0.625  -1.532   9.489 -0.4307 -0.4255  0.0038
  702MOL0     C94685   0.755  -1.501   9.446  1.4437 -0.5415  0.0042
  702MOL0     N94686   0.913  -1.002   9.341  0.0780  0.4924 -0.6494
  702MOL0     N94687   0.881  -0.896   9.410  0.2206  0.0553 -0.3658
  702MOL0     C94688   0.719   0.401   9.302  0.2846  0.4593 -0.6664
  702MOL0     C94689   0.634   0.487   9.240  0.1246  0.4861  0.3375
  702MOL0     C94690   0.239   0.587   9.020  0.1782  0.1794  1.2352
  702MOL0     C94691   0.276   0.711   8.964 -1.0577  1.3655 -0.2159
  702MOL0     C94692   0.189   0.800   8.903 -0.3331 -0.8491  0.5869
  702MOL0     C94693   0.052   0.764   8.891  0.2795  0.0708 -0.4608
  702MOL0     O94694  -0.034   0.832   8.811 -0.6570 -0.8596  1.2207
  702MOL0     C94695  -0.173   0.855   8.846 -0.1817  0.2176 -0.8185
  702MOL0     C94696  -0.245   0.793   8.721  1.0615 -0.1711 -0.0252
  702MOL0     C94697  -0.280   0.646   8.719  0.6517  0.4423  0.2156
  702MOL0     C94698  -0.379   0.612   8.615 -0.0051  0.1419  0.2181
  702MOL0     C94699  -0.379   0.469   8.572  0.5550 -0.3088  0.4951
  702MOL0     C94700  -0.389   0.352   8.535 -0.5249 -1.5454  0.3159
  702MOL0     C94701   0.020   0.635   8.942  0.8236 -0.8111 -0.5404
  702MOL0     C94702   0.103   0.556   9.012  0.1684 -0.0226  0.2274
  702MOL0     H94703   0.552   0.295   8.965 -1.7139 -0.3128  0.0311
  702MOL0     H94704   0.718   0.144   9.079  2.5404 -0.6684  2.4706
  702MOL0     H94705   0.733   0.000   9.270 -0.1620  0.1163 -0.1654
  702MOL0     H94706   0.902   0.004   9.204  1.6479 -2.7022  3.1468
  702MOL0     H94707   0.997  -0.014   9.409  0.6338  1.0336  1.1719
  702MOL0     H94708   0.848   0.013   9.498  0.6767 -0.4191 -0.4433
  702MOL0     H94709   0.763  -0.203   9.465  0.0875  1.2587 -0.0007
  702MOL0     H94710   0.846  -0.214   9.311  1.1189  1.1492 -1.7044
  702MOL0     H94711   1.072  -0.219   9.469  0.5468 -2.5957 -0.0666
  702MOL0     H94712   0.944  -0.215   9.599 -1.3370  0.4018 -0.3870
  702MOL0     H94713   0.866  -0.437   9.517  0.6428  0.9239  3.0256
  702MOL0     H94714   1.000  -0.424   9.387 -0.6729 -1.5845 -0.3615
  702MOL0     H94715   1.164  -0.428   9.543  0.0377  2.3901  1.4150
  702MOL0     H94716   1.046  -0.461   9.678  1.9368 -3.2723  0.0273
  702MOL0     H94717   1.099  -0.616   9.426  3.0249  1.7372  0.2705
  702MOL0     H94718   1.181  -0.652   9.572  1.2550 -1.3643 -2.7969
  702MOL0     H94719   0.882  -0.684   9.559  0.7071 -0.2509 -4.2348
  702MOL0     H94720   1.020  -0.759   9.662  4.1498  0.0602 -1.8353
  702MOL0     H94721   1.174  -0.934   9.533  0.2443 -0.9668  0.1234
  702MOL0     H94722   1.129  -1.136   9.208  0.7799  0.1050  0.1626
  702MOL0     H94723   1.238  -1.087   9.340  1.6783 -1.3691 -0.0557
  702MOL0     H94724   1.122  -1.283   9.477  0.1350  3.4627  0.3415
  702MOL0     H94725   1.225  -1.330   9.345  1.6734  2.3657 -0.1208
  702MOL0     H94726   1.048  -1.358   9.184  1.3296 -2.1577  0.4504
  702MOL0     H94727   0.924  -1.312   9.312 -0.9261 -1.3395 -1.2778
  702MOL0     H94728   1.095  -1.558   9.275  0.2971  1.0264 -2.2075
  702MOL0     H94729   0.924  -1.557   9.261 -0.8007  1.9671 -0.6451
  702MOL0     H94730   0.943  -1.677   9.643  1.6962  2.3859 -1.8001
  702MOL0     H94731   0.757  -1.880   9.733 -0.0180 -0.3113  0.9397
  702MOL0     H94732   0.798  -1.750   9.844  0.6714 -0.2098  0.4538
  702MOL0     H94733   0.624  -1.807   9.809 -1.1629 -0.9356 -3.1320
  702MOL0     H94734   0.247  -1.502   9.704  2.4895 -1.5429 -0.6353
  702MOL0     H94735   0.012  -1.496   9.739 -1.3591 -1.1804  1.1037
  702MOL0     H94736  -0.253  -1.716   9.421  4.9170 -1.4535 -0.5642
  702MOL0     H94737  -0.218  -1.840   9.552 -0.7474  0.6917  3.0598
  702MOL0     H94738  -0.440  -1.627   9.544  2.0066  0.5223 -0.4656
  702MOL0     H94739  -0.465  -1.798   9.522  1.5836 -0.3217 -2.6242
  702MOL0     H94740  -0.351  -1.693   9.775  0.2449 -1.3678 -0.1894
  702MOL0     H94741  -0.402  -1.860   9.730 -3.2605 -1.0171  1.9838
  702MOL0     H94742  -0.593  -1.625   9.762  0.8726  0.4364  0.6718
  702MOL0     H94743  -0.637  -1.785   9.709  0.5370  0.5818 -0.8603
  702MOL0     H94744  -0.584  -1.904   9.917 -1.2647  0.4682  1.3970
  702MOL0     H94745  -0.675  -1.755   9.961 -2.1096 -1.3686 -2.4463
  702MOL0     H94746  -0.371  -1.789   9.981 -1.0560  0.5703  0.2373
  702MOL0     H94747  -0.465  -1.648  10.016 -3.1931  0.1486  1.8224
  702MOL0     H94748  -0.601  -1.848  10.154  0.4073 -0.5782  0.9453
  702MOL0     H94749  -0.465  -1.745  10.225  2.5268 -1.1398  1.3053
  702MOL0     H94750  -0.298  -1.913  10.152 -0.1160 -0.0993  1.4899
  702MOL0     H94751  -0.406  -2.013  10.075  0.3429 -0.3348 -0.0871
  702MOL0     H94752  -0.037  -1.776   9.412 -2.7074  1.4006  1.5601
  702MOL0     H94753   0.218  -1.780   9.388  1.5996  0.5315  1.8871
  702MOL0     H94754   0.546  -1.467   9.452  0.5618  2.4887  2.4956
  702MOL0     H94755   0.756  -1.424   9.370  1.4455  0.7070  1.2238
  702MOL0     H94756   0.767   0.433   9.395  1.4205 -2.0982 -0.3029
  702MOL0     H94757   0.597   0.586   9.267 -1.2477  1.2017 -3.4601
  702MOL0     H94758   0.383   0.717   8.948 -0.4259 -2.9205  1.0139
  702MOL0     H94759   0.235   0.881   8.847 -1.6898 -0.7919 -0.4921
  702MOL0     H94760  -0.206   0.799   8.933  0.3798 -0.7230 -1.1928
  702MOL0     H94761  -0.202   0.959   8.861 -2.3798 -0.1164 -2.2430
  702MOL0     H94762  -0.184   0.814   8.633  0.8890 -0.2764 -0.1711
  702MOL0     H94763  -0.341   0.844   8.710  0.7087 -0.2853  2.0091
  702MOL0     H94764  -0.316   0.614   8.817  0.3957  1.9451  0.6256
  702MOL0     H94765  -0.191   0.589   8.689  0.7923  1.8866 -2.3603
  702MOL0     H94766  -0.368   0.670   8.523  2.4282  3.8698  2.5683
  702MOL0     H94767  -0.476   0.640   8.657  1.4682  1.9352  2.6568
  702MOL0     H94768  -0.372   0.249   8.512  1.8638 -1.0238 -0.4628
  702MOL0     H94769  -0.081   0.604   8.917  0.2924 -0.9468  1.6252
  702MOL0     H94770   0.069   0.464   9.059 -0.8082  1.3673  2.3568
  703MOL0     O94771   1.497   7.253   2.612  0.3102 -0.2451  0.4727
  703MOL0     C94772   1.537   7.139   2.646 -0.3292 -0.5941  0.1631
  703MOL0     O94773   1.459   7.035   2.646  0.9347 -0.5104  0.2828
  703MOL0     C94774   1.320   7.053   2.658 -0.1138 -0.0704  0.0124
  703MOL0     C94775   1.268   7.025   2.779  0.0422  0.4262 -0.6039
  703MOL0     C94776   1.127   7.042   2.791  0.7834  0.6514  0.9644
  703MOL0     C94777   1.041   7.063   2.677 -0.7679 -0.3520  0.5383
  703MOL0     O94778   0.908   7.070   2.686  0.6021 -0.2349  0.6355
  703MOL0     C94779   0.838   7.089   2.815 -0.1173  0.1455  0.3515
  703MOL0     C94780   0.676   7.092   2.805 -0.2441 -0.2501  0.2048
  703MOL0     C94781   0.638   7.186   2.689  1.2161  0.4735  0.2567
  703MOL0     C94782   0.482   7.217   2.703 -0.7928  0.5401  0.5362
  703MOL0     C94783   0.448   7.299   2.578 -0.2182 -0.3770  0.5410
  703MOL0     C94784   0.297   7.324   2.563  0.0462  0.1993 -0.1681
  703MOL0     C94785   0.276   7.375   2.425 -0.5532 -0.2296 -0.0476
  703MOL0     C94786   0.128   7.399   2.387 -0.2887  0.0906 -0.2025
  703MOL0     N94787   0.104   7.452   2.255  0.3465 -0.4657  0.4887
  703MOL0     C94788   0.199   7.501   2.172  0.2075  0.6435 -0.1050
  703MOL0     C94789   0.132   7.540   2.054 -0.0538  0.1140 -0.1690
  703MOL0     C94790   0.205   7.585   1.927  0.7528 -0.7485 -0.3981
  703MOL0     C94791   0.122   7.684   1.849 -0.3946 -0.2114 -0.0858
  703MOL0     C94792   0.062   7.618   1.726 -0.7723  0.1498  0.4184
  703MOL0     C94793  -0.066   7.547   1.753 -0.3557 -0.4837 -0.7030
  703MOL0     O94794  -0.156   7.646   1.801  0.0820  0.0987  0.2445
  703MOL0     C94795  -0.247   7.681   1.716 -0.8603  0.0339 -0.4303
  703MOL0     C94796  -0.220   7.779   1.621  0.5819  0.1771 -0.2858
  703MOL0     C94797  -0.307   7.804   1.507  0.6869 -0.0126  0.2929
  703MOL0     C94798  -0.277   7.903   1.404 -0.5621  0.7347  0.7051
  703MOL0     C94799  -0.436   7.738   1.512 -0.4459  0.3853 -0.3511
  703MOL0     C94800  -0.535   7.746   1.407 -0.6142  0.0312 -0.8260
  703MOL0     O94801  -0.669   7.764   1.439  0.5387  0.4845  0.4044
  703MOL0     C94802  -0.773   7.750   1.343 -0.6721  0.2349 -0.1152
  703MOL0     C94803  -0.754   7.778   1.204  0.2785  0.6229 -0.3274
  703MOL0     C94804  -0.862   7.764   1.105 -0.3171  0.1806 -1.5111
  703MOL0     C94805  -0.991   7.725   1.135  0.1769 -0.4330  0.2939
  703MOL0     O94806  -1.094   7.716   1.047  1.1504 -0.0466  0.0216
  703MOL0     C94807  -1.110   7.795   0.933  0.6738  0.0237 -0.0333
  703MOL0     C94808  -1.172   7.932   0.975  1.3410  0.5212 -0.5248
  703MOL0     C94809  -1.323   7.929   1.011 -0.1656  0.8883  0.5297
  703MOL0     C94810  -1.414   7.951   0.902 -0.4867  0.3025 -0.1978
  703MOL0     C94811  -1.567   7.984   0.938 -0.0707  0.0939  0.4013
  703MOL0     C94812  -1.635   7.863   1.015  0.8057 -0.6293  0.0585
  703MOL0     C94813  -1.786   7.897   1.047  0.2174 -0.6004  0.3147
  703MOL0     C94814  -1.891   7.819   0.973 -0.2204  0.0723  0.0821
  703MOL0    Cl94815  -1.852   7.643   1.008 -0.0455 -0.5714  0.3269
  703MOL0     C94816  -1.007   7.696   1.272  0.8966 -0.3277  0.2471
  703MOL0     C94817  -0.902   7.704   1.374 -0.2442 -0.5067 -1.5362
  703MOL0     O94818  -0.492   7.735   1.293  0.1783  1.3773  0.2036
  703MOL0     C94819  -0.482   7.667   1.629  0.2254  0.6113  0.5183
  703MOL0     C94820  -0.383   7.631   1.726 -0.3772  0.2553  0.4721
  703MOL0     N94821   0.010   7.483   2.063 -0.2212 -0.0839  0.5017
  703MOL0     N94822  -0.010   7.437   2.184  0.7287  0.5920 -0.3619
  703MOL0     C94823   1.100   7.075   2.556  0.7749 -1.6804  0.2513
  703MOL0     C94824   1.239   7.080   2.545  0.5978 -0.4046  0.1995
  703MOL0     C94825   1.675   7.111   2.692  0.2285  1.4798  0.5906
  703MOL0     C94826   1.690   7.025   2.806  0.3003  0.3785  1.3138
  703MOL0     C94827   1.824   6.996   2.850  1.0206  0.4601 -0.0906
  703MOL0     C94828   1.933   7.063   2.800 -0.7928 -0.5978 -0.7213
  703MOL0     O94829   2.062   7.045   2.863 -0.0231 -0.3248 -0.0134
  703MOL0     C94830   2.138   6.950   2.789 -0.6228 -0.7496 -1.0203
  703MOL0     C94831   2.089   6.800   2.806 -0.1285  0.3405  0.7374
  703MOL0     C94832   2.113   6.749   2.950  0.0678 -0.1950  0.5655
  703MOL0     C94833   1.993   6.669   3.000 -0.8767 -0.2495 -0.0472
  703MOL0     C94834   2.035   6.589   3.121  0.2914  0.2615  0.2351
  703MOL0     C94835   2.074   6.528   3.222 -0.5342  0.6079  0.6733
  703MOL0     C94836   1.920   7.154   2.701  0.6407  0.2734  0.4746
  703MOL0     C94837   1.791   7.170   2.645  0.2512 -0.4523  0.3356
  703MOL0     H94838   1.333   6.983   2.855 -0.1753  1.7885  0.3754
  703MOL0     H94839   1.084   7.030   2.890 -2.0078  0.7319 -0.1343
  703MOL0     H94840   0.873   7.010   2.883 -2.0543 -1.4713 -0.4419
  703MOL0     H94841   0.866   7.188   2.853  0.4628  0.2297 -0.2711
  703MOL0     H94842   0.662   6.987   2.778  3.0438 -1.2093  1.6161
  703MOL0     H94843   0.635   7.123   2.902 -0.7803  3.3637 -1.0320
  703MOL0     H94844   0.699   7.277   2.693 -0.3404  1.6359 -1.1656
  703MOL0     H94845   0.662   7.141   2.593 -3.1534  0.9124 -1.2643
  703MOL0     H94846   0.421   7.126   2.710  0.6164 -0.3050  3.0597
  703MOL0     H94847   0.460   7.280   2.790  3.7944  2.6201  0.4549
  703MOL0     H94848   0.502   7.394   2.585 -1.2653  0.3170 -0.3612
  703MOL0     H94849   0.496   7.254   2.491  0.7344  0.4111  0.6400
  703MOL0     H94850   0.250   7.228   2.583  2.8142 -1.6403 -1.8051
  703MOL0     H94851   0.261   7.404   2.628 -0.0414  2.4188 -2.7578
  703MOL0     H94852   0.328   7.470   2.413  0.4816 -0.6361  1.0272
  703MOL0     H94853   0.322   7.309   2.351  1.2207  1.6701 -0.7245
  703MOL0     H94854   0.089   7.479   2.451  3.2026  1.9688 -0.2050
  703MOL0     H94855   0.076   7.303   2.397  0.0286 -0.0172  0.4600
  703MOL0     H94856   0.303   7.520   2.197  0.1371 -0.1408  0.8545
  703MOL0     H94857   0.292   7.642   1.961  3.4280 -3.2037 -2.5718
  703MOL0     H94858   0.239   7.499   1.868 -1.7546 -2.3289  0.3070
  703MOL0     H94859   0.204   7.745   1.808  3.0544 -3.9679  0.5588
  703MOL0     H94860   0.049   7.741   1.907 -2.6070 -2.4420 -0.5491
  703MOL0     H94861   0.125   7.537   1.686 -0.3405  1.5570 -1.9225
  703MOL0     H94862   0.064   7.689   1.644 -1.4117 -0.9305 -0.5667
  703MOL0     H94863  -0.046   7.469   1.827  5.1708 -1.6579 -2.9531
  703MOL0     H94864  -0.097   7.502   1.658  0.1741 -1.8741 -0.2505
  703MOL0     H94865  -0.125   7.829   1.630  0.4324  0.3482  0.4870
  703MOL0     H94866  -0.250   7.860   1.307 -1.5688  2.7355 -0.5265
  703MOL0     H94867  -0.347   7.987   1.399 -1.2835  0.0798 -1.1017
  703MOL0     H94868  -0.184   7.957   1.428  0.1310  1.0522 -2.2237
  703MOL0     H94869  -0.664   7.830   1.173 -0.4998  2.8226  0.8076
  703MOL0     H94870  -0.835   7.780   1.001  0.4103  1.0054 -1.2108
  703MOL0     H94871  -1.016   7.814   0.879 -2.1202  2.6985 -4.6415
  703MOL0     H94872  -1.183   7.754   0.863  0.9223  1.0380 -0.9123
  703MOL0     H94873  -1.106   7.964   1.056 -0.3368  4.1743 -0.3928
  703MOL0     H94874  -1.166   8.005   0.893 -1.6436 -1.4481 -2.7083
  703MOL0     H94875  -1.351   8.013   1.076 -3.1753  2.0639 -2.0505
  703MOL0     H94876  -1.341   7.835   1.065 -0.1585  1.0059  0.7391
  703MOL0     H94877  -1.373   8.031   0.839  2.3399 -0.5309  0.4323
  703MOL0     H94878  -1.406   7.859   0.844  2.6110  2.3150 -3.4375
  703MOL0     H94879  -1.630   8.004   0.851 -3.6316 -2.7986  2.0387
  703MOL0     H94880  -1.583   8.079   0.989  1.8252  2.6083 -3.2752
  703MOL0     H94881  -1.608   7.766   0.972  2.6262 -1.1343  2.1651
  703MOL0     H94882  -1.592   7.863   1.115 -0.6403  0.0460  0.7083
  703MOL0     H94883  -1.801   8.004   1.029  1.8205  0.3939  4.0494
  703MOL0     H94884  -1.800   7.879   1.154 -2.7575  1.9935  0.5235
  703MOL0     H94885  -1.891   7.851   0.869  2.5995  3.6879  0.9935
  703MOL0     H94886  -1.994   7.839   1.003 -0.1453 -0.5232  0.7864
  703MOL0     H94887  -1.107   7.665   1.303  0.7044 -0.6611 -0.6791
  703MOL0     H94888  -0.918   7.690   1.480 -1.3366 -0.0120 -1.6202
  703MOL0     H94889  -0.584   7.633   1.638  0.0467  1.0971  0.3641
  703MOL0     H94890  -0.406   7.545   1.789  0.0359 -1.2904 -1.3968
  703MOL0     H94891   1.048   7.098   2.463 -0.3595  0.2652  1.2925
  703MOL0     H94892   1.281   7.101   2.447 -1.9789 -0.6179 -1.0355
  703MOL0     H94893   1.600   6.979   2.844 -0.5592  0.5812 -0.3776
  703MOL0     H94894   1.836   6.921   2.927  0.5002 -2.2978 -2.5172
  703MOL0     H94895   2.145   6.959   2.680  0.3907 -1.3962 -1.0281
  703MOL0     H94896   2.241   6.953   2.828  0.3022  1.0081 -3.3668
  703MOL0     H94897   2.151   6.730   2.748  0.3159  2.4706 -1.5074
  703MOL0     H94898   1.989   6.783   2.765  0.5860  0.5654 -1.2499
  703MOL0     H94899   2.129   6.839   3.010 -4.0878  2.4182 -1.7214
  703MOL0     H94900   2.202   6.687   2.951 -0.3013 -0.7304  1.4650
  703MOL0     H94901   1.965   6.602   2.919 -0.4544  1.9998 -2.1733
  703MOL0     H94902   1.910   6.735   3.026  0.2696  0.6962  1.3764
  703MOL0     H94903   2.129   6.488   3.304 -0.3112  1.5392  0.9896
  703MOL0     H94904   2.017   7.197   2.675  0.9389 -1.1856 -0.9970
  703MOL0     H94905   1.800   7.248   2.571  2.1034 -1.2980 -0.4128
  704MOL0     O94906   4.917   0.832   8.942  0.8933 -0.1403  0.0173
  704MOL0     C94907   5.008   0.898   8.996  0.0602  0.3474  0.5825
  704MOL0     O94908   4.998   0.957   9.121 -0.0478  0.5220  0.2476
  704MOL0     C94909   4.878   0.964   9.184  0.7027 -0.9674 -0.5428
  704MOL0     C94910   4.861   0.914   9.316  0.0475 -0.1814 -0.1862
  704MOL0     C94911   4.731   0.922   9.375 -0.1988 -0.5466 -0.6458
  704MOL0     C94912   4.627   0.994   9.319  0.3821 -0.4999  0.5985
  704MOL0     O94913   4.509   0.994   9.381  0.3967 -0.3279 -0.2489
  704MOL0     C94914   4.383   1.027   9.308 -0.2118 -0.3511  0.0376
  704MOL0     C94915   4.269   1.077   9.403  0.4620 -0.1200 -1.0534
  704MOL0     C94916   4.194   0.961   9.479 -0.3363  0.0799  0.2016
  704MOL0     C94917   4.127   0.856   9.381 -0.5221 -0.0163  0.4205
  704MOL0     C94918   4.075   0.747   9.472 -0.1387 -0.5870 -0.4953
  704MOL0     C94919   4.004   0.623   9.391 -1.1922 -0.8766  0.3226
  704MOL0     C94920   3.856   0.655   9.405 -0.0470  0.0176 -0.8243
  704MOL0     C94921   3.768   0.539   9.352  0.7620  0.4749  0.6055
  704MOL0     N94922   3.789   0.410   9.413  0.0860  0.0077  0.3676
  704MOL0     C94923   3.751   0.379   9.537  1.0027  0.3647 -0.7734
  704MOL0     C94924   3.780   0.253   9.553  0.1155 -0.1668 -0.4564
  704MOL0     C94925   3.766   0.172   9.680 -0.4165  0.2884 -0.4300
  704MOL0     C94926   3.872   0.057   9.689 -1.6934 -0.7132 -0.0874
  704MOL0     C94927   4.016   0.101   9.731 -0.0905 -0.4199  0.3268
  704MOL0     C94928   4.048   0.071   9.869 -0.6325 -0.0720 -0.8258
  704MOL0     O94929   4.056  -0.070   9.885 -0.4786 -0.4455  0.2009
  704MOL0     C94930   4.069  -0.114  10.012 -0.0484  0.1023  0.2530
  704MOL0     C94931   4.049  -0.040  10.131 -0.1203 -0.2656  1.1864
  704MOL0     C94932   4.035  -0.106  10.252  0.0240 -1.1707  0.1428
  704MOL0     C94933   4.008  -0.010  10.366 -0.5636  0.4449 -0.0820
  704MOL0     C94934   4.055  -0.246  10.267 -0.2806 -0.9567  0.1606
  704MOL0     C94935   4.013  -0.312  10.390 -0.0297 -0.1983 -0.1308
  704MOL0     O94936   4.086  -0.429  10.414 -0.2123 -0.4708 -0.1527
  704MOL0     C94937   4.037  -0.523  10.501  0.0423 -0.2080 -0.2861
  704MOL0     C94938   4.132  -0.620  10.534  0.8566 -0.0860  0.0109
  704MOL0     C94939   4.107  -0.726  10.618  0.3789 -0.2737  0.5294
  704MOL0     C94940   3.982  -0.734  10.679  0.2835 -0.2647  0.0206
  704MOL0     O94941   3.970  -0.829  10.774 -0.3135  0.1107  0.5153
  704MOL0     C94942   3.849  -0.845  10.849 -0.4207  0.2367  0.6826
  704MOL0     C94943   3.889  -0.869  10.996  0.1377  0.0784 -0.0792
  704MOL0     C94944   3.766  -0.872  11.093  0.3898 -0.6476  0.3593
  704MOL0     C94945   3.697  -1.010  11.084  0.3541 -0.7822 -0.2162
  704MOL0     C94946   3.581  -1.031  11.180 -0.4881  0.0512 -1.0196
  704MOL0     C94947   3.638  -1.087  11.311  0.2696 -0.0958  0.4467
  704MOL0     C94948   3.542  -1.075  11.426  0.2986  0.2754  0.2329
  704MOL0     C94949   3.608  -1.097  11.556 -0.0641 -0.8459  0.5520
  704MOL0    Cl94950   3.699  -0.954  11.606 -0.0946  0.3519 -0.7823
  704MOL0     C94951   3.876  -0.651  10.635 -0.6149 -0.4677 -0.1938
  704MOL0     C94952   3.902  -0.543  10.546 -0.0233  0.8498  0.0073
  704MOL0     O94953   3.912  -0.282  10.445  0.2256  0.7281  0.0472
  704MOL0     C94954   4.089  -0.320  10.152  0.1984 -0.1057  0.4969
  704MOL0     C94955   4.089  -0.253  10.026  0.8550 -0.5344 -0.1662
  704MOL0     N94956   3.836   0.211   9.432 -0.0343  0.1698 -0.1530
  704MOL0     N94957   3.842   0.307   9.345  0.3469 -0.4058  0.4092
  704MOL0     C94958   4.650   1.049   9.190 -0.0894 -0.8554  0.5566
  704MOL0     C94959   4.775   1.040   9.124  0.7105 -0.0978  0.3683
  704MOL0     C94960   5.133   0.925   8.931 -0.1393  0.3050 -0.0733
  704MOL0     C94961   5.163   0.865   8.809  0.2276 -0.1108 -0.0313
  704MOL0     C94962   5.294   0.867   8.762 -0.2646  0.1349 -0.4180
  704MOL0     C94963   5.389   0.942   8.826  0.0685  0.0757 -0.7998
  704MOL0     O94964   5.510   0.955   8.766  0.5830  0.1201  0.0354
  704MOL0     C94965   5.639   0.976   8.833  0.0345 -0.2880  1.1938
  704MOL0     C94966   5.681   1.100   8.773 -1.2594 -0.2576 -0.1945
  704MOL0     C94967   5.746   1.071   8.634 -0.0578 -0.0366  0.1657
  704MOL0     C94968   5.768   1.198   8.552 -1.0714 -0.5159  0.7299
  704MOL0     C94969   5.827   1.151   8.423 -0.4488  0.1052  0.6545
  704MOL0     C94970   5.872   1.103   8.319 -1.1894 -0.2895 -0.0734
  704MOL0     C94971   5.355   1.006   8.941 -0.2533  0.8653 -0.6547
  704MOL0     C94972   5.230   0.999   8.991  0.7908 -0.9838  0.4055
  704MOL0     H94973   4.939   0.852   9.359  1.5836 -1.3158 -4.1768
  704MOL0     H94974   4.716   0.875   9.472  1.3328 -1.0235 -0.6203
  704MOL0     H94975   4.400   1.109   9.237  3.7003 -0.0565  1.1105
  704MOL0     H94976   4.349   0.942   9.248 -0.9744 -1.0773  1.4410
  704MOL0     H94977   4.323   1.136   9.477  1.2523 -0.2387 -1.5254
  704MOL0     H94978   4.205   1.148   9.350  0.5351  1.1673  0.5251
  704MOL0     H94979   4.272   0.919   9.543 -0.9649 -0.0730  0.8757
  704MOL0     H94980   4.112   0.991   9.546 -1.1848 -2.2212  0.2761
  704MOL0     H94981   4.045   0.894   9.319 -1.2771 -0.9126  0.8434
  704MOL0     H94982   4.201   0.818   9.310  0.9548  1.4832  1.0858
  704MOL0     H94983   4.153   0.701   9.534  1.7377 -0.1690 -2.4210
  704MOL0     H94984   4.013   0.794   9.548  2.2925  1.3357  0.4360
  704MOL0     H94985   4.044   0.612   9.289 -1.1919 -0.6434  0.2957
  704MOL0     H94986   4.025   0.524   9.432 -0.1198 -2.3481 -3.2993
  704MOL0     H94987   3.838   0.661   9.513  1.7382  2.3716 -0.5701
  704MOL0     H94988   3.816   0.742   9.352  0.7499  1.1037  0.2993
  704MOL0     H94989   3.794   0.531   9.246 -0.8845  2.5257 -0.0154
  704MOL0     H94990   3.660   0.552   9.349 -0.0757 -4.5937 -0.9805
  704MOL0     H94991   3.702   0.434   9.616 -0.7700 -0.6534 -1.0974
  704MOL0     H94992   3.759   0.234   9.770 -0.3574  0.4818 -0.5591
  704MOL0     H94993   3.669   0.121   9.672 -0.3024 -0.3035  1.4048
  704MOL0     H94994   3.881   0.021   9.586 -1.8436  3.4378 -1.7744
  704MOL0     H94995   3.831  -0.019   9.756 -1.6705 -0.9560 -0.3481
  704MOL0     H94996   4.030   0.208   9.708 -1.7849 -0.0502  0.8936
  704MOL0     H94997   4.090   0.045   9.673 -1.3026 -0.2787 -1.4470
  704MOL0     H94998   3.974   0.130   9.926 -0.3964  0.8497 -1.4466
  704MOL0     H94999   4.148   0.095   9.906 -0.9317 -1.0844  0.7290
  704MOL0     H95000   4.045   0.068  10.126 -4.2018 -0.2092  2.2961
  704MOL0     H95001   4.047   0.092  10.354 -1.4051  0.6850 -0.9287
  704MOL0     H95002   3.899   0.000  10.379 -0.4044 -0.7259  3.1126
  704MOL0     H95003   4.055  -0.042  10.460  0.1351  1.9773  0.1224
  704MOL0     H95004   4.231  -0.616  10.489  1.0761  1.9663  0.5603
  704MOL0     H95005   4.183  -0.802  10.636  1.1586  0.0259 -1.2687
  704MOL0     H95006   3.771  -0.770  10.839 -0.5734  0.0796  0.6882
  704MOL0     H95007   3.803  -0.938  10.813 -2.0933  1.4431 -0.4043
  704MOL0     H95008   3.936  -0.967  11.007 -2.2971 -1.0466  1.0359
  704MOL0     H95009   3.965  -0.793  11.018  1.9526 -1.1310 -1.8683
  704MOL0     H95010   3.691  -0.794  11.074 -1.8378 -3.0017 -1.2522
  704MOL0     H95011   3.803  -0.856  11.194  1.6043  3.2345 -0.5293
  704MOL0     H95012   3.649  -1.021  10.987 -2.1020  2.1614  0.5090
  704MOL0     H95013   3.772  -1.086  11.108  0.1299 -0.4178  1.8690
  704MOL0     H95014   3.515  -1.102  11.129  0.4256 -0.6456 -1.2627
  704MOL0     H95015   3.533  -0.936  11.205  0.3723  0.5466 -1.2249
  704MOL0     H95016   3.661  -1.192  11.295 -2.2449 -0.3097 -3.2024
  704MOL0     H95017   3.730  -1.031  11.332 -0.8494  1.6374  1.0224
  704MOL0     H95018   3.462  -1.145  11.399 -1.0803  0.6850  2.8675
  704MOL0     H95019   3.497  -0.975  11.434 -1.9154 -0.7854  2.7899
  704MOL0     H95020   3.671  -1.186  11.551  0.5843 -0.4513  1.3882
  704MOL0     H95021   3.528  -1.124  11.626 -1.6727 -1.8943 -1.5818
  704MOL0     H95022   3.772  -0.656  10.667 -1.1643 -1.3750 -2.0267
  704MOL0     H95023   3.819  -0.491  10.499  1.4206  0.8272 -2.7738
  704MOL0     H95024   4.089  -0.429  10.160  3.3167 -0.4572 -2.2947
  704MOL0     H95025   4.108  -0.308   9.934  0.6191  3.4906 -2.8524
  704MOL0     H95026   4.571   1.094   9.132 -1.7729 -1.0926  2.5254
  704MOL0     H95027   4.792   1.097   9.034  0.6447 -1.2118 -0.3668
  704MOL0     H95028   5.088   0.825   8.741  2.1690 -0.2804 -2.1698
  704MOL0     H95029   5.332   0.806   8.680 -2.1311 -0.1187 -1.1306
  704MOL0     H95030   5.622   0.989   8.941  0.3606  4.2306  0.9025
  704MOL0     H95031   5.708   0.895   8.809  0.3209 -0.5110  2.6673
  704MOL0     H95032   5.755   1.149   8.836  1.8925 -1.5482 -2.6150
  704MOL0     H95033   5.597   1.171   8.771 -1.8402 -0.8959  0.8122
  704MOL0     H95034   5.675   1.011   8.575 -0.8887 -0.5293  1.6057
  704MOL0     H95035   5.840   1.016   8.639  0.5442  0.6516 -2.3855
  704MOL0     H95036   5.830   1.268   8.609  0.6455  0.1285 -1.7072
  704MOL0     H95037   5.685   1.265   8.530 -0.4803 -0.7598 -3.0524
  704MOL0     H95038   5.923   1.064   8.233  1.2655 -0.9855  1.6021
  704MOL0     H95039   5.427   1.054   9.006 -0.4875 -0.1468  0.4011
  704MOL0     H95040   5.224   1.045   9.090 -1.5082  0.2410 -0.2538
  705MOL0     O95041   9.584   0.504   1.564  0.3563 -0.3769  0.0946
  705MOL0     C95042   9.612   0.500   1.448 -1.8106 -0.3865 -0.0348
  705MOL0     O95043   9.529   0.483   1.342  0.2665  0.4778  0.2880
  705MOL0     C95044   9.392   0.486   1.353  0.6021  0.6475 -0.7907
  705MOL0     C95045   9.317   0.547   1.253 -0.4238 -0.1541 -0.3746
  705MOL0     C95046   9.178   0.525   1.240  0.1682 -0.6088  0.4616
  705MOL0     C95047   9.109   0.444   1.336  0.9877 -1.5108  0.7404
  705MOL0     O95048   8.978   0.414   1.323  0.3229 -0.2950  0.0795
  705MOL0     C95049   8.902   0.511   1.395 -0.7945 -0.4288 -0.1648
  705MOL0     C95050   8.752   0.491   1.375  1.3158  0.6636 -0.1339
  705MOL0     C95051   8.686   0.349   1.394  0.5827 -0.7437 -0.4787
  705MOL0     C95052   8.752   0.286   1.524  0.4268  0.0427 -0.0761
  705MOL0     C95053   8.688   0.160   1.572  0.3323 -0.1750  1.1521
  705MOL0     C95054   8.738   0.041   1.490  0.0971 -0.5095  0.6940
  705MOL0     C95055   8.676  -0.087   1.546 -0.7769  0.1749  0.0072
  705MOL0     C95056   8.788  -0.181   1.612  0.2085  0.3533  0.3518
  705MOL0     N95057   8.752  -0.329   1.619 -0.3865 -0.2031  0.5847
  705MOL0     C95058   8.665  -0.399   1.707  0.2362 -1.5753  0.2002
  705MOL0     C95059   8.671  -0.531   1.681  0.0933 -0.5996  0.6970
  705MOL0     C95060   8.577  -0.644   1.715  0.1313  0.1263  0.1772
  705MOL0     C95061   8.642  -0.759   1.792 -0.3703  0.1646 -0.0066
  705MOL0     C95062   8.553  -0.868   1.823  0.0158 -0.5109 -0.1511
  705MOL0     C95063   8.642  -0.995   1.851 -1.0732  0.1089 -0.4526
  705MOL0     O95064   8.556  -1.104   1.826 -0.1390  0.5550 -0.0450
  705MOL0     C95065   8.595  -1.234   1.854 -0.3342 -0.0342 -0.1160
  705MOL0     C95066   8.726  -1.281   1.885 -0.2709 -0.2251  0.1126
  705MOL0     C95067   8.741  -1.415   1.919 -0.7679 -0.4403 -0.7876
  705MOL0     C95068   8.882  -1.447   1.964  0.1323 -0.5188 -0.3629
  705MOL0     C95069   8.634  -1.512   1.918  0.3996 -0.0565  0.2492
  705MOL0     C95070   8.656  -1.658   1.938  0.7822 -0.4987  0.4472
  705MOL0     O95071   8.735  -1.699   2.041  0.1898 -0.6426 -0.6926
  705MOL0     C95072   8.759  -1.836   2.067  0.3523  0.3020 -0.8258
  705MOL0     C95073   8.869  -1.863   2.158 -0.7016  0.5865  0.1338
  705MOL0     C95074   8.907  -1.993   2.198  0.2280 -0.4001 -0.8983
  705MOL0     C95075   8.829  -2.099   2.142  0.9796  0.3571 -0.1656
  705MOL0     O95076   8.833  -2.230   2.185  0.1796  0.1069  0.0752
  705MOL0     C95077   8.964  -2.273   2.250  0.0665 -0.5214 -0.6466
  705MOL0     C95078   9.008  -2.401   2.177 -0.5140 -0.4797 -0.6423
  705MOL0     C95079   9.140  -2.453   2.234 -0.0793  0.2395  0.9166
  705MOL0     C95080   9.158  -2.600   2.234  0.3072  0.3032  0.4434
  705MOL0     C95081   9.301  -2.642   2.267 -1.0606 -0.8178  0.8400
  705MOL0     C95082   9.318  -2.793   2.280  0.6545 -0.7542 -0.0863
  705MOL0     C95083   9.455  -2.832   2.354 -0.2293 -0.9254  0.3708
  705MOL0     C95084   9.444  -2.967   2.428 -0.4653 -0.2624  0.3745
  705MOL0    Cl95085   9.421  -3.089   2.305 -0.2641  0.1449 -0.0262
  705MOL0     C95086   8.719  -2.078   2.064 -0.3766  0.1329 -0.1796
  705MOL0     C95087   8.684  -1.948   2.024 -0.0160 -0.1063 -0.2246
  705MOL0     O95088   8.605  -1.732   1.853  0.3951  0.0526  0.1102
  705MOL0     C95089   8.506  -1.464   1.889  0.0242  0.4174  0.4830
  705MOL0     C95090   8.485  -1.326   1.862  0.1066 -0.0727 -0.3450
  705MOL0     N95091   8.761  -0.544   1.571  1.6077 -0.7504  0.0615
  705MOL0     N95092   8.801  -0.425   1.540 -0.0334  0.6469  0.3605
  705MOL0     C95093   9.182   0.401   1.451  0.3287  0.4363 -0.2328
  705MOL0     C95094   9.324   0.411   1.455 -0.3255 -0.5865 -0.7036
  705MOL0     C95095   9.759   0.487   1.410  0.3279 -0.0796 -0.3501
  705MOL0     C95096   9.850   0.459   1.512 -0.8783 -1.0200  0.9399
  705MOL0     C95097   9.981   0.429   1.477 -0.8431  0.3270 -0.0519
  705MOL0     C95098  10.029   0.415   1.351  0.5439 -1.4047  0.5490
  705MOL0     O95099  10.160   0.378   1.329  0.1853 -0.0384 -0.0992
  705MOL0     C95100  10.197   0.375   1.191 -0.7428  0.5117  1.3127
  705MOL0     C95101  10.340   0.326   1.189  0.1493  0.2511 -0.2253
  705MOL0     C95102  10.411   0.305   1.053 -0.0779  0.2951  0.1306
  705MOL0     C95103  10.498   0.426   1.021 -0.3465  0.2657  0.3937
  705MOL0     C95104  10.426   0.544   0.979 -0.5296 -0.3486 -0.4746
  705MOL0     C95105  10.377   0.641   0.930 -0.1534 -0.1195 -0.0519
  705MOL0     C95106   9.931   0.437   1.254  0.6904  0.1610  0.4561
  705MOL0     C95107   9.800   0.478   1.279  0.1241 -0.6474  0.9340
  705MOL0     H95108   9.372   0.606   1.180  0.7080  0.6985  1.1028
  705MOL0     H95109   9.119   0.557   1.155 -2.9376 -0.2176  2.6136
  705MOL0     H95110   8.937   0.502   1.498 -0.2890  0.9458 -0.1999
  705MOL0     H95111   8.929   0.608   1.352 -1.1592 -1.1545 -2.1556
  705MOL0     H95112   8.686   0.553   1.436  0.2635  0.9611 -1.5165
  705MOL0     H95113   8.731   0.524   1.272  1.9552 -2.8631 -1.5397
  705MOL0     H95114   8.579   0.340   1.415  0.8613 -2.4646  0.4303
  705MOL0     H95115   8.711   0.294   1.303 -0.6751 -0.3946 -1.0578
  705MOL0     H95116   8.853   0.252   1.498 -0.7208 -1.6536 -2.6890
  705MOL0     H95117   8.761   0.371   1.593  1.9597  2.4590 -3.0528
  705MOL0     H95118   8.720   0.139   1.674 -0.6208  0.7335  1.6625
  705MOL0     H95119   8.579   0.164   1.583  0.1004 -0.9823 -0.5813
  705MOL0     H95120   8.699   0.057   1.389 -0.0874 -0.7857  0.7205
  705MOL0     H95121   8.847   0.041   1.485  0.1065 -0.2384 -4.0358
  705MOL0     H95122   8.597  -0.062   1.617 -0.2964 -1.0423  1.0033
  705MOL0     H95123   8.624  -0.148   1.471 -1.8501  1.9291 -0.7263
  705MOL0     H95124   8.805  -0.161   1.718 -1.3240 -0.2892  0.7435
  705MOL0     H95125   8.874  -0.180   1.544 -1.4332  0.1986 -1.8311
  705MOL0     H95126   8.586  -0.353   1.766 -2.6644  0.0970 -4.4654
  705MOL0     H95127   8.498  -0.596   1.774 -1.2820  0.1962 -1.6346
  705MOL0     H95128   8.546  -0.696   1.623 -1.6472  1.2391  0.0976
  705MOL0     H95129   8.695  -0.727   1.882  2.4381  0.4192 -1.6515
  705MOL0     H95130   8.712  -0.796   1.716 -1.1191 -2.8501  0.6338
  705MOL0     H95131   8.483  -0.883   1.739 -0.3024 -0.1819  0.0557
  705MOL0     H95132   8.493  -0.828   1.905  0.7887  2.1670 -0.8151
  705MOL0     H95133   8.682  -0.995   1.953 -0.3130  0.0356 -0.7422
  705MOL0     H95134   8.730  -0.989   1.786 -1.4479 -1.1098 -1.1156
  705MOL0     H95135   8.800  -1.203   1.869 -0.1770 -0.5858 -1.3306
  705MOL0     H95136   8.960  -1.374   1.941 -0.2683 -0.3052 -1.0874
  705MOL0     H95137   8.870  -1.448   2.073 -4.2507  0.9013 -0.6302
  705MOL0     H95138   8.911  -1.545   1.924  0.9848 -1.3454  2.1073
  705MOL0     H95139   8.917  -1.778   2.205  0.2914 -0.2200  0.6190
  705MOL0     H95140   8.980  -2.005   2.277 -1.2641  0.6328  0.6920
  705MOL0     H95141   9.044  -2.198   2.248 -0.6127  0.2373 -2.9130
  705MOL0     H95142   8.958  -2.299   2.356 -2.0263 -1.2010 -0.8872
  705MOL0     H95143   8.924  -2.468   2.198 -2.6480  1.8484 -1.2633
  705MOL0     H95144   9.006  -2.403   2.067  2.3898 -1.3770 -0.7521
  705MOL0     H95145   9.151  -2.425   2.339 -1.1199 -0.6909  1.2884
  705MOL0     H95146   9.226  -2.410   2.180  0.2274 -1.3790  0.0433
  705MOL0     H95147   9.099  -2.648   2.312 -3.0214  0.0108 -2.0372
  705MOL0     H95148   9.130  -2.649   2.140 -2.8306 -1.5355  2.2024
  705MOL0     H95149   9.342  -2.580   2.347  0.8535  1.1006 -1.4784
  705MOL0     H95150   9.358  -2.620   2.176 -0.2633 -1.3581  1.1942
  705MOL0     H95151   9.234  -2.829   2.339  1.8436 -0.5242  1.8393
  705MOL0     H95152   9.311  -2.836   2.179 -1.1175 -0.6938 -0.0060
  705MOL0     H95153   9.478  -2.754   2.426  0.0337 -0.0116 -0.6754
  705MOL0     H95154   9.539  -2.836   2.284 -2.1597 -2.8301 -2.0430
  705MOL0     H95155   9.367  -2.963   2.505  0.5378  0.2413  1.3831
  705MOL0     H95156   9.531  -2.996   2.487  0.1643 -0.4742 -0.6277
  705MOL0     H95157   8.657  -2.164   2.044 -0.9709  1.1664 -3.4509
  705MOL0     H95158   8.595  -1.945   1.961 -0.9348  0.2698  1.0424
  705MOL0     H95159   8.421  -1.532   1.885  1.0120 -0.7805 -1.7831
  705MOL0     H95160   8.386  -1.287   1.844  0.3508 -0.4187 -2.7247
  705MOL0     H95161   9.121   0.354   1.528  1.0566 -0.2747 -0.0868
  705MOL0     H95162   9.379   0.363   1.535 -2.6404 -1.1359  0.6421
  705MOL0     H95163   9.821   0.457   1.616 -0.8795  2.5002  1.1245
  705MOL0     H95164  10.044   0.408   1.564 -0.9998 -2.3673 -0.5121
  705MOL0     H95165  10.141   0.305   1.128 -0.1754  1.0718  0.1368
  705MOL0     H95166  10.185   0.476   1.152 -0.2374 -0.7786 -2.7759
  705MOL0     H95167  10.350   0.232   1.244  4.0077 -0.1247 -1.2245
  705MOL0     H95168  10.402   0.399   1.242 -2.1261  3.3587 -1.5168
  705MOL0     H95169  10.349   0.276   0.968  2.0106  1.8565 -2.0654
  705MOL0     H95170  10.463   0.212   1.077 -1.6170 -0.7412 -0.3911
  705MOL0     H95171  10.579   0.396   0.954 -0.3805  1.3858 -0.1700
  705MOL0     H95172  10.544   0.453   1.116  0.0807 -0.7740  0.4964
  705MOL0     H95173  10.337   0.724   0.876 -0.8214 -1.6483 -2.0367
  705MOL0     H95174   9.957   0.441   1.149  0.7271 -1.9875  0.3368
  705MOL0     H95175   9.730   0.502   1.200  2.8284  2.3022 -0.8326
  706MOL0     O95176   9.502   6.028   4.996 -0.6229  0.6335  0.5010
  706MOL0     C95177   9.399   5.959   5.000  0.5249 -0.2261  0.9979
  706MOL0     O95178   9.331   5.912   4.891  0.2960  0.1743  0.6142
  706MOL0     C95179   9.379   5.921   4.761  0.7934 -0.4027 -0.3293
  706MOL0     C95180   9.366   6.034   4.678 -0.3449 -0.1458 -0.3708
  706MOL0     C95181   9.435   6.038   4.552 -1.0963  0.8269 -0.6360
  706MOL0     C95182   9.523   5.923   4.523  0.0776 -0.2154  1.5238
  706MOL0     O95183   9.605   5.945   4.411 -0.1491 -0.0928  0.7082
  706MOL0     C95184   9.672   5.831   4.355 -0.6564 -0.2404 -0.3852
  706MOL0     C95185   9.777   5.865   4.246  0.1251 -0.9480 -0.6832
  706MOL0     C95186   9.703   5.942   4.135 -2.0059  0.1133  0.0203
  706MOL0     C95187   9.803   5.919   4.011  0.5886  0.5424 -0.5640
  706MOL0     C95188   9.762   5.987   3.881  0.5018  0.0215  0.0392
  706MOL0     C95189   9.735   6.135   3.898 -0.0348 -0.5355  0.3307
  706MOL0     C95190   9.666   6.210   3.781 -0.0795 -0.1294 -0.7295
  706MOL0     C95191   9.756   6.236   3.664 -1.1197 -1.4237 -0.1197
  706MOL0     N95192   9.842   6.362   3.685 -0.0676 -0.0344  0.1862
  706MOL0     C95193   9.939   6.383   3.778  0.1827  0.7814 -0.2730
  706MOL0     C95194   9.976   6.510   3.760 -0.0564  0.5778 -0.3234
  706MOL0     C95195  10.106   6.566   3.811 -0.0747 -0.5856  0.1202
  706MOL0     C95196  10.212   6.555   3.702  0.2967  0.2896 -0.0127
  706MOL0     C95197  10.311   6.671   3.712  0.1709 -0.3988  0.3088
  706MOL0     C95198  10.401   6.696   3.593  0.0656  0.5442 -0.2430
  706MOL0     O95199  10.475   6.573   3.570  0.6389  0.2420 -0.5777
  706MOL0     C95200  10.574   6.572   3.480  0.5567  0.3618 -1.2541
  706MOL0     C95201  10.646   6.677   3.435 -0.7401  0.0922  0.1854
  706MOL0     C95202  10.743   6.673   3.340  0.4842  0.1686 -1.1334
  706MOL0     C95203  10.823   6.794   3.306  0.0949  0.4821  0.4457
  706MOL0     C95204  10.773   6.538   3.283  0.4673  0.7288 -1.0021
  706MOL0     C95205  10.873   6.510   3.178 -1.0262 -1.1601 -0.5431
  706MOL0     O95206  10.946   6.616   3.121  1.0428  0.4078 -0.8856
  706MOL0     C95207  11.039   6.602   3.017 -0.0082  0.9661 -0.2026
  706MOL0     C95208  11.076   6.718   2.944 -0.4886  0.1167 -0.1769
  706MOL0     C95209  11.188   6.706   2.854 -0.3080 -0.2367  0.9927
  706MOL0     C95210  11.250   6.588   2.812  0.0424  0.5941 -0.9703
  706MOL0     O95211  11.351   6.600   2.730 -0.0006 -0.1373  1.2689
  706MOL0     C95212  11.382   6.509   2.626  0.3564  0.2221  0.4412
  706MOL0     C95213  11.297   6.550   2.503  0.2287 -0.2533 -0.3282
  706MOL0     C95214  11.142   6.514   2.507 -0.3023 -0.6112  0.0075
  706MOL0     C95215  11.094   6.516   2.357  1.1918  0.2236  0.6623
  706MOL0     C95216  10.957   6.461   2.337 -0.0409 -0.9826 -0.3923
  706MOL0     C95217  10.911   6.461   2.196 -0.0314  1.0083 -0.1024
  706MOL0     C95218  10.905   6.592   2.123  0.1358  0.1809  0.3731
  706MOL0     C95219  10.826   6.699   2.190  0.2089 -0.2949  0.9821
  706MOL0    Cl95220  10.762   6.829   2.081  0.0570 -0.0699  0.4913
  706MOL0     C95221  11.216   6.471   2.888 -0.4930 -0.7199 -0.1237
  706MOL0     C95222  11.115   6.482   2.984  0.4278  0.0842  0.0149
  706MOL0     O95223  10.889   6.394   3.152  0.3249  0.5976  0.0582
  706MOL0     C95224  10.699   6.427   3.339 -0.4747 -0.4295  0.0330
  706MOL0     C95225  10.597   6.448   3.427 -0.3241 -1.0121  0.5524
  706MOL0     N95226   9.887   6.575   3.673  0.3409 -0.0155 -0.0102
  706MOL0     N95227   9.821   6.483   3.620  0.2925 -0.1665  0.3177
  706MOL0     C95228   9.537   5.818   4.609 -0.3208 -0.3527 -0.3885
  706MOL0     C95229   9.464   5.825   4.730  0.1950  0.4998  0.1087
  706MOL0     C95230   9.342   5.914   5.125 -1.3020  1.0176  0.1638
  706MOL0     C95231   9.200   5.889   5.143  0.4128 -0.3025 -0.3776
  706MOL0     C95232   9.145   5.869   5.268  0.0608 -1.2825 -0.6333
  706MOL0     C95233   9.221   5.870   5.388 -0.1607 -0.3925  0.8424
  706MOL0     O95234   9.162   5.848   5.506 -0.2614 -0.1314  0.1204
  706MOL0     C95235   9.021   5.880   5.531 -0.3868  0.0173  1.5454
  706MOL0     C95236   8.951   5.754   5.581 -0.2658 -0.0347  0.0211
  706MOL0     C95237   8.807   5.788   5.608 -0.2863  0.8425  0.0057
  706MOL0     C95238   8.728   5.661   5.621  0.3444  0.4596 -0.5727
  706MOL0     C95239   8.580   5.684   5.612  0.2607 -0.1967 -0.1557
  706MOL0     C95240   8.461   5.701   5.614 -0.0327  0.7278  0.3414
  706MOL0     C95241   9.353   5.899   5.370 -0.4323 -0.3130 -0.5479
  706MOL0     C95242   9.414   5.918   5.246  0.4570  0.2227 -0.4861
  706MOL0     H95243   9.301   6.119   4.698 -0.5112 -0.6715  1.4483
  706MOL0     H95244   9.427   6.120   4.481  1.0254  0.2615 -1.6126
  706MOL0     H95245   9.725   5.780   4.436 -1.5504  0.9725  1.0293
  706MOL0     H95246   9.596   5.761   4.319  1.3992 -1.8730 -1.7251
  706MOL0     H95247   9.858   5.921   4.294  1.1693 -4.0554  1.5078
  706MOL0     H95248   9.823   5.772   4.212 -0.1096 -1.1896 -0.3429
  706MOL0     H95249   9.610   5.887   4.119 -1.1376 -2.2136  2.3285
  706MOL0     H95250   9.678   6.048   4.143 -1.2821  0.3902 -1.2587
  706MOL0     H95251   9.906   5.943   4.036  0.5818 -0.1521  0.1530
  706MOL0     H95252   9.811   5.812   3.994  2.7976  0.1236  2.2898
  706MOL0     H95253   9.843   5.984   3.808 -1.6050 -0.1916 -2.4362
  706MOL0     H95254   9.670   5.942   3.843 -1.4629  3.9789 -0.4856
  706MOL0     H95255   9.653   6.150   3.969 -2.2472  0.4773 -2.2568
  706MOL0     H95256   9.824   6.187   3.934  1.1662 -2.3355  0.0593
  706MOL0     H95257   9.574   6.160   3.748  0.3853 -2.6243  1.4040
  706MOL0     H95258   9.634   6.311   3.811 -2.0635 -0.3066 -2.0329
  706MOL0     H95259   9.691   6.271   3.584 -1.0788  1.4128  0.9711
  706MOL0     H95260   9.819   6.153   3.630 -0.0587  0.1252 -2.1958
  706MOL0     H95261   9.993   6.309   3.838 -2.5163 -0.1592  1.1952
  706MOL0     H95262  10.084   6.671   3.835 -1.2230 -1.3519  2.8581
  706MOL0     H95263  10.146   6.515   3.900  1.0952 -1.2368 -0.7542
  706MOL0     H95264  10.150   6.561   3.611 -3.3580 -0.6083  2.1824
  706MOL0     H95265  10.260   6.457   3.708  0.8561  0.3772 -2.2597
  706MOL0     H95266  10.375   6.651   3.799 -1.2546  2.0300  2.0717
  706MOL0     H95267  10.269   6.771   3.725 -0.2127 -0.5768  0.4602
  706MOL0     H95268  10.474   6.774   3.619  1.7363 -0.4815 -1.6080
  706MOL0     H95269  10.350   6.722   3.500  0.2156 -2.4319 -1.2529
  706MOL0     H95270  10.635   6.768   3.493 -2.3707  0.5771 -0.8174
  706MOL0     H95271  10.803   6.836   3.207  0.3270  1.3392  0.7512
  706MOL0     H95272  10.814   6.874   3.380  1.3147  1.0884 -0.0433
  706MOL0     H95273  10.930   6.770   3.299 -0.4151 -1.4607 -3.6465
  706MOL0     H95274  11.036   6.817   2.959  0.1081  0.0714  2.2411
  706MOL0     H95275  11.234   6.795   2.812 -0.0340 -0.1980  1.3702
  706MOL0     H95276  11.488   6.507   2.603  0.5905 -0.3200  1.4678
  706MOL0     H95277  11.355   6.409   2.661 -1.7210  0.6299  0.1431
  706MOL0     H95278  11.297   6.659   2.499 -0.2916 -0.2777 -1.3286
  706MOL0     H95279  11.353   6.510   2.418  4.3863 -1.1935  2.5403
  706MOL0     H95280  11.086   6.580   2.573 -0.6890 -1.1100  0.1861
  706MOL0     H95281  11.145   6.414   2.552  1.7689 -1.4122 -1.7357
  706MOL0     H95282  11.092   6.619   2.319 -4.1102  0.8591  1.7738
  706MOL0     H95283  11.162   6.451   2.302 -0.8788 -1.9830  0.5330
  706MOL0     H95284  10.900   6.531   2.398  0.9524  1.1504 -1.8113
  706MOL0     H95285  10.959   6.359   2.377  2.2691 -0.8352 -0.0047
  706MOL0     H95286  10.986   6.401   2.144  1.3810  0.4046  2.4448
  706MOL0     H95287  10.812   6.418   2.179 -0.4868  2.8980 -2.9258
  706MOL0     H95288  10.862   6.573   2.024 -0.2839  0.5490  0.4863
  706MOL0     H95289  11.009   6.621   2.106 -0.3180  1.2733 -0.7307
  706MOL0     H95290  10.892   6.748   2.262  1.7188  1.7027 -1.5489
  706MOL0     H95291  10.741   6.650   2.237  1.4186 -2.9917  0.5312
  706MOL0     H95292  11.270   6.377   2.888 -0.1617 -0.5881  2.5313
  706MOL0     H95293  11.098   6.393   3.044  1.5059 -1.5101 -1.9183
  706MOL0     H95294  10.729   6.324   3.325  2.5254  0.4934 -0.9105
  706MOL0     H95295  10.540   6.367   3.470 -0.2849 -0.7937  1.0266
  706MOL0     H95296   9.599   5.730   4.601  1.9717  1.1893 -0.6255
  706MOL0     H95297   9.498   5.742   4.790 -0.9822 -0.5325 -0.6029
  706MOL0     H95298   9.132   5.892   5.059  0.0781  2.4009 -0.1270
  706MOL0     H95299   9.041   5.843   5.283 -0.1259  1.0056  3.5993
  706MOL0     H95300   9.016   5.959   5.607 -0.8118 -0.4261  1.9924
  706MOL0     H95301   8.965   5.923   5.448  3.3703  1.1101 -0.6551
  706MOL0     H95302   9.004   5.726   5.672 -0.9404  1.4946  0.9219
  706MOL0     H95303   8.972   5.685   5.499 -0.8696  1.1514 -1.1668
  706MOL0     H95304   8.773   5.848   5.524 -1.4971  0.8697  0.4976
  706MOL0     H95305   8.802   5.850   5.699 -3.0513  0.2581  0.3225
  706MOL0     H95306   8.740   5.603   5.713 -2.6776 -0.1774 -0.4843
  706MOL0     H95307   8.764   5.583   5.554  1.8370 -1.3331  2.1301
  706MOL0     H95308   8.354   5.713   5.614 -0.2643 -0.8801  1.7259
  706MOL0     H95309   9.414   5.919   5.457 -0.5984  0.0824 -0.5214
  706MOL0     H95310   9.517   5.952   5.245 -0.2796  2.9039  1.6908
  707MOL0     O95311   8.848   6.554   6.575  0.8912  0.1912 -0.4651
  707MOL0     C95312   8.730   6.512   6.561 -0.4256 -1.2757  0.2316
  707MOL0     O95313   8.621   6.582   6.516 -0.7077 -0.2533 -0.0661
  707MOL0     C95314   8.644   6.706   6.467  0.2276 -0.6390 -0.0741
  707MOL0     C95315   8.657   6.723   6.328  0.0473 -0.1125  0.2768
  707MOL0     C95316   8.659   6.848   6.269  0.1371 -1.3609 -0.2205
  707MOL0     C95317   8.644   6.963   6.356 -0.2104 -0.3095 -0.1330
  707MOL0     O95318   8.661   7.090   6.307  0.5597  0.3411  0.2839
  707MOL0     C95319   8.789   7.114   6.246  0.4476  0.4958 -0.1944
  707MOL0     C95320   8.800   7.237   6.167  0.3282 -0.3021 -0.8764
  707MOL0     C95321   8.724   7.358   6.233 -0.9641  0.6841  0.0370
  707MOL0     C95322   8.762   7.392   6.384  0.0955  0.2911 -0.1247
  707MOL0     C95323   8.703   7.527   6.440 -0.3520  0.3065  0.4670
  707MOL0     C95324   8.556   7.528   6.486  0.1128  0.2693 -0.5854
  707MOL0     C95325   8.497   7.671   6.503 -0.6356 -0.0954  0.3947
  707MOL0     C95326   8.493   7.765   6.384 -0.1401  1.0151 -0.4495
  707MOL0     N95327   8.390   7.735   6.278 -0.6352  0.2010 -0.2363
  707MOL0     C95328   8.282   7.648   6.297  0.2066 -0.1439  0.3417
  707MOL0     C95329   8.236   7.628   6.170  0.8780 -0.1538  0.0751
  707MOL0     C95330   8.118   7.528   6.128 -0.4832 -0.5635 -0.3295
  707MOL0     C95331   8.007   7.512   6.241 -0.2733  0.3696  0.6594
  707MOL0     C95332   7.869   7.463   6.191 -0.4340 -0.3897 -0.2155
  707MOL0     C95333   7.843   7.337   6.102 -0.0245 -0.2587 -0.9281
  707MOL0     O95334   7.722   7.341   6.023  0.0515  0.1476 -0.5908
  707MOL0     C95335   7.608   7.295   6.081  0.3922 -0.2498  0.6771
  707MOL0     C95336   7.585   7.256   6.213 -0.0807 -0.1508  0.4940
  707MOL0     C95337   7.456   7.226   6.253 -1.5151  0.0562 -0.9472
  707MOL0     C95338   7.440   7.187   6.400  0.1314  1.0855  0.2548
  707MOL0     C95339   7.354   7.226   6.162  0.1376 -0.2982 -0.1303
  707MOL0     C95340   7.214   7.196   6.193  0.1281 -0.1313  0.2484
  707MOL0     O95341   7.185   7.080   6.263 -0.3216 -0.2866  0.1032
  707MOL0     C95342   7.054   7.052   6.298  0.1497 -0.0570 -0.4548
  707MOL0     C95343   6.980   7.137   6.372  0.8806 -0.5047 -1.7639
  707MOL0     C95344   6.841   7.111   6.413 -0.4728 -0.3156  1.1536
  707MOL0     C95345   6.784   6.988   6.373  0.0102  0.3046 -0.3977
  707MOL0     O95346   6.647   6.945   6.385 -0.0111 -0.1841 -0.9092
  707MOL0     C95347   6.569   7.006   6.277  0.5176  0.6084  0.0101
  707MOL0     C95348   6.423   6.982   6.281 -0.2807  0.5296  0.0262
  707MOL0     C95349   6.361   7.058   6.402 -0.4166  0.8386  0.1982
  707MOL0     C95350   6.220   7.014   6.434 -0.5632 -0.8102  0.6085
  707MOL0     C95351   6.126   7.105   6.358  0.4482  0.5818 -0.5316
  707MOL0     C95352   5.975   7.072   6.357 -0.5627  0.4618 -0.2510
  707MOL0     C95353   5.902   7.172   6.264  1.0486  0.9008 -0.2178
  707MOL0     C95354   5.756   7.133   6.258 -0.3970 -0.3586 -0.1763
  707MOL0    Cl95355   5.667   7.208   6.142 -0.2772 -0.0726  0.3699
  707MOL0     C95356   6.871   6.893   6.297 -1.1576  0.6804  0.4076
  707MOL0     C95357   7.004   6.928   6.272 -0.4975  0.5212 -0.2167
  707MOL0     O95358   7.134   7.271   6.141  0.4675 -0.4930  0.2095
  707MOL0     C95359   7.378   7.266   6.032  0.5257 -0.3953  0.2681
  707MOL0     C95360   7.508   7.307   5.989  0.8854 -1.1880  0.2205
  707MOL0     N95361   8.304   7.712   6.087  0.2564  0.4130 -0.3747
  707MOL0     N95362   8.397   7.776   6.149 -0.9077 -0.0581 -0.4817
  707MOL0     C95363   8.626   6.940   6.491 -0.8215 -0.2381 -0.3265
  707MOL0     C95364   8.616   6.814   6.543 -0.7951 -0.4531 -0.7036
  707MOL0     C95365   8.719   6.376   6.598  0.9036  0.4552  0.3780
  707MOL0     C95366   8.589   6.329   6.641 -0.7889  0.4913 -0.0095
  707MOL0     C95367   8.578   6.211   6.713  0.3761 -0.2175  0.1695
  707MOL0     C95368   8.688   6.129   6.743  0.9138  0.3340  0.7020
  707MOL0     O95369   8.661   6.014   6.818 -0.1406  0.2790  0.1136
  707MOL0     C95370   8.773   5.942   6.875  0.3035  0.4140  0.2869
  707MOL0     C95371   8.834   6.019   6.994 -0.6684  0.0853 -0.5135
  707MOL0     C95372   8.767   6.114   7.090 -0.8289  0.5573  0.2168
  707MOL0     C95373   8.867   6.190   7.182 -0.9936 -0.2767  0.2587
  707MOL0     C95374   8.957   6.285   7.119 -0.8808  0.2477 -0.3249
  707MOL0     C95375   9.013   6.359   7.045 -0.6869  0.2725 -0.7194
  707MOL0     C95376   8.816   6.172   6.703 -0.6390 -0.7224  0.7557
  707MOL0     C95377   8.826   6.290   6.624  0.7026  0.0220 -0.2431
  707MOL0     H95378   8.655   6.631   6.270 -2.4760  0.3614 -0.4861
  707MOL0     H95379   8.668   6.859   6.162  1.1896  0.9471  0.0423
  707MOL0     H95380   8.861   7.135   6.326  2.1111 -0.9822 -1.2198
  707MOL0     H95381   8.843   7.030   6.202  3.2881  1.9745  0.1697
  707MOL0     H95382   8.905   7.265   6.150 -0.7654  2.7289 -3.9205
  707MOL0     H95383   8.755   7.222   6.068 -0.8410 -1.9788 -0.1354
  707MOL0     H95384   8.750   7.438   6.164  1.7561 -0.3372 -0.2601
  707MOL0     H95385   8.618   7.344   6.211 -0.2971  0.6410 -3.7320
  707MOL0     H95386   8.735   7.321   6.463 -1.7485  1.8359  0.7340
  707MOL0     H95387   8.870   7.393   6.395 -0.0514 -0.6144  1.7320
  707MOL0     H95388   8.764   7.557   6.525  1.0691  1.8467 -1.0208
  707MOL0     H95389   8.722   7.585   6.349  2.7529 -2.6046 -0.9647
  707MOL0     H95390   8.495   7.467   6.418  0.8007 -1.2470  0.1023
  707MOL0     H95391   8.553   7.476   6.582  0.0998 -0.6088 -1.0505
  707MOL0     H95392   8.396   7.656   6.543 -0.1811  0.3098  1.7583
  707MOL0     H95393   8.545   7.730   6.581 -0.6021  2.4501 -1.4172
  707MOL0     H95394   8.592   7.758   6.338  0.1406 -0.9667  0.3679
  707MOL0     H95395   8.468   7.867   6.416 -2.5204  0.4140 -0.2451
  707MOL0     H95396   8.258   7.596   6.389  1.3769 -1.0142  0.1892
  707MOL0     H95397   8.070   7.565   6.037 -0.6766  0.0344  0.0075
  707MOL0     H95398   8.159   7.428   6.110  2.5815  0.5605 -0.2230
  707MOL0     H95399   7.988   7.608   6.289 -2.2246  0.6253 -0.5239
  707MOL0     H95400   8.039   7.431   6.307 -0.0259 -1.4489 -1.5579
  707MOL0     H95401   7.827   7.541   6.127 -1.3033  0.5938  1.5014
  707MOL0     H95402   7.815   7.447   6.284  0.9488 -0.2061  0.6436
  707MOL0     H95403   7.875   7.249   6.158  0.3594  1.3228  1.5292
  707MOL0     H95404   7.922   7.340   6.026  2.1111  1.7679  1.1601
  707MOL0     H95405   7.668   7.237   6.280  1.2794  2.8660 -0.1864
  707MOL0     H95406   7.360   7.116   6.422 -0.5898  2.3155  1.8296
  707MOL0     H95407   7.524   7.125   6.435 -0.6004 -1.8880 -2.7850
  707MOL0     H95408   7.427   7.275   6.463 -1.6190 -0.7943  2.7290
  707MOL0     H95409   7.020   7.235   6.393 -0.4238 -0.2042 -0.5172
  707MOL0     H95410   6.785   7.177   6.480  0.9371  0.0260  2.0351
  707MOL0     H95411   6.592   7.111   6.261  0.1290  0.6814 -0.0703
  707MOL0     H95412   6.611   6.940   6.200 -1.0658 -0.0325 -0.3360
  707MOL0     H95413   6.359   6.993   6.192 -1.6288 -1.5854  0.6712
  707MOL0     H95414   6.428   6.874   6.300  0.7060  0.8482  1.6989
  707MOL0     H95415   6.355   7.166   6.388 -1.2396  0.8133  0.3014
  707MOL0     H95416   6.425   7.035   6.487 -0.3999  1.3894  0.3408
  707MOL0     H95417   6.219   6.909   6.406  0.3293 -1.6303  3.3616
  707MOL0     H95418   6.209   7.013   6.543  1.1417  0.3024  0.8227
  707MOL0     H95419   6.164   7.107   6.255 -0.5128  1.3638 -0.8830
  707MOL0     H95420   6.131   7.207   6.395 -2.7207  0.2233  1.2825
  707MOL0     H95421   5.952   6.968   6.335  0.6732 -0.7982  3.5524
  707MOL0     H95422   5.947   7.085   6.462  2.1978 -1.3156  0.8252
  707MOL0     H95423   5.941   7.167   6.162  1.2047 -1.7211 -0.1005
  707MOL0     H95424   5.897   7.274   6.305 -3.8568  0.9217 -0.2742
  707MOL0     H95425   5.712   7.147   6.357  2.6601  2.2171  0.9970
  707MOL0     H95426   5.755   7.027   6.234  0.3518 -0.6039  0.8189
  707MOL0     H95427   6.834   6.798   6.259  1.9924  0.6680 -3.2298
  707MOL0     H95428   7.080   6.859   6.235  0.0138  0.7471  0.3837
  707MOL0     H95429   7.292   7.274   5.966 -0.8455 -0.0628  1.9918
  707MOL0     H95430   7.531   7.347   5.891 -3.1788 -1.6152 -1.0817
  707MOL0     H95431   8.608   7.030   6.550  3.8410  0.7372 -0.0355
  707MOL0     H95432   8.596   6.791   6.647  1.3936  0.0221 -0.1265
  707MOL0     H95433   8.494   6.377   6.619 -0.1038  0.9912 -2.1530
  707MOL0     H95434   8.484   6.164   6.741 -0.8482  0.6249 -2.2289
  707MOL0     H95435   8.746   5.844   6.917 -2.0399  0.2672 -1.3920
  707MOL0     H95436   8.851   5.929   6.800 -0.0858 -0.0954 -0.0356
  707MOL0     H95437   8.910   6.087   6.953  0.4897  1.7713  3.8311
  707MOL0     H95438   8.891   5.961   7.067 -0.9275  1.8584  1.1966
  707MOL0     H95439   8.688   6.054   7.135 -1.0056 -1.2333 -2.2279
  707MOL0     H95440   8.719   6.186   7.024  0.5100  4.8868  3.5176
  707MOL0     H95441   8.927   6.125   7.247  1.4067  0.7390 -0.8199
  707MOL0     H95442   8.808   6.256   7.247  3.4337  3.0234  1.4818
  707MOL0     H95443   9.059   6.420   6.970 -1.5153  0.9610 -0.6844
  707MOL0     H95444   8.907   6.115   6.715  0.6172  0.8214 -0.8679
  707MOL0     H95445   8.923   6.316   6.582  0.7738  1.9706  0.9936
  708MOL0     O95446   5.383   6.524   0.818  0.1509  0.7049  0.4177
  708MOL0     C95447   5.497   6.493   0.852  0.5189  0.6297 -0.5322
  708MOL0     O95448   5.608   6.504   0.769  0.2040  0.1257  0.4220
  708MOL0     C95449   5.602   6.561   0.645  0.3257  0.5088 -0.5242
  708MOL0     C95450   5.586   6.696   0.620  0.6880 -0.5273 -0.1500
  708MOL0     C95451   5.579   6.753   0.492 -0.1241 -0.4951 -0.6186
  708MOL0     C95452   5.582   6.660   0.383 -0.6339 -0.1752  0.1931
  708MOL0     O95453   5.576   6.701   0.254  0.6548  0.3644  0.4135
  708MOL0     C95454   5.460   6.785   0.231 -0.6312  0.4632  0.2182
  708MOL0     C95455   5.474   6.854   0.096  0.3222  0.6970  0.6667
  708MOL0     C95456   5.400   6.994   0.087  0.8558  0.2391  0.2491
  708MOL0     C95457   5.382   7.050  -0.058 -0.2172  0.3325 -0.0487
  708MOL0     C95458   5.466   7.174  -0.085  0.0826 -0.7079 -0.4742
  708MOL0     C95459   5.461   7.220  -0.230 -0.3951  0.4922  0.2328
  708MOL0     C95460   5.345   7.312  -0.263 -0.0012  0.2476 -0.4145
  708MOL0     C95461   5.357   7.460  -0.207  0.8088  0.0647 -0.5441
  708MOL0     N95462   5.461   7.553  -0.257  0.8265 -0.2102 -0.6051
  708MOL0     C95463   5.478   7.565  -0.395 -0.0443 -0.6606  0.9308
  708MOL0     C95464   5.596   7.633  -0.403 -0.0142 -0.4189  0.4931
  708MOL0     C95465   5.675   7.680  -0.530  0.5721  0.5672 -1.0129
  708MOL0     C95466   5.814   7.619  -0.561  0.9413 -0.2442 -0.1383
  708MOL0     C95467   5.931   7.698  -0.519 -0.1007 -0.3816 -0.6658
  708MOL0     C95468   6.063   7.639  -0.559 -0.6177  0.3986 -0.0341
  708MOL0     O95469   6.182   7.719  -0.517 -0.3392  0.2219  0.6214
  708MOL0     C95470   6.275   7.680  -0.428  0.8493 -0.1188  0.0240
  708MOL0     C95471   6.241   7.600  -0.314 -0.5759 -0.3037  0.4510
  708MOL0     C95472   6.343   7.557  -0.227 -0.1347  0.3877  0.2997
  708MOL0     C95473   6.297   7.474  -0.106 -0.2710  1.0692  1.2981
  708MOL0     C95474   6.483   7.599  -0.243  0.5844  0.0355 -0.9007
  708MOL0     C95475   6.598   7.544  -0.160 -0.7377 -0.0867  0.4866
  708MOL0     O95476   6.717   7.554  -0.228  0.6573  0.2804  0.5993
  708MOL0     C95477   6.837   7.578  -0.176  0.1390 -1.0155 -0.2560
  708MOL0     C95478   6.871   7.565  -0.041 -1.4606  0.1639 -0.2665
  708MOL0     C95479   6.997   7.590   0.012  0.2506 -0.9499  0.2608
  708MOL0     C95480   7.100   7.631  -0.070  0.3188 -0.2352  0.4088
  708MOL0     O95481   7.228   7.651  -0.023 -0.5808  0.3657  0.1501
  708MOL0     C95482   7.265   7.628   0.118  0.4191 -0.6077 -0.8931
  708MOL0     C95483   7.415   7.652   0.147 -0.9967  0.4125 -0.0921
  708MOL0     C95484   7.498   7.551   0.078 -0.2757  0.9220 -0.3768
  708MOL0     C95485   7.645   7.579   0.121 -0.7065 -0.7024 -1.0333
  708MOL0     C95486   7.732   7.454   0.097 -0.2703  0.1069  0.5521
  708MOL0     C95487   7.694   7.336   0.187  0.9231 -0.1729 -0.1295
  708MOL0     C95488   7.790   7.204   0.180  0.2573  0.4613 -0.3697
  708MOL0     C95489   7.880   7.185   0.299  0.0563  0.7406  0.1544
  708MOL0    Cl95490   7.782   7.155   0.443 -0.2765 -0.1157 -0.1533
  708MOL0     C95491   7.068   7.652  -0.211 -0.6744 -0.3598  0.2902
  708MOL0     C95492   6.935   7.640  -0.262  0.2407 -0.3490 -1.4025
  708MOL0     O95493   6.585   7.518  -0.043 -0.3091  0.4755  0.0620
  708MOL0     C95494   6.501   7.686  -0.352 -0.6220  0.0752 -0.4559
  708MOL0     C95495   6.406   7.723  -0.443  0.0553 -0.2994 -0.7610
  708MOL0     N95496   5.636   7.671  -0.282 -0.1708  0.7249  0.7225
  708MOL0     N95497   5.554   7.634  -0.187  0.2460  0.3993  0.3468
  708MOL0     C95498   5.601   6.521   0.411 -0.6118 -0.7422  0.7950
  708MOL0     C95499   5.615   6.476   0.537 -0.2399 -0.2048 -0.1480
  708MOL0     C95500   5.514   6.449   0.996 -0.5016 -0.4565  0.0320
  708MOL0     C95501   5.436   6.486   1.103  0.3196 -0.4059  0.8585
  708MOL0     C95502   5.446   6.409   1.218  0.2263  0.0084 -0.4620
  708MOL0     C95503   5.542   6.308   1.237 -0.7621  0.2356  0.7068
  708MOL0     O95504   5.549   6.238   1.358 -0.4436 -0.2821  0.0290
  708MOL0     C95505   5.680   6.244   1.413 -0.1407 -0.3784  0.3679
  708MOL0     C95506   5.676   6.194   1.554  0.5469  0.1141 -0.0769
  708MOL0     C95507   5.817   6.201   1.612 -0.1421 -0.2218  0.0932
  708MOL0     C95508   5.825   6.191   1.766 -0.6868  0.5611 -0.6274
  708MOL0     C95509   5.767   6.064   1.815  0.0324 -0.3250  0.5107
  708MOL0     C95510   5.724   5.955   1.839  0.4703 -0.6313 -0.0540
  708MOL0     C95511   5.632   6.273   1.139  0.8623 -0.3100  0.6368
  708MOL0     C95512   5.611   6.342   1.017  0.1333 -0.0556 -1.0061
  708MOL0     H95513   5.565   6.768   0.699  1.3101 -0.7456  0.2249
  708MOL0     H95514   5.553   6.856   0.474 -4.2254 -1.5706 -1.9010
  708MOL0     H95515   5.369   6.727   0.246 -1.6777  2.5469  2.5863
  708MOL0     H95516   5.449   6.863   0.306  2.3297 -1.0784  2.4625
  708MOL0     H95517   5.578   6.867   0.064 -0.0208 -4.7141 -3.9995
  708MOL0     H95518   5.447   6.787   0.014  3.2788  0.6651 -0.3911
  708MOL0     H95519   5.302   6.980   0.134  1.3304 -1.9991  0.7102
  708MOL0     H95520   5.453   7.071   0.143  0.3439 -0.2087  1.3947
  708MOL0     H95521   5.403   6.970  -0.129  1.1582  0.2838  0.3906
  708MOL0     H95522   5.275   7.072  -0.065 -0.8990 -2.3166  0.8875
  708MOL0     H95523   5.435   7.252  -0.016 -0.0642  1.1472 -2.5263
  708MOL0     H95524   5.566   7.141  -0.057  2.1499  3.4153 -2.1537
  708MOL0     H95525   5.552   7.281  -0.232  0.8643 -0.0891  8.1248
  708MOL0     H95526   5.466   7.142  -0.307 -2.8778 -0.0845  0.5741
  708MOL0     H95527   5.347   7.323  -0.372  2.4497  1.0109 -0.3513
  708MOL0     H95528   5.253   7.264  -0.227 -0.0238  0.2470 -0.4725
  708MOL0     H95529   5.378   7.446  -0.101  2.4408  0.8692 -0.7250
  708MOL0     H95530   5.268   7.516  -0.236  0.3689  0.1647  0.9465
  708MOL0     H95531   5.409   7.528  -0.470  0.4529  3.0287 -1.6768
  708MOL0     H95532   5.616   7.654  -0.619 -2.0943  1.4770  0.3872
  708MOL0     H95533   5.667   7.789  -0.527 -0.8080  0.4906  1.7877
  708MOL0     H95534   5.820   7.609  -0.670  0.4105 -0.8140 -0.1211
  708MOL0     H95535   5.827   7.519  -0.519  0.6099 -0.8933 -1.5291
  708MOL0     H95536   5.943   7.694  -0.410  0.5817  2.1745 -0.5990
  708MOL0     H95537   5.919   7.802  -0.549 -0.1080 -0.4220 -0.8045
  708MOL0     H95538   6.065   7.633  -0.669  0.6628 -1.8973  0.0399
  708MOL0     H95539   6.075   7.542  -0.509 -0.8879  0.1535 -0.4354
  708MOL0     H95540   6.134   7.585  -0.297 -1.0364  2.0987  0.0131
  708MOL0     H95541   6.304   7.517  -0.006  2.8932 -3.6787  3.5267
  708MOL0     H95542   6.198   7.429  -0.114  0.5390 -0.5051 -1.1796
  708MOL0     H95543   6.363   7.387  -0.095  0.4382  1.5919  1.2578
  708MOL0     H95544   6.806   7.517   0.032  2.6786 -2.4308  2.1785
  708MOL0     H95545   7.011   7.562   0.116  2.5620  0.7774  0.4972
  708MOL0     H95546   7.208   7.699   0.179  1.6726  0.8876 -1.3821
  708MOL0     H95547   7.234   7.529   0.152 -1.3425  0.5451  1.1206
  708MOL0     H95548   7.439   7.750   0.103  0.2698  0.5762  0.8959
  708MOL0     H95549   7.448   7.657   0.251  0.7754  1.7297 -0.6667
  708MOL0     H95550   7.484   7.572  -0.028 -1.2868  0.6113 -0.3181
  708MOL0     H95551   7.461   7.450   0.101  1.0361  0.1554 -1.5163
  708MOL0     H95552   7.679   7.662   0.060 -1.7827 -1.1931 -2.3483
  708MOL0     H95553   7.654   7.592   0.229 -0.9010 -0.0456 -1.0960
  708MOL0     H95554   7.834   7.492   0.114 -0.0230  1.1414 -2.6477
  708MOL0     H95555   7.734   7.437  -0.011  0.2876  2.6163  0.0881
  708MOL0     H95556   7.688   7.385   0.285  0.3657  0.2312 -0.3576
  708MOL0     H95557   7.597   7.302   0.149  1.7425 -0.4835 -2.0697
  708MOL0     H95558   7.844   7.199   0.085 -1.8662 -1.0306 -1.5830
  708MOL0     H95559   7.725   7.117   0.183  1.9429 -1.1139 -3.6576
  708MOL0     H95560   7.945   7.272   0.307  3.6326 -1.8155  2.1051
  708MOL0     H95561   7.948   7.100   0.288 -1.6880 -1.2243  3.0389
  708MOL0     H95562   7.151   7.677  -0.276  2.0465 -3.6800  2.1921
  708MOL0     H95563   6.911   7.656  -0.366  3.6642 -1.7522 -2.5575
  708MOL0     H95564   6.597   7.732  -0.373 -1.1975  0.2615 -3.0245
  708MOL0     H95565   6.424   7.784  -0.531 -1.3027  0.4682 -0.5356
  708MOL0     H95566   5.595   6.454   0.326 -0.4728 -1.1002  1.0656
  708MOL0     H95567   5.638   6.371   0.545 -0.4362 -0.5141 -2.7607
  708MOL0     H95568   5.366   6.569   1.103  1.5820  0.7792  3.1143
  708MOL0     H95569   5.378   6.426   1.300  0.0998 -2.1295 -0.0545
  708MOL0     H95570   5.754   6.186   1.358 -0.0804 -1.1328  1.2307
  708MOL0     H95571   5.707   6.350   1.420 -1.3592 -0.1033  1.3484
  708MOL0     H95572   5.631   6.095   1.557 -1.5183  1.0299  1.2963
  708MOL0     H95573   5.610   6.260   1.611 -1.1771  1.3122 -3.1668
  708MOL0     H95574   5.869   6.291   1.578 -1.2067  0.0550 -0.8594
  708MOL0     H95575   5.878   6.115   1.583  3.1950  1.7588  0.7535
  708MOL0     H95576   5.775   6.280   1.805 -0.6871  0.0058  0.6836
  708MOL0     H95577   5.932   6.201   1.791 -1.4119  2.1960  2.3455
  708MOL0     H95578   5.713   5.860   1.887 -2.3808  0.7319  2.3074
  708MOL0     H95579   5.696   6.187   1.152  1.0185 -0.7082 -2.0833
  708MOL0     H95580   5.674   6.316   0.932  3.9659  1.1850  1.2240
  709MOL0     O95581   4.436   5.427   1.048  0.3846 -0.1611  0.2059
  709MOL0     C95582   4.344   5.503   1.074 -0.2254  0.7970  0.5965
  709MOL0     O95583   4.342   5.633   1.047  0.1564 -0.1718  0.0140
  709MOL0     C95584   4.430   5.708   0.981  0.4291  1.5832 -0.2488
  709MOL0     C95585   4.524   5.664   0.891  0.3396  0.2250  0.0136
  709MOL0     C95586   4.615   5.752   0.841 -0.0555 -0.3496  0.2761
  709MOL0     C95587   4.617   5.886   0.863  0.9118 -0.3703 -0.4734
  709MOL0     O95588   4.721   5.967   0.817  0.4720  0.0790 -0.2791
  709MOL0     C95589   4.688   6.098   0.771 -0.7452 -0.6561  0.6055
  709MOL0     C95590   4.610   6.094   0.640  0.0529 -0.4315 -0.1256
  709MOL0     C95591   4.693   6.096   0.512 -0.4043 -0.0145 -0.6035
  709MOL0     C95592   4.732   5.950   0.476 -0.0514  0.2461  0.0594
  709MOL0     C95593   4.821   5.935   0.349  0.5703  0.0686  1.3820
  709MOL0     C95594   4.785   6.037   0.245  0.4481 -0.8320  0.2670
  709MOL0     C95595   4.833   6.001   0.105 -1.0322  0.8999  0.5379
  709MOL0     C95596   4.742   5.891   0.047 -0.1742 -0.0803  1.0878
  709MOL0     N95597   4.821   5.768   0.055  0.5499 -0.7812  0.1938
  709MOL0     C95598   4.923   5.730  -0.023 -0.2964 -0.6080 -0.0766
  709MOL0     C95599   4.942   5.596   0.008  1.0845 -0.0368  0.8011
  709MOL0     C95600   5.056   5.517  -0.049  0.0436  0.6632  0.4748
  709MOL0     C95601   5.028   5.465  -0.196  0.4717  0.1365  0.4752
  709MOL0     C95602   4.995   5.320  -0.211 -0.2163 -0.5258  0.2362
  709MOL0     C95603   4.859   5.284  -0.164  0.1514 -0.2414 -0.9395
  709MOL0     O95604   4.761   5.368  -0.229  0.3700  0.3151 -0.4638
  709MOL0     C95605   4.644   5.387  -0.156 -0.1069 -0.0592 -0.2422
  709MOL0     C95606   4.577   5.277  -0.113 -1.1903 -0.1266 -0.5879
  709MOL0     C95607   4.448   5.289  -0.067 -0.9246  0.2824  0.1441
  709MOL0     C95608   4.402   5.160   0.008 -0.0750  0.0260 -0.6176
  709MOL0     C95609   4.389   5.417  -0.058  0.4898 -0.6054  0.4965
  709MOL0     C95610   4.259   5.452  -0.004  0.4831 -0.7735 -0.7930
  709MOL0     O95611   4.201   5.574  -0.034 -0.0824  0.7574 -1.0225
  709MOL0     C95612   4.093   5.615   0.042  0.1806 -0.1979 -0.0890
  709MOL0     C95613   4.008   5.697  -0.024 -0.2180 -1.0906 -0.4847
  709MOL0     C95614   3.906   5.755   0.040  0.2121  0.1475 -0.6327
  709MOL0     C95615   3.884   5.737   0.180 -0.1647  1.0474 -0.3587
  709MOL0     O95616   3.782   5.802   0.237 -0.4574  0.9140  0.0161
  709MOL0     C95617   3.760   5.783   0.381 -0.3870  0.7631  0.7802
  709MOL0     C95618   3.710   5.639   0.423 -0.5122 -0.4980 -0.5114
  709MOL0     C95619   3.616   5.575   0.323  0.1130  1.4188 -0.1253
  709MOL0     C95620   3.499   5.666   0.277  0.4839  0.1598  0.5802
  709MOL0     C95621   3.402   5.604   0.183  0.3024  0.1266  0.9407
  709MOL0     C95622   3.326   5.485   0.251 -0.2119 -0.7549 -0.2142
  709MOL0     C95623   3.255   5.530   0.381  0.4281 -0.5014  0.3027
  709MOL0     C95624   3.190   5.408   0.449  0.6383 -0.6070 -0.4434
  709MOL0    Cl95625   3.132   5.467   0.608 -0.2035 -0.6518  0.5005
  709MOL0     C95626   3.976   5.660   0.248  1.3271 -0.2242  0.2713
  709MOL0     C95627   4.077   5.601   0.179  0.2552 -0.8200 -0.7792
  709MOL0     O95628   4.225   5.371   0.080 -0.6686  0.6615  0.2288
  709MOL0     C95629   4.454   5.534  -0.110  0.7588 -0.4596 -0.9476
  709MOL0     C95630   4.586   5.512  -0.150  0.1997 -0.5235  0.0810
  709MOL0     N95631   4.865   5.563   0.126 -0.1462 -0.5755  0.6979
  709MOL0     N95632   4.789   5.667   0.138 -0.4955  0.3632  0.1396
  709MOL0     C95633   4.520   5.935   0.955  0.1904  0.2303 -1.4802
  709MOL0     C95634   4.430   5.847   1.018 -0.1275 -0.0812  0.6426
  709MOL0     C95635   4.218   5.441   1.126 -0.3426 -0.0853 -0.6658
  709MOL0     C95636   4.212   5.305   1.174  0.1959 -0.1799 -0.0530
  709MOL0     C95637   4.091   5.251   1.218 -0.0176  0.5711  0.6680
  709MOL0     C95638   3.976   5.324   1.218 -0.2413 -0.0207 -0.7525
  709MOL0     O95639   3.858   5.257   1.258 -0.0905  0.4461  0.7941
  709MOL0     C95640   3.731   5.324   1.241  0.0836  0.0120 -0.0225
  709MOL0     C95641   3.613   5.230   1.246  0.7225  0.5778  0.5911
  709MOL0     C95642   3.587   5.155   1.382  0.0120 -0.6588  0.2633
  709MOL0     C95643   3.477   5.039   1.378  0.8683  0.5127 -0.9490
  709MOL0     C95644   3.354   5.104   1.334 -0.4549 -0.1529  0.0206
  709MOL0     C95645   3.256   5.155   1.280 -0.0297  0.2899  0.2474
  709MOL0     C95646   3.989   5.459   1.178 -0.2008  0.3658 -0.6840
  709MOL0     C95647   4.107   5.511   1.129  0.1853 -0.4094 -0.4780
  709MOL0     H95648   4.522   5.561   0.859 -0.1516  0.2834 -0.1491
  709MOL0     H95649   4.693   5.716   0.774  1.6293 -0.1606  2.0414
  709MOL0     H95650   4.637   6.155   0.849 -3.2659 -2.5468  0.4840
  709MOL0     H95651   4.785   6.143   0.750 -1.6532  0.2603 -2.1729
  709MOL0     H95652   4.540   6.009   0.644 -0.3304 -0.0592  1.5918
  709MOL0     H95653   4.554   6.188   0.630  2.2091  1.0160  0.8603
  709MOL0     H95654   4.636   6.129   0.424  0.2591 -1.4935 -1.6295
  709MOL0     H95655   4.783   6.155   0.531  0.5339 -1.1300 -1.4872
  709MOL0     H95656   4.792   5.902   0.554  1.9947  1.7804 -0.4929
  709MOL0     H95657   4.633   5.904   0.474 -1.7746  3.5698  0.9344
  709MOL0     H95658   4.928   5.938   0.371  1.7404 -0.2449 -3.2296
  709MOL0     H95659   4.807   5.834   0.311  1.3646 -0.1780  1.7301
  709MOL0     H95660   4.676   6.027   0.241  0.5009 -1.2846 -0.1434
  709MOL0     H95661   4.808   6.136   0.285 -1.0982 -2.1155  4.8899
  709MOL0     H95662   4.836   6.088   0.040  0.3748  0.4710 -0.0132
  709MOL0     H95663   4.939   5.975   0.104 -0.3964  3.1893  1.7507
  709MOL0     H95664   4.737   5.900  -0.062  0.2121 -1.9817  0.8631
  709MOL0     H95665   4.641   5.897   0.087 -0.4083 -0.4559  0.5592
  709MOL0     H95666   4.977   5.790  -0.096 -2.4250  1.6960  0.1114
  709MOL0     H95667   5.144   5.581  -0.065 -0.7874  1.3155 -1.9910
  709MOL0     H95668   5.086   5.429   0.008  1.1507  0.3641 -0.5187
  709MOL0     H95669   5.116   5.494  -0.253 -0.8226  0.4687 -1.4563
  709MOL0     H95670   4.945   5.521  -0.240 -0.0132 -0.9543 -0.0673
  709MOL0     H95671   5.073   5.265  -0.157  3.5364  3.7785 -0.2520
  709MOL0     H95672   5.004   5.288  -0.315  6.0332 -1.1192  0.5477
  709MOL0     H95673   4.859   5.298  -0.055  2.4270  3.3847 -1.2159
  709MOL0     H95674   4.839   5.181  -0.195  1.3839  0.2562 -3.7048
  709MOL0     H95675   4.622   5.179  -0.122  0.5919  0.7833 -2.1366
  709MOL0     H95676   4.488   5.092   0.015 -0.2216 -0.1028 -0.0064
  709MOL0     H95677   4.377   5.186   0.111 -0.1328  1.9141 -1.0833
  709MOL0     H95678   4.317   5.115  -0.044 -0.3356  1.4042 -1.4358
  709MOL0     H95679   4.019   5.708  -0.132 -0.2632 -0.7129 -0.4522
  709MOL0     H95680   3.827   5.819   0.001 -1.4077 -0.2637  1.7125
  709MOL0     H95681   3.854   5.814   0.427  0.2720  0.3665 -0.2505
  709MOL0     H95682   3.690   5.856   0.423 -1.6942 -1.3494  2.4528
  709MOL0     H95683   3.789   5.566   0.440 -2.0834 -2.1117  0.1517
  709MOL0     H95684   3.655   5.656   0.516 -0.3566  0.9172 -0.6568
  709MOL0     H95685   3.570   5.489   0.371 -1.9960  1.7824 -1.3930
  709MOL0     H95686   3.666   5.519   0.244 -3.1563 -2.3958  0.2138
  709MOL0     H95687   3.444   5.712   0.359 -0.6316  1.2087 -0.7120
  709MOL0     H95688   3.534   5.760   0.232 -1.1497  1.7515  2.4578
  709MOL0     H95689   3.462   5.573   0.097  1.2229  0.9838  1.2615
  709MOL0     H95690   3.325   5.670   0.142  0.5238  0.1860  0.6163
  709MOL0     H95691   3.241   5.447   0.192 -0.4175  1.5010 -1.5164
  709MOL0     H95692   3.389   5.397   0.264  0.5634 -0.1069  0.5225
  709MOL0     H95693   3.183   5.610   0.362 -0.4627 -2.0001 -3.3943
  709MOL0     H95694   3.329   5.573   0.449  1.0366  1.7168 -1.6079
  709MOL0     H95695   3.255   5.320   0.460  2.5950  0.5684 -1.9989
  709MOL0     H95696   3.091   5.380   0.412 -1.3160  2.4916  1.9513
  709MOL0     H95697   3.981   5.632   0.353  0.9649 -2.9809 -0.3748
  709MOL0     H95698   4.143   5.534   0.233 -1.5706 -0.7903  1.6466
  709MOL0     H95699   4.403   5.629  -0.114  1.2313  0.0962  2.8607
  709MOL0     H95700   4.648   5.595  -0.182  1.6875 -1.0036  1.5981
  709MOL0     H95701   4.503   6.041   0.974 -1.8355  0.0880 -2.2014
  709MOL0     H95702   4.365   5.880   1.098  0.4709 -0.2391  1.2003
  709MOL0     H95703   4.295   5.235   1.168 -1.6090 -2.5108  0.5942
  709MOL0     H95704   4.080   5.146   1.246 -0.4520  0.7787  1.2904
  709MOL0     H95705   3.719   5.402   1.317 -2.0336  1.2812 -1.5763
  709MOL0     H95706   3.739   5.371   1.143  0.5521  0.3628  0.1775
  709MOL0     H95707   3.615   5.153   1.167  0.4654  2.5522 -1.4566
  709MOL0     H95708   3.526   5.285   1.210  2.3330  2.4602 -0.6071
  709MOL0     H95709   3.567   5.236   1.453  0.9454  2.2511 -2.5664
  709MOL0     H95710   3.682   5.105   1.403  2.3231  2.9768 -0.5207
  709MOL0     H95711   3.455   5.008   1.480  2.8501 -3.4711 -1.5228
  709MOL0     H95712   3.507   4.957   1.311 -1.0439  0.6457 -2.0450
  709MOL0     H95713   3.162   5.191   1.243  0.5480  1.6531  0.0406
  709MOL0     H95714   3.900   5.520   1.179  0.7859  1.8665 -1.0831
  709MOL0     H95715   4.096   5.616   1.106 -0.2451  0.0512  1.6118
  710MOL0     O95716   9.439   2.086   3.383 -0.0184  0.0018  0.1080
  710MOL0     C95717   9.386   2.100   3.496  0.1423  0.0997  0.1792
  710MOL0     O95718   9.259   2.129   3.525  0.6034  0.1348  0.2610
  710MOL0     C95719   9.167   2.168   3.435 -0.4485 -0.3825  0.1437
  710MOL0     C95720   9.032   2.142   3.473 -0.5989 -0.3075 -0.0006
  710MOL0     C95721   8.924   2.183   3.393 -0.4482  0.0016 -0.0095
  710MOL0     C95722   8.958   2.248   3.267  1.0514  0.3122 -0.2347
  710MOL0     O95723   8.869   2.280   3.173 -0.1418  0.9944 -0.7977
  710MOL0     C95724   8.726   2.285   3.201  0.2954 -0.1052 -1.3201
  710MOL0     C95725   8.642   2.294   3.072 -0.1915  0.0888  0.4475
  710MOL0     C95726   8.668   2.185   2.967 -0.5351  0.4107 -0.1124
  710MOL0     C95727   8.784   2.221   2.875 -0.3794 -0.2072  0.2867
  710MOL0     C95728   8.775   2.134   2.748 -0.7508  0.7752 -0.2587
  710MOL0     C95729   8.643   2.126   2.682 -0.3030  0.1499  0.1114
  710MOL0     C95730   8.649   2.089   2.527  0.5983 -0.7583  0.0480
  710MOL0     C95731   8.672   1.940   2.507 -1.1382  0.2190 -0.1860
  710MOL0     N95732   8.625   1.915   2.371  0.7153 -0.5411  0.4137
  710MOL0     C95733   8.491   1.889   2.349  0.2950 -0.2245  0.0852
  710MOL0     C95734   8.468   1.914   2.220  0.1030 -0.2800  0.2932
  710MOL0     C95735   8.329   1.898   2.165  0.1982  0.6206 -0.8089
  710MOL0     C95736   8.312   1.777   2.073 -0.5502 -0.3540 -0.0668
  710MOL0     C95737   8.166   1.732   2.047  0.5292 -0.2774 -0.1601
  710MOL0     C95738   8.063   1.838   2.105 -0.6321  0.4559  0.6641
  710MOL0     O95739   7.978   1.786   2.208  0.0390 -0.1967 -0.0469
  710MOL0     C95740   7.854   1.852   2.226 -0.0835 -1.3220 -0.0663
  710MOL0     C95741   7.762   1.798   2.309 -0.5656 -0.3096  0.7836
  710MOL0     C95742   7.636   1.853   2.340 -0.7323  0.2922 -0.2572
  710MOL0     C95743   7.553   1.766   2.433  0.6429  0.0145  0.0119
  710MOL0     C95744   7.604   1.979   2.289 -0.0886 -0.1069 -1.3232
  710MOL0     C95745   7.470   2.038   2.324  0.8516 -0.6182 -0.6906
  710MOL0     O95746   7.445   2.155   2.269  0.0390 -0.2305  1.0340
  710MOL0     C95747   7.325   2.215   2.301  0.2184 -0.4162  0.1643
  710MOL0     C95748   7.253   2.254   2.195  0.5184  0.2396 -0.2821
  710MOL0     C95749   7.121   2.305   2.202 -0.0370  0.2413  0.1999
  710MOL0     C95750   7.070   2.344   2.327  0.0385  0.4826 -0.6425
  710MOL0     O95751   6.946   2.411   2.355 -0.2730 -0.4444  0.7861
  710MOL0     C95752   6.844   2.400   2.249  1.0677  0.5470 -0.1205
  710MOL0     C95753   6.710   2.462   2.291 -0.0445 -0.3234  1.1142
  710MOL0     C95754   6.605   2.452   2.180 -0.8425  0.7463  0.3310
  710MOL0     C95755   6.470   2.478   2.240  0.4989  0.5847 -0.3864
  710MOL0     C95756   6.432   2.376   2.347 -0.9113  0.0985 -1.0947
  710MOL0     C95757   6.279   2.385   2.361  0.3290 -0.7727 -0.0277
  710MOL0     C95758   6.223   2.284   2.459 -0.2564  0.7389 -0.0151
  710MOL0     C95759   6.092   2.317   2.508  0.7106 -0.5785 -0.3483
  710MOL0    Cl95760   5.982   2.357   2.374  0.1485 -0.5665  0.2289
  710MOL0     C95761   7.148   2.302   2.438 -0.4854 -0.4821 -0.6096
  710MOL0     C95762   7.277   2.242   2.427 -0.2054  0.1485 -0.4149
  710MOL0     O95763   7.393   1.980   2.394  0.6152 -0.4776 -0.2896
  710MOL0     C95764   7.706   2.044   2.218 -0.6839  0.0234  0.2907
  710MOL0     C95765   7.823   1.982   2.175  1.1381 -0.4822  0.1142
  710MOL0     N95766   8.588   1.952   2.152 -0.5533 -0.0357  0.1066
  710MOL0     N95767   8.678   1.967   2.248  0.3210 -0.3403  1.1143
  710MOL0     C95768   9.093   2.275   3.230  0.3481 -0.0488  0.3307
  710MOL0     C95769   9.202   2.238   3.315  0.1534 -0.3005  0.0333
  710MOL0     C95770   9.475   2.051   3.609  0.7016 -1.1721  0.3252
  710MOL0     C95771   9.436   2.072   3.746 -0.0369 -0.1159  0.5244
  710MOL0     C95772   9.512   2.028   3.852 -0.0049  0.8341  0.4341
  710MOL0     C95773   9.631   1.955   3.831 -1.0269  0.4828 -0.2608
  710MOL0     O95774   9.714   1.901   3.925 -0.8459 -0.3395 -0.8919
  710MOL0     C95775   9.656   1.891   4.064  0.0261 -0.4743  0.2153
  710MOL0     C95776   9.762   1.817   4.145  0.1129 -0.7064  0.3227
  710MOL0     C95777   9.877   1.920   4.171  0.1346 -0.1480 -0.0203
  710MOL0     C95778  10.007   1.868   4.234 -0.8223  0.4765 -0.5127
  710MOL0     C95779   9.968   1.799   4.359 -0.8838 -0.2297 -0.8498
  710MOL0     C95780   9.934   1.732   4.452  0.6099 -0.2267 -0.1781
  710MOL0     C95781   9.676   1.946   3.699  0.0599  0.5476 -0.2506
  710MOL0     C95782   9.593   1.980   3.591 -0.0996  0.4535  0.1029
  710MOL0     H95783   9.007   2.111   3.574 -1.1721  2.8720  0.9229
  710MOL0     H95784   8.826   2.161   3.433 -0.1289 -0.1256  0.7163
  710MOL0     H95785   8.696   2.192   3.249  1.2011 -0.2367 -0.9809
  710MOL0     H95786   8.699   2.369   3.266 -0.6148 -1.1719 -0.2786
  710MOL0     H95787   8.536   2.289   3.099 -0.4047 -2.8814 -0.6122
  710MOL0     H95788   8.659   2.391   3.023  1.5170 -0.7092 -0.6556
  710MOL0     H95789   8.692   2.089   3.014 -0.9345 -0.0260 -0.7915
  710MOL0     H95790   8.569   2.176   2.923  0.7077  1.2539 -3.3803
  710MOL0     H95791   8.776   2.328   2.854  1.6289 -0.3935 -1.7866
  710MOL0     H95792   8.883   2.206   2.920 -1.2467 -4.1845  1.2335
  710MOL0     H95793   8.853   2.167   2.678 -0.4681  0.6811  0.0086
  710MOL0     H95794   8.806   2.032   2.770 -0.1659  1.2199  1.1014
  710MOL0     H95795   8.587   2.048   2.734 -0.1533 -0.6502 -0.8751
  710MOL0     H95796   8.587   2.219   2.686  0.6995  1.4206 -5.8503
  710MOL0     H95797   8.546   2.112   2.497  0.3447 -0.1772  1.3325
  710MOL0     H95798   8.711   2.153   2.463  2.6166 -0.3276  2.3242
  710MOL0     H95799   8.609   1.877   2.571 -0.4192  1.4193  1.7628
  710MOL0     H95800   8.779   1.920   2.522 -1.3480 -1.2146 -0.4618
  710MOL0     H95801   8.411   1.849   2.412  1.9852 -4.2918 -0.0266
  710MOL0     H95802   8.273   1.894   2.259  2.2193 -2.9042  0.4353
  710MOL0     H95803   8.292   1.988   2.114  0.4236  2.1480  1.5626
  710MOL0     H95804   8.377   1.690   2.089 -0.2338 -0.4082 -1.4927
  710MOL0     H95805   8.331   1.821   1.974  0.6955 -1.5269 -0.3939
  710MOL0     H95806   8.167   1.642   2.109 -0.5935  0.4709  1.0030
  710MOL0     H95807   8.153   1.699   1.944  0.8404 -0.2074 -0.2233
  710MOL0     H95808   8.003   1.867   2.019 -1.8113  1.6533  1.8394
  710MOL0     H95809   8.096   1.931   2.152 -1.9384  1.2130  0.1082
  710MOL0     H95810   7.793   1.706   2.358  0.7070  0.7776  2.1204
  710MOL0     H95811   7.531   1.817   2.527 -0.2523  1.3231 -0.8744
  710MOL0     H95812   7.462   1.746   2.377  1.1556  1.0643 -1.2430
  710MOL0     H95813   7.597   1.667   2.449 -0.9680 -0.7948 -0.4049
  710MOL0     H95814   7.292   2.233   2.096 -0.7602  0.3599 -0.8280
  710MOL0     H95815   7.058   2.329   2.117 -0.6535  1.7886  1.0561
  710MOL0     H95816   6.877   2.456   2.161 -0.3958 -0.0611 -1.0793
  710MOL0     H95817   6.831   2.295   2.226 -0.8493  0.7792 -0.2289
  710MOL0     H95818   6.688   2.401   2.379 -1.2902 -0.6997  0.5615
  710MOL0     H95819   6.727   2.563   2.331  0.7753 -0.1689  0.4022
  710MOL0     H95820   6.606   2.352   2.136 -2.9218  1.4778 -1.6426
  710MOL0     H95821   6.629   2.524   2.101  0.7981 -0.4022 -0.2552
  710MOL0     H95822   6.457   2.581   2.275 -2.4979  0.3370 -0.4971
  710MOL0     H95823   6.400   2.447   2.161 -1.3643  1.9320  0.6638
  710MOL0     H95824   6.479   2.410   2.439 -3.2677 -3.3460  1.6547
  710MOL0     H95825   6.456   2.273   2.317 -1.4273  0.0086 -1.2057
  710MOL0     H95826   6.260   2.486   2.397  0.8702 -0.2225 -1.2394
  710MOL0     H95827   6.223   2.364   2.270  1.9535  1.7848 -1.7438
  710MOL0     H95828   6.293   2.290   2.544  1.1096  1.8263 -1.1636
  710MOL0     H95829   6.240   2.187   2.412 -0.1291  0.7650 -0.0250
  710MOL0     H95830   6.104   2.407   2.569  2.4976 -2.1917  1.8608
  710MOL0     H95831   6.046   2.237   2.567  0.5307  0.0750  0.4135
  710MOL0     H95832   7.108   2.319   2.537 -0.0395  1.6257 -0.7500
  710MOL0     H95833   7.337   2.228   2.516  1.0352 -0.8309 -1.3768
  710MOL0     H95834   7.696   2.145   2.180 -1.1532 -0.2844 -0.4270
  710MOL0     H95835   7.886   2.040   2.109  3.2385 -0.6027  1.8761
  710MOL0     H95836   9.123   2.312   3.133  4.5794 -3.3911  0.0342
  710MOL0     H95837   9.305   2.261   3.289  0.3405 -1.4067 -0.2377
  710MOL0     H95838   9.341   2.118   3.770 -1.1798 -2.2045  0.2455
  710MOL0     H95839   9.472   2.036   3.952 -0.9078  1.9142  0.0003
  710MOL0     H95840   9.642   1.990   4.109 -2.3895 -0.3740 -0.5843
  710MOL0     H95841   9.558   1.842   4.058  1.4531 -3.3117 -1.6969
  710MOL0     H95842   9.797   1.732   4.085  2.1731 -1.9128  3.0222
  710MOL0     H95843   9.723   1.780   4.240  2.7848 -1.0600  1.3631
  710MOL0     H95844   9.838   2.008   4.223  1.0950  0.5902 -0.5109
  710MOL0     H95845   9.904   1.957   4.071 -1.8810  1.0019 -0.1966
  710MOL0     H95846  10.089   1.941   4.235 -0.6288  0.2888 -1.3525
  710MOL0     H95847  10.044   1.788   4.169 -0.8909 -2.5132  2.8340
  710MOL0     H95848   9.917   1.690   4.549  3.5388  0.6521  0.8325
  710MOL0     H95849   9.779   1.917   3.682  0.8814  1.1214  2.9941
  710MOL0     H95850   9.633   1.966   3.491  0.8125  3.4236 -0.0459
  711MOL0     O95851   9.851  10.508   6.512  0.1022  0.8449  0.1562
  711MOL0     C95852   9.823  10.403   6.573 -0.2655 -0.1966  0.5777
  711MOL0     O95853   9.696  10.368   6.604  0.6164 -0.3381 -0.1818
  711MOL0     C95854   9.603  10.467   6.605  0.4359  0.5054 -0.2858
  711MOL0     C95855   9.551  10.510   6.731 -1.1030  0.6655  0.4229
  711MOL0     C95856   9.455  10.606   6.732 -0.0702  0.2719  0.8650
  711MOL0     C95857   9.407  10.663   6.617 -0.3201 -0.5095 -0.2290
  711MOL0     O95858   9.316  10.771   6.626 -0.5586 -0.8811  0.2659
  711MOL0     C95859   9.217  10.797   6.521 -0.8436  0.5873 -0.9317
  711MOL0     C95860   9.220  10.944   6.487 -0.5507 -0.8279 -0.0791
  711MOL0     C95861   9.102  11.016   6.408 -0.2462  0.4986  0.9190
  711MOL0     C95862   8.973  11.004   6.495 -0.6915  0.8670  0.2967
  711MOL0     C95863   8.908  11.132   6.543  0.6731  0.2777 -0.7527
  711MOL0     C95864   8.988  11.202   6.652 -0.3671 -0.3871  0.5394
  711MOL0     C95865   8.914  11.313   6.720 -0.2753 -0.4662  0.2322
  711MOL0     C95866   8.920  11.303   6.868 -0.6382  0.0136 -0.5045
  711MOL0     N95867   8.827  11.206   6.931  0.7010  0.6998  0.0540
  711MOL0     C95868   8.690  11.212   6.915  0.4556 -0.8873  0.1470
  711MOL0     C95869   8.650  11.098   6.980 -0.0283 -0.2977  0.6795
  711MOL0     C95870   8.512  11.055   6.999 -0.1330 -0.5030  0.4861
  711MOL0     C95871   8.479  10.924   6.927 -0.1522 -0.9238 -0.7309
  711MOL0     C95872   8.537  10.797   6.990  0.2393  2.3878 -0.9741
  711MOL0     C95873   8.466  10.668   6.946 -0.3589 -0.3298  0.7054
  711MOL0     O95874   8.355  10.642   7.025  0.6815 -0.1265  0.3659
  711MOL0     C95875   8.226  10.674   6.982  0.1962  0.1154 -0.7405
  711MOL0     C95876   8.180  10.725   6.860  0.0361 -0.3508 -1.1846
  711MOL0     C95877   8.050  10.732   6.828  0.0660  0.1521  0.4734
  711MOL0     C95878   8.019  10.762   6.681  0.4819 -0.5287 -0.0484
  711MOL0     C95879   7.944  10.700   6.919  0.3491 -0.7467  0.1774
  711MOL0     C95880   7.795  10.703   6.895 -0.2383  0.6761  0.8617
  711MOL0     O95881   7.718  10.593   6.938 -0.1538  0.7725 -0.0208
  711MOL0     C95882   7.582  10.598   6.977  0.3632 -0.6232 -0.5735
  711MOL0     C95883   7.514  10.476   6.968  0.3030 -0.7049 -0.1114
  711MOL0     C95884   7.379  10.471   7.018  0.2492  0.4240 -0.0557
  711MOL0     C95885   7.310  10.583   7.055  0.3898 -0.2127  0.0605
  711MOL0     O95886   7.182  10.561   7.101 -0.2680  0.4860 -0.2956
  711MOL0     C95887   7.091  10.675   7.113 -0.2516  1.0337 -0.5065
  711MOL0     C95888   6.954  10.618   7.153 -0.8383 -0.5128 -0.1663
  711MOL0     C95889   6.858  10.734   7.176 -0.1517  0.5891  0.0133
  711MOL0     C95890   6.878  10.805   7.301  0.1585 -1.3914 -0.2579
  711MOL0     C95891   6.742  10.865   7.355 -0.5743 -0.0102 -0.3312
  711MOL0     C95892   6.742  10.955   7.483 -0.9320  1.3320  0.5062
  711MOL0     C95893   6.597  10.990   7.533  0.3290  1.4599 -0.0351
  711MOL0     C95894   6.552  11.125   7.466  0.2793 -0.0594  0.5451
  711MOL0    Cl95895   6.663  11.248   7.540  0.3083  0.3004  0.2708
  711MOL0     C95896   7.372  10.706   7.054 -1.0923 -0.2495  0.5177
  711MOL0     C95897   7.515  10.709   7.016  0.2744  1.0863 -0.3304
  711MOL0     O95898   7.754  10.804   6.866  0.5801 -0.2765 -0.1226
  711MOL0     C95899   7.987  10.659   7.048  0.9551  0.3295 -0.2568
  711MOL0     C95900   8.124  10.647   7.077  0.0130 -0.0570 -0.8839
  711MOL0     N95901   8.755  11.026   7.018 -1.0179 -0.2582  0.1526
  711MOL0     N95902   8.865  11.091   6.993  0.8990  0.2319  0.5906
  711MOL0     C95903   9.464  10.619   6.491  0.3481 -0.9146 -0.8882
  711MOL0     C95904   9.557  10.516   6.487 -0.4550  0.0938  0.0959
  711MOL0     C95905   9.928  10.297   6.596 -0.9717 -1.2171 -0.3939
  711MOL0     C95906  10.049  10.296   6.522 -0.7037 -0.3466  0.4295
  711MOL0     C95907  10.137  10.189   6.543 -0.0434  0.2240 -0.0361
  711MOL0     C95908  10.103  10.082   6.628 -0.5532  0.2367  0.4990
  711MOL0     O95909  10.190   9.985   6.662 -0.1101 -0.3178 -0.0052
  711MOL0     C95910  10.260  10.011   6.785 -0.8236 -1.2792  0.0354
  711MOL0     C95911  10.396   9.944   6.778  0.2683 -0.0410 -0.1925
  711MOL0     C95912  10.473   9.996   6.651 -0.4499  0.7474 -0.0925
  711MOL0     C95913  10.615   9.935   6.660 -0.0399  0.2537  0.3928
  711MOL0     C95914  10.692   9.992   6.551  0.1547 -0.3260 -0.3597
  711MOL0     C95915  10.745  10.042   6.456 -0.3796  1.3979  0.7048
  711MOL0     C95916   9.985  10.087   6.700  0.3819 -0.3998 -0.2980
  711MOL0     C95917   9.898  10.200   6.691  0.4382  1.0483  0.0622
  711MOL0     H95918   9.611  10.476   6.815  1.1955 -1.6298 -1.9553
  711MOL0     H95919   9.427  10.649   6.827 -1.3827  2.8539 -0.6115
  711MOL0     H95920   9.232  10.749   6.424  2.7269 -0.2771 -0.1135
  711MOL0     H95921   9.119  10.783   6.567 -0.2480  1.6323  0.7835
  711MOL0     H95922   9.211  10.993   6.584  1.8753  1.2113 -0.7838
  711MOL0     H95923   9.316  10.971   6.441  0.4417 -2.3558  0.9799
  711MOL0     H95924   9.135  11.119   6.390  0.8699 -0.2540 -1.9481
  711MOL0     H95925   9.105  10.967   6.310 -2.4683  3.3316 -0.7230
  711MOL0     H95926   8.891  10.960   6.438 -1.0135  2.5034 -0.5603
  711MOL0     H95927   8.999  10.939   6.579  3.4837  2.0490  0.1429
  711MOL0     H95928   8.893  11.197   6.457  2.0213  0.2715 -1.0154
  711MOL0     H95929   8.808  11.113   6.581  0.7225  0.4246 -0.5445
  711MOL0     H95930   9.023  11.124   6.720  1.7909  0.9814  1.0942
  711MOL0     H95931   9.074  11.237   6.594 -1.9887 -0.3456 -1.9925
  711MOL0     H95932   8.955  11.407   6.682  2.7901 -2.7405 -2.7603
  711MOL0     H95933   8.808  11.320   6.698 -0.3325  3.1682  0.9717
  711MOL0     H95934   8.897  11.399   6.915 -0.4485 -0.5392  0.7737
  711MOL0     H95935   9.025  11.289   6.892  0.5702  1.8076 -4.0583
  711MOL0     H95936   8.644  11.296   6.862 -2.2318 -2.9008 -0.9460
  711MOL0     H95937   8.495  11.037   7.106 -1.3983 -3.1908 -0.0678
  711MOL0     H95938   8.443  11.134   6.969 -0.2155 -0.3630  1.0319
  711MOL0     H95939   8.493  10.936   6.819  3.0393 -3.9529 -0.8256
  711MOL0     H95940   8.374  10.909   6.953  1.0971 -3.7022  4.0661
  711MOL0     H95941   8.518  10.805   7.098  1.4982  2.3620 -0.7306
  711MOL0     H95942   8.645  10.786   6.976  0.0871  3.1695 -3.1196
  711MOL0     H95943   8.535  10.584   6.946  2.1357  1.4171 -3.2742
  711MOL0     H95944   8.434  10.682   6.842 -2.3377  1.0578  1.4360
  711MOL0     H95945   8.254  10.750   6.784  2.2027  0.6681  1.1177
  711MOL0     H95946   7.944  10.842   6.676 -0.3958 -1.0652  2.7894
  711MOL0     H95947   8.112  10.788   6.628 -0.5356  0.0081 -1.6513
  711MOL0     H95948   7.971  10.676   6.633  1.5105 -2.0564  1.5242
  711MOL0     H95949   7.561  10.385   6.931  2.0943  0.4739 -0.8922
  711MOL0     H95950   7.322  10.379   7.016 -1.6593  1.5301 -2.7423
  711MOL0     H95951   7.121  10.742   7.194  0.6497  0.0734 -0.0167
  711MOL0     H95952   7.085  10.731   7.019 -0.0419  1.2998 -0.3590
  711MOL0     H95953   6.909  10.553   7.076  0.1523  0.9836 -2.1065
  711MOL0     H95954   6.954  10.566   7.249 -1.0325 -1.0333 -0.4382
  711MOL0     H95955   6.755  10.700   7.169 -0.1360  0.7652 -1.3188
  711MOL0     H95956   6.863  10.806   7.093 -0.5272 -0.4455 -0.9316
  711MOL0     H95957   6.925  10.743   7.378  0.1589  0.1082  1.0092
  711MOL0     H95958   6.948  10.885   7.280 -2.2346  0.5537 -1.3792
  711MOL0     H95959   6.676  10.780   7.375 -1.1183  0.6266  0.6434
  711MOL0     H95960   6.699  10.919   7.270  0.3249  0.1341 -0.6997
  711MOL0     H95961   6.776  10.886   7.560 -3.4180 -1.4795 -0.7075
  711MOL0     H95962   6.813  11.035   7.458  2.4618 -2.4530 -3.6934
  711MOL0     H95963   6.603  11.004   7.641 -3.0754 -0.2287  0.4931
  711MOL0     H95964   6.536  10.903   7.508  1.7829  0.5707 -0.6138
  711MOL0     H95965   6.450  11.157   7.488  0.5225  1.3887 -0.2573
  711MOL0     H95966   6.549  11.127   7.357 -1.4069  2.0809  0.5539
  711MOL0     H95967   7.333  10.805   7.078  1.5049  0.6448  1.3460
  711MOL0     H95968   7.568  10.803   7.032  2.5924 -0.5180  2.4150
  711MOL0     H95969   7.909  10.633   7.119  1.9478 -1.8649  0.0936
  711MOL0     H95970   8.156  10.605   7.172 -0.5098  1.8708  0.2087
  711MOL0     H95971   9.450  10.647   6.387  0.9015  1.1066 -0.4417
  711MOL0     H95972   9.591  10.497   6.386 -1.6974 -0.8948 -0.1540
  711MOL0     H95973  10.073  10.378   6.455 -3.1797 -1.0359 -1.4780
  711MOL0     H95974  10.233  10.198   6.492  1.6464  0.6027  2.9953
  711MOL0     H95975  10.277  10.118   6.800  0.8809 -1.7386  1.5283
  711MOL0     H95976  10.207   9.964   6.868 -0.7110  0.1579  0.9401
  711MOL0     H95977  10.385   9.837   6.755  0.9055  0.1504 -1.4946
  711MOL0     H95978  10.453   9.971   6.867  0.3167 -0.1828 -0.1796
  711MOL0     H95979  10.480  10.106   6.652 -0.7405  0.7832 -0.9462
  711MOL0     H95980  10.420   9.965   6.561 -0.5480 -3.8859  1.3318
  711MOL0     H95981  10.611   9.826   6.649 -3.2125  0.3990 -1.3420
  711MOL0     H95982  10.657   9.968   6.755  0.2522  0.1063  0.3171
  711MOL0     H95983  10.797  10.067   6.366  0.0953  0.8090  0.8048
  711MOL0     H95984   9.968  10.006   6.770  2.3434  0.4185  1.2234
  711MOL0     H95985   9.811  10.204   6.755  1.1241 -2.8839  1.5605
  712MOL0     O95986  10.440   8.853   4.593 -0.1128  0.4444  0.2092
  712MOL0     C95987  10.400   8.970   4.607  0.5447 -0.5508  0.8681
  712MOL0     O95988  10.481   9.079   4.604 -0.7026 -0.0806  0.5685
  712MOL0     C95989  10.611   9.053   4.588  0.6566  0.8374  0.4435
  712MOL0     C95990  10.676   9.016   4.462  0.1235  0.0947 -0.9633
  712MOL0     C95991  10.815   9.018   4.454  0.1807 -0.7793 -0.2696
  712MOL0     C95992  10.901   9.044   4.565  0.5022  0.5596  0.1072
  712MOL0     O95993  11.038   9.043   4.543 -0.7915  0.6804 -0.0249
  712MOL0     C95994  11.121   9.120   4.625  0.3227 -0.3961  0.0894
  712MOL0     C95995  11.251   9.138   4.539  0.2319  0.4173  0.1304
  712MOL0     C95996  11.342   9.017   4.583 -1.8529  0.0141 -0.0868
  712MOL0     C95997  11.487   9.024   4.512 -0.9590  1.0987  0.1307
  712MOL0     C95998  11.533   8.877   4.487 -0.2842 -0.2280 -0.7332
  712MOL0     C95999  11.665   8.884   4.409  0.0479  0.6639  0.4750
  712MOL0     C96000  11.713   8.741   4.394 -0.9415  0.1124 -0.5893
  712MOL0     C96001  11.866   8.759   4.385  0.1450 -0.8597 -0.3958
  712MOL0     N96002  11.940   8.635   4.379  0.1043  0.7518 -0.1344
  712MOL0     C96003  11.913   8.551   4.280  0.0468 -0.4165 -0.5786
  712MOL0     C96004  12.000   8.451   4.306  0.2061 -0.1506 -0.7064
  712MOL0     C96005  12.031   8.330   4.230  0.3507 -0.1525 -0.1731
  712MOL0     C96006  12.088   8.371   4.096  0.0890 -0.2654 -0.5534
  712MOL0     C96007  12.080   8.254   4.010 -0.1377  0.2141  0.5213
  712MOL0     C96008  12.174   8.249   3.895 -0.2304  0.6634 -0.3794
  712MOL0     O96009  12.142   8.358   3.804 -0.5770 -0.0805  0.1585
  712MOL0     C96010  12.015   8.367   3.743 -0.2479 -0.5690  1.1392
  712MOL0     C96011  11.944   8.255   3.702 -0.4470  0.4804  0.5314
  712MOL0     C96012  11.817   8.269   3.641 -0.6403 -0.3676  0.4433
  712MOL0     C96013  11.749   8.147   3.594 -0.0899  0.3216  0.0703
  712MOL0     C96014  11.760   8.400   3.620  0.4733  0.5706  0.3548
  712MOL0     C96015  11.627   8.424   3.554 -0.3792  0.2173  0.4997
  712MOL0     O96016  11.571   8.330   3.472  0.5093  0.4585 -1.3844
  712MOL0     C96017  11.429   8.305   3.492 -0.4048  0.5443  0.8813
  712MOL0     C96018  11.341   8.320   3.387  1.2419  0.0938 -0.1193
  712MOL0     C96019  11.209   8.281   3.391 -0.1101 -0.0021  0.1581
  712MOL0     C96020  11.160   8.218   3.510 -0.1325  0.3231 -0.2301
  712MOL0     O96021  11.024   8.182   3.515  0.6682  0.1751  0.1969
  712MOL0     C96022  10.975   8.142   3.646  0.1340 -0.4189  0.4130
  712MOL0     C96023  10.834   8.107   3.655 -0.3123 -0.6736 -0.6023
  712MOL0     C96024  10.789   7.985   3.561 -0.3698 -0.4004  0.3060
  712MOL0     C96025  10.655   7.937   3.614 -0.2681  0.3055 -0.3667
  712MOL0     C96026  10.586   7.832   3.524  0.2989  0.7691 -0.0486
  712MOL0     C96027  10.538   7.909   3.397 -0.3008 -0.4971 -0.2925
  712MOL0     C96028  10.455   7.814   3.305 -0.0732  0.7291 -0.4366
  712MOL0     C96029  10.525   7.686   3.244  0.2766 -0.4476  0.5133
  712MOL0    Cl96030  10.654   7.730   3.139 -0.3993  0.0284 -0.2009
  712MOL0     C96031  11.247   8.205   3.624 -0.2383 -0.2671 -0.1655
  712MOL0     C96032  11.381   8.257   3.614 -0.0616 -0.9225 -0.1244
  712MOL0     O96033  11.578   8.533   3.572 -0.5213 -0.2888 -0.0875
  712MOL0     C96034  11.842   8.511   3.652 -0.4687  0.2587  0.5295
  712MOL0     C96035  11.961   8.494   3.711 -0.1788  1.4577 -0.0629
  712MOL0     N96036  12.069   8.485   4.417  0.2933 -0.5822 -0.3811
  712MOL0     N96037  12.024   8.588   4.473 -0.5099 -0.2340 -0.1715
  712MOL0     C96038  10.836   9.095   4.686  0.3664  1.2561  0.0395
  712MOL0     C96039  10.695   9.101   4.691 -0.2040  1.0392  0.3191
  712MOL0     C96040  10.254   8.997   4.618  1.1420  1.5627 -0.4483
  712MOL0     C96041  10.199   9.115   4.573 -0.3491  0.3185  0.0317
  712MOL0     C96042  10.060   9.142   4.590  0.7288 -0.2865 -0.0752
  712MOL0     C96043   9.976   9.057   4.664  1.4276 -0.2830  0.3607
  712MOL0     O96044   9.839   9.076   4.686 -0.2940  0.1580 -0.3454
  712MOL0     C96045   9.779   9.203   4.645  0.3754  0.7492 -0.9102
  712MOL0     C96046   9.626   9.210   4.678 -0.6885  0.3595 -0.0602
  712MOL0     C96047   9.539   9.132   4.576 -0.0469 -0.1397 -0.1928
  712MOL0     C96048   9.484   9.224   4.465  0.1581  0.5524 -0.5548
  712MOL0     C96049   9.370   9.161   4.406  0.0716  0.4742 -0.4419
  712MOL0     C96050   9.276   9.107   4.351 -0.0341 -0.0868  0.5054
  712MOL0     C96051  10.029   8.940   4.697  0.1655 -0.5471  0.1614
  712MOL0     C96052  10.165   8.911   4.691 -0.1404 -0.1202 -0.0604
  712MOL0     H96053  10.631   8.985   4.368  0.0395 -1.2415 -0.5064
  712MOL0     H96054  10.859   8.987   4.360 -1.9379  2.7731 -2.6742
  712MOL0     H96055  11.068   9.212   4.654  1.6203  0.0359  1.2266
  712MOL0     H96056  11.133   9.075   4.724  1.1765  1.9565  1.1488
  712MOL0     H96057  11.228   9.137   4.432  0.4182 -0.2797  0.0880
  712MOL0     H96058  11.291   9.238   4.556 -0.4059  0.7746 -0.4466
  712MOL0     H96059  11.368   9.015   4.689 -1.2497 -0.0758 -0.2331
  712MOL0     H96060  11.300   8.917   4.567 -1.1973 -0.1665 -0.6940
  712MOL0     H96061  11.489   9.079   4.418  0.7138 -0.5918 -0.8875
  712MOL0     H96062  11.555   9.069   4.585 -4.0004  3.0146  2.0398
  712MOL0     H96063  11.546   8.828   4.584 -1.4833 -1.2583 -1.0761
  712MOL0     H96064  11.460   8.816   4.432  2.5290 -4.2073 -0.4177
  712MOL0     H96065  11.653   8.938   4.314 -0.1503  0.6284  0.4799
  712MOL0     H96066  11.735   8.944   4.467 -1.7731  1.8383  1.5499
  712MOL0     H96067  11.704   8.686   4.488  1.5723  0.1382 -0.2612
  712MOL0     H96068  11.672   8.682   4.311  2.4410 -4.3738  0.4927
  712MOL0     H96069  11.917   8.817   4.463  1.2217 -2.9799  0.5604
  712MOL0     H96070  11.895   8.806   4.290  1.6756  1.1117  0.9706
  712MOL0     H96071  11.840   8.563   4.200  1.4845 -3.1833 -2.4958
  712MOL0     H96072  12.102   8.268   4.287  2.1506  0.0709 -2.0647
  712MOL0     H96073  11.943   8.268   4.212  1.7587 -2.1689 -0.4441
  712MOL0     H96074  12.190   8.410   4.096 -0.2448  0.7064  1.0031
  712MOL0     H96075  12.031   8.453   4.051 -0.0213 -1.1846 -2.1633
  712MOL0     H96076  11.980   8.251   3.968 -0.1041 -0.4174  0.4792
  712MOL0     H96077  12.099   8.164   4.070 -1.4989  2.0169  3.9827
  712MOL0     H96078  12.157   8.159   3.835 -2.2502 -0.2001  1.3588
  712MOL0     H96079  12.273   8.242   3.942 -0.7937 -0.8751  0.6866
  712MOL0     H96080  11.995   8.159   3.708  0.7367  0.9802 -0.9618
  712MOL0     H96081  11.717   8.167   3.491 -0.2811 -1.1784 -0.1713
  712MOL0     H96082  11.801   8.052   3.603 -1.4954 -0.3972  0.8265
  712MOL0     H96083  11.658   8.128   3.652 -0.8831  2.3989 -0.3664
  712MOL0     H96084  11.392   8.374   3.308  3.8502  1.1962  2.1064
  712MOL0     H96085  11.130   8.295   3.318 -0.4140 -1.0783  0.2611
  712MOL0     H96086  11.027   8.049   3.673 -0.3883 -0.8354  0.0055
  712MOL0     H96087  10.992   8.218   3.722 -2.7400  1.2548 -0.4608
  712MOL0     H96088  10.816   8.081   3.760 -0.3138 -1.7386 -0.8604
  712MOL0     H96089  10.781   8.201   3.639 -0.4252 -0.0713  2.5430
  712MOL0     H96090  10.860   7.901   3.560  1.8478  1.2435 -4.0912
  712MOL0     H96091  10.793   8.020   3.458 -2.5426  2.2099  1.0081
  712MOL0     H96092  10.689   7.882   3.702 -2.1270 -1.3203 -0.5926
  712MOL0     H96093  10.591   8.021   3.641 -0.7995 -0.5990  1.3678
  712MOL0     H96094  10.505   7.781   3.576 -0.6195  0.8322 -1.3779
  712MOL0     H96095  10.652   7.748   3.498 -0.1378  0.9020 -1.7152
  712MOL0     H96096  10.477   7.998   3.415  1.2141  0.6150 -0.4676
  712MOL0     H96097  10.631   7.936   3.346 -0.3886 -0.0395 -0.2124
  712MOL0     H96098  10.436   7.877   3.218  0.3757  0.2157 -0.9121
  712MOL0     H96099  10.365   7.785   3.360  0.2241 -3.4977 -1.8069
  712MOL0     H96100  10.457   7.623   3.186 -1.1255  1.2156  0.2912
  712MOL0     H96101  10.559   7.625   3.329  1.7014  3.1271  2.7345
  712MOL0     H96102  11.217   8.159   3.717 -0.8966  0.3450 -0.0680
  712MOL0     H96103  11.446   8.261   3.701 -0.0419 -1.6379 -0.1016
  712MOL0     H96104  11.804   8.610   3.629 -0.9376  0.4967  2.2169
  712MOL0     H96105  12.029   8.572   3.746  2.0809 -0.9775  1.2932
  712MOL0     H96106  10.876   9.128   4.781  1.4844 -2.8995  1.2611
  712MOL0     H96107  10.634   9.126   4.778 -2.4873 -0.6913 -0.6723
  712MOL0     H96108  10.272   9.191   4.550  1.3231 -0.0950  3.4086
  712MOL0     H96109  10.024   9.244   4.576 -2.1429 -0.7150  2.9469
  712MOL0     H96110   9.829   9.282   4.703  0.8630  0.3593 -0.7885
  712MOL0     H96111   9.800   9.222   4.539 -1.7595 -0.7697 -1.6687
  712MOL0     H96112   9.587   9.312   4.686 -3.1732 -0.4954 -0.3072
  712MOL0     H96113   9.620   9.174   4.782  0.2474 -1.7753 -0.7016
  712MOL0     H96114   9.456   9.090   4.633 -0.2449  1.0915  0.4525
  712MOL0     H96115   9.588   9.040   4.542 -3.2641 -1.0670 -2.8737
  712MOL0     H96116   9.567   9.233   4.395  2.4766 -0.1214  1.9421
  712MOL0     H96117   9.459   9.322   4.506 -2.1261 -0.2303  0.0667
  712MOL0     H96118   9.205   9.044   4.301 -1.3605  2.6665 -1.3303
  712MOL0     H96119   9.956   8.869   4.734  0.0597 -1.2012 -1.2526
  712MOL0     H96120  10.198   8.817   4.735 -1.7202 -2.2940 -3.1060
  713MOL0     O96121  10.851   3.160   1.130 -0.0753  0.4074  0.6859
  713MOL0     C96122  10.784   3.155   1.023 -0.0670  0.7513 -0.3979
  713MOL0     O96123  10.654   3.198   1.016 -0.3022  0.8830  0.3902
  713MOL0     C96124  10.607   3.248   1.135 -0.1429 -0.4763 -0.0255
  713MOL0     C96125  10.625   3.384   1.166 -0.4651  0.3717  0.2087
  713MOL0     C96126  10.585   3.445   1.282  0.5040 -0.0215  0.1018
  713MOL0     C96127  10.509   3.363   1.373  0.3760  0.4804  0.0037
  713MOL0     O96128  10.456   3.434   1.483  0.7936 -0.0527  0.4121
  713MOL0     C96129  10.443   3.375   1.612 -0.4476  0.0695 -0.9612
  713MOL0     C96130  10.308   3.406   1.689  0.2311  0.4835  0.1820
  713MOL0     C96131  10.291   3.558   1.692 -1.0412 -0.0434 -0.1958
  713MOL0     C96132  10.217   3.609   1.574  0.3655  0.2157  1.3057
  713MOL0     C96133  10.185   3.758   1.582  0.0065 -0.9349 -0.0352
  713MOL0     C96134  10.109   3.804   1.702  0.3047 -0.7321 -1.0472
  713MOL0     C96135  10.055   3.954   1.660  0.2193 -0.9396 -0.3228
  713MOL0     C96136   9.951   4.000   1.762 -0.2867  0.2924  0.5590
  713MOL0     N96137   9.864   4.110   1.709  0.1846 -0.0849  0.5171
  713MOL0     C96138   9.898   4.234   1.668 -0.0942 -0.4400  0.0321
  713MOL0     C96139   9.789   4.302   1.642 -0.1577 -0.8304  0.5168
  713MOL0     C96140   9.784   4.454   1.632  1.0902 -0.7703 -0.0834
  713MOL0     C96141   9.719   4.516   1.757  0.1316 -0.7920 -0.3897
  713MOL0     C96142   9.580   4.557   1.715  0.1604  1.0418  1.3054
  713MOL0     C96143   9.525   4.672   1.802 -0.1272 -0.9641  0.2753
  713MOL0     O96144   9.517   4.622   1.928  0.6665 -0.1714 -2.0103
  713MOL0     C96145   9.402   4.559   1.968 -0.0895  0.3601 -0.2647
  713MOL0     C96146   9.390   4.426   1.943  0.5537  0.0109  0.1533
  713MOL0     C96147   9.268   4.357   1.973  0.1226 -0.3363 -0.1764
  713MOL0     C96148   9.273   4.209   1.946  0.4064 -0.7706 -0.4735
  713MOL0     C96149   9.149   4.426   2.018 -0.5650 -0.6115 -0.3535
  713MOL0     C96150   9.022   4.364   2.035 -0.4193  0.0827 -0.4872
  713MOL0     O96151   8.955   4.377   2.156 -0.8146 -0.4155  0.4554
  713MOL0     C96152   8.835   4.316   2.174  0.6444 -1.1064 -0.2064
  713MOL0     C96153   8.822   4.239   2.289  0.9073 -0.4229  0.7690
  713MOL0     C96154   8.711   4.166   2.313 -1.0539 -0.2849  0.0711
  713MOL0     C96155   8.598   4.189   2.234 -0.9026 -0.9198 -0.0028
  713MOL0     O96156   8.489   4.114   2.258  0.7401 -0.3700 -0.8672
  713MOL0     C96157   8.370   4.184   2.320 -0.1256 -0.9627  0.1095
  713MOL0     C96158   8.248   4.130   2.249  0.3998  0.9782 -0.2490
  713MOL0     C96159   8.115   4.141   2.328  0.2967  0.2635  0.3966
  713MOL0     C96160   7.996   4.091   2.235  0.4522 -0.0536 -0.0585
  713MOL0     C96161   7.871   4.063   2.317 -0.5740 -0.0104 -0.8066
  713MOL0     C96162   7.759   4.011   2.227  0.0306  1.2226  0.1077
  713MOL0     C96163   7.621   3.971   2.301 -0.5453 -0.1417  0.6543
  713MOL0     C96164   7.550   3.846   2.237 -0.1987 -0.0717  0.3904
  713MOL0    Cl96165   7.565   3.836   2.054  0.1032 -0.0689 -0.2406
  713MOL0     C96166   8.605   4.285   2.124 -0.6933  0.9078 -0.8536
  713MOL0     C96167   8.732   4.339   2.086  1.0819  0.2084 -0.5125
  713MOL0     O96168   8.982   4.303   1.940 -0.2704 -0.4559  0.3805
  713MOL0     C96169   9.167   4.565   2.060 -0.2499  1.6620  0.2229
  713MOL0     C96170   9.296   4.625   2.036  0.7000  0.4875  0.2918
  713MOL0     N96171   9.684   4.218   1.648 -0.5492  0.7377  0.0961
  713MOL0     N96172   9.731   4.107   1.702 -0.1559 -0.0691  0.3230
  713MOL0     C96173  10.489   3.226   1.343 -0.1091 -0.1767  0.2112
  713MOL0     C96174  10.537   3.169   1.226 -0.1413 -0.9647  0.5901
  713MOL0     C96175  10.841   3.080   0.914 -0.1962 -0.0429 -0.4933
  713MOL0     C96176  10.776   3.062   0.791  0.2765  0.5610  0.3496
  713MOL0     C96177  10.825   2.978   0.686  0.1373 -0.1917  0.1374
  713MOL0     C96178  10.957   2.924   0.700 -0.0336 -0.6264 -0.2645
  713MOL0     O96179  11.005   2.847   0.598 -0.1411 -0.2378 -0.3148
  713MOL0     C96180  11.104   2.746   0.623  0.3746  0.1162 -0.1062
  713MOL0     C96181  11.144   2.676   0.491  0.2718  0.6766 -0.4300
  713MOL0     C96182  11.033   2.600   0.420 -0.7718 -0.4460  0.7731
  713MOL0     C96183  11.090   2.495   0.318  0.2789  0.8521 -0.3529
  713MOL0     C96184  11.024   2.480   0.191  0.7017 -0.3851  0.4683
  713MOL0     C96185  10.948   2.452   0.099 -0.8649 -0.2890  0.1805
  713MOL0     C96186  11.023   2.944   0.827 -0.6781 -0.4261  0.6354
  713MOL0     C96187  10.967   3.017   0.932 -0.4991 -0.7228  0.3011
  713MOL0     H96188  10.670   3.452   1.094  0.2480 -1.7831 -1.4923
  713MOL0     H96189  10.605   3.549   1.306  3.3173 -0.9111  2.0958
  713MOL0     H96190  10.452   3.267   1.595  2.2721  0.4977 -2.9932
  713MOL0     H96191  10.530   3.407   1.670 -0.4542  1.4658 -1.6782
  713MOL0     H96192  10.229   3.349   1.640 -0.6174  1.8599 -0.1263
  713MOL0     H96193  10.315   3.372   1.793 -4.7571  1.3874  1.0908
  713MOL0     H96194  10.230   3.577   1.781 -2.7006  1.9770 -1.6606
  713MOL0     H96195  10.386   3.613   1.697 -1.2249  0.1852  1.2133
  713MOL0     H96196  10.284   3.614   1.488 -2.3397  1.4243 -0.8991
  713MOL0     H96197  10.143   3.536   1.540  0.4496 -0.6352  2.8465
  713MOL0     H96198  10.283   3.806   1.586 -0.2343 -0.5254  1.7385
  713MOL0     H96199  10.135   3.789   1.490  1.1259  1.0050 -0.0465
  713MOL0     H96200  10.033   3.734   1.739 -1.8385  0.9022 -2.0831
  713MOL0     H96201  10.181   3.809   1.784  4.0306  1.0832 -4.0765
  713MOL0     H96202  10.136   4.028   1.655  0.7708 -1.4769  0.4241
  713MOL0     H96203  10.008   3.975   1.563  1.5524  0.3279 -0.7374
  713MOL0     H96204  10.013   4.027   1.848 -2.3252  2.5323  1.4180
  713MOL0     H96205   9.886   3.920   1.799 -0.5925  0.4895  0.4534
  713MOL0     H96206  10.002   4.266   1.660 -0.2866  0.1801  0.0141
  713MOL0     H96207   9.883   4.500   1.625  0.1667  1.1827 -0.8758
  713MOL0     H96208   9.744   4.487   1.536  1.8423 -0.2620 -0.2301
  713MOL0     H96209   9.787   4.595   1.789 -0.5405  0.2395 -1.4144
  713MOL0     H96210   9.706   4.448   1.841 -3.7722 -0.3975 -0.4846
  713MOL0     H96211   9.509   4.474   1.711  3.2894 -1.8105 -0.4000
  713MOL0     H96212   9.589   4.595   1.613 -2.3020  0.3959  0.7897
  713MOL0     H96213   9.434   4.722   1.769  0.2895  0.5291  1.2682
  713MOL0     H96214   9.596   4.755   1.800 -2.0103  0.8074 -3.3224
  713MOL0     H96215   9.476   4.379   1.896  0.0048 -0.0186 -0.8517
  713MOL0     H96216   9.177   4.165   1.917  1.5875 -2.4615 -2.0106
  713MOL0     H96217   9.336   4.187   1.860 -0.8042  1.8736 -2.1372
  713MOL0     H96218   9.317   4.162   2.035 -1.3980 -1.0158  0.3263
  713MOL0     H96219   8.913   4.213   2.343  1.1947  0.7890  0.8991
  713MOL0     H96220   8.716   4.090   2.390  0.8745 -0.3883 -0.0929
  713MOL0     H96221   8.359   4.154   2.425 -0.1531 -1.3682 -0.0070
  713MOL0     H96222   8.373   4.292   2.304 -2.4639 -0.9063 -0.2805
  713MOL0     H96223   8.242   4.191   2.159  1.7043 -0.2823 -1.2204
  713MOL0     H96224   8.263   4.029   2.211 -0.1046  2.7121 -5.9243
  713MOL0     H96225   8.103   4.246   2.354  0.2765  0.1604  0.8252
  713MOL0     H96226   8.122   4.087   2.423  0.5627  0.7506  0.6501
  713MOL0     H96227   7.977   4.178   2.171  1.4047 -1.4428 -2.3659
  713MOL0     H96228   8.016   4.000   2.177 -2.6516 -1.8082  1.3973
  713MOL0     H96229   7.841   4.157   2.365 -0.6693 -0.0412 -0.8052
  713MOL0     H96230   7.893   4.000   2.404 -2.6170  1.9940  1.3259
  713MOL0     H96231   7.727   4.074   2.143  0.1484  1.1466  0.0049
  713MOL0     H96232   7.801   3.926   2.172 -2.5715  0.5986 -1.0431
  713MOL0     H96233   7.560   4.061   2.314 -0.3404  0.2484 -0.8019
  713MOL0     H96234   7.655   3.940   2.400 -0.3915 -2.1695  0.0149
  713MOL0     H96235   7.446   3.848   2.270 -0.4971  2.9180 -0.3950
  713MOL0     H96236   7.581   3.754   2.287 -2.7941 -0.3080  1.7232
  713MOL0     H96237   8.523   4.303   2.055 -1.8412  0.6941  0.4078
  713MOL0     H96238   8.746   4.392   1.992 -0.4541  1.3781 -0.1312
  713MOL0     H96239   9.088   4.616   2.112  1.1155  1.8013  2.2941
  713MOL0     H96240   9.308   4.732   2.044  0.9909  0.7494 -2.7390
  713MOL0     H96241  10.430   3.161   1.407  1.3149 -0.1592  1.6009
  713MOL0     H96242  10.520   3.065   1.203  0.0781 -0.3404 -2.9934
  713MOL0     H96243  10.674   3.096   0.772  0.2994  0.2235 -0.4508
  713MOL0     H96244  10.760   2.967   0.600 -2.2500  1.2693  1.6545
  713MOL0     H96245  11.195   2.785   0.670 -0.6489 -0.5662  2.6071
  713MOL0     H96246  11.078   2.671   0.698  3.0768 -0.0130  0.8264
  713MOL0     H96247  11.224   2.606   0.518 -1.1473 -0.4865  0.9733
  713MOL0     H96248  11.182   2.745   0.415 -0.5966 -0.1374 -1.6389
  713MOL0     H96249  10.961   2.664   0.368 -0.5984 -1.3562 -0.6396
  713MOL0     H96250  10.971   2.563   0.502 -1.0316 -1.5887  0.0761
  713MOL0     H96251  11.074   2.398   0.365 -3.5439  0.4269 -2.1190
  713MOL0     H96252  11.198   2.498   0.301  0.4135 -3.0661 -0.9856
  713MOL0     H96253  10.872   2.428   0.027  0.2215 -0.0762 -1.0787
  713MOL0     H96254  11.120   2.907   0.857 -0.5367 -0.4211  0.1991
  713MOL0     H96255  11.013   3.024   1.030  0.6915 -1.1505 -0.2147
  714MOL0     O96256   0.309  10.349   5.704 -0.3633 -0.1662 -0.1360
  714MOL0     C96257   0.408  10.377   5.775 -1.0917 -0.9958  1.1509
  714MOL0     O96258   0.408  10.448   5.893  0.2621  0.8461 -0.5251
  714MOL0     C96259   0.297  10.484   5.960 -0.6627  0.8549  1.0089
  714MOL0     C96260   0.160  10.480   5.927  0.3491 -0.3743  0.2485
  714MOL0     C96261   0.072  10.539   6.016  0.3757  0.0574 -0.4012
  714MOL0     C96262   0.113  10.609   6.133  1.0938  0.1507 -0.7928
  714MOL0     O96263   0.025  10.674   6.215  0.3048 -0.2956 -0.2804
  714MOL0     C96264   0.006  10.815   6.172  0.8503  0.0859 -0.5325
  714MOL0     C96265  -0.122  10.885   6.240 -0.7779 -0.2494 -0.2561
  714MOL0     C96266  -0.256  10.815   6.219 -0.1788  1.2068 -0.3426
  714MOL0     C96267  -0.374  10.903   6.206  0.6946 -0.3181  0.3674
  714MOL0     C96268  -0.503  10.834   6.191  0.0526 -0.2112  0.7635
  714MOL0     C96269  -0.625  10.929   6.202 -0.3678  0.5415 -0.7787
  714MOL0     C96270  -0.757  10.860   6.228 -0.2824  0.6811  0.1381
  714MOL0     C96271  -0.766  10.829   6.379 -0.8614 -0.2132 -0.9382
  714MOL0     N96272  -0.879  10.739   6.405 -0.4035 -0.4352  0.2225
  714MOL0     C96273  -0.993  10.783   6.469 -0.9813 -0.7676  0.6161
  714MOL0     C96274  -1.087  10.678   6.467  0.2103 -0.1321  0.5641
  714MOL0     C96275  -1.233  10.679   6.517  0.6698 -0.0488  0.2923
  714MOL0     C96276  -1.321  10.773   6.434  0.6394 -0.0011  0.8197
  714MOL0     C96277  -1.321  10.733   6.282  0.2959  0.1988 -0.3802
  714MOL0     C96278  -1.441  10.786   6.201  0.1097 -0.3045 -0.0279
  714MOL0     O96279  -1.426  10.924   6.161  0.3610 -0.0031 -0.3727
  714MOL0     C96280  -1.516  11.018   6.202  0.4272 -0.0109  0.2672
  714MOL0     C96281  -1.458  11.136   6.256 -0.1349  0.5850  0.3831
  714MOL0     C96282  -1.544  11.228   6.324  0.6284  0.0742 -0.1155
  714MOL0     C96283  -1.476  11.357   6.386 -0.4719  0.0197  0.3137
  714MOL0     C96284  -1.680  11.206   6.330  0.7076  0.0785  0.0720
  714MOL0     C96285  -1.785  11.306   6.380  1.3728  0.1296  0.2348
  714MOL0     O96286  -1.915  11.278   6.358 -0.5489  0.0755  0.3939
  714MOL0     C96287  -2.009  11.362   6.402  0.8924 -0.0698  0.1209
  714MOL0     C96288  -2.067  11.344   6.528 -0.3247  0.7704  0.1448
  714MOL0     C96289  -2.139  11.449   6.577  0.2532  0.0623 -0.0796
  714MOL0     C96290  -2.171  11.558   6.498 -0.0502 -0.1473  0.7781
  714MOL0     O96291  -2.245  11.661   6.564  0.3015  0.2594  0.4025
  714MOL0     C96292  -2.318  11.763   6.487 -0.9023 -0.0131  0.7210
  714MOL0     C96293  -2.436  11.805   6.565  0.2125 -0.2030 -0.4217
  714MOL0     C96294  -2.543  11.704   6.591 -0.5816  0.0864  0.4808
  714MOL0     C96295  -2.606  11.656   6.460 -0.6602 -0.0433  0.5536
  714MOL0     C96296  -2.718  11.550   6.480  0.1531 -1.0861 -0.1685
  714MOL0     C96297  -2.852  11.602   6.533  0.3730  0.2953  0.4999
  714MOL0     C96298  -2.918  11.703   6.435  0.2323  0.0773  0.0306
  714MOL0     C96299  -3.010  11.794   6.520  0.5620  0.3705  0.1821
  714MOL0    Cl96300  -2.907  11.916   6.608  0.1709 -0.5950 -0.2353
  714MOL0     C96301  -2.119  11.568   6.368  0.2670 -0.6966  0.2788
  714MOL0     C96302  -2.036  11.471   6.326 -0.5537  0.8072 -0.5540
  714MOL0     O96303  -1.742  11.404   6.441 -0.8969  0.4443  0.1548
  714MOL0     C96304  -1.731  11.081   6.269 -0.6830 -0.3210 -0.7111
  714MOL0     C96305  -1.652  10.994   6.199  1.0560  0.8916 -0.0917
  714MOL0     N96306  -1.032  10.579   6.385  0.2476  0.1601  0.1163
  714MOL0     N96307  -0.917  10.620   6.341 -0.4580 -0.5825  0.1058
  714MOL0     C96308   0.244  10.620   6.154  0.6961 -0.2379 -0.8752
  714MOL0     C96309   0.341  10.554   6.078  0.8071 -0.7709  0.0551
  714MOL0     C96310   0.541  10.339   5.724  1.4126 -0.2616  0.8181
  714MOL0     C96311   0.568  10.290   5.591 -0.4868 -1.0039 -0.0630
  714MOL0     C96312   0.703  10.257   5.554  0.8364 -0.0575  0.2230
  714MOL0     C96313   0.806  10.282   5.639 -0.7982 -0.0725  0.9679
  714MOL0     O96314   0.935  10.256   5.595  1.0991 -0.5840  0.3255
  714MOL0     C96315   0.961  10.136   5.515 -0.6114  0.0936  0.0183
  714MOL0     C96316   1.088  10.061   5.543 -0.1467  0.9070 -0.4850
  714MOL0     C96317   1.212  10.141   5.511  0.2298  0.4321  0.0797
  714MOL0     C96318   1.330  10.053   5.553  0.0050 -0.0802 -0.1417
  714MOL0     C96319   1.452  10.098   5.489 -0.5172 -0.0588 -0.5837
  714MOL0     C96320   1.548  10.138   5.429  0.3083  0.9379  0.5281
  714MOL0     C96321   0.787  10.333   5.760 -0.1902 -0.2452  0.5910
  714MOL0     C96322   0.653  10.366   5.802 -0.9127  0.9227 -0.0922
  714MOL0     H96323   0.136  10.442   5.829  3.0511  0.2799 -0.7742
  714MOL0     H96324  -0.035  10.530   5.999 -0.4604  0.2573  3.6712
  714MOL0     H96325   0.093  10.873   6.206 -1.3080  1.6749  2.8110
  714MOL0     H96326   0.003  10.822   6.063  0.2995 -0.5792 -0.5667
  714MOL0     H96327  -0.102  10.888   6.348  1.9066  0.1451 -0.6952
  714MOL0     H96328  -0.131  10.985   6.196  1.2000  0.4240  0.7442
  714MOL0     H96329  -0.236  10.761   6.127  1.7573 -0.1754  0.8029
  714MOL0     H96330  -0.271  10.750   6.306 -1.8558  1.4824 -0.4100
  714MOL0     H96331  -0.383  10.970   6.292 -2.2071 -1.4829  1.0888
  714MOL0     H96332  -0.365  10.969   6.119  3.8284 -1.4402 -0.2968
  714MOL0     H96333  -0.500  10.777   6.098  0.0073 -1.5773  1.5667
  714MOL0     H96334  -0.505  10.759   6.271 -1.9219 -0.9122  0.1176
  714MOL0     H96335  -0.606  10.989   6.292 -0.4263 -0.6795  0.0809
  714MOL0     H96336  -0.640  10.993   6.116 -0.6295  1.0898 -0.3320
  714MOL0     H96337  -0.845  10.920   6.202 -0.2935  1.6246  2.1940
  714MOL0     H96338  -0.755  10.765   6.174 -1.6367  0.6305  0.1237
  714MOL0     H96339  -0.774  10.922   6.436 -3.6519  0.2166 -1.8555
  714MOL0     H96340  -0.682  10.770   6.417  0.8518  2.8157  0.3313
  714MOL0     H96341  -1.006  10.879   6.519 -2.1944 -2.1957  3.2668
  714MOL0     H96342  -1.285  10.583   6.508 -2.6655  1.4762  1.3845
  714MOL0     H96343  -1.246  10.714   6.620  0.2212  1.4748 -0.2471
  714MOL0     H96344  -1.293  10.878   6.450  1.2687  0.0414 -0.4098
  714MOL0     H96345  -1.420  10.767   6.480 -0.0768 -2.2171 -0.8369
  714MOL0     H96346  -1.313  10.624   6.287 -1.2410  0.0568 -0.4469
  714MOL0     H96347  -1.227  10.769   6.241  0.6247  0.6414  0.7616
  714MOL0     H96348  -1.533  10.757   6.253  1.0457 -1.7936  0.8876
  714MOL0     H96349  -1.447  10.732   6.106 -2.1074 -1.9084  0.9365
  714MOL0     H96350  -1.351  11.150   6.246  0.2601 -2.8138 -1.6979
  714MOL0     H96351  -1.502  11.456   6.348 -0.2637 -0.2561 -0.5580
  714MOL0     H96352  -1.493  11.360   6.494  4.2106 -0.4602  1.2635
  714MOL0     H96353  -1.369  11.344   6.368 -0.3945  0.1693  0.6501
  714MOL0     H96354  -2.058  11.248   6.579  0.7610  1.6700  1.7190
  714MOL0     H96355  -2.183  11.456   6.676  1.8183  0.3290  0.6275
  714MOL0     H96356  -2.248  11.846   6.475 -0.9537  0.1098  1.2529
  714MOL0     H96357  -2.344  11.729   6.386  2.4631  0.0252 -0.2485
  714MOL0     H96358  -2.411  11.832   6.668  1.0456 -1.4666 -0.2576
  714MOL0     H96359  -2.476  11.891   6.511  1.9625  0.7668 -0.2600
  714MOL0     H96360  -2.623  11.756   6.644 -2.0491  0.9400 -2.3834
  714MOL0     H96361  -2.517  11.627   6.665  1.9934  1.7344  1.4597
  714MOL0     H96362  -2.641  11.743   6.404 -0.7958  0.3383  1.2246
  714MOL0     H96363  -2.528  11.607   6.401 -1.3351  0.5809 -0.9337
  714MOL0     H96364  -2.682  11.469   6.544  1.3636  0.0156  0.5818
  714MOL0     H96365  -2.739  11.498   6.385 -1.9047  0.6768 -0.7707
  714MOL0     H96366  -2.915  11.515   6.551 -4.9140  3.5907  0.2841
  714MOL0     H96367  -2.817  11.643   6.628  4.1800 -1.5402  0.0605
  714MOL0     H96368  -2.970  11.637   6.364  3.4060  0.1337 -2.5926
  714MOL0     H96369  -2.847  11.765   6.379  0.3272  1.4045  1.5430
  714MOL0     H96370  -3.067  11.734   6.592  1.9090 -0.1858  0.8045
  714MOL0     H96371  -3.080  11.845   6.453  1.7872  4.0629  1.4274
  714MOL0     H96372  -2.140  11.658   6.310 -0.7872 -0.5146  0.9358
  714MOL0     H96373  -1.973  11.476   6.238 -0.3204  0.1238 -0.4366
  714MOL0     H96374  -1.839  11.069   6.269 -0.7657  0.1190  1.0718
  714MOL0     H96375  -1.692  10.901   6.160  0.4520  0.0535  2.3085
  714MOL0     H96376   0.302  10.684   6.219 -0.1765 -0.5071  0.1904
  714MOL0     H96377   0.448  10.548   6.096  0.9504  0.5359 -0.2179
  714MOL0     H96378   0.495  10.288   5.511  0.4951  2.0107 -1.1847
  714MOL0     H96379   0.726  10.236   5.450  2.2822 -1.1987  0.7378
  714MOL0     H96380   0.887  10.059   5.537  0.2177 -0.7275  0.0205
  714MOL0     H96381   0.959  10.153   5.407 -0.2828 -3.2050 -0.5992
  714MOL0     H96382   1.095   9.969   5.484  0.7048  2.8365 -3.5810
  714MOL0     H96383   1.085  10.030   5.648  2.1504 -0.6615 -0.7951
  714MOL0     H96384   1.212  10.236   5.565 -0.7034 -0.7691  2.2987
  714MOL0     H96385   1.214  10.168   5.405 -1.3021 -0.2979 -0.1739
  714MOL0     H96386   1.313   9.948   5.526  0.8523  0.1759 -1.8149
  714MOL0     H96387   1.339  10.060   5.662  1.4601 -0.4570 -0.2221
  714MOL0     H96388   1.635  10.165   5.373 -0.1803  0.3987 -0.5207
  714MOL0     H96389   0.872  10.377   5.810 -1.3130  0.3916  1.9946
  714MOL0     H96390   0.649  10.415   5.899 -3.5189  1.7518 -0.5626
  715MOL0     O96391  10.456  11.176   6.412 -0.1615  0.0902  0.3802
  715MOL0     C96392  10.507  11.214   6.517  0.0982  0.4257 -0.4430
  715MOL0     O96393  10.460  11.181   6.649  0.2328  0.3916 -0.8329
  715MOL0     C96394  10.334  11.135   6.668  0.3773 -0.5689 -0.4672
  715MOL0     C96395  10.215  11.193   6.627 -0.5952 -0.1055 -0.8738
  715MOL0     C96396  10.093  11.140   6.653 -0.2838  0.3176 -0.0070
  715MOL0     C96397  10.084  11.018   6.727  1.0803  0.2494 -0.3330
  715MOL0     O96398   9.974  10.936   6.739  0.2508 -0.6184 -0.4489
  715MOL0     C96399   9.870  10.949   6.633 -0.4558 -0.4220 -0.3909
  715MOL0     C96400   9.755  11.036   6.688 -0.2087  0.3946 -0.1579
  715MOL0     C96401   9.671  10.971   6.797 -0.7934  0.1158 -0.4207
  715MOL0     C96402   9.582  11.067   6.858  0.9896 -0.5062 -0.3816
  715MOL0     C96403   9.518  10.994   6.981  0.8638  0.2829 -0.2931
  715MOL0     C96404   9.405  11.076   7.053 -0.0055 -0.3983 -0.2414
  715MOL0     C96405   9.304  10.972   7.116 -0.3780 -0.4460  0.7417
  715MOL0     C96406   9.248  11.028   7.247  0.0114  0.0051  0.1881
  715MOL0     N96407   9.163  10.916   7.303 -0.1033 -0.4198  0.5065
  715MOL0     C96408   9.049  10.868   7.250  0.0957 -0.0555  0.4034
  715MOL0     C96409   9.026  10.745   7.305  0.2772  0.3101  0.4781
  715MOL0     C96410   8.904  10.665   7.271  0.0637  1.2329  0.2668
  715MOL0     C96411   8.785  10.695   7.358  0.1215 -0.7606  0.7154
  715MOL0     C96412   8.793  10.657   7.507 -0.1468 -0.0108 -0.0538
  715MOL0     C96413   8.664  10.702   7.578 -0.6387  0.1009  0.8975
  715MOL0     O96414   8.555  10.626   7.525 -0.0993 -0.2140  0.1181
  715MOL0     C96415   8.432  10.684   7.549 -0.1544 -0.6244 -0.1464
  715MOL0     C96416   8.378  10.734   7.664  0.4038 -0.2502 -0.0285
  715MOL0     C96417   8.247  10.784   7.670  0.0935 -1.5516 -0.3263
  715MOL0     C96418   8.199  10.850   7.798  0.7280  0.1667 -0.0819
  715MOL0     C96419   8.162  10.781   7.546 -0.5270  0.1239  0.0428
  715MOL0     C96420   8.025  10.843   7.532 -0.8803 -0.4606  0.3187
  715MOL0     O96421   7.948  10.800   7.425  0.3896  0.2842 -0.0095
  715MOL0     C96422   7.815  10.836   7.418  0.1101 -0.2468  0.2255
  715MOL0     C96423   7.768  10.974   7.447  0.1655  0.6908  0.2884
  715MOL0     C96424   7.631  10.994   7.444  0.0063 -0.2168  0.6605
  715MOL0     C96425   7.543  10.899   7.397  0.0407 -0.1702  0.0304
  715MOL0     O96426   7.409  10.918   7.389  0.0484  0.7157  0.0582
  715MOL0     C96427   7.357  11.050   7.386 -0.0468 -0.2162  0.5149
  715MOL0     C96428   7.208  11.045   7.358  0.8520 -0.5628 -0.0426
  715MOL0     C96429   7.127  11.172   7.400 -0.1541  0.6900 -0.1942
  715MOL0     C96430   7.128  11.207   7.545  0.5491 -0.1121 -0.1595
  715MOL0     C96431   7.025  11.318   7.567 -0.3165 -0.8442 -0.0364
  715MOL0     C96432   7.068  11.415   7.673  0.0024 -0.5146 -0.0286
  715MOL0     C96433   6.970  11.542   7.673 -0.6474 -0.1720  0.4002
  715MOL0     C96434   6.984  11.638   7.796 -0.1647 -0.3217 -0.1932
  715MOL0    Cl96435   6.918  11.571   7.960 -0.4452  0.9284  0.4423
  715MOL0     C96436   7.590  10.777   7.360 -0.2308 -0.1943  0.4123
  715MOL0     C96437   7.724  10.742   7.373 -0.2057  1.0692 -0.5546
  715MOL0     O96438   7.995  10.922   7.618 -0.1603  0.8080  0.3564
  715MOL0     C96439   8.224  10.730   7.432  0.1275 -1.3865  0.3344
  715MOL0     C96440   8.359  10.689   7.436 -0.4062 -0.1155  0.1247
  715MOL0     N96441   9.127  10.730   7.399 -0.4340 -0.0993  0.1218
  715MOL0     N96442   9.209  10.830   7.383  1.0746  1.3532  0.2107
  715MOL0     C96443  10.202  10.968   6.781 -0.6503  0.4984  0.2991
  715MOL0     C96444  10.330  11.021   6.752 -0.6897  0.3015  0.8920
  715MOL0     C96445  10.643  11.267   6.506 -1.1911 -0.2338 -0.6478
  715MOL0     C96446  10.724  11.315   6.626 -0.3090  0.4357  0.5422
  715MOL0     C96447  10.848  11.377   6.599  0.4165  0.1974  0.7436
  715MOL0     C96448  10.897  11.390   6.467 -0.2290 -0.3872 -0.2408
  715MOL0     O96449  11.007  11.452   6.434  0.2251  0.0876  0.7902
  715MOL0     C96450  11.048  11.566   6.512  0.2628  0.6927 -0.5059
  715MOL0     C96451  11.164  11.620   6.436 -0.3669  1.1125 -0.6275
  715MOL0     C96452  11.289  11.527   6.442 -0.1833 -0.3601 -0.1207
  715MOL0     C96453  11.416  11.594   6.395 -0.0309  0.1844  0.5533
  715MOL0     C96454  11.405  11.645   6.259 -0.4074 -0.0477  0.4806
  715MOL0     C96455  11.378  11.668   6.142  0.6230  0.7796 -0.2194
  715MOL0     C96456  10.824  11.341   6.362  0.4682  0.3707  1.0374
  715MOL0     C96457  10.706  11.270   6.380 -0.8138 -0.1965 -0.3184
  715MOL0     H96458  10.226  11.290   6.580  0.4438  0.7096  0.9609
  715MOL0     H96459  10.000  11.191   6.631  0.2851  2.2075  1.5919
  715MOL0     H96460   9.905  10.998   6.542  0.2930 -2.0274 -0.9975
  715MOL0     H96461   9.839  10.846   6.614  0.2806 -0.8144  0.4244
  715MOL0     H96462   9.793  11.131   6.728 -1.8582  0.4282  1.4261
  715MOL0     H96463   9.675  11.059   6.616 -2.3128 -1.5841  1.4153
  715MOL0     H96464   9.618  10.880   6.766  1.3093 -0.7257 -1.7608
  715MOL0     H96465   9.751  10.946   6.867 -1.3440 -2.0522 -0.4990
  715MOL0     H96466   9.639  11.156   6.884  1.6343 -0.3655 -2.1090
  715MOL0     H96467   9.507  11.094   6.783  2.3919  1.1320 -1.2663
  715MOL0     H96468   9.474  10.903   6.940  0.6530  1.2244 -2.2580
  715MOL0     H96469   9.601  10.965   7.046  1.8852 -0.4883 -1.8922
  715MOL0     H96470   9.447  11.147   7.124  1.2049  1.4059 -2.6130
  715MOL0     H96471   9.357  11.142   6.981  0.7056 -2.5567 -2.8714
  715MOL0     H96472   9.215  10.957   7.054  0.0627 -1.0085  0.2211
  715MOL0     H96473   9.349  10.872   7.114 -0.3457 -0.4630 -2.0402
  715MOL0     H96474   9.190  11.121   7.245  0.2782  0.1634 -0.4192
  715MOL0     H96475   9.334  11.048   7.311 -0.7516 -1.2689  1.6862
  715MOL0     H96476   8.982  10.909   7.176 -1.5458  1.7659  2.7254
  715MOL0     H96477   8.882  10.685   7.166  1.0892  4.2139  0.5384
  715MOL0     H96478   8.923  10.558   7.284 -2.2375  0.8363  0.8459
  715MOL0     H96479   8.699  10.641   7.319  0.8266  1.0977 -4.0122
  715MOL0     H96480   8.774  10.803   7.343  0.3678 -0.7751  0.4083
  715MOL0     H96481   8.877  10.707   7.555 -1.4607  2.8123 -0.4985
  715MOL0     H96482   8.807  10.550   7.525 -1.4142 -0.3828 -1.0974
  715MOL0     H96483   8.659  10.809   7.554 -2.2239 -0.0256  0.5551
  715MOL0     H96484   8.676  10.691   7.686  0.0012  2.6706  1.1687
  715MOL0     H96485   8.444  10.742   7.750  0.1973 -1.6288  0.2779
  715MOL0     H96486   8.206  10.959   7.792 -0.6959  0.3006  0.4641
  715MOL0     H96487   8.100  10.809   7.820  0.4732  0.9606  0.2501
  715MOL0     H96488   8.252  10.813   7.887  1.2436 -2.8844 -1.4958
  715MOL0     H96489   7.835  11.053   7.481 -1.3673  1.6178  1.3160
  715MOL0     H96490   7.588  11.090   7.469 -1.6949 -0.3680 -1.3864
  715MOL0     H96491   7.372  11.113   7.474 -4.4395  3.1718 -0.7641
  715MOL0     H96492   7.400  11.109   7.304 -1.1731  0.9554  0.7243
  715MOL0     H96493   7.189  11.017   7.254 -0.7267 -2.2625  0.6542
  715MOL0     H96494   7.162  10.961   7.411 -3.2306  0.7154 -1.2251
  715MOL0     H96495   7.024  11.154   7.369 -0.4315  1.4188  0.2761
  715MOL0     H96496   7.170  11.256   7.346  1.2680  0.5294  0.6452
  715MOL0     H96497   7.098  11.120   7.603  2.7482 -0.1068  1.1042
  715MOL0     H96498   7.226  11.241   7.579  0.2781  0.5392 -0.0015
  715MOL0     H96499   6.923  11.281   7.580 -0.5673 -0.0618  0.2609
  715MOL0     H96500   7.022  11.374   7.473  0.5369 -0.2460  0.2721
  715MOL0     H96501   7.054  11.358   7.765  0.5364 -0.8931 -0.1786
  715MOL0     H96502   7.172  11.446   7.662 -0.5988  1.0719 -1.9884
  715MOL0     H96503   6.865  11.514   7.660 -0.3029 -1.5652  0.4546
  715MOL0     H96504   6.995  11.594   7.580 -0.8030 -2.4870 -1.0077
  715MOL0     H96505   6.929  11.732   7.787  1.6463  0.9247  1.1025
  715MOL0     H96506   7.088  11.669   7.810 -0.5618  0.5546  1.0282
  715MOL0     H96507   7.517  10.705   7.327 -3.4462  2.7486  0.5137
  715MOL0     H96508   7.750  10.643   7.339  0.3216  2.1003 -3.4697
  715MOL0     H96509   8.164  10.744   7.343 -1.2290  3.8994  1.7250
  715MOL0     H96510   8.398  10.650   7.343 -0.1501 -2.2476  1.0599
  715MOL0     H96511  10.198  10.874   6.836  2.5856 -0.2655 -0.5117
  715MOL0     H96512  10.417  10.978   6.800 -1.5683 -1.9357  0.6422
  715MOL0     H96513  10.668  11.303   6.718 -2.1645 -0.8436 -0.6715
  715MOL0     H96514  10.924  11.394   6.674 -0.5624 -1.3553  2.1559
  715MOL0     H96515  10.965  11.638   6.513 -1.2522 -0.9646 -1.2270
  715MOL0     H96516  11.068  11.538   6.616 -1.7472 -0.5948 -0.3986
  715MOL0     H96517  11.195  11.715   6.482  4.1593 -1.3610  2.2233
  715MOL0     H96518  11.141  11.637   6.331 -1.9006  2.9795 -0.0440
  715MOL0     H96519  11.273  11.429   6.397 -0.0728  0.3645 -1.8125
  715MOL0     H96520  11.302  11.501   6.548 -0.0677 -1.0844 -0.3054
  715MOL0     H96521  11.500  11.523   6.395  1.2348  1.5895 -1.3355
  715MOL0     H96522  11.434  11.669   6.472  1.8811 -0.0363  0.3603
  715MOL0     H96523  11.352  11.674   6.038 -1.3990 -1.2558  0.1045
  715MOL0     H96524  10.872  11.355   6.266 -0.9280 -1.8089 -0.0657
  715MOL0     H96525  10.651  11.220   6.301 -2.5754 -0.1413  0.8207
  716MOL0     O96526   4.371   5.638   6.764  0.1136  0.1780 -0.4048
  716MOL0     C96527   4.280   5.721   6.746 -0.9834 -0.5368 -0.2762
  716MOL0     O96528   4.301   5.843   6.693 -0.4315 -0.5534  0.6755
  716MOL0     C96529   4.419   5.858   6.625  0.4755  0.0023 -1.0105
  716MOL0     C96530   4.423   5.840   6.495 -0.8986  0.3166  0.1046
  716MOL0     C96531   4.535   5.884   6.415  0.5621  0.4123  0.1933
  716MOL0     C96532   4.646   5.940   6.479  0.2732 -0.8362  0.5655
  716MOL0     O96533   4.745   5.980   6.392 -0.1592 -0.9697 -0.1582
  716MOL0     C96534   4.868   5.949   6.437 -1.0945 -0.1060  0.1358
  716MOL0     C96535   4.890   5.801   6.466  0.8971 -0.4627 -0.7861
  716MOL0     C96536   5.029   5.779   6.547  0.6168  0.6369 -0.3344
  716MOL0     C96537   5.036   5.854   6.682  1.0017 -0.4067  0.6672
  716MOL0     C96538   5.156   5.795   6.749 -0.1602 -0.2146  1.1799
  716MOL0     C96539   5.198   5.883   6.876 -0.1098  0.2030  0.6443
  716MOL0     C96540   5.272   5.799   6.977  0.7361  0.6470  0.3162
  716MOL0     C96541   5.410   5.742   6.917 -0.3204  0.4159 -0.3538
  716MOL0     N96542   5.497   5.838   6.849  0.2573  0.3493 -0.1243
  716MOL0     C96543   5.593   5.925   6.896  0.7404 -0.1080 -1.0396
  716MOL0     C96544   5.644   5.983   6.787 -0.3297  0.0478  0.2980
  716MOL0     C96545   5.762   6.086   6.777 -0.5952 -0.1406 -0.2845
  716MOL0     C96546   5.869   6.055   6.883 -0.2817  0.4548 -0.0188
  716MOL0     C96547   5.967   6.166   6.903  0.6997  0.0810 -0.2760
  716MOL0     C96548   6.100   6.110   6.973  0.1143 -0.2954  0.0993
  716MOL0     O96549   6.092   6.083   7.121 -0.0707  0.0392  0.2892
  716MOL0     C96550   6.206   6.050   7.174 -1.0206 -0.3146 -0.8724
  716MOL0     C96551   6.335   6.038   7.118  0.4779 -0.6454 -0.2056
  716MOL0     C96552   6.445   5.988   7.189 -0.1613 -0.0826  1.4292
  716MOL0     C96553   6.578   5.980   7.122 -0.3185  0.1245 -0.1377
  716MOL0     C96554   6.440   5.971   7.328  0.0511  0.8019  0.8128
  716MOL0     C96555   6.558   5.933   7.406  0.2692 -0.3502 -0.1425
  716MOL0     O96556   6.569   5.977   7.536  0.1351 -0.1325  1.3832
  716MOL0     C96557   6.677   5.963   7.618 -0.8250 -1.5187  0.5311
  716MOL0     C96558   6.760   5.852   7.618  0.5500  0.2566  0.0254
  716MOL0     C96559   6.883   5.866   7.692  0.1904  0.1694 -0.2140
  716MOL0     C96560   6.932   5.979   7.764  0.9087  0.0070  0.5398
  716MOL0     O96561   7.049   6.003   7.823  0.0037 -1.1674 -0.5916
  716MOL0     C96562   7.120   5.885   7.857  1.4799  0.8260 -0.3158
  716MOL0     C96563   7.255   5.909   7.940 -0.0872  0.0115 -0.1657
  716MOL0     C96564   7.222   5.934   8.095  0.3288 -0.5258 -0.7078
  716MOL0     C96565   7.345   5.983   8.178  0.1440  0.5052 -0.1684
  716MOL0     C96566   7.461   5.873   8.188  0.0654 -0.4530  0.0011
  716MOL0     C96567   7.417   5.732   8.219  0.4865  0.6380  0.2958
  716MOL0     C96568   7.527   5.643   8.178  0.4842  0.1138 -0.5331
  716MOL0     C96569   7.511   5.509   8.259 -0.0256 -0.4467 -0.1381
  716MOL0    Cl96570   7.345   5.440   8.219  0.4775  0.0809  0.3495
  716MOL0     C96571   6.839   6.079   7.769 -1.0801  0.0325 -1.1546
  716MOL0     C96572   6.715   6.075   7.693  0.6556 -0.5806  0.3479
  716MOL0     O96573   6.640   5.859   7.358 -0.2153 -0.3470 -0.3720
  716MOL0     C96574   6.320   5.995   7.393 -0.2257 -1.5547  0.3404
  716MOL0     C96575   6.205   6.038   7.316 -0.0086  0.9742 -0.6319
  716MOL0     N96576   5.592   5.931   6.671  0.7156  0.0910 -0.8604
  716MOL0     N96577   5.506   5.843   6.712 -0.1695 -0.0247  1.0167
  716MOL0     C96578   4.635   5.969   6.619  0.3105  1.1872  0.4960
  716MOL0     C96579   4.524   5.918   6.692 -1.3913  0.4725 -0.4265
  716MOL0     C96580   4.142   5.673   6.761  0.1530 -0.1388  0.5067
  716MOL0     C96581   4.038   5.755   6.721  0.9150 -0.9399 -0.2183
  716MOL0     C96582   3.909   5.703   6.734 -1.1563 -0.0197  0.8454
  716MOL0     C96583   3.887   5.575   6.779 -0.2895 -0.4542 -1.1115
  716MOL0     O96584   3.757   5.524   6.798 -0.1059 -0.1552  0.4704
  716MOL0     C96585   3.671   5.512   6.676  0.8599  0.2594  0.0986
  716MOL0     C96586   3.549   5.595   6.701  0.2457 -0.8255 -0.6316
  716MOL0     C96587   3.434   5.543   6.608 -0.5568 -1.2668 -1.2182
  716MOL0     C96588   3.294   5.613   6.628 -0.0085 -0.1486 -0.1896
  716MOL0     C96589   3.235   5.635   6.493 -0.6487  0.9668  0.3512
  716MOL0     C96590   3.203   5.646   6.381 -0.4544 -0.4261 -0.5768
  716MOL0     C96591   3.995   5.501   6.815 -1.2119  0.8918 -0.0025
  716MOL0     C96592   4.122   5.551   6.818  0.5108 -0.4146  0.2933
  716MOL0     H96593   4.336   5.791   6.452 -1.3378  1.2596 -0.0876
  716MOL0     H96594   4.524   5.866   6.309 -1.0453  0.3103  0.3583
  716MOL0     H96595   4.938   5.985   6.362 -0.4961 -0.3882  0.5565
  716MOL0     H96596   4.888   6.013   6.524 -3.5105  0.7179  0.1624
  716MOL0     H96597   4.808   5.761   6.526  0.5705  0.0987 -0.8571
  716MOL0     H96598   4.887   5.749   6.370 -1.8598 -0.8204 -0.5795
  716MOL0     H96599   5.040   5.673   6.572  1.1070  0.5986 -0.6999
  716MOL0     H96600   5.111   5.806   6.480  0.6950  0.9248 -0.1202
  716MOL0     H96601   5.029   5.961   6.700  0.3050 -0.4746  0.8535
  716MOL0     H96602   4.948   5.827   6.742 -1.9445  1.3789 -2.5364
  716MOL0     H96603   5.142   5.691   6.780  0.7992 -1.7937 -3.0746
  716MOL0     H96604   5.235   5.783   6.674  0.4430  0.0676  1.7590
  716MOL0     H96605   5.269   5.958   6.840  3.2536 -3.0946 -0.1823
  716MOL0     H96606   5.109   5.929   6.921 -1.1327  0.5404 -1.5855
  716MOL0     H96607   5.298   5.863   7.062 -1.6341 -0.5021  2.0159
  716MOL0     H96608   5.217   5.712   7.015  1.9752  0.2109  1.1941
  716MOL0     H96609   5.394   5.657   6.850  0.2031  0.2692 -0.3006
  716MOL0     H96610   5.476   5.710   6.998  0.0133  1.6526 -0.1040
  716MOL0     H96611   5.618   5.943   7.000 -0.4312  4.9883 -1.4149
  716MOL0     H96612   5.805   6.079   6.676  1.4169 -0.2485  0.5420
  716MOL0     H96613   5.731   6.187   6.805 -0.9574 -0.5923  0.9820
  716MOL0     H96614   5.917   5.970   6.834 -2.3167 -0.9675  0.3172
  716MOL0     H96615   5.818   6.034   6.978  1.0548 -2.1686  0.2156
  716MOL0     H96616   5.920   6.252   6.953 -2.2019 -2.7672  2.3831
  716MOL0     H96617   5.992   6.198   6.801  0.2287 -4.0511 -1.8587
  716MOL0     H96618   6.178   6.185   6.958  1.8739 -2.0244  0.2390
  716MOL0     H96619   6.134   6.021   6.919 -2.6304 -0.8329 -0.9175
  716MOL0     H96620   6.342   6.059   7.012 -3.4854  0.8413 -0.3391
  716MOL0     H96621   6.604   5.875   7.106 -1.8355 -0.5626  1.4982
  716MOL0     H96622   6.571   6.037   7.029  1.8904  1.0519  0.2103
  716MOL0     H96623   6.655   6.024   7.186 -2.2728 -0.1747  2.6026
  716MOL0     H96624   6.736   5.763   7.560 -0.2563 -1.1595  2.3852
  716MOL0     H96625   6.947   5.778   7.689 -2.6850 -2.1326  0.6315
  716MOL0     H96626   7.048   5.825   7.914 -0.1436  1.4118 -1.6541
  716MOL0     H96627   7.156   5.826   7.772  2.0189 -0.2039  0.5985
  716MOL0     H96628   7.317   5.819   7.936  3.0432  2.0474 -1.3296
  716MOL0     H96629   7.312   5.987   7.889  2.7799 -2.4318 -1.0198
  716MOL0     H96630   7.191   5.838   8.137  1.1132 -0.0600  1.0296
  716MOL0     H96631   7.139   6.003   8.109  0.3005 -0.9004  1.3335
  716MOL0     H96632   7.396   6.073   8.142  2.7504 -0.1137  1.6769
  716MOL0     H96633   7.297   6.000   8.275 -0.7138 -0.8202 -0.3259
  716MOL0     H96634   7.535   5.913   8.258 -2.6729  4.0937  0.7589
  716MOL0     H96635   7.505   5.887   8.089 -0.2052 -2.7406 -0.4894
  716MOL0     H96636   7.386   5.716   8.322 -0.2964  0.2981  0.0171
  716MOL0     H96637   7.333   5.703   8.156  0.8810  1.4037 -0.6029
  716MOL0     H96638   7.622   5.694   8.194  0.1125  0.5300  0.4637
  716MOL0     H96639   7.514   5.618   8.072 -0.1233 -1.0655 -0.2050
  716MOL0     H96640   7.523   5.524   8.367  0.3139 -2.3309  0.1210
  716MOL0     H96641   7.590   5.440   8.229  1.6256  2.3135 -2.6477
  716MOL0     H96642   6.864   6.170   7.823  2.4269 -0.8499 -1.0492
  716MOL0     H96643   6.657   6.166   7.693  2.8345  0.9930  3.3671
  716MOL0     H96644   6.317   5.988   7.502  2.3594  2.8981  0.9012
  716MOL0     H96645   6.111   6.048   7.370 -0.1710 -1.4749 -0.3602
  716MOL0     H96646   4.718   6.020   6.666  2.7619 -0.3111 -1.9414
  716MOL0     H96647   4.505   5.957   6.792  0.0585  3.1260 -1.0844
  716MOL0     H96648   4.057   5.856   6.684 -0.5681 -0.9725 -1.1702
  716MOL0     H96649   3.821   5.755   6.698 -2.1162 -1.1619  1.4690
  716MOL0     H96650   3.700   5.541   6.575 -2.3010  1.0996 -0.6969
  716MOL0     H96651   3.643   5.407   6.670 -0.9416  0.7603 -0.9859
  716MOL0     H96652   3.581   5.700   6.695 -3.0006  0.4162  1.1448
  716MOL0     H96653   3.515   5.574   6.802 -1.9284  2.4934 -0.5080
  716MOL0     H96654   3.417   5.435   6.614 -2.4290 -0.9241  0.7967
  716MOL0     H96655   3.475   5.552   6.507 -0.4521 -0.0770 -1.0820
  716MOL0     H96656   3.315   5.714   6.664 -0.0523  0.3980 -1.6040
  716MOL0     H96657   3.240   5.559   6.706  1.4696 -0.8783  0.3574
  716MOL0     H96658   3.191   5.657   6.275  0.5172  0.0915 -0.6463
  716MOL0     H96659   3.987   5.401   6.856  2.4109  1.2252  1.9598
  716MOL0     H96660   4.208   5.496   6.854  0.4314 -0.2704  0.7120
  717MOL0     O96661   5.425   1.167   4.274  1.4709 -0.1889 -0.4522
  717MOL0     C96662   5.324   1.231   4.241  0.5420 -0.8014 -0.7650
  717MOL0     O96663   5.308   1.376   4.265  0.4552  0.3808  0.1078
  717MOL0     C96664   5.416   1.452   4.294  0.6415  0.4958 -0.6334
  717MOL0     C96665   5.410   1.558   4.385  0.1373  0.2492  1.2163
  717MOL0     C96666   5.529   1.631   4.434 -0.1593  0.3674 -0.1121
  717MOL0     C96667   5.649   1.609   4.369  0.7790 -0.3039  0.9150
  717MOL0     O96668   5.759   1.685   4.374  0.6154  0.0725  0.9243
  717MOL0     C96669   5.754   1.832   4.362 -0.5393  0.8728 -0.2036
  717MOL0     C96670   5.701   1.876   4.225 -0.1268 -0.1910  0.3617
  717MOL0     C96671   5.751   2.021   4.203  0.1088  0.5092  0.4842
  717MOL0     C96672   5.639   2.120   4.239  0.4296 -0.1989 -0.4857
  717MOL0     C96673   5.703   2.258   4.231 -0.8699  0.0431  0.3345
  717MOL0     C96674   5.618   2.385   4.255  0.5138  0.0684  0.5909
  717MOL0     C96675   5.540   2.365   4.386 -1.1056  0.2277 -0.5236
  717MOL0     C96676   5.501   2.497   4.460  0.2795 -0.4913 -0.7660
  717MOL0     N96677   5.405   2.581   4.384 -0.4273 -0.7869 -0.4141
  717MOL0     C96678   5.291   2.529   4.327  0.5190 -0.2622  0.8854
  717MOL0     C96679   5.230   2.645   4.288  0.5207 -0.1167  0.2225
  717MOL0     C96680   5.097   2.654   4.212  0.2802  0.9528  0.2787
  717MOL0     C96681   4.981   2.677   4.304  0.3261  0.2170 -0.1333
  717MOL0     C96682   4.838   2.666   4.237 -0.3386  0.7346  1.0210
  717MOL0     C96683   4.724   2.741   4.309  0.4176  1.1706  0.1213
  717MOL0     O96684   4.602   2.693   4.241  0.5000 -0.6060 -0.0685
  717MOL0     C96685   4.480   2.736   4.286 -0.1296  0.2706  0.4225
  717MOL0     C96686   4.368   2.664   4.261  0.1294  0.7309 -0.5839
  717MOL0     C96687   4.242   2.682   4.326  0.0299 -0.9927 -0.4152
  717MOL0     C96688   4.135   2.592   4.293 -0.6755 -0.6970  0.1427
  717MOL0     C96689   4.231   2.791   4.429  0.7136 -0.0352  1.2223
  717MOL0     C96690   4.103   2.832   4.496  0.0823  0.2651 -0.1506
  717MOL0     O96691   4.087   2.962   4.541  0.2556 -0.1435 -0.4513
  717MOL0     C96692   3.970   3.005   4.610 -0.2326  0.0714  0.1499
  717MOL0     C96693   3.916   2.944   4.725  1.1757 -0.1738 -0.3296
  717MOL0     C96694   3.797   2.982   4.789 -0.4719 -0.0871  0.3163
  717MOL0     C96695   3.735   3.101   4.744  0.1418 -1.0949  0.6184
  717MOL0     O96696   3.616   3.137   4.802  0.1506  0.3449  0.5524
  717MOL0     C96697   3.580   3.272   4.846  0.1306 -0.4592  0.5995
  717MOL0     C96698   3.461   3.264   4.936  0.4435  0.3640 -0.7020
  717MOL0     C96699   3.473   3.157   5.054 -0.2601  0.1008  0.0970
  717MOL0     C96700   3.614   3.168   5.136 -0.3018  0.5538  0.3686
  717MOL0     C96701   3.612   3.295   5.214  0.2529  0.6954 -0.2209
  717MOL0     C96702   3.739   3.299   5.299 -0.4672 -0.7601  0.0804
  717MOL0     C96703   3.759   3.427   5.383  0.2478  1.1011 -1.0068
  717MOL0     C96704   3.898   3.419   5.454  0.5050  0.5627  0.5410
  717MOL0    Cl96705   3.904   3.577   5.539 -0.4455 -0.1471 -0.1612
  717MOL0     C96706   3.791   3.164   4.627 -0.7802 -0.0377  0.6601
  717MOL0     C96707   3.906   3.119   4.562  0.1803  0.7763  1.1962
  717MOL0     O96708   4.021   2.743   4.509 -0.2350  0.4241  0.0573
  717MOL0     C96709   4.337   2.869   4.443 -0.6606 -0.0678  0.3530
  717MOL0     C96710   4.458   2.841   4.371  0.4206 -0.6192 -0.0313
  717MOL0     N96711   5.302   2.751   4.335  0.1343 -0.4661 -0.0198
  717MOL0     N96712   5.411   2.716   4.385 -0.0483 -1.0751  0.2670
  717MOL0     C96713   5.646   1.509   4.267 -0.5562  1.1878 -0.1181
  717MOL0     C96714   5.538   1.432   4.231  0.6321  0.1299 -0.0332
  717MOL0     C96715   5.201   1.164   4.193 -0.7677  0.4617  0.4965
  717MOL0     C96716   5.086   1.237   4.146 -0.1228  0.3206 -0.1148
  717MOL0     C96717   4.975   1.164   4.097 -0.0119  0.4398  0.0695
  717MOL0     C96718   4.964   1.027   4.103 -0.2378 -0.6067 -0.4654
  717MOL0     O96719   4.851   0.969   4.054 -0.1142  0.3421 -0.1465
  717MOL0     C96720   4.849   0.830   4.048  0.6555  0.0510 -0.0787
  717MOL0     C96721   4.937   0.771   3.933  0.5010  0.4637  0.2049
  717MOL0     C96722   4.894   0.818   3.789 -0.2731 -0.9165 -0.3497
  717MOL0     C96723   4.840   0.696   3.708 -0.7922  0.3504 -0.2406
  717MOL0     C96724   4.953   0.606   3.679 -0.1640 -0.2111  0.2943
  717MOL0     C96725   5.064   0.558   3.651  0.1757 -0.5575  0.1256
  717MOL0     C96726   5.072   0.958   4.160 -0.3875 -0.2032  0.4267
  717MOL0     C96727   5.186   1.025   4.191  0.3336  0.7344  0.0096
  717MOL0     H96728   5.316   1.581   4.434  0.0064 -1.5239  1.8588
  717MOL0     H96729   5.513   1.698   4.518 -0.3493 -1.0245  1.0091
  717MOL0     H96730   5.700   1.878   4.445  2.5562  0.9755  1.9447
  717MOL0     H96731   5.860   1.860   4.360  0.6344 -2.9340  0.5955
  717MOL0     H96732   5.738   1.804   4.151  0.1897  0.0618  0.2709
  717MOL0     H96733   5.592   1.880   4.216 -0.0399  1.3509 -0.1542
  717MOL0     H96734   5.852   2.033   4.245  1.3330 -2.9488 -1.1100
  717MOL0     H96735   5.763   2.036   4.095 -1.4818  1.7438  0.4401
  717MOL0     H96736   5.554   2.109   4.170  0.6493  1.3110 -1.0353
  717MOL0     H96737   5.604   2.093   4.339 -1.4903  1.0474 -0.7633
  717MOL0     H96738   5.784   2.256   4.304 -0.2722 -0.5629 -0.3150
  717MOL0     H96739   5.747   2.265   4.131 -2.0532  0.7103 -0.1560
  717MOL0     H96740   5.679   2.475   4.263  1.2319 -0.5829  4.6523
  717MOL0     H96741   5.543   2.395   4.175  2.4899  0.0095 -1.3742
  717MOL0     H96742   5.448   2.309   4.368 -1.3053  0.3077  0.2110
  717MOL0     H96743   5.602   2.298   4.447  1.1466  0.0478 -2.8131
  717MOL0     H96744   5.593   2.555   4.471 -1.0323  1.9968 -1.8845
  717MOL0     H96745   5.447   2.488   4.554  1.0165 -1.7339 -0.4400
  717MOL0     H96746   5.257   2.426   4.319  1.5889 -0.5378 -0.4421
  717MOL0     H96747   5.113   2.717   4.124  0.8565  1.5346  0.7840
  717MOL0     H96748   5.070   2.553   4.179  1.9450  0.5550  0.0278
  717MOL0     H96749   4.981   2.775   4.352 -2.5440  0.2715 -0.0553
  717MOL0     H96750   4.975   2.598   4.379  2.8424  1.1907  1.2066
  717MOL0     H96751   4.809   2.560   4.231 -0.2797  0.7382  0.6554
  717MOL0     H96752   4.832   2.707   4.136 -4.0735 -0.3384  0.6434
  717MOL0     H96753   4.742   2.848   4.297  2.2483  0.7764 -0.8575
  717MOL0     H96754   4.705   2.711   4.412 -1.8211 -0.1429 -0.5827
  717MOL0     H96755   4.363   2.577   4.197  2.6371 -1.3420  1.7818
  717MOL0     H96756   4.100   2.547   4.386 -2.1585  0.9547  0.4460
  717MOL0     H96757   4.050   2.647   4.251  0.1257 -0.7447 -1.6298
  717MOL0     H96758   4.159   2.511   4.224 -0.2793 -0.2078 -0.3064
  717MOL0     H96759   3.971   2.859   4.762  2.0542  0.8441  0.7603
  717MOL0     H96760   3.749   2.936   4.876  1.1862  0.1247  1.3839
  717MOL0     H96761   3.669   3.312   4.896  1.3036 -2.0349 -0.1331
  717MOL0     H96762   3.556   3.330   4.756 -0.2308  0.9223  1.5514
  717MOL0     H96763   3.445   3.360   4.988 -2.8575 -0.0558 -0.6802
  717MOL0     H96764   3.367   3.250   4.881  0.5235  0.1579 -0.7842
  717MOL0     H96765   3.481   3.061   5.003 -0.4402  0.6762 -1.0427
  717MOL0     H96766   3.384   3.148   5.116 -1.4891 -0.3752 -1.6792
  717MOL0     H96767   3.616   3.074   5.191  0.6707  0.8564  0.8697
  717MOL0     H96768   3.692   3.179   5.060 -0.4512  0.2963  0.1760
  717MOL0     H96769   3.520   3.296   5.274  1.0759  0.0859  1.0906
  717MOL0     H96770   3.613   3.383   5.149  2.8110  1.1540  0.3335
  717MOL0     H96771   3.732   3.210   5.362 -2.2489 -0.7389 -0.0371
  717MOL0     H96772   3.830   3.298   5.238 -0.3948 -1.3015  0.1954
  717MOL0     H96773   3.689   3.423   5.468  1.6099 -0.1764  0.1029
  717MOL0     H96774   3.740   3.509   5.313 -3.4796 -1.3413 -3.1955
  717MOL0     H96775   3.986   3.406   5.390  1.1890  2.7755  0.9307
  717MOL0     H96776   3.902   3.340   5.529  1.4559  1.3949  1.3987
  717MOL0     H96777   3.733   3.231   4.565 -1.4939 -1.7036 -0.5570
  717MOL0     H96778   3.937   3.159   4.466  0.5626  0.2372  1.0911
  717MOL0     H96779   4.352   2.950   4.513  1.0729 -1.3331  1.5285
  717MOL0     H96780   4.541   2.908   4.392  1.5521 -1.8740 -0.3945
  717MOL0     H96781   5.738   1.477   4.219 -2.6047 -0.0919 -3.5633
  717MOL0     H96782   5.539   1.354   4.156 -4.2224 -0.4611  0.1780
  717MOL0     H96783   5.098   1.344   4.158  3.9592  0.1929 -1.4875
  717MOL0     H96784   4.881   1.211   4.074 -1.2273 -2.1112 -0.5847
  717MOL0     H96785   4.871   0.785   4.145  2.4125 -1.4736 -1.1021
  717MOL0     H96786   4.747   0.794   4.030  0.5121 -0.3725  1.4204
  717MOL0     H96787   4.938   0.662   3.943 -0.5214  0.5304  1.2533
  717MOL0     H96788   5.035   0.817   3.949  1.9989 -1.6734 -2.1338
  717MOL0     H96789   4.979   0.863   3.738  0.4463 -0.1913  1.4047
  717MOL0     H96790   4.810   0.888   3.794  0.6069  0.2587 -1.3947
  717MOL0     H96791   4.800   0.734   3.613 -0.2305  3.3184  0.6076
  717MOL0     H96792   4.765   0.643   3.767 -1.5180 -1.0068 -2.2507
  717MOL0     H96793   5.162   0.549   3.609  1.4068  3.6796  1.6162
  717MOL0     H96794   5.077   0.850   4.171  2.9646 -0.5097 -2.4769
  717MOL0     H96795   5.268   0.971   4.237  0.9451 -0.3112 -2.1503
  718MOL0     O96796   0.637   3.232   3.429 -0.0722  0.5772  0.1765
  718MOL0     C96797   0.552   3.234   3.514 -0.0869  0.8341 -0.1444
  718MOL0     O96798   0.539   3.333   3.613 -1.0512 -0.7255  0.4854
  718MOL0     C96799   0.631   3.435   3.595  0.1891 -0.0586 -1.1045
  718MOL0     C96800   0.595   3.552   3.528  0.5771 -1.3371 -1.6371
  718MOL0     C96801   0.682   3.666   3.526  0.5995  0.1867 -0.2514
  718MOL0     C96802   0.810   3.654   3.570 -0.3814  0.0362 -0.0918
  718MOL0     O96803   0.900   3.751   3.557  0.9719  0.1849  0.1005
  718MOL0     C96804   0.890   3.834   3.441 -0.2147  0.0259  1.1978
  718MOL0     C96805   0.836   3.976   3.448 -0.3083 -0.3014  0.3083
  718MOL0     C96806   0.940   4.093   3.484 -0.7444  0.0680 -0.9745
  718MOL0     C96807   1.040   4.128   3.379  0.5516 -0.7562  0.7057
  718MOL0     C96808   1.163   4.216   3.431  0.4425  0.5399  0.1618
  718MOL0     C96809   1.230   4.295   3.328  0.7256  0.3428  0.2856
  718MOL0     C96810   1.328   4.399   3.371 -0.0608 -0.0503  0.7940
  718MOL0     C96811   1.401   4.469   3.257  0.1527 -0.8032  0.4629
  718MOL0     N96812   1.514   4.549   3.303  0.7320  0.8393 -0.7110
  718MOL0     C96813   1.512   4.676   3.345 -0.2394 -0.1222 -0.5590
  718MOL0     C96814   1.644   4.708   3.363  0.0940  0.1262 -0.5539
  718MOL0     C96815   1.691   4.839   3.423 -0.7821 -0.4992 -0.1408
  718MOL0     C96816   1.778   4.833   3.551  0.1560  0.2755  0.4447
  718MOL0     C96817   1.706   4.828   3.689  0.0364 -0.8711  0.3332
  718MOL0     C96818   1.603   4.716   3.700  0.0518 -0.0931  0.5099
  718MOL0     O96819   1.658   4.596   3.674 -0.2960  0.7434 -0.0264
  718MOL0     C96820   1.594   4.481   3.703 -0.5874  0.5081 -0.2003
  718MOL0     C96821   1.462   4.481   3.751  0.4624  0.4114 -0.3103
  718MOL0     C96822   1.387   4.362   3.772  0.4993  0.0264 -0.0044
  718MOL0     C96823   1.244   4.375   3.802  0.5355 -0.4207  0.1574
  718MOL0     C96824   1.454   4.237   3.759  0.0281  1.6910 -0.3222
  718MOL0     C96825   1.401   4.103   3.786 -0.6028  1.1381 -0.0345
  718MOL0     O96826   1.286   4.099   3.848 -0.6632  0.1332 -0.0218
  718MOL0     C96827   1.234   3.975   3.881  0.6365  0.0315  0.3840
  718MOL0     C96828   1.239   3.923   4.011  0.1200  1.0295  0.7653
  718MOL0     C96829   1.181   3.806   4.050 -0.6176 -0.1773  0.5467
  718MOL0     C96830   1.095   3.734   3.971 -0.0885 -0.2243  0.1443
  718MOL0     O96831   1.049   3.612   4.016  0.1428  0.3174  0.0784
  718MOL0     C96832   1.107   3.504   3.946 -0.2477  0.0005  0.7035
  718MOL0     C96833   1.065   3.366   3.981  0.7104 -0.5290 -0.1399
  718MOL0     C96834   1.097   3.266   3.861 -0.2646  0.7608  0.4345
  718MOL0     C96835   1.084   3.121   3.912 -0.0537 -0.1087  1.2208
  718MOL0     C96836   0.932   3.058   3.906 -0.3839 -0.1055 -0.0728
  718MOL0     C96837   0.902   3.013   3.760 -0.8387  0.0680 -0.6530
  718MOL0     C96838   0.759   3.027   3.719 -0.7333  0.5537 -0.3652
  718MOL0     C96839   0.668   2.914   3.778 -0.2571 -0.3130 -1.2697
  718MOL0    Cl96840   0.707   2.759   3.710 -0.0479 -0.3507  0.2669
  718MOL0     C96841   1.082   3.788   3.838  0.1678  0.6372 -0.2863
  718MOL0     C96842   1.162   3.895   3.786  0.4284  0.2194  1.2542
  718MOL0     O96843   1.466   3.997   3.768 -0.1064 -0.2799 -0.5854
  718MOL0     C96844   1.591   4.238   3.715  0.1096  0.7137 -0.3242
  718MOL0     C96845   1.653   4.360   3.684  0.2228 -0.2990  0.0635
  718MOL0     N96846   1.719   4.598   3.341  0.2577  0.7116  0.5685
  718MOL0     N96847   1.636   4.504   3.308 -0.6930 -0.6869 -0.3108
  718MOL0     C96848   0.851   3.532   3.622 -0.1879  0.7872  0.8554
  718MOL0     C96849   0.762   3.429   3.644  0.1551 -1.3745  0.6974
  718MOL0     C96850   0.468   3.117   3.528  0.7403 -0.4626 -0.0773
  718MOL0     C96851   0.473   3.002   3.450 -0.5695 -0.3046 -0.7853
  718MOL0     C96852   0.387   2.895   3.468 -0.2705  0.0914  0.5860
  718MOL0     C96853   0.280   2.899   3.561  0.3036 -0.1161  0.7559
  718MOL0     O96854   0.192   2.804   3.596  0.3618  0.3379 -0.1122
  718MOL0     C96855   0.215   2.665   3.558 -0.2730  0.0595  0.9806
  718MOL0     C96856   0.079   2.604   3.569  0.0027  0.9461 -0.2815
  718MOL0     C96857  -0.004   2.617   3.436 -0.2731 -0.3357  0.1794
  718MOL0     C96858  -0.128   2.530   3.450  0.0228  0.5585  0.7322
  718MOL0     C96859  -0.214   2.544   3.330 -0.2272 -0.5146  0.4286
  718MOL0     C96860  -0.266   2.534   3.221 -0.3409  0.2717  0.5955
  718MOL0     C96861   0.273   3.020   3.635  0.3978  0.4596 -0.3184
  718MOL0     C96862   0.362   3.128   3.622 -0.6052  1.0906  0.9363
  718MOL0     H96863   0.490   3.554   3.503  0.3338 -2.3126 -0.7996
  718MOL0     H96864   0.644   3.761   3.492 -1.3394  0.8358  3.2239
  718MOL0     H96865   0.990   3.849   3.400 -1.6506 -0.7960 -3.0991
  718MOL0     H96866   0.840   3.777   3.362  1.7684  1.2082 -1.0374
  718MOL0     H96867   0.791   3.993   3.350 -1.3584 -2.1965  0.4088
  718MOL0     H96868   0.756   3.984   3.522  0.8423  1.2624  1.4689
  718MOL0     H96869   0.894   4.177   3.536  3.6865  0.6827  2.6585
  718MOL0     H96870   0.989   4.053   3.574 -1.7002 -0.8797 -0.8541
  718MOL0     H96871   1.080   4.038   3.333 -1.8372 -0.5577 -2.0673
  718MOL0     H96872   0.986   4.178   3.298 -1.3122 -2.6012  0.7297
  718MOL0     H96873   1.135   4.287   3.509  1.9903  0.5987  0.6914
  718MOL0     H96874   1.241   4.152   3.472 -0.0406 -0.1987 -0.0536
  718MOL0     H96875   1.281   4.228   3.258 -1.1427 -2.2079  1.2327
  718MOL0     H96876   1.146   4.347   3.281  1.8591  2.4519  0.4386
  718MOL0     H96877   1.278   4.467   3.441  0.6071 -1.3767  2.6487
  718MOL0     H96878   1.409   4.350   3.427  1.3991  2.1651  0.7337
  718MOL0     H96879   1.329   4.537   3.211  1.1384 -1.5824 -2.4915
  718MOL0     H96880   1.429   4.390   3.187 -2.4678 -2.8891  1.5809
  718MOL0     H96881   1.430   4.747   3.355 -0.4189 -0.3004 -0.7663
  718MOL0     H96882   1.740   4.899   3.346 -1.6264 -0.6755 -0.8423
  718MOL0     H96883   1.605   4.899   3.455  0.1030  0.7660 -0.0728
  718MOL0     H96884   1.842   4.921   3.558  5.1708 -3.0380  2.1008
  718MOL0     H96885   1.842   4.744   3.551 -0.9375 -0.5509  2.1559
  718MOL0     H96886   1.646   4.918   3.706 -2.1766 -1.3963 -3.5366
  718MOL0     H96887   1.775   4.830   3.774  1.3898 -0.3481 -0.7443
  718MOL0     H96888   1.513   4.722   3.638 -1.0852  0.9584  2.1864
  718MOL0     H96889   1.574   4.726   3.805  2.3698 -0.1246  1.2164
  718MOL0     H96890   1.409   4.575   3.767  1.9770  0.7914  3.6739
  718MOL0     H96891   1.179   4.305   3.749 -1.0929  1.9009 -1.0866
  718MOL0     H96892   1.226   4.341   3.904 -2.1760 -0.1863 -0.1801
  718MOL0     H96893   1.205   4.477   3.801 -0.4194 -0.7598  0.7905
  718MOL0     H96894   1.315   3.964   4.077  0.3804 -1.6069  2.2493
  718MOL0     H96895   1.222   3.765   4.142 -1.2651 -0.7139  0.6053
  718MOL0     H96896   1.087   3.515   3.839  2.3830  1.6006  0.2972
  718MOL0     H96897   1.214   3.510   3.966 -0.4472  1.2987  1.4509
  718MOL0     H96898   1.117   3.336   4.073  0.0227  0.7268  0.6958
  718MOL0     H96899   0.959   3.364   4.006  0.9511 -3.4684  1.0202
  718MOL0     H96900   1.202   3.278   3.831 -0.4083  0.5377 -0.1773
  718MOL0     H96901   1.036   3.287   3.773  0.7535  0.6964 -0.3107
  718MOL0     H96902   1.145   3.057   3.847 -0.7608 -0.9697  1.3694
  718MOL0     H96903   1.128   3.114   4.012 -3.3066 -3.3930  2.6644
  718MOL0     H96904   0.852   3.122   3.946 -1.1531 -2.3608  2.2751
  718MOL0     H96905   0.933   2.969   3.970 -1.5186  0.2356  0.4492
  718MOL0     H96906   0.956   3.086   3.699  0.9062  0.0328  0.7617
  718MOL0     H96907   0.942   2.914   3.734  0.5918  0.7818 -1.2838
  718MOL0     H96908   0.765   3.029   3.609  0.8740  4.4276 -0.3431
  718MOL0     H96909   0.726   3.125   3.752 -1.5929  0.0014  0.4525
  718MOL0     H96910   0.562   2.929   3.756 -1.4795 -0.0312  3.5315
  718MOL0     H96911   0.662   2.908   3.887 -1.3157 -3.5547 -1.3768
  718MOL0     H96912   1.011   3.732   3.778  1.7480 -0.6684 -1.0326
  718MOL0     H96913   1.159   3.936   3.686  4.0006 -0.5796  0.6726
  718MOL0     H96914   1.658   4.153   3.707  3.0900  2.6066  2.1379
  718MOL0     H96915   1.751   4.367   3.636  1.8163 -3.3146  2.5115
  718MOL0     H96916   0.951   3.517   3.660  0.0729  0.8147  0.1893
  718MOL0     H96917   0.785   3.340   3.702  0.2780 -0.1299  2.6443
  718MOL0     H96918   0.544   2.998   3.369  0.5310 -0.4423  0.1513
  718MOL0     H96919   0.416   2.803   3.419  0.0109 -1.1823  3.0065
  718MOL0     H96920   0.251   2.656   3.455 -2.5737  1.1651  0.0034
  718MOL0     H96921   0.288   2.611   3.618 -0.7197  2.2479  3.7175
  718MOL0     H96922   0.034   2.641   3.662  0.6537  1.5500 -0.1962
  718MOL0     H96923   0.092   2.496   3.585  0.1176  1.2937  2.6506
  718MOL0     H96924   0.060   2.594   3.351  1.1644  1.2958  0.7604
  718MOL0     H96925  -0.030   2.723   3.429 -2.7256 -1.0143 -4.3381
  718MOL0     H96926  -0.189   2.548   3.539 -1.1677 -1.2827  0.3438
  718MOL0     H96927  -0.092   2.427   3.447 -1.6493 -0.0823  1.4162
  718MOL0     H96928  -0.308   2.531   3.123 -0.1500  0.8290  0.4914
  718MOL0     H96929   0.202   3.022   3.717  0.0012 -0.1054 -0.6413
  718MOL0     H96930   0.341   3.221   3.674 -1.3674  0.8659  1.0431
  719MOL0     O96931   9.671   3.178   0.789  0.0601  0.6915 -0.2656
  719MOL0     C96932   9.722   3.252   0.883  1.0211 -0.4377 -0.5400
  719MOL0     O96933   9.782   3.211   0.991 -0.0106  0.7342  0.0333
  719MOL0     C96934   9.801   3.070   1.010 -0.5997 -0.8673 -0.0519
  719MOL0     C96935   9.695   2.992   1.030 -0.9701 -0.1222  0.3340
  719MOL0     C96936   9.719   2.857   1.061 -0.2446 -0.3313 -0.0611
  719MOL0     C96937   9.842   2.806   1.083  0.1003  0.3419 -0.5557
  719MOL0     O96938   9.844   2.667   1.103  0.1345 -0.1859 -0.8687
  719MOL0     C96939   9.958   2.625   1.172 -0.3417  1.2375 -0.2878
  719MOL0     C96940   9.925   2.498   1.258 -0.7903 -0.7270  0.8170
  719MOL0     C96941   9.857   2.529   1.389  0.1245  0.6833  0.9640
  719MOL0     C96942   9.717   2.595   1.371  0.0960 -0.0239 -0.6722
  719MOL0     C96943   9.606   2.557   1.475 -0.8502 -0.0937 -0.0904
  719MOL0     C96944   9.636   2.589   1.623 -0.1520  0.2906 -0.0548
  719MOL0     C96945   9.511   2.526   1.700 -0.1684 -0.5839 -0.3236
  719MOL0     C96946   9.479   2.583   1.843 -0.0338 -0.1862 -0.9860
  719MOL0     N96947   9.346   2.557   1.889 -0.0830 -0.3074  0.4940
  719MOL0     C96948   9.231   2.621   1.841  0.1915  0.3292  0.8303
  719MOL0     C96949   9.132   2.560   1.899  1.1120  0.4042  0.3168
  719MOL0     C96950   8.987   2.589   1.879 -0.0714 -0.0935 -0.2605
  719MOL0     C96951   8.961   2.738   1.841 -0.0753 -0.2560  0.6660
  719MOL0     C96952   8.812   2.780   1.839 -0.5494 -0.1351  0.4737
  719MOL0     C96953   8.756   2.770   1.988  0.2445  0.5180  0.1887
  719MOL0     O96954   8.834   2.822   2.085 -0.7997  0.7108 -0.4750
  719MOL0     C96955   8.858   2.767   2.213 -0.0933 -0.5028 -0.0136
  719MOL0     C96956   8.772   2.679   2.270 -0.2531  0.4668 -0.4344
  719MOL0     C96957   8.807   2.615   2.395 -0.3608  0.4717 -0.1313
  719MOL0     C96958   8.710   2.516   2.453  0.6087 -0.3334 -0.1697
  719MOL0     C96959   8.931   2.646   2.451  0.6090  0.0687 -0.9112
  719MOL0     C96960   8.980   2.585   2.577  0.3213  0.0535 -0.6948
  719MOL0     O96961   9.102   2.637   2.606  0.2414 -0.3510 -0.0943
  719MOL0     C96962   9.170   2.631   2.725  0.6273  0.0360  0.1478
  719MOL0     C96963   9.117   2.584   2.848  0.1584 -0.4788  0.3810
  719MOL0     C96964   9.201   2.585   2.965  0.3003  0.0502  0.5684
  719MOL0     C96965   9.323   2.648   2.961  0.1683 -0.1206  0.8191
  719MOL0     O96966   9.410   2.660   3.069  0.4861  0.7754 -0.0964
  719MOL0     C96967   9.418   2.539   3.142 -0.8233 -0.5938 -0.6490
  719MOL0     C96968   9.536   2.547   3.245 -0.2214 -0.2032 -0.0289
  719MOL0     C96969   9.534   2.432   3.347 -1.1740  0.4318 -0.0916
  719MOL0     C96970   9.641   2.454   3.448 -0.5202 -1.1060 -0.1146
  719MOL0     C96971   9.598   2.519   3.576  0.3542 -0.4103 -1.0479
  719MOL0     C96972   9.701   2.515   3.690  0.7235  0.6359 -0.8596
  719MOL0     C96973   9.668   2.610   3.805 -0.2526 -1.4641  0.5278
  719MOL0     C96974   9.802   2.643   3.878  0.7453  0.3219  0.2696
  719MOL0    Cl96975   9.780   2.769   4.000  0.0696  0.0543 -0.3687
  719MOL0     C96976   9.364   2.710   2.834  0.2470  0.5010  0.0088
  719MOL0     C96977   9.282   2.709   2.727 -0.7934  0.4438  0.4748
  719MOL0     O96978   8.907   2.524   2.659 -0.1010 -0.3491  1.5059
  719MOL0     C96979   9.015   2.747   2.385  0.8349  0.6979  0.2267
  719MOL0     C96980   8.967   2.809   2.276 -0.4613 -0.8296 -0.1662
  719MOL0     N96981   9.185   2.473   1.996  0.4671 -0.2245 -1.2403
  719MOL0     N96982   9.310   2.471   1.986 -0.4109  0.8293 -0.6102
  719MOL0     C96983   9.950   2.894   1.042  0.6877  0.1378 -0.0545
  719MOL0     C96984   9.922   3.019   1.004 -0.4267 -0.7497 -0.4704
  719MOL0     C96985   9.714   3.392   0.854  0.1848 -0.1230 -0.1586
  719MOL0     C96986   9.632   3.438   0.754 -0.5287 -0.4716  0.1916
  719MOL0     C96987   9.615   3.574   0.740 -0.3285 -0.1010  0.0734
  719MOL0     C96988   9.679   3.669   0.813 -0.3873 -1.1848 -1.0162
  719MOL0     O96989   9.654   3.802   0.775  1.0885 -0.2728  0.2540
  719MOL0     C96990   9.645   3.917   0.859 -0.2204  0.5417 -0.0793
  719MOL0     C96991   9.564   3.904   0.987  0.7293  0.5125  0.0037
  719MOL0     C96992   9.416   3.872   0.960 -1.0400 -0.1519  1.2176
  719MOL0     C96993   9.328   3.874   1.076  0.1052 -0.6479 -0.1066
  719MOL0     C96994   9.240   3.765   1.075  0.1206  0.7021  0.2070
  719MOL0     C96995   9.158   3.675   1.072 -0.0795 -0.5340  0.2711
  719MOL0     C96996   9.774   3.626   0.904  0.0299 -0.2164  0.4216
  719MOL0     C96997   9.787   3.486   0.931  0.3841 -0.4330 -0.0510
  719MOL0     H96998   9.601   3.044   1.022 -0.6578  0.2004 -1.6741
  719MOL0     H96999   9.637   2.791   1.085  1.0710 -2.2205 -0.5089
  719MOL0     H97000  10.042   2.600   1.106 -1.5182  0.4952 -1.5567
  719MOL0     H97001   9.988   2.700   1.245 -5.2285  1.2909  1.9953
  719MOL0     H97002   9.863   2.436   1.193 -1.0068  0.7331 -0.4170
  719MOL0     H97003  10.022   2.454   1.280  0.5528  2.9038  3.1172
  719MOL0     H97004   9.839   2.430   1.432 -0.7912 -0.0505 -0.9685
  719MOL0     H97005   9.918   2.596   1.450 -1.1760  3.7487 -0.8930
  719MOL0     H97006   9.729   2.704   1.380 -2.7141  0.2380  1.2521
  719MOL0     H97007   9.686   2.559   1.272  2.7021 -1.5270 -1.0313
  719MOL0     H97008   9.522   2.620   1.445 -1.2031 -0.2505  0.5388
  719MOL0     H97009   9.579   2.456   1.442  2.1873 -0.9046 -0.3850
  719MOL0     H97010   9.731   2.543   1.652  0.2659  1.0122 -0.2431
  719MOL0     H97011   9.632   2.696   1.644 -0.0503  0.2318  0.2839
  719MOL0     H97012   9.426   2.556   1.637  2.0087  1.2731 -2.5974
  719MOL0     H97013   9.503   2.417   1.705 -0.3519 -0.5021  2.2530
  719MOL0     H97014   9.512   2.687   1.853  0.9313 -0.6593  1.3745
  719MOL0     H97015   9.549   2.527   1.906  0.0407  1.7478  0.7341
  719MOL0     H97016   9.226   2.687   1.755 -2.7698 -1.2512 -0.3667
  719MOL0     H97017   8.947   2.530   1.796 -1.1570  2.8879 -1.9752
  719MOL0     H97018   8.941   2.563   1.975  2.6448  0.8082  1.4082
  719MOL0     H97019   9.010   2.745   1.743 -0.2189 -0.4977  0.5786
  719MOL0     H97020   9.015   2.804   1.910 -3.7277  0.5001  3.0931
  719MOL0     H97021   8.753   2.709   1.781 -0.0366 -1.3008  1.3579
  719MOL0     H97022   8.815   2.884   1.803 -0.7547 -0.6848 -1.2072
  719MOL0     H97023   8.749   2.663   2.007 -0.2829  0.5318  0.0820
  719MOL0     H97024   8.654   2.810   1.996  0.7018  1.4717  1.7795
  719MOL0     H97025   8.678   2.652   2.224 -0.2069 -0.2316 -0.1446
  719MOL0     H97026   8.764   2.429   2.492 -0.9242 -0.8951  0.7874
  719MOL0     H97027   8.660   2.576   2.530 -0.1173 -0.0711 -0.8313
  719MOL0     H97028   8.633   2.489   2.380  1.1134  1.9685 -1.6517
  719MOL0     H97029   9.030   2.520   2.856  0.2392 -0.6664 -0.2071
  719MOL0     H97030   9.159   2.544   3.057 -1.2508 -4.6108 -1.8627
  719MOL0     H97031   9.324   2.513   3.193 -0.4524 -1.0347 -0.1798
  719MOL0     H97032   9.434   2.457   3.071 -4.1412 -2.0939  0.1276
  719MOL0     H97033   9.627   2.543   3.185  0.7395 -3.4965  1.4479
  719MOL0     H97034   9.533   2.641   3.302 -1.7228  2.9219 -4.6438
  719MOL0     H97035   9.543   2.328   3.315 -0.5094  0.5660 -0.3547
  719MOL0     H97036   9.439   2.436   3.403  0.0061  0.0847  2.0427
  719MOL0     H97037   9.678   2.354   3.475 -1.0984 -1.5316 -0.8495
  719MOL0     H97038   9.729   2.505   3.408 -1.9972  0.0950 -1.9988
  719MOL0     H97039   9.505   2.469   3.603  1.3179 -1.3356  0.7277
  719MOL0     H97040   9.580   2.626   3.560  2.4648  0.2079  0.3585
  719MOL0     H97041   9.692   2.414   3.732 -0.3420  2.3736  3.6537
  719MOL0     H97042   9.799   2.541   3.649  1.4063  2.7051  1.7726
  719MOL0     H97043   9.597   2.553   3.867 -0.8978 -0.7359  0.4704
  719MOL0     H97044   9.626   2.705   3.772  2.5738  1.7766  5.1191
  719MOL0     H97045   9.872   2.678   3.801 -0.5262  0.8054 -0.7153
  719MOL0     H97046   9.843   2.562   3.938 -0.2072 -2.1440 -2.1797
  719MOL0     H97047   9.463   2.753   2.824  1.4189 -1.6000  1.6184
  719MOL0     H97048   9.302   2.760   2.633  0.5243 -2.3654 -0.8798
  719MOL0     H97049   9.121   2.744   2.409  1.2943 -0.2662 -1.7638
  719MOL0     H97050   9.029   2.881   2.223  1.5708 -3.3369 -1.3918
  719MOL0     H97051  10.051   2.855   1.046  1.0113  1.0470  1.2307
  719MOL0     H97052  10.009   3.082   0.990  1.0041 -2.3909  0.6218
  719MOL0     H97053   9.579   3.368   0.691  0.2446 -1.5643  0.7143
  719MOL0     H97054   9.551   3.608   0.659 -1.2770  1.8969  1.5840
  719MOL0     H97055   9.747   3.943   0.888  0.3581 -1.6152 -0.0352
  719MOL0     H97056   9.610   3.997   0.792 -1.3582 -0.4392 -0.6978
  719MOL0     H97057   9.570   3.996   1.045  1.4241 -0.6886  1.9446
  719MOL0     H97058   9.612   3.836   1.058  1.3244  1.3156  0.3875
  719MOL0     H97059   9.419   3.770   0.921 -1.9811 -0.1570  1.1400
  719MOL0     H97060   9.374   3.937   0.883  2.0492 -0.5799 -0.9652
  719MOL0     H97061   9.277   3.970   1.089 -1.5156 -1.2384 -1.5977
  719MOL0     H97062   9.392   3.854   1.162  2.9454 -2.4473 -2.4079
  719MOL0     H97063   9.080   3.607   1.047 -0.6058  0.2850 -0.3644
  719MOL0     H97064   9.841   3.687   0.964  0.1717 -0.2552  0.3040
  719MOL0     H97065   9.863   3.465   1.005  0.9085  0.0687 -0.4324
  720MOL0     O97066   2.302   1.989   9.787 -0.1439 -0.3263  0.4156
  720MOL0     C97067   2.403   2.047   9.754  0.2205  0.3664  0.1042
  720MOL0     O97068   2.432   2.097   9.630 -0.9332  0.2370 -0.2781
  720MOL0     C97069   2.336   2.084   9.533 -0.7763 -0.9281 -0.2879
  720MOL0     C97070   2.204   2.129   9.544 -1.1129 -0.0376 -0.4406
  720MOL0     C97071   2.118   2.136   9.437  0.4922 -0.3850  0.6157
  720MOL0     C97072   2.153   2.070   9.315 -0.9205  0.1880 -0.3371
  720MOL0     O97073   2.064   2.050   9.212 -0.0784  0.1552  0.2606
  720MOL0     C97074   1.929   2.083   9.237  0.5258 -0.3402 -0.8256
  720MOL0     C97075   1.849   1.955   9.294 -0.9613 -0.4230  0.5535
  720MOL0     C97076   1.699   1.958   9.282  0.3863 -0.0360  0.2305
  720MOL0     C97077   1.627   1.975   9.137  0.6810 -0.3902  0.1942
  720MOL0     C97078   1.489   2.018   9.164 -0.2364 -0.5053  0.5972
  720MOL0     C97079   1.402   1.913   9.230  0.5318  0.1809  0.0774
  720MOL0     C97080   1.251   1.950   9.204  0.2650  0.5971 -0.5629
  720MOL0     C97081   1.167   1.861   9.301  0.2638 -0.1434 -0.2945
  720MOL0     N97082   1.030   1.907   9.291 -0.4733 -0.5548  0.3315
  720MOL0     C97083   0.933   1.919   9.385  1.0993  0.1437  0.3683
  720MOL0     C97084   0.816   1.957   9.321  0.3812  0.4239 -0.2268
  720MOL0     C97085   0.699   2.003   9.399 -0.3969  0.4079  0.0960
  720MOL0     C97086   0.586   2.029   9.295 -0.2322 -0.2454 -0.0320
  720MOL0     C97087   0.467   2.115   9.342  0.1844 -0.2223  0.5790
  720MOL0     C97088   0.372   2.048   9.435 -0.1579  0.3549  0.2052
  720MOL0     O97089   0.261   2.141   9.459  0.3423  0.4255  0.1463
  720MOL0     C97090   0.190   2.137   9.576  0.1153  0.7035  0.2093
  720MOL0     C97091   0.126   2.252   9.618 -0.3593 -0.0985  0.0191
  720MOL0     C97092   0.048   2.255   9.725 -0.6419 -0.5107 -0.5665
  720MOL0     C97093  -0.009   2.397   9.752 -0.0758 -0.3272  0.4491
  720MOL0     C97094   0.025   2.141   9.810 -1.0923  0.3807  0.6208
  720MOL0     C97095  -0.052   2.147   9.935  1.6041  0.2164  0.8179
  720MOL0     O97096  -0.048   2.029  10.007 -0.2974  0.3814 -0.1671
  720MOL0     C97097  -0.107   2.033  10.131  0.3726  1.1975 -0.1475
  720MOL0     C97098  -0.205   1.945  10.183 -0.5391  0.0550  0.1264
  720MOL0     C97099  -0.246   1.941  10.316  0.5105  0.7684 -0.0124
  720MOL0     C97100  -0.195   2.040  10.401 -0.6542  1.2473 -0.2994
  720MOL0     O97101  -0.240   2.035  10.528 -0.2017 -0.7855 -0.1459
  720MOL0     C97102  -0.217   2.135  10.615  0.1434  0.5377 -0.1417
  720MOL0     C97103  -0.326   2.131  10.723  0.8734  0.5247  0.2640
  720MOL0     C97104  -0.471   2.102  10.666 -0.5211 -0.2886 -0.3829
  720MOL0     C97105  -0.569   2.115  10.782 -0.0428  0.0461  0.1619
  720MOL0     C97106  -0.704   2.057  10.735  0.4170  0.6307 -0.3097
  720MOL0     C97107  -0.817   2.088  10.833  0.8354  0.1285 -0.1721
  720MOL0     C97108  -0.931   1.992  10.824  1.1937  0.5520 -0.8683
  720MOL0     C97109  -1.049   2.039  10.913  0.7002 -0.4144 -0.4721
  720MOL0    Cl97110  -1.023   2.059  11.083 -0.3578 -0.1310  0.1110
  720MOL0     C97111  -0.096   2.121  10.353  0.0437  0.3361  0.5941
  720MOL0     C97112  -0.051   2.122  10.223  0.5776 -0.0453  0.7513
  720MOL0     O97113  -0.119   2.246   9.961 -0.0438 -0.3440  0.0915
  720MOL0     C97114   0.092   2.016   9.776 -1.0078  1.1729  0.2283
  720MOL0     C97115   0.184   2.021   9.667  0.4590  0.2181  0.4078
  720MOL0     N97116   0.850   1.977   9.192  0.0829 -0.3636  0.0850
  720MOL0     N97117   0.972   1.952   9.174  0.3488  0.0478  0.6816
  720MOL0     C97118   2.275   2.012   9.306  0.3371 -0.6812 -0.1010
  720MOL0     C97119   2.372   2.036   9.407 -0.3926  0.9806  0.3647
  720MOL0     C97120   2.510   2.053   9.846  0.3909  0.1818 -0.7529
  720MOL0     C97121   2.493   1.987   9.968  0.1484 -0.3646  0.1741
  720MOL0     C97122   2.601   1.986  10.057  0.4330  1.1173 -0.2199
  720MOL0     C97123   2.719   2.047  10.038  0.4631  0.2949  0.4686
  720MOL0     O97124   2.820   2.062  10.133  0.5208 -0.0504  0.0038
  720MOL0     C97125   2.833   1.977  10.246  0.3473  0.2799 -0.4031
  720MOL0     C97126   2.871   1.844  10.192 -0.0968  0.2443 -0.3242
  720MOL0     C97127   2.988   1.814  10.090 -0.9285  0.7305 -0.1162
  720MOL0     C97128   2.970   1.728   9.963  0.1498  0.2802  0.0794
  720MOL0     C97129   2.847   1.752   9.891  0.4195  0.0222  0.1542
  720MOL0     C97130   2.725   1.751   9.847 -0.3816 -0.1378 -0.2384
  720MOL0     C97131   2.736   2.110   9.921  0.1426 -1.2463  0.0890
  720MOL0     C97132   2.631   2.127   9.824  0.2812  0.2252 -0.9529
  720MOL0     H97133   2.175   2.168   9.641 -0.8381 -1.2241  0.1254
  720MOL0     H97134   2.026   2.189   9.462  0.3528 -0.6743  0.7184
  720MOL0     H97135   1.929   2.171   9.302  3.2459 -2.2195  1.9750
  720MOL0     H97136   1.872   2.119   9.151 -2.4712 -2.1677  0.2250
  720MOL0     H97137   1.886   1.881   9.222  5.0897 -0.1725  2.8010
  720MOL0     H97138   1.873   1.924   9.396 -1.1939  1.0520  1.0890
  720MOL0     H97139   1.651   1.878   9.338 -0.0622 -2.8167 -3.7342
  720MOL0     H97140   1.670   2.047   9.339  2.4342  0.3369  0.7677
  720MOL0     H97141   1.676   2.056   9.082  0.2993 -0.7211 -0.6651
  720MOL0     H97142   1.614   1.880   9.084  1.5715  0.1972 -1.1421
  720MOL0     H97143   1.489   2.107   9.227  0.9713 -0.3741  0.4289
  720MOL0     H97144   1.445   2.050   9.069 -0.3397  3.0280  1.6763
  720MOL0     H97145   1.423   1.812   9.194 -0.8747 -0.8759  1.9871
  720MOL0     H97146   1.418   1.910   9.338  1.5121 -4.4992 -0.0101
  720MOL0     H97147   1.245   2.056   9.230  3.9314  0.7264  0.1933
  720MOL0     H97148   1.217   1.934   9.100  1.2233 -1.6040 -0.6034
  720MOL0     H97149   1.200   1.871   9.405  1.6184 -1.9257 -0.5081
  720MOL0     H97150   1.179   1.759   9.265  2.1035 -0.8194  2.0207
  720MOL0     H97151   0.946   1.912   9.492 -2.2583 -1.2876  0.8110
  720MOL0     H97152   0.666   1.923   9.466  0.4304 -2.0926 -2.2962
  720MOL0     H97153   0.734   2.096   9.444 -1.4009  1.0678 -0.4458
  720MOL0     H97154   0.538   1.937   9.260  1.4231 -1.0361 -0.3292
  720MOL0     H97155   0.627   2.089   9.213  0.7885  0.2325  0.8070
  720MOL0     H97156   0.416   2.142   9.249  3.0254 -2.1345 -1.7010
  720MOL0     H97157   0.493   2.202   9.403 -2.5177  0.2639  1.1927
  720MOL0     H97158   0.426   2.028   9.528 -1.5863  0.9741  1.2000
  720MOL0     H97159   0.338   1.952   9.394  2.9390 -0.7016 -0.1991
  720MOL0     H97160   0.136   2.343   9.560  3.4342 -0.5116 -0.1957
  720MOL0     H97161   0.058   2.471   9.706 -0.9106 -0.2773 -0.7386
  720MOL0     H97162  -0.110   2.410   9.713 -1.1869 -4.0821  1.6750
  720MOL0     H97163  -0.010   2.422   9.858  0.0876  4.6891 -0.5089
  720MOL0     H97164  -0.252   1.892  10.101 -1.6876  0.1898  0.6801
  720MOL0     H97165  -0.316   1.867  10.354  0.3731  0.3639 -1.0320
  720MOL0     H97166  -0.119   2.114  10.659  0.9507  0.9233 -1.6497
  720MOL0     H97167  -0.220   2.231  10.562  1.4774  1.4703  1.3872
  720MOL0     H97168  -0.294   2.057  10.797 -0.4016  0.8789  1.1826
  720MOL0     H97169  -0.328   2.222  10.783  0.0674  2.3160 -2.2849
  720MOL0     H97170  -0.461   2.008  10.613 -0.8804  1.2503 -3.3953
  720MOL0     H97171  -0.491   2.175  10.587  1.1935  0.6823  0.0321
  720MOL0     H97172  -0.541   2.075  10.880 -0.2607 -0.3991  0.0426
  720MOL0     H97173  -0.569   2.222  10.809 -0.6568 -0.1843  1.1258
  720MOL0     H97174  -0.690   1.948  10.732 -2.3717  0.2009 -2.2804
  720MOL0     H97175  -0.720   2.088  10.631 -1.9446 -3.0753 -1.2813
  720MOL0     H97176  -0.782   2.079  10.937 -2.8199 -0.8660  1.1005
  720MOL0     H97177  -0.845   2.190  10.805  1.6078 -0.0771 -1.8244
  720MOL0     H97178  -0.899   1.888  10.839  1.7730  0.1153 -4.3474
  720MOL0     H97179  -0.963   2.010  10.721  0.7131 -2.2472 -1.2890
  720MOL0     H97180  -1.133   1.969  10.905 -1.4625  1.8419  0.9546
  720MOL0     H97181  -1.086   2.130  10.866 -2.3026 -2.3759 -2.3142
  720MOL0     H97182  -0.037   2.194  10.408  1.0121  0.6804 -0.8234
  720MOL0     H97183   0.041   2.179  10.211  0.4007  0.3517  1.2116
  720MOL0     H97184   0.085   1.930   9.843 -0.2320  2.7771  2.4984
  720MOL0     H97185   0.242   1.932   9.648 -0.7825 -0.9907  1.9859
  720MOL0     H97186   2.299   1.948   9.222  1.5042 -1.5465  0.8559
  720MOL0     H97187   2.478   2.013   9.402 -0.3754  1.2139 -0.3968
  720MOL0     H97188   2.396   1.942   9.988  1.8929 -4.5185  0.2824
  720MOL0     H97189   2.583   1.933  10.150 -2.2924  0.4526 -1.0413
  720MOL0     H97190   2.906   2.024  10.313  0.6188 -1.4302  0.5605
  720MOL0     H97191   2.742   1.962  10.305  1.5080 -1.2653  1.1045
  720MOL0     H97192   2.787   1.777  10.169 -0.4499 -0.7602  3.2668
  720MOL0     H97193   2.904   1.805  10.289  2.5750  2.6788 -0.1067
  720MOL0     H97194   3.070   1.775  10.151 -0.6762 -0.1465 -0.9915
  720MOL0     H97195   3.027   1.912  10.059  1.2212 -0.2623 -0.7149
  720MOL0     H97196   2.960   1.622   9.988  2.6728 -0.5652 -1.9720
  720MOL0     H97197   3.054   1.745   9.895  0.6006 -0.3909  0.4429
  720MOL0     H97198   2.624   1.751   9.811  0.6363 -1.9911 -3.4255
  720MOL0     H97199   2.829   2.162   9.899 -0.1058 -0.5852  0.5675
  720MOL0     H97200   2.661   2.187   9.738 -0.5269 -0.1656 -1.5233
  721MOL0     O97201   1.473   5.875   7.011  1.1367 -0.4293  0.3997
  721MOL0     C97202   1.508   5.939   7.108 -0.1205 -0.7657  0.3431
  721MOL0     O97203   1.425   5.974   7.212 -0.2235 -1.2640  0.6343
  721MOL0     C97204   1.327   5.895   7.265 -0.4898 -0.1915  0.3066
  721MOL0     C97205   1.230   5.957   7.337  1.2538 -0.3221  0.1935
  721MOL0     C97206   1.120   5.894   7.398 -0.2176  1.1040  0.2761
  721MOL0     C97207   1.101   5.753   7.399 -0.6706  0.3461 -0.1951
  721MOL0     O97208   1.005   5.699   7.475  0.0662  0.7671 -0.5709
  721MOL0     C97209   0.967   5.560   7.445 -0.2240  0.1375 -0.8111
  721MOL0     C97210   0.853   5.510   7.528 -0.1704  0.0653  0.1003
  721MOL0     C97211   0.727   5.599   7.515 -0.0985  0.5689  0.3817
  721MOL0     C97212   0.603   5.538   7.572 -0.1411 -0.0479  0.4564
  721MOL0     C97213   0.584   5.574   7.712 -0.2370  0.4364 -0.0535
  721MOL0     C97214   0.475   5.494   7.785 -0.0630  0.3303  0.0601
  721MOL0     C97215   0.335   5.531   7.725  0.1867  0.1710 -0.9964
  721MOL0     C97216   0.225   5.432   7.760 -0.4342 -0.7952 -0.1522
  721MOL0     N97217   0.108   5.436   7.666 -0.4113 -1.0949 -1.0879
  721MOL0     C97218  -0.015   5.489   7.693 -1.2965 -0.1930 -0.9982
  721MOL0     C97219  -0.085   5.489   7.574 -0.9095 -0.9759 -0.4795
  721MOL0     C97220  -0.231   5.544   7.572 -0.5056  0.2467  1.4978
  721MOL0     C97221  -0.272   5.595   7.420  0.0049  0.3211  0.3254
  721MOL0     C97222  -0.422   5.636   7.417  0.0756 -0.8556 -0.3203
  721MOL0     C97223  -0.512   5.524   7.355  0.2915 -0.6116  0.0956
  721MOL0     O97224  -0.653   5.549   7.370  0.4186 -0.2499  0.5910
  721MOL0     C97225  -0.711   5.458   7.444  0.1296  0.0499 -0.9417
  721MOL0     C97226  -0.791   5.375   7.377  0.0790 -0.2275 -0.1756
  721MOL0     C97227  -0.861   5.278   7.442  0.0804  0.1252  0.1913
  721MOL0     C97228  -0.951   5.186   7.359 -0.1738 -0.0263  0.7067
  721MOL0     C97229  -0.841   5.267   7.582  0.4413 -0.3504 -0.7048
  721MOL0     C97230  -0.902   5.162   7.655  0.2817 -0.2711 -0.4358
  721MOL0     O97231  -0.813   5.080   7.709 -0.7845  0.0412  0.1561
  721MOL0     C97232  -0.862   4.962   7.750  1.0337 -0.9354  0.3880
  721MOL0     C97233  -0.867   4.939   7.886  0.6657 -0.2814 -0.5185
  721MOL0     C97234  -0.910   4.819   7.934 -0.4284 -0.0943 -0.3189
  721MOL0     C97235  -0.944   4.721   7.849  0.3720 -0.1596 -0.7529
  721MOL0     O97236  -0.970   4.603   7.908  0.4256  0.7828 -0.1768
  721MOL0     C97237  -1.056   4.504   7.841  0.2725 -1.3063 -0.2130
  721MOL0     C97238  -1.054   4.371   7.906  0.1570  0.5054 -0.9543
  721MOL0     C97239  -1.169   4.373   8.008  0.3273 -0.6807 -0.6592
  721MOL0     C97240  -1.183   4.242   8.078 -0.0371  0.6273  0.4871
  721MOL0     C97241  -1.308   4.270   8.154  0.6075 -0.1481 -0.2956
  721MOL0     C97242  -1.297   4.379   8.259 -0.2810 -0.0539  0.4324
  721MOL0     C97243  -1.433   4.386   8.329 -0.0145 -0.6216 -0.1618
  721MOL0     C97244  -1.455   4.487   8.444  0.5360  0.1063  0.3010
  721MOL0    Cl97245  -1.612   4.473   8.526 -0.1126  0.1273 -0.1383
  721MOL0     C97246  -0.940   4.744   7.710  0.9122 -0.3919 -0.1692
  721MOL0     C97247  -0.904   4.868   7.662 -0.8131  0.6222  1.5477
  721MOL0     O97248  -1.025   5.148   7.664  0.7550  0.2411  0.0168
  721MOL0     C97249  -0.761   5.354   7.652 -0.9978 -0.3615 -0.2408
  721MOL0     C97250  -0.691   5.453   7.581  0.2855 -0.0873 -0.8546
  721MOL0     N97251  -0.012   5.435   7.477 -0.9250  0.5631 -0.2139
  721MOL0     N97252   0.106   5.406   7.531 -0.4971  0.2094  0.2910
  721MOL0     C97253   1.213   5.684   7.341  0.6524  0.0108 -0.0460
  721MOL0     C97254   1.313   5.750   7.265 -0.4128  0.2750 -1.5215
  721MOL0     C97255   1.634   6.030   7.088  0.3338  0.2762  0.4117
  721MOL0     C97256   1.691   6.027   6.959  0.0013  0.1109 -0.0612
  721MOL0     C97257   1.805   6.101   6.928  0.6319 -0.1414 -0.0433
  721MOL0     C97258   1.852   6.193   7.023 -0.2824  0.0306 -0.1657
  721MOL0     O97259   1.950   6.280   6.990 -0.4709 -0.0473  0.3043
  721MOL0     C97260   1.897   6.364   6.882 -0.3302  0.0202 -0.2222
  721MOL0     C97261   1.995   6.366   6.757  0.2895 -0.4240 -0.7420
  721MOL0     C97262   2.135   6.400   6.812 -0.2432  0.5293 -0.1051
  721MOL0     C97263   2.241   6.407   6.698  0.8484  0.7360 -0.4501
  721MOL0     C97264   2.365   6.462   6.743  0.2613 -0.3765  0.0918
  721MOL0     C97265   2.469   6.505   6.781 -1.4531 -0.5545  0.1433
  721MOL0     C97266   1.806   6.187   7.158  0.8288  0.2115 -0.4486
  721MOL0     C97267   1.696   6.096   7.188  0.6706 -0.7817  0.4013
  721MOL0     H97268   1.230   6.065   7.326 -0.6908 -0.3679 -0.5339
  721MOL0     H97269   1.039   5.943   7.450 -1.0184  0.8132 -0.6813
  721MOL0     H97270   0.939   5.549   7.340  2.5307 -1.2140 -1.5007
  721MOL0     H97271   1.046   5.488   7.471  0.4916  1.0729 -0.3220
  721MOL0     H97272   0.832   5.403   7.516 -2.6206  0.2601  1.9697
  721MOL0     H97273   0.874   5.529   7.633 -1.1494 -3.2852  1.0013
  721MOL0     H97274   0.739   5.703   7.548  0.4890  0.9798 -1.0463
  721MOL0     H97275   0.707   5.599   7.407  0.2378  1.7290  0.3034
  721MOL0     H97276   0.520   5.575   7.511  0.1598 -0.5220 -0.2465
  721MOL0     H97277   0.599   5.430   7.556 -1.3931  0.0087  0.2694
  721MOL0     H97278   0.684   5.575   7.756 -0.2099  0.9890 -0.1133
  721MOL0     H97279   0.553   5.679   7.717 -0.6987  0.2795  0.4704
  721MOL0     H97280   0.502   5.389   7.769 -0.5458 -0.0069  1.2984
  721MOL0     H97281   0.499   5.515   7.890  0.2312 -1.3966  0.3749
  721MOL0     H97282   0.302   5.633   7.749  0.5552 -0.4426  2.6321
  721MOL0     H97283   0.337   5.524   7.616 -0.1090  0.1358 -1.0015
  721MOL0     H97284   0.196   5.444   7.864  1.4981  1.7276  0.1908
  721MOL0     H97285   0.271   5.333   7.752  1.5809 -0.2095  2.7127
  721MOL0     H97286  -0.050   5.537   7.783 -0.1372  0.7511 -1.0407
  721MOL0     H97287  -0.282   5.450   7.595  0.8336 -0.8639  0.0860
  721MOL0     H97288  -0.256   5.628   7.638 -0.9817  0.0755  1.5409
  721MOL0     H97289  -0.249   5.511   7.354 -2.3104  0.3060 -0.5410
  721MOL0     H97290  -0.214   5.683   7.391  1.5117 -0.5744  0.5032
  721MOL0     H97291  -0.410   5.721   7.349  0.9194 -2.5914 -2.4998
  721MOL0     H97292  -0.469   5.657   7.513  1.7011  0.0686  0.3142
  721MOL0     H97293  -0.482   5.424   7.389 -1.1082 -1.2354 -0.4323
  721MOL0     H97294  -0.495   5.522   7.247 -0.3487  1.0182 -0.0658
  721MOL0     H97295  -0.790   5.389   7.269 -1.3959 -0.7877 -0.2810
  721MOL0     H97296  -1.026   5.123   7.407 -0.6980 -0.3385 -0.4769
  721MOL0     H97297  -1.002   5.247   7.285 -0.6316  0.5420  1.4780
  721MOL0     H97298  -0.886   5.114   7.308 -1.8402 -0.7460 -0.4966
  721MOL0     H97299  -0.825   5.017   7.948 -0.2051 -1.7823  2.1060
  721MOL0     H97300  -0.905   4.821   8.042  0.9518  4.1463 -0.2800
  721MOL0     H97301  -1.152   4.555   7.828  0.5474  0.0340  2.3488
  721MOL0     H97302  -1.023   4.481   7.739 -0.7613 -0.2826 -0.8135
  721MOL0     H97303  -1.077   4.286   7.841 -1.7057 -0.8210  1.2670
  721MOL0     H97304  -0.958   4.354   7.956  0.2785 -0.1171 -1.3989
  721MOL0     H97305  -1.264   4.405   7.966 -1.1452 -3.3324  0.4481
  721MOL0     H97306  -1.133   4.453   8.074  0.9164 -1.1817 -0.3610
  721MOL0     H97307  -1.192   4.157   8.010  1.2975  0.7900  0.0644
  721MOL0     H97308  -1.102   4.230   8.151 -0.0900 -2.1689  0.2179
  721MOL0     H97309  -1.342   4.176   8.198  0.2402  0.7318  1.3916
  721MOL0     H97310  -1.392   4.311   8.097 -1.6921  1.2210  3.6804
  721MOL0     H97311  -1.216   4.369   8.332 -0.1496  2.1658  0.6700
  721MOL0     H97312  -1.275   4.480   8.222  1.8242 -0.4333  0.5223
  721MOL0     H97313  -1.467   4.289   8.366 -1.4991  0.6524  2.0238
  721MOL0     H97314  -1.505   4.422   8.255  1.6499  0.4191 -1.3528
  721MOL0     H97315  -1.439   4.591   8.411 -0.1675 -0.2529 -1.2281
  721MOL0     H97316  -1.376   4.466   8.516 -0.5523 -0.8873  1.2294
  721MOL0     H97317  -0.957   4.662   7.640  1.4246  0.1928 -0.9980
  721MOL0     H97318  -0.893   4.881   7.555 -0.7805  1.9630  1.6996
  721MOL0     H97319  -0.748   5.354   7.760 -0.6332  1.1359 -0.2581
  721MOL0     H97320  -0.633   5.525   7.637 -0.6994 -1.0728  1.5896
  721MOL0     H97321   1.216   5.576   7.355  2.0597  0.2637  2.0581
  721MOL0     H97322   1.375   5.689   7.201 -1.5281 -3.0659  0.3382
  721MOL0     H97323   1.643   5.975   6.877 -1.2296  1.6681 -0.3761
  721MOL0     H97324   1.836   6.097   6.824  1.5137 -0.9784  0.2461
  721MOL0     H97325   1.793   6.338   6.858 -1.4800 -0.2386  4.1853
  721MOL0     H97326   1.892   6.464   6.927  2.0768 -0.1800  0.6477
  721MOL0     H97327   1.962   6.452   6.699 -1.6159 -0.3021  0.4150
  721MOL0     H97328   1.997   6.281   6.688  1.0395 -0.2381 -0.9579
  721MOL0     H97329   2.166   6.323   6.882  1.9769  0.3927 -1.1289
  721MOL0     H97330   2.122   6.491   6.871 -2.1086 -0.1277  0.5394
  721MOL0     H97331   2.210   6.463   6.609  0.7915  0.5340 -0.5587
  721MOL0     H97332   2.259   6.305   6.663 -1.3723  0.7682 -1.8558
  721MOL0     H97333   2.560   6.531   6.832 -1.6330 -2.9055  1.8396
  721MOL0     H97334   1.853   6.249   7.232 -1.3519  1.7907 -0.2954
  721MOL0     H97335   1.653   6.082   7.286 -1.1857  3.5699  0.4633
  722MOL0     O97336   1.158   8.971  10.663  0.1587 -0.3340 -0.4570
  722MOL0     C97337   1.204   8.868  10.707 -0.4382 -0.1890 -0.8794
  722MOL0     O97338   1.144   8.754  10.723  0.3337  0.0270  0.5863
  722MOL0     C97339   1.017   8.729  10.694  0.0180  0.4026  0.9559
  722MOL0     C97340   0.906   8.816  10.701  0.2923  0.1494 -0.6649
  722MOL0     C97341   0.769   8.767  10.705  0.3170  0.0009 -0.0670
  722MOL0     C97342   0.747   8.629  10.693  0.3708  0.1708 -1.1215
  722MOL0     O97343   0.629   8.557  10.693  0.1929  0.6579  0.3727
  722MOL0     C97344   0.512   8.617  10.637  1.0406 -0.5162 -0.1385
  722MOL0     C97345   0.431   8.705  10.731  0.2534  0.1083 -0.5832
  722MOL0     C97346   0.283   8.704  10.701 -0.1918  0.4678 -0.1903
  722MOL0     C97347   0.247   8.795  10.583 -0.0829  0.7029  0.2928
  722MOL0     C97348   0.230   8.940  10.641 -0.5828  0.6863  0.6426
  722MOL0     C97349   0.172   9.028  10.530 -0.0371  0.0853 -0.1897
  722MOL0     C97350   0.107   9.160  10.567 -0.6495 -1.0879 -0.3526
  722MOL0     C97351   0.211   9.274  10.586 -0.8019 -0.3500 -0.5358
  722MOL0     N97352   0.207   9.365  10.466 -0.3882 -0.0795 -0.3411
  722MOL0     C97353   0.267   9.348  10.345  0.9408  0.7739  0.3445
  722MOL0     C97354   0.195   9.425  10.258  0.2670  0.5847 -0.3863
  722MOL0     C97355   0.231   9.436  10.114 -0.0790  1.1714  0.0247
  722MOL0     C97356   0.268   9.576  10.062  0.2997 -0.5503 -0.1615
  722MOL0     C97357   0.159   9.649   9.992  0.5503 -0.0204  1.4721
  722MOL0     C97358   0.030   9.658  10.064  0.2325  0.0492 -0.2747
  722MOL0     O97359  -0.043   9.764  10.007 -0.3655  0.3323 -0.5886
  722MOL0     C97360  -0.141   9.827  10.077 -0.0411 -0.2843  0.0896
  722MOL0     C97361  -0.177   9.800  10.212  0.2297  0.3919  0.7758
  722MOL0     C97362  -0.282   9.867  10.272  0.5682  0.6243 -0.2966
  722MOL0     C97363  -0.301   9.834  10.414 -0.7218 -0.1753  0.3821
  722MOL0     C97364  -0.351   9.975  10.209  0.3837 -0.2492  1.0811
  722MOL0     C97365  -0.461  10.050  10.269  0.5761  0.2473  0.7213
  722MOL0     O97366  -0.482  10.185  10.240  0.4296  0.1422  0.6068
  722MOL0     C97367  -0.601  10.245  10.217  0.2670 -0.0084 -0.4461
  722MOL0     C97368  -0.636  10.379  10.253 -0.7642  0.5806 -0.1240
  722MOL0     C97369  -0.758  10.438  10.243  0.0966 -0.3628 -0.1850
  722MOL0     C97370  -0.867  10.367  10.185 -0.4495  0.0088  0.3408
  722MOL0     O97371  -0.996  10.408  10.154  0.1051  0.2744 -0.0451
  722MOL0     C97372  -1.019  10.550  10.178  0.3800  0.7184  0.8483
  722MOL0     C97373  -1.162  10.595  10.129  0.3841  0.5562 -0.0106
  722MOL0     C97374  -1.202  10.549   9.984 -0.5170  0.2212  0.2656
  722MOL0     C97375  -1.086  10.563   9.882  0.6228 -0.5348 -0.3859
  722MOL0     C97376  -1.153  10.581   9.746 -0.2217  0.1757  0.3260
  722MOL0     C97377  -1.058  10.587   9.628  0.6097  0.2243  0.9424
  722MOL0     C97378  -1.119  10.602   9.484  0.7028 -0.3188  0.5715
  722MOL0     C97379  -1.027  10.541   9.376 -0.5760 -0.6101  0.3786
  722MOL0    Cl97380  -0.861  10.599   9.400  0.3907  0.0687 -0.1227
  722MOL0     C97381  -0.841  10.242  10.130 -1.1077  0.4735  0.4683
  722MOL0     C97382  -0.716  10.174  10.154 -0.0528  0.0875  0.1418
  722MOL0     O97383  -0.541   9.984  10.325  0.5381 -0.1146  0.4410
  722MOL0     C97384  -0.294  10.016  10.086  0.0821 -0.0162  0.2199
  722MOL0     C97385  -0.196   9.939  10.010 -0.3265 -0.1591 -0.2666
  722MOL0     N97386   0.099   9.494  10.330 -0.3206  0.9020 -0.8648
  722MOL0     N97387   0.102   9.447  10.460  0.8176  0.6276  1.0996
  722MOL0     C97388   0.856   8.547  10.686  0.6697  0.8202  0.1816
  722MOL0     C97389   0.984   8.593  10.677  0.5572 -0.1501 -0.5418
  722MOL0     C97390   1.344   8.858  10.732 -1.2921 -1.0834  1.6786
  722MOL0     C97391   1.419   8.738  10.717 -0.1052 -0.2449  0.5956
  722MOL0     C97392   1.559   8.734  10.744 -0.4324 -0.1200 -0.3386
  722MOL0     C97393   1.623   8.853  10.780  0.5542 -0.4578 -1.2405
  722MOL0     O97394   1.762   8.854  10.806  0.3725  0.4735  0.1635
  722MOL0     C97395   1.836   8.945  10.730 -0.1550 -0.6662  0.1143
  722MOL0     C97396   1.987   8.913  10.761  0.4121 -0.2949  0.8904
  722MOL0     C97397   2.090   9.018  10.711  0.5853 -0.1357 -0.2348
  722MOL0     C97398   2.228   8.961  10.714 -0.1988  0.8230 -0.8414
  722MOL0     C97399   2.256   8.855  10.815 -0.5922 -1.3593  0.6589
  722MOL0     C97400   2.272   8.775  10.900  0.1018  0.3403 -0.2225
  722MOL0     C97401   1.552   8.967  10.799  0.5488  1.0036 -0.6737
  722MOL0     C97402   1.417   8.976  10.776 -0.0710  0.1477 -0.1345
  722MOL0     H97403   0.923   8.922  10.716 -0.4499  0.2999 -0.8274
  722MOL0     H97404   0.686   8.835  10.724  0.0385 -0.5400  0.6711
  722MOL0     H97405   0.532   8.679  10.549  1.7487 -0.3092  0.1638
  722MOL0     H97406   0.444   8.540  10.598 -0.0236  1.2307 -1.9459
  722MOL0     H97407   0.453   8.679  10.835  0.3835 -1.0310 -0.8824
  722MOL0     H97408   0.458   8.806  10.701 -2.9145  0.6363 -2.0959
  722MOL0     H97409   0.262   8.601  10.670  1.7339 -0.9167  2.6365
  722MOL0     H97410   0.220   8.726  10.788  0.3427  1.1488  0.0296
  722MOL0     H97411   0.319   8.793  10.501 -1.5474 -1.4632 -1.0229
  722MOL0     H97412   0.157   8.762  10.530  0.7208 -0.3725 -0.4400
  722MOL0     H97413   0.162   8.938  10.727 -2.6789 -1.6653 -0.9032
  722MOL0     H97414   0.329   8.983  10.658  0.2688  0.0749 -2.3243
  722MOL0     H97415   0.255   9.054  10.465 -1.1608 -0.3236 -1.8577
  722MOL0     H97416   0.101   8.979  10.463  1.9270  0.7707 -2.9479
  722MOL0     H97417   0.028   9.188  10.498  1.4789  0.4689 -2.3080
  722MOL0     H97418   0.066   9.152  10.668  2.1317 -3.2661  0.7611
  722MOL0     H97419   0.314   9.239  10.594  0.6304  3.2452 -0.9567
  722MOL0     H97420   0.189   9.327  10.679  2.1158 -1.1034  0.7138
  722MOL0     H97421   0.353   9.290  10.315 -0.0499  0.0761 -1.2953
  722MOL0     H97422   0.321   9.377  10.099 -0.9201 -0.4888  1.2034
  722MOL0     H97423   0.153   9.381  10.060 -0.6080 -1.7167  3.3662
  722MOL0     H97424   0.352   9.562   9.993  3.9226  4.4237  2.6422
  722MOL0     H97425   0.318   9.638  10.137  0.5089  0.3248 -1.0003
  722MOL0     H97426   0.149   9.593   9.899 -1.0365  0.8144  1.1152
  722MOL0     H97427   0.198   9.748   9.968  0.6073 -0.5954 -1.0677
  722MOL0     H97428   0.062   9.670  10.168  2.9379 -2.1203 -0.7225
  722MOL0     H97429  -0.016   9.559  10.054 -1.0027  0.7383 -2.0246
  722MOL0     H97430  -0.128   9.718  10.263 -2.6456 -0.0249  3.1539
  722MOL0     H97431  -0.367   9.905  10.465 -0.1756  1.2710 -0.8209
  722MOL0     H97432  -0.336   9.732  10.434  0.0528 -0.6643 -0.6819
  722MOL0     H97433  -0.199   9.830  10.452 -0.9585 -2.1426  0.9154
  722MOL0     H97434  -0.562  10.443  10.300  0.4876 -1.9629  1.5930
  722MOL0     H97435  -0.774  10.542  10.268 -4.1829 -1.2690  1.7009
  722MOL0     H97436  -1.014  10.564  10.286  1.7030  0.2032  0.8765
  722MOL0     H97437  -0.939  10.608  10.130  2.3477  0.0611  3.1242
  722MOL0     H97438  -1.237  10.565  10.203  1.3756 -1.2927  0.3054
  722MOL0     H97439  -1.157  10.704  10.138 -2.0686  0.8711 -1.5262
  722MOL0     H97440  -1.288  10.607   9.948 -0.0708  1.4549  1.1000
  722MOL0     H97441  -1.234  10.445   9.980 -1.2029  0.3799  1.3818
  722MOL0     H97442  -1.032  10.656   9.901  1.7837 -0.8864 -1.7918
  722MOL0     H97443  -1.013  10.481   9.888 -1.5852 -2.7603 -1.7466
  722MOL0     H97444  -1.228  10.660   9.737 -0.8104 -0.5469 -1.4397
  722MOL0     H97445  -1.214  10.491   9.728  0.2809 -0.4639  1.6623
  722MOL0     H97446  -0.971  10.648   9.653  1.4299 -1.7249  3.2257
  722MOL0     H97447  -1.010  10.489   9.630  1.1980  0.5161  1.4599
  722MOL0     H97448  -1.126  10.709   9.461 -1.8949  0.1254  2.8759
  722MOL0     H97449  -1.222  10.568   9.469 -0.5280  3.4653 -0.7034
  722MOL0     H97450  -1.054  10.569   9.273  0.6164  0.7518  0.4053
  722MOL0     H97451  -1.029  10.433   9.393  2.2985 -0.8112 -0.0921
  722MOL0     H97452  -0.917  10.190  10.072 -1.1080 -0.6604  1.4519
  722MOL0     H97453  -0.714  10.071  10.119  1.4717  0.8179 -2.1980
  722MOL0     H97454  -0.337  10.098  10.030 -1.7648 -2.3872 -2.1048
  722MOL0     H97455  -0.152   9.972   9.917 -1.0768 -0.0245 -0.5820
  722MOL0     H97456   0.845   8.439  10.678  0.9901  0.7260  1.0111
  722MOL0     H97457   1.062   8.517  10.670  1.0051 -0.0413  2.1305
  722MOL0     H97458   1.370   8.644  10.697  1.9205 -1.6085  1.6326
  722MOL0     H97459   1.622   8.647  10.731  0.0963  0.5010 -2.2647
  722MOL0     H97460   1.814   8.914  10.628 -2.1202 -4.6024  1.5240
  722MOL0     H97461   1.815   9.051  10.746  0.0574 -0.7929  1.3175
  722MOL0     H97462   2.007   8.813  10.720 -0.1449 -0.8466  1.9423
  722MOL0     H97463   2.003   8.913  10.869  1.1036  0.4139  0.7943
  722MOL0     H97464   2.074   9.106  10.774 -2.4715 -2.7334  3.0547
  722MOL0     H97465   2.066   9.052  10.610  1.2207  0.4819 -0.1869
  722MOL0     H97466   2.295   9.045  10.734 -1.9547  2.5472 -1.8779
  722MOL0     H97467   2.252   8.929  10.612 -0.7845  0.3000 -0.8178
  722MOL0     H97468   2.282   8.706  10.981 -1.7989  0.2495 -0.0064
  722MOL0     H97469   1.612   9.048  10.839  0.1574 -1.4894  6.3181
  722MOL0     H97470   1.376   9.075  10.797  0.7514  0.2940  0.8781
  723MOL0     O97471   9.681   8.168   9.295  0.1859  0.3561 -0.6233
  723MOL0     C97472   9.556   8.173   9.292 -0.2424 -0.1789 -0.5481
  723MOL0     O97473   9.473   8.183   9.396 -0.2794 -0.1116 -0.6423
  723MOL0     C97474   9.535   8.191   9.520  0.2135 -0.8735  0.0573
  723MOL0     C97475   9.582   8.310   9.580 -0.1772 -0.6562 -0.2052
  723MOL0     C97476   9.627   8.302   9.714  0.5956 -0.1067 -0.5713
  723MOL0     C97477   9.637   8.175   9.776  1.1716  0.3152 -0.0693
  723MOL0     O97478   9.673   8.152   9.911 -0.3997 -0.3094  0.2486
  723MOL0     C97479   9.745   8.251   9.988 -0.2951 -1.3170  0.2542
  723MOL0     C97480   9.862   8.177  10.068 -0.8163 -1.1013 -1.2249
  723MOL0     C97481   9.967   8.267  10.140 -0.3001 -0.1750 -0.1801
  723MOL0     C97482   9.935   8.414  10.151 -0.4239 -0.1673  0.8057
  723MOL0     C97483  10.034   8.507  10.219 -0.1151  0.0490 -0.2959
  723MOL0     C97484  10.042   8.481  10.366 -0.2497  0.1304 -0.1074
  723MOL0     C97485  10.121   8.588  10.443 -0.3615  0.2312  0.4244
  723MOL0     C97486  10.036   8.702  10.501 -0.4389 -0.2095  0.2191
  723MOL0     N97487   9.972   8.795  10.407 -0.2676 -0.4239 -0.2128
  723MOL0     C97488   9.848   8.793  10.353  0.2999  0.2984 -0.6459
  723MOL0     C97489   9.854   8.870  10.239  0.0311 -0.6564  0.2543
  723MOL0     C97490   9.753   8.903  10.130 -0.5594 -0.0791  0.3490
  723MOL0     C97491   9.624   8.967  10.195  0.3358  0.9779  0.2686
  723MOL0     C97492   9.511   8.952  10.090  1.1765  0.2745  0.1695
  723MOL0     C97493   9.539   9.036   9.966 -0.6975  0.3370 -0.3420
  723MOL0     O97494   9.417   9.027   9.896  0.1962  0.1295 -0.0310
  723MOL0     C97495   9.393   8.919   9.815  0.5508  0.1052  0.0252
  723MOL0     C97496   9.268   8.938   9.753 -0.4783  0.4289  0.7790
  723MOL0     C97497   9.210   8.839   9.667 -0.7828  0.3999 -0.5878
  723MOL0     C97498   9.079   8.869   9.608  0.2843 -0.7680  0.0885
  723MOL0     C97499   9.286   8.718   9.641  0.3806  1.5223  0.3298
  723MOL0     C97500   9.242   8.602   9.569  0.3686 -0.1513  0.4390
  723MOL0     O97501   9.116   8.567   9.579 -0.5002 -0.3556 -0.2497
  723MOL0     C97502   9.058   8.509   9.471  0.7181 -0.1325 -0.9584
  723MOL0     C97503   9.108   8.496   9.336  0.3349  0.6832 -0.1765
  723MOL0     C97504   9.028   8.441   9.239 -0.4788 -0.1624 -0.1856
  723MOL0     C97505   8.902   8.388   9.263 -0.2427  0.2063 -0.1474
  723MOL0     O97506   8.839   8.342   9.150 -0.1202 -0.3953 -0.6502
  723MOL0     C97507   8.693   8.337   9.130  1.1021 -0.5070  0.0707
  723MOL0     C97508   8.654   8.291   8.990 -0.4441 -0.1593  0.0523
  723MOL0     C97509   8.661   8.134   8.974 -0.5054 -0.0730 -0.6297
  723MOL0     C97510   8.635   8.091   8.829 -0.4962 -0.0578 -0.4814
  723MOL0     C97511   8.621   7.935   8.819  1.4385  0.3205 -0.3718
  723MOL0     C97512   8.585   7.898   8.680 -0.1216  0.1595  0.0945
  723MOL0     C97513   8.435   7.925   8.652 -0.0762 -0.5273 -0.0152
  723MOL0     C97514   8.405   7.910   8.504 -0.3918  0.1474  0.1171
  723MOL0    Cl97515   8.226   7.861   8.495 -0.1176  0.3712  0.3592
  723MOL0     C97516   8.850   8.387   9.393 -0.1149 -0.3241 -0.4589
  723MOL0     C97517   8.931   8.452   9.487 -0.7199 -0.6175 -0.3554
  723MOL0     O97518   9.327   8.542   9.504  0.3261  0.7516  0.4487
  723MOL0     C97519   9.416   8.704   9.699  0.0973 -0.4007 -0.5899
  723MOL0     C97520   9.468   8.803   9.789 -0.2625  0.0161 -0.1654
  723MOL0     N97521   9.982   8.923  10.225  0.5387  0.3376 -0.3182
  723MOL0     N97522  10.043   8.888  10.327 -1.0225  1.0640 -0.1533
  723MOL0     C97523   9.574   8.062   9.720 -0.1069 -0.6242 -0.2862
  723MOL0     C97524   9.523   8.073   9.593  0.0041  0.8908  0.6711
  723MOL0     C97525   9.496   8.182   9.164  0.1065  0.7030  0.3335
  723MOL0     C97526   9.358   8.182   9.161 -0.1611  0.8392  0.4217
  723MOL0     C97527   9.284   8.183   9.043  0.4669 -0.5781 -0.0573
  723MOL0     C97528   9.347   8.194   8.916  0.1909 -0.2398  1.3777
  723MOL0     O97529   9.285   8.207   8.796  0.0859  0.0370 -0.2116
  723MOL0     C97530   9.141   8.185   8.799  0.2447  0.0043  0.7509
  723MOL0     C97531   9.101   8.035   8.813 -0.1496 -0.2908 -0.6140
  723MOL0     C97532   9.154   7.961   8.690 -0.7529 -0.5852 -0.0587
  723MOL0     C97533   9.055   7.836   8.675 -0.1956 -0.4165  1.1688
  723MOL0     C97534   9.108   7.759   8.561  0.0191 -0.5520 -0.3566
  723MOL0     C97535   9.154   7.696   8.467 -0.1683 -0.6903  0.1974
  723MOL0     C97536   9.489   8.202   8.918  0.7626  0.5134  0.7297
  723MOL0     C97537   9.559   8.196   9.038  0.7065  0.0708 -0.8929
  723MOL0     H97538   9.570   8.408   9.535 -2.1447 -1.5879 -1.8884
  723MOL0     H97539   9.651   8.395   9.764 -1.2967 -0.0740  0.3317
  723MOL0     H97540   9.792   8.324   9.922 -1.2081 -2.2718 -1.5145
  723MOL0     H97541   9.672   8.297  10.056  0.9741 -1.9001  2.0711
  723MOL0     H97542   9.820   8.100  10.134 -2.0777 -0.9520 -1.8092
  723MOL0     H97543   9.921   8.124   9.992  1.0912 -1.8740  0.7046
  723MOL0     H97544   9.976   8.236  10.245 -1.2095 -0.9201 -0.3058
  723MOL0     H97545  10.062   8.245  10.092  0.0426 -0.4396  0.5936
  723MOL0     H97546   9.925   8.450  10.048  0.3467 -2.9989 -0.3797
  723MOL0     H97547   9.839   8.431  10.199  0.6689  0.7781  2.7633
  723MOL0     H97548  10.137   8.486  10.187  1.4414  1.6902  3.0205
  723MOL0     H97549  10.010   8.611  10.194  1.3706 -0.0621 -2.3864
  723MOL0     H97550   9.942   8.474  10.410 -0.0580 -2.4114  0.0890
  723MOL0     H97551  10.084   8.383  10.390 -0.8464  0.0236  0.5439
  723MOL0     H97552  10.185   8.536  10.515 -2.0756 -0.6585  1.3645
  723MOL0     H97553  10.197   8.638  10.382 -0.9067  0.2958 -0.2224
  723MOL0     H97554  10.093   8.756  10.577 -2.6731  0.8651  1.2357
  723MOL0     H97555   9.950   8.658  10.552 -1.5765 -0.5058 -1.8570
  723MOL0     H97556   9.760   8.742  10.390  0.8229 -0.9915 -1.1232
  723MOL0     H97557   9.787   8.985  10.067 -1.5899  0.4937  0.5127
  723MOL0     H97558   9.729   8.813  10.072  1.2740 -0.7315  0.5362
  723MOL0     H97559   9.650   9.071  10.217  3.3134  0.5235 -0.6589
  723MOL0     H97560   9.585   8.912  10.282 -0.8556  1.2513 -0.0682
  723MOL0     H97561   9.417   8.980  10.138 -1.2929  0.5659 -4.3136
  723MOL0     H97562   9.502   8.849  10.055  2.7621 -0.2096  1.0745
  723MOL0     H97563   9.614   8.982   9.908 -0.5042 -0.4719  0.6331
  723MOL0     H97564   9.573   9.137   9.991  1.9326 -0.3469 -0.8362
  723MOL0     H97565   9.210   9.029   9.766  0.1848  1.0156 -0.1853
  723MOL0     H97566   9.091   8.877   9.499  1.0366 -0.3866  0.1936
  723MOL0     H97567   9.011   8.785   9.626  0.0886 -0.6338 -0.0267
  723MOL0     H97568   9.024   8.950   9.655 -0.8406 -1.0214 -0.7301
  723MOL0     H97569   9.209   8.527   9.312  0.0229  1.7926 -0.0994
  723MOL0     H97570   9.060   8.450   9.136 -1.5076 -1.5946 -0.6555
  723MOL0     H97571   8.640   8.288   9.212  2.7064 -1.3843  0.6166
  723MOL0     H97572   8.659   8.441   9.138  1.9465 -0.1231 -1.0675
  723MOL0     H97573   8.547   8.310   8.976 -1.0188 -2.5983  0.6732
  723MOL0     H97574   8.711   8.344   8.913  1.5660 -1.2982  0.6724
  723MOL0     H97575   8.582   8.096   9.038 -0.4226  1.1283  0.2277
  723MOL0     H97576   8.758   8.094   9.004 -1.4068 -1.0885  1.0694
  723MOL0     H97577   8.556   8.145   8.777  1.0191  0.2505 -2.6422
  723MOL0     H97578   8.731   8.107   8.778 -0.9131 -0.3338 -1.3568
  723MOL0     H97579   8.546   7.903   8.892  1.7355  1.3867  0.4321
  723MOL0     H97580   8.712   7.887   8.857  1.1314 -0.3215 -0.4324
  723MOL0     H97581   8.664   7.948   8.624  0.1641  0.5969  0.8756
  723MOL0     H97582   8.601   7.790   8.669 -2.1229 -0.1040 -0.8995
  723MOL0     H97583   8.390   8.023   8.672 -0.6593 -0.5643 -1.0607
  723MOL0     H97584   8.368   7.857   8.706 -0.4456  2.0071  3.0337
  723MOL0     H97585   8.460   7.827   8.459  0.2155 -1.0029  2.8099
  723MOL0     H97586   8.433   7.999   8.445 -1.6975 -1.8482 -3.8405
  723MOL0     H97587   8.747   8.357   9.410 -0.8414  1.5688 -1.1629
  723MOL0     H97588   8.901   8.455   9.592  2.5771 -2.6001  0.7991
  723MOL0     H97589   9.475   8.613   9.691  0.4664 -0.3457  1.1384
  723MOL0     H97590   9.562   8.781   9.839 -0.5573  2.1177  1.4808
  723MOL0     H97591   9.586   7.965   9.769  2.4259 -0.2085  0.0108
  723MOL0     H97592   9.472   7.987   9.550  2.2069  0.4394 -1.2708
  723MOL0     H97593   9.302   8.173   9.253  2.1891 -1.2504  1.7625
  723MOL0     H97594   9.180   8.187   9.071  0.5725 -1.6430  0.5407
  723MOL0     H97595   9.081   8.228   8.880 -1.3400 -3.2232  1.4883
  723MOL0     H97596   9.102   8.222   8.704 -0.0073 -1.4591  0.2499
  723MOL0     H97597   8.993   8.028   8.824 -0.1446 -2.7570 -1.5977
  723MOL0     H97598   9.149   7.991   8.901 -3.4401 -0.0708  1.4436
  723MOL0     H97599   9.253   7.921   8.711 -1.3861 -2.8132 -0.9866
  723MOL0     H97600   9.145   8.022   8.599 -0.5598 -0.6925 -0.1507
  723MOL0     H97601   8.950   7.856   8.654  0.4980  1.7552 -0.6481
  723MOL0     H97602   9.070   7.770   8.761 -0.2247 -2.1394 -0.0962
  723MOL0     H97603   9.184   7.633   8.386 -1.0536 -0.0877 -0.6369
  723MOL0     H97604   9.540   8.204   8.822 -2.9359  1.5034 -1.4469
  723MOL0     H97605   9.667   8.201   9.044  0.7320  0.4938 -1.6452
  724MOL0     O97606   2.740   4.080   2.220 -0.0732 -1.1576 -0.6057
  724MOL0     C97607   2.700   3.984   2.151  0.0238 -0.6886 -0.5063
  724MOL0     O97608   2.632   3.992   2.038  0.2871  0.4414 -0.6902
  724MOL0     C97609   2.605   4.114   1.988 -0.2688 -1.3600  0.4819
  724MOL0     C97610   2.702   4.209   1.949 -0.3150 -0.8750  0.4633
  724MOL0     C97611   2.671   4.335   1.894 -0.0706 -0.0335 -0.6648
  724MOL0     C97612   2.535   4.366   1.873  1.0313 -0.0164  0.7594
  724MOL0     O97613   2.508   4.494   1.823 -0.0977 -0.5070  0.2099
  724MOL0     C97614   2.386   4.542   1.754  0.3368 -0.4685  0.9074
  724MOL0     C97615   2.408   4.655   1.660  0.1092  0.0109  0.1021
  724MOL0     C97616   2.482   4.614   1.529  0.1359  0.1874  0.4438
  724MOL0     C97617   2.397   4.539   1.426  0.3941  0.3236  0.8333
  724MOL0     C97618   2.484   4.505   1.301  0.6153  0.3246  0.3964
  724MOL0     C97619   2.386   4.449   1.200 -0.1483  0.3950 -0.5306
  724MOL0     C97620   2.471   4.405   1.084  0.1706 -1.3175  0.2348
  724MOL0     C97621   2.514   4.530   0.994 -0.5042 -0.0039 -0.2541
  724MOL0     N97622   2.407   4.586   0.910  0.7643  0.5884  0.5362
  724MOL0     C97623   2.302   4.526   0.842  0.1337  0.2123 -0.1630
  724MOL0     C97624   2.241   4.611   0.769 -0.7153 -0.5122 -0.0316
  724MOL0     C97625   2.148   4.567   0.657 -0.5107 -0.3213  0.3492
  724MOL0     C97626   2.054   4.686   0.630 -0.8886  0.7168  0.2824
  724MOL0     C97627   1.926   4.644   0.561 -0.1189 -0.1072 -0.9426
  724MOL0     C97628   1.959   4.567   0.435  0.0573  0.0935 -0.6196
  724MOL0     O97629   1.848   4.567   0.342  0.3953  0.3013 -0.3499
  724MOL0     C97630   1.879   4.502   0.223  0.2538 -0.5149 -0.5660
  724MOL0     C97631   1.796   4.533   0.116  0.3078  0.5310  0.4695
  724MOL0     C97632   1.816   4.486  -0.013  0.0980 -0.1794  0.8139
  724MOL0     C97633   1.723   4.528  -0.117 -0.0491 -0.5353 -0.4639
  724MOL0     C97634   1.928   4.403  -0.038  0.3123 -0.3677 -0.8356
  724MOL0     C97635   1.956   4.337  -0.180 -0.6893  0.7245 -0.3585
  724MOL0     O97636   1.896   4.401  -0.286  0.0768 -0.2666 -0.1878
  724MOL0     C97637   1.874   4.342  -0.403 -0.4729 -0.7331 -0.8803
  724MOL0     C97638   1.846   4.433  -0.501 -1.0679 -0.3578  0.4798
  724MOL0     C97639   1.807   4.384  -0.624 -0.5124 -0.4302  0.4642
  724MOL0     C97640   1.796   4.243  -0.656 -0.1451  0.1659 -0.0462
  724MOL0     O97641   1.764   4.218  -0.791  0.3877 -0.6327 -0.5841
  724MOL0     C97642   1.708   4.091  -0.834  0.6202  0.0712  0.4375
  724MOL0     C97643   1.656   4.114  -0.979  0.5483 -0.2109  0.2454
  724MOL0     C97644   1.565   4.000  -1.034  0.2045 -0.5907  0.5126
  724MOL0     C97645   1.484   4.047  -1.151  0.0116 -0.3494  0.9758
  724MOL0     C97646   1.487   3.944  -1.267  0.5166  0.2128 -1.2993
  724MOL0     C97647   1.408   4.017  -1.387 -0.2114  0.3342  0.2957
  724MOL0     C97648   1.355   3.911  -1.494  0.1697  0.4685 -0.1751
  724MOL0     C97649   1.304   3.988  -1.611 -0.9525  0.4678  0.2235
  724MOL0    Cl97650   1.162   4.081  -1.564 -0.5091  0.5612 -0.8458
  724MOL0     C97651   1.824   4.152  -0.554  0.3335 -0.3847 -0.5010
  724MOL0     C97652   1.870   4.202  -0.429 -0.2066  0.4296 -0.5351
  724MOL0     O97653   2.035   4.240  -0.181  0.1158 -0.2929  0.3884
  724MOL0     C97654   2.010   4.368   0.071  0.2275  0.4267 -0.7173
  724MOL0     C97655   1.992   4.420   0.200 -0.0101  0.5161 -0.0495
  724MOL0     N97656   2.310   4.733   0.778  0.0343  0.2502  0.4038
  724MOL0     N97657   2.400   4.718   0.867 -0.2847  0.0238 -0.4330
  724MOL0     C97658   2.431   4.280   1.917  0.2930 -0.4319  0.6383
  724MOL0     C97659   2.469   4.161   1.979  0.0008 -0.4976  0.0769
  724MOL0     C97660   2.730   3.857   2.208  0.0347  0.6107 -0.4684
  724MOL0     C97661   2.823   3.848   2.312 -0.1335 -0.1672 -0.5164
  724MOL0     C97662   2.853   3.719   2.364 -0.1724  0.0276  0.1904
  724MOL0     C97663   2.795   3.600   2.308  0.5834  0.3315  0.2175
  724MOL0     O97664   2.841   3.492   2.366 -0.0169 -0.1704 -0.4560
  724MOL0     C97665   2.841   3.365   2.288 -0.6257  0.4562 -0.5976
  724MOL0     C97666   2.972   3.367   2.201  0.4372  1.1141  0.4356
  724MOL0     C97667   3.103   3.386   2.270 -0.2785 -0.1732 -0.5139
  724MOL0     C97668   3.231   3.373   2.183  0.7866 -0.7780  0.3013
  724MOL0     C97669   3.353   3.362   2.262  0.8163  0.0868  0.3701
  724MOL0     C97670   3.455   3.352   2.329  0.5720  0.3317 -0.4638
  724MOL0     C97671   2.693   3.611   2.205 -0.8935  0.0165 -0.2704
  724MOL0     C97672   2.662   3.739   2.157 -0.3940  0.7183 -0.9993
  724MOL0     H97673   2.807   4.193   1.969 -0.3711  1.4611  3.5716
  724MOL0     H97674   2.747   4.407   1.866 -0.6333  2.3261  3.1788
  724MOL0     H97675   2.335   4.463   1.698 -2.9697  1.6138  0.7435
  724MOL0     H97676   2.308   4.573   1.824 -1.6706 -0.5227 -1.2139
  724MOL0     H97677   2.315   4.709   1.641  0.4688  0.7048  0.2898
  724MOL0     H97678   2.476   4.721   1.715  0.9693 -1.2829  0.6282
  724MOL0     H97679   2.500   4.712   1.484 -1.4583  1.4021  2.2919
  724MOL0     H97680   2.573   4.564   1.562 -0.4301 -0.6850  0.7256
  724MOL0     H97681   2.371   4.439   1.459  0.9005 -0.2403 -0.4235
  724MOL0     H97682   2.312   4.604   1.403  1.1409  0.4289 -2.0611
  724MOL0     H97683   2.539   4.590   1.260 -0.5119  1.3685  0.9617
  724MOL0     H97684   2.546   4.425   1.340 -1.2514 -1.1718  0.4372
  724MOL0     H97685   2.332   4.361   1.236  3.8854 -2.7720 -1.4497
  724MOL0     H97686   2.311   4.522   1.167 -0.7901 -0.5737 -1.2983
  724MOL0     H97687   2.544   4.329   1.113  1.1767 -0.3734  0.2278
  724MOL0     H97688   2.402   4.357   1.014 -3.8795 -0.2218  3.1337
  724MOL0     H97689   2.600   4.494   0.937  0.1599 -1.5024  1.5710
  724MOL0     H97690   2.539   4.617   1.056 -0.0765 -1.2463  1.3962
  724MOL0     H97691   2.279   4.420   0.837  1.6394 -0.1376 -0.0624
  724MOL0     H97692   2.211   4.542   0.571  2.9969  1.7812  2.0719
  724MOL0     H97693   2.088   4.485   0.697 -0.2356 -1.1121 -0.7925
  724MOL0     H97694   2.099   4.764   0.568 -1.0416  2.1384  1.9216
  724MOL0     H97695   2.034   4.728   0.728  1.1172  1.6011  0.3532
  724MOL0     H97696   1.863   4.733   0.551  0.4307  0.8052  2.3877
  724MOL0     H97697   1.860   4.576   0.616 -0.2413  0.6738 -0.0938
  724MOL0     H97698   1.983   4.463   0.458 -0.3133  0.4908  1.8698
  724MOL0     H97699   2.048   4.620   0.399 -0.8733  3.3601  1.4299
  724MOL0     H97700   1.709   4.596   0.131 -0.1429 -0.1252  0.6355
  724MOL0     H97701   1.778   4.595  -0.185 -0.9799  0.5905 -0.1383
  724MOL0     H97702   1.680   4.450  -0.180  2.2620 -0.7433 -1.8976
  724MOL0     H97703   1.634   4.579  -0.080 -0.9068 -1.2440 -1.4804
  724MOL0     H97704   1.843   4.542  -0.498  2.6927 -0.1425  3.9048
  724MOL0     H97705   1.798   4.460  -0.701  4.3366 -0.4238 -0.4582
  724MOL0     H97706   1.787   4.016  -0.836  1.6731  1.1656 -1.3003
  724MOL0     H97707   1.630   4.049  -0.769 -0.0663 -0.9818 -0.9994
  724MOL0     H97708   1.590   4.200  -0.969 -0.6550 -1.1047  0.3169
  724MOL0     H97709   1.738   4.134  -1.049  0.7860 -0.8806  0.3166
  724MOL0     H97710   1.488   3.980  -0.959 -0.2234  0.4060  0.3458
  724MOL0     H97711   1.621   3.907  -1.054 -0.1964 -1.0368  1.4118
  724MOL0     H97712   1.377   4.062  -1.133  0.1638  3.3705 -0.2887
  724MOL0     H97713   1.534   4.138  -1.184 -0.8554 -0.3881 -0.5636
  724MOL0     H97714   1.437   3.854  -1.231  0.8032  0.4436 -0.2817
  724MOL0     H97715   1.583   3.909  -1.307 -0.0169 -4.7536  0.9729
  724MOL0     H97716   1.322   4.072  -1.348 -0.4946 -0.6164  1.0728
  724MOL0     H97717   1.480   4.087  -1.429  0.2119 -0.0145  0.4275
  724MOL0     H97718   1.272   3.854  -1.451  1.1882  0.5024  1.9510
  724MOL0     H97719   1.428   3.831  -1.510  0.0026 -0.1902  2.0534
  724MOL0     H97720   1.283   3.924  -1.697 -0.8387 -1.8703  1.8308
  724MOL0     H97721   1.382   4.055  -1.647  1.6383 -1.7066  1.4183
  724MOL0     H97722   1.826   4.043  -0.557 -0.3515 -0.3827 -1.2782
  724MOL0     H97723   1.908   4.132  -0.355  3.0699  2.1354 -0.4339
  724MOL0     H97724   2.079   4.286   0.056 -3.4157 -3.0652  0.1120
  724MOL0     H97725   2.073   4.395   0.268  0.9546 -0.1177 -1.3883
  724MOL0     H97726   2.329   4.316   1.925 -0.6221 -2.5618 -0.7589
  724MOL0     H97727   2.389   4.117   2.038 -1.7013  2.7173  0.3566
  724MOL0     H97728   2.874   3.933   2.358  0.6752 -0.9128 -0.0052
  724MOL0     H97729   2.925   3.707   2.444  1.2601 -0.2457 -1.0852
  724MOL0     H97730   2.829   3.285   2.362 -0.2320  0.6012 -0.3796
  724MOL0     H97731   2.753   3.339   2.227 -0.4210 -3.5817  0.5217
  724MOL0     H97732   2.959   3.448   2.130 -3.8075  1.0685  0.8781
  724MOL0     H97733   2.963   3.269   2.152  2.2127  0.3359  1.5272
  724MOL0     H97734   3.107   3.305   2.343  2.2796  1.6450  1.5761
  724MOL0     H97735   3.102   3.489   2.308 -2.9917 -0.5541  0.6410
  724MOL0     H97736   3.238   3.455   2.111 -0.0367 -0.3694  0.6686
  724MOL0     H97737   3.221   3.278   2.128 -3.5794 -0.7245  0.6666
  724MOL0     H97738   3.550   3.346   2.377  0.2266  3.1369  0.7517
  724MOL0     H97739   2.641   3.520   2.180 -0.0429 -0.9219  1.2188
  724MOL0     H97740   2.584   3.739   2.081 -0.4241  1.1339 -0.9709
  725MOL0     O97741   1.422  11.052   2.752  1.1338 -0.8506  0.1192
  725MOL0     C97742   1.413  11.018   2.634 -0.4437  0.0436  0.1275
  725MOL0     O97743   1.302  10.974   2.572  0.4341 -0.1981 -0.1393
  725MOL0     C97744   1.184  10.982   2.638 -0.0360  0.1961 -0.2710
  725MOL0     C97745   1.146  10.877   2.717  0.5194  0.3425 -0.0118
  725MOL0     C97746   1.020  10.895   2.784 -0.3573  0.5851  0.2699
  725MOL0     C97747   0.954  11.008   2.787  0.8416 -0.2179 -0.0645
  725MOL0     O97748   0.839  11.035   2.862 -1.1685  0.1304  0.1696
  725MOL0     C97749   0.741  10.927   2.858  0.3193 -1.2767 -0.5410
  725MOL0     C97750   0.613  10.975   2.924  0.3544 -0.5462  0.0390
  725MOL0     C97751   0.497  11.003   2.830 -0.8476  0.5738  0.0899
  725MOL0     C97752   0.523  11.135   2.745  0.0436  0.2190 -0.2849
  725MOL0     C97753   0.415  11.150   2.633 -0.1297  0.7307 -0.3785
  725MOL0     C97754   0.458  11.071   2.512  0.3362  0.4028  0.1138
  725MOL0     C97755   0.361  11.089   2.392 -0.9088  0.0264  0.8047
  725MOL0     C97756   0.403  11.026   2.255  0.2118  0.1799 -0.1782
  725MOL0     N97757   0.537  11.060   2.213 -0.3806 -0.3581  0.5401
  725MOL0     C97758   0.576  11.189   2.183 -0.1172  0.2841  0.1947
  725MOL0     C97759   0.709  11.175   2.167 -0.4052  0.1117  0.2582
  725MOL0     C97760   0.799  11.288   2.125 -0.2504  0.1327 -0.0975
  725MOL0     C97761   0.836  11.273   1.973 -0.2011 -0.8934 -0.0363
  725MOL0     C97762   0.750  11.364   1.877 -0.0644  0.1789 -0.5702
  725MOL0     C97763   0.788  11.341   1.739  0.5198  0.3615  0.5538
  725MOL0     O97764   0.711  11.432   1.657 -0.6041 -0.5795 -0.0153
  725MOL0     C97765   0.580  11.442   1.636  0.2341 -0.4648 -0.5072
  725MOL0     C97766   0.521  11.560   1.584 -0.6244 -0.1950 -0.6880
  725MOL0     C97767   0.387  11.572   1.571 -0.3039  0.0396  0.1980
  725MOL0     C97768   0.341  11.716   1.531 -0.1150  0.9726  0.2499
  725MOL0     C97769   0.299  11.462   1.591 -0.6818 -0.5812 -1.0505
  725MOL0     C97770   0.149  11.476   1.559  0.4024  0.9793 -0.5755
  725MOL0     O97771   0.068  11.370   1.612 -0.5155 -0.5056  0.3791
  725MOL0     C97772  -0.055  11.345   1.553  0.6054  0.4173  0.2729
  725MOL0     C97773  -0.148  11.264   1.619 -0.4700 -0.1466 -0.0138
  725MOL0     C97774  -0.270  11.234   1.571  0.9884  0.0999 -0.0318
  725MOL0     C97775  -0.321  11.300   1.459 -0.4452  0.4613  0.4261
  725MOL0     O97776  -0.446  11.260   1.424  0.1908 -0.6406  0.2546
  725MOL0     C97777  -0.499  11.294   1.295 -0.5566 -0.1233  0.2341
  725MOL0     C97778  -0.627  11.211   1.272 -0.3637  0.1913 -0.3131
  725MOL0     C97779  -0.624  11.057   1.278  0.3793  0.8589  0.0228
  725MOL0     C97780  -0.757  10.987   1.240  0.4208 -0.3959  0.6128
  725MOL0     C97781  -0.758  10.841   1.274 -0.9253 -0.0200  0.2092
  725MOL0     C97782  -0.759  10.832   1.427  0.0165  0.0285 -0.3845
  725MOL0     C97783  -0.759  10.680   1.470  0.9487  1.0214  0.0610
  725MOL0     C97784  -0.776  10.654   1.622 -0.7847  1.0031 -0.5062
  725MOL0    Cl97785  -0.935  10.718   1.686 -0.1920 -0.3953  0.3134
  725MOL0     C97786  -0.239  11.390   1.392  0.9640 -0.5298 -0.5580
  725MOL0     C97787  -0.105  11.404   1.434 -0.0664  0.1610  0.7053
  725MOL0     O97788   0.114  11.562   1.479  0.1981 -0.8894 -0.8446
  725MOL0     C97789   0.356  11.344   1.647  0.8410  0.2893 -0.0778
  725MOL0     C97790   0.494  11.335   1.676 -0.6981  0.2276  0.1214
  725MOL0     N97791   0.740  11.046   2.189 -0.3543  0.8211 -0.2010
  725MOL0     N97792   0.643  10.973   2.218  0.0070 -0.0937  0.2676
  725MOL0     C97793   0.997  11.115   2.711 -0.2316  0.3469  0.2696
  725MOL0     C97794   1.109  11.098   2.631  1.0529  0.2874 -0.3310
  725MOL0     C97795   1.545  10.999   2.569  0.5452  0.6701 -0.9134
  725MOL0     C97796   1.561  10.906   2.464 -0.5289 -0.2104  0.4224
  725MOL0     C97797   1.691  10.882   2.406  0.3103 -0.6500  0.1694
  725MOL0     C97798   1.806  10.937   2.465 -0.0388 -0.7110 -0.7292
  725MOL0     O97799   1.917  10.891   2.415 -0.1949 -0.6869  1.2703
  725MOL0     C97800   2.042  10.930   2.478  0.2249 -0.0079  0.2719
  725MOL0     C97801   2.147  10.908   2.382  0.0149  0.1967 -0.2522
  725MOL0     C97802   2.282  10.939   2.438 -0.5707 -0.1461 -0.1025
  725MOL0     C97803   2.332  11.072   2.381 -0.1288  0.2424  1.8201
  725MOL0     C97804   2.446  11.045   2.288  0.3292  0.7467 -0.3710
  725MOL0     C97805   2.535  11.022   2.211  0.4714  0.4319  0.6948
  725MOL0     C97806   1.785  11.028   2.570 -0.0563  1.2076 -0.0930
  725MOL0     C97807   1.656  11.065   2.616  0.1032 -0.1223 -0.8788
  725MOL0     H97808   1.196  10.784   2.739 -0.5857 -0.2166  0.2130
  725MOL0     H97809   0.982  10.812   2.844 -1.6373 -2.9289 -4.7905
  725MOL0     H97810   0.727  10.894   2.755 -0.7631  0.3413 -0.9437
  725MOL0     H97811   0.773  10.839   2.915  1.3603  0.8268  2.3660
  725MOL0     H97812   0.588  10.916   3.013 -2.2602 -4.1149 -2.7786
  725MOL0     H97813   0.630  11.070   2.976 -0.3338 -1.8521  2.8490
  725MOL0     H97814   0.486  10.919   2.762  3.5858  0.2075 -0.4584
  725MOL0     H97815   0.405  11.024   2.885  0.2739  3.6386  1.0623
  725MOL0     H97816   0.507  11.211   2.822 -0.4321  1.0542 -1.1875
  725MOL0     H97817   0.628  11.130   2.716  0.4896 -1.9310  1.4411
  725MOL0     H97818   0.320  11.109   2.669  2.1832 -6.1559 -0.6107
  725MOL0     H97819   0.412  11.254   2.601 -0.6988  1.5066  1.9627
  725MOL0     H97820   0.560  11.107   2.494  0.9941 -0.6938  1.4908
  725MOL0     H97821   0.465  10.966   2.542  0.5842 -0.1998 -1.9136
  725MOL0     H97822   0.265  11.048   2.423  0.3401 -2.6220  1.4025
  725MOL0     H97823   0.368  11.196   2.370  2.6667 -0.2172  0.1286
  725MOL0     H97824   0.330  11.061   2.181  0.5064  1.9504  0.3054
  725MOL0     H97825   0.415  10.919   2.272  2.7434  0.2866 -0.8578
  725MOL0     H97826   0.519  11.282   2.183  0.2542  0.5836 -2.2853
  725MOL0     H97827   0.737  11.377   2.130 -3.0488 -1.5518 -2.2148
  725MOL0     H97828   0.894  11.287   2.180  1.5841 -0.6453 -3.0516
  725MOL0     H97829   0.807  11.172   1.943 -2.1748 -0.3160 -0.1855
  725MOL0     H97830   0.942  11.289   1.951 -0.3847 -0.2809 -0.4998
  725MOL0     H97831   0.769  11.469   1.899 -0.1029  0.1049 -0.1810
  725MOL0     H97832   0.647  11.337   1.900 -1.0112  2.5591 -1.6095
  725MOL0     H97833   0.760  11.241   1.704 -0.8988  1.1056 -0.5332
  725MOL0     H97834   0.893  11.354   1.711 -0.1320 -0.7838 -2.9078
  725MOL0     H97835   0.580  11.641   1.543 -1.3383  0.7185  0.0235
  725MOL0     H97836   0.419  11.791   1.545  0.1841  0.8154 -0.5327
  725MOL0     H97837   0.299  11.720   1.431 -3.9962 -3.2333  1.3789
  725MOL0     H97838   0.262  11.741   1.603 -0.4952  0.6774 -0.0589
  725MOL0     H97839  -0.103  11.215   1.704  1.9891  0.1278 -1.0675
  725MOL0     H97840  -0.342  11.168   1.619  0.5535  0.8444  0.3567
  725MOL0     H97841  -0.522  11.400   1.287  1.1894  0.2301 -0.6591
  725MOL0     H97842  -0.423  11.268   1.221  1.6344  1.6828  1.7026
  725MOL0     H97843  -0.697  11.248   1.347 -0.6718 -1.8305  0.4764
  725MOL0     H97844  -0.672  11.233   1.175 -3.0325  1.3325  1.0822
  725MOL0     H97845  -0.595  11.052   1.383  0.2692  1.3347  0.0803
  725MOL0     H97846  -0.549  11.013   1.212  1.3139  1.0883  0.9141
  725MOL0     H97847  -0.834  11.038   1.299  1.0670  2.6744 -0.9604
  725MOL0     H97848  -0.787  11.001   1.136  1.1122  0.6087  0.5370
  725MOL0     H97849  -0.670  10.794   1.229 -1.5655  0.2267 -1.3587
  725MOL0     H97850  -0.845  10.786   1.237 -0.0076 -0.9925 -0.5779
  725MOL0     H97851  -0.665  10.870   1.467  0.9229 -1.2554 -1.1755
  725MOL0     H97852  -0.838  10.881   1.485 -0.7335 -0.1115 -1.2477
  725MOL0     H97853  -0.657  10.645   1.449  0.8095 -0.0023  0.9963
  725MOL0     H97854  -0.832  10.624   1.412  0.2792  0.7228  1.1582
  725MOL0     H97855  -0.693  10.695   1.680  1.0641 -2.5699 -0.3030
  725MOL0     H97856  -0.769  10.548   1.649 -0.2249  1.5835  1.8266
  725MOL0     H97857  -0.279  11.446   1.308 -1.9720 -0.1829  0.9479
  725MOL0     H97858  -0.060  11.482   1.373 -1.6467  1.3258  0.9623
  725MOL0     H97859   0.295  11.258   1.671  0.5937  1.2479  3.2576
  725MOL0     H97860   0.528  11.242   1.720 -0.5884  0.1523 -0.1218
  725MOL0     H97861   0.932  11.202   2.706  1.1461  1.4622  0.9990
  725MOL0     H97862   1.139  11.181   2.566  2.3903  1.7067  1.9595
  725MOL0     H97863   1.481  10.850   2.417 -2.0268  2.0146  0.1950
  725MOL0     H97864   1.686  10.815   2.321  0.3880  2.2554 -2.2608
  725MOL0     H97865   2.039  11.036   2.506 -3.1566 -0.5187  2.5023
  725MOL0     H97866   2.052  10.865   2.565  3.8063  1.7694  1.3792
  725MOL0     H97867   2.121  10.961   2.289  0.0508 -0.5117 -0.6769
  725MOL0     H97868   2.149  10.803   2.349 -1.7024  0.8797 -2.8256
  725MOL0     H97869   2.345  10.851   2.424 -1.0575 -0.8076  1.6239
  725MOL0     H97870   2.278  10.946   2.547  1.7026  0.3704 -0.0082
  725MOL0     H97871   2.370  11.140   2.459  0.8201 -0.1715  1.7400
  725MOL0     H97872   2.259  11.129   2.323 -0.9580 -0.2958  2.3317
  725MOL0     H97873   2.616  11.010   2.142 -0.6125  1.7759 -0.8619
  725MOL0     H97874   1.865  11.091   2.607  0.4711  0.1419  0.6085
  725MOL0     H97875   1.653  11.144   2.690  1.8581 -0.2023 -0.6717
  726MOL0     O97876   6.945   1.177   2.302  0.4792 -0.4349  1.0235
  726MOL0     C97877   7.026   1.261   2.326  0.4320 -0.1573  0.5490
  726MOL0     O97878   6.998   1.382   2.378 -0.0606 -0.6222 -0.1578
  726MOL0     C97879   6.875   1.434   2.417  0.3133 -0.2488  0.3914
  726MOL0     C97880   6.749   1.415   2.346  0.0828  0.4627  0.2750
  726MOL0     C97881   6.622   1.476   2.383 -0.5416 -0.0799  0.4903
  726MOL0     C97882   6.629   1.575   2.489  0.4144  0.3896 -1.0963
  726MOL0     O97883   6.541   1.663   2.538 -0.2807  0.3741  0.4192
  726MOL0     C97884   6.449   1.708   2.433  0.0116  0.1662 -0.5434
  726MOL0     C97885   6.360   1.825   2.468  0.7994 -0.0848 -0.4420
  726MOL0     C97886   6.312   1.835   2.611 -0.6063 -1.0700  0.9903
  726MOL0     C97887   6.237   1.967   2.616  0.2670 -0.9800  0.2809
  726MOL0     C97888   6.153   1.971   2.751 -0.3820  0.3345  0.4178
  726MOL0     C97889   6.039   1.859   2.735  0.2432 -0.1766  0.3484
  726MOL0     C97890   5.953   1.875   2.862  0.7308 -0.1715 -0.1971
  726MOL0     C97891   5.844   1.759   2.882 -0.0825 -1.2755  0.0835
  726MOL0     N97892   5.766   1.803   2.997 -0.6502 -0.4034 -0.1229
  726MOL0     C97893   5.665   1.888   2.997 -0.1133  1.0164 -0.3705
  726MOL0     C97894   5.603   1.867   3.117  0.6424 -0.9535 -0.3429
  726MOL0     C97895   5.492   1.965   3.162 -0.6880 -0.4933  0.4124
  726MOL0     C97896   5.364   1.920   3.097  0.3553 -0.5157 -0.3983
  726MOL0     C97897   5.248   2.012   3.129 -0.3276  0.3242 -0.4704
  726MOL0     C97898   5.136   1.984   3.029  0.7929 -0.0143 -0.9761
  726MOL0     O97899   5.071   1.854   3.055 -0.1852 -0.7931  0.4475
  726MOL0     C97900   4.944   1.874   3.092 -0.3668 -0.8871 -0.4684
  726MOL0     C97901   4.842   1.808   3.035  0.7530  0.5472  0.0648
  726MOL0     C97902   4.709   1.820   3.083 -1.5152 -0.4375 -0.0049
  726MOL0     C97903   4.604   1.727   3.025  0.8774  0.9804 -0.6308
  726MOL0     C97904   4.673   1.919   3.176  0.3966  0.1542  0.1969
  726MOL0     C97905   4.533   1.949   3.208  0.9541 -0.1012 -0.1084
  726MOL0     O97906   4.511   1.978   3.337 -0.3997  0.1256 -0.3246
  726MOL0     C97907   4.379   1.976   3.397  0.4374  1.0483  0.1435
  726MOL0     C97908   4.335   2.083   3.471  0.0572 -0.4573  1.2446
  726MOL0     C97909   4.209   2.083   3.521  0.1849 -0.0579  0.5453
  726MOL0     C97910   4.119   1.978   3.503  0.6264  0.4777  0.5674
  726MOL0     O97911   3.984   1.973   3.548 -0.3061  0.3906 -0.3427
  726MOL0     C97912   3.931   2.073   3.643 -0.8618  0.1469 -0.3177
  726MOL0     C97913   3.960   2.028   3.784 -0.2257  0.1272  0.2548
  726MOL0     C97914   3.860   2.077   3.902  0.2860  0.4719 -0.0527
  726MOL0     C97915   3.827   2.226   3.917  0.5769 -0.1388  0.7672
  726MOL0     C97916   3.721   2.253   4.032  0.4013  0.3075 -0.3905
  726MOL0     C97917   3.733   2.164   4.161 -0.1446  0.2085 -0.5595
  726MOL0     C97918   3.689   2.252   4.277 -1.1804  0.1669 -0.3285
  726MOL0     C97919   3.787   2.365   4.318 -0.7767 -0.3022 -0.5733
  726MOL0    Cl97920   3.921   2.294   4.423  1.3343  0.0068 -0.1870
  726MOL0     C97921   4.167   1.866   3.439  0.5552 -0.2757 -0.0411
  726MOL0     C97922   4.291   1.865   3.383 -1.5443  0.9083  1.1463
  726MOL0     O97923   4.452   1.959   3.113  0.1524  0.3517  0.3283
  726MOL0     C97924   4.774   1.990   3.236 -0.0944  0.3028 -0.6257
  726MOL0     C97925   4.907   1.954   3.205 -0.3555 -0.5111 -0.4278
  726MOL0     N97926   5.662   1.764   3.189 -0.8971 -0.5109 -0.1831
  726MOL0     N97927   5.763   1.723   3.112  0.6775 -0.6004 -0.0276
  726MOL0     C97928   6.754   1.587   2.555  0.0554  0.3589 -0.3930
  726MOL0     C97929   6.866   1.516   2.532 -0.8073  0.2199  0.3846
  726MOL0     C97930   7.162   1.240   2.292  0.3199  0.3538  0.2602
  726MOL0     C97931   7.261   1.326   2.328 -0.1532  0.5024  0.1900
  726MOL0     C97932   7.392   1.298   2.281 -0.7474 -0.5915 -0.4357
  726MOL0     C97933   7.426   1.183   2.204 -0.0266  0.0298  0.1682
  726MOL0     O97934   7.547   1.139   2.161 -0.5564 -0.3654  0.3747
  726MOL0     C97935   7.666   1.228   2.171 -0.5167 -0.4165  1.0816
  726MOL0     C97936   7.667   1.309   2.049 -0.1739  0.0080 -0.1888
  726MOL0     C97937   7.801   1.389   2.057 -0.0056 -1.0913  0.5491
  726MOL0     C97938   7.807   1.498   2.161 -0.1963 -0.3353 -0.9479
  726MOL0     C97939   7.879   1.444   2.288  0.4612  0.0141 -0.1467
  726MOL0     C97940   7.920   1.405   2.393 -1.0959  0.4668 -0.3259
  726MOL0     C97941   7.317   1.108   2.159  0.9757 -0.7324  0.6762
  726MOL0     C97942   7.188   1.137   2.203 -0.3349  0.5298 -0.8627
  726MOL0     H97943   6.746   1.337   2.270  0.0034 -2.4550  3.0368
  726MOL0     H97944   6.534   1.468   2.320 -0.1709 -2.6012  0.1885
  726MOL0     H97945   6.513   1.743   2.351  0.3597 -1.5787 -1.0723
  726MOL0     H97946   6.393   1.625   2.388 -0.6854 -0.2842  1.0901
  726MOL0     H97947   6.420   1.915   2.455 -0.7341  0.5364 -4.7572
  726MOL0     H97948   6.269   1.835   2.409 -1.1883  0.8785  2.5457
  726MOL0     H97949   6.238   1.754   2.613 -0.9663 -0.7514  0.6027
  726MOL0     H97950   6.387   1.822   2.690  0.6497  0.3656  0.0813
  726MOL0     H97951   6.312   2.046   2.607  1.8095 -2.4875 -0.5984
  726MOL0     H97952   6.161   1.981   2.538 -0.1234 -0.4387  0.7467
  726MOL0     H97953   6.216   1.946   2.837 -0.9999  0.3833  0.8924
  726MOL0     H97954   6.105   2.067   2.770 -1.4787  0.4612 -2.4658
  726MOL0     H97955   5.981   1.880   2.645  2.7227 -2.4444 -1.9121
  726MOL0     H97956   6.063   1.753   2.737  3.0729  0.3858  0.0845
  726MOL0     H97957   6.017   1.898   2.947 -0.4688  1.7643  0.2306
  726MOL0     H97958   5.891   1.961   2.834 -1.2655 -1.1374  1.0532
  726MOL0     H97959   5.901   1.671   2.913  0.4636 -1.3113 -0.9684
  726MOL0     H97960   5.781   1.744   2.793 -2.5053 -4.3997  2.1145
  726MOL0     H97961   5.640   1.962   2.922 -2.4533 -1.0855 -1.8343
  726MOL0     H97962   5.485   1.955   3.271 -0.9125 -1.9048  0.2906
  726MOL0     H97963   5.507   2.070   3.136 -0.1755 -1.0868 -1.9842
  726MOL0     H97964   5.334   1.825   3.142 -0.8941 -0.1021 -0.2933
  726MOL0     H97965   5.386   1.897   2.992  1.2303 -1.0999 -0.0946
  726MOL0     H97966   5.283   2.116   3.124  0.7631  0.2273  2.9833
  726MOL0     H97967   5.216   1.984   3.229 -3.0575  0.0358 -1.3527
  726MOL0     H97968   5.186   1.986   2.932  1.4269  3.5955 -0.6936
  726MOL0     H97969   5.080   2.077   3.039  1.3943  0.1218  2.0271
  726MOL0     H97970   4.861   1.732   2.961 -0.8479 -1.9229  2.0195
  726MOL0     H97971   4.530   1.696   3.100  1.3276  1.5866  0.0768
  726MOL0     H97972   4.556   1.775   2.940  1.1140 -0.4303 -1.5990
  726MOL0     H97973   4.648   1.629   3.003 -1.5400 -0.8831  2.0569
  726MOL0     H97974   4.402   2.167   3.464 -0.8613  0.1917 -3.5977
  726MOL0     H97975   4.190   2.159   3.596  0.9828  1.7961 -1.0522
  726MOL0     H97976   3.975   2.168   3.613  0.6684 -0.6915 -0.8762
  726MOL0     H97977   3.825   2.083   3.622 -1.2179  1.3023  1.8122
  726MOL0     H97978   3.952   1.919   3.779 -1.2397  0.2398 -1.6571
  726MOL0     H97979   4.060   2.054   3.820 -0.8020 -0.8350  2.7488
  726MOL0     H97980   3.910   2.038   3.992  0.1195 -0.8803 -0.5219
  726MOL0     H97981   3.760   2.039   3.883  0.2367  1.0441 -0.9904
  726MOL0     H97982   3.918   2.279   3.946  0.2382  1.4753 -0.9388
  726MOL0     H97983   3.813   2.277   3.821  5.8677  3.2791  1.3717
  726MOL0     H97984   3.619   2.242   3.995  0.3704 -1.3820  0.0962
  726MOL0     H97985   3.735   2.360   4.049  1.6892  0.1904 -0.6004
  726MOL0     H97986   3.661   2.081   4.151  0.1009 -0.5951  3.0043
  726MOL0     H97987   3.830   2.118   4.178 -1.1069 -2.3461 -1.3657
  726MOL0     H97988   3.676   2.189   4.366 -1.8032  1.4395  0.5258
  726MOL0     H97989   3.591   2.296   4.256 -2.0376  0.3206  3.3272
  726MOL0     H97990   3.728   2.436   4.377 -0.1879 -0.2804 -0.0022
  726MOL0     H97991   3.831   2.418   4.232  0.9737 -2.0313 -0.8155
  726MOL0     H97992   4.099   1.783   3.420  1.6518 -0.5505 -3.3936
  726MOL0     H97993   4.323   1.784   3.319 -2.1082  0.4502  1.4451
  726MOL0     H97994   4.748   2.051   3.322 -0.4816  0.5065 -0.8826
  726MOL0     H97995   4.978   2.003   3.271  1.5637 -3.9326  0.3050
  726MOL0     H97996   6.772   1.660   2.633  0.7877  2.3891 -2.3475
  726MOL0     H97997   6.944   1.550   2.599 -3.5396  5.1581  1.5723
  726MOL0     H97998   7.240   1.407   2.397 -1.2085  2.8436 -2.6806
  726MOL0     H97999   7.477   1.363   2.297 -0.4768 -1.0281 -0.0750
  726MOL0     H98000   7.668   1.288   2.263 -0.6088 -1.5735  1.8708
  726MOL0     H98001   7.763   1.179   2.160  0.6646  2.2125 -1.3315
  726MOL0     H98002   7.582   1.377   2.054 -0.3968 -0.1993 -1.0572
  726MOL0     H98003   7.660   1.251   1.957 -1.4431 -1.9258  1.0666
  726MOL0     H98004   7.798   1.443   1.962 -0.5525  1.7449  2.0952
  726MOL0     H98005   7.890   1.324   2.058  1.3913  0.3134 -4.0971
  726MOL0     H98006   7.705   1.521   2.194 -0.5549 -3.2745  0.3838
  726MOL0     H98007   7.851   1.589   2.119 -1.8999 -0.1271 -2.4089
  726MOL0     H98008   7.955   1.351   2.479 -1.0782 -2.0925 -1.8086
  726MOL0     H98009   7.324   1.016   2.101  1.2841  0.4883 -1.3139
  726MOL0     H98010   7.106   1.087   2.151  0.0959  0.8849 -1.9136
  727MOL0     O98011   7.764   0.856   9.064  0.0133  1.4506  0.4406
  727MOL0     C98012   7.855   0.800   8.994 -0.7433  0.0874  0.5421
  727MOL0     O98013   7.840   0.771   8.861  0.4762 -0.1448 -0.2776
  727MOL0     C98014   7.727   0.815   8.805  0.3243  0.3333  0.1315
  727MOL0     C98015   7.734   0.888   8.691 -0.1386 -0.0967  0.2218
  727MOL0     C98016   7.618   0.934   8.624  0.2644  0.0991 -0.3972
  727MOL0     C98017   7.484   0.909   8.671  0.4415 -0.6230 -0.4405
  727MOL0     O98018   7.387   0.983   8.615  0.5191  0.4221  0.1548
  727MOL0     C98019   7.278   1.024   8.692 -0.3438 -0.9362 -0.1696
  727MOL0     C98020   7.315   1.145   8.767  0.7170 -0.4882 -0.2509
  727MOL0     C98021   7.315   1.262   8.670  0.6127 -0.7716  0.0483
  727MOL0     C98022   7.359   1.392   8.739  0.1475  0.2900 -0.9334
  727MOL0     C98023   7.256   1.458   8.840 -0.5812  0.7613  1.0529
  727MOL0     C98024   7.173   1.568   8.782  0.2601 -0.6334  0.7080
  727MOL0     C98025   7.031   1.601   8.842  0.4103  0.8741 -0.3280
  727MOL0     C98026   6.929   1.488   8.798 -0.7328 -0.2164 -0.6732
  727MOL0     N98027   6.925   1.461   8.650 -0.2166 -0.6997 -0.4448
  727MOL0     C98028   6.941   1.340   8.586 -0.1636 -0.5324  0.6715
  727MOL0     C98029   6.874   1.355   8.465  0.3425  0.1230  0.1722
  727MOL0     C98030   6.866   1.254   8.350  0.6124 -0.4757  0.0163
  727MOL0     C98031   6.736   1.184   8.365 -0.0976 -0.0057  0.5564
  727MOL0     C98032   6.716   1.070   8.264  0.7437 -1.1447  0.4576
  727MOL0     C98033   6.789   0.944   8.269 -1.0396  0.3161 -0.0280
  727MOL0     O98034   6.939   0.951   8.263  0.2883 -0.8577 -0.6201
  727MOL0     C98035   7.013   0.851   8.317 -0.0802 -0.0605 -0.6350
  727MOL0     C98036   6.983   0.724   8.286 -0.4051  0.7021  0.6968
  727MOL0     C98037   7.055   0.614   8.343  0.0492  0.2101  0.5753
  727MOL0     C98038   7.014   0.475   8.290  0.4757 -0.1836  0.2502
  727MOL0     C98039   7.166   0.635   8.429  0.1726 -1.0491  0.2255
  727MOL0     C98040   7.254   0.531   8.485 -1.0705  0.4835  0.7642
  727MOL0     O98041   7.390   0.561   8.520  0.5993  0.5383  0.3230
  727MOL0     C98042   7.489   0.483   8.567 -0.0115  0.5298  0.1855
  727MOL0     C98043   7.616   0.544   8.600 -0.0279 -0.3858  1.0740
  727MOL0     C98044   7.729   0.476   8.661  0.6317  0.7626  0.6462
  727MOL0     C98045   7.715   0.331   8.685  0.1867  0.3164  0.2458
  727MOL0     O98046   7.816   0.244   8.729 -0.3976 -0.1876 -0.4096
  727MOL0     C98047   7.921   0.298   8.794  0.0896  1.0363 -1.4985
  727MOL0     C98048   7.990   0.191   8.878  0.0998  0.6628 -0.3372
  727MOL0     C98049   8.116   0.253   8.959 -0.1419 -0.1422  0.0988
  727MOL0     C98050   8.206   0.138   9.002 -0.1376  0.1487 -0.4742
  727MOL0     C98051   8.342   0.190   9.039 -0.2358  0.3409  0.9418
  727MOL0     C98052   8.430   0.065   9.064  0.4614  0.0659  0.3689
  727MOL0     C98053   8.560   0.092   9.136  0.0033 -0.6637 -0.4097
  727MOL0     C98054   8.651  -0.027   9.147 -0.3571  0.4470 -0.7019
  727MOL0    Cl98055   8.704  -0.080   8.978  0.1288 -0.3528  0.4286
  727MOL0     C98056   7.588   0.276   8.663 -0.2366  0.3986  0.2387
  727MOL0     C98057   7.478   0.349   8.604  0.7794 -0.2160  0.6016
  727MOL0     O98058   7.199   0.421   8.506 -0.1167  0.4322 -0.0779
  727MOL0     C98059   7.198   0.762   8.452 -0.6458 -0.0529  0.3525
  727MOL0     C98060   7.123   0.865   8.400 -0.3813 -0.6191 -0.2324
  727MOL0     N98061   6.835   1.488   8.457  0.1220 -0.5753 -0.2147
  727MOL0     N98062   6.847   1.531   8.573  0.3022 -0.0710 -0.1972
  727MOL0     C98063   7.488   0.827   8.783  0.4870  0.6723 -0.1696
  727MOL0     C98064   7.597   0.774   8.845  0.6618 -0.6253 -0.2579
  727MOL0     C98065   7.977   0.755   9.066  0.1637 -0.3718 -0.0696
  727MOL0     C98066   8.084   0.692   9.000  0.0022 -0.1122 -0.6382
  727MOL0     C98067   8.197   0.659   9.076 -0.7395  0.4134  0.3076
  727MOL0     C98068   8.209   0.686   9.214 -0.0232 -0.5394  0.2067
  727MOL0     O98069   8.310   0.655   9.297 -0.1171  0.1398 -0.0231
  727MOL0     C98070   8.409   0.560   9.254 -0.1928 -0.4080  0.6301
  727MOL0     C98071   8.492   0.523   9.375  0.9220  0.2527 -0.2195
  727MOL0     C98072   8.402   0.479   9.498 -0.1748 -0.1667  0.3242
  727MOL0     C98073   8.307   0.357   9.462  0.5508  0.1459  0.0071
  727MOL0     C98074   8.211   0.344   9.578 -0.0594 -0.0899 -0.0001
  727MOL0     C98075   8.149   0.340   9.681 -0.2471  0.2146  0.4004
  727MOL0     C98076   8.109   0.758   9.274  0.8375  1.0537  0.8557
  727MOL0     C98077   7.989   0.781   9.203  0.3060  0.0468 -0.6357
  727MOL0     H98078   7.828   0.916   8.644 -0.6455 -0.2727 -0.9281
  727MOL0     H98079   7.622   1.002   8.539 -0.5969  0.4452 -0.1700
  727MOL0     H98080   7.194   1.043   8.624 -0.8903  1.2103  1.0137
  727MOL0     H98081   7.245   0.962   8.776  0.3905  0.0460  0.8626
  727MOL0     H98082   7.255   1.163   8.856  0.7312 -0.7872 -0.1818
  727MOL0     H98083   7.419   1.152   8.800  0.2375  1.9913  0.8981
  727MOL0     H98084   7.383   1.242   8.586 -1.0116 -2.5304 -0.9188
  727MOL0     H98085   7.215   1.261   8.625 -1.3547 -0.9775  4.0110
  727MOL0     H98086   7.450   1.371   8.795  0.1963 -0.2849 -1.2239
  727MOL0     H98087   7.380   1.466   8.660  1.0924 -1.0409 -1.9647
  727MOL0     H98088   7.189   1.376   8.869 -0.1275 -1.1918 -2.7931
  727MOL0     H98089   7.311   1.484   8.932  0.1082  0.6094  0.6930
  727MOL0     H98090   7.227   1.661   8.800 -2.1956  1.4525 -1.9046
  727MOL0     H98091   7.156   1.561   8.675 -2.2510  2.3552  0.7882
  727MOL0     H98092   7.028   1.618   8.950  0.2342  2.1219 -0.5186
  727MOL0     H98093   6.997   1.695   8.798 -2.4564  1.3289  2.4551
  727MOL0     H98094   6.829   1.511   8.837 -0.2707 -1.0216  1.0982
  727MOL0     H98095   6.940   1.396   8.856  0.3664  1.3564  1.7783
  727MOL0     H98096   6.983   1.248   8.625  0.4130 -1.7092 -2.4249
  727MOL0     H98097   6.884   1.312   8.259 -1.1941 -2.2409 -1.5581
  727MOL0     H98098   6.951   1.184   8.353 -1.7211 -3.8828 -3.5203
  727MOL0     H98099   6.663   1.261   8.338  0.8250  1.2820  1.5973
  727MOL0     H98100   6.716   1.149   8.466  3.2155  0.4361  1.4928
  727MOL0     H98101   6.740   1.117   8.168  0.9078  1.7320  1.7986
  727MOL0     H98102   6.608   1.054   8.271  0.5928 -0.2773  0.2679
  727MOL0     H98103   6.741   0.901   8.180  0.2677  1.9203 -1.5781
  727MOL0     H98104   6.765   0.887   8.359 -0.0154  0.6284  0.4653
  727MOL0     H98105   6.895   0.697   8.229 -0.5864  2.1355  0.2622
  727MOL0     H98106   6.940   0.471   8.210  1.0902 -1.0879 -0.2903
  727MOL0     H98107   7.104   0.421   8.259 -0.6778 -2.4854  0.7483
  727MOL0     H98108   6.975   0.412   8.370  1.1337 -0.0387  0.6960
  727MOL0     H98109   7.622   0.650   8.578  1.2701 -0.5759  0.4766
  727MOL0     H98110   7.818   0.537   8.674  2.4346 -1.3418 -0.9122
  727MOL0     H98111   7.997   0.332   8.723  2.2619  4.7872  2.2010
  727MOL0     H98112   7.903   0.381   8.863 -0.2754  0.5196 -0.9597
  727MOL0     H98113   7.923   0.150   8.953  0.4670  0.9043  0.1307
  727MOL0     H98114   8.029   0.113   8.812 -3.5346 -1.8752  0.2354
  727MOL0     H98115   8.084   0.313   9.045 -2.0718 -1.9309  0.7008
  727MOL0     H98116   8.178   0.313   8.891  1.8133 -2.3485 -0.1840
  727MOL0     H98117   8.167   0.072   9.080  4.8540 -1.8046  0.7246
  727MOL0     H98118   8.219   0.073   8.915  0.5894 -0.7926  0.3227
  727MOL0     H98119   8.349   0.256   9.126 -2.0693 -0.5532  1.8327
  727MOL0     H98120   8.383   0.234   8.948 -0.5857 -1.6071 -0.2219
  727MOL0     H98121   8.387  -0.008   9.133 -0.0371  1.3377  1.4393
  727MOL0     H98122   8.448   0.018   8.967  4.6374  0.6656  0.6677
  727MOL0     H98123   8.552   0.137   9.235  0.7623  0.6624 -0.9274
  727MOL0     H98124   8.617   0.161   9.074  1.7934 -2.5432 -0.9399
  727MOL0     H98125   8.594  -0.114   9.182  0.4150 -0.4757 -1.6423
  727MOL0     H98126   8.730  -0.009   9.220 -1.3241 -1.4230  0.9115
  727MOL0     H98127   7.571   0.173   8.693  0.4770  1.0833  3.4429
  727MOL0     H98128   7.387   0.294   8.580  0.5908  0.9521 -1.6571
  727MOL0     H98129   7.276   0.781   8.525  1.9274  0.8710 -2.4468
  727MOL0     H98130   7.146   0.966   8.435 -0.7524 -0.5212 -0.2626
  727MOL0     H98131   7.389   0.804   8.821  0.6431 -1.6178 -1.0165
  727MOL0     H98132   7.580   0.726   8.941 -0.1023  1.6418  0.8008
  727MOL0     H98133   8.073   0.676   8.893 -2.2298 -0.3959 -0.4217
  727MOL0     H98134   8.287   0.613   9.033 -0.9154 -1.0100  1.3847
  727MOL0     H98135   8.367   0.472   9.206 -0.2133  1.1428 -2.4811
  727MOL0     H98136   8.472   0.599   9.173 -0.0816 -0.7115  0.5691
  727MOL0     H98137   8.550   0.614   9.396 -0.3858  0.8249  1.1724
  727MOL0     H98138   8.554   0.434   9.367 -2.9462 -3.0545  2.2865
  727MOL0     H98139   8.326   0.551   9.530  1.4128  1.1603  1.2653
  727MOL0     H98140   8.469   0.460   9.582  1.4729  0.4958 -0.7776
  727MOL0     H98141   8.355   0.260   9.453  1.7099  0.8739 -3.0507
  727MOL0     H98142   8.255   0.372   9.367 -0.6415 -1.7844  0.2945
  727MOL0     H98143   8.107   0.353   9.779  1.5619  2.6885  0.9709
  727MOL0     H98144   8.115   0.774   9.381 -0.7748  1.5771  0.8965
  727MOL0     H98145   7.906   0.835   9.247  2.2341  0.3585  3.0453
  728MOL0     O98146  10.112   4.045   7.687 -0.1587  0.5202  0.6233
  728MOL0     C98147  10.071   4.111   7.588 -0.7922  0.1623 -0.0487
  728MOL0     O98148   9.995   4.223   7.603 -0.2081 -0.0478  0.5135
  728MOL0     C98149   9.925   4.250   7.718  0.7971 -1.3881  0.2184
  728MOL0     C98150   9.904   4.384   7.750 -0.2765 -0.0144  0.4042
  728MOL0     C98151   9.838   4.423   7.868 -0.2301 -0.4476 -0.1112
  728MOL0     C98152   9.769   4.322   7.936 -0.0235 -0.0784  0.4659
  728MOL0     O98153   9.708   4.373   8.046  0.4000  0.3162 -0.8537
  728MOL0     C98154   9.644   4.288   8.148 -0.6489 -0.4878 -0.4291
  728MOL0     C98155   9.502   4.260   8.116  0.4943  0.0000  0.3602
  728MOL0     C98156   9.430   4.167   8.211 -0.4345  0.1714  0.1044
  728MOL0     C98157   9.285   4.154   8.172  0.7772 -0.4907  0.3318
  728MOL0     C98158   9.208   4.058   8.265  0.1772 -0.0022  0.7684
  728MOL0     C98159   9.068   4.032   8.205 -0.6433  0.7020 -0.2266
  728MOL0     C98160   9.000   3.935   8.302 -0.3486 -0.6889  0.9501
  728MOL0     C98161   8.872   3.879   8.245 -0.5213  0.4062  0.0057
  728MOL0     N98162   8.800   3.802   8.351 -0.4209 -1.0647  0.8628
  728MOL0     C98163   8.792   3.661   8.346  0.1944 -0.0605 -0.0478
  728MOL0     C98164   8.737   3.629   8.473  0.1617  0.6722 -0.8747
  728MOL0     C98165   8.702   3.488   8.509 -0.0612  0.5773  0.5942
  728MOL0     C98166   8.815   3.382   8.530 -0.0016 -0.3974 -0.2365
  728MOL0     C98167   8.902   3.426   8.645 -0.0193 -0.4763  0.2679
  728MOL0     C98168   8.987   3.323   8.713  0.8996 -0.0771 -0.4741
  728MOL0     O98169   9.054   3.248   8.607 -0.4010  0.7061 -0.7728
  728MOL0     C98170   9.151   3.297   8.536 -0.5407 -0.6195 -0.5998
  728MOL0     C98171   9.248   3.372   8.598  0.6224 -0.1553  0.3510
  728MOL0     C98172   9.363   3.432   8.535  0.4403 -0.5933  0.4809
  728MOL0     C98173   9.446   3.508   8.624 -0.6747 -0.4663  0.3111
  728MOL0     C98174   9.391   3.390   8.410  1.0315 -0.1600  0.0792
  728MOL0     C98175   9.497   3.454   8.331  0.3556 -0.0013 -0.1829
  728MOL0     O98176   9.472   3.462   8.201 -0.5006  0.2380  0.3113
  728MOL0     C98177   9.566   3.493   8.105 -0.4190 -0.2197  0.3209
  728MOL0     C98178   9.706   3.476   8.110 -0.1761  0.3209 -1.2396
  728MOL0     C98179   9.793   3.522   8.009  0.1138 -0.1966 -0.3502
  728MOL0     C98180   9.735   3.580   7.889 -0.0772  0.0333  0.1931
  728MOL0     O98181   9.819   3.644   7.800 -0.1247 -0.0047 -0.2570
  728MOL0     C98182   9.750   3.752   7.725 -0.9952 -0.2738 -0.1592
  728MOL0     C98183   9.846   3.801   7.620 -0.8174 -0.8919  0.5610
  728MOL0     C98184   9.769   3.916   7.541 -0.8308 -0.4952 -0.0966
  728MOL0     C98185   9.802   3.930   7.390  0.0264 -0.2776  0.0982
  728MOL0     C98186   9.743   4.060   7.333  0.0239  0.6005 -0.0119
  728MOL0     C98187   9.606   4.030   7.263  0.9010 -0.7743  0.0307
  728MOL0     C98188   9.587   4.154   7.163  0.1791 -0.1337 -0.8373
  728MOL0     C98189   9.444   4.148   7.095 -0.4034 -0.2012 -0.2906
  728MOL0    Cl98190   9.421   4.000   7.003  0.3369  0.2376  0.0081
  728MOL0     C98191   9.588   3.585   7.887 -1.4486 -0.9831  0.3811
  728MOL0     C98192   9.508   3.549   7.995 -0.1298  0.3682 -0.0588
  728MOL0     O98193   9.607   3.471   8.387 -0.0845 -0.2884  0.3318
  728MOL0     C98194   9.297   3.307   8.343 -0.2367  0.0001  0.0308
  728MOL0     C98195   9.181   3.260   8.407 -0.4328 -0.3347  0.9508
  728MOL0     N98196   8.727   3.747   8.546 -0.2282  0.0555  0.1494
  728MOL0     N98197   8.751   3.845   8.465 -0.2926 -0.9611  0.4331
  728MOL0     C98198   9.773   4.185   7.895  0.3910 -0.3209 -0.1709
  728MOL0     C98199   9.861   4.153   7.786  0.5263 -0.5078  0.4539
  728MOL0     C98200  10.133   4.092   7.455  0.3618  0.4267 -0.1417
  728MOL0     C98201  10.251   4.018   7.439 -0.2941 -0.0977  0.2609
  728MOL0     C98202  10.313   4.013   7.314  0.3932  0.4369 -1.0826
  728MOL0     C98203  10.259   4.066   7.197  1.0771  0.3134  0.3004
  728MOL0     O98204  10.315   4.073   7.078 -0.7421 -0.3705  0.3194
  728MOL0     C98205  10.457   4.030   7.076  0.3011 -0.0875  0.1871
  728MOL0     C98206  10.513   4.051   6.940  0.9825  0.2775 -0.5504
  728MOL0     C98207  10.653   3.998   6.928 -0.7457 -0.0203  0.6648
  728MOL0     C98208  10.698   3.991   6.781  0.2620  0.5213 -0.5415
  728MOL0     C98209  10.837   3.947   6.788  0.2080  1.1992 -0.1879
  728MOL0     C98210  10.958   3.922   6.782 -0.5541  0.3304 -0.3841
  728MOL0     C98211  10.135   4.135   7.216 -0.1935  1.5289  0.5199
  728MOL0     C98212  10.073   4.143   7.343 -0.4905  0.6529 -0.2014
  728MOL0     H98213   9.952   4.462   7.693  0.9935 -0.7131  0.4905
  728MOL0     H98214   9.840   4.526   7.902 -1.3167 -1.4730  3.4466
  728MOL0     H98215   9.688   4.187   8.145 -3.4699 -1.7922 -2.3077
  728MOL0     H98216   9.653   4.326   8.250 -0.2949 -4.4336  1.2303
  728MOL0     H98217   9.444   4.351   8.107 -1.5349 -1.2859 -0.1327
  728MOL0     H98218   9.494   4.227   8.012  1.6602 -0.5952  0.4331
  728MOL0     H98219   9.470   4.065   8.212 -3.5660 -1.1689  1.7608
  728MOL0     H98220   9.433   4.209   8.312  3.7560  0.3286  0.1171
  728MOL0     H98221   9.236   4.252   8.171  2.0129  0.1397  0.7539
  728MOL0     H98222   9.288   4.116   8.069  0.4987  1.8845 -0.6011
  728MOL0     H98223   9.265   3.966   8.282  0.2720 -0.2892 -0.9749
  728MOL0     H98224   9.191   4.102   8.364  0.1826 -3.6014  2.5459
  728MOL0     H98225   9.017   4.125   8.178  0.7219  1.3156 -0.8451
  728MOL0     H98226   9.066   3.967   8.117 -0.1345 -0.8161  0.8518
  728MOL0     H98227   9.070   3.854   8.324  2.4201  1.1905 -0.3829
  728MOL0     H98228   8.974   3.983   8.396 -4.2170  2.0954 -1.2187
  728MOL0     H98229   8.892   3.818   8.156  2.2474  1.5861 -0.2832
  728MOL0     H98230   8.812   3.968   8.228 -1.7752 -0.5506 -0.7835
  728MOL0     H98231   8.816   3.590   8.267 -4.6906  0.6597 -2.5673
  728MOL0     H98232   8.648   3.499   8.604 -0.1589  1.8570  0.4068
  728MOL0     H98233   8.631   3.445   8.437  0.5523  0.2859  0.1609
  728MOL0     H98234   8.876   3.371   8.440 -1.0068 -1.4111 -0.8315
  728MOL0     H98235   8.775   3.283   8.555  0.6940 -1.0567 -1.6020
  728MOL0     H98236   8.841   3.477   8.720 -1.4549 -0.5175 -0.8202
  728MOL0     H98237   8.966   3.504   8.602 -2.0361  1.0442 -0.1524
  728MOL0     H98238   8.921   3.253   8.766 -0.1050 -0.2024 -1.8340
  728MOL0     H98239   9.051   3.362   8.792 -3.7794  2.5480  2.5459
  728MOL0     H98240   9.236   3.384   8.706 -0.1867 -2.1547  0.5246
  728MOL0     H98241   9.498   3.586   8.568  0.5874 -1.0814  0.6005
  728MOL0     H98242   9.395   3.539   8.716 -0.5884 -0.9180  0.5139
  728MOL0     H98243   9.517   3.440   8.672  2.6992  0.8938 -2.3194
  728MOL0     H98244   9.751   3.436   8.201 -3.6176  0.1305  0.5280
  728MOL0     H98245   9.902   3.526   8.014  0.1787  1.5909 -1.8858
  728MOL0     H98246   9.659   3.720   7.675 -0.6252  0.7978 -1.5944
  728MOL0     H98247   9.736   3.841   7.787 -0.2049  1.2916 -2.1293
  728MOL0     H98248   9.936   3.841   7.668 -0.9906 -1.0559  1.0272
  728MOL0     H98249   9.878   3.724   7.550 -1.1584 -0.8038  0.3093
  728MOL0     H98250   9.786   4.003   7.604  1.1939  1.1857 -2.7544
  728MOL0     H98251   9.661   3.899   7.542 -0.5381 -2.6058  0.4320
  728MOL0     H98252   9.910   3.944   7.381  0.0670 -1.0778 -0.8133
  728MOL0     H98253   9.781   3.847   7.322  1.4235 -0.3069 -0.3403
  728MOL0     H98254   9.811   4.088   7.253 -0.7212 -0.7473 -1.1651
  728MOL0     H98255   9.732   4.143   7.404 -2.9936 -2.5508  3.7055
  728MOL0     H98256   9.606   3.931   7.217  0.8522 -1.3648  1.2789
  728MOL0     H98257   9.523   4.042   7.334 -2.1332 -0.5812 -3.2515
  728MOL0     H98258   9.659   4.145   7.081  1.5573  1.4836  0.1256
  728MOL0     H98259   9.594   4.251   7.214 -1.5445  1.1650 -2.8818
  728MOL0     H98260   9.421   4.233   7.031  1.3239  0.9043  0.4792
  728MOL0     H98261   9.370   4.144   7.176  0.8751  1.7888  1.0733
  728MOL0     H98262   9.533   3.617   7.799 -0.0508 -0.6287 -0.3948
  728MOL0     H98263   9.402   3.568   7.986 -0.1570 -0.7226 -2.9568
  728MOL0     H98264   9.311   3.288   8.237 -1.3742 -2.8332  0.2904
  728MOL0     H98265   9.114   3.197   8.349 -0.1261  0.5575 -0.4047
  728MOL0     H98266   9.719   4.104   7.944  1.0063  0.9246  2.7399
  728MOL0     H98267   9.875   4.047   7.767  0.5553 -0.4315  0.0462
  728MOL0     H98268  10.300   3.976   7.526  1.7846  1.1303 -0.2418
  728MOL0     H98269  10.403   3.953   7.327 -2.2619 -3.6070  0.5730
  728MOL0     H98270  10.522   4.085   7.144  3.0051 -0.5126 -1.9005
  728MOL0     H98271  10.463   3.927   7.114  2.1903  0.4991  1.6143
  728MOL0     H98272  10.526   4.158   6.920  2.3513  0.7279  2.2309
  728MOL0     H98273  10.451   4.005   6.863  0.1826 -0.1900  0.3499
  728MOL0     H98274  10.652   3.897   6.968  0.6716  1.3363  4.5819
  728MOL0     H98275  10.726   4.054   6.988 -1.4623  0.4771  1.0871
  728MOL0     H98276  10.694   4.085   6.726  0.0704 -0.7915 -2.9032
  728MOL0     H98277  10.637   3.917   6.728 -0.5233  1.1992 -0.6106
  728MOL0     H98278  11.056   3.878   6.778 -1.1114 -0.8877 -1.5508
  728MOL0     H98279  10.095   4.190   7.132 -1.6157  0.4300  0.4497
  728MOL0     H98280   9.980   4.199   7.351 -1.0055 -0.1973 -0.1465
  729MOL0     O98281   4.728   1.367  10.528 -0.1739 -0.8235 -0.1743
  729MOL0     C98282   4.703   1.303  10.431 -0.3209 -0.0824  0.1681
  729MOL0     O98283   4.742   1.332  10.305  0.3944  0.1636  0.6695
  729MOL0     C98284   4.817   1.439  10.268 -0.3567 -0.4229 -0.7036
  729MOL0     C98285   4.937   1.449  10.332 -0.4867 -0.0916  0.5365
  729MOL0     C98286   5.038   1.542  10.292 -0.2872  0.0488  0.5591
  729MOL0     C98287   5.010   1.616  10.173 -0.3686  0.5058 -0.0698
  729MOL0     O98288   5.086   1.709  10.119 -0.1607  0.8839 -0.0556
  729MOL0     C98289   5.231   1.682  10.127 -0.2805 -0.1349  0.3882
  729MOL0     C98290   5.276   1.771  10.010  0.1065 -0.9880  0.2205
  729MOL0     C98291   5.238   1.921  10.041  0.0361 -0.5515 -0.1352
  729MOL0     C98292   5.269   2.007   9.916 -0.4559  0.1290  0.1807
  729MOL0     C98293   5.240   2.159   9.946 -0.7658  0.1384  0.0907
  729MOL0     C98294   5.215   2.233   9.812  0.2029 -0.7515  0.6812
  729MOL0     C98295   5.230   2.385   9.815  0.1040  0.6269  0.5542
  729MOL0     C98296   5.130   2.456   9.726 -0.9750  0.2378 -0.5806
  729MOL0     N98297   5.010   2.512   9.798 -0.3613 -0.1048 -0.1875
  729MOL0     C98298   4.899   2.447   9.848 -0.3311  0.8501  0.1052
  729MOL0     C98299   4.824   2.541   9.909  0.1868  0.2590 -0.1421
  729MOL0     C98300   4.692   2.507   9.974  0.0666 -0.2537  0.0177
  729MOL0     C98301   4.627   2.634  10.042  0.0100  0.0665 -0.1766
  729MOL0     C98302   4.689   2.680  10.178  0.8149 -1.0622  0.1644
  729MOL0     C98303   4.619   2.796  10.250 -0.0554  0.0461  1.0223
  729MOL0     O98304   4.644   2.923  10.191 -0.4832 -0.4120 -0.9198
  729MOL0     C98305   4.732   3.014  10.244 -0.2706  0.1426 -1.0229
  729MOL0     C98306   4.708   3.144  10.227  0.1178 -0.6882 -0.3027
  729MOL0     C98307   4.787   3.247  10.286 -0.5561 -0.2759  0.2593
  729MOL0     C98308   4.758   3.386  10.233  0.2122  0.3764  0.6675
  729MOL0     C98309   4.890   3.211  10.373 -0.1258 -0.4930  0.6760
  729MOL0     C98310   4.988   3.310  10.432  0.0663 -0.1341 -1.0736
  729MOL0     O98311   5.109   3.262  10.436 -0.5133  0.1145  0.3824
  729MOL0     C98312   5.215   3.326  10.493 -0.9705  0.0098 -0.0612
  729MOL0     C98313   5.251   3.450  10.442 -0.1156  0.2665 -0.2973
  729MOL0     C98314   5.359   3.504  10.493 -1.3571  1.3876 -0.6864
  729MOL0     C98315   5.426   3.456  10.611  0.0274 -0.5274  0.6538
  729MOL0     O98316   5.538   3.503  10.668 -0.1666  0.2426 -0.0051
  729MOL0     C98317   5.648   3.572  10.594 -0.0360 -0.1347 -1.0367
  729MOL0     C98318   5.735   3.476  10.511  0.7031 -0.0803  0.2650
  729MOL0     C98319   5.786   3.367  10.602  0.4618  1.3573  0.3977
  729MOL0     C98320   5.862   3.416  10.720  0.0069  0.3223  0.5426
  729MOL0     C98321   5.932   3.309  10.799 -0.3333 -0.6318  1.0683
  729MOL0     C98322   6.017   3.388  10.904 -0.2884  0.0207 -0.1693
  729MOL0     C98323   6.083   3.294  11.000  0.1005 -0.2741  0.2605
  729MOL0     C98324   5.976   3.247  11.103  0.4525 -1.1461  0.3230
  729MOL0    Cl98325   5.892   3.094  11.050  0.1285 -0.4555  0.0245
  729MOL0     C98326   5.379   3.341  10.666 -0.6929  0.4921 -0.7068
  729MOL0     C98327   5.273   3.270  10.612 -0.3130 -0.2394 -0.8364
  729MOL0     O98328   4.961   3.423  10.463  0.4322  0.6304 -0.0341
  729MOL0     C98329   4.905   3.077  10.403 -1.8686  0.5991  1.0372
  729MOL0     C98330   4.834   2.977  10.332  0.8391 -0.0125 -0.4722
  729MOL0     N98331   4.879   2.665   9.886 -0.0529 -0.1139 -0.2320
  729MOL0     N98332   4.988   2.650   9.823 -0.2673 -0.3159 -0.1108
  729MOL0     C98333   4.885   1.606  10.110 -0.0548  0.2951  0.1360
  729MOL0     C98334   4.792   1.518  10.157  0.8062  0.5222  0.3165
  729MOL0     C98335   4.612   1.188  10.439 -0.4789 -0.8573 -0.0725
  729MOL0     C98336   4.576   1.137  10.567 -1.3794 -0.8451 -0.4892
  729MOL0     C98337   4.483   1.047  10.583 -0.3827  0.9898  0.0380
  729MOL0     C98338   4.422   0.977  10.477 -0.1359  0.0654 -0.9174
  729MOL0     O98339   4.332   0.873  10.491 -0.3594  1.0796 -0.1477
  729MOL0     C98340   4.282   0.800  10.379 -1.1172 -1.4381 -0.2403
  729MOL0     C98341   4.184   0.689  10.425 -0.2312  0.3437 -0.1574
  729MOL0     C98342   4.054   0.732  10.489  0.4528  0.6470  0.0308
  729MOL0     C98343   3.970   0.821  10.394 -0.3529  0.4536  0.2857
  729MOL0     C98344   3.832   0.828  10.436 -0.3506 -0.3181 -0.1990
  729MOL0     C98345   3.717   0.835  10.464  0.1632  0.2505 -0.8785
  729MOL0     C98346   4.458   1.021  10.352 -0.9349 -0.0963 -0.6479
  729MOL0     C98347   4.545   1.132  10.326 -1.0657 -0.5899 -0.6250
  729MOL0     H98348   4.960   1.392  10.421  1.7551  0.7651  0.5604
  729MOL0     H98349   5.127   1.564  10.350 -0.1920  0.2766  0.3266
  729MOL0     H98350   5.275   1.720  10.220  2.4430  0.3925 -1.0117
  729MOL0     H98351   5.251   1.577  10.104 -1.2022  0.1072 -1.7577
  729MOL0     H98352   5.383   1.757   9.991 -0.2643 -1.9753 -1.3115
  729MOL0     H98353   5.224   1.755   9.915  0.1578  2.8515 -0.5888
  729MOL0     H98354   5.130   1.927  10.060  0.1745  1.0110  0.2793
  729MOL0     H98355   5.288   1.969  10.126  1.7500  0.2199 -1.5152
  729MOL0     H98356   5.370   1.987   9.879 -1.8027 -1.0775 -3.1495
  729MOL0     H98357   5.206   1.977   9.832 -1.7844  2.0165  0.4396
  729MOL0     H98358   5.157   2.184  10.013 -0.1816  2.0223  0.1730
  729MOL0     H98359   5.331   2.199   9.991 -2.1992 -0.5464  3.9503
  729MOL0     H98360   5.278   2.201   9.729 -2.3028 -0.9568 -1.2566
  729MOL0     H98361   5.109   2.223   9.788 -0.6299  3.1091  2.1164
  729MOL0     H98362   5.220   2.424   9.917  0.4642 -1.3141  1.3939
  729MOL0     H98363   5.332   2.400   9.779  0.5720  2.1317  2.3391
  729MOL0     H98364   5.116   2.387   9.643 -1.8463 -0.3485  0.0333
  729MOL0     H98365   5.190   2.537   9.684 -1.6373  2.0023  1.6567
  729MOL0     H98366   4.883   2.340   9.852  3.6952  0.1307  1.0303
  729MOL0     H98367   4.618   2.466   9.904  1.9794 -1.4732 -1.4047
  729MOL0     H98368   4.713   2.432  10.050  2.9548  0.3893 -0.0220
  729MOL0     H98369   4.522   2.611  10.061  0.3587 -0.1043  1.8032
  729MOL0     H98370   4.628   2.720   9.975 -2.5483  0.0171 -0.3714
  729MOL0     H98371   4.785   2.714  10.139 -0.4902 -0.4729 -2.8045
  729MOL0     H98372   4.685   2.603  10.256  0.1789  0.7652  2.0362
  729MOL0     H98373   4.642   2.803  10.357 -0.9299  1.2261  1.1556
  729MOL0     H98374   4.511   2.783  10.237  0.1597 -1.3388  0.4491
  729MOL0     H98375   4.633   3.176  10.155 -0.1351  0.6076  0.5011
  729MOL0     H98376   4.809   3.398  10.137  2.4777  0.6839  1.8539
  729MOL0     H98377   4.654   3.386  10.198  1.0918 -0.2034 -2.1534
  729MOL0     H98378   4.761   3.475  10.296 -2.0257  1.6248 -0.8388
  729MOL0     H98379   5.205   3.501  10.359  0.8687  0.1442 -0.9458
  729MOL0     H98380   5.405   3.588  10.442  2.3660 -0.3518 -0.5419
  729MOL0     H98381   5.602   3.642  10.524  1.9723 -0.3441 -2.6719
  729MOL0     H98382   5.711   3.638  10.654 -1.1660  0.4828 -0.5024
  729MOL0     H98383   5.667   3.437  10.434 -0.9070 -0.3570  1.7701
  729MOL0     H98384   5.813   3.517  10.446 -0.7034 -0.9865 -2.1575
  729MOL0     H98385   5.858   3.303  10.549  0.3017 -1.0416  2.8417
  729MOL0     H98386   5.709   3.298  10.636  0.5426  0.8147 -0.4669
  729MOL0     H98387   5.945   3.477  10.683  0.0222 -0.3547 -0.5953
  729MOL0     H98388   5.802   3.480  10.785 -0.1911  0.3632  0.3249
  729MOL0     H98389   5.992   3.241  10.738 -3.3613 -3.4136  0.9010
  729MOL0     H98390   5.859   3.242  10.846  2.1227 -3.4938  1.0569
  729MOL0     H98391   6.099   3.456  10.877 -0.6542  1.2879  1.7342
  729MOL0     H98392   5.951   3.461  10.953 -0.0623 -0.4155  0.8038
  729MOL0     H98393   6.159   3.349  11.054  0.6356  1.5978 -2.2194
  729MOL0     H98394   6.131   3.211  10.947  0.9592  1.1672 -1.3057
  729MOL0     H98395   5.904   3.327  11.121  1.4898  0.0464 -0.6379
  729MOL0     H98396   6.029   3.237  11.198 -1.7020  1.7367  1.9864
  729MOL0     H98397   5.431   3.286  10.745 -1.6226  3.2846  2.0531
  729MOL0     H98398   5.249   3.171  10.651  1.5214 -1.0401 -1.6150
  729MOL0     H98399   4.987   3.069  10.475 -0.5261  2.4240 -0.1729
  729MOL0     H98400   4.852   2.877  10.371  0.3850 -0.3773 -1.1723
  729MOL0     H98401   4.860   1.667  10.024 -1.7878 -1.5543 -0.7554
  729MOL0     H98402   4.699   1.514  10.100  1.6941  0.4471 -1.1971
  729MOL0     H98403   4.623   1.179  10.655 -0.0606 -2.6952 -0.2567
  729MOL0     H98404   4.458   1.034  10.688 -0.9135  2.1589  0.0648
  729MOL0     H98405   4.236   0.859  10.299  2.5469  0.2942 -1.3280
  729MOL0     H98406   4.365   0.739  10.342 -0.1131 -0.1017 -0.2607
  729MOL0     H98407   4.226   0.620  10.498 -1.9066 -0.9958 -0.4123
  729MOL0     H98408   4.161   0.624  10.341 -2.3560 -0.6277  1.0881
  729MOL0     H98409   4.070   0.793  10.578 -1.8444  0.1929  0.8329
  729MOL0     H98410   3.996   0.640  10.507 -1.5602  0.6760 -4.7227
  729MOL0     H98411   3.970   0.783  10.291 -0.3224  3.5844 -0.9784
  729MOL0     H98412   4.004   0.925  10.390  0.0046  0.3319  0.0962
  729MOL0     H98413   3.614   0.847  10.491  0.9944  0.3772  2.7552
  729MOL0     H98414   4.417   0.978  10.261 -0.4156  0.6876 -1.2623
  729MOL0     H98415   4.565   1.170  10.227  4.3642 -0.4453  0.2226
  730MOL0     O98416   0.335   4.756   3.295 -0.3243  0.1656 -0.2000
  730MOL0     C98417   0.342   4.684   3.396  0.0338  0.1742 -0.4685
  730MOL0     O98418   0.422   4.711   3.509  0.7081  0.0106  0.2982
  730MOL0     C98419   0.508   4.816   3.501 -0.2431 -0.9149  0.9907
  730MOL0     C98420   0.613   4.830   3.405  0.5415  0.2148  0.0722
  730MOL0     C98421   0.694   4.939   3.401 -0.3476 -0.4460  0.2198
  730MOL0     C98422   0.681   5.040   3.500  0.1483 -0.1519  0.5722
  730MOL0     O98423   0.759   5.155   3.501  0.9260  0.8000 -0.0981
  730MOL0     C98424   0.883   5.174   3.420 -0.1708  0.5329  0.1025
  730MOL0     C98425   0.910   5.315   3.385 -0.6173  0.2724  0.2210
  730MOL0     C98426   0.838   5.368   3.260 -0.2765 -0.9031  0.0813
  730MOL0     C98427   0.763   5.497   3.292  0.4404  0.1235 -1.1017
  730MOL0     C98428   0.847   5.617   3.249  0.0108 -1.0252  0.6528
  730MOL0     C98429   0.775   5.758   3.285  0.1386  0.1118 -0.1630
  730MOL0     C98430   0.751   5.779   3.434 -0.2368 -0.7397 -1.0218
  730MOL0     C98431   0.876   5.785   3.525 -0.1620  0.3615  0.3793
  730MOL0     N98432   0.835   5.821   3.663 -0.5697  0.3290 -0.4135
  730MOL0     C98433   0.773   5.741   3.767  0.0735 -0.3878  0.3992
  730MOL0     C98434   0.800   5.805   3.877  0.3030  0.0739 -0.1945
  730MOL0     C98435   0.769   5.764   4.014 -0.7245 -0.5931  0.0614
  730MOL0     C98436   0.868   5.657   4.049  0.7596  0.7877 -0.5020
  730MOL0     C98437   0.853   5.515   3.989 -0.3660  0.0717  0.6129
  730MOL0     C98438   0.724   5.436   4.019  0.7309 -0.0279 -0.5409
  730MOL0     O98439   0.720   5.327   3.921  0.9785 -0.0711 -0.2570
  730MOL0     C98440   0.641   5.220   3.958  0.1651  0.3692 -0.0227
  730MOL0     C98441   0.509   5.228   3.942  0.0696  0.5570 -0.1849
  730MOL0     C98442   0.420   5.123   3.973 -0.3344 -0.2983 -0.2797
  730MOL0     C98443   0.277   5.135   3.934  0.4213 -0.0513 -0.5134
  730MOL0     C98444   0.474   4.998   4.017  0.0133 -0.7662  0.1355
  730MOL0     C98445   0.391   4.874   4.024 -0.3208 -0.2631  0.5271
  730MOL0     O98446   0.334   4.832   3.914 -0.0376  0.7138  0.1831
  730MOL0     C98447   0.214   4.766   3.907 -0.3563 -0.7879 -0.0668
  730MOL0     C98448   0.100   4.814   3.977  0.4865 -0.3468 -1.4533
  730MOL0     C98449  -0.022   4.755   3.951 -0.1566 -0.3451 -0.5376
  730MOL0     C98450  -0.036   4.657   3.858  0.7731  0.0382  0.3454
  730MOL0     O98451  -0.168   4.610   3.836  0.3271  0.4105  0.7349
  730MOL0     C98452  -0.189   4.472   3.788 -0.2774  0.1492 -0.3740
  730MOL0     C98453  -0.321   4.469   3.714 -0.4286 -0.0494 -0.2496
  730MOL0     C98454  -0.323   4.556   3.584  0.4338 -0.0256  0.3683
  730MOL0     C98455  -0.455   4.522   3.523  1.0156 -1.0202  0.0040
  730MOL0     C98456  -0.456   4.567   3.379 -0.1337 -0.0313  0.1136
  730MOL0     C98457  -0.582   4.523   3.299  0.2230  0.3378  0.3901
  730MOL0     C98458  -0.713   4.561   3.367 -0.1021 -0.7275  0.3851
  730MOL0     C98459  -0.829   4.582   3.268 -0.0381 -0.2354  0.1199
  730MOL0    Cl98460  -0.838   4.451   3.149 -0.2077 -0.0096 -0.2056
  730MOL0     C98461   0.072   4.609   3.787  0.0215  0.3016 -0.7911
  730MOL0     C98462   0.197   4.660   3.822 -0.5287 -1.0469  0.3204
  730MOL0     O98463   0.366   4.835   4.135  0.3023 -0.2770  1.1323
  730MOL0     C98464   0.613   4.988   4.032  0.3174 -0.5712 -0.4151
  730MOL0     C98465   0.694   5.095   3.995 -0.2789 -0.0023  0.3104
  730MOL0     N98466   0.893   5.905   3.848  0.8602  0.6628  0.8841
  730MOL0     N98467   0.907   5.922   3.722  0.7105  0.2789  0.9248
  730MOL0     C98468   0.580   5.035   3.593  0.4235  0.5067  0.5831
  730MOL0     C98469   0.489   4.921   3.589  0.2690 -0.5255 -0.0831
  730MOL0     C98470   0.241   4.573   3.406 -0.4947  0.0282  1.1050
  730MOL0     C98471   0.117   4.581   3.332 -0.5730  0.4937  0.9590
  730MOL0     C98472   0.012   4.484   3.347 -0.0581 -0.2162 -1.4285
  730MOL0     C98473   0.033   4.361   3.420  0.2020 -0.1787 -0.0612
  730MOL0     O98474  -0.072   4.283   3.424  0.7735 -0.0797  0.5945
  730MOL0     C98475  -0.085   4.190   3.535  0.7332  0.6878 -0.1177
  730MOL0     C98476  -0.225   4.138   3.536  0.0170 -0.4293 -0.1007
  730MOL0     C98477  -0.266   4.031   3.428 -0.6787 -0.1039  0.7866
  730MOL0     C98478  -0.187   3.891   3.437  0.9957 -0.2331 -1.3640
  730MOL0     C98479  -0.232   3.791   3.338  1.1826  0.3735 -0.1001
  730MOL0     C98480  -0.265   3.712   3.253 -0.6724  0.8355 -1.1279
  730MOL0     C98481   0.161   4.351   3.487 -0.9097 -0.6917 -0.7698
  730MOL0     C98482   0.255   4.458   3.485 -0.0755  0.2537 -0.2595
  730MOL0     H98483   0.647   4.746   3.346  1.4116  0.9740 -0.5258
  730MOL0     H98484   0.761   4.946   3.316 -0.3451  2.3514  0.3665
  730MOL0     H98485   0.969   5.126   3.467  1.4019  1.6917 -1.4620
  730MOL0     H98486   0.874   5.114   3.329  3.7924 -0.6555  0.2992
  730MOL0     H98487   0.897   5.381   3.472 -0.8819 -2.2817  2.2182
  730MOL0     H98488   1.018   5.322   3.369 -0.2381 -2.1705  1.3614
  730MOL0     H98489   0.904   5.402   3.181 -0.1469  3.2957  1.7380
  730MOL0     H98490   0.763   5.293   3.231 -3.4496  1.6736  0.9728
  730MOL0     H98491   0.668   5.502   3.238  0.0646 -0.5021 -0.5218
  730MOL0     H98492   0.729   5.495   3.396  1.6785 -1.0874 -0.6890
  730MOL0     H98493   0.937   5.617   3.311  0.6734  3.2854 -0.0207
  730MOL0     H98494   0.880   5.617   3.144 -0.3365  1.4407  0.4802
  730MOL0     H98495   0.846   5.835   3.254 -0.4333  0.1522 -1.4234
  730MOL0     H98496   0.692   5.781   3.218  0.7934 -2.2144 -1.8856
  730MOL0     H98497   0.698   5.873   3.456  2.6804  1.0090 -0.9241
  730MOL0     H98498   0.687   5.698   3.469 -0.5153  0.5626  1.7839
  730MOL0     H98499   0.957   5.848   3.488  1.6139  0.1929  3.6037
  730MOL0     H98500   0.924   5.688   3.511 -0.1289  0.2545  1.1737
  730MOL0     H98501   0.722   5.645   3.762 -0.3175 -0.3313  2.3538
  730MOL0     H98502   0.774   5.848   4.084 -2.8223 -1.3224  1.1679
  730MOL0     H98503   0.664   5.734   4.023 -1.3392  1.7502  1.6105
  730MOL0     H98504   0.850   5.646   4.156  0.3118  1.4572 -0.4974
  730MOL0     H98505   0.968   5.701   4.049  0.7725  1.0309  3.1980
  730MOL0     H98506   0.929   5.450   4.033 -1.4340 -2.9760 -1.6500
  730MOL0     H98507   0.858   5.515   3.879  1.3243 -3.9285  0.5180
  730MOL0     H98508   0.640   5.489   3.973 -1.6985 -3.1343 -0.1066
  730MOL0     H98509   0.708   5.410   4.125  1.1637  4.3461  0.7916
  730MOL0     H98510   0.467   5.320   3.904 -0.1892  0.2837 -0.5600
  730MOL0     H98511   0.252   5.218   3.867  2.5247 -0.1279 -1.4627
  730MOL0     H98512   0.249   5.045   3.878 -1.4007 -0.3042  0.7260
  730MOL0     H98513   0.213   5.124   4.022 -0.6297 -2.2438 -1.4497
  730MOL0     H98514   0.109   4.903   4.039  3.5703 -0.7251 -1.1781
  730MOL0     H98515  -0.104   4.800   4.008  0.3189  0.5025 -0.5065
  730MOL0     H98516  -0.116   4.429   3.719 -1.1870  0.2830 -1.4637
  730MOL0     H98517  -0.205   4.407   3.874  0.0057  2.2388  1.3420
  730MOL0     H98518  -0.350   4.364   3.702  1.6398 -0.6329 -0.5608
  730MOL0     H98519  -0.397   4.513   3.779 -3.1888  0.6336 -3.6623
  730MOL0     H98520  -0.238   4.530   3.520 -1.4691 -1.9972 -1.5340
  730MOL0     H98521  -0.315   4.663   3.603 -2.7053 -0.1944  3.8863
  730MOL0     H98522  -0.475   4.414   3.522  3.0225 -1.4566  1.5061
  730MOL0     H98523  -0.534   4.568   3.583  4.7746  3.7259  2.0119
  730MOL0     H98524  -0.366   4.534   3.327  1.6378 -1.7984  3.9063
  730MOL0     H98525  -0.455   4.676   3.378 -0.2250 -0.0090  0.9809
  730MOL0     H98526  -0.579   4.557   3.195  0.6072  1.2424  0.6922
  730MOL0     H98527  -0.584   4.414   3.294 -0.3499  0.3473  0.3464
  730MOL0     H98528  -0.693   4.656   3.418 -0.1070  0.7371 -2.1523
  730MOL0     H98529  -0.750   4.489   3.440 -2.8836  1.0658  0.8939
  730MOL0     H98530  -0.808   4.674   3.213 -0.4728 -1.1622 -1.6833
  730MOL0     H98531  -0.922   4.594   3.323 -1.8618 -6.2658 -0.8876
  730MOL0     H98532   0.064   4.532   3.711 -2.6910  1.6498 -1.9893
  730MOL0     H98533   0.283   4.618   3.773  0.7361  0.5718  1.0680
  730MOL0     H98534   0.663   4.894   4.051  3.9803  1.5723  1.9277
  730MOL0     H98535   0.800   5.076   4.009 -0.3190 -0.3551  0.1291
  730MOL0     H98536   0.568   5.117   3.663  2.2571  1.0398  0.3338
  730MOL0     H98537   0.407   4.920   3.660 -0.0547 -1.3730 -0.4545
  730MOL0     H98538   0.100   4.671   3.274  2.4889 -1.1758 -2.9595
  730MOL0     H98539  -0.083   4.493   3.296  0.3342 -0.1231 -2.1524
  730MOL0     H98540  -0.015   4.108   3.515  2.4390  1.2411  2.9765
  730MOL0     H98541  -0.079   4.240   3.632 -3.8032  1.0621  0.1461
  730MOL0     H98542  -0.287   4.227   3.520 -0.8572 -0.8237  0.9562
  730MOL0     H98543  -0.237   4.092   3.635  0.0685 -1.4840 -0.5740
  730MOL0     H98544  -0.256   4.088   3.336 -1.2737  2.1977  2.0668
  730MOL0     H98545  -0.371   4.008   3.448 -0.4350 -3.0294 -0.7317
  730MOL0     H98546  -0.195   3.842   3.535  2.2533  0.3448 -0.9493
  730MOL0     H98547  -0.083   3.918   3.417  0.2620  2.3383 -2.2281
  730MOL0     H98548  -0.307   3.633   3.195 -0.4136  0.0972 -0.3192
  730MOL0     H98549   0.190   4.266   3.548  1.8383  1.3011  0.9352
  730MOL0     H98550   0.335   4.442   3.556 -2.3567 -3.0268  1.8457
  731MOL0     O98551   9.080   3.537   1.678  0.4757  0.6408 -0.1151
  731MOL0     C98552   9.171   3.609   1.687 -0.4778  0.2516  0.0103
  731MOL0     O98553   9.282   3.601   1.617  0.4502  0.1804  0.2361
  731MOL0     C98554   9.289   3.511   1.518 -0.6208  0.1651 -0.5993
  731MOL0     C98555   9.245   3.535   1.388  0.2013 -0.2109  0.1079
  731MOL0     C98556   9.274   3.452   1.288  0.1079  0.2373 -0.2120
  731MOL0     C98557   9.365   3.344   1.311  0.0449  0.2221  0.3424
  731MOL0     O98558   9.430   3.263   1.227 -0.5652  0.0459 -0.5853
  731MOL0     C98559   9.400   3.270   1.087  0.1550 -0.1074 -0.2482
  731MOL0     C98560   9.269   3.194   1.046 -0.1081 -0.2036 -0.5160
  731MOL0     C98561   9.206   3.211   0.902 -0.1741 -0.5453 -0.7402
  731MOL0     C98562   9.109   3.323   0.894  0.4555  0.6148 -0.2240
  731MOL0     C98563   9.030   3.325   0.758  0.0625  0.0356 -0.9232
  731MOL0     C98564   9.125   3.369   0.643  0.3907 -1.5753 -0.8712
  731MOL0     C98565   9.039   3.420   0.528  0.1571  0.4278 -0.2978
  731MOL0     C98566   9.129   3.470   0.416 -0.0780 -0.2570 -0.1551
  731MOL0     N98567   9.045   3.549   0.332 -0.2738  0.1705 -0.4260
  731MOL0     C98568   8.997   3.500   0.212  0.5991  0.1936 -0.2746
  731MOL0     C98569   8.953   3.607   0.140 -0.1715 -0.2196 -0.0217
  731MOL0     C98570   8.904   3.609   0.001  0.4721  0.9861  0.2741
  731MOL0     C98571   8.756   3.589  -0.008  1.3020 -0.2699  0.1692
  731MOL0     C98572   8.694   3.635  -0.141 -0.5139 -0.7211 -0.9904
  731MOL0     C98573   8.761   3.575  -0.260 -0.0317  0.1011  0.5487
  731MOL0     O98574   8.735   3.431  -0.246 -0.1211 -0.0337  0.2738
  731MOL0     C98575   8.779   3.356  -0.351  0.1862  0.7159 -0.0422
  731MOL0     C98576   8.720   3.233  -0.358 -0.9935 -0.2424 -0.4647
  731MOL0     C98577   8.746   3.139  -0.460 -0.8629 -1.4194 -0.6594
  731MOL0     C98578   8.663   3.022  -0.453  0.1080 -0.2636 -0.1092
  731MOL0     C98579   8.845   3.168  -0.551  0.2279  0.0728 -0.3734
  731MOL0     C98580   8.892   3.067  -0.653  0.0417  0.2743  0.2918
  731MOL0     O98581   8.839   2.935  -0.639  0.0780 -0.3970  0.2377
  731MOL0     C98582   8.890   2.827  -0.700  0.2580 -0.1320  0.0339
  731MOL0     C98583   8.803   2.714  -0.695 -0.1072 -0.2486  0.5656
  731MOL0     C98584   8.838   2.588  -0.744  0.2376 -0.2613  0.2029
  731MOL0     C98585   8.959   2.572  -0.811  0.0439 -1.1071  0.4982
  731MOL0     O98586   9.007   2.445  -0.847  0.1786  0.7631 -0.1562
  731MOL0     C98587   9.110   2.438  -0.957  1.3034 -0.1055  0.1686
  731MOL0     C98588   9.117   2.283  -0.990 -0.1933 -0.3111 -0.1898
  731MOL0     C98589   8.990   2.219  -1.048  0.0582 -0.3895  0.0330
  731MOL0     C98590   8.960   2.291  -1.172  0.0424 -0.1855  0.2912
  731MOL0     C98591   8.870   2.208  -1.269  0.3311  0.3391  0.0595
  731MOL0     C98592   8.882   2.260  -1.404 -0.5769 -0.6136  1.3545
  731MOL0     C98593   8.806   2.182  -1.511  0.8715  0.5240 -0.5442
  731MOL0     C98594   8.820   2.251  -1.647  0.2109 -0.5355  0.7179
  731MOL0    Cl98595   8.719   2.399  -1.658 -0.3670 -0.1902  0.0658
  731MOL0     C98596   9.035   2.692  -0.837  0.6874 -0.2397 -0.0961
  731MOL0     C98597   9.001   2.819  -0.783 -0.6696  0.5842  0.0107
  731MOL0     O98598   8.975   3.106  -0.739  0.0732  0.0606 -0.3162
  731MOL0     C98599   8.907   3.299  -0.550 -0.2595  0.4068 -0.1022
  731MOL0     C98600   8.874   3.391  -0.454  0.3477  0.7824  0.2538
  731MOL0     N98601   8.981   3.715   0.223  1.2266 -0.3793  0.3645
  731MOL0     N98602   9.027   3.681   0.337  0.2876 -0.9479 -0.6045
  731MOL0     C98603   9.402   3.320   1.442  0.3075  0.4226 -0.4422
  731MOL0     C98604   9.364   3.395   1.548  0.6403 -0.6129 -0.5476
  731MOL0     C98605   9.184   3.698   1.800  1.0065 -0.1974 -0.2723
  731MOL0     C98606   9.065   3.741   1.877  0.4373  0.4258  0.4056
  731MOL0     C98607   9.075   3.838   1.972 -0.4287  0.9174 -0.0915
  731MOL0     C98608   9.198   3.875   2.019 -0.1359  0.6323  0.2249
  731MOL0     O98609   9.223   3.942   2.136  0.5713 -0.1670  0.6442
  731MOL0     C98610   9.110   3.979   2.216 -0.2136  0.2733 -0.3721
  731MOL0     C98611   9.165   4.021   2.351 -0.0942  1.0629 -0.7695
  731MOL0     C98612   9.210   4.168   2.340  0.5347  0.1347 -0.7406
  731MOL0     C98613   9.196   4.224   2.483  0.3137 -0.6764 -0.0804
  731MOL0     C98614   9.310   4.173   2.565 -0.0712 -0.3941 -0.0245
  731MOL0     C98615   9.395   4.154   2.645 -0.4590  0.1371 -1.1421
  731MOL0     C98616   9.314   3.837   1.945 -0.5595  0.9871 -1.7381
  731MOL0     C98617   9.301   3.755   1.836 -0.2407  1.1863 -0.1801
  731MOL0     H98618   9.187   3.626   1.378  0.8982  0.2431  0.1276
  731MOL0     H98619   9.230   3.487   1.196  1.2414  0.8135 -0.5435
  731MOL0     H98620   9.386   3.373   1.052 -0.9508  0.7802  2.5777
  731MOL0     H98621   9.484   3.229   1.029 -0.1984 -3.0040  1.1655
  731MOL0     H98622   9.294   3.087   1.049 -0.2943 -0.2676 -1.0867
  731MOL0     H98623   9.184   3.220   1.110  0.9790  3.6147 -0.3969
  731MOL0     H98624   9.286   3.251   0.839 -1.1174  1.9463 -0.4767
  731MOL0     H98625   9.161   3.119   0.864 -1.7931 -1.1474  2.3301
  731MOL0     H98626   9.035   3.321   0.975 -2.4868 -2.4123 -2.7015
  731MOL0     H98627   9.162   3.419   0.894 -0.3663  1.0764 -0.1450
  731MOL0     H98628   8.989   3.226   0.738  2.9266 -1.4531 -0.0731
  731MOL0     H98629   8.956   3.405   0.770  0.3795  0.1963  0.1087
  731MOL0     H98630   9.189   3.449   0.682 -2.1094  1.3594 -2.2620
  731MOL0     H98631   9.192   3.291   0.609 -0.8435 -2.3445 -1.6300
  731MOL0     H98632   8.972   3.340   0.497 -1.8160  1.0109  2.1181
  731MOL0     H98633   8.981   3.502   0.573  0.5587  0.0824  0.8900
  731MOL0     H98634   9.186   3.385   0.375 -0.1911 -0.9430  1.0694
  731MOL0     H98635   9.204   3.535   0.462 -1.5052  0.0177  1.8694
  731MOL0     H98636   8.992   3.394   0.188 -0.0597 -0.6087  3.0033
  731MOL0     H98637   8.940   3.702  -0.044  2.3990  0.6240  0.9868
  731MOL0     H98638   8.958   3.524  -0.041 -0.6286  0.0054  0.7951
  731MOL0     H98639   8.705   3.647   0.070 -1.1171  2.5772 -3.1979
  731MOL0     H98640   8.726   3.485   0.005  0.2532 -0.4538 -2.9268
  731MOL0     H98641   8.707   3.739  -0.172  2.1501 -1.5172 -2.9148
  731MOL0     H98642   8.586   3.617  -0.139 -0.4658 -1.0721  0.9634
  731MOL0     H98643   8.868   3.596  -0.254 -0.4580  2.3655  0.8520
  731MOL0     H98644   8.715   3.614  -0.352  0.8052  0.5582  0.3155
  731MOL0     H98645   8.663   3.203  -0.270  2.3493 -0.3290  1.8592
  731MOL0     H98646   8.636   2.981  -0.550 -0.6536  4.2667 -2.0626
  731MOL0     H98647   8.701   2.937  -0.395  0.3522 -0.5546 -0.6909
  731MOL0     H98648   8.567   3.043  -0.405  0.3043  0.7520 -0.1384
  731MOL0     H98649   8.716   2.716  -0.631 -0.1672  1.7298  0.4802
  731MOL0     H98650   8.774   2.501  -0.735  0.1487 -0.1283  0.9110
  731MOL0     H98651   9.059   2.498  -1.033 -1.8588  0.5877  2.6137
  731MOL0     H98652   9.204   2.487  -0.931 -0.4818  3.5536  0.3697
  731MOL0     H98653   9.192   2.287  -1.069  0.6990  0.9120  0.6812
  731MOL0     H98654   9.146   2.220  -0.906  0.7825 -0.6548 -0.7763
  731MOL0     H98655   8.908   2.215  -0.975  2.0589 -2.4145  2.3219
  731MOL0     H98656   9.005   2.112  -1.063 -4.1137 -1.0560 -0.6932
  731MOL0     H98657   8.909   2.385  -1.154  0.3626 -0.0350  0.4245
  731MOL0     H98658   9.049   2.315  -1.230 -0.0854 -0.1855  0.0942
  731MOL0     H98659   8.766   2.215  -1.238 -0.9618 -0.2626 -3.6089
  731MOL0     H98660   8.893   2.101  -1.271 -1.0622 -0.0694  2.7232
  731MOL0     H98661   8.843   2.362  -1.398  4.3313  1.7705 -0.8957
  731MOL0     H98662   8.983   2.256  -1.447 -1.6374 -0.1975 -1.3898
  731MOL0     H98663   8.702   2.176  -1.479  0.4771 -0.4021 -1.8909
  731MOL0     H98664   8.848   2.082  -1.522 -0.6841 -0.1272 -0.8478
  731MOL0     H98665   8.794   2.181  -1.727  0.1806 -0.0251  0.2759
  731MOL0     H98666   8.927   2.273  -1.659 -0.6519  2.2661 -4.9193
  731MOL0     H98667   9.130   2.683  -0.889  1.1472 -0.5826  0.7771
  731MOL0     H98668   9.064   2.906  -0.800 -0.7626  0.6207 -0.1521
  731MOL0     H98669   8.967   3.319  -0.638 -0.8457 -2.3442 -1.2261
  731MOL0     H98670   8.919   3.490  -0.451  0.0585  0.8987  1.6760
  731MOL0     H98671   9.471   3.236   1.449 -1.3466 -0.9032  0.7949
  731MOL0     H98672   9.397   3.389   1.651 -2.4596 -0.2252  0.5688
  731MOL0     H98673   8.964   3.706   1.854  0.6908 -1.0490  1.3799
  731MOL0     H98674   8.990   3.880   2.026 -1.0622 -1.2798  0.7260
  731MOL0     H98675   9.043   4.058   2.179 -4.2551 -1.4276  2.4997
  731MOL0     H98676   9.042   3.896   2.233 -2.5693  1.9473 -1.0185
  731MOL0     H98677   9.253   3.960   2.376 -0.0565  1.4259  0.0176
  731MOL0     H98678   9.097   3.990   2.431  2.1327 -2.0141  0.1312
  731MOL0     H98679   9.153   4.222   2.264 -1.5041 -2.4851 -1.2340
  731MOL0     H98680   9.310   4.161   2.297  0.7672  0.7010 -0.3029
  731MOL0     H98681   9.100   4.192   2.525 -0.6604 -0.1921 -1.8531
  731MOL0     H98682   9.212   4.332   2.480  1.1893 -0.7039  1.6399
  731MOL0     H98683   9.466   4.131   2.721 -0.3847  0.7494 -1.0171
  731MOL0     H98684   9.410   3.877   1.975 -0.8080  0.3390  0.0373
  731MOL0     H98685   9.398   3.726   1.796 -0.1529 -2.5268  2.2282
  732MOL0     O98686   7.617   2.920   9.318 -0.1918 -0.0038  0.5233
  732MOL0     C98687   7.617   3.044   9.298  0.8308  0.3778  0.0617
  732MOL0     O98688   7.507   3.131   9.305  0.0992  0.5147 -0.0200
  732MOL0     C98689   7.378   3.080   9.324 -0.2879 -0.6735  0.0917
  732MOL0     C98690   7.330   2.976   9.247 -0.7584  0.0459 -0.0972
  732MOL0     C98691   7.198   2.924   9.277  0.2919  0.3009 -0.5591
  732MOL0     C98692   7.117   2.974   9.379  0.2880 -0.1392  0.1447
  732MOL0     O98693   6.987   2.938   9.411 -0.7727  0.0216  0.0273
  732MOL0     C98694   6.938   2.814   9.338  0.7626 -0.2844 -0.3677
  732MOL0     C98695   6.811   2.769   9.411  0.1366  0.0660 -0.1127
  732MOL0     C98696   6.727   2.679   9.322  0.0610  0.1442  0.3119
  732MOL0     C98697   6.616   2.598   9.394  0.0559  0.7546  0.1629
  732MOL0     C98698   6.525   2.697   9.465 -0.5665 -0.2172 -0.2746
  732MOL0     C98699   6.414   2.621   9.537 -1.4773 -0.3793 -0.2985
  732MOL0     C98700   6.314   2.721   9.596 -0.8817 -0.0906 -0.1759
  732MOL0     C98701   6.207   2.656   9.678  0.1317  0.1295  0.0005
  732MOL0     N98702   6.114   2.574   9.596 -0.7871 -0.0653 -0.1647
  732MOL0     C98703   6.029   2.646   9.518  0.3510 -0.6209  0.1838
  732MOL0     C98704   5.956   2.547   9.452 -1.3090 -0.4845  0.1943
  732MOL0     C98705   5.856   2.563   9.342  0.2228  0.5181  0.6380
  732MOL0     C98706   5.700   2.593   9.377 -0.0234  0.7804 -0.7283
  732MOL0     C98707   5.632   2.494   9.475 -0.0784  0.2981 -0.6755
  732MOL0     C98708   5.543   2.550   9.585 -0.4273 -0.4548 -0.2548
  732MOL0     O98709   5.557   2.467   9.709 -0.2539 -0.1474  0.5789
  732MOL0     C98710   5.675   2.454   9.784 -1.0440 -0.1546  0.9469
  732MOL0     C98711   5.653   2.373   9.895  0.4819  0.0185  0.0841
  732MOL0     C98712   5.763   2.338   9.977  0.1779 -0.1974 -0.1149
  732MOL0     C98713   5.736   2.227  10.066  0.3530 -0.2711  0.4759
  732MOL0     C98714   5.894   2.394   9.962 -0.3432  0.8020  0.2681
  732MOL0     C98715   6.013   2.365  10.044  0.2888  0.0479  0.9509
  732MOL0     O98716   6.142   2.383   9.993 -1.0033  0.2561 -1.4000
  732MOL0     C98717   6.259   2.355  10.065 -0.4089  0.2882  0.6878
  732MOL0     C98718   6.269   2.266  10.175  0.4004 -0.4535 -0.4132
  732MOL0     C98719   6.390   2.239  10.239  1.0855 -0.2687  0.4899
  732MOL0     C98720   6.504   2.300  10.184 -0.8222  0.1570  0.2347
  732MOL0     O98721   6.635   2.274  10.215  0.2673 -0.5498 -0.0892
  732MOL0     C98722   6.669   2.222  10.341  1.1256  0.2290 -0.4167
  732MOL0     C98723   6.821   2.202  10.354 -0.2590  0.2083  0.0645
  732MOL0     C98724   6.848   2.130  10.492 -0.9758  0.7485  0.2422
  732MOL0     C98725   6.995   2.164  10.533  0.3880 -0.1243 -0.2971
  732MOL0     C98726   7.005   2.108  10.677 -0.4061 -0.4982  0.3956
  732MOL0     C98727   7.152   2.129  10.716  0.0132  0.2407  0.2021
  732MOL0     C98728   7.183   2.268  10.765 -0.2836  0.7953  0.1966
  732MOL0     C98729   7.327   2.287  10.807 -0.4132 -0.3400 -0.1497
  732MOL0    Cl98730   7.445   2.232  10.688 -0.0777  0.2175 -0.2171
  732MOL0     C98731   6.494   2.390  10.077 -0.2120 -0.2907 -0.6512
  732MOL0     C98732   6.372   2.423  10.016  0.2857  0.5825 -0.2600
  732MOL0     O98733   5.979   2.334  10.159  0.3698  0.1367 -0.2433
  732MOL0     C98734   5.911   2.477   9.850  0.4779 -0.3155 -0.4615
  732MOL0     C98735   5.805   2.511   9.761  0.6856  0.5589  0.0500
  732MOL0     N98736   6.003   2.417   9.499  0.0787 -0.7841  0.8741
  732MOL0     N98737   6.101   2.441   9.582  0.1991  0.3436  0.1927
  732MOL0     C98738   7.165   3.082   9.451  0.1090  0.5075  0.1280
  732MOL0     C98739   7.283   3.139   9.419  0.0429 -0.0875  0.0713
  732MOL0     C98740   7.740   3.100   9.246 -0.3244  1.0676 -0.1877
  732MOL0     C98741   7.849   3.011   9.239  0.1363 -0.4274  0.1525
  732MOL0     C98742   7.969   3.065   9.193 -0.1465 -0.1835 -0.6063
  732MOL0     C98743   7.980   3.202   9.169 -1.3097  0.0566 -0.7857
  732MOL0     O98744   8.107   3.255   9.135  0.0031  0.0426  0.5285
  732MOL0     C98745   8.115   3.342   9.018  1.0139  1.3235  0.6140
  732MOL0     C98746   8.262   3.343   8.983  0.6402 -0.4275  0.3373
  732MOL0     C98747   8.287   3.445   8.871 -0.4327  0.9093  1.1437
  732MOL0     C98748   8.435   3.477   8.857  0.7901 -0.3614 -0.0218
  732MOL0     C98749   8.494   3.348   8.800 -0.1814  0.1373  0.1908
  732MOL0     C98750   8.568   3.258   8.766  0.0175  0.2718  0.1147
  732MOL0     C98751   7.867   3.284   9.170 -0.1953 -1.2362  0.0764
  732MOL0     C98752   7.751   3.233   9.204 -0.2152  0.2516  0.4995
  732MOL0     H98753   7.388   2.935   9.165 -1.6867  0.9192 -1.2352
  732MOL0     H98754   7.161   2.852   9.205  0.0948  1.1303 -1.2995
  732MOL0     H98755   6.920   2.844   9.234 -0.8861  1.1746  0.2788
  732MOL0     H98756   7.002   2.729   9.360 -1.8337 -1.8287  1.8988
  732MOL0     H98757   6.840   2.705   9.495  0.6680 -0.5972 -0.7827
  732MOL0     H98758   6.766   2.861   9.451  1.6045  1.9088 -2.4340
  732MOL0     H98759   6.676   2.738   9.246 -1.4035  1.5288  2.2592
  732MOL0     H98760   6.799   2.603   9.292  0.1490  0.3259  0.0657
  732MOL0     H98761   6.558   2.535   9.325  0.9531  0.1416 -0.0416
  732MOL0     H98762   6.673   2.545   9.470  1.9587  0.4906 -1.3628
  732MOL0     H98763   6.572   2.742   9.553 -3.1056  0.7939  0.6406
  732MOL0     H98764   6.503   2.781   9.399  0.7588  0.9862  0.7617
  732MOL0     H98765   6.364   2.546   9.477 -1.6644  2.1633 -3.6289
  732MOL0     H98766   6.459   2.567   9.621 -1.0940 -4.1271 -2.7142
  732MOL0     H98767   6.360   2.796   9.660  1.4651  2.5134 -4.5044
  732MOL0     H98768   6.287   2.787   9.514  0.2302  0.1932 -0.3234
  732MOL0     H98769   6.152   2.729   9.737  0.9117  1.7004 -1.1416
  732MOL0     H98770   6.257   2.599   9.757  0.8601 -2.7410 -2.3360
  732MOL0     H98771   6.037   2.753   9.501  1.6593 -0.6408  0.6043
  732MOL0     H98772   5.900   2.633   9.270  0.8611 -1.6309 -1.1933
  732MOL0     H98773   5.863   2.470   9.283  2.0446 -0.6574  2.5415
  732MOL0     H98774   5.639   2.591   9.287 -3.6804  0.8242  1.5510
  732MOL0     H98775   5.712   2.690   9.425  3.8062 -0.6820  1.8044
  732MOL0     H98776   5.718   2.433   9.505  0.0107  0.6456 -0.2100
  732MOL0     H98777   5.565   2.423   9.426 -0.2947 -0.4805  0.6821
  732MOL0     H98778   5.442   2.548   9.545 -1.2216 -0.3316  1.6490
  732MOL0     H98779   5.571   2.653   9.608 -3.3423  0.2058  0.7872
  732MOL0     H98780   5.554   2.330   9.896  0.2413  0.4545 -1.4568
  732MOL0     H98781   5.826   2.165  10.076  0.8290  0.4449  0.7032
  732MOL0     H98782   5.701   2.260  10.164 -0.3772 -1.5015  0.6499
  732MOL0     H98783   5.658   2.174  10.010  1.1988  1.9933 -3.2041
  732MOL0     H98784   6.184   2.207  10.208 -0.0611  0.2631 -0.3018
  732MOL0     H98785   6.393   2.171  10.324  1.6676  1.6228  2.0554
  732MOL0     H98786   6.634   2.295  10.414  2.3259  1.9053 -1.4359
  732MOL0     H98787   6.618   2.126  10.355 -2.2862  2.2178  2.1713
  732MOL0     H98788   6.860   2.144  10.270 -4.3169 -0.4448 -1.5956
  732MOL0     H98789   6.851   2.307  10.354 -2.6273  0.9471 -0.2866
  732MOL0     H98790   6.838   2.022  10.477  3.0550  0.1942  0.5558
  732MOL0     H98791   6.768   2.173  10.554 -2.2613  2.8044 -2.6471
  732MOL0     H98792   7.068   2.119  10.465  3.2759  1.9697  1.2111
  732MOL0     H98793   7.022   2.270  10.533 -0.6832  0.1996  1.9521
  732MOL0     H98794   6.988   2.000  10.673  3.6302 -1.3333  1.3474
  732MOL0     H98795   6.939   2.157  10.748 -0.2245  0.8229 -0.3265
  732MOL0     H98796   7.183   2.062  10.797 -0.8998 -1.9964 -1.2036
  732MOL0     H98797   7.211   2.104  10.628 -0.0644 -2.1396  0.7534
  732MOL0     H98798   7.117   2.299  10.846  0.9522 -1.0974  2.0423
  732MOL0     H98799   7.162   2.333  10.679  2.3062  0.3606 -0.8633
  732MOL0     H98800   7.336   2.238  10.905  0.2706  2.2977  1.1984
  732MOL0     H98801   7.340   2.394  10.828 -0.4812 -0.9677  4.0786
  732MOL0     H98802   6.584   2.433  10.034  1.4195  0.2415  2.9316
  732MOL0     H98803   6.366   2.477   9.922  0.4778 -1.6478 -1.6441
  732MOL0     H98804   6.010   2.518   9.829 -0.3676  2.2128  0.1652
  732MOL0     H98805   5.827   2.579   9.679  2.6391  0.2940  0.3016
  732MOL0     H98806   7.117   3.121   9.540  3.0231 -0.1414  2.1293
  732MOL0     H98807   7.320   3.229   9.468  3.6398 -1.1212 -0.4594
  732MOL0     H98808   7.842   2.905   9.263  3.1229 -1.0304 -1.1383
  732MOL0     H98809   8.065   3.015   9.183  1.1873  2.1034  0.0180
  732MOL0     H98810   8.049   3.308   8.938  3.7832  0.6111 -1.5086
  732MOL0     H98811   8.074   3.442   9.035 -2.2252  0.4360 -1.0146
  732MOL0     H98812   8.291   3.247   8.940  2.5265  0.4823 -0.5438
  732MOL0     H98813   8.327   3.366   9.068  2.0388  1.1684 -1.0870
  732MOL0     H98814   8.231   3.538   8.888 -0.0186  1.4377 -0.2807
  732MOL0     H98815   8.257   3.397   8.778 -0.5348 -1.3624  2.2713
  732MOL0     H98816   8.489   3.509   8.947  0.9427  1.2458 -0.6513
  732MOL0     H98817   8.451   3.562   8.789  0.7926  0.7454  1.3182
  732MOL0     H98818   8.613   3.167   8.733  2.0200  1.1118  0.4267
  732MOL0     H98819   7.873   3.390   9.147  1.2429 -1.0863  1.0236
  732MOL0     H98820   7.667   3.298   9.224 -0.4609  0.0202  0.2137
  733MOL0     O98821   8.155   5.811   3.691  0.3367 -0.0402 -0.3066
  733MOL0     C98822   8.199   5.780   3.803 -0.2066 -0.7826 -0.1349
  733MOL0     O98823   8.136   5.787   3.926  0.4139 -0.3666  0.9136
  733MOL0     C98824   8.001   5.832   3.946 -0.1357 -0.1027 -0.8712
  733MOL0     C98825   7.964   5.890   4.062  1.2020 -0.7315 -0.2638
  733MOL0     C98826   7.823   5.929   4.086  0.4576 -0.0077  0.4642
  733MOL0     C98827   7.716   5.898   3.996  0.2728 -0.1108  0.1601
  733MOL0     O98828   7.586   5.939   4.006  0.0424  0.5772 -0.2480
  733MOL0     C98829   7.539   5.976   4.139  0.4214 -0.1304  0.3538
  733MOL0     C98830   7.390   5.971   4.121  0.0987 -0.5361 -0.8016
  733MOL0     C98831   7.331   6.104   4.076  0.9765 -0.4677 -0.1475
  733MOL0     C98832   7.178   6.092   4.042 -0.9767  0.4219 -0.0644
  733MOL0     C98833   7.121   6.234   4.041  0.2782  0.4727 -0.2616
  733MOL0     C98834   7.161   6.321   3.915 -0.1590 -0.1222 -0.6430
  733MOL0     C98835   7.073   6.445   3.911 -0.5674  0.1671 -0.3059
  733MOL0     C98836   7.109   6.546   4.027  0.2690  0.4775 -0.1125
  733MOL0     N98837   7.007   6.653   4.026  0.1883 -0.3225  0.3514
  733MOL0     C98838   6.871   6.620   4.025 -0.0840 -0.4815  0.6633
  733MOL0     C98839   6.820   6.735   4.081 -0.2672  0.7819  0.0702
  733MOL0     C98840   6.684   6.759   4.124 -0.2761 -0.1015  0.3680
  733MOL0     C98841   6.611   6.844   4.012 -0.7386 -0.1688  0.6412
  733MOL0     C98842   6.458   6.853   4.045 -0.0785  0.2732 -0.4943
  733MOL0     C98843   6.369   6.726   4.028 -0.5512  0.5175 -0.0894
  733MOL0     O98844   6.398   6.632   4.130  0.5875  0.4754  0.3420
  733MOL0     C98845   6.299   6.606   4.226  0.2469 -0.2195  0.2536
  733MOL0     C98846   6.262   6.476   4.258 -0.2286 -0.7007  0.1995
  733MOL0     C98847   6.156   6.444   4.344  0.0636 -0.6380  0.6432
  733MOL0     C98848   6.104   6.307   4.345  0.0338  0.9493  0.3577
  733MOL0     C98849   6.092   6.552   4.422  0.2839  0.7520 -0.6604
  733MOL0     C98850   5.986   6.537   4.531 -0.3849  0.7189 -0.0019
  733MOL0     O98851   5.919   6.646   4.554  0.0751  1.0862  0.1732
  733MOL0     C98852   5.860   6.655   4.675 -0.5570  0.1153 -1.0304
  733MOL0     C98853   5.728   6.688   4.687 -0.2824 -1.3495  1.2070
  733MOL0     C98854   5.659   6.688   4.802 -0.0085  0.3995  0.4888
  733MOL0     C98855   5.727   6.687   4.928  0.8806  0.8390 -0.2631
  733MOL0     O98856   5.660   6.700   5.044  0.6387 -0.2245  0.4415
  733MOL0     C98857   5.691   6.595   5.138  0.5100  0.6217 -0.1037
  733MOL0     C98858   5.577   6.578   5.237 -0.2233 -0.0440  0.9877
  733MOL0     C98859   5.442   6.555   5.169  0.6036  0.9020 -0.1975
  733MOL0     C98860   5.381   6.679   5.098 -0.6083  0.1193 -0.1647
  733MOL0     C98861   5.239   6.690   5.111  0.1143  0.1382  0.7963
  733MOL0     C98862   5.210   6.764   5.242 -0.7279  0.1083 -1.0637
  733MOL0     C98863   5.071   6.806   5.249  0.6866 -0.0361 -0.3399
  733MOL0     C98864   5.041   6.886   5.373  0.2596 -0.6809  0.8286
  733MOL0    Cl98865   4.864   6.895   5.387  0.0553 -0.3405  0.1671
  733MOL0     C98866   5.859   6.661   4.921 -0.4402  0.6381  1.1011
  733MOL0     C98867   5.925   6.637   4.799 -0.4825  0.3310  0.9773
  733MOL0     O98868   5.955   6.423   4.567  0.6594  0.2765  0.5437
  733MOL0     C98869   6.128   6.679   4.388  1.1907 -0.6124  0.4154
  733MOL0     C98870   6.223   6.704   4.285 -0.4644 -0.3367 -0.4971
  733MOL0     N98871   6.918   6.830   4.111 -0.7093  0.7494  0.9906
  733MOL0     N98872   7.034   6.778   4.070 -0.5042 -0.5624 -0.4729
  733MOL0     C98873   7.760   5.821   3.885  0.1933 -0.4208 -0.0012
  733MOL0     C98874   7.897   5.790   3.869  0.4976 -0.2762  0.3063
  733MOL0     C98875   8.337   5.720   3.809 -0.3819 -0.3786 -0.3482
  733MOL0     C98876   8.418   5.706   3.698 -0.4669 -0.3855  0.4747
  733MOL0     C98877   8.538   5.642   3.686 -0.4640  0.2308 -0.0016
  733MOL0     C98878   8.593   5.585   3.800 -0.1440 -0.6043 -0.3304
  733MOL0     O98879   8.702   5.498   3.796  0.4414 -0.2460 -0.3089
  733MOL0     C98880   8.794   5.502   3.689  0.1968  0.3344 -0.3160
  733MOL0     C98881   8.921   5.435   3.721  0.9132 -0.0972 -0.5796
  733MOL0     C98882   9.013   5.485   3.836 -0.2092  0.2280 -0.2919
  733MOL0     C98883   9.019   5.633   3.849 -0.4896 -0.6326 -0.7044
  733MOL0     C98884   9.050   5.700   3.726 -0.7559 -0.4035  0.0698
  733MOL0     C98885   9.093   5.766   3.629  0.7915 -0.3609  0.8859
  733MOL0     C98886   8.532   5.613   3.916  0.5980  0.2388 -0.2921
  733MOL0     C98887   8.408   5.673   3.928 -0.4246 -0.3025  0.9367
  733MOL0     H98888   8.044   5.912   4.133  0.0155 -0.3985  1.0234
  733MOL0     H98889   7.814   5.988   4.177 -0.2390 -2.2810  1.9716
  733MOL0     H98890   7.568   5.904   4.217 -0.1193 -0.0297  0.6484
  733MOL0     H98891   7.581   6.072   4.169 -0.6877 -0.0997  1.9362
  733MOL0     H98892   7.365   5.896   4.045  1.0298 -1.2367 -0.4420
  733MOL0     H98893   7.352   5.937   4.218 -2.9801 -1.1681 -2.1237
  733MOL0     H98894   7.352   6.181   4.151  2.2456 -0.9750  0.0383
  733MOL0     H98895   7.378   6.136   3.983 -1.3941  1.6722 -0.6952
  733MOL0     H98896   7.169   6.037   3.948  4.3663 -1.2966  0.1284
  733MOL0     H98897   7.127   6.038   4.122  3.4076 -0.8928  2.1593
  733MOL0     H98898   7.012   6.224   4.036  0.2308  1.0153 -0.4318
  733MOL0     H98899   7.145   6.289   4.132 -0.1983 -2.5946  1.8796
  733MOL0     H98900   7.267   6.349   3.907 -0.3704  1.4637  1.2699
  733MOL0     H98901   7.126   6.264   3.829 -1.1335 -3.1587  1.5634
  733MOL0     H98902   7.093   6.503   3.820 -0.1604  1.6540  0.6919
  733MOL0     H98903   6.973   6.401   3.904  0.3641 -2.0879 -0.3653
  733MOL0     H98904   7.210   6.586   4.016  0.4450 -0.4739 -2.5523
  733MOL0     H98905   7.088   6.503   4.126 -1.6397  1.0022 -0.2433
  733MOL0     H98906   6.827   6.528   3.988 -1.4220  1.4228 -3.1428
  733MOL0     H98907   6.635   6.663   4.141  0.3379 -0.2247  1.5682
  733MOL0     H98908   6.686   6.804   4.224  1.2117 -0.6718  0.6137
  733MOL0     H98909   6.622   6.807   3.910 -1.5340  1.0248  0.0979
  733MOL0     H98910   6.647   6.947   4.009  1.7789 -0.8507 -5.2513
  733MOL0     H98911   6.428   6.927   3.970  3.5756  1.4396 -1.0034
  733MOL0     H98912   6.442   6.895   4.145  2.1918 -1.5118  0.7090
  733MOL0     H98913   6.385   6.680   3.930 -1.9361  2.2175 -1.1630
  733MOL0     H98914   6.263   6.753   4.034 -1.1011 -1.7807  2.3001
  733MOL0     H98915   6.309   6.387   4.217 -0.2832  0.2072 -2.0202
  733MOL0     H98916   6.151   6.250   4.264 -0.2866 -0.5450  1.1894
  733MOL0     H98917   6.117   6.247   4.436 -0.0277  1.1426  0.4947
  733MOL0     H98918   5.996   6.319   4.338 -0.1345 -0.7136 -0.3074
  733MOL0     H98919   5.671   6.699   4.595  1.6619  2.2903  0.2277
  733MOL0     H98920   5.550   6.690   4.802 -0.1140 -1.4108  2.1292
  733MOL0     H98921   5.698   6.504   5.078  1.2481 -1.8213  3.3328
  733MOL0     H98922   5.782   6.615   5.196  2.5249 -0.2907 -2.7688
  733MOL0     H98923   5.614   6.496   5.300  1.8888  2.6193  3.4631
  733MOL0     H98924   5.569   6.673   5.290 -0.4660  1.2347 -1.1833
  733MOL0     H98925   5.369   6.525   5.245  1.9715  0.3097  0.9321
  733MOL0     H98926   5.460   6.471   5.100  1.0459 -0.3157  1.3417
  733MOL0     H98927   5.434   6.773   5.116  2.5054 -0.9772 -2.6540
  733MOL0     H98928   5.401   6.661   4.992  0.6787 -0.6035  0.1802
  733MOL0     H98929   5.182   6.597   5.107 -0.6718  0.4428  3.1627
  733MOL0     H98930   5.204   6.750   5.026 -1.2474  0.2810  1.4225
  733MOL0     H98931   5.241   6.700   5.325  0.6452  0.4725 -1.2577
  733MOL0     H98932   5.267   6.857   5.248 -0.1362 -0.0824 -2.8846
  733MOL0     H98933   5.009   6.716   5.253 -1.8045  1.1740 -4.5385
  733MOL0     H98934   5.035   6.862   5.162 -5.4684  0.1430  1.8380
  733MOL0     H98935   5.092   6.983   5.366  1.7991 -1.3506  2.0533
  733MOL0     H98936   5.080   6.825   5.455  1.8084  2.3112  2.5040
  733MOL0     H98937   5.926   6.668   5.006  1.1209 -0.6177  0.0354
  733MOL0     H98938   6.032   6.620   4.814  0.6406  4.3982 -1.2351
  733MOL0     H98939   6.086   6.763   4.443  0.7524  0.2128 -1.1214
  733MOL0     H98940   6.254   6.807   4.272 -0.1569 -0.4125 -0.3668
  733MOL0     H98941   7.692   5.794   3.804  1.7508 -2.7174 -0.6585
  733MOL0     H98942   7.924   5.752   3.771  2.8168  1.7771  0.0289
  733MOL0     H98943   8.378   5.738   3.603  0.2700 -0.0166  0.2798
  733MOL0     H98944   8.582   5.617   3.590  0.1695 -0.8597  0.5563
  733MOL0     H98945   8.752   5.445   3.606  0.5956 -0.0009 -0.2910
  733MOL0     H98946   8.811   5.605   3.655  1.4631  0.8004  1.5800
  733MOL0     H98947   8.984   5.423   3.632  0.8595 -1.6421 -0.4454
  733MOL0     H98948   8.884   5.335   3.748  2.2257 -0.5162 -0.2255
  733MOL0     H98949   9.115   5.449   3.823  0.1790  0.9638  0.6049
  733MOL0     H98950   8.983   5.458   3.938  1.0008 -0.8989 -0.1961
  733MOL0     H98951   9.089   5.663   3.927 -1.8545 -1.2468  0.8274
  733MOL0     H98952   8.927   5.673   3.894  0.2210  0.9730 -0.6214
  733MOL0     H98953   9.111   5.825   3.541  0.9308 -2.1086 -0.3014
  733MOL0     H98954   8.581   5.585   4.008 -1.5350  0.1951  0.9140
  733MOL0     H98955   8.353   5.682   4.021  0.2192 -1.4920  1.4468
  734MOL0     O98956   0.321   6.704   3.515 -0.2283  0.2948  0.7026
  734MOL0     C98957   0.240   6.642   3.589 -0.3476  0.2687  0.1702
  734MOL0     O98958   0.153   6.698   3.680 -0.0034  0.6719  0.2238
  734MOL0     C98959   0.128   6.832   3.677 -0.2305 -0.4058 -0.6379
  734MOL0     C98960   0.192   6.910   3.768 -0.5239 -0.2760  0.0189
  734MOL0     C98961   0.171   7.051   3.776 -0.2901  0.2747 -0.0169
  734MOL0     C98962   0.075   7.104   3.692  0.1657  0.4534  0.4446
  734MOL0     O98963   0.057   7.240   3.700  0.1790  0.6921  0.0188
  734MOL0     C98964   0.005   7.320   3.592 -0.9219  0.3985  0.4116
  734MOL0     C98965  -0.136   7.369   3.612  0.4619  0.5976 -0.1381
  734MOL0     C98966  -0.118   7.487   3.711  0.1438  0.8972 -0.9553
  734MOL0     C98967  -0.256   7.519   3.768 -0.2989 -0.1595 -0.8223
  734MOL0     C98968  -0.259   7.674   3.786  0.7265  0.0432 -0.3794
  734MOL0     C98969  -0.374   7.722   3.875 -1.2568  0.1393 -0.0447
  734MOL0     C98970  -0.338   7.833   3.978 -0.3780  0.1257  0.0249
  734MOL0     C98971  -0.459   7.878   4.057 -0.5241  0.2034  0.0354
  734MOL0     N98972  -0.451   7.846   4.200  0.0188  0.3557  0.0449
  734MOL0     C98973  -0.403   7.728   4.252  0.1389 -0.0695  0.0856
  734MOL0     C98974  -0.364   7.747   4.379  0.0911 -0.4216 -0.2100
  734MOL0     C98975  -0.323   7.645   4.485 -0.1361 -0.3431  0.5733
  734MOL0     C98976  -0.171   7.628   4.504 -0.2244  0.1137  0.0454
  734MOL0     C98977  -0.092   7.613   4.377 -0.7331 -0.1916 -0.2073
  734MOL0     C98978  -0.147   7.496   4.295  0.8450 -0.1548 -0.1212
  734MOL0     O98979  -0.066   7.490   4.175 -0.6525  0.4654 -0.3291
  734MOL0     C98980  -0.033   7.365   4.139  0.3604 -0.0363 -0.5485
  734MOL0     C98981   0.097   7.318   4.151  0.8375 -0.2544 -0.1328
  734MOL0     C98982   0.135   7.185   4.118 -0.1390 -0.3885 -0.6816
  734MOL0     C98983   0.282   7.159   4.131  0.5444 -0.9175 -0.5889
  734MOL0     C98984   0.038   7.088   4.091  0.0062 -1.0467  0.4162
  734MOL0     C98985   0.063   6.934   4.064 -0.0664  0.6036 -0.6134
  734MOL0     O98986  -0.046   6.864   4.011  0.3053  0.3854  0.3762
  734MOL0     C98987  -0.060   6.731   4.023  0.1288  0.1991  0.4579
  734MOL0     C98988  -0.125   6.660   3.922  0.1762 -0.6738 -0.1573
  734MOL0     C98989  -0.138   6.519   3.929  0.3594 -0.1827 -0.1803
  734MOL0     C98990  -0.081   6.450   4.044  0.2243 -0.2213  0.3223
  734MOL0     O98991  -0.080   6.305   4.032 -0.5950 -0.0859  0.6370
  734MOL0     C98992  -0.078   6.225   4.156 -0.6433 -0.3809  0.0995
  734MOL0     C98993  -0.058   6.078   4.146  0.2923 -0.7398  1.0158
  734MOL0     C98994  -0.186   6.016   4.082  0.3532 -0.2343  0.1789
  734MOL0     C98995  -0.151   5.890   4.005 -0.9349  0.6329 -0.6698
  734MOL0     C98996  -0.097   5.781   4.100  0.8415  0.0538  0.3172
  734MOL0     C98997  -0.079   5.650   4.022 -0.3690 -0.2737 -0.1057
  734MOL0     C98998   0.052   5.648   3.937  1.1039 -0.9393  0.1730
  734MOL0     C98999   0.097   5.505   3.906  0.7810 -0.7199  0.3145
  734MOL0    Cl99000  -0.015   5.425   3.785 -0.4809 -0.2050  0.1956
  734MOL0     C99001  -0.034   6.526   4.145  0.1970  0.6332 -0.6361
  734MOL0     C99002  -0.030   6.663   4.140  0.2637 -1.0733  0.5282
  734MOL0     O99003   0.172   6.879   4.105  0.0968 -0.5605  0.0304
  734MOL0     C99004  -0.098   7.140   4.077 -0.4658 -0.2877 -0.4700
  734MOL0     C99005  -0.134   7.277   4.107 -0.5099 -0.4401 -0.9127
  734MOL0     N99006  -0.382   7.880   4.402 -0.0179 -0.5596  0.0183
  734MOL0     N99007  -0.438   7.937   4.295  0.6149 -0.7157  0.4292
  734MOL0     C99008   0.003   7.024   3.608  0.4324  0.2294  0.4528
  734MOL0     C99009   0.021   6.884   3.601 -0.5379  0.2515  0.1996
  734MOL0     C99010   0.229   6.494   3.586 -0.1045  0.4576 -0.2170
  734MOL0     C99011   0.291   6.421   3.488 -0.2857 -0.7061 -0.8722
  734MOL0     C99012   0.285   6.284   3.489  0.3287 -0.0873  0.5969
  734MOL0     C99013   0.214   6.218   3.589 -0.1386 -0.2777  0.1346
  734MOL0     O99014   0.208   6.082   3.603 -0.0915 -0.1142 -0.0394
  734MOL0     C99015   0.325   6.006   3.560  0.7094 -0.0577 -0.6399
  734MOL0     C99016   0.360   5.886   3.650  0.4261  0.4531 -0.0027
  734MOL0     C99017   0.330   5.909   3.795  0.5914  0.2966  0.5710
  734MOL0     C99018   0.407   5.806   3.872  0.8011  0.3617  0.3083
  734MOL0     C99019   0.421   5.669   3.819 -0.0079 -0.0775  0.4863
  734MOL0     C99020   0.437   5.562   3.759  0.1032  0.1150 -0.4891
  734MOL0     C99021   0.136   6.291   3.672 -0.0994 -0.1575 -0.8597
  734MOL0     C99022   0.146   6.427   3.673 -0.3487  0.0631  0.0705
  734MOL0     H99023   0.277   6.862   3.818  1.9071  2.1162 -1.5327
  734MOL0     H99024   0.235   7.104   3.846  0.8623 -0.5060 -0.4526
  734MOL0     H99025   0.066   7.409   3.574  0.8188 -0.6050  1.1128
  734MOL0     H99026   0.012   7.270   3.494  0.9955  3.3110 -1.0892
  734MOL0     H99027  -0.186   7.390   3.517  2.2722  0.5658 -1.1399
  734MOL0     H99028  -0.199   7.299   3.667 -1.1306  0.7507 -1.6827
  734MOL0     H99029  -0.050   7.455   3.790  0.5884 -0.0109 -1.6924
  734MOL0     H99030  -0.077   7.575   3.658  1.2571  1.3630  0.6147
  734MOL0     H99031  -0.352   7.481   3.733 -1.7824 -3.2208  5.2306
  734MOL0     H99032  -0.253   7.484   3.872  2.3454  5.3585  1.3786
  734MOL0     H99033  -0.171   7.725   3.825 -0.1730  2.0155 -0.8111
  734MOL0     H99034  -0.280   7.712   3.686  0.5959  0.5660 -0.1553
  734MOL0     H99035  -0.427   7.770   3.791  1.6995 -1.4824 -3.1027
  734MOL0     H99036  -0.433   7.639   3.914 -2.2641  1.1875  0.7255
  734MOL0     H99037  -0.256   7.785   4.032  0.5552 -0.5990 -1.9459
  734MOL0     H99038  -0.300   7.915   3.916  1.1993 -2.2545 -2.3903
  734MOL0     H99039  -0.551   7.847   4.007 -1.1058  2.6117 -0.5454
  734MOL0     H99040  -0.459   7.988   4.053  1.9210  0.2110 -1.6606
  734MOL0     H99041  -0.401   7.637   4.194  1.5136 -0.5123  0.7870
  734MOL0     H99042  -0.378   7.671   4.575 -1.4355  0.0035 -0.2903
  734MOL0     H99043  -0.357   7.546   4.453  1.7103 -0.8297 -0.0453
  734MOL0     H99044  -0.163   7.539   4.567 -0.5266 -2.0577 -2.8025
  734MOL0     H99045  -0.139   7.716   4.561 -1.8219 -0.6668  2.2822
  734MOL0     H99046   0.010   7.581   4.402 -1.3757 -2.2441 -0.0138
  734MOL0     H99047  -0.095   7.699   4.310 -2.3291  0.6991  0.9487
  734MOL0     H99048  -0.252   7.518   4.272  0.9728  2.5325  1.5069
  734MOL0     H99049  -0.133   7.409   4.359 -2.2020  0.2425  1.2452
  734MOL0     H99050   0.169   7.390   4.190 -1.5716  0.2976  3.8306
  734MOL0     H99051   0.313   7.087   4.208  2.9410  3.7837  3.4181
  734MOL0     H99052   0.316   7.117   4.036 -0.8713  2.3554 -2.6817
  734MOL0     H99053   0.334   7.254   4.145  0.3056 -0.7238 -1.0137
  734MOL0     H99054  -0.155   6.711   3.830 -0.4137 -2.5664 -1.0637
  734MOL0     H99055  -0.173   6.447   3.856  0.5221  1.4900 -2.0024
  734MOL0     H99056   0.017   6.264   4.194 -0.8975 -1.9367  2.5906
  734MOL0     H99057  -0.155   6.261   4.225 -2.1422 -2.0334 -0.6522
  734MOL0     H99058   0.031   6.055   4.087  2.2055  2.9163  2.1392
  734MOL0     H99059  -0.041   6.037   4.246 -0.9658 -1.9770  0.7572
  734MOL0     H99060  -0.243   6.093   4.030  3.1355  0.3234 -2.3013
  734MOL0     H99061  -0.260   5.968   4.147 -0.3871 -0.3698 -0.7399
  734MOL0     H99062  -0.223   5.835   3.943  1.7786 -2.3668 -1.4488
  734MOL0     H99063  -0.069   5.912   3.935 -0.0389  0.8752  0.4223
  734MOL0     H99064  -0.172   5.768   4.179  1.3683 -0.8893  0.6792
  734MOL0     H99065  -0.012   5.819   4.157 -1.3835  1.3384  2.9995
  734MOL0     H99066  -0.074   5.578   4.104  2.3219  0.6638  0.6763
  734MOL0     H99067  -0.167   5.631   3.960  1.9136  0.3758 -3.8609
  734MOL0     H99068   0.133   5.694   3.994 -0.4883  2.6152 -0.2134
  734MOL0     H99069   0.039   5.699   3.841 -4.0195 -0.6276  0.7320
  734MOL0     H99070   0.104   5.447   3.999  1.7461 -2.5140 -0.8209
  734MOL0     H99071   0.195   5.504   3.858 -0.1144 -1.3675 -1.5833
  734MOL0     H99072   0.017   6.475   4.226  1.7909  3.3004  0.1413
  734MOL0     H99073   0.015   6.721   4.220  1.1846  2.2448 -2.1750
  734MOL0     H99074  -0.175   7.068   4.052  0.1370 -1.4167  0.7863
  734MOL0     H99075  -0.238   7.304   4.090 -0.1464  1.2679 -0.6587
  734MOL0     H99076  -0.069   7.070   3.540  1.4605  1.3425  0.0631
  734MOL0     H99077  -0.028   6.815   3.533 -1.3491 -0.3795  1.3958
  734MOL0     H99078   0.351   6.470   3.412  0.9783 -1.8381 -0.6345
  734MOL0     H99079   0.333   6.237   3.403  0.4933 -0.1769  0.7377
  734MOL0     H99080   0.309   5.974   3.457  1.4381 -1.9209 -0.2226
  734MOL0     H99081   0.413   6.070   3.570 -0.0712  0.8485  0.7891
  734MOL0     H99082   0.465   5.865   3.630  0.2087  1.4408 -2.5109
  734MOL0     H99083   0.293   5.806   3.615 -0.7479  0.8870  1.1824
  734MOL0     H99084   0.223   5.910   3.819  0.6538 -1.0499  0.9552
  734MOL0     H99085   0.377   6.004   3.821  2.1187 -0.2200 -0.2080
  734MOL0     H99086   0.348   5.796   3.964 -2.8382 -0.6289 -1.9155
  734MOL0     H99087   0.508   5.846   3.884  1.3330  0.0724 -2.5423
  734MOL0     H99088   0.448   5.469   3.707 -1.3650 -0.3069 -0.0832
  734MOL0     H99089   0.072   6.242   3.744 -0.8759  2.3292  0.2338
  734MOL0     H99090   0.083   6.478   3.745  0.3805 -0.0849  0.8238
  735MOL0     O99091   4.913   4.570   8.467  0.0466 -0.5307 -0.1458
  735MOL0     C99092   5.013   4.519   8.414  0.6077  0.1936  0.3422
  735MOL0     O99093   5.011   4.422   8.311  0.3483  0.2965 -0.1473
  735MOL0     C99094   4.879   4.375   8.269 -0.5218 -0.2425 -1.0541
  735MOL0     C99095   4.873   4.333   8.139 -0.0639 -0.7391 -0.0083
  735MOL0     C99096   4.760   4.253   8.106  0.2227  0.7260  0.0985
  735MOL0     C99097   4.648   4.229   8.188 -0.3779  0.7691 -0.0379
  735MOL0     O99098   4.537   4.174   8.131  0.3514  0.0901 -0.5907
  735MOL0     C99099   4.444   4.095   8.210 -0.8870  0.6495 -0.7610
  735MOL0     C99100   4.505   3.958   8.237 -0.7131 -0.5514  1.0295
  735MOL0     C99101   4.474   3.893   8.371  0.2977  0.7284 -1.0581
  735MOL0     C99102   4.497   3.971   8.500  0.2681  0.0844 -0.4949
  735MOL0     C99103   4.496   3.868   8.621 -0.9113 -0.1689 -0.2235
  735MOL0     C99104   4.618   3.782   8.657 -1.0340 -0.2125  0.0777
  735MOL0     C99105   4.587   3.674   8.769  0.4926 -0.5956  0.2257
  735MOL0     C99106   4.701   3.575   8.792 -0.6872  0.1928 -0.2784
  735MOL0     N99107   4.695   3.467   8.683 -0.8943  0.0376  0.2368
  735MOL0     C99108   4.607   3.361   8.694  0.7431 -0.4791  0.7886
  735MOL0     C99109   4.634   3.274   8.599  0.2060  0.3040 -0.1528
  735MOL0     C99110   4.565   3.147   8.556  0.2953 -0.8057 -0.0535
  735MOL0     C99111   4.625   3.032   8.630 -1.1051  0.5836 -0.5749
  735MOL0     C99112   4.598   3.025   8.779  0.5190 -0.3293  0.8347
  735MOL0     C99113   4.479   2.949   8.838  0.2313 -0.3122 -0.6889
  735MOL0     O99114   4.500   2.808   8.836  0.3866 -0.1434 -0.1071
  735MOL0     C99115   4.396   2.733   8.894  0.0689  0.1241  0.1150
  735MOL0     C99116   4.377   2.600   8.864 -0.4397  0.5701  1.0835
  735MOL0     C99117   4.273   2.510   8.910  0.3662 -1.1033 -0.0499
  735MOL0     C99118   4.270   2.373   8.860  0.0538 -0.1409 -0.5375
  735MOL0     C99119   4.176   2.566   8.999 -0.4577  0.0428  0.2313
  735MOL0     C99120   4.061   2.491   9.051  1.0820 -0.2240  0.7572
  735MOL0     O99121   3.994   2.556   9.158  0.3089 -0.3519  0.2821
  735MOL0     C99122   3.864   2.518   9.181  0.1884  0.3282  0.1621
  735MOL0     C99123   3.757   2.607   9.158  0.1598  0.5606  0.4784
  735MOL0     C99124   3.628   2.561   9.181 -1.1882 -0.1328  0.7048
  735MOL0     C99125   3.601   2.432   9.231 -0.0988  0.6304  0.0921
  735MOL0     O99126   3.472   2.388   9.265 -0.3505  0.3885 -0.1937
  735MOL0     C99127   3.416   2.267   9.200 -0.3128  0.3526 -0.0712
  735MOL0     C99128   3.266   2.288   9.184  0.1834 -0.1642  0.5042
  735MOL0     C99129   3.204   2.156   9.121  0.4232  0.3278  0.7293
  735MOL0     C99130   3.046   2.150   9.139 -0.2716 -0.1504 -1.0399
  735MOL0     C99131   2.993   2.040   9.061  0.1190  0.3739  0.3119
  735MOL0     C99132   2.849   1.989   9.106  0.9913 -0.1345  0.1907
  735MOL0     C99133   2.731   2.091   9.065 -0.6963 -0.4750 -0.4891
  735MOL0     C99134   2.607   2.056   9.141  0.3177 -0.6499  0.0392
  735MOL0    Cl99135   2.575   1.879   9.162 -0.0119 -0.2785 -0.4284
  735MOL0     C99136   3.711   2.344   9.256  0.3113  0.0055 -0.4568
  735MOL0     C99137   3.842   2.393   9.244 -0.2903  0.6820  1.2054
  735MOL0     O99138   4.009   2.403   8.979 -0.2321 -1.2718  0.8847
  735MOL0     C99139   4.193   2.706   9.027 -0.1737 -0.3381  0.8296
  735MOL0     C99140   4.296   2.782   8.972 -0.5339 -0.2090  0.0363
  735MOL0     N99141   4.749   3.320   8.536  0.4585  1.0892 -0.2186
  735MOL0     N99142   4.789   3.429   8.589 -0.0194  0.0703 -0.3891
  735MOL0     C99143   4.661   4.267   8.321  0.2017 -0.9469  0.3541
  735MOL0     C99144   4.772   4.348   8.361 -0.2109 -0.5816  0.5068
  735MOL0     C99145   5.146   4.568   8.473 -0.1980  0.3117  0.6067
  735MOL0     C99146   5.263   4.522   8.417  0.2789  0.8862 -0.0432
  735MOL0     C99147   5.390   4.558   8.467  0.6958 -0.2731 -0.6740
  735MOL0     C99148   5.391   4.635   8.586 -0.9268 -0.9054  0.9906
  735MOL0     O99149   5.507   4.666   8.647 -0.5640  0.9828 -0.3374
  735MOL0     C99150   5.604   4.732   8.568 -0.2075 -0.0343 -0.9896
  735MOL0     C99151   5.698   4.809   8.674  0.7443 -0.5011  0.7922
  735MOL0     C99152   5.625   4.903   8.769 -0.0931 -0.3205 -0.2159
  735MOL0     C99153   5.584   5.046   8.707 -0.0767 -0.3681 -0.3302
  735MOL0     C99154   5.701   5.128   8.656  0.3039  1.0056  0.1769
  735MOL0     C99155   5.807   5.184   8.619  0.3958  0.5877  0.3078
  735MOL0     C99156   5.278   4.681   8.639  0.7382  0.1157 -0.1739
  735MOL0     C99157   5.149   4.642   8.591  0.3084  0.1306 -0.7226
  735MOL0     H99158   4.947   4.351   8.062 -2.1979 -1.6061 -2.4330
  735MOL0     H99159   4.743   4.215   8.006 -0.8514  0.1595  0.4843
  735MOL0     H99160   4.413   4.143   8.303  0.3433 -0.6428  0.3589
  735MOL0     H99161   4.351   4.070   8.159  0.0711  0.8720 -2.6934
  735MOL0     H99162   4.470   3.882   8.167  1.3851 -0.0529 -0.6483
  735MOL0     H99163   4.612   3.959   8.217 -1.3475  0.0857 -3.2730
  735MOL0     H99164   4.372   3.853   8.363 -0.2931  1.8713  0.3088
  735MOL0     H99165   4.548   3.813   8.372 -0.4289  0.0370 -1.3129
  735MOL0     H99166   4.593   4.024   8.493  1.8391 -2.4785  0.2235
  735MOL0     H99167   4.413   4.038   8.519  0.7695  0.4303  0.6505
  735MOL0     H99168   4.465   3.927   8.708 -1.5003 -0.1019 -0.4769
  735MOL0     H99169   4.411   3.802   8.603 -0.8784 -0.3632  0.3032
  735MOL0     H99170   4.657   3.733   8.567  0.4355  3.4870 -1.4924
  735MOL0     H99171   4.707   3.841   8.682 -0.8246 -0.0019 -1.1033
  735MOL0     H99172   4.570   3.709   8.872  1.6821  0.0793  0.2095
  735MOL0     H99173   4.500   3.619   8.732  0.2377  0.6111 -1.0432
  735MOL0     H99174   4.696   3.532   8.893 -2.0125 -3.2153 -1.6347
  735MOL0     H99175   4.801   3.620   8.785 -0.2344 -0.6755  0.3509
  735MOL0     H99176   4.527   3.359   8.767 -0.4025 -1.0577 -0.4319
  735MOL0     H99177   4.456   3.154   8.560  0.1822 -0.4291 -2.2412
  735MOL0     H99178   4.584   3.114   8.453  2.9759 -2.5195  0.8868
  735MOL0     H99179   4.732   3.043   8.612 -0.1007 -2.5408  2.2874
  735MOL0     H99180   4.598   2.942   8.574 -0.1452  0.2835 -0.5824
  735MOL0     H99181   4.596   3.128   8.814 -1.3933 -0.3150  0.8088
  735MOL0     H99182   4.688   2.984   8.825  0.7346  1.1992  1.8213
  735MOL0     H99183   4.387   2.971   8.784 -1.8187 -0.7267  2.3885
  735MOL0     H99184   4.467   2.983   8.941  0.5037  0.2587 -0.8431
  735MOL0     H99185   4.447   2.558   8.792 -2.2139 -0.0332 -0.3512
  735MOL0     H99186   4.181   2.358   8.799  0.9745 -1.3880 -1.6396
  735MOL0     H99187   4.359   2.349   8.801  1.9865 -3.8158  3.3367
  735MOL0     H99188   4.275   2.297   8.938  1.9630 -0.3273 -0.7949
  735MOL0     H99189   3.767   2.712   9.134 -2.1966  1.1021  1.5757
  735MOL0     H99190   3.561   2.644   9.159  2.2484  2.7382  0.1390
  735MOL0     H99191   3.459   2.257   9.100 -4.5624  2.4468 -2.3807
  735MOL0     H99192   3.432   2.179   9.263  3.8465  0.5997 -0.4641
  735MOL0     H99193   3.207   2.317   9.271  2.1756  1.7238  1.3255
  735MOL0     H99194   3.256   2.373   9.116 -0.2121  0.7305  1.6363
  735MOL0     H99195   3.243   2.073   9.181 -1.1418 -1.1280 -0.1791
  735MOL0     H99196   3.225   2.145   9.014  0.6116 -1.4448  0.9146
  735MOL0     H99197   3.030   2.138   9.246  0.7826 -2.5291 -1.0915
  735MOL0     H99198   3.000   2.246   9.114  0.4217  0.1090 -1.3358
  735MOL0     H99199   3.057   1.952   9.058 -1.0207 -0.7856  4.2906
  735MOL0     H99200   2.990   2.068   8.955  0.5667 -3.0635 -0.7435
  735MOL0     H99201   2.836   1.901   9.043 -2.8406  1.4520 -1.5512
  735MOL0     H99202   2.853   1.956   9.210 -3.8743 -1.4222  0.1731
  735MOL0     H99203   2.709   2.090   8.958 -3.7909 -0.6398  0.0481
  735MOL0     H99204   2.762   2.194   9.083 -0.4826 -0.3949 -1.2769
  735MOL0     H99205   2.520   2.093   9.086  0.4289 -1.4779 -0.7103
  735MOL0     H99206   2.598   2.097   9.242 -1.1265 -2.3855  0.6722
  735MOL0     H99207   3.699   2.242   9.292  0.4159  0.4267  0.8108
  735MOL0     H99208   3.926   2.330   9.272 -0.4456 -0.6632 -1.0844
  735MOL0     H99209   4.126   2.761   9.092  1.0427  1.8404  0.3573
  735MOL0     H99210   4.304   2.889   8.988  3.0962 -0.0261 -1.8618
  735MOL0     H99211   4.574   4.257   8.383  0.5788  0.6102  1.1737
  735MOL0     H99212   4.782   4.378   8.465  0.8852  0.8889  0.0188
  735MOL0     H99213   5.259   4.455   8.332  1.3014 -0.0495  0.6195
  735MOL0     H99214   5.478   4.517   8.418  1.8742  0.9054  0.3919
  735MOL0     H99215   5.661   4.656   8.515 -1.2890 -0.3539 -1.7364
  735MOL0     H99216   5.564   4.796   8.489  1.6265  0.7298 -1.3469
  735MOL0     H99217   5.784   4.853   8.623 -0.6045  0.1000 -1.0623
  735MOL0     H99218   5.740   4.728   8.736  0.4474  0.8509  2.8732
  735MOL0     H99219   5.688   4.923   8.857 -0.0283  0.7749 -0.4906
  735MOL0     H99220   5.535   4.858   8.811 -0.7421  1.8396  0.8523
  735MOL0     H99221   5.526   5.103   8.780  0.9008 -0.1585  0.2958
  735MOL0     H99222   5.522   5.040   8.617  0.4374  4.9704 -1.3404
  735MOL0     H99223   5.902   5.231   8.602  0.4933  0.1487 -0.3911
  735MOL0     H99224   5.297   4.733   8.732  3.2558 -1.3711  0.2424
  735MOL0     H99225   5.064   4.671   8.652  0.7953 -1.7920  0.9786
  736MOL0     O99226   0.364   7.743  10.748  0.9003 -0.2335 -0.0243
  736MOL0     C99227   0.350   7.651  10.665  1.2516  0.2362  0.8401
  736MOL0     O99228   0.233   7.617  10.604  0.1342 -0.4031  0.1067
  736MOL0     C99229   0.110   7.662  10.653  0.0620  0.5373  0.2836
  736MOL0     C99230   0.007   7.712  10.576 -0.9358  0.2186  0.1721
  736MOL0     C99231  -0.113   7.758  10.632  0.0686  0.4074  0.0564
  736MOL0     C99232  -0.144   7.751  10.766 -0.5473  0.7936 -0.3365
  736MOL0     O99233  -0.261   7.807  10.814  0.1367  0.1110 -0.4935
  736MOL0     C99234  -0.328   7.749  10.919  0.4584  0.0944 -1.0105
  736MOL0     C99235  -0.443   7.655  10.881 -0.2208  0.3046 -0.0894
  736MOL0     C99236  -0.529   7.684  10.749  0.4374  0.2234 -0.3751
  736MOL0     C99237  -0.600   7.818  10.773 -0.4401 -0.2293  0.3105
  736MOL0     C99238  -0.666   7.884  10.649 -0.2494 -0.5017 -1.3666
  736MOL0     C99239  -0.733   8.016  10.698 -0.1688  0.2220  0.2913
  736MOL0     C99240  -0.803   8.082  10.584 -0.5661 -0.3261  0.1362
  736MOL0     C99241  -0.884   8.199  10.626  0.6674 -0.7943  0.7178
  736MOL0     N99242  -0.898   8.302  10.516 -0.6779 -0.2188  0.6677
  736MOL0     C99243  -0.778   8.364  10.478  1.0790 -0.1936  0.2158
  736MOL0     C99244  -0.828   8.448  10.377  0.3791  0.3269 -0.3040
  736MOL0     C99245  -0.750   8.561  10.308  0.3753 -0.1569 -0.6866
  736MOL0     C99246  -0.635   8.507  10.223  0.1669  0.9419  0.9509
  736MOL0     C99247  -0.527   8.617  10.176  0.3145 -0.3851  0.2813
  736MOL0     C99248  -0.447   8.586  10.047  0.1192 -0.2119  1.5228
  736MOL0     O99249  -0.417   8.449  10.046  0.0898  0.4813 -0.2707
  736MOL0     C99250  -0.380   8.404   9.915 -0.0436 -0.9225 -0.5047
  736MOL0     C99251  -0.317   8.482   9.820  0.3834 -0.2784 -0.1581
  736MOL0     C99252  -0.280   8.438   9.691 -0.3611 -0.5130 -0.8842
  736MOL0     C99253  -0.203   8.534   9.597 -0.2981 -0.3442  0.4125
  736MOL0     C99254  -0.318   8.302   9.651 -0.3576 -0.7564  0.8462
  736MOL0     C99255  -0.296   8.225   9.519  0.3928 -0.1846  0.3325
  736MOL0     O99256  -0.305   8.087   9.529  0.1436  0.8810  0.2818
  736MOL0     C99257  -0.261   8.021   9.416 -0.2805 -0.8507 -0.5090
  736MOL0     C99258  -0.124   7.997   9.400 -0.2630 -0.2912  0.0060
  736MOL0     C99259  -0.077   7.919   9.290  0.7261 -0.8531 -0.4466
  736MOL0     C99260  -0.171   7.863   9.193 -0.2838 -0.3368  0.6033
  736MOL0     O99261  -0.142   7.765   9.099 -0.1811 -0.7904 -0.3356
  736MOL0     C99262  -0.006   7.746   9.052 -0.0132  0.9820 -0.0646
  736MOL0     C99263  -0.010   7.660   8.917 -0.1206 -0.0246  0.4624
  736MOL0     C99264   0.143   7.648   8.897  1.3376  0.1518 -1.1300
  736MOL0     C99265   0.173   7.538   8.799 -0.2210  0.0454 -0.1169
  736MOL0     C99266   0.311   7.555   8.731  1.6897 -0.1392 -0.1076
  736MOL0     C99267   0.427   7.533   8.830  0.4873  0.3219 -0.2230
  736MOL0     C99268   0.552   7.491   8.754  0.4210 -0.0669  0.6055
  736MOL0     C99269   0.666   7.459   8.848  0.0679 -0.0345  0.6417
  736MOL0    Cl99270   0.807   7.425   8.728 -0.0038 -0.0845  0.3788
  736MOL0     C99271  -0.303   7.905   9.205 -1.1557 -0.6678 -1.4307
  736MOL0     C99272  -0.349   7.991   9.310  0.1793  0.8815 -0.0422
  736MOL0     O99273  -0.257   8.292   9.431 -0.6895 -0.0743  0.2697
  736MOL0     C99274  -0.388   8.236   9.744  1.0909  0.4859 -0.5358
  736MOL0     C99275  -0.418   8.275   9.879 -0.6439  0.8894 -0.0413
  736MOL0     N99276  -0.958   8.425  10.357 -0.6305 -0.3161 -0.1043
  736MOL0     N99277  -1.007   8.332  10.435  1.1497 -0.6617 -0.5047
  736MOL0     C99278  -0.036   7.702  10.852 -0.5628  0.1781  0.8207
  736MOL0     C99279   0.082   7.643  10.794 -0.0096 -0.6343  0.5155
  736MOL0     C99280   0.478   7.573  10.631 -0.5764  0.2432  0.2650
  736MOL0     C99281   0.601   7.593  10.689 -0.1521 -0.2280  0.3147
  736MOL0     C99282   0.699   7.503  10.671 -0.4323 -1.0151  0.3277
  736MOL0     C99283   0.693   7.398  10.586  0.5342  0.7770  0.9020
  736MOL0     O99284   0.802   7.318  10.569 -0.0100 -0.2223 -0.6004
  736MOL0     C99285   0.795   7.173  10.547 -0.0143 -0.2606  0.3148
  736MOL0     C99286   0.906   7.132  10.451 -0.2420 -0.5828  0.9924
  736MOL0     C99287   0.857   7.160  10.304  0.0380  0.7136  0.1797
  736MOL0     C99288   0.929   7.056  10.203 -0.5936 -1.1367 -0.4301
  736MOL0     C99289   0.886   7.091  10.068 -0.0538  0.5803  0.7518
  736MOL0     C99290   0.867   7.132   9.954 -0.1697  0.0177 -0.6571
  736MOL0     C99291   0.572   7.375  10.518 -0.0845  0.4046 -0.2262
  736MOL0     C99292   0.461   7.461  10.544  0.4122  1.1545  0.8994
  736MOL0     H99293   0.027   7.714  10.469  1.3665 -1.1999  0.5190
  736MOL0     H99294  -0.194   7.794  10.569  1.5534  1.3085 -1.4226
  736MOL0     H99295  -0.268   7.697  10.995 -1.3467 -1.5776 -0.6720
  736MOL0     H99296  -0.367   7.835  10.973 -1.6469 -1.4281  0.0090
  736MOL0     H99297  -0.400   7.555  10.869 -2.2804 -0.5581 -0.5974
  736MOL0     H99298  -0.509   7.659  10.968 -1.4643 -1.1150 -0.9300
  736MOL0     H99299  -0.468   7.694  10.659  0.4036 -0.4831 -0.4837
  736MOL0     H99300  -0.608   7.609  10.736  2.0532 -1.7289  0.4733
  736MOL0     H99301  -0.682   7.797  10.841 -1.9009  2.6964 -0.3832
  736MOL0     H99302  -0.532   7.897  10.806 -1.2738  0.7409 -0.2449
  736MOL0     H99303  -0.586   7.903  10.577 -0.4712 -0.3333 -1.5730
  736MOL0     H99304  -0.740   7.818  10.603 -2.0693  0.4162  0.1020
  736MOL0     H99305  -0.811   7.993  10.770 -0.0944 -0.9754  0.0057
  736MOL0     H99306  -0.663   8.091  10.738  0.3977  0.0663 -0.3669
  736MOL0     H99307  -0.721   8.108  10.517 -1.2043 -0.9851 -0.9380
  736MOL0     H99308  -0.853   8.011  10.517 -0.8449 -0.6688  0.6960
  736MOL0     H99309  -0.835   8.257  10.705 -1.2240  0.0261  1.3568
  736MOL0     H99310  -0.984   8.181  10.667 -0.2572  0.4156 -0.8976
  736MOL0     H99311  -0.681   8.352  10.525  0.7015 -0.6641  0.8877
  736MOL0     H99312  -0.815   8.628  10.251  3.3518  2.3812 -1.3928
  736MOL0     H99313  -0.711   8.618  10.393 -0.5177  0.5279 -0.7147
  736MOL0     H99314  -0.687   8.464  10.137  0.6403  1.8377  0.2014
  736MOL0     H99315  -0.584   8.443  10.296 -2.9282 -0.5308  1.9995
  736MOL0     H99316  -0.458   8.651  10.254 -0.0986  1.3466 -0.0659
  736MOL0     H99317  -0.580   8.708  10.146  1.4471 -0.0363 -0.7345
  736MOL0     H99318  -0.350   8.636  10.050  0.9736 -1.7981  1.6108
  736MOL0     H99319  -0.510   8.619   9.963  2.8813 -0.4372 -0.7985
  736MOL0     H99320  -0.277   8.580   9.843  3.5514 -0.9017 -2.3579
  736MOL0     H99321  -0.274   8.563   9.519  2.3284  2.4442 -1.1819
  736MOL0     H99322  -0.172   8.624   9.651  1.3076 -0.7522  0.2294
  736MOL0     H99323  -0.112   8.489   9.555 -1.3201 -1.8522 -0.2782
  736MOL0     H99324  -0.063   8.032   9.482  1.7934  0.0370 -1.5739
  736MOL0     H99325   0.028   7.900   9.271  0.9946  3.6052 -6.2466
  736MOL0     H99326   0.031   7.844   9.021  0.0872  0.9740  0.0341
  736MOL0     H99327   0.058   7.704   9.130  1.6929  2.3886 -0.6545
  736MOL0     H99328  -0.043   7.559   8.943 -0.2110  0.3735  1.9800
  736MOL0     H99329  -0.064   7.704   8.832 -0.8784  0.0108  0.9510
  736MOL0     H99330   0.192   7.618   8.991 -2.4802 -1.0913  0.6892
  736MOL0     H99331   0.198   7.739   8.873  1.8789 -0.1554 -1.0805
  736MOL0     H99332   0.177   7.452   8.866 -2.1555  0.8390  1.0848
  736MOL0     H99333   0.094   7.528   8.723  0.0001  0.8007 -0.4496
  736MOL0     H99334   0.327   7.649   8.678 -0.2321  1.1849  1.5182
  736MOL0     H99335   0.313   7.472   8.659 -2.9600 -0.2031 -0.4278
  736MOL0     H99336   0.439   7.616   8.900  0.4454 -1.4727  2.0280
  736MOL0     H99337   0.405   7.450   8.898 -0.5788  2.2947  2.0184
  736MOL0     H99338   0.579   7.577   8.692  1.6755 -1.4603 -0.8746
  736MOL0     H99339   0.536   7.406   8.687 -0.4614  1.1674 -0.8029
  736MOL0     H99340   0.647   7.375   8.914  1.8587  0.6790  2.1594
  736MOL0     H99341   0.701   7.546   8.905 -0.1142  0.1666  0.4474
  736MOL0     H99342  -0.377   7.864   9.136 -1.9890  0.7294 -1.4243
  736MOL0     H99343  -0.456   8.007   9.306 -0.4730 -2.7544 -1.2620
  736MOL0     H99344  -0.442   8.144   9.723 -1.1143  1.6043 -0.0778
  736MOL0     H99345  -0.482   8.213   9.940 -1.2426  0.3342 -1.2010
  736MOL0     H99346  -0.047   7.721  10.958  1.4880 -0.0716  1.1359
  736MOL0     H99347   0.151   7.601  10.866  2.5252  2.9728  0.4669
  736MOL0     H99348   0.622   7.675  10.757  0.0046 -2.7956  3.6116
  736MOL0     H99349   0.793   7.512  10.724 -1.7604  0.8411  2.5300
  736MOL0     H99350   0.814   7.143  10.650  0.9835 -0.1966  0.1571
  736MOL0     H99351   0.700   7.127  10.520 -0.4250 -0.9273  2.6950
  736MOL0     H99352   0.910   7.025  10.477 -1.3168 -0.8083  0.3042
  736MOL0     H99353   0.999   7.186  10.470  0.0565 -0.6995 -0.0761
  736MOL0     H99354   0.894   7.259  10.275  0.2898  1.0554  1.6100
  736MOL0     H99355   0.748   7.155  10.299 -0.1935  0.9713  3.1791
  736MOL0     H99356   0.900   6.958  10.243  1.3269 -1.4426  0.3100
  736MOL0     H99357   1.038   7.064  10.199 -0.6787 -0.0712 -1.0514
  736MOL0     H99358   0.860   7.156   9.850 -1.6249  0.2885 -0.5131
  736MOL0     H99359   0.558   7.301  10.440 -0.7582  1.3249 -0.9997
  736MOL0     H99360   0.369   7.442  10.489  0.0389 -3.5458  2.7095
  737MOL0     O99361  11.119   9.251   9.483 -0.4934 -0.1169  0.2366
  737MOL0     C99362  11.118   9.342   9.391  1.0582  0.1409 -0.8176
  737MOL0     O99363  11.007   9.395   9.335  0.2354 -0.0753  0.5508
  737MOL0     C99364  10.898   9.320   9.361 -0.2888 -1.0887  0.4821
  737MOL0     C99365  10.817   9.372   9.461 -1.0542 -0.1437  0.2254
  737MOL0     C99366  10.705   9.300   9.495 -0.1104  0.2648 -0.0083
  737MOL0     C99367  10.655   9.185   9.434 -0.5697  0.3074 -1.3331
  737MOL0     O99368  10.533   9.138   9.478 -0.0525  0.1492  0.0710
  737MOL0     C99369  10.481   9.008   9.419 -0.1300 -0.5255 -0.5000
  737MOL0     C99370  10.401   9.028   9.285 -0.3778 -0.0482  0.1010
  737MOL0     C99371  10.260   9.077   9.332  0.3284 -0.5030 -0.3137
  737MOL0     C99372  10.178   8.957   9.349  0.8132  0.9672 -0.3937
  737MOL0     C99373  10.028   8.991   9.363 -0.4310  0.9431 -0.1935
  737MOL0     C99374   9.945   8.871   9.413 -0.0248  0.5034 -0.4419
  737MOL0     C99375   9.817   8.919   9.472  0.2497  0.5558  0.5793
  737MOL0     C99376   9.727   8.800   9.513 -0.1948  0.2118  0.5804
  737MOL0     N99377   9.784   8.705   9.619 -0.4426 -0.7184 -0.1847
  737MOL0     C99378   9.861   8.597   9.599  0.4066  0.4903 -0.3530
  737MOL0     C99379   9.914   8.568   9.717  0.0102  0.6413 -0.4691
  737MOL0     C99380  10.013   8.453   9.753 -0.3257 -0.3528  0.0885
  737MOL0     C99381  10.003   8.343   9.654  0.2599  0.3348  0.7134
  737MOL0     C99382  10.098   8.226   9.697  0.1089  0.5121  1.2542
  737MOL0     C99383  10.128   8.126   9.583 -0.1968  0.0489  0.2680
  737MOL0     O99384  10.180   8.187   9.468 -0.2385 -0.5191 -0.0050
  737MOL0     C99385  10.284   8.135   9.392  0.6779  0.3621 -1.0472
  737MOL0     C99386  10.325   8.000   9.416 -0.8803 -0.1448  0.2011
  737MOL0     C99387  10.429   7.944   9.345 -0.2874  0.1908 -0.5317
  737MOL0     C99388  10.458   7.791   9.352  0.0594 -1.2489 -0.4736
  737MOL0     C99389  10.503   8.020   9.262  0.5545 -0.0515 -0.3908
  737MOL0     C99390  10.614   7.958   9.192 -0.1339 -0.5633  1.0419
  737MOL0     O99391  10.620   7.983   9.057 -0.0221 -0.0246  0.9716
  737MOL0     C99392  10.739   7.946   8.997  0.3930  0.0769 -0.3935
  737MOL0     C99393  10.853   8.032   9.015 -0.2953  0.6205  0.5788
  737MOL0     C99394  10.968   8.006   8.936  0.9755 -0.2190 -0.2566
  737MOL0     C99395  10.974   7.905   8.847  0.0257  0.0812  0.0377
  737MOL0     O99396  11.075   7.888   8.758  0.2399  0.5845 -0.5582
  737MOL0     C99397  11.196   7.966   8.758 -0.0393  0.4498  0.6022
  737MOL0     C99398  11.289   7.914   8.641  0.0524 -0.9896  0.8050
  737MOL0     C99399  11.225   7.965   8.507  0.3182  0.1709  0.2092
  737MOL0     C99400  11.323   7.947   8.394 -0.8109  0.5008 -0.3276
  737MOL0     C99401  11.255   8.003   8.264 -0.7586 -0.1343 -0.0277
  737MOL0     C99402  11.367   8.022   8.150 -0.3390 -0.3375 -0.2117
  737MOL0     C99403  11.301   7.999   8.012 -1.2019  0.6786 -0.2539
  737MOL0     C99404  11.407   8.019   7.902  0.1670  0.4549  0.0254
  737MOL0    Cl99405  11.463   8.190   7.902 -0.3609 -0.2025  0.2264
  737MOL0     C99406  10.865   7.820   8.842  0.6167 -0.6922  0.7724
  737MOL0     C99407  10.751   7.836   8.918 -0.1961 -0.3773  0.4719
  737MOL0     O99408  10.703   7.897   9.256  0.1144 -0.0499  0.8950
  737MOL0     C99409  10.465   8.152   9.242 -0.1758 -0.1462  0.5080
  737MOL0     C99410  10.359   8.213   9.307 -0.1016  0.0529 -0.7143
  737MOL0     N99411   9.871   8.661   9.811 -0.6319  0.4011 -0.4456
  737MOL0     N99412   9.795   8.743   9.748 -0.4797 -0.1262  0.4976
  737MOL0     C99413  10.739   9.133   9.338 -0.0222  0.0424  0.1336
  737MOL0     C99414  10.855   9.199   9.295 -0.4316 -0.6083 -0.0615
  737MOL0     C99415  11.245   9.378   9.334  0.4908 -0.5460 -0.3415
  737MOL0     C99416  11.368   9.317   9.376 -0.1381  0.0993  0.2270
  737MOL0     C99417  11.485   9.322   9.298  0.1646  0.5572  0.5767
  737MOL0     C99418  11.487   9.417   9.191  0.0854 -0.2124  0.1719
  737MOL0     O99419  11.600   9.440   9.108 -0.1548  0.3310 -0.2779
  737MOL0     C99420  11.731   9.388   9.143 -0.1436  0.5415  0.5213
  737MOL0     C99421  11.805   9.485   9.240 -0.6317  0.6060  0.0646
  737MOL0     C99422  11.958   9.438   9.254  0.3358 -0.4284  0.7399
  737MOL0     C99423  12.017   9.520   9.366 -0.4607  0.1410  0.9775
  737MOL0     C99424  12.151   9.560   9.322  0.4876 -0.4351 -0.8761
  737MOL0     C99425  12.240   9.603   9.261 -0.0543 -0.8674 -0.0346
  737MOL0     C99426  11.378   9.497   9.171  0.0156 -0.4671 -0.2087
  737MOL0     C99427  11.261   9.479   9.235  0.4333 -0.2958  0.2824
  737MOL0     H99428  10.839   9.461   9.519 -1.0985  0.8422 -1.2163
  737MOL0     H99429  10.635   9.340   9.568 -1.1359  0.4893 -1.0902
  737MOL0     H99430  10.565   8.943   9.393 -0.1824 -0.3821 -1.0428
  737MOL0     H99431  10.409   8.969   9.491 -3.3000 -0.7021 -3.5091
  737MOL0     H99432  10.452   9.103   9.224 -0.8647  0.9439  0.8867
  737MOL0     H99433  10.401   8.939   9.221  3.3990  1.2403 -1.9458
  737MOL0     H99434  10.271   9.135   9.424 -1.2646 -0.6439 -0.0036
  737MOL0     H99435  10.220   9.154   9.266 -0.9942  0.6556  1.7303
  737MOL0     H99436  10.177   8.892   9.261  0.4939 -2.7508  2.1068
  737MOL0     H99437  10.215   8.897   9.433  2.6285  0.3987 -1.5435
  737MOL0     H99438  10.016   9.074   9.433 -3.1411  1.6372 -1.3615
  737MOL0     H99439   9.985   9.027   9.269 -1.8211  2.0359  0.8100
  737MOL0     H99440   9.942   8.810   9.322  0.1519  2.9804 -2.2262
  737MOL0     H99441   9.993   8.803   9.484 -1.1925 -4.5879 -3.9518
  737MOL0     H99442   9.836   8.984   9.558  0.2127  1.5832 -0.1677
  737MOL0     H99443   9.772   8.980   9.393  0.4858 -0.0266 -0.0183
  737MOL0     H99444   9.718   8.744   9.420 -0.0208  0.9331  0.1152
  737MOL0     H99445   9.630   8.832   9.553 -0.1548 -1.7525  2.4736
  737MOL0     H99446   9.876   8.544   9.505 -0.0054  0.9863 -0.7026
  737MOL0     H99447  10.116   8.485   9.739 -0.0566 -1.8550 -1.6249
  737MOL0     H99448  10.004   8.413   9.855  1.1863 -0.8960  0.0242
  737MOL0     H99449  10.029   8.379   9.554  0.4604  0.3017  0.7529
  737MOL0     H99450   9.899   8.309   9.662 -0.4442  2.0020 -0.6191
  737MOL0     H99451  10.053   8.169   9.778 -2.7876 -0.7066 -1.0189
  737MOL0     H99452  10.196   8.260   9.731  0.4060  3.4287 -1.9253
  737MOL0     H99453  10.040   8.075   9.542  0.6582 -0.0792 -1.5267
  737MOL0     H99454  10.193   8.056   9.635  0.0703 -0.7390 -1.0881
  737MOL0     H99455  10.254   7.933   9.464 -0.5608 -0.9266 -0.3832
  737MOL0     H99456  10.377   7.741   9.406  0.0355 -1.6536 -0.8734
  737MOL0     H99457  10.455   7.738   9.256 -0.2868  0.7327 -1.6116
  737MOL0     H99458  10.551   7.776   9.409 -0.9681 -0.2757  1.5631
  737MOL0     H99459  10.843   8.122   9.075  2.0507  0.4125  1.3618
  737MOL0     H99460  11.048   8.074   8.959 -1.0962  2.4462 -0.4583
  737MOL0     H99461  11.175   8.070   8.734  0.3814  0.2874 -0.5219
  737MOL0     H99462  11.250   7.974   8.853  0.6695  1.4998  0.1321
  737MOL0     H99463  11.390   7.951   8.657 -1.2206  2.7650  1.0612
  737MOL0     H99464  11.290   7.804   8.641 -0.9439 -1.0859  3.6821
  737MOL0     H99465  11.194   8.070   8.511 -2.2377 -0.3823 -2.4121
  737MOL0     H99466  11.137   7.910   8.474  0.2420  1.7580 -2.5594
  737MOL0     H99467  11.412   8.008   8.410 -0.6401  0.0071  0.6875
  737MOL0     H99468  11.334   7.839   8.382 -2.7665 -0.3100  3.5405
  737MOL0     H99469  11.212   8.101   8.284 -0.6275 -0.1227  0.2048
  737MOL0     H99470  11.180   7.932   8.228  0.7146 -1.2093 -1.0912
  737MOL0     H99471  11.402   8.125   8.162 -0.7069 -0.2480  0.1264
  737MOL0     H99472  11.455   7.959   8.160  0.3704  0.7190  0.4449
  737MOL0     H99473  11.212   8.058   7.987  0.6877  2.1145 -4.3871
  737MOL0     H99474  11.265   7.895   8.012 -0.4793  0.3398  2.3794
  737MOL0     H99475  11.370   7.998   7.801 -1.2651  4.0181 -0.3264
  737MOL0     H99476  11.495   7.955   7.914  1.3356  2.0302  0.2660
  737MOL0     H99477  10.870   7.740   8.769  1.8506 -1.8320  2.0485
  737MOL0     H99478  10.661   7.779   8.902  0.3711 -0.5558 -2.8877
  737MOL0     H99479  10.523   8.226   9.188  0.0234 -0.3673  0.4131
  737MOL0     H99480  10.335   8.318   9.293 -1.4642  0.0312  1.1933
  737MOL0     H99481  10.710   9.048   9.277 -2.4162  1.0709 -0.2891
  737MOL0     H99482  10.922   9.166   9.216  0.1998 -1.4227  0.7974
  737MOL0     H99483  11.373   9.245   9.457 -0.3496  1.2113  1.2616
  737MOL0     H99484  11.575   9.264   9.313  2.4902  3.8546  0.3507
  737MOL0     H99485  11.737   9.287   9.183 -0.6643 -0.4720 -1.7884
  737MOL0     H99486  11.787   9.379   9.050 -1.0202 -0.6141  0.0856
  737MOL0     H99487  11.757   9.472   9.338 -1.5654  0.3395 -0.4166
  737MOL0     H99488  11.799   9.593   9.222  0.4972  0.8571  1.0377
  737MOL0     H99489  12.005   9.451   9.156 -0.9026  2.2262  0.4254
  737MOL0     H99490  11.945   9.333   9.282 -3.1355 -0.4535 -0.5099
  737MOL0     H99491  12.017   9.460   9.457  0.5332 -1.0145  0.2520
  737MOL0     H99492  11.966   9.611   9.398 -0.7028 -0.2759  1.7891
  737MOL0     H99493  12.310   9.642   9.190  0.1382  0.9812  1.1014
  737MOL0     H99494  11.377   9.565   9.087 -0.3137 -0.9055 -0.5623
  737MOL0     H99495  11.170   9.526   9.200 -0.3959  1.0702  3.8802
  738MOL0     O99496   0.368   7.853   2.531  0.1417 -0.6006 -0.8860
  738MOL0     C99497   0.347   7.769   2.620 -0.3779  0.8949  0.3488
  738MOL0     O99498   0.228   7.714   2.651  0.3040 -0.0267  0.1028
  738MOL0     C99499   0.117   7.734   2.567  1.0251 -0.6510  1.2569
  738MOL0     C99500   0.133   7.741   2.426 -0.3486 -0.3823  0.8854
  738MOL0     C99501   0.021   7.760   2.348 -0.2015 -0.4168  0.6295
  738MOL0     C99502  -0.112   7.743   2.397  0.8555  0.7832  0.5473
  738MOL0     O99503  -0.221   7.725   2.305  0.0847 -0.5366  0.8720
  738MOL0     C99504  -0.221   7.799   2.179 -0.2473 -0.2928 -0.4699
  738MOL0     C99505  -0.353   7.864   2.175  0.5169 -0.6092 -0.2309
  738MOL0     C99506  -0.409   7.890   2.033  0.3127  0.2096 -0.0890
  738MOL0     C99507  -0.327   7.981   1.951  0.2996 -0.0835  0.0624
  738MOL0     C99508  -0.409   8.012   1.828 -0.1400 -0.3720  0.4278
  738MOL0     C99509  -0.335   8.120   1.738 -0.4745  0.7855 -0.2524
  738MOL0     C99510  -0.330   8.254   1.807 -0.0266 -0.1986 -0.2693
  738MOL0     C99511  -0.288   8.369   1.721 -0.0584  0.8307 -0.0493
  738MOL0     N99512  -0.368   8.371   1.601 -0.4090 -0.1360  0.1549
  738MOL0     C99513  -0.495   8.429   1.583 -0.9794  0.5926 -0.1457
  738MOL0     C99514  -0.522   8.432   1.452 -0.1707 -0.2224 -1.3054
  738MOL0     C99515  -0.649   8.475   1.398  0.0888 -0.9228 -0.1054
  738MOL0     C99516  -0.764   8.373   1.450  0.0360  0.4757  0.8950
  738MOL0     C99517  -0.904   8.445   1.443  0.5175  0.1917  1.2757
  738MOL0     C99518  -0.944   8.512   1.313  0.4307 -0.3776 -0.7621
  738MOL0     O99519  -1.077   8.579   1.320 -0.5129 -0.1217 -0.6265
  738MOL0     C99520  -1.128   8.648   1.209  0.0297  0.4705  0.2413
  738MOL0     C99521  -1.073   8.642   1.080 -0.5561 -0.1336  0.6163
  738MOL0     C99522  -1.127   8.711   0.975  0.5001 -0.3136 -0.1783
  738MOL0     C99523  -1.082   8.685   0.828 -0.1317  0.0741 -0.5148
  738MOL0     C99524  -1.234   8.798   0.997  0.4638  0.6800  0.2671
  738MOL0     C99525  -1.312   8.866   0.885  0.3892  0.6963  0.1902
  738MOL0     O99526  -1.370   8.984   0.909  0.7151 -0.2643  0.4839
  738MOL0     C99527  -1.423   9.064   0.806 -0.3466  0.4132  0.2523
  738MOL0     C99528  -1.547   9.122   0.824  0.6295  0.2513  0.8105
  738MOL0     C99529  -1.608   9.197   0.715 -0.6726  0.1727  0.0909
  738MOL0     C99530  -1.557   9.197   0.584  0.2828 -0.5052 -1.0209
  738MOL0     O99531  -1.617   9.255   0.472 -0.3716  0.0286  0.1617
  738MOL0     C99532  -1.693   9.367   0.501  0.4889  0.3260  0.1407
  738MOL0     C99533  -1.741   9.436   0.372 -0.7813 -0.3090  0.4430
  738MOL0     C99534  -1.788   9.571   0.427  0.4156  0.0836 -0.2323
  738MOL0     C99535  -1.685   9.685   0.393 -0.8800  0.6137 -0.4554
  738MOL0     C99536  -1.755   9.808   0.354  0.4368 -0.1130  0.2003
  738MOL0     C99537  -1.653   9.913   0.315  0.3267  0.5095 -0.6652
  738MOL0     C99538  -1.710  10.016   0.219  1.3471  0.4204 -0.4050
  738MOL0     C99539  -1.612  10.106   0.162 -0.6865 -0.0162  0.5440
  738MOL0    Cl99540  -1.664  10.272   0.193 -0.6590  0.2135  0.6234
  738MOL0     C99541  -1.432   9.128   0.572  0.9293 -0.8250  1.1698
  738MOL0     C99542  -1.372   9.059   0.672  0.8929 -0.4082  0.2342
  738MOL0     O99543  -1.332   8.794   0.784 -0.5007  0.4340 -0.8872
  738MOL0     C99544  -1.296   8.803   1.128 -1.2482 -0.0488  0.1847
  738MOL0     C99545  -1.240   8.726   1.224  0.2684 -0.2081 -0.1302
  738MOL0     N99546  -0.419   8.363   1.385  1.1124 -0.1822 -0.9442
  738MOL0     N99547  -0.331   8.323   1.475  0.3301  0.1899 -0.2113
  738MOL0     C99548  -0.124   7.739   2.538  0.3409 -0.2610  1.3680
  738MOL0     C99549  -0.011   7.736   2.619  0.0181 -0.2413 -0.4514
  738MOL0     C99550   0.461   7.723   2.699  0.3960  0.3593  0.8358
  738MOL0     C99551   0.583   7.699   2.640 -0.4961  0.4057 -0.0883
  738MOL0     C99552   0.682   7.628   2.711  0.4447 -0.3281 -0.0151
  738MOL0     C99553   0.662   7.584   2.849 -0.6245  0.0045  0.2857
  738MOL0     O99554   0.767   7.521   2.913 -0.5772  0.9220  0.7251
  738MOL0     C99555   0.742   7.470   3.047 -0.0483  0.6939 -0.2581
  738MOL0     C99556   0.870   7.403   3.091 -0.4314 -0.5053  0.7999
  738MOL0     C99557   0.861   7.336   3.224 -0.5202  0.3651  0.4500
  738MOL0     C99558   0.998   7.270   3.257  0.1274 -0.3614  0.2362
  738MOL0     C99559   1.006   7.195   3.382 -0.5986  1.1142  0.0309
  738MOL0     C99560   1.030   7.140   3.490  0.0027 -0.7026  0.2214
  738MOL0     C99561   0.534   7.590   2.899  0.3122  0.3598  0.2643
  738MOL0     C99562   0.430   7.654   2.821  0.0144  0.2259 -0.5363
  738MOL0     H99563   0.229   7.737   2.376 -1.0183  0.1441 -0.4961
  738MOL0     H99564   0.022   7.765   2.240 -1.3508  0.3887  0.6434
  738MOL0     H99565  -0.149   7.880   2.170 -0.7274  0.3307  1.0495
  738MOL0     H99566  -0.214   7.725   2.098  0.4356  0.8146 -1.4385
  738MOL0     H99567  -0.433   7.811   2.229  0.7472  0.2527  0.9996
  738MOL0     H99568  -0.340   7.960   2.226 -0.8536  1.1163 -2.9044
  738MOL0     H99569  -0.399   7.797   1.977 -4.0483  0.4192 -1.5687
  738MOL0     H99570  -0.510   7.929   2.047 -0.1258 -0.2402 -1.7575
  738MOL0     H99571  -0.326   8.075   2.007  0.6612 -0.6345  1.0051
  738MOL0     H99572  -0.228   7.942   1.924  0.7316 -0.6313  2.1971
  738MOL0     H99573  -0.439   7.926   1.767 -0.0430 -0.9763  1.2063
  738MOL0     H99574  -0.501   8.062   1.860  0.7342  0.1201  2.3277
  738MOL0     H99575  -0.238   8.085   1.701 -1.0801  1.1295 -2.2521
  738MOL0     H99576  -0.405   8.112   1.654  0.2772 -1.1265 -0.7468
  738MOL0     H99577  -0.427   8.281   1.849  0.8980 -0.8664  2.5046
  738MOL0     H99578  -0.261   8.254   1.892  0.4422 -0.9982 -0.6363
  738MOL0     H99579  -0.183   8.386   1.698 -0.2633  1.4610 -0.5673
  738MOL0     H99580  -0.304   8.461   1.778  1.2373  0.6296  0.6663
  738MOL0     H99581  -0.563   8.466   1.660  0.6174  0.4370  1.3931
  738MOL0     H99582  -0.675   8.576   1.431 -1.9172 -0.4019 -2.9157
  738MOL0     H99583  -0.640   8.466   1.289 -0.7095 -2.6791 -0.0616
  738MOL0     H99584  -0.729   8.350   1.551  0.6749  3.8608  1.5680
  738MOL0     H99585  -0.772   8.283   1.388 -2.0320  1.5904 -0.6073
  738MOL0     H99586  -0.892   8.520   1.522  4.5590  1.6073 -0.4483
  738MOL0     H99587  -0.974   8.365   1.471  1.9824 -0.3391  3.7516
  738MOL0     H99588  -0.941   8.434   1.237  3.1472 -0.2382 -0.8923
  738MOL0     H99589  -0.866   8.585   1.288  0.9495 -1.3174 -1.9551
  738MOL0     H99590  -0.984   8.582   1.067 -0.1740  0.2457  1.4333
  738MOL0     H99591  -0.993   8.623   0.821  0.5501  0.9906 -0.2533
  738MOL0     H99592  -1.161   8.639   0.769  0.1805 -0.3569 -0.5970
  738MOL0     H99593  -1.054   8.778   0.777 -3.1942  1.9578  0.9294
  738MOL0     H99594  -1.593   9.110   0.921 -0.9235  1.4759  0.2672
  738MOL0     H99595  -1.698   9.247   0.748 -1.6437  0.2312 -2.4500
  738MOL0     H99596  -1.786   9.344   0.554 -0.4521 -0.0221 -1.5954
  738MOL0     H99597  -1.631   9.432   0.563  1.4861 -1.1585  0.7439
  738MOL0     H99598  -1.666   9.452   0.293 -2.3592  1.5604 -0.7658
  738MOL0     H99599  -1.822   9.388   0.316 -0.4441  1.9869 -2.2747
  738MOL0     H99600  -1.806   9.572   0.535  4.2685  0.2235  0.5604
  738MOL0     H99601  -1.888   9.595   0.389 -0.0837 -2.0248 -0.3513
  738MOL0     H99602  -1.624   9.704   0.482 -0.4825 -2.0023 -0.1019
  738MOL0     H99603  -1.609   9.646   0.326 -1.5234 -2.0842  0.2845
  738MOL0     H99604  -1.817   9.839   0.439  0.6764  2.0234 -0.3315
  738MOL0     H99605  -1.820   9.784   0.270  2.6139 -1.2723 -1.2544
  738MOL0     H99606  -1.616   9.959   0.406  0.1832  0.0786 -0.3851
  738MOL0     H99607  -1.569   9.865   0.265 -0.4543 -0.6919 -0.8840
  738MOL0     H99608  -1.790  10.075   0.264 -1.6212 -2.2078 -1.8635
  738MOL0     H99609  -1.761   9.951   0.147 -3.1383  0.5618  2.3103
  738MOL0     H99610  -1.588  10.085   0.057  1.3998 -1.8612  1.2876
  738MOL0     H99611  -1.520  10.085   0.218 -0.8099 -0.3766  0.6168
  738MOL0     H99612  -1.390   9.135   0.473 -2.8137 -0.0270 -0.5526
  738MOL0     H99613  -1.291   9.001   0.629 -1.7827 -1.4585 -3.9773
  738MOL0     H99614  -1.385   8.862   1.145 -0.3215  1.9847 -1.5265
  738MOL0     H99615  -1.287   8.738   1.321 -0.4511  0.2163 -0.5272
  738MOL0     H99616  -0.222   7.723   2.582  0.7328 -1.5981  1.8199
  738MOL0     H99617  -0.018   7.709   2.724  0.4527 -2.8078 -1.0102
  738MOL0     H99618   0.610   7.737   2.542  1.0014  0.5832  0.3656
  738MOL0     H99619   0.781   7.604   2.673  0.6598  0.1662  0.2249
  738MOL0     H99620   0.716   7.557   3.108  0.6902  0.6950  0.0754
  738MOL0     H99621   0.661   7.397   3.052  1.6239 -1.3181 -0.9233
  738MOL0     H99622   0.941   7.486   3.097  1.9062 -2.2678 -0.4950
  738MOL0     H99623   0.907   7.333   3.015  1.3689  0.9066  0.3052
  738MOL0     H99624   0.780   7.263   3.227  0.7261 -1.0532  0.7347
  738MOL0     H99625   0.838   7.416   3.296  1.1188  0.8502  0.4679
  738MOL0     H99626   1.080   7.342   3.262 -0.7572  0.5604  2.6800
  738MOL0     H99627   1.021   7.196   3.180  2.5620  0.4244  0.1217
  738MOL0     H99628   1.076   7.092   3.574  0.9172  0.1805  0.2493
  738MOL0     H99629   0.507   7.532   2.987 -1.0117  0.4149 -0.0852
  738MOL0     H99630   0.330   7.647   2.861 -0.2831 -0.1194 -1.3332
  739MOL0     O99631   1.842   6.227   8.732 -0.1852  0.2996 -0.8568
  739MOL0     C99632   1.847   6.316   8.650 -0.1891 -0.2034  0.8076
  739MOL0     O99633   1.942   6.412   8.635 -0.2756 -0.0511 -0.9699
  739MOL0     C99634   2.044   6.421   8.723  0.0605  0.3712 -0.6157
  739MOL0     C99635   2.033   6.441   8.863  0.2162  0.3746 -0.3054
  739MOL0     C99636   2.150   6.450   8.943  0.6192  0.7904  0.5795
  739MOL0     C99637   2.284   6.427   8.896  0.5226  0.3295  0.0339
  739MOL0     O99638   2.395   6.399   8.966 -0.1453  0.2285  0.2219
  739MOL0     C99639   2.373   6.376   9.111 -0.4616  0.9370  0.0234
  739MOL0     C99640   2.501   6.365   9.193  1.1066 -0.0636  1.0623
  739MOL0     C99641   2.471   6.399   9.337 -0.7263  0.0793  0.5110
  739MOL0     C99642   2.567   6.322   9.432 -0.1799 -0.0727 -0.6977
  739MOL0     C99643   2.599   6.375   9.571 -0.0235 -0.1731  0.7074
  739MOL0     C99644   2.473   6.381   9.659  0.4992  0.6185  0.5289
  739MOL0     C99645   2.394   6.509   9.643  0.2014  0.2886  0.1862
  739MOL0     C99646   2.281   6.530   9.754 -0.3956 -0.2362  0.5873
  739MOL0     N99647   2.164   6.441   9.728 -0.7857 -0.1766  0.1492
  739MOL0     C99648   2.050   6.480   9.673  0.0142 -0.3382  0.4820
  739MOL0     C99649   1.964   6.377   9.682  0.0502  0.9639 -0.9345
  739MOL0     C99650   1.819   6.386   9.624  0.1732  0.2025 -0.1011
  739MOL0     C99651   1.737   6.424   9.757 -0.2544 -0.4220  0.3551
  739MOL0     C99652   1.588   6.443   9.729 -0.2887 -0.1406  0.2293
  739MOL0     C99653   1.527   6.305   9.704  1.3861  0.1703  0.1845
  739MOL0     O99654   1.385   6.293   9.705  0.7353 -0.1658  0.8153
  739MOL0     C99655   1.295   6.325   9.597  0.3288  0.0759 -0.0079
  739MOL0     C99656   1.341   6.341   9.463 -0.3560 -0.6171 -0.1193
  739MOL0     C99657   1.260   6.391   9.357  0.5520  0.3514 -0.2770
  739MOL0     C99658   1.319   6.427   9.227 -0.2881  0.3056 -0.2030
  739MOL0     C99659   1.120   6.424   9.395  0.0170  0.2801 -0.1588
  739MOL0     C99660   1.017   6.480   9.298  0.0331 -0.3854 -0.0087
  739MOL0     O99661   1.066   6.536   9.181 -0.0054  0.5623 -0.1242
  739MOL0     C99662   0.977   6.543   9.077 -0.6711  1.1034 -0.2515
  739MOL0     C99663   0.896   6.646   9.036  0.5613 -0.1210 -0.7168
  739MOL0     C99664   0.812   6.621   8.932 -0.0929  0.4612  1.2722
  739MOL0     C99665   0.796   6.497   8.871 -0.0999  0.0346  0.4079
  739MOL0     O99666   0.705   6.486   8.767  0.5859  0.4584 -0.2055
  739MOL0     C99667   0.642   6.355   8.750  0.1695  0.3553 -1.1902
  739MOL0     C99668   0.536   6.321   8.863  0.1662 -0.6259 -0.2548
  739MOL0     C99669   0.454   6.197   8.826  0.0121 -0.3106 -0.8889
  739MOL0     C99670   0.335   6.190   8.924  1.2077 -0.0505 -0.1567
  739MOL0     C99671   0.374   6.145   9.060 -0.3825  0.4463  0.4043
  739MOL0     C99672   0.253   6.128   9.153  0.5289  0.0046 -0.3816
  739MOL0     C99673   0.294   6.032   9.266 -0.3054  1.0816  0.2064
  739MOL0     C99674   0.182   6.016   9.363  1.1202  0.1434 -0.1349
  739MOL0    Cl99675   0.041   5.926   9.284 -0.4951 -0.1857 -0.0350
  739MOL0     C99676   0.879   6.394   8.916 -0.1515  0.1016  0.6627
  739MOL0     C99677   0.975   6.415   9.016  0.6854 -0.0778 -0.0181
  739MOL0     O99678   0.893   6.458   9.326 -0.5066 -0.7565 -0.3840
  739MOL0     C99679   1.077   6.410   9.528  0.3079 -0.2164  0.1043
  739MOL0     C99680   1.165   6.364   9.622 -0.3218  0.4274 -0.4713
  739MOL0     N99681   2.031   6.279   9.749  1.0632 -0.0695  0.2701
  739MOL0     N99682   2.146   6.312   9.775 -0.1867 -0.5300  0.9125
  739MOL0     C99683   2.288   6.408   8.763 -0.9472 -0.1797 -0.2818
  739MOL0     C99684   2.177   6.419   8.678  0.0931  0.4580 -0.3169
  739MOL0     C99685   1.748   6.310   8.543  0.3967  0.2905 -0.1973
  739MOL0     C99686   1.757   6.398   8.436  1.1328  0.7928 -1.1810
  739MOL0     C99687   1.670   6.385   8.331 -0.2776  0.4894  0.6650
  739MOL0     C99688   1.567   6.289   8.331  0.2701 -0.2893  0.5166
  739MOL0     O99689   1.480   6.257   8.238 -0.0876 -0.4352  0.3762
  739MOL0     C99690   1.463   6.363   8.142 -0.1490 -0.3513  0.0707
  739MOL0     C99691   1.378   6.487   8.187  1.1608 -0.2082  0.1187
  739MOL0     C99692   1.313   6.568   8.069  0.3035 -0.2602  0.0880
  739MOL0     C99693   1.185   6.646   8.111  0.6336  0.0959 -0.0707
  739MOL0     C99694   1.086   6.580   8.182  0.8570 -0.3532  0.2205
  739MOL0     C99695   0.990   6.519   8.230  0.2255  0.2466 -0.1845
  739MOL0     C99696   1.559   6.200   8.436  0.4146 -0.7530 -0.7699
  739MOL0     C99697   1.641   6.213   8.549 -0.0507 -0.9852  0.0170
  739MOL0     H99698   1.934   6.438   8.905  0.2725 -0.4002 -0.2145
  739MOL0     H99699   2.141   6.455   9.051 -0.4433 -1.1749  0.6231
  739MOL0     H99700   2.328   6.469   9.147 -3.0792  0.6840 -2.2247
  739MOL0     H99701   2.318   6.283   9.123  3.3488 -1.4086  0.9156
  739MOL0     H99702   2.537   6.262   9.191 -0.6942 -0.7254  1.1588
  739MOL0     H99703   2.581   6.428   9.153  1.2977 -0.4258  0.8754
  739MOL0     H99704   2.488   6.507   9.349  0.6825 -0.3120  2.3487
  739MOL0     H99705   2.365   6.376   9.352 -0.1156 -1.8371  2.3728
  739MOL0     H99706   2.516   6.225   9.443 -0.0153  0.0110  1.1038
  739MOL0     H99707   2.667   6.306   9.392 -0.1186 -0.2796 -0.4631
  739MOL0     H99708   2.681   6.317   9.613  2.6307 -0.0474 -3.6501
  739MOL0     H99709   2.646   6.471   9.547  0.4377 -0.5041  0.2590
  739MOL0     H99710   2.423   6.286   9.643  3.2619 -0.8465 -0.0275
  739MOL0     H99711   2.516   6.376   9.760 -0.9475 -1.3189  1.1031
  739MOL0     H99712   2.453   6.600   9.655 -0.4433  0.7920 -0.3500
  739MOL0     H99713   2.361   6.525   9.540  1.5032 -1.5052 -0.5618
  739MOL0     H99714   2.255   6.633   9.779  3.3927  0.9727  0.1299
  739MOL0     H99715   2.319   6.488   9.848 -2.7443 -1.8985  0.8785
  739MOL0     H99716   2.036   6.574   9.621  0.8562 -0.6871 -0.4085
  739MOL0     H99717   1.806   6.462   9.546 -0.4793  0.7816  0.5640
  739MOL0     H99718   1.780   6.292   9.583  0.3152  0.4595 -0.8492
  739MOL0     H99719   1.779   6.517   9.797  0.7970 -0.4820 -0.5837
  739MOL0     H99720   1.763   6.345   9.828 -1.7720  0.5119  2.0478
  739MOL0     H99721   1.591   6.498   9.634 -1.3466  0.1436  0.3530
  739MOL0     H99722   1.520   6.498   9.795  1.1696  3.5349 -1.0422
  739MOL0     H99723   1.571   6.233   9.773 -0.7387  0.2942  1.7591
  739MOL0     H99724   1.566   6.284   9.604  0.6767  0.5245 -0.1782
  739MOL0     H99725   1.442   6.311   9.436  0.5248  1.3244  0.8239
  739MOL0     H99726   1.263   6.367   9.154 -2.4241  2.6959 -0.6936
  739MOL0     H99727   1.303   6.532   9.204 -4.7653  0.3426  1.9408
  739MOL0     H99728   1.424   6.399   9.215  0.6801  2.3211  2.5098
  739MOL0     H99729   0.911   6.746   9.076  3.1148 -0.3221 -1.0403
  739MOL0     H99730   0.757   6.707   8.897  0.7760  0.1807 -0.9595
  739MOL0     H99731   0.586   6.352   8.657 -1.1472 -0.7744 -0.4004
  739MOL0     H99732   0.706   6.267   8.743  0.1274  0.3646 -1.7527
  739MOL0     H99733   0.601   6.307   8.950 -1.2099  2.7242  1.4761
  739MOL0     H99734   0.468   6.403   8.885 -1.0308 -1.6050 -0.1940
  739MOL0     H99735   0.514   6.106   8.822  0.3903 -0.0579 -1.0378
  739MOL0     H99736   0.430   6.213   8.721  0.6318 -1.2413 -1.1849
  739MOL0     H99737   0.268   6.277   8.931  0.5922 -0.5548  0.3511
  739MOL0     H99738   0.271   6.115   8.877  1.8445 -1.5539  1.2881
  739MOL0     H99739   0.450   6.201   9.116  0.1467 -0.6961  0.8658
  739MOL0     H99740   0.410   6.044   9.038 -1.1354  0.2087  0.2431
  739MOL0     H99741   0.208   6.220   9.191 -1.0156 -0.3079 -1.3797
  739MOL0     H99742   0.178   6.073   9.096  2.8145 -3.2110 -0.5498
  739MOL0     H99743   0.380   6.069   9.323 -0.2022  1.3995 -0.1482
  739MOL0     H99744   0.308   5.931   9.229  0.2718  0.4271  2.0702
  739MOL0     H99745   0.140   6.107   9.406 -1.6083 -1.1574  0.1568
  739MOL0     H99746   0.214   5.966   9.454 -1.8566 -3.8032 -0.9949
  739MOL0     H99747   0.862   6.298   8.869  0.1818  0.4070 -0.1010
  739MOL0     H99748   1.037   6.334   9.053 -1.8929 -2.6357 -0.9230
  739MOL0     H99749   0.978   6.429   9.569 -0.4015 -0.4651 -1.4148
  739MOL0     H99750   1.133   6.367   9.726 -3.4663  3.9525 -1.3386
  739MOL0     H99751   2.386   6.397   8.719 -1.2259  1.2780 -1.3635
  739MOL0     H99752   2.204   6.396   8.575 -0.5989 -0.0214 -0.3971
  739MOL0     H99753   1.844   6.462   8.426  1.4650  1.0393  2.2153
  739MOL0     H99754   1.703   6.435   8.241 -0.4014  3.5877  2.1842
  739MOL0     H99755   1.558   6.398   8.101  1.4656 -2.6791  1.5880
  739MOL0     H99756   1.409   6.312   8.062 -1.4878 -2.6048  2.2905
  739MOL0     H99757   1.440   6.549   8.253  0.2534 -2.1576  3.0320
  739MOL0     H99758   1.297   6.449   8.250  0.6149 -0.9286 -0.9947
  739MOL0     H99759   1.279   6.496   7.994  0.0591 -0.6033  0.5225
  739MOL0     H99760   1.390   6.635   8.032 -1.7030  0.2909 -3.6061
  739MOL0     H99761   1.159   6.695   8.017  1.2776  1.2072  0.3058
  739MOL0     H99762   1.209   6.734   8.172 -0.2989  0.3090  0.0044
  739MOL0     H99763   0.910   6.482   8.291  0.8650 -0.0457  0.4948
  739MOL0     H99764   1.494   6.114   8.445 -0.3184 -0.0410  1.3319
  739MOL0     H99765   1.628   6.142   8.630 -1.7077 -0.4280  0.2749
  740MOL0     O99766   2.953   2.787   1.292 -0.1380 -0.2824 -0.0007
  740MOL0     C99767   2.874   2.797   1.200 -0.3570 -1.0749  0.1108
  740MOL0     O99768   2.755   2.856   1.203 -0.2412  0.4685  0.5233
  740MOL0     C99769   2.721   2.923   1.313  0.4270 -0.0750 -0.4646
  740MOL0     C99770   2.695   2.846   1.434 -1.0987  0.3748  0.1106
  740MOL0     C99771   2.670   2.909   1.561  0.1384 -0.7803  0.0782
  740MOL0     C99772   2.612   3.040   1.557  0.2676 -0.0805 -0.2668
  740MOL0     O99773   2.564   3.109   1.667  0.2752  0.1545 -0.3247
  740MOL0     C99774   2.612   3.069   1.804 -0.0188 -0.3322  0.7896
  740MOL0     C99775   2.528   2.953   1.874 -0.3083 -0.9400 -0.9457
  740MOL0     C99776   2.382   2.966   1.860  0.0797  0.1522 -1.1040
  740MOL0     C99777   2.320   2.851   1.938 -0.0418  0.0252 -0.0532
  740MOL0     C99778   2.171   2.846   1.934  0.5255  0.1965 -0.3970
  740MOL0     C99779   2.106   2.820   1.801  0.3149  0.0049 -0.2302
  740MOL0     C99780   1.959   2.778   1.812  0.0844 -0.7639 -0.1949
  740MOL0     C99781   1.903   2.771   1.664  0.0911  0.5999  0.3253
  740MOL0     N99782   1.970   2.668   1.583  0.4080 -0.2655  0.8916
  740MOL0     C99783   1.928   2.539   1.582 -0.2347  0.8173 -0.0139
  740MOL0     C99784   1.984   2.483   1.464  0.1657  0.4049  0.2792
  740MOL0     C99785   1.986   2.355   1.401  0.2636  1.0549 -0.1671
  740MOL0     C99786   1.858   2.273   1.376  0.1551 -0.1575 -0.2778
  740MOL0     C99787   1.793   2.214   1.499  0.0680 -0.3623 -0.2678
  740MOL0     C99788   1.853   2.084   1.539 -0.3851  0.1101  0.6340
  740MOL0     O99789   1.818   1.994   1.423  0.2472  0.2905 -0.0803
  740MOL0     C99790   1.715   1.901   1.418  0.3777  0.1971 -0.1994
  740MOL0     C99791   1.643   1.861   1.527  0.5113  0.2079 -0.7547
  740MOL0     C99792   1.538   1.770   1.518  0.7115 -0.0245  0.0879
  740MOL0     C99793   1.477   1.724   1.653 -0.7949 -0.6337 -0.0745
  740MOL0     C99794   1.519   1.705   1.400  0.8009 -0.1052 -0.2711
  740MOL0     C99795   1.417   1.589   1.392  0.0363 -0.2167 -0.4715
  740MOL0     O99796   1.311   1.569   1.479  0.2678 -0.8537  0.2251
  740MOL0     C99797   1.226   1.464   1.458 -0.0031 -0.6391  0.3490
  740MOL0     C99798   1.138   1.467   1.350  0.5329 -0.0542  0.6037
  740MOL0     C99799   1.035   1.369   1.337 -0.0361 -0.7616 -0.2635
  740MOL0     C99800   1.020   1.269   1.433  1.0625 -0.3413  0.5723
  740MOL0     O99801   0.915   1.182   1.409  0.4778  0.1543 -0.7128
  740MOL0     C99802   0.780   1.239   1.420  0.0866 -0.5187 -0.3857
  740MOL0     C99803   0.698   1.219   1.289 -0.4747 -0.1495 -0.4880
  740MOL0     C99804   0.625   1.094   1.273  1.2313  0.1411  0.1559
  740MOL0     C99805   0.533   1.079   1.148 -0.1921  1.1971  0.3677
  740MOL0     C99806   0.462   0.941   1.143 -0.3281 -0.1763  0.8126
  740MOL0     C99807   0.357   0.916   1.028  0.2519  0.8247 -0.1838
  740MOL0     C99808   0.404   0.948   0.888 -0.1209 -0.3504  0.7687
  740MOL0     C99809   0.495   0.839   0.834 -0.5371 -0.4741 -0.5604
  740MOL0    Cl99810   0.502   0.882   0.662 -0.2716 -0.1234  0.2446
  740MOL0     C99811   1.118   1.263   1.533 -1.0310 -0.4037 -0.1539
  740MOL0     C99812   1.224   1.361   1.543 -0.1526 -0.2023 -0.2249
  740MOL0     O99813   1.449   1.518   1.296  0.2622  0.2571  0.0925
  740MOL0     C99814   1.588   1.746   1.288 -0.3150  0.8925 -1.1015
  740MOL0     C99815   1.689   1.840   1.290  1.4545  0.1178  0.6620
  740MOL0     N99816   2.052   2.584   1.398  0.4706 -0.5982  0.9323
  740MOL0     N99817   2.035   2.692   1.466  0.2963 -0.5383  0.4358
  740MOL0     C99818   2.606   3.111   1.429  0.0936  0.1412  0.3905
  740MOL0     C99819   2.663   3.050   1.312 -0.1036 -1.0785  0.2435
  740MOL0     C99820   2.913   2.735   1.068  0.3358  0.1197 -0.2644
  740MOL0     C99821   2.832   2.741   0.950 -0.1092  0.9015  0.1877
  740MOL0     C99822   2.873   2.680   0.834 -0.1622 -0.9835 -0.7384
  740MOL0     C99823   2.997   2.613   0.831  0.3393 -0.5011  0.0800
  740MOL0     O99824   3.031   2.567   0.706  0.1541  1.1148  0.2582
  740MOL0     C99825   3.116   2.450   0.704  0.2365 -0.0095 -0.4591
  740MOL0     C99826   3.053   2.317   0.756  0.6144 -0.2201 -0.5937
  740MOL0     C99827   3.150   2.210   0.737 -0.7750  0.5563  1.2354
  740MOL0     C99828   3.280   2.217   0.815 -0.2180  0.9381 -0.8304
  740MOL0     C99829   3.368   2.109   0.771 -0.6647 -0.3442 -0.0763
  740MOL0     C99830   3.426   2.010   0.727  0.8658 -0.0807 -0.0059
  740MOL0     C99831   3.078   2.612   0.944  0.5237 -0.6261  0.6333
  740MOL0     C99832   3.036   2.674   1.060  1.0475  0.7120  0.0048
  740MOL0     H99833   2.724   2.742   1.426  1.7601  0.8655  2.3818
  740MOL0     H99834   2.665   2.844   1.647  0.5177 -0.1455  0.5867
  740MOL0     H99835   2.714   3.031   1.792 -1.1085 -3.0248 -1.0343
  740MOL0     H99836   2.618   3.163   1.859  2.1516  1.1435 -1.7386
  740MOL0     H99837   2.568   2.857   1.840  3.6282 -0.1071  0.7027
  740MOL0     H99838   2.559   2.957   1.979  1.4459  2.1743 -1.4347
  740MOL0     H99839   2.347   3.059   1.906 -0.0589  1.3625 -3.4940
  740MOL0     H99840   2.347   2.971   1.757 -1.7121  1.0661 -0.4968
  740MOL0     H99841   2.361   2.755   1.904  1.1164  1.1883 -2.0807
  740MOL0     H99842   2.355   2.859   2.042  0.4365 -0.0334 -0.2081
  740MOL0     H99843   2.136   2.768   2.003  0.2832  1.1619  0.6066
  740MOL0     H99844   2.140   2.942   1.977 -0.7332 -0.5016  0.3090
  740MOL0     H99845   2.108   2.912   1.743  1.9785 -0.5314 -1.1052
  740MOL0     H99846   2.158   2.740   1.747 -0.5301  1.4923 -3.4350
  740MOL0     H99847   1.947   2.685   1.868 -1.1354 -1.7720 -2.0349
  740MOL0     H99848   1.900   2.853   1.866 -0.1237 -1.8010  1.0642
  740MOL0     H99849   1.916   2.863   1.607 -0.9569  0.0590 -0.8313
  740MOL0     H99850   1.794   2.760   1.664  0.0337  1.1159  0.4358
  740MOL0     H99851   1.873   2.485   1.658 -1.6964 -0.7606 -2.0456
  740MOL0     H99852   2.023   2.385   1.303 -0.0729  4.0278  0.5058
  740MOL0     H99853   2.055   2.293   1.458 -0.9848 -0.2587 -0.0208
  740MOL0     H99854   1.892   2.194   1.307 -0.6582  0.4731 -1.4426
  740MOL0     H99855   1.791   2.344   1.326 -0.5091  1.0429  2.1746
  740MOL0     H99856   1.684   2.214   1.488 -0.5904  0.8466  4.1739
  740MOL0     H99857   1.799   2.278   1.588 -0.2562  1.2928 -1.3702
  740MOL0     H99858   1.808   2.053   1.634  1.7457 -0.0614  1.6472
  740MOL0     H99859   1.961   2.076   1.555 -0.2560  0.1103 -0.1855
  740MOL0     H99860   1.660   1.903   1.626  1.1674 -3.8169  1.0328
  740MOL0     H99861   1.375   1.757   1.675  0.4251  2.9263  1.1273
  740MOL0     H99862   1.484   1.615   1.659  1.2718 -0.4845  1.6017
  740MOL0     H99863   1.537   1.762   1.737 -1.3316  0.4925 -0.1777
  740MOL0     H99864   1.152   1.541   1.272 -0.2440  0.0791  0.5823
  740MOL0     H99865   0.976   1.367   1.246  0.8853  0.9755 -0.9533
  740MOL0     H99866   0.735   1.202   1.513 -0.1417  0.4348 -0.1122
  740MOL0     H99867   0.776   1.346   1.442 -0.3581 -0.0318 -2.6167
  740MOL0     H99868   0.628   1.302   1.279 -1.1785 -0.8174 -1.2149
  740MOL0     H99869   0.770   1.217   1.207 -1.3329 -0.5058 -1.2454
  740MOL0     H99870   0.566   1.083   1.364  0.5918 -0.5178 -0.3348
  740MOL0     H99871   0.695   1.010   1.273 -0.8322 -1.6420  0.4848
  740MOL0     H99872   0.463   1.162   1.139 -2.7483 -0.9295 -1.0372
  740MOL0     H99873   0.593   1.086   1.057 -0.8943 -2.2988 -0.5298
  740MOL0     H99874   0.415   0.923   1.240 -2.4912  1.1863  0.0855
  740MOL0     H99875   0.538   0.863   1.129  1.6784  1.7444  0.3619
  740MOL0     H99876   0.320   0.813   1.031 -2.1657  1.5446 -1.8888
  740MOL0     H99877   0.273   0.978   1.062 -1.1487 -1.0305 -0.1376
  740MOL0     H99878   0.453   1.045   0.899 -1.7023  0.6084 -0.2329
  740MOL0     H99879   0.318   0.957   0.821  0.4739 -0.6184 -0.0561
  740MOL0     H99880   0.458   0.736   0.839 -0.1669 -0.6896 -1.7878
  740MOL0     H99881   0.594   0.850   0.879 -0.2347 -1.5001 -0.9590
  740MOL0     H99882   1.112   1.180   1.603 -1.8670 -1.3954 -1.3514
  740MOL0     H99883   1.284   1.355   1.633  1.7265  4.8752 -0.8274
  740MOL0     H99884   1.582   1.690   1.195 -0.6300  0.1290 -0.6259
  740MOL0     H99885   1.747   1.858   1.200 -1.5787  0.8767 -1.2847
  740MOL0     H99886   2.575   3.215   1.431  1.6619  0.6734 -0.4267
  740MOL0     H99887   2.647   3.094   1.214 -0.4839  0.6477  1.0267
  740MOL0     H99888   2.735   2.790   0.949 -0.3777  0.3759  0.4671
  740MOL0     H99889   2.821   2.688   0.739  1.0696 -0.8656 -1.4381
  740MOL0     H99890   3.144   2.431   0.599 -1.7804 -1.6232 -0.7766
  740MOL0     H99891   3.215   2.467   0.746 -0.2752 -0.6665  1.0747
  740MOL0     H99892   2.952   2.293   0.719  0.4116 -0.5211  0.1457
  740MOL0     H99893   3.041   2.332   0.864  1.0124 -0.4873 -0.5101
  740MOL0     H99894   3.176   2.217   0.631  3.2482  0.8413  2.0543
  740MOL0     H99895   3.106   2.112   0.758  2.2282 -1.2242 -0.0280
  740MOL0     H99896   3.276   2.213   0.924  5.0005 -2.5304 -0.3551
  740MOL0     H99897   3.345   2.303   0.799  2.8687 -1.0142  0.1860
  740MOL0     H99898   3.471   1.929   0.674  1.3966  1.7675 -2.5923
  740MOL0     H99899   3.181   2.575   0.947  1.9435  2.9372  0.6450
  740MOL0     H99900   3.099   2.676   1.148  1.1977 -0.6722 -0.0514
  741MOL0     O99901   9.381  11.015   3.006 -0.0745 -0.3935  0.2163
  741MOL0     C99902   9.344  11.049   3.124  0.1857  0.0170  0.3556
  741MOL0     O99903   9.232  11.025   3.190  0.9951  0.7757 -0.8118
  741MOL0     C99904   9.126  10.941   3.146  0.2230 -0.2550  0.0222
  741MOL0     C99905   9.143  10.835   3.058 -0.0603  0.7896 -1.1073
  741MOL0     C99906   9.045  10.736   3.026 -0.0934  0.1283 -0.2225
  741MOL0     C99907   8.921  10.754   3.092  0.2244 -0.2688  0.6353
  741MOL0     O99908   8.810  10.668   3.082 -0.3752  0.0458  0.2457
  741MOL0     C99909   8.820  10.569   2.976  0.0907  0.4721  0.0183
  741MOL0     C99910   8.732  10.450   2.999  0.8196  0.4188  0.2404
  741MOL0     C99911   8.586  10.488   2.991  0.4866 -0.1281  0.7181
  741MOL0     C99912   8.496  10.366   3.033  0.3158  0.0943  0.1685
  741MOL0     C99913   8.350  10.414   3.013 -0.2960  0.4990  0.3845
  741MOL0     C99914   8.252  10.304   3.047  0.0292  1.4464 -0.1412
  741MOL0     C99915   8.104  10.341   3.021  0.2691  0.7944 -0.6577
  741MOL0     C99916   8.018  10.227   3.054  0.1057  0.7050 -0.6501
  741MOL0     N99917   8.034  10.111   2.966 -0.4034 -0.3649  1.1532
  741MOL0     C99918   8.101   9.998   2.999 -0.3285  0.8953 -0.0502
  741MOL0     C99919   8.099   9.916   2.895  0.0906 -0.5679  0.6191
  741MOL0     C99920   8.148   9.778   2.880  0.1605  0.1649 -0.2479
  741MOL0     C99921   8.298   9.778   2.911  0.0284 -0.5139  0.5825
  741MOL0     C99922   8.370   9.852   2.793  0.0045 -0.1758  0.1314
  741MOL0     C99923   8.520   9.818   2.790 -0.2481  0.9653  1.0516
  741MOL0     O99924   8.575   9.838   2.912  0.3538 -0.0663 -0.2914
  741MOL0     C99925   8.713   9.827   2.911  0.1762  0.6155  0.9553
  741MOL0     C99926   8.783   9.923   2.979 -0.2977  0.0632 -0.1740
  741MOL0     C99927   8.925   9.924   2.970  0.0602 -0.5432  0.0757
  741MOL0     C99928   8.995  10.028   3.054  0.3043 -0.5219 -0.4386
  741MOL0     C99929   8.988   9.826   2.899 -0.3400  0.1372  0.3492
  741MOL0     C99930   9.132   9.807   2.883  0.2991  0.2776 -0.1621
  741MOL0     O99931   9.185   9.756   2.774 -0.0117 -0.0540 -0.3436
  741MOL0     C99932   9.317   9.728   2.769 -0.7580  0.1101 -0.1792
  741MOL0     C99933   9.411   9.833   2.751  0.3714  0.1501  0.4268
  741MOL0     C99934   9.540   9.807   2.754  0.3422 -0.4659 -0.1224
  741MOL0     C99935   9.585   9.672   2.762  0.7358  1.0297 -0.4208
  741MOL0     O99936   9.724   9.650   2.759  0.5609  0.7562 -0.0215
  741MOL0     C99937   9.792   9.536   2.811  0.6315  0.1535 -0.4792
  741MOL0     C99938   9.873   9.464   2.701  0.8605  0.1620  0.7415
  741MOL0     C99939   9.970   9.363   2.746  0.3328  0.3180 -0.6318
  741MOL0     C99940  10.013   9.257   2.639  0.4816 -0.9567 -1.2680
  741MOL0     C99941  10.026   9.308   2.489  0.4281  0.4150  0.2845
  741MOL0     C99942  10.099   9.188   2.420  0.3158 -0.2398  1.3134
  741MOL0     C99943  10.259   9.173   2.418 -0.1405 -0.8440 -0.9923
  741MOL0     C99944  10.314   9.078   2.308  0.2515  0.0619  0.4372
  741MOL0    Cl99945  10.288   8.919   2.372 -0.3975 -0.1457  0.2737
  741MOL0     C99946   9.492   9.567   2.765  0.6468  0.4124 -0.2194
  741MOL0     C99947   9.356   9.597   2.774 -0.6260  0.7614  0.2893
  741MOL0     O99948   9.198   9.822   2.987  0.5214  0.0762  1.2376
  741MOL0     C99949   8.917   9.729   2.828  0.3476 -0.4829  0.8031
  741MOL0     C99950   8.786   9.730   2.842  1.0642 -0.5204 -0.0377
  741MOL0     N99951   8.020   9.980   2.801  0.1676 -0.0114 -0.0820
  741MOL0     N99952   7.979  10.097   2.842  0.0411 -0.0538  0.2984
  741MOL0     C99953   8.893  10.863   3.173  1.0560  1.1491 -0.4969
  741MOL0     C99954   8.998  10.954   3.208  0.4199  0.1283 -0.3994
  741MOL0     C99955   9.434  11.139   3.187 -0.8508 -0.9373 -0.4474
  741MOL0     C99956   9.401  11.260   3.250  0.3797 -0.5922  0.3454
  741MOL0     C99957   9.495  11.362   3.284 -0.2004 -0.6557 -0.3077
  741MOL0     C99958   9.632  11.334   3.257 -0.1761  0.2425  0.3157
  741MOL0     O99959   9.736  11.416   3.299 -0.3191  0.0433 -0.2244
  741MOL0     C99960   9.776  11.496   3.187  0.2096 -0.1045  0.1245
  741MOL0     C99961   9.931  11.475   3.179  0.4646  0.5512 -0.7634
  741MOL0     C99962  10.010  11.466   3.308 -0.5956 -0.1241 -1.1011
  741MOL0     C99963  10.032  11.604   3.381 -0.6279  0.0093  0.7924
  741MOL0     C99964  10.100  11.701   3.283  0.0465  0.0383 -0.8039
  741MOL0     C99965  10.144  11.786   3.206  0.0676 -0.2405  0.2857
  741MOL0     C99966   9.670  11.220   3.192  0.2686 -0.8788 -0.0913
  741MOL0     C99967   9.570  11.125   3.163 -0.4952  0.0605 -0.0147
  741MOL0     H99968   9.234  10.813   3.002 -0.3751 -2.0239 -0.6723
  741MOL0     H99969   9.072  10.669   2.945 -1.5383  1.5095 -1.9360
  741MOL0     H99970   8.784  10.615   2.883 -1.0407 -1.5082 -0.5965
  741MOL0     H99971   8.922  10.531   2.968 -0.2340 -0.4135  0.0160
  741MOL0     H99972   8.759  10.374   2.925  0.3014  1.2032 -0.7732
  741MOL0     H99973   8.759  10.403   3.094  1.3522 -1.5705 -0.8292
  741MOL0     H99974   8.568  10.574   3.057 -1.5583  1.0186 -1.2051
  741MOL0     H99975   8.560  10.514   2.888 -2.9476  0.0224  1.4973
  741MOL0     H99976   8.507  10.276   2.972 -2.6086  1.0678 -2.0247
  741MOL0     H99977   8.510  10.348   3.140 -0.9340  4.5705  1.3014
  741MOL0     H99978   8.327  10.490   3.089 -1.8015 -0.5001  0.9787
  741MOL0     H99979   8.333  10.459   2.915  1.8830  0.2212 -0.1851
  741MOL0     H99980   8.285  10.216   2.991  0.6744 -0.2505  2.7532
  741MOL0     H99981   8.258  10.279   3.153 -3.4989 -1.3367 -0.4091
  741MOL0     H99982   8.095  10.419   3.097  1.2342  0.3050 -0.0273
  741MOL0     H99983   8.086  10.378   2.920  1.7650 -3.7158 -2.8379
  741MOL0     H99984   7.912  10.253   3.065 -0.6964 -0.9719 -3.4665
  741MOL0     H99985   8.052  10.191   3.152 -4.1099 -0.6375  0.5000
  741MOL0     H99986   8.152   9.974   3.092  0.4048  0.2992 -0.5986
  741MOL0     H99987   8.092   9.716   2.950 -0.5004  1.4789  0.4391
  741MOL0     H99988   8.126   9.746   2.778  2.9472  1.3488 -1.3344
  741MOL0     H99989   8.337   9.676   2.906 -1.0586 -0.8906 -0.7509
  741MOL0     H99990   8.322   9.824   3.008  3.2469 -2.9236  1.1053
  741MOL0     H99991   8.345   9.958   2.802  1.6106  0.1860  0.6250
  741MOL0     H99992   8.329   9.802   2.705  2.0398  0.6054 -1.3272
  741MOL0     H99993   8.560   9.876   2.706 -4.0956  2.6102  0.1681
  741MOL0     H99994   8.545   9.715   2.763  0.2090  0.2208  3.9570
  741MOL0     H99995   8.728   9.996   3.036 -0.3562 -1.3019  1.6107
  741MOL0     H99996   8.985  10.001   3.159 -1.1744 -2.2555 -0.9802
  741MOL0     H99997   9.101  10.032   3.024  0.0978  0.6393 -1.0568
  741MOL0     H99998   8.968  10.132   3.035  2.7204  0.1620 -0.5434
  741MOL0     H99999   9.389   9.939   2.749  2.7637  0.6818 -0.8942
  741MOL0     H    0   9.613   9.888   2.751  0.4113 -0.5443 -2.4211
  741MOL0     H    1   9.857   9.563   2.896  0.6597  0.8068 -0.7033
  741MOL0     H    2   9.716   9.462   2.837 -0.4291 -0.3793 -4.5500
  741MOL0     H    3   9.810   9.413   2.627  1.3903  0.7883 -0.1522
  741MOL0     H    4   9.925   9.545   2.650 -0.8206  0.7579 -0.1029
  741MOL0     H    5   9.932   9.314   2.836 -1.1022  0.8518 -0.9201
  741MOL0     H    6  10.054   9.426   2.775 -0.6097  0.6795  1.5105
  741MOL0     H    7  10.108   9.214   2.671  0.1567 -0.6199  0.2341
  741MOL0     H    8   9.951   9.167   2.645 -1.0304  0.1416  1.1299
  741MOL0     H    9  10.084   9.400   2.483 -0.6953  1.2467  1.4737
  741MOL0     H   10   9.926   9.331   2.449  0.0579 -2.5836 -0.7622
  741MOL0     H   11  10.065   9.094   2.464  1.1943 -0.3813  1.7219
  741MOL0     H   12  10.080   9.187   2.312  1.8607 -2.7103  0.9853
  741MOL0     H   13  10.287   9.134   2.516 -0.6050  2.3978  0.5579
  741MOL0     H   14  10.317   9.266   2.418 -1.7546  0.2634  1.5626
  741MOL0     H   15  10.419   9.102   2.292  0.6984 -2.2818 -0.5001
  741MOL0     H   16  10.265   9.091   2.212  1.4908 -0.4071 -0.2860
  741MOL0     H   17   9.521   9.462   2.756 -0.5216 -0.0348  0.9269
  741MOL0     H   18   9.287   9.513   2.762  0.9541 -0.3793 -1.3785
  741MOL0     H   19   8.961   9.641   2.781 -1.2692  0.3952 -2.7021
  741MOL0     H   20   8.727   9.653   2.792  1.4647 -0.9119  0.0794
  741MOL0     H   21   8.794  10.870   3.217  1.3119  1.1441  0.0844
  741MOL0     H   22   8.982  11.037   3.276  1.6944  0.5635 -0.6137
  741MOL0     H   23   9.295  11.274   3.265  0.2059  2.5281 -2.5765
  741MOL0     H   24   9.473  11.456   3.334  0.8245 -0.5481 -0.0403
  741MOL0     H   25   9.734  11.463   3.092  1.1213  0.1604 -0.3814
  741MOL0     H   26   9.750  11.601   3.202 -2.3077 -0.9119  2.0880
  741MOL0     H   27   9.981  11.550   3.116  0.4281  0.3640 -1.0177
  741MOL0     H   28   9.950  11.378   3.133  1.7209  0.6129 -0.3985
  741MOL0     H   29  10.108  11.423   3.287 -1.0889 -0.2273 -3.6129
  741MOL0     H   30   9.957  11.394   3.372 -2.1300  2.3060  0.5036
  741MOL0     H   31  10.097  11.598   3.469  0.9405 -2.5336 -0.4446
  741MOL0     H   32   9.939  11.648   3.419 -0.6066  0.0203  0.8331
  741MOL0     H   33  10.170  11.852   3.126  1.3002 -0.1229  0.7608
  741MOL0     H   34   9.776  11.207   3.173  0.6884  0.7477  0.9717
  741MOL0     H   35   9.599  11.033   3.113  1.9363  1.4358 -1.3108
  742MOL0     O   36   1.789   8.287   0.285 -0.4246 -0.0627  0.8776
  742MOL0     C   37   1.834   8.374   0.358 -0.8330  0.7058  0.4500
  742MOL0     O   38   1.757   8.456   0.445  0.7395  0.1822  0.3545
  742MOL0     C   39   1.622   8.447   0.450  0.2402 -0.5076 -0.3012
  742MOL0     C   40   1.560   8.326   0.485 -1.2862 -0.1211 -0.6655
  742MOL0     C   41   1.419   8.330   0.481 -0.5963 -0.9416 -0.2323
  742MOL0     C   42   1.339   8.442   0.447 -0.3472  0.7916  0.5233
  742MOL0     O   43   1.198   8.436   0.432  0.5491  0.5708  0.1772
  742MOL0     C   44   1.144   8.299   0.428  0.6805  0.3117  0.5616
  742MOL0     C   45   0.989   8.300   0.390 -0.1788  0.5177  0.1208
  742MOL0     C   46   0.933   8.152   0.382  0.0847  1.2458  0.3213
  742MOL0     C   47   0.797   8.156   0.324  0.1905 -0.1760  0.4964
  742MOL0     C   48   0.700   8.039   0.371 -0.5985  0.1221 -0.6939
  742MOL0     C   49   0.551   8.056   0.340  0.1980 -0.3216 -0.1365
  742MOL0     C   50   0.507   8.097   0.199  0.8877  0.2385  0.6788
  742MOL0     C   51   0.518   7.991   0.085 -0.2639 -0.5365  0.8180
  742MOL0     N   52   0.456   7.869   0.130 -0.3107  0.2088  0.1824
  742MOL0     C   53   0.343   7.848   0.196 -0.1716 -0.2765 -0.9794
  742MOL0     C   54   0.341   7.723   0.234  0.5803 -0.2554 -0.5876
  742MOL0     C   55   0.223   7.654   0.306  0.2505 -0.0426  0.0197
  742MOL0     C   56   0.158   7.556   0.202  0.4884 -0.0794 -0.4077
  742MOL0     C   57   0.069   7.635   0.107 -0.7704 -0.0846 -0.7523
  742MOL0     C   58  -0.018   7.561   0.015 -0.1776 -0.4026 -0.3648
  742MOL0     O   59  -0.099   7.665  -0.059 -0.0907  0.4192  0.4078
  742MOL0     C   60  -0.221   7.627  -0.114  0.0030 -0.0925  0.3898
  742MOL0     C   61  -0.309   7.731  -0.146 -0.2534  0.2148 -1.1600
  742MOL0     C   62  -0.446   7.720  -0.175  0.0246 -0.1561 -0.3769
  742MOL0     C   63  -0.526   7.839  -0.168  0.3453  0.1725  0.2396
  742MOL0     C   64  -0.499   7.582  -0.199  0.2322 -0.0311  0.3276
  742MOL0     C   65  -0.634   7.547  -0.251  0.9107  0.3580 -0.6070
  742MOL0     O   66  -0.657   7.412  -0.268  0.1776 -0.3158 -1.0177
  742MOL0     C   67  -0.777   7.376  -0.321  1.4016  0.2051 -0.0982
  742MOL0     C   68  -0.883   7.325  -0.242 -0.4984 -0.1530 -0.2742
  742MOL0     C   69  -1.007   7.290  -0.295 -0.2638 -0.1634  0.1724
  742MOL0     C   70  -1.030   7.298  -0.433 -0.3976  0.0413 -0.4068
  742MOL0     O   71  -1.153   7.270  -0.482  0.0318  0.6079 -0.3866
  742MOL0     C   72  -1.157   7.146  -0.558 -0.0931  0.4021  0.1149
  742MOL0     C   73  -1.241   7.179  -0.689 -0.7480 -0.5826 -0.3068
  742MOL0     C   74  -1.383   7.204  -0.664  0.4194 -1.0007  0.2783
  742MOL0     C   75  -1.459   7.201  -0.801 -0.4867  0.2485 -0.4664
  742MOL0     C   76  -1.615   7.183  -0.781 -0.3556  1.1313  0.6372
  742MOL0     C   77  -1.687   7.312  -0.738 -0.6537  0.5020 -0.5540
  742MOL0     C   78  -1.713   7.395  -0.863  0.4345  0.1630 -0.6353
  742MOL0     C   79  -1.803   7.512  -0.847 -1.1694  0.4661 -0.8380
  742MOL0    Cl   80  -1.790   7.614  -0.989 -0.0202 -0.1639 -0.1428
  742MOL0     C   81  -0.923   7.338  -0.517 -0.3271 -1.0375  0.5449
  742MOL0     C   82  -0.799   7.378  -0.466 -0.0903  0.3370  0.1591
  742MOL0     O   83  -0.715   7.636  -0.278 -0.0731  0.5201 -0.9472
  742MOL0     C   84  -0.403   7.482  -0.178  0.0269 -0.5302 -0.0276
  742MOL0     C   85  -0.264   7.496  -0.139  0.3944  0.0374 -0.5954
  742MOL0     N   86   0.455   7.656   0.195  0.2015 -0.1550  0.6542
  742MOL0     N   87   0.523   7.743   0.130 -0.0111  0.2423 -0.3342
  742MOL0     C   88   1.404   8.566   0.434  0.0202  0.2426  0.6169
  742MOL0     C   89   1.543   8.563   0.428  0.6823  0.2663 -0.4654
  742MOL0     C   90   1.983   8.406   0.361  0.1120 -0.2661 -0.3271
  742MOL0     C   91   2.043   8.503   0.447 -0.4232 -0.6655  0.7139
  742MOL0     C   92   2.182   8.528   0.448 -0.1155  0.4115 -0.4618
  742MOL0     C   93   2.265   8.451   0.360 -0.6134  0.2695 -0.1734
  742MOL0     O   94   2.403   8.459   0.374  0.0831  0.1520  0.7340
  742MOL0     C   95   2.486   8.458   0.251  0.2055  0.9827 -0.7357
  742MOL0     C   96   2.615   8.383   0.269  0.0137 -0.3525  0.1167
  742MOL0     C   97   2.598   8.231   0.310  0.0119  1.0398  0.1733
  742MOL0     C   98   2.733   8.168   0.373  0.8733 -0.1139  0.1442
  742MOL0     C   99   2.757   8.213   0.509 -1.5822  0.1068 -1.0236
  742MOL0     C  100   2.778   8.236   0.632 -1.1825  0.2204 -0.3151
  742MOL0     C  101   2.204   8.359   0.275  0.5203  0.6874 -0.2318
  742MOL0     C  102   2.064   8.340   0.271  0.5029 -0.1579  0.9055
  742MOL0     H  103   1.614   8.238   0.518 -0.2083  0.6244 -0.4122
  742MOL0     H  104   1.366   8.241   0.515  0.5037 -0.4881  3.1018
  742MOL0     H  105   1.190   8.245   0.345  1.5378 -0.8636  1.7787
  742MOL0     H  106   1.158   8.252   0.526  0.5855 -0.7576  0.0769
  742MOL0     H  107   0.933   8.345   0.472 -1.1153 -2.5771  1.3388
  742MOL0     H  108   0.970   8.357   0.299  0.6244  3.5658  1.7094
  742MOL0     H  109   1.008   8.096   0.325 -0.9760  1.9878 -1.9163
  742MOL0     H  110   0.928   8.107   0.482  0.2691  1.3339  0.3723
  742MOL0     H  111   0.750   8.249   0.355  0.6423  0.4094 -0.5273
  742MOL0     H  112   0.801   8.164   0.215 -2.6278  1.6162  0.4181
  742MOL0     H  113   0.728   7.945   0.323 -3.2207 -1.9978  1.5580
  742MOL0     H  114   0.707   8.016   0.477 -1.8657 -0.6367 -0.7567
  742MOL0     H  115   0.493   7.971   0.378  1.6967 -1.3793 -0.1626
  742MOL0     H  116   0.518   8.146   0.394 -0.5991  0.2929 -1.5587
  742MOL0     H  117   0.400   8.119   0.205  0.8306  0.1115  0.1875
  742MOL0     H  118   0.572   8.183   0.178  1.3618 -0.0629  0.8894
  742MOL0     H  119   0.619   7.983   0.045 -1.6652  0.2203 -3.3882
  742MOL0     H  120   0.468   8.018  -0.008  2.2520 -3.2558 -1.5184
  742MOL0     H  121   0.259   7.917   0.202 -0.6244 -0.8255 -0.8960
  742MOL0     H  122   0.264   7.590   0.385  1.8957 -1.4413 -1.8568
  742MOL0     H  123   0.154   7.731   0.341  1.4073  0.3000  1.7050
  742MOL0     H  124   0.092   7.494   0.264 -1.9861  0.9430 -1.8679
  742MOL0     H  125   0.227   7.486   0.155 -0.8017 -2.2235  0.7199
  742MOL0     H  126   0.127   7.707   0.049 -1.4344 -0.7892 -2.3351
  742MOL0     H  127  -0.007   7.685   0.169 -0.8439 -1.7527  0.5884
  742MOL0     H  128  -0.085   7.492   0.067 -2.7056  0.3695 -2.3642
  742MOL0     H  129   0.039   7.501  -0.057 -2.0885  0.9115 -3.1924
  742MOL0     H  130  -0.270   7.832  -0.131 -0.1125  0.1319 -0.9648
  742MOL0     H  131  -0.463   7.926  -0.153  0.6616  0.4664 -2.3043
  742MOL0     H  132  -0.578   7.851  -0.264 -0.6326 -0.1437  0.7099
  742MOL0     H  133  -0.591   7.839  -0.079 -2.3591  1.1747 -1.5913
  742MOL0     H  134  -0.866   7.320  -0.135  3.4434  1.6172 -0.6242
  742MOL0     H  135  -1.084   7.257  -0.227 -1.9203  2.2817 -0.3793
  742MOL0     H  136  -1.057   7.115  -0.588  0.8329  0.0961  3.1046
  742MOL0     H  137  -1.204   7.061  -0.507  2.1854 -1.9870 -1.5527
  742MOL0     H  138  -1.192   7.261  -0.744 -2.5530 -0.4842 -1.8752
  742MOL0     H  139  -1.233   7.095  -0.758  0.2212 -3.3549  2.9095
  742MOL0     H  140  -1.394   7.302  -0.617 -0.0575 -0.2687 -1.2898
  742MOL0     H  141  -1.424   7.121  -0.606 -0.5090  0.8155  2.3545
  742MOL0     H  142  -1.432   7.282  -0.870 -1.9198  0.4933 -0.7585
  742MOL0     H  143  -1.438   7.103  -0.844 -0.3566 -0.2830  0.7841
  742MOL0     H  144  -1.638   7.100  -0.714  0.5421  0.3193 -0.0382
  742MOL0     H  145  -1.656   7.151  -0.877  0.5001  0.3678  0.5157
  742MOL0     H  146  -1.784   7.292  -0.692  0.2763 -1.3904  0.7283
  742MOL0     H  147  -1.632   7.362  -0.658  1.1180 -0.0643 -1.3742
  742MOL0     H  148  -1.757   7.336  -0.944  1.2943 -0.8468 -0.3885
  742MOL0     H  149  -1.617   7.439  -0.891 -1.5506  4.9060 -0.9605
  742MOL0     H  150  -1.765   7.564  -0.759 -0.3332 -0.5009 -0.6158
  742MOL0     H  151  -1.907   7.488  -0.822 -2.0876  2.8182 -2.0834
  742MOL0     H  152  -0.947   7.332  -0.623 -0.8578 -3.9212  0.7552
  742MOL0     H  153  -0.720   7.403  -0.537 -1.1709 -0.1705 -1.2770
  742MOL0     H  154  -0.436   7.380  -0.195  0.7025 -0.6946 -0.3763
  742MOL0     H  155  -0.206   7.405  -0.131 -0.5187 -0.4324  1.5173
  742MOL0     H  156   1.342   8.646   0.396 -0.6670 -1.5645 -2.3683
  742MOL0     H  157   1.581   8.663   0.407 -0.8163  0.4236 -2.8325
  742MOL0     H  158   1.977   8.566   0.506 -1.0263 -0.2584 -0.3822
  742MOL0     H  159   2.225   8.596   0.522 -1.7635 -1.5408  2.5094
  742MOL0     H  160   2.438   8.409   0.165 -0.5923  0.6414 -0.1008
  742MOL0     H  161   2.514   8.558   0.217  0.5278  0.5290 -1.8933
  742MOL0     H  162   2.675   8.429   0.348 -5.4922 -0.2119  4.9171
  742MOL0     H  163   2.667   8.378   0.173 -0.8876 -2.1990 -0.3381
  742MOL0     H  164   2.569   8.168   0.225  0.3332 -2.0572  2.2034
  742MOL0     H  165   2.517   8.213   0.382  0.7758 -0.7674  0.6433
  742MOL0     H  166   2.816   8.195   0.307 -0.3899  2.9435 -0.3878
  742MOL0     H  167   2.730   8.059   0.382  1.0072  0.0327  3.0110
  742MOL0     H  168   2.770   8.273   0.732 -0.2764 -2.6354  0.8813
  742MOL0     H  169   2.270   8.296   0.217  2.4659  1.1940  1.2984
  742MOL0     H  170   2.021   8.273   0.198 -0.7114 -2.2757  3.4196
  743MOL0     O  171   9.846   5.629   2.507 -0.5013 -0.0902 -0.3513
  743MOL0     C  172   9.806   5.656   2.396  0.6922  0.4636 -0.3229
  743MOL0     O  173   9.873   5.679   2.287  0.3398 -0.7597 -0.7906
  743MOL0     C  174  10.008   5.682   2.271 -0.3975  0.2032 -0.5634
  743MOL0     C  175  10.107   5.622   2.361  0.3599  0.6872  1.4833
  743MOL0     C  176  10.239   5.603   2.325 -0.7929  0.5928  0.0426
  743MOL0     C  177  10.291   5.657   2.210 -0.3986  0.1492  0.1397
  743MOL0     O  178  10.428   5.645   2.191 -0.4253 -0.0936 -0.3796
  743MOL0     C  179  10.480   5.658   2.064 -0.1788 -0.6241  0.8720
  743MOL0     C  180  10.626   5.667   2.078  1.0467 -0.5490  0.0577
  743MOL0     C  181  10.700   5.649   1.936 -0.6214 -0.0302 -0.7531
  743MOL0     C  182  10.851   5.693   1.946  0.2979  0.0868 -0.0819
  743MOL0     C  183  10.942   5.627   1.841 -0.3673  0.3767 -0.1930
  743MOL0     C  184  11.093   5.637   1.863  0.8997  0.2081 -0.4281
  743MOL0     C  185  11.145   5.785   1.859 -0.6972  0.3462  0.7038
  743MOL0     C  186  11.280   5.813   1.909  0.8781 -0.4706 -0.3263
  743MOL0     N  187  11.306   5.751   2.040 -0.0362  0.0367  0.1851
  743MOL0     C  188  11.368   5.632   2.065  0.2091  0.4392 -0.2165
  743MOL0     C  189  11.387   5.624   2.196 -0.6839  0.3227 -0.6503
  743MOL0     C  190  11.464   5.513   2.262  0.3105 -0.2921 -0.2398
  743MOL0     C  191  11.373   5.411   2.321  0.6148 -0.6090 -0.0602
  743MOL0     C  192  11.456   5.298   2.390  0.0730  0.2970  0.2350
  743MOL0     C  193  11.397   5.245   2.525 -0.6540  0.4891  0.4368
  743MOL0     O  194  11.405   5.325   2.640  0.6855 -0.1837 -0.4679
  743MOL0     C  195  11.288   5.348   2.701  0.5917  0.6451  0.6773
  743MOL0     C  196  11.211   5.237   2.743  0.4757  0.3358 -0.5396
  743MOL0     C  197  11.076   5.265   2.798 -0.2137 -0.7352 -0.4819
  743MOL0     C  198  10.981   5.147   2.812  0.6093 -0.1674 -0.5916
  743MOL0     C  199  11.036   5.400   2.826  0.1443  0.0083  0.5002
  743MOL0     C  200  10.910   5.440   2.890 -0.3031  0.8298  0.8430
  743MOL0     O  201  10.907   5.553   2.962  0.0534  0.2806 -0.2476
  743MOL0     C  202  10.797   5.598   3.029 -0.6175 -0.8691 -0.6747
  743MOL0     C  203  10.707   5.685   2.968 -0.0066 -0.1980 -0.1808
  743MOL0     C  204  10.602   5.737   3.040  0.5354 -0.5972 -0.8410
  743MOL0     C  205  10.588   5.705   3.175 -0.8803 -1.0567 -1.2750
  743MOL0     O  206  10.506   5.779   3.254  0.2838  1.0888  0.0178
  743MOL0     C  207  10.466   5.914   3.224 -0.2766  0.1785 -0.2234
  743MOL0     C  208  10.312   5.934   3.195 -0.4837  0.8722  0.1839
  743MOL0     C  209  10.211   5.842   3.277  0.3517 -0.2391  0.4628
  743MOL0     C  210  10.069   5.879   3.236  0.5168  0.1379  0.2467
  743MOL0     C  211   9.959   5.802   3.298 -0.6412  0.9431 -0.6841
  743MOL0     C  212   9.831   5.859   3.238  0.5587  0.2797 -0.6316
  743MOL0     C  213   9.700   5.785   3.278  0.5242 -0.5928 -0.1473
  743MOL0     C  214   9.672   5.805   3.427  0.1704  0.4087  0.0191
  743MOL0    Cl  215   9.642   5.978   3.472  0.0797  0.2909 -0.2575
  743MOL0     C  216  10.675   5.608   3.242  0.2115  0.4058 -0.7810
  743MOL0     C  217  10.783   5.552   3.166  0.1831 -1.2558  1.2420
  743MOL0     O  218  10.814   5.371   2.859 -0.0273  0.0134  0.0384
  743MOL0     C  219  11.128   5.500   2.787 -0.5553 -0.3567 -0.4059
  743MOL0     C  220  11.249   5.478   2.724 -0.3779 -0.4286 -0.4681
  743MOL0     N  221  11.316   5.726   2.257  0.0565  0.8200  0.3822
  743MOL0     N  222  11.277   5.808   2.167 -0.5759 -0.6115 -0.0057
  743MOL0     C  223  10.200   5.717   2.122 -0.7635 -1.0184  0.5173
  743MOL0     C  224  10.061   5.729   2.148  0.7997  0.3718 -0.1869
  743MOL0     C  225   9.655   5.655   2.377  0.3298  1.0090  0.6818
  743MOL0     C  226   9.604   5.672   2.248 -0.5124 -0.0599  0.0035
  743MOL0     C  227   9.470   5.666   2.222 -1.2290 -0.3959 -0.4457
  743MOL0     C  228   9.378   5.617   2.322  0.9373  0.0350  0.4605
  743MOL0     O  229   9.246   5.593   2.276 -0.4871 -0.4954  0.7134
  743MOL0     C  230   9.138   5.598   2.367 -1.0573 -0.0475  0.9142
  743MOL0     C  231   9.069   5.459   2.369 -0.0664 -1.8818  0.5474
  743MOL0     C  232   8.952   5.444   2.464  0.2634 -1.0700  0.5933
  743MOL0     C  233   8.982   5.467   2.615 -0.0575  0.0531  0.4927
  743MOL0     C  234   9.002   5.600   2.661 -0.1052  0.2677  0.3568
  743MOL0     C  235   8.981   5.718   2.688 -0.5545  0.0496 -0.4845
  743MOL0     C  236   9.428   5.605   2.455  0.3504 -0.7288 -0.0080
  743MOL0     C  237   9.565   5.627   2.477  1.2692 -0.3277 -0.6335
  743MOL0     H  238  10.071   5.569   2.448 -3.4622 -0.2716 -0.4479
  743MOL0     H  239  10.308   5.545   2.386  0.0588 -2.3182 -3.3801
  743MOL0     H  240  10.459   5.576   1.995  1.2072  1.3346 -2.1209
  743MOL0     H  241  10.443   5.745   2.008  2.0623 -0.9826 -1.3319
  743MOL0     H  242  10.661   5.761   2.121  1.1235  0.2327 -1.6379
  743MOL0     H  243  10.647   5.578   2.139 -1.2157 -0.5007  0.9999
  743MOL0     H  244  10.681   5.546   1.905 -0.0030 -0.3729 -0.0181
  743MOL0     H  245  10.660   5.719   1.861 -2.9420  1.4378  1.6843
  743MOL0     H  246  10.850   5.801   1.928 -4.4226  0.0026 -1.9359
  743MOL0     H  247  10.885   5.665   2.046  0.4246 -0.6558 -0.3304
  743MOL0     H  248  10.917   5.521   1.830  0.3741  0.2767 -1.0402
  743MOL0     H  249  10.928   5.672   1.743  1.8265  0.1210 -0.6748
  743MOL0     H  250  11.108   5.589   1.960  1.3510  0.0215 -0.5902
  743MOL0     H  251  11.135   5.572   1.786 -1.7662 -2.3420  0.0852
  743MOL0     H  252  11.139   5.831   1.760 -2.3238 -1.4303 -0.0842
  743MOL0     H  253  11.076   5.830   1.931 -0.3880 -1.4150  2.1693
  743MOL0     H  254  11.305   5.917   1.928  1.3822 -0.9156  1.7408
  743MOL0     H  255  11.360   5.775   1.846  1.6020 -3.9108  2.3339
  743MOL0     H  256  11.380   5.549   1.996 -2.9282 -2.6554  2.5380
  743MOL0     H  257  11.534   5.465   2.192 -0.2651 -2.1145  0.3646
  743MOL0     H  258  11.524   5.565   2.336 -0.7224  1.7062 -0.7440
  743MOL0     H  259  11.308   5.358   2.250  4.5573 -2.5916 -2.5187
  743MOL0     H  260  11.315   5.467   2.395  0.4749 -1.0793  0.1929
  743MOL0     H  261  11.555   5.339   2.413  1.2437 -1.7554 -0.8343
  743MOL0     H  262  11.486   5.218   2.322  1.6523  0.3163  0.8739
  743MOL0     H  263  11.444   5.149   2.548  0.8790 -0.1624 -4.3924
  743MOL0     H  264  11.296   5.217   2.492  0.0573 -1.8748  0.0291
  743MOL0     H  265  11.243   5.137   2.719  1.4612  0.0705  1.7107
  743MOL0     H  266  10.886   5.152   2.758  0.2425  2.5714  0.1687
  743MOL0     H  267  11.033   5.052   2.793  0.3022 -0.6530  0.8888
  743MOL0     H  268  10.956   5.136   2.918  2.8069 -1.3171 -0.1421
  743MOL0     H  269  10.711   5.703   2.861  0.6582  0.6088 -0.0215
  743MOL0     H  270  10.542   5.806   2.982 -0.1671 -0.6656 -0.2040
  743MOL0     H  271  10.485   5.974   3.314  0.1006 -1.2260  0.6496
  743MOL0     H  272  10.516   5.974   3.146 -4.3155  3.7251 -0.4849
  743MOL0     H  273  10.282   6.039   3.196  2.5716  1.8793 -1.3470
  743MOL0     H  274  10.303   5.895   3.093  1.3472 -0.9726  0.6561
  743MOL0     H  275  10.227   5.863   3.383  2.0045 -1.0791  0.4238
  743MOL0     H  276  10.228   5.734   3.274 -1.4918 -0.5611  0.6789
  743MOL0     H  277  10.053   5.982   3.271 -0.0872  0.2142 -0.2300
  743MOL0     H  278  10.056   5.867   3.128  0.8415 -2.5852  0.4400
  743MOL0     H  279   9.961   5.798   3.407  0.0710 -1.5223 -0.7271
  743MOL0     H  280   9.965   5.695   3.277  0.9779 -0.3441  4.7556
  743MOL0     H  281   9.822   5.966   3.261  1.8715 -0.2444  3.0042
  743MOL0     H  282   9.837   5.842   3.131  0.0319  1.8475 -0.9342
  743MOL0     H  283   9.700   5.678   3.254 -0.0023 -0.3892 -1.0963
  743MOL0     H  284   9.617   5.838   3.231 -1.1537  1.1443  4.2434
  743MOL0     H  285   9.755   5.765   3.486  0.7739  1.0620 -0.3692
  743MOL0     H  286   9.592   5.738   3.460 -1.1971  0.5780 -2.7074
  743MOL0     H  287  10.659   5.601   3.349 -2.5260  1.0256 -1.0683
  743MOL0     H  288  10.861   5.496   3.217  1.7631  1.4682  2.0296
  743MOL0     H  289  11.106   5.603   2.814 -0.8965 -1.0722  2.4618
  743MOL0     H  290  11.317   5.556   2.692  0.3135 -0.0664  1.6864
  743MOL0     H  291  10.240   5.734   2.023  2.6771  0.5624  1.9859
  743MOL0     H  292   9.987   5.775   2.082  0.2160 -0.5060 -0.1600
  743MOL0     H  293   9.674   5.687   2.167 -2.6680 -4.4687 -3.1426
  743MOL0     H  294   9.430   5.682   2.122  0.8196  0.6134 -1.1548
  743MOL0     H  295   9.183   5.619   2.465  1.0934 -0.7796  0.1516
  743MOL0     H  296   9.072   5.679   2.337  1.7077  2.0245  0.0214
  743MOL0     H  297   9.141   5.384   2.402 -0.3270 -1.4032  2.3192
  743MOL0     H  298   9.028   5.435   2.270 -0.5719  1.1011 -0.0651
  743MOL0     H  299   8.937   5.337   2.448 -0.2249 -0.7033 -1.7031
  743MOL0     H  300   8.865   5.503   2.432 -0.4544 -1.0445  2.4666
  743MOL0     H  301   9.079   5.421   2.637  0.8516  1.7609  0.2035
  743MOL0     H  302   8.902   5.419   2.672  0.0006 -3.1557 -1.8551
  743MOL0     H  303   8.986   5.818   2.725  1.3369 -1.0480  2.5670
  743MOL0     H  304   9.363   5.584   2.540 -0.6151  5.8348  1.4812
  743MOL0     H  305   9.599   5.615   2.580 -1.6900  1.2230  0.6539
  744MOL0     O  306   8.796   5.948  11.106 -0.3219 -0.7332 -0.0673
  744MOL0     C  307   8.864   5.883  11.029  1.2950  0.4354  0.4572
  744MOL0     O  308   8.817   5.829  10.912 -0.1958  0.1049 -0.6834
  744MOL0     C  309   8.684   5.837  10.886 -0.2237 -0.0602  0.2599
  744MOL0     C  310   8.656   5.892  10.760  0.9862  0.1793 -0.4333
  744MOL0     C  311   8.520   5.910  10.723  0.3671 -0.0823 -0.6018
  744MOL0     C  312   8.415   5.870  10.811  0.8602  0.5638  1.0379
  744MOL0     O  313   8.282   5.882  10.786  0.1318 -0.4892  0.9632
  744MOL0     C  314   8.227   5.904  10.656  0.8077  0.0954 -0.2517
  744MOL0     C  315   8.146   6.038  10.657 -1.0135 -0.2688  0.1316
  744MOL0     C  316   8.012   6.043  10.741  1.7166  0.1593 -0.1587
  744MOL0     C  317   8.022   6.148  10.853 -0.4033 -0.5053 -0.0554
  744MOL0     C  318   7.887   6.164  10.939  0.1053  0.2438 -0.6884
  744MOL0     C  319   7.777   6.242  10.856 -0.1150 -0.1866 -0.9044
  744MOL0     C  320   7.652   6.258  10.930 -0.4353  0.1486 -0.7457
  744MOL0     C  321   7.601   6.140  11.019  0.6303 -1.0785 -1.0110
  744MOL0     N  322   7.571   6.024  10.934  0.7031 -0.3178 -0.2446
  744MOL0     C  323   7.456   6.014  10.862  0.2672  0.7045  0.0958
  744MOL0     C  324   7.476   5.898  10.803 -0.4140  0.0025 -0.3454
  744MOL0     C  325   7.405   5.826  10.697  0.2606  0.0570 -0.1903
  744MOL0     C  326   7.257   5.838  10.723  0.3321 -0.6805  0.2069
  744MOL0     C  327   7.179   5.792  10.601  0.5562  0.6282  0.3080
  744MOL0     C  328   7.024   5.808  10.623  0.7234  0.0767 -0.3369
  744MOL0     O  329   6.979   5.730  10.513  0.5223  0.3503 -0.3758
  744MOL0     C  330   6.846   5.736  10.488  0.8915 -0.3606  0.6683
  744MOL0     C  331   6.783   5.671  10.374  0.0410  0.5568  0.0774
  744MOL0     C  332   6.647   5.673  10.343 -0.0108 -0.3773  0.4985
  744MOL0     C  333   6.607   5.586  10.220 -0.8184  0.8454 -0.4225
  744MOL0     C  334   6.556   5.740  10.422  0.4035 -0.3766  0.2449
  744MOL0     C  335   6.407   5.735  10.390 -1.1699 -0.8127  0.0797
  744MOL0     O  336   6.334   5.820  10.473  0.3042  0.0443  1.0243
  744MOL0     C  337   6.200   5.797  10.489  0.0759  0.8871  0.6458
  744MOL0     C  338   6.148   5.732  10.600 -0.0704  0.6021  0.2289
  744MOL0     C  339   6.012   5.700  10.600  0.0673  0.1062 -0.4160
  744MOL0     C  340   5.922   5.753  10.505 -0.8172  0.1179 -0.4920
  744MOL0     O  341   5.789   5.739  10.507  0.1225 -0.0071  0.0906
  744MOL0     C  342   5.712   5.672  10.604 -1.1761 -0.2215 -0.2639
  744MOL0     C  343   5.567   5.639  10.555  0.4734  0.3257  0.0662
  744MOL0     C  344   5.501   5.755  10.457 -0.0179  0.9186 -0.8447
  744MOL0     C  345   5.360   5.709  10.412  0.1339  0.2693  1.1170
  744MOL0     C  346   5.286   5.785  10.303  0.1969 -0.2581 -0.2915
  744MOL0     C  347   5.237   5.922  10.345 -0.7312 -0.3217 -0.3903
  744MOL0     C  348   5.197   6.003  10.223 -0.6124  0.6242  0.3063
  744MOL0     C  349   5.174   6.154  10.258  2.0179 -0.3860  0.2400
  744MOL0    Cl  350   5.032   6.179  10.366 -0.2757 -0.0839  0.0433
  744MOL0     C  351   5.976   5.829  10.399  0.6650 -0.4022 -0.8160
  744MOL0     C  352   6.115   5.846  10.396  0.2453  0.8314 -0.4389
  744MOL0     O  353   6.362   5.658  10.312  0.0411 -0.2083  0.1598
  744MOL0     C  354   6.617   5.813  10.534 -0.4171  0.0783  0.5842
  744MOL0     C  355   6.755   5.808  10.565 -0.1657 -0.4415  0.3946
  744MOL0     N  356   7.595   5.849  10.832 -0.1213 -0.0843  0.4434
  744MOL0     N  357   7.652   5.919  10.926 -0.1179  0.1442  0.0628
  744MOL0     C  358   8.458   5.833  10.937  0.7466 -0.5191  0.6698
  744MOL0     C  359   8.581   5.800  10.969  0.7108 -0.3508 -1.2620
  744MOL0     C  360   9.016   5.893  11.032  0.6507  0.1869 -0.2668
  744MOL0     C  361   9.070   5.975  11.129 -0.8120  1.0548 -0.5843
  744MOL0     C  362   9.206   5.988  11.142  0.4770 -0.3033  0.1197
  744MOL0     C  363   9.284   5.927  11.047 -0.0010  0.2851 -0.8408
  744MOL0     O  364   9.422   5.940  11.050 -0.0362  0.1602  0.2883
  744MOL0     C  365   9.504   6.016  11.146  0.3742  0.9431  0.1307
  744MOL0     C  366   9.646   6.024  11.096  0.2113  0.2052 -0.0700
  744MOL0     C  367   9.660   6.133  10.984 -0.4328 -0.1306 -0.6083
  744MOL0     C  368   9.803   6.167  10.949 -1.0986  0.9818  1.2178
  744MOL0     C  369   9.831   6.279  10.850  0.4187  0.7991 -0.0526
  744MOL0     C  370   9.877   6.361  10.768 -0.2181  0.2073 -0.1758
  744MOL0     C  371   9.236   5.861  10.933  0.3188  0.5919  0.0869
  744MOL0     C  372   9.095   5.847  10.924 -0.1705  0.4776 -0.6283
  744MOL0     H  373   8.728   5.930  10.689  1.1870  2.3760  0.8469
  744MOL0     H  374   8.502   5.958  10.628 -1.3679  2.7794  1.0475
  744MOL0     H  375   8.298   5.901  10.573  2.9708  1.4756  1.4426
  744MOL0     H  376   8.159   5.820  10.640  0.0675  0.4933  0.7465
  744MOL0     H  377   8.209   6.118  10.694 -0.6493  0.0246 -1.0595
  744MOL0     H  378   8.129   6.062  10.551 -0.2767  0.4005  0.1593
  744MOL0     H  379   7.934   6.062  10.666  2.3539 -0.3376 -0.9613
  744MOL0     H  380   7.985   5.948  10.788  1.9901 -0.1766 -0.6612
  744MOL0     H  381   8.103   6.120  10.921 -2.6320 -1.0306  2.5449
  744MOL0     H  382   8.052   6.240  10.802 -0.1289 -1.3898 -1.5632
  744MOL0     H  383   7.856   6.060  10.950  1.1722  0.0856  1.2259
  744MOL0     H  384   7.906   6.215  11.034 -1.9431 -0.6500  0.2715
  744MOL0     H  385   7.814   6.341  10.825 -1.4528  0.0855 -1.6939
  744MOL0     H  386   7.764   6.199  10.757  1.2343 -1.7992 -0.4173
  744MOL0     H  387   7.659   6.346  10.995  0.9200  2.0456 -3.2372
  744MOL0     H  388   7.579   6.294  10.857  0.7569  3.1740 -0.5793
  744MOL0     H  389   7.515   6.175  11.076  1.6336 -0.4322  0.1628
  744MOL0     H  390   7.680   6.119  11.091  0.4199 -0.7677 -0.6837
  744MOL0     H  391   7.373   6.084  10.861 -2.5604 -2.3819  1.2292
  744MOL0     H  392   7.426   5.858  10.594 -2.7666  2.3367 -0.2156
  744MOL0     H  393   7.434   5.720  10.704  0.2186 -0.0138 -1.0152
  744MOL0     H  394   7.241   5.944  10.747  3.3513 -0.2767  0.8414
  744MOL0     H  395   7.226   5.771  10.803  0.8404 -1.5043 -0.2725
  744MOL0     H  396   7.228   5.696  10.583 -0.9581  0.0311 -0.7868
  744MOL0     H  397   7.208   5.843  10.508  3.1034 -2.2613 -0.6382
  744MOL0     H  398   6.991   5.911  10.610 -3.6180 -0.3817  4.1167
  744MOL0     H  399   6.993   5.775  10.722 -1.5087 -1.5960 -1.4738
  744MOL0     H  400   6.853   5.620  10.308 -0.3866 -0.1766  0.1818
  744MOL0     H  401   6.689   5.555  10.156  0.8131 -0.5664  2.1575
  744MOL0     H  402   6.558   5.495  10.257 -0.4296 -0.7929 -3.5832
  744MOL0     H  403   6.535   5.638  10.156  0.6845 -0.4588 -3.3483
  744MOL0     H  404   6.218   5.706  10.679  1.0421  3.6156  0.3461
  744MOL0     H  405   5.980   5.643  10.686  1.5013 -3.7533 -2.2063
  744MOL0     H  406   5.764   5.579  10.630  0.1685  1.7451  5.5885
  744MOL0     H  407   5.708   5.734  10.693  1.3065 -0.7526  0.2905
  744MOL0     H  408   5.562   5.545  10.499  0.3075 -1.3712  2.7453
  744MOL0     H  409   5.505   5.636  10.645 -2.6744 -0.9037 -1.9725
  744MOL0     H  410   5.559   5.753  10.364 -1.7649 -2.6976 -2.0641
  744MOL0     H  411   5.497   5.854  10.502  2.3494  0.0099  1.6624
  744MOL0     H  412   5.379   5.612  10.366  2.4820  0.8043  0.8403
  744MOL0     H  413   5.301   5.676  10.498  0.7969  0.4219  1.6489
  744MOL0     H  414   5.198   5.727  10.276 -1.7635  2.0867  0.7136
  744MOL0     H  415   5.354   5.790  10.217  0.5403 -2.8830 -0.2508
  744MOL0     H  416   5.173   5.921  10.433 -0.3128 -1.1926 -0.0873
  744MOL0     H  417   5.331   5.968  10.379 -0.4436 -0.1511 -1.3586
  744MOL0     H  418   5.118   5.943  10.178  2.6534 -5.4608  1.6044
  744MOL0     H  419   5.278   6.003  10.150  0.5235 -1.4802  1.4786
  744MOL0     H  420   5.144   6.204  10.165 -2.0902 -1.1511  0.9770
  744MOL0     H  421   5.266   6.199  10.298  2.0086 -0.4006  0.2784
  744MOL0     H  422   5.919   5.873  10.318  0.8939  3.4577  0.9064
  744MOL0     H  423   6.161   5.903  10.316  0.9969  2.3463  1.0411
  744MOL0     H  424   6.555   5.858  10.610  0.0307  1.7459  0.0117
  744MOL0     H  425   6.792   5.865  10.649 -2.6782  0.8235  0.7365
  744MOL0     H  426   8.381   5.802  11.007 -0.6727 -1.1422 -1.1135
  744MOL0     H  427   8.603   5.752  11.064 -0.3525  2.0619  0.2879
  744MOL0     H  428   9.009   6.035  11.195  1.8693  0.3865  2.8274
  744MOL0     H  429   9.238   6.056  11.220 -2.1722 -0.2064  1.2032
  744MOL0     H  430   9.462   6.117  11.151  1.0845  1.3740 -1.7666
  744MOL0     H  431   9.494   5.952  11.234 -1.1721  1.0093  0.0250
  744MOL0     H  432   9.687   5.927  11.065  1.0476  0.7466 -0.7024
  744MOL0     H  433   9.704   6.051  11.184  0.0408  2.6400 -0.6442
  744MOL0     H  434   9.612   6.230  11.001  0.7058  0.6234 -1.5430
  744MOL0     H  435   9.604   6.088  10.901  1.5381 -2.6614 -0.6874
  744MOL0     H  436   9.847   6.072  10.917 -1.7175  1.4354 -1.2379
  744MOL0     H  437   9.861   6.204  11.033 -1.8156  2.0899  1.2413
  744MOL0     H  438   9.910   6.426  10.690  1.3570  2.3589  2.1332
  744MOL0     H  439   9.308   5.828  10.859  1.6783 -0.5835  1.8446
  744MOL0     H  440   9.041   5.779  10.859  2.1115 -2.8913  0.7222
  745MOL0     O  441   3.826   3.199   6.840  0.4992  0.2482 -0.2844
  745MOL0     C  442   3.895   3.212   6.939 -0.0020 -0.6637 -0.2175
  745MOL0     O  443   3.886   3.153   7.061  0.7387  0.5575  0.0547
  745MOL0     C  444   3.775   3.080   7.078 -0.0580  0.9732  0.6409
  745MOL0     C  445   3.661   3.139   7.126 -0.0288 -0.4677  0.1873
  745MOL0     C  446   3.551   3.066   7.144  0.7168  1.0363  0.6904
  745MOL0     C  447   3.539   2.924   7.117 -0.8131  0.5279  0.0687
  745MOL0     O  448   3.425   2.847   7.125  0.4587 -0.4869 -0.5142
  745MOL0     C  449   3.389   2.804   7.259 -0.2911 -0.9770 -0.5519
  745MOL0     C  450   3.298   2.688   7.256 -0.3159 -0.2408 -0.4665
  745MOL0     C  451   3.165   2.718   7.179 -0.2792  0.2903 -0.6708
  745MOL0     C  452   3.062   2.596   7.188 -0.0794 -0.8624 -0.5078
  745MOL0     C  453   2.939   2.631   7.267 -0.3885 -0.3086 -0.3182
  745MOL0     C  454   2.870   2.504   7.322 -0.5060  0.1389 -0.3766
  745MOL0     C  455   2.736   2.534   7.381  0.1185 -0.2866  0.9115
  745MOL0     C  456   2.733   2.629   7.493 -0.1437  0.6802 -0.4988
  745MOL0     N  457   2.590   2.664   7.523  0.1147 -0.0953 -0.1351
  745MOL0     C  458   2.519   2.772   7.478  0.1539 -0.3254 -0.1711
  745MOL0     C  459   2.405   2.776   7.551 -0.9785  0.0402  0.9081
  745MOL0     C  460   2.294   2.869   7.539  0.2206 -0.7063 -0.2964
  745MOL0     C  461   2.308   2.976   7.666 -0.7333  0.0871  0.0522
  745MOL0     C  462   2.196   3.079   7.675  0.1397 -0.4792  1.3280
  745MOL0     C  463   2.103   3.029   7.789  0.6703 -0.0105  0.3912
  745MOL0     O  464   2.011   3.136   7.830  0.0417  0.4667 -0.4864
  745MOL0     C  465   1.963   3.123   7.959  0.4558  0.2127  1.3003
  745MOL0     C  466   1.981   3.021   8.038  0.2901  1.2988 -0.9308
  745MOL0     C  467   1.903   3.003   8.158 -0.2110  0.1653 -1.0910
  745MOL0     C  468   1.911   2.870   8.222 -0.0258  0.3220 -0.2412
  745MOL0     C  469   1.815   3.108   8.202  0.2715 -0.4418 -0.3077
  745MOL0     C  470   1.741   3.117   8.331 -0.0819  0.2368  0.6949
  745MOL0     O  471   1.651   3.222   8.338 -1.0715 -0.0169 -0.0733
  745MOL0     C  472   1.535   3.218   8.421 -0.3805  0.3354  0.3895
  745MOL0     C  473   1.486   3.103   8.471 -0.3293  1.1300  0.5150
  745MOL0     C  474   1.356   3.099   8.515  0.6256 -0.0615  0.4229
  745MOL0     C  475   1.269   3.206   8.484  0.0753 -0.2509 -0.2953
  745MOL0     O  476   1.144   3.186   8.520  0.1784  0.7395 -0.1227
  745MOL0     C  477   1.045   3.278   8.478  0.2679  0.8522  0.1660
  745MOL0     C  478   1.016   3.388   8.579 -0.9432 -0.5396 -0.8033
  745MOL0     C  479   0.969   3.347   8.714 -0.7175  0.5878  0.4665
  745MOL0     C  480   0.846   3.432   8.756 -0.0764 -0.6670 -0.1021
  745MOL0     C  481   0.883   3.558   8.828  0.3641 -0.0588 -0.0234
  745MOL0     C  482   0.757   3.633   8.873 -0.3520  0.4231  1.6152
  745MOL0     C  483   0.790   3.779   8.923 -0.1804  0.1011 -0.3896
  745MOL0     C  484   0.654   3.856   8.948  0.1969 -0.6078 -0.4797
  745MOL0    Cl  485   0.556   3.869   8.793 -0.0272 -0.3415 -0.2471
  745MOL0     C  486   1.327   3.329   8.449  0.0376  0.6775 -0.1373
  745MOL0     C  487   1.458   3.332   8.412 -0.5462  0.7635  0.6004
  745MOL0     O  488   1.778   3.043   8.422  0.7463 -0.0262 -0.6777
  745MOL0     C  489   1.816   3.227   8.120 -0.0671 -0.8421  0.4387
  745MOL0     C  490   1.889   3.226   8.003 -0.5556  0.2650  0.0993
  745MOL0     N  491   2.403   2.668   7.633 -0.4990  0.6044 -0.4420
  745MOL0     N  492   2.511   2.599   7.615  0.2679 -0.1049 -0.2080
  745MOL0     C  493   3.658   2.863   7.074 -0.8945 -0.2880 -0.8886
  745MOL0     C  494   3.777   2.934   7.057  0.2710 -0.4442 -0.3323
  745MOL0     C  495   4.007   3.313   6.925  0.2623  1.1026 -0.8087
  745MOL0     C  496   4.113   3.312   7.008  0.1332 -0.1975  0.0717
  745MOL0     C  497   4.218   3.406   7.008 -0.4731  0.0830  0.7021
  745MOL0     C  498   4.222   3.504   6.902 -0.1874  0.2622  0.2859
  745MOL0     O  499   4.326   3.592   6.896 -0.0300 -0.1961  0.2628
  745MOL0     C  500   4.324   3.692   6.997 -0.5290  0.0282 -0.2805
  745MOL0     C  501   4.468   3.757   7.007 -0.5800 -0.5819  0.4709
  745MOL0     C  502   4.490   3.874   6.917 -0.3119  0.4818  0.6813
  745MOL0     C  503   4.631   3.933   6.933 -1.3586 -0.6057  0.4577
  745MOL0     C  504   4.728   3.863   6.850 -1.1806 -0.0809 -0.1723
  745MOL0     C  505   4.813   3.809   6.773  0.5399 -0.9781  0.6375
  745MOL0     C  506   4.120   3.501   6.802  0.4056  0.0292  0.1405
  745MOL0     C  507   4.013   3.407   6.820 -0.1134 -0.4222 -0.0787
  745MOL0     H  508   3.659   3.246   7.141 -2.1444 -0.1504 -1.8096
  745MOL0     H  509   3.461   3.119   7.172 -1.6367 -1.4557 -1.4879
  745MOL0     H  510   3.479   2.766   7.307  0.3776 -0.3019 -1.2376
  745MOL0     H  511   3.347   2.886   7.318  1.5141  1.1524 -2.0519
  745MOL0     H  512   3.344   2.600   7.211  1.3386  0.3125  0.0656
  745MOL0     H  513   3.283   2.675   7.364 -0.9831  1.0457 -0.3819
  745MOL0     H  514   3.123   2.813   7.210  0.6115  1.2588 -2.2532
  745MOL0     H  515   3.190   2.731   7.073 -1.7587 -0.6363 -1.1557
  745MOL0     H  516   3.047   2.546   7.091  0.2515 -0.8834 -0.5510
  745MOL0     H  517   3.116   2.512   7.232  0.8692 -0.4290 -0.8148
  745MOL0     H  518   2.971   2.709   7.337 -1.6980  0.1905 -0.2485
  745MOL0     H  519   2.870   2.688   7.204  1.2256  0.5036 -1.4234
  745MOL0     H  520   2.852   2.416   7.259  2.4886  0.3596 -1.6974
  745MOL0     H  521   2.936   2.472   7.403  0.3817  0.8800 -0.7864
  745MOL0     H  522   2.677   2.577   7.300 -2.1501 -5.0132 -0.3091
  745MOL0     H  523   2.693   2.439   7.413 -1.3003  0.4149  1.1283
  745MOL0     H  524   2.784   2.724   7.474 -1.3504  1.4799  0.1307
  745MOL0     H  525   2.763   2.583   7.587 -3.0281  0.4696  0.4258
  745MOL0     H  526   2.539   2.837   7.393  0.7563 -2.8288 -2.0332
  745MOL0     H  527   2.308   2.924   7.445 -0.6573  1.0718  0.5680
  745MOL0     H  528   2.198   2.817   7.542  0.8255 -1.8089  1.9595
  745MOL0     H  529   2.406   3.020   7.646  0.3481 -1.3678  1.7646
  745MOL0     H  530   2.318   2.933   7.766 -3.1925 -0.5831  0.0594
  745MOL0     H  531   2.135   3.092   7.585 -1.5605  1.7490  2.6838
  745MOL0     H  532   2.239   3.174   7.708  1.5672 -0.7158  0.2479
  745MOL0     H  533   2.168   3.003   7.873 -0.5364  1.0462  1.7094
  745MOL0     H  534   2.032   2.949   7.766 -0.4946  0.4397  2.2392
  745MOL0     H  535   2.053   2.942   8.022  1.3283  2.2805 -1.2061
  745MOL0     H  536   1.948   2.795   8.151 -0.3236 -0.1535  0.0979
  745MOL0     H  537   1.977   2.877   8.309  0.4658  0.3242 -0.6115
  745MOL0     H  538   1.810   2.841   8.253 -0.4628  0.6892 -1.2899
  745MOL0     H  539   1.546   3.015   8.493 -1.6617  0.4126  1.4342
  745MOL0     H  540   1.315   3.014   8.569  1.3117 -0.5049  0.2561
  745MOL0     H  541   1.074   3.311   8.378  1.4567  3.3575  1.2305
  745MOL0     H  542   0.947   3.230   8.473  0.8742 -0.3646 -0.4968
  745MOL0     H  543   1.108   3.446   8.593 -0.7106 -1.2655  0.8296
  745MOL0     H  544   0.942   3.458   8.541 -0.7163 -0.0725 -0.3924
  745MOL0     H  545   1.055   3.362   8.780  0.6715  0.7319 -1.2881
  745MOL0     H  546   0.944   3.240   8.711 -1.3057  0.7342 -0.3378
  745MOL0     H  547   0.787   3.457   8.668  1.4963  1.4311 -0.6602
  745MOL0     H  548   0.787   3.371   8.825 -0.5249 -0.9735 -0.7519
  745MOL0     H  549   0.935   3.611   8.748 -0.2988 -0.1960 -0.5494
  745MOL0     H  550   0.946   3.540   8.916  0.9250  2.2879  0.1272
  745MOL0     H  551   0.685   3.643   8.792  0.0139  0.4855  1.2964
  745MOL0     H  552   0.706   3.581   8.954  0.5122 -2.9769  0.1192
  745MOL0     H  553   0.849   3.833   8.848  0.4875 -0.6905 -0.4568
  745MOL0     H  554   0.846   3.771   9.017 -0.1037  2.5184 -0.1598
  745MOL0     H  555   0.678   3.955   8.988 -0.9467 -1.3112  2.1236
  745MOL0     H  556   0.598   3.825   9.036  1.9039 -0.6064  0.6501
  745MOL0     H  557   1.264   3.417   8.443  0.4713  0.9601 -0.6247
  745MOL0     H  558   1.498   3.426   8.375 -1.2494  1.9829  2.7528
  745MOL0     H  559   1.756   3.316   8.132 -2.8829 -2.3598 -1.3344
  745MOL0     H  560   1.871   3.309   7.935 -0.6499 -0.7142 -1.1166
  745MOL0     H  561   3.660   2.755   7.062 -0.2529 -0.7345  2.2866
  745MOL0     H  562   3.865   2.883   7.019 -0.4901 -1.6927 -0.4590
  745MOL0     H  563   4.120   3.238   7.087 -3.9915  1.3748  2.2058
  745MOL0     H  564   4.278   3.416   7.097 -0.4738 -1.5281  0.9059
  745MOL0     H  565   4.250   3.771   6.977 -2.2952 -0.9051  2.0983
  745MOL0     H  566   4.299   3.653   7.096 -0.1144 -0.6998 -0.4650
  745MOL0     H  567   4.548   3.685   6.987 -1.1224 -0.9683 -0.4001
  745MOL0     H  568   4.489   3.778   7.112  3.6349 -2.8686  0.2998
  745MOL0     H  569   4.431   3.963   6.939  2.1459  2.7111 -1.0957
  745MOL0     H  570   4.465   3.840   6.816  0.1259  1.0128  0.3932
  745MOL0     H  571   4.666   3.925   7.037 -3.9503 -1.9562  1.3148
  745MOL0     H  572   4.637   4.039   6.909  3.0343 -0.5439  0.9647
  745MOL0     H  573   4.884   3.760   6.708 -2.1549 -1.5455 -2.1376
  745MOL0     H  574   4.116   3.572   6.720 -1.0551  0.1992  0.3294
  745MOL0     H  575   3.931   3.420   6.751  0.1911  3.0246  0.0553
  746MOL0     O  576   1.755   8.563   1.279  0.2285 -0.1250 -0.2270
  746MOL0     C  577   1.672   8.631   1.337 -0.5983 -0.8824  0.1366
  746MOL0     O  578   1.708   8.737   1.403  0.4969  0.6054  0.5436
  746MOL0     C  579   1.837   8.754   1.440  0.0550  0.3699 -0.2132
  746MOL0     C  580   1.916   8.848   1.368  0.0802 -0.1853  0.1303
  746MOL0     C  581   2.049   8.885   1.409  1.0804 -0.2803  0.4203
  746MOL0     C  582   2.108   8.817   1.514 -0.7277 -0.5500  0.2042
  746MOL0     O  583   2.225   8.853   1.562 -0.4070 -0.6290  0.2880
  746MOL0     C  584   2.277   8.976   1.508 -0.6632  0.5499  1.0249
  746MOL0     C  585   2.414   9.013   1.573 -0.5273  0.4643 -0.5325
  746MOL0     C  586   2.491   9.117   1.493  1.3482  0.0709 -0.5138
  746MOL0     C  587   2.590   9.212   1.572  0.9351  0.1875 -0.6837
  746MOL0     C  588   2.664   9.317   1.489 -0.3033  0.2842  0.4312
  746MOL0     C  589   2.743   9.432   1.566  0.4189  0.0841  0.3747
  746MOL0     C  590   2.753   9.559   1.481 -0.3990  0.1141 -0.4902
  746MOL0     C  591   2.868   9.641   1.535  0.6803 -0.3631 -0.1632
  746MOL0     N  592   2.924   9.724   1.437  0.2769 -0.1166  0.7030
  746MOL0     C  593   2.906   9.864   1.440  0.3992  1.4023  0.5564
  746MOL0     C  594   2.968   9.911   1.331 -0.2947  0.2749 -0.1161
  746MOL0     C  595   2.969  10.058   1.292 -0.1162  0.4259  0.5698
  746MOL0     C  596   2.837  10.103   1.230 -0.5032 -0.5779  0.8745
  746MOL0     C  597   2.836  10.245   1.182  0.6981 -0.1881  0.4792
  746MOL0     C  598   2.687  10.295   1.164 -0.3234  0.1372  0.3149
  746MOL0     O  599   2.620  10.200   1.080 -0.0364 -0.2089 -0.1230
  746MOL0     C  600   2.493  10.210   1.049  0.3536  0.7628 -0.1019
  746MOL0     C  601   2.450  10.115   0.959  1.1712  0.0679 -0.2903
  746MOL0     C  602   2.315  10.109   0.904  1.0239  0.0641 -0.1170
  746MOL0     C  603   2.274  10.001   0.801 -0.8991 -0.7033 -0.2915
  746MOL0     C  604   2.224  10.199   0.964  0.6828  0.9980 -0.2102
  746MOL0     C  605   2.081  10.219   0.906 -0.7161  0.2663 -1.0470
  746MOL0     O  606   2.049  10.178   0.782  0.2464  0.1083  1.1048
  746MOL0     C  607   1.918  10.126   0.768 -0.6781  0.7638 -0.8133
  746MOL0     C  608   1.901   9.996   0.736 -0.5829  0.5669  0.5503
  746MOL0     C  609   1.778   9.942   0.707  0.0232 -0.7184 -0.8737
  746MOL0     C  610   1.660  10.024   0.728 -0.5557  0.6587  0.4706
  746MOL0     O  611   1.539   9.968   0.710 -0.4922 -0.3606  0.0740
  746MOL0     C  612   1.409  10.018   0.737  0.7873 -0.3976  0.1105
  746MOL0     C  613   1.378  10.035   0.884  0.2955  0.0479 -0.5142
  746MOL0     C  614   1.250  10.121   0.915  0.2068 -0.0683  0.0560
  746MOL0     C  615   1.121  10.066   0.859 -0.2476 -0.4774 -0.0922
  746MOL0     C  616   1.012  10.169   0.898  0.0938 -0.4630 -0.3336
  746MOL0     C  617   0.880  10.113   0.859  0.5229  0.4011 -0.1844
  746MOL0     C  618   0.772  10.204   0.924  0.6892 -0.1841 -0.6028
  746MOL0     C  619   0.623  10.154   0.894  0.4965  0.4811 -0.0162
  746MOL0    Cl  620   0.603   9.990   0.927  0.4284  0.0430  0.0086
  746MOL0     C  621   1.668  10.156   0.764 -0.2295 -1.0686  0.6201
  746MOL0     C  622   1.799  10.202   0.780  0.0109 -0.0294 -0.6802
  746MOL0     O  623   2.005  10.254   0.992 -0.3452 -0.0693 -0.1544
  746MOL0     C  624   2.267  10.294   1.057 -0.9340  0.0442  0.1310
  746MOL0     C  625   2.404  10.301   1.089 -0.4104 -0.2294  0.6402
  746MOL0     N  626   3.017   9.802   1.260  0.3166  0.6440 -1.0466
  746MOL0     N  627   2.993   9.690   1.324  0.0723 -0.5030  0.4394
  746MOL0     C  628   2.037   8.710   1.575  0.5669 -1.1171  0.2295
  746MOL0     C  629   1.906   8.678   1.536  0.0757 -0.1077 -0.2766
  746MOL0     C  630   1.525   8.605   1.321  0.1801 -0.5202  0.6157
  746MOL0     C  631   1.466   8.534   1.217  0.7216  0.0748  0.3606
  746MOL0     C  632   1.325   8.524   1.211  0.3112  0.0987  0.1435
  746MOL0     C  633   1.236   8.576   1.304 -0.2333  0.3521  0.1428
  746MOL0     O  634   1.103   8.553   1.285 -0.0837 -0.7557  0.1711
  746MOL0     C  635   1.022   8.556   1.402  0.2680  0.1212 -0.3135
  746MOL0     C  636   0.909   8.473   1.382  0.3309 -0.0265  0.0589
  746MOL0     C  637   0.814   8.463   1.509 -0.0327 -0.1624 -0.0331
  746MOL0     C  638   0.667   8.425   1.479  0.3891 -0.0053 -0.4436
  746MOL0     C  639   0.657   8.298   1.403 -0.1958  0.2098  0.2221
  746MOL0     C  640   0.630   8.191   1.345 -0.0989  0.1836  0.1980
  746MOL0     C  641   1.297   8.666   1.387  0.2888  0.2449  0.5012
  746MOL0     C  642   1.435   8.676   1.394 -0.2224  0.4734 -0.2630
  746MOL0     H  643   1.864   8.919   1.304  2.8245  1.3405 -0.5560
  746MOL0     H  644   2.077   8.978   1.361 -1.2439 -1.3257 -3.4464
  746MOL0     H  645   2.292   8.966   1.400  0.9525 -2.4100  1.4200
  746MOL0     H  646   2.206   9.055   1.532  0.4006  1.2929  1.8110
  746MOL0     H  647   2.400   9.058   1.671  0.3933  0.8899 -0.5860
  746MOL0     H  648   2.474   8.923   1.594 -0.3993  0.4541 -0.9343
  746MOL0     H  649   2.546   9.061   1.417  0.6978  0.6155 -1.4122
  746MOL0     H  650   2.413   9.175   1.442 -1.9736 -2.1164  1.7092
  746MOL0     H  651   2.527   9.273   1.638  2.8674 -0.6676  2.1066
  746MOL0     H  652   2.654   9.160   1.643  1.4138 -0.2355 -1.4112
  746MOL0     H  653   2.730   9.246   1.437 -0.9377  0.0513 -0.0737
  746MOL0     H  654   2.591   9.368   1.425 -1.2571  0.3910  1.5814
  746MOL0     H  655   2.681   9.450   1.655 -1.5465 -2.7570 -0.2669
  746MOL0     H  656   2.837   9.383   1.597 -0.3032 -2.1513 -0.7771
  746MOL0     H  657   2.769   9.517   1.381  0.4435  1.7372 -1.0750
  746MOL0     H  658   2.665   9.624   1.478  1.2612  2.4300 -1.2880
  746MOL0     H  659   2.952   9.572   1.549  1.4418  0.8167  1.2626
  746MOL0     H  660   2.838   9.683   1.631 -1.2540 -0.5799 -0.6363
  746MOL0     H  661   2.855   9.920   1.518  1.8319  1.0045  1.8301
  746MOL0     H  662   2.994  10.116   1.381 -1.3451 -0.2034  1.3671
  746MOL0     H  663   3.040  10.071   1.210 -0.9097 -1.6064 -0.5264
  746MOL0     H  664   2.755  10.088   1.300 -0.5044  2.3515  1.6357
  746MOL0     H  665   2.835  10.043   1.139  4.4801 -0.0925  0.1450
  746MOL0     H  666   2.893  10.254   1.089  3.6520  0.1955  2.1899
  746MOL0     H  667   2.891  10.299   1.260  1.4731 -1.7438  1.0405
  746MOL0     H  668   2.683  10.391   1.111  0.0343 -0.4367 -0.8022
  746MOL0     H  669   2.642  10.313   1.262  0.5709  0.3018  0.7062
  746MOL0     H  670   2.523  10.051   0.910  1.4497  1.1851 -1.3938
  746MOL0     H  671   2.214   9.925   0.853  2.9520 -3.1212  1.0473
  746MOL0     H  672   2.223  10.042   0.712 -0.4445 -0.2331 -0.3386
  746MOL0     H  673   2.365   9.954   0.764 -2.4879 -0.7595 -4.8270
  746MOL0     H  674   1.993   9.941   0.723 -1.8047 -1.6920  1.0308
  746MOL0     H  675   1.773   9.842   0.663  0.2769 -1.4458  0.7018
  746MOL0     H  676   1.400  10.117   0.692  1.6284  0.9027  2.5915
  746MOL0     H  677   1.342   9.944   0.694  2.7671 -2.9988  1.2343
  746MOL0     H  678   1.378   9.933   0.923 -1.1278  0.7868  1.5909
  746MOL0     H  679   1.455  10.097   0.932 -1.6443  3.9640 -2.0312
  746MOL0     H  680   1.267  10.227   0.892  0.3232 -0.0170  0.3757
  746MOL0     H  681   1.242  10.125   1.024  2.3332  1.4028  0.2441
  746MOL0     H  682   1.136  10.056   0.751 -0.0709 -1.3303 -0.0023
  746MOL0     H  683   1.108   9.974   0.918  1.7479  1.4950  3.8329
  746MOL0     H  684   1.024  10.265   0.848  0.4185 -0.0682  0.4794
  746MOL0     H  685   1.009  10.193   1.005 -0.6745  0.0512 -0.4634
  746MOL0     H  686   0.874  10.105   0.750 -1.3071 -0.3986 -0.0603
  746MOL0     H  687   0.868  10.018   0.912 -1.7089  0.4350 -0.5270
  746MOL0     H  688   0.778  10.306   0.886  0.6836 -0.4589 -1.3692
  746MOL0     H  689   0.790  10.207   1.032 -2.0244  0.9927 -0.0999
  746MOL0     H  690   0.594  10.152   0.788 -2.0482 -4.0553  0.5079
  746MOL0     H  691   0.559  10.224   0.948  0.4490  1.4712 -1.2936
  746MOL0     H  692   1.578  10.215   0.771  0.1943  0.1406 -2.3603
  746MOL0     H  693   1.813  10.305   0.811 -0.5881 -0.6392  1.8534
  746MOL0     H  694   2.201  10.373   1.093  2.3434  4.5534 -2.6509
  746MOL0     H  695   2.432  10.392   1.141  0.8119  0.5400 -1.2260
  746MOL0     H  696   2.072   8.653   1.660  1.9413 -1.0619 -0.2812
  746MOL0     H  697   1.853   8.593   1.577 -2.5334  1.3375 -0.4698
  746MOL0     H  698   1.525   8.473   1.149  0.6259 -0.2589  0.5759
  746MOL0     H  699   1.282   8.471   1.126 -1.8134 -2.6731  2.7137
  746MOL0     H  700   1.076   8.505   1.483  0.7356  2.9107  1.2348
  746MOL0     H  701   0.994   8.653   1.443 -0.0488 -1.1334  2.7047
  746MOL0     H  702   0.939   8.371   1.353 -3.4274 -0.5554 -2.6957
  746MOL0     H  703   0.853   8.517   1.300  2.7679  2.1278 -0.5877
  746MOL0     H  704   0.803   8.560   1.559 -0.5449 -1.0072  1.5529
  746MOL0     H  705   0.849   8.397   1.589 -0.3710  3.7157  3.7151
  746MOL0     H  706   0.616   8.502   1.420 -0.8857 -0.7932 -0.3962
  746MOL0     H  707   0.632   8.412   1.581  0.2069 -5.3537 -0.8881
  746MOL0     H  708   0.611   8.104   1.285  2.1101  1.4605 -2.5429
  746MOL0     H  709   1.232   8.722   1.454 -2.4051 -1.5992 -0.3827
  746MOL0     H  710   1.466   8.742   1.475 -1.0296 -1.0747  1.3942
  747MOL0     O  711  11.014   0.943  10.958 -0.1867  0.4453  0.2324
  747MOL0     C  712  11.095   0.922  10.869 -1.0124  0.1560 -0.1897
  747MOL0     O  713  11.075   0.837  10.763 -0.0586  0.2583 -0.0639
  747MOL0     C  714  10.956   0.775  10.747  0.0026 -0.4337  0.2100
  747MOL0     C  715  10.944   0.636  10.740  0.9371  0.3817  0.4129
  747MOL0     C  716  10.811   0.579  10.721 -0.2245 -0.1003  0.0654
  747MOL0     C  717  10.699   0.663  10.707  0.1751 -0.2055  0.3147
  747MOL0     O  718  10.577   0.605  10.689 -0.7880  0.2905  0.3170
  747MOL0     C  719  10.458   0.655  10.746 -0.5045  0.3751 -0.0383
  747MOL0     C  720  10.345   0.551  10.698 -1.0129  0.6836  0.6508
  747MOL0     C  721  10.373   0.406  10.727  0.3298  0.7432 -0.2842
  747MOL0     C  722  10.336   0.371  10.877  1.1061 -0.3733  0.4075
  747MOL0     C  723  10.179   0.395  10.909 -1.2027 -0.2110 -0.5647
  747MOL0     C  724  10.148   0.330  11.052 -0.4132  0.1106 -0.8191
  747MOL0     C  725  10.012   0.378  11.113  0.1402 -0.8015  0.1308
  747MOL0     C  726   9.898   0.286  11.068  0.0799  0.7562  0.4796
  747MOL0     N  727   9.863   0.304  10.919  0.3885  0.1833  0.3043
  747MOL0     C  728   9.841   0.200  10.834 -1.1948 -0.2915  0.1380
  747MOL0     C  729   9.835   0.257  10.712  0.4237  0.5754 -0.3907
  747MOL0     C  730   9.822   0.190  10.576 -0.9137  0.7133 -0.1270
  747MOL0     C  731   9.887   0.050  10.578  0.4236  0.7169  0.0400
  747MOL0     C  732  10.024   0.040  10.536 -0.9969  0.0301  0.1923
  747MOL0     C  733  10.131   0.112  10.615  0.4833  0.0298  0.7832
  747MOL0     O  734  10.147   0.063  10.752 -0.3154 -0.3513  0.6561
  747MOL0     C  735  10.199  -0.060  10.775 -0.5129 -0.6472  1.6072
  747MOL0     C  736  10.119  -0.156  10.830 -0.1727 -0.1164  0.4936
  747MOL0     C  737  10.166  -0.280  10.863  0.1571 -0.6614  0.5413
  747MOL0     C  738  10.057  -0.384  10.899  0.0270 -0.2530  0.5898
  747MOL0     C  739  10.306  -0.306  10.838  0.0099 -0.2771 -0.3059
  747MOL0     C  740  10.365  -0.444  10.866  0.3268 -0.3083 -0.5359
  747MOL0     O  741  10.330  -0.546  10.786  0.1730 -1.0080  0.5506
  747MOL0     C  742  10.363  -0.675  10.821 -0.2941 -0.0710  0.6462
  747MOL0     C  743  10.491  -0.717  10.863 -0.5404  0.2465  0.7054
  747MOL0     C  744  10.523  -0.844  10.897 -0.3337  0.9158  0.0635
  747MOL0     C  745  10.423  -0.948  10.900  0.3471  0.6385  1.0971
  747MOL0     O  746  10.478  -1.072  10.936 -0.5681 -0.2763  0.1574
  747MOL0     C  747  10.386  -1.181  10.950 -0.1732 -0.9152 -0.7398
  747MOL0     C  748  10.348  -1.242  10.825 -0.6114  0.1043  0.0631
  747MOL0     C  749  10.452  -1.335  10.771 -0.7537 -0.1203  0.7762
  747MOL0     C  750  10.404  -1.483  10.774  0.0931 -0.0664 -0.0336
  747MOL0     C  751  10.513  -1.591  10.744  0.9021 -0.8203  0.6914
  747MOL0     C  752  10.585  -1.572  10.613  0.3744  0.3253  0.1398
  747MOL0     C  753  10.718  -1.642  10.600  0.4543 -0.4771  0.4797
  747MOL0     C  754  10.720  -1.787  10.644 -0.9085  0.0443  0.6879
  747MOL0    Cl  755  10.758  -1.805  10.823 -0.2082 -0.0378  0.2436
  747MOL0     C  756  10.287  -0.912  10.867  0.0486  0.3383 -0.1926
  747MOL0     C  757  10.263  -0.782  10.826 -0.5401 -0.2550 -0.1344
  747MOL0     O  758  10.426  -0.456  10.966  0.2001  1.1169  0.1719
  747MOL0     C  759  10.396  -0.208  10.776  0.1670 -0.4370  0.1819
  747MOL0     C  760  10.335  -0.085  10.753 -0.2504 -0.0645  0.1233
  747MOL0     N  761   9.848   0.397  10.723 -0.3571  0.0034 -0.0467
  747MOL0     N  762   9.861   0.424  10.852  0.4602 -0.5795  0.5105
  747MOL0     C  763  10.710   0.796  10.699 -0.0266 -0.5039 -0.5127
  747MOL0     C  764  10.835   0.852  10.722 -0.1388  0.2781  0.6319
  747MOL0     C  765  11.225   1.006  10.861 -0.3044  0.5230 -0.2361
  747MOL0     C  766  11.242   1.128  10.922  0.3589  0.0457  0.2853
  747MOL0     C  767  11.368   1.195  10.936 -0.3384  1.0416  0.3911
  747MOL0     C  768  11.475   1.131  10.866  0.2222 -0.6479 -0.3486
  747MOL0     O  769  11.597   1.184  10.858  0.8382  0.0680  0.5957
  747MOL0     C  770  11.623   1.301  10.940 -0.0815  0.0004  0.5533
  747MOL0     C  771  11.769   1.335  10.946 -0.2134 -0.0208 -0.2929
  747MOL0     C  772  11.786   1.468  11.010 -0.3108 -0.0709  0.7501
  747MOL0     C  773  11.929   1.494  11.005 -0.2922  0.3692  0.3144
  747MOL0     C  774  11.934   1.630  11.071 -1.0192 -0.0173 -0.3374
  747MOL0     C  775  11.956   1.737  11.121  0.7704 -0.0792  0.2067
  747MOL0     C  776  11.452   1.014  10.796  0.9099  0.0896  0.5359
  747MOL0     C  777  11.327   0.947  10.792  0.0686 -0.7346 -0.3933
  747MOL0     H  778  11.029   0.570  10.750  2.5056  2.2890  0.1613
  747MOL0     H  779  10.787   0.474  10.716 -1.0531 -0.0738  2.3569
  747MOL0     H  780  10.472   0.645  10.854  1.1689 -0.6114 -0.3083
  747MOL0     H  781  10.431   0.760  10.728 -0.3605  0.4023 -0.0980
  747MOL0     H  782  10.250   0.592  10.733 -0.3319  2.9044  0.1149
  747MOL0     H  783  10.348   0.544  10.589  1.0416  1.2499  0.6284
  747MOL0     H  784  10.307   0.348  10.661  1.5010 -0.2085 -0.6621
  747MOL0     H  785  10.478   0.383  10.712 -0.7511 -3.0808 -4.0486
  747MOL0     H  786  10.360   0.266  10.896  4.4418 -0.1592 -1.7611
  747MOL0     H  787  10.388   0.440  10.945 -0.2052 -0.1995  1.2750
  747MOL0     H  788  10.175   0.503  10.920  2.3861 -0.0854  0.7281
  747MOL0     H  789  10.111   0.361  10.830  1.0506 -0.6021 -2.4346
  747MOL0     H  790  10.146   0.221  11.055 -0.2042  0.1091  2.5270
  747MOL0     H  791  10.227   0.366  11.119 -0.7052 -1.5367  0.4668
  747MOL0     H  792  10.022   0.377  11.222  0.4972 -3.0761  0.1323
  747MOL0     H  793  10.008   0.483  11.081  0.5168 -0.9439 -0.4039
  747MOL0     H  794   9.802   0.299  11.119 -0.5095 -0.1249 -0.3551
  747MOL0     H  795   9.926   0.183  11.091  0.3930  1.0960  1.7008
  747MOL0     H  796   9.849   0.094  10.855  0.7468 -1.5389 -5.1617
  747MOL0     H  797   9.716   0.189  10.549 -1.2647 -1.7189  1.0414
  747MOL0     H  798   9.878   0.256  10.510 -2.5172  1.7093 -0.5598
  747MOL0     H  799   9.832  -0.010  10.505 -0.7159 -1.0865  2.2757
  747MOL0     H  800   9.866  -0.005  10.670 -2.7139 -0.0169 -0.9820
  747MOL0     H  801  10.030   0.070  10.431  2.3512 -0.5212  0.1183
  747MOL0     H  802  10.051  -0.066  10.536  1.3305  0.5443  2.1069
  747MOL0     H  803  10.113   0.219  10.625  0.9077  0.3000 -1.0261
  747MOL0     H  804  10.228   0.093  10.569 -1.0961  0.6103 -3.2125
  747MOL0     H  805  10.022  -0.115  10.856  0.5616  1.8071  0.3678
  747MOL0     H  806  10.023  -0.371  11.002 -3.3595  0.6714 -0.5093
  747MOL0     H  807   9.967  -0.381  10.836 -1.6564 -2.4921  2.7088
  747MOL0     H  808  10.096  -0.486  10.898  2.3684  0.4957 -2.7683
  747MOL0     H  809  10.573  -0.647  10.864 -2.0847  2.1684 -0.6213
  747MOL0     H  810  10.623  -0.875  10.923 -0.6487 -0.1784  0.0273
  747MOL0     H  811  10.424  -1.253  11.023  2.8610  0.4822 -0.7713
  747MOL0     H  812  10.292  -1.158  11.000  0.1889  0.4105 -0.6213
  747MOL0     H  813  10.255  -1.301  10.830 -0.2096 -0.4585  1.2368
  747MOL0     H  814  10.321  -1.162  10.755 -0.7256 -2.3597 -2.9413
  747MOL0     H  815  10.553  -1.316  10.809 -1.3334  2.1936  1.3450
  747MOL0     H  816  10.460  -1.315  10.664  0.5151  0.8577  1.0250
  747MOL0     H  817  10.364  -1.495  10.875 -1.0364  4.3959  0.2657
  747MOL0     H  818  10.315  -1.495  10.711 -0.4652 -0.4174  0.8058
  747MOL0     H  819  10.466  -1.689  10.741 -2.5330  0.6711  1.0151
  747MOL0     H  820  10.586  -1.574  10.824 -0.0878  3.1258  0.9630
  747MOL0     H  821  10.515  -1.603  10.535  0.7678 -1.0424  0.3157
  747MOL0     H  822  10.607  -1.465  10.608  0.4549  0.2776 -3.0651
  747MOL0     H  823  10.794  -1.574  10.640  1.8208 -0.6468 -1.6576
  747MOL0     H  824  10.722  -1.642  10.491  1.1845 -0.5931  0.4982
  747MOL0     H  825  10.792  -1.847  10.588 -3.7071 -3.9479  0.9051
  747MOL0     H  826  10.624  -1.836  10.622 -0.6540  0.1602 -0.7470
  747MOL0     H  827  10.205  -0.983  10.865 -0.4028  0.8684 -0.7064
  747MOL0     H  828  10.167  -0.740  10.797 -1.0049 -1.1925  0.0093
  747MOL0     H  829  10.496  -0.229  10.740 -0.5683 -2.4655 -0.8518
  747MOL0     H  830  10.394  -0.006  10.708 -0.7121 -1.5196 -3.4659
  747MOL0     H  831  10.626   0.859  10.673  1.1742  0.7669 -1.4126
  747MOL0     H  832  10.835   0.959  10.703  0.2958  0.1803  0.0301
  747MOL0     H  833  11.149   1.173  10.956 -0.9356 -2.1259 -0.1943
  747MOL0     H  834  11.363   1.290  10.989 -1.9381 -0.0196  2.2773
  747MOL0     H  835  11.560   1.386  10.910  2.2611  0.7851 -2.6683
  747MOL0     H  836  11.609   1.279  11.046 -0.1628  2.5026  1.1336
  747MOL0     H  837  11.811   1.325  10.845 -0.4418  1.4153 -0.5575
  747MOL0     H  838  11.821   1.263  11.010 -0.8661  2.3930  3.2325
  747MOL0     H  839  11.756   1.462  11.116  0.1104 -4.3691  0.8148
  747MOL0     H  840  11.728   1.546  10.961  0.1413  0.2764  0.7628
  747MOL0     H  841  11.966   1.489  10.902 -0.3117 -0.6295  0.3511
  747MOL0     H  842  11.986   1.415  11.055 -0.1835 -0.0988 -0.5202
  747MOL0     H  843  11.978   1.814  11.192  0.2790 -0.0780  0.3660
  747MOL0     H  844  11.526   0.971  10.730 -0.9884  0.9977 -2.3798
  747MOL0     H  845  11.310   0.869  10.719  1.0684 -0.0857 -1.3581
  748MOL0     O  846   7.420   4.207   7.009 -1.1305 -0.3725  0.3570
  748MOL0     C  847   7.531   4.245   6.959  0.7101  0.0813  0.1968
  748MOL0     O  848   7.552   4.254   6.831 -0.5424  0.5438  0.1938
  748MOL0     C  849   7.445   4.222   6.746 -0.8469 -0.5424 -0.1648
  748MOL0     C  850   7.427   4.083   6.723  0.5339 -0.2930 -0.1869
  748MOL0     C  851   7.324   4.042   6.636 -0.6586  0.1931  1.0312
  748MOL0     C  852   7.258   4.136   6.562  0.5710  0.6010 -0.6393
  748MOL0     O  853   7.160   4.085   6.476 -1.8965  0.8891  0.4015
  748MOL0     C  854   7.073   4.178   6.414  0.1325  0.1091  0.4154
  748MOL0     C  855   6.985   4.113   6.318  0.6260 -0.5508  0.0140
  748MOL0     C  856   6.900   4.019   6.394 -0.4437 -0.2777 -0.6057
  748MOL0     C  857   6.798   3.949   6.302 -0.1381 -0.1624  1.4103
  748MOL0     C  858   6.692   3.884   6.376 -0.2386  0.3899 -0.4432
  748MOL0     C  859   6.758   3.763   6.453  0.1820 -0.0521 -0.2165
  748MOL0     C  860   6.652   3.672   6.519 -0.2334  0.1286  0.2943
  748MOL0     C  861   6.621   3.715   6.667 -0.1097 -0.0097  0.1258
  748MOL0     N  862   6.548   3.839   6.666 -0.3831  0.3748 -0.1368
  748MOL0     C  863   6.602   3.955   6.720 -1.2077  0.7669  0.6385
  748MOL0     C  864   6.503   4.048   6.706 -0.0169  0.0836 -0.3832
  748MOL0     C  865   6.524   4.200   6.741  0.8360  1.3705  0.1421
  748MOL0     C  866   6.482   4.233   6.883  0.2562 -0.7775 -0.3386
  748MOL0     C  867   6.335   4.213   6.917  0.5069 -1.0988 -0.1932
  748MOL0     C  868   6.319   4.259   7.059 -0.1356  0.9090 -0.3951
  748MOL0     O  869   6.311   4.407   7.068 -0.2480  0.1762  0.1726
  748MOL0     C  870   6.188   4.466   7.030  0.7510  0.7552 -0.5508
  748MOL0     C  871   6.070   4.396   7.006 -0.0024  0.2313 -0.9655
  748MOL0     C  872   5.948   4.457   6.995 -0.3755 -0.3384  0.3103
  748MOL0     C  873   5.830   4.369   6.956  0.2883 -0.5899  0.1423
  748MOL0     C  874   5.954   4.603   6.992  0.8698  0.2069  0.8540
  748MOL0     C  875   5.840   4.693   6.948  0.0341 -0.9369 -0.2829
  748MOL0     O  876   5.803   4.784   7.044 -0.0044 -0.6209 -0.2032
  748MOL0     C  877   5.749   4.902   7.003  0.2988  0.5874  0.5321
  748MOL0     C  878   5.618   4.924   6.999 -0.5905  0.1277  0.4432
  748MOL0     C  879   5.569   5.046   6.958 -0.7663 -0.1480  0.5424
  748MOL0     C  880   5.659   5.147   6.915  0.6456 -0.4056  0.1986
  748MOL0     O  881   5.612   5.264   6.870 -0.7226  0.8300 -0.4045
  748MOL0     C  882   5.673   5.377   6.942  0.0260  0.4021 -0.0637
  748MOL0     C  883   5.650   5.501   6.862 -0.3958 -0.1449  1.6425
  748MOL0     C  884   5.768   5.589   6.868 -0.0147  1.0445  0.4451
  748MOL0     C  885   5.884   5.530   6.784 -0.3258  0.7655 -0.1219
  748MOL0     C  886   5.883   5.569   6.637 -1.1568  0.0345  1.0314
  748MOL0     C  887   5.871   5.720   6.615  0.5348  0.0719  0.6426
  748MOL0     C  888   5.896   5.746   6.468  0.4857 -0.0523 -0.5130
  748MOL0     C  889   5.878   5.886   6.422  0.4068  0.3291 -0.0050
  748MOL0    Cl  890   6.010   6.002   6.475  0.1940 -0.0717  0.3210
  748MOL0     C  891   5.800   5.124   6.923 -0.2179 -0.2184 -0.2460
  748MOL0     C  892   5.841   5.001   6.964  0.3201  0.2744  0.5537
  748MOL0     O  893   5.772   4.669   6.848  0.4732  0.1214 -0.0698
  748MOL0     C  894   6.067   4.675   7.002  0.3464  0.7073  0.1084
  748MOL0     C  895   6.193   4.610   7.035  1.1412  0.3223  0.7200
  748MOL0     N  896   6.386   3.984   6.650  0.8372 -1.4342 -0.2802
  748MOL0     N  897   6.417   3.860   6.628 -0.4223 -0.2011 -0.6657
  748MOL0     C  898   7.279   4.277   6.579  1.0605  0.3741 -1.2166
  748MOL0     C  899   7.370   4.316   6.676  0.0568 -0.6937 -0.1863
  748MOL0     C  900   7.642   4.273   7.052  0.6928  1.5050 -0.2925
  748MOL0     C  901   7.651   4.196   7.165  0.5597 -0.4601  0.3211
  748MOL0     C  902   7.764   4.205   7.242 -0.1701 -0.0713  0.2823
  748MOL0     C  903   7.860   4.301   7.218  0.9908 -0.1245 -0.1287
  748MOL0     O  904   7.956   4.308   7.309 -0.2451  0.0514 -0.2943
  748MOL0     C  905   8.070   4.391   7.287  0.3446  0.3450  0.8519
  748MOL0     C  906   8.178   4.366   7.396  0.3291 -0.7525 -0.6132
  748MOL0     C  907   8.240   4.224   7.393 -0.4641 -0.3164  0.4615
  748MOL0     C  908   8.322   4.190   7.521  1.2560  0.5080 -0.0445
  748MOL0     C  909   8.443   4.259   7.520 -0.1051 -0.8139 -0.0176
  748MOL0     C  910   8.560   4.289   7.499 -0.3985 -0.7215 -0.2102
  748MOL0     C  911   7.842   4.384   7.103  0.3374 -0.2496 -0.9372
  748MOL0     C  912   7.737   4.369   7.016 -0.0419 -1.0488  0.1502
  748MOL0     H  913   7.489   4.008   6.772  1.5696  1.2329  0.9178
  748MOL0     H  914   7.309   3.936   6.619 -2.2813  0.3945  1.0925
  748MOL0     H  915   7.016   4.233   6.489 -0.3215  0.0271  0.1349
  748MOL0     H  916   7.136   4.250   6.360  0.2978  1.9585  2.9037
  748MOL0     H  917   6.914   4.180   6.269 -2.3627 -3.3449  0.2340
  748MOL0     H  918   7.034   4.052   6.242  1.3460 -3.2544  2.4750
  748MOL0     H  919   6.967   3.949   6.446  2.1772  0.5739 -2.6349
  748MOL0     H  920   6.844   4.075   6.470  0.0189  0.1070 -0.5437
  748MOL0     H  921   6.764   4.034   6.242  0.1022 -1.1310 -0.1436
  748MOL0     H  922   6.840   3.882   6.227  0.4679  1.5012  0.1920
  748MOL0     H  923   6.637   3.953   6.441  1.3990 -0.5037  2.0295
  748MOL0     H  924   6.618   3.841   6.307  0.2461 -0.2703 -0.5654
  748MOL0     H  925   6.802   3.709   6.368  1.1401 -0.6551  0.6439
  748MOL0     H  926   6.826   3.807   6.526 -1.2660  0.7686  0.6800
  748MOL0     H  927   6.557   3.673   6.464 -1.3849 -0.4349  2.1838
  748MOL0     H  928   6.687   3.569   6.521  1.2993  0.6236  1.8161
  748MOL0     H  929   6.717   3.735   6.715 -1.4139  3.5542  1.6279
  748MOL0     H  930   6.568   3.631   6.714 -1.6295 -1.2040 -3.3868
  748MOL0     H  931   6.705   3.963   6.754 -0.3820 -0.9574 -1.3019
  748MOL0     H  932   6.625   4.234   6.717  2.1750 -1.9576  0.5177
  748MOL0     H  933   6.455   4.253   6.674 -0.6226  0.2515  0.6798
  748MOL0     H  934   6.490   4.340   6.905 -3.0372 -0.1030 -1.8463
  748MOL0     H  935   6.547   4.169   6.944  1.3050 -2.0347 -2.6551
  748MOL0     H  936   6.318   4.105   6.915 -1.8368 -0.8285  0.8767
  748MOL0     H  937   6.266   4.258   6.844  1.0952 -0.8173 -0.5896
  748MOL0     H  938   6.406   4.220   7.112  0.8187 -0.0084 -2.4986
  748MOL0     H  939   6.228   4.219   7.104  1.9799 -0.6149  2.8279
  748MOL0     H  940   6.073   4.290   6.984  1.2425 -0.2285  1.1477
  748MOL0     H  941   5.870   4.293   6.888  2.8184 -0.3564  1.2546
  748MOL0     H  942   5.784   4.329   7.047 -2.9492  1.5026 -0.4074
  748MOL0     H  943   5.750   4.428   6.911  2.1553  1.4276 -0.7046
  748MOL0     H  944   5.540   4.859   7.039  0.1841 -1.4145 -0.4397
  748MOL0     H  945   5.461   5.055   6.957 -0.8414 -0.6459 -1.8710
  748MOL0     H  946   5.633   5.389   7.043 -0.6094 -0.8853 -0.1489
  748MOL0     H  947   5.780   5.362   6.959 -0.3646  0.5697  3.1562
  748MOL0     H  948   5.637   5.472   6.758 -0.3116 -1.1109  1.8838
  748MOL0     H  949   5.563   5.552   6.905 -1.4541  1.3139 -1.9105
  748MOL0     H  950   5.792   5.597   6.974  0.9528 -0.6752  0.3915
  748MOL0     H  951   5.744   5.689   6.830 -1.8767  0.4745 -0.0089
  748MOL0     H  952   5.983   5.541   6.828  0.8122  1.9131 -2.7811
  748MOL0     H  953   5.874   5.421   6.783 -1.1068  0.7916  1.5676
  748MOL0     H  954   5.800   5.518   6.587 -0.7087 -2.2667  2.4853
  748MOL0     H  955   5.969   5.525   6.586 -3.3409 -0.6324 -2.4367
  748MOL0     H  956   5.768   5.747   6.639  0.5587 -1.3020  2.5356
  748MOL0     H  957   5.937   5.786   6.672 -3.2470  2.7710  2.3045
  748MOL0     H  958   5.822   5.683   6.419  1.8604 -0.8893 -1.5889
  748MOL0     H  959   6.000   5.715   6.452 -0.6808 -4.6560 -0.5871
  748MOL0     H  960   5.777   5.925   6.439  1.3907  2.0556  2.5586
  748MOL0     H  961   5.884   5.889   6.313  1.5328 -0.0044  0.0330
  748MOL0     H  962   5.876   5.192   6.884 -1.3439  0.7098 -0.8992
  748MOL0     H  963   5.940   4.959   6.951 -1.2116 -3.2233 -1.2787
  748MOL0     H  964   6.057   4.782   6.993 -0.9239  0.5517 -0.5137
  748MOL0     H  965   6.280   4.665   7.069  0.1087  3.8439 -1.6719
  748MOL0     H  966   7.210   4.349   6.536 -1.1842 -1.3668 -0.7268
  748MOL0     H  967   7.399   4.420   6.688 -0.4559 -0.5534 -0.1446
  748MOL0     H  968   7.571   4.126   7.189 -1.1759  0.8337 -1.4346
  748MOL0     H  969   7.762   4.136   7.326  0.5348  0.7326  0.9780
  748MOL0     H  970   8.112   4.377   7.187  0.7058 -3.0153  1.3666
  748MOL0     H  971   8.026   4.491   7.295 -1.7911 -0.5431  0.6806
  748MOL0     H  972   8.135   4.388   7.494 -0.5445 -0.5585 -1.0306
  748MOL0     H  973   8.254   4.441   7.374 -2.8922  2.1865 -2.7523
  748MOL0     H  974   8.302   4.211   7.304  0.7921 -0.7399  1.3810
  748MOL0     H  975   8.160   4.150   7.375 -1.1620  0.2743  1.0784
  748MOL0     H  976   8.332   4.082   7.539  1.0104  0.3614 -0.7585
  748MOL0     H  977   8.264   4.224   7.608 -2.0065 -2.7609 -0.6703
  748MOL0     H  978   8.658   4.333   7.489 -0.3069 -0.6775  0.7760
  748MOL0     H  979   7.921   4.453   7.077  0.3266  1.1567  2.2701
  748MOL0     H  980   7.737   4.433   6.928  2.0186 -0.6340  0.3960
  749MOL0     O  981   7.392   9.307   2.416 -0.1783 -0.1010  1.0370
  749MOL0     C  982   7.481   9.354   2.339 -0.4856  0.7698 -0.1075
  749MOL0     O  983   7.500   9.311   2.217  0.4265 -0.0688 -0.3082
  749MOL0     C  984   7.413   9.227   2.159  0.3191 -0.6349 -0.0630
  749MOL0     C  985   7.457   9.120   2.080  0.4144 -0.3793  0.4094
  749MOL0     C  986   7.372   9.021   2.027  0.3681 -0.1937  0.3875
  749MOL0     C  987   7.236   9.041   2.031  0.4985 -0.3032 -0.8463
  749MOL0     O  988   7.153   8.956   1.959 -0.0559 -0.0867 -0.1283
  749MOL0     C  989   7.012   8.979   1.942  0.6957 -0.2883  0.1181
  749MOL0     C  990   6.973   8.906   1.810  0.3628  0.0887  0.3139
  749MOL0     C  991   6.839   8.939   1.748 -0.4079 -0.0433  0.4332
  749MOL0     C  992   6.803   8.853   1.625 -0.1747  0.5351 -0.6154
  749MOL0     C  993   6.652   8.832   1.589  0.6784  0.2014  0.1602
  749MOL0     C  994   6.561   8.955   1.617 -0.0013 -0.1913  0.0785
  749MOL0     C  995   6.422   8.947   1.541  0.1110  0.0950 -0.3148
  749MOL0     C  996   6.331   9.059   1.597  0.5983  0.7576  1.1177
  749MOL0     N  997   6.193   9.060   1.550  0.2904 -0.2390  0.1008
  749MOL0     C  998   6.143   8.993   1.437 -0.4552  0.1198  0.4761
  749MOL0     C  999   6.012   9.000   1.453 -0.2466  0.3155 -0.4053
  749MOL0     C 1000   5.922   8.956   1.348  0.8687  0.1485  0.2168
  749MOL0     C 1001   5.831   9.070   1.296  0.8718  0.2109  0.2248
  749MOL0     C 1002   5.747   9.025   1.175  0.0870  0.8005 -0.2598
  749MOL0     C 1003   5.629   9.116   1.143  0.1365 -0.2591 -0.3739
  749MOL0     O 1004   5.669   9.251   1.139  0.2797  0.1133 -0.3271
  749MOL0     C 1005   5.578   9.349   1.173  0.8772 -0.6139 -0.2014
  749MOL0     C 1006   5.440   9.338   1.161 -0.3381 -1.3509  0.8409
  749MOL0     C 1007   5.361   9.439   1.212  0.1484  0.0293 -0.2992
  749MOL0     C 1008   5.215   9.436   1.189 -0.4093 -0.2724  0.9331
  749MOL0     C 1009   5.415   9.553   1.280  0.7170  0.1908  1.0239
  749MOL0     C 1010   5.337   9.658   1.354 -0.0875  0.5541  0.4140
  749MOL0     O 1011   5.373   9.794   1.333 -0.5947  0.2972  0.0702
  749MOL0     C 1012   5.325   9.879   1.426 -0.3876  0.3395  0.7138
  749MOL0     C 1013   5.422   9.916   1.523 -0.0828 -0.6346  0.5674
  749MOL0     C 1014   5.391  10.003   1.630  0.0601  0.3086  0.9408
  749MOL0     C 1015   5.254  10.034   1.650 -0.4820  0.3920  0.9076
  749MOL0     O 1016   5.199  10.104   1.755 -0.1685  0.0227 -0.3434
  749MOL0     C 1017   5.275  10.095   1.882  0.4564 -0.4673  0.2226
  749MOL0     C 1018   5.198  10.168   1.994  0.5156 -0.3234 -0.0204
  749MOL0     C 1019   5.271  10.201   2.133 -0.9459  0.1540  0.4591
  749MOL0     C 1020   5.339  10.081   2.211  0.3437 -1.6034  0.9322
  749MOL0     C 1021   5.401  10.130   2.342 -0.8382  0.0118 -0.4247
  749MOL0     C 1022   5.476  10.015   2.409  0.1686 -1.0805 -0.4603
  749MOL0     C 1023   5.520  10.052   2.551  0.5933 -0.6552  0.7817
  749MOL0     C 1024   5.555   9.926   2.635  0.1175  0.0784  0.3794
  749MOL0    Cl 1025   5.719   9.877   2.593  0.0290 -0.1957  0.3269
  749MOL0     C 1026   5.157   9.997   1.545 -0.4487 -1.0599 -0.4685
  749MOL0     C 1027   5.193   9.926   1.434 -0.3686  0.5609  0.5225
  749MOL0     O 1028   5.241   9.616   1.420  1.1694  0.7208  0.2861
  749MOL0     C 1029   5.553   9.569   1.281 -0.2750 -0.2801 -0.1501
  749MOL0     C 1030   5.633   9.467   1.225 -0.0266 -0.2495  0.2376
  749MOL0     N 1031   5.983   9.076   1.567 -0.2967 -0.2298 -0.1156
  749MOL0     N 1032   6.091   9.110   1.622  0.5257 -0.5483 -0.0655
  749MOL0     C 1033   7.189   9.157   2.102 -0.1726  0.5669  1.1651
  749MOL0     C 1034   7.277   9.252   2.164 -0.2928 -0.1399  0.1713
  749MOL0     C 1035   7.584   9.449   2.377  0.8876 -0.6686 -0.4476
  749MOL0     C 1036   7.699   9.478   2.302  0.1461  0.0681  0.0784
  749MOL0     C 1037   7.799   9.576   2.346  0.4650  0.2349 -0.3363
  749MOL0     C 1038   7.785   9.629   2.480  0.3494  0.4729 -0.0177
  749MOL0     O 1039   7.886   9.699   2.546  0.5773  0.6860 -0.0531
  749MOL0     C 1040   8.021   9.702   2.499  0.5926  0.3327  1.0327
  749MOL0     C 1041   8.105   9.576   2.547 -0.5462  0.3355 -0.3442
  749MOL0     C 1042   8.244   9.565   2.480  0.1967  0.0044 -0.3583
  749MOL0     C 1043   8.305   9.442   2.548 -0.0165  0.1560 -0.0555
  749MOL0     C 1044   8.433   9.407   2.489  0.9225  0.2217  0.3866
  749MOL0     C 1045   8.543   9.382   2.448 -0.0552 -0.4246  0.8731
  749MOL0     C 1046   7.668   9.600   2.549  0.0242  0.1022 -0.5874
  749MOL0     C 1047   7.573   9.516   2.502  1.0837 -1.2893 -0.0484
  749MOL0     H 1048   7.564   9.108   2.076  0.5346 -0.3002  2.5333
  749MOL0     H 1049   7.404   8.931   1.974 -1.0990 -1.4304  1.4944
  749MOL0     H 1050   6.959   8.939   2.030  0.1478  0.6748  0.2398
  749MOL0     H 1051   6.979   9.083   1.942 -0.5738 -0.5298  3.5924
  749MOL0     H 1052   7.039   8.944   1.731  0.7438  2.8541  1.8081
  749MOL0     H 1053   6.987   8.798   1.818 -0.1575  0.0335  0.4904
  749MOL0     H 1054   6.757   8.927   1.819 -1.0718  2.5938  0.2082
  749MOL0     H 1055   6.842   9.041   1.709 -0.7783 -0.5809 -1.0495
  749MOL0     H 1056   6.852   8.883   1.532 -1.0810 -0.0766 -1.3124
  749MOL0     H 1057   6.858   8.761   1.648  2.8659  2.9697  3.2976
  749MOL0     H 1058   6.655   8.812   1.482 -1.0127  1.5312 -0.1743
  749MOL0     H 1059   6.614   8.743   1.641  0.2124  0.4088  0.1822
  749MOL0     H 1060   6.532   8.962   1.722  0.0622  2.1630 -0.0216
  749MOL0     H 1061   6.615   9.042   1.580  1.0073 -2.4482 -4.6429
  749MOL0     H 1062   6.427   8.943   1.432  0.3270  1.3017 -0.3718
  749MOL0     H 1063   6.380   8.854   1.580  1.2439 -0.9354 -1.4586
  749MOL0     H 1064   6.380   9.156   1.580  3.3527 -0.6113  0.8515
  749MOL0     H 1065   6.326   9.053   1.706 -1.4808 -1.1724  0.9807
  749MOL0     H 1066   6.197   8.942   1.358  0.8407  1.6492  0.3189
  749MOL0     H 1067   5.968   8.902   1.264  0.7663 -0.9834  0.8815
  749MOL0     H 1068   5.855   8.880   1.388  0.0504 -0.8164 -2.7078
  749MOL0     H 1069   5.897   9.154   1.269  3.7929 -1.4067  1.8756
  749MOL0     H 1070   5.763   9.095   1.378 -1.4279  0.6614 -1.7183
  749MOL0     H 1071   5.714   8.924   1.202 -0.4583  1.3520  1.2938
  749MOL0     H 1072   5.807   9.018   1.084  0.2617  0.7427 -0.1400
  749MOL0     H 1073   5.552   9.087   1.215 -0.3653  1.4756 -0.1606
  749MOL0     H 1074   5.586   9.102   1.043  0.5218  1.9647 -0.9217
  749MOL0     H 1075   5.409   9.248   1.111 -1.7873  0.2304 -1.2702
  749MOL0     H 1076   5.184   9.540   1.176  1.2555  0.1339  0.0702
  749MOL0     H 1077   5.181   9.372   1.107 -1.3200 -1.1445  1.9440
  749MOL0     H 1078   5.160   9.409   1.280  1.8593 -1.4142  2.0486
  749MOL0     H 1079   5.523   9.880   1.504 -1.5586 -3.2927 -3.9985
  749MOL0     H 1080   5.464  10.035   1.704 -2.2969 -0.9245  4.0016
  749MOL0     H 1081   5.275   9.991   1.913  0.2086 -0.6145 -0.2572
  749MOL0     H 1082   5.374  10.139   1.869 -0.5281  1.3727 -1.6365
  749MOL0     H 1083   5.166  10.264   1.953 -2.0458 -1.3673 -0.6573
  749MOL0     H 1084   5.110  10.107   2.016 -2.4810  2.0602 -4.0584
  749MOL0     H 1085   5.190  10.236   2.198  0.3363  1.4284  1.4207
  749MOL0     H 1086   5.337  10.288   2.127 -0.4792 -0.0363  2.2689
  749MOL0     H 1087   5.260  10.011   2.240 -0.1625 -1.7902 -0.8013
  749MOL0     H 1088   5.412  10.032   2.147 -0.7819 -0.9519 -0.9238
  749MOL0     H 1089   5.327  10.168   2.412 -2.6450 -0.0458 -2.2283
  749MOL0     H 1090   5.468  10.215   2.328 -1.4196  0.4101 -0.8150
  749MOL0     H 1091   5.400   9.937   2.417 -0.0436 -0.9269 -0.9219
  749MOL0     H 1092   5.565   9.990   2.350  1.2894  0.2344  0.6178
  749MOL0     H 1093   5.440  10.106   2.604  0.0384 -0.9077  0.2074
  749MOL0     H 1094   5.605  10.119   2.534  0.5410 -0.1764  2.2264
  749MOL0     H 1095   5.490   9.840   2.620 -2.7033  2.2051 -0.3726
  749MOL0     H 1096   5.568   9.956   2.740 -0.4645  1.9401 -0.0343
  749MOL0     H 1097   5.055  10.034   1.546 -0.3545 -0.6593  2.3879
  749MOL0     H 1098   5.134   9.906   1.345  0.8653 -0.2255 -0.1447
  749MOL0     H 1099   5.601   9.658   1.320  0.5561 -1.2446  1.1068
  749MOL0     H 1100   5.741   9.465   1.239 -0.0021  0.0159  0.0994
  749MOL0     H 1101   7.083   9.182   2.107  0.1097  2.0642  0.2773
  749MOL0     H 1102   7.246   9.340   2.219  2.3711  0.3357  1.0748
  749MOL0     H 1103   7.697   9.429   2.205 -1.6801  0.6016 -0.1910
  749MOL0     H 1104   7.880   9.589   2.276 -0.3922  1.9248 -1.0612
  749MOL0     H 1105   8.023   9.714   2.390  1.8348  0.6102  1.0692
  749MOL0     H 1106   8.071   9.795   2.527  3.5835 -0.8107  0.0016
  749MOL0     H 1107   8.046   9.488   2.520  0.9929 -0.2905 -1.8494
  749MOL0     H 1108   8.116   9.580   2.655 -3.0132  0.7286 -0.0426
  749MOL0     H 1109   8.304   9.648   2.518  0.9806 -1.0530  0.7865
  749MOL0     H 1110   8.253   9.560   2.371  0.6687  1.3166 -0.3961
  749MOL0     H 1111   8.238   9.355   2.549  0.4361 -0.2058 -0.9374
  749MOL0     H 1112   8.327   9.461   2.654 -1.5001 -1.7973  0.6695
  749MOL0     H 1113   8.644   9.384   2.412 -1.2952  0.0204 -3.1370
  749MOL0     H 1114   7.656   9.628   2.653  2.2483 -2.7681  0.5824
  749MOL0     H 1115   7.481   9.489   2.554 -1.4074  2.7009 -1.8701
  750MOL0     O 1116   5.354  10.999   6.878  0.3391  0.0795  0.2926
  750MOL0     C 1117   5.303  10.959   6.775 -1.1520  0.1318 -1.5002
  750MOL0     O 1118   5.262  11.046   6.677 -0.7085 -0.5863 -0.0231
  750MOL0     C 1119   5.285  11.176   6.690 -0.2143  0.4916 -0.0609
  750MOL0     C 1120   5.411  11.228   6.645  0.3153  0.5352 -0.1962
  750MOL0     C 1121   5.435  11.365   6.657  0.3728 -1.1540 -0.0082
  750MOL0     C 1122   5.348  11.448   6.732  0.1320 -0.3727 -0.2618
  750MOL0     O 1123   5.407  11.573   6.735  0.6361  0.6597 -0.1152
  750MOL0     C 1124   5.363  11.674   6.824  0.3553  0.8729  0.5412
  750MOL0     C 1125   5.421  11.808   6.777 -0.6348  0.8971  0.2311
  750MOL0     C 1126   5.383  11.915   6.865 -0.1485 -0.0827  0.1414
  750MOL0     C 1127   5.510  11.980   6.933  0.0730  0.3565  0.3875
  750MOL0     C 1128   5.489  12.110   7.002  0.6333 -0.0609  0.3158
  750MOL0     C 1129   5.506  12.237   6.910 -0.8933 -0.0506 -0.7170
  750MOL0     C 1130   5.512  12.366   6.992 -0.8260  0.3628  0.3903
  750MOL0     C 1131   5.391  12.399   7.059 -0.5646  0.9517 -0.2803
  750MOL0     N 1132   5.391  12.544   7.093 -0.2691 -0.0515  0.3262
  750MOL0     C 1133   5.335  12.647   7.011 -0.4456  0.1074  0.3085
  750MOL0     C 1134   5.315  12.743   7.105  0.2289  0.0966  0.5948
  750MOL0     C 1135   5.275  12.883   7.070 -0.2938  0.1016 -0.0672
  750MOL0     C 1136   5.160  12.874   6.977  0.1971 -0.2628  1.6181
  750MOL0     C 1137   5.072  12.998   6.945 -0.9438 -0.2320 -1.2648
  750MOL0     C 1138   4.951  12.963   6.853  0.7597  0.3538  0.1397
  750MOL0     O 1139   4.873  12.869   6.903  0.1868 -0.0178  0.0662
  750MOL0     C 1140   4.759  12.829   6.829 -0.7219 -0.6415 -0.0171
  750MOL0     C 1141   4.743  12.816   6.693  0.2752  0.9661  0.7763
  750MOL0     C 1142   4.627  12.761   6.639 -0.3602 -1.0263  0.9225
  750MOL0     C 1143   4.646  12.767   6.489 -0.7809  0.3063  0.6672
  750MOL0     C 1144   4.523  12.711   6.718  0.0098  0.1483  0.5173
  750MOL0     C 1145   4.396  12.654   6.665  0.3812  0.0520  0.3826
  750MOL0     O 1146   4.373  12.641   6.532 -0.0264  0.4369  0.6774
  750MOL0     C 1147   4.264  12.594   6.474 -0.6705  0.0091 -0.4957
  750MOL0     C 1148   4.183  12.498   6.530  1.6659  0.1107 -1.6676
  750MOL0     C 1149   4.074  12.441   6.461 -0.0400  0.2562 -0.2392
  750MOL0     C 1150   4.019  12.498   6.343 -0.7616 -0.5011 -0.7798
  750MOL0     O 1151   3.909  12.449   6.284  0.3105 -0.3011  0.3062
  750MOL0     C 1152   3.815  12.563   6.260 -0.4465  0.5100  0.0399
  750MOL0     C 1153   3.685  12.506   6.211  0.4124 -0.0213 -0.1368
  750MOL0     C 1154   3.677  12.455   6.061  0.1782 -0.4313  0.3710
  750MOL0     C 1155   3.542  12.377   6.050  0.1747  0.0738  0.0948
  750MOL0     C 1156   3.519  12.366   5.906  0.0175  1.1665  0.9560
  750MOL0     C 1157   3.395  12.279   5.870  1.0891 -0.6528  0.4967
  750MOL0     C 1158   3.364  12.289   5.717  0.2081  0.0101  0.3820
  750MOL0     C 1159   3.228  12.233   5.673 -0.2526 -0.3122  0.2990
  750MOL0    Cl 1160   3.204  12.228   5.498  0.5511  0.2000  0.0011
  750MOL0     C 1161   4.103  12.599   6.284 -0.2375 -0.2533 -0.6977
  750MOL0     C 1162   4.218  12.638   6.347 -0.3918 -0.2358  0.2412
  750MOL0     O 1163   4.300  12.650   6.743  0.7333  0.1285 -0.4408
  750MOL0     C 1164   4.536  12.713   6.862 -0.6286 -0.7486  0.4027
  750MOL0     C 1165   4.659  12.770   6.917  0.0829  0.0440 -0.1306
  750MOL0     N 1166   5.352  12.701   7.230 -1.1522  0.4113  0.7751
  750MOL0     N 1167   5.403  12.586   7.219  0.5730  0.2833 -0.2437
  750MOL0     C 1168   5.235  11.396   6.778  0.3849  0.7224 -0.1639
  750MOL0     C 1169   5.197  11.262   6.762  0.1150  0.2705 -0.2294
  750MOL0     C 1170   5.268  10.815   6.763  0.3605  1.3143 -0.4567
  750MOL0     C 1171   5.215  10.758   6.645  0.6852 -0.0013 -0.9032
  750MOL0     C 1172   5.197  10.623   6.644 -0.0538 -0.3239 -1.2929
  750MOL0     C 1173   5.222  10.540   6.758 -0.1706  1.0246  0.4912
  750MOL0     O 1174   5.204  10.408   6.733  0.0692 -0.1543  0.2804
  750MOL0     C 1175   5.244  10.306   6.818 -0.2335  0.2519 -0.7105
  750MOL0     C 1176   5.389  10.256   6.778  0.9875 -0.8102  0.1098
  750MOL0     C 1177   5.392  10.213   6.628 -0.0501 -0.3302 -0.6423
  750MOL0     C 1178   5.532  10.223   6.592 -0.4497  0.3156  0.6792
  750MOL0     C 1179   5.572  10.364   6.566 -0.5122 -0.1096 -0.9210
  750MOL0     C 1180   5.611  10.478   6.551 -1.2629  0.2397 -0.4712
  750MOL0     C 1181   5.272  10.590   6.873 -0.6746 -0.4532 -0.2583
  750MOL0     C 1182   5.308  10.727   6.876 -0.0324  0.7996  0.5331
  750MOL0     H 1183   5.482  11.160   6.600 -1.6475 -1.5457 -0.3601
  750MOL0     H 1184   5.529  11.398   6.614 -0.2496  0.1794 -0.4053
  750MOL0     H 1185   5.254  11.673   6.816  0.4615  0.4852 -1.0293
  750MOL0     H 1186   5.392  11.651   6.927 -1.3118 -0.2281  0.7862
  750MOL0     H 1187   5.530  11.801   6.766 -0.8192  1.8071 -2.9574
  750MOL0     H 1188   5.378  11.817   6.677 -2.0997 -0.1779  0.7257
  750MOL0     H 1189   5.337  11.999   6.811  0.3835 -0.6340 -1.2007
  750MOL0     H 1190   5.308  11.890   6.941 -0.9865  0.3749 -0.5092
  750MOL0     H 1191   5.550  11.907   7.004 -0.2885  0.6225  0.8787
  750MOL0     H 1192   5.588  11.988   6.857 -0.9938 -0.2360 -0.8072
  750MOL0     H 1193   5.399  12.127   7.061 -0.0629 -0.0759 -0.7117
  750MOL0     H 1194   5.558  12.127   7.085 -0.8204  3.1458  1.0490
  750MOL0     H 1195   5.601  12.228   6.856 -1.0522 -1.6316 -0.7786
  750MOL0     H 1196   5.426  12.245   6.836 -0.2710  1.0751 -1.2934
  750MOL0     H 1197   5.598  12.370   7.060 -1.1201 -0.2383  0.8103
  750MOL0     H 1198   5.531  12.439   6.912  0.4321 -0.4357 -0.0676
  750MOL0     H 1199   5.393  12.340   7.151  0.2343  1.7166  0.1985
  750MOL0     H 1200   5.298  12.367   7.010  0.3025 -6.0104  1.6003
  750MOL0     H 1201   5.330  12.665   6.904 -1.9453  1.0411  0.5014
  750MOL0     H 1202   5.233  12.928   7.160 -0.0876 -0.1273  0.1455
  750MOL0     H 1203   5.369  12.926   7.033 -0.3455 -1.5121 -2.3143
  750MOL0     H 1204   5.103  12.784   7.001 -2.5268  1.0223  0.4047
  750MOL0     H 1205   5.213  12.852   6.884 -0.1618  1.1632  1.0553
  750MOL0     H 1206   5.132  13.066   6.884 -0.2587 -0.1450 -0.5074
  750MOL0     H 1207   5.034  13.042   7.038 -1.6597  0.3550 -1.8179
  750MOL0     H 1208   4.999  12.922   6.764  1.2083  0.9925  0.0750
  750MOL0     H 1209   4.886  13.050   6.838  0.4691  0.2860  0.9514
  750MOL0     H 1210   4.824  12.857   6.634 -1.7936  2.4662 -1.1935
  750MOL0     H 1211   4.674  12.670   6.447 -0.8078  1.5169 -2.4163
  750MOL0     H 1212   4.545  12.789   6.454 -1.3665  0.5603  2.4415
  750MOL0     H 1213   4.716  12.843   6.453 -0.8298  1.1899  2.3095
  750MOL0     H 1214   4.205  12.461   6.630 -2.6524 -2.2968 -1.3655
  750MOL0     H 1215   4.014  12.360   6.500 -2.7806  1.5443 -1.5347
  750MOL0     H 1216   3.803  12.618   6.354  0.6358  1.5256 -0.4021
  750MOL0     H 1217   3.853  12.634   6.186  0.0172 -0.4054 -0.6093
  750MOL0     H 1218   3.668  12.420   6.277  0.8018 -0.5071 -0.6589
  750MOL0     H 1219   3.612  12.587   6.218  0.1536  0.4400 -4.6668
  750MOL0     H 1220   3.755  12.382   6.041  0.3285 -0.4577  1.0174
  750MOL0     H 1221   3.680  12.530   5.981  0.5259 -1.6461 -0.7799
  750MOL0     H 1222   3.556  12.276   6.089 -0.2969 -0.0338 -0.0109
  750MOL0     H 1223   3.461  12.413   6.113  0.0422 -2.5591  1.5782
  750MOL0     H 1224   3.611  12.331   5.859 -0.9147 -2.5802  1.6136
  750MOL0     H 1225   3.509  12.462   5.854 -0.9783 -0.0698 -1.2814
  750MOL0     H 1226   3.414  12.172   5.886  3.8518 -0.0774  1.7010
  750MOL0     H 1227   3.311  12.310   5.933  2.0283  2.7065  0.2873
  750MOL0     H 1228   3.437  12.226   5.666  0.9933  0.7729  0.5484
  750MOL0     H 1229   3.372  12.395   5.691 -0.8805 -0.3850 -1.8982
  750MOL0     H 1230   3.149  12.297   5.714 -2.4155  0.1659 -4.0404
  750MOL0     H 1231   3.211  12.132   5.711  0.7084 -1.2185 -1.5309
  750MOL0     H 1232   4.082  12.637   6.184 -2.3789 -1.0066 -0.5883
  750MOL0     H 1233   4.281  12.716   6.305 -1.0454  0.7841  1.0859
  750MOL0     H 1234   4.463  12.672   6.932 -0.7359 -1.9573 -0.3888
  750MOL0     H 1235   4.671  12.781   7.024  2.1311 -0.5580 -0.2564
  750MOL0     H 1236   5.176  11.469   6.833 -5.1235 -2.6652 -0.8498
  750MOL0     H 1237   5.103  11.221   6.798  1.6472 -4.0807 -0.6086
  750MOL0     H 1238   5.171  10.814   6.563 -0.8267  0.8071  0.4063
  750MOL0     H 1239   5.169  10.585   6.547 -1.3304  0.9169 -1.4407
  750MOL0     H 1240   5.234  10.330   6.925 -0.2363 -0.5876 -0.5170
  750MOL0     H 1241   5.171  10.224   6.817 -0.2030  0.1810  0.7258
  750MOL0     H 1242   5.410  10.170   6.843  1.1423  1.3498  3.1460
  750MOL0     H 1243   5.455  10.341   6.797 -0.2100 -0.2316  1.9973
  750MOL0     H 1244   5.326  10.282   6.575  2.0906  0.3757 -2.5190
  750MOL0     H 1245   5.363  10.108   6.616 -3.0522  0.3756 -0.2683
  750MOL0     H 1246   5.551  10.158   6.505 -2.3696 -0.6177  0.9148
  750MOL0     H 1247   5.602  10.172   6.659 -0.4605 -1.0972 -0.3205
  750MOL0     H 1248   5.649  10.576   6.533 -3.5651  1.1296 -0.7368
  750MOL0     H 1249   5.295  10.524   6.956  0.5620  0.0900 -0.1470
  750MOL0     H 1250   5.366  10.778   6.952  1.6646  2.3609 -1.6493
  751MOL0     O 1251   7.942   1.410   6.552  0.0725 -0.1648 -0.2428
  751MOL0     C 1252   7.843   1.490   6.558  0.2739  0.3208  0.1831
  751MOL0     O 1253   7.710   1.456   6.595 -0.7616  0.0194 -0.7006
  751MOL0     C 1254   7.687   1.343   6.667 -0.1687  0.1961  0.7080
  751MOL0     C 1255   7.626   1.343   6.792  0.3692 -0.2797 -0.4722
  751MOL0     C 1256   7.604   1.222   6.856  0.4950 -0.2300  0.1662
  751MOL0     C 1257   7.640   1.100   6.802  0.0216  0.0424  0.3920
  751MOL0     O 1258   7.632   0.978   6.867 -0.3278  0.4299  0.0103
  751MOL0     C 1259   7.505   0.922   6.849 -0.3607  0.0328  0.4738
  751MOL0     C 1260   7.521   0.770   6.864  0.1000 -0.3273 -0.3131
  751MOL0     C 1261   7.551   0.715   6.724 -0.4743 -0.0514  0.3618
  751MOL0     C 1262   7.696   0.670   6.707 -0.2699  0.3701 -0.3465
  751MOL0     C 1263   7.726   0.575   6.592 -0.0913 -0.8562  1.0108
  751MOL0     C 1264   7.873   0.539   6.565  0.8393 -0.4936 -0.3818
  751MOL0     C 1265   7.970   0.659   6.542 -0.6615 -0.7425  0.7529
  751MOL0     C 1266   8.115   0.621   6.512  0.2632  1.6132  1.4077
  751MOL0     N 1267   8.194   0.621   6.636 -0.8957  0.1956 -0.5692
  751MOL0     C 1268   8.275   0.723   6.684 -0.8091 -0.5727 -0.2257
  751MOL0     C 1269   8.310   0.679   6.808  0.8265  0.2863  1.3377
  751MOL0     C 1270   8.391   0.758   6.901 -0.7142 -0.4345  0.2035
  751MOL0     C 1271   8.544   0.731   6.866 -0.1205  0.5572 -0.7409
  751MOL0     C 1272   8.597   0.806   6.740  0.5677 -0.2125  0.0039
  751MOL0     C 1273   8.729   0.761   6.692 -0.5605  0.7069  0.2512
  751MOL0     O 1274   8.783   0.837   6.583  0.1469 -0.3776  0.4241
  751MOL0     C 1275   8.910   0.793   6.543  0.6054 -0.1556 -0.5954
  751MOL0     C 1276   8.907   0.714   6.425  0.4797  0.0282  0.2286
  751MOL0     C 1277   9.030   0.681   6.359 -0.3716  0.3544  0.6196
  751MOL0     C 1278   9.021   0.609   6.224  0.5949 -0.0255  0.1680
  751MOL0     C 1279   9.158   0.716   6.423 -0.1018 -0.7020  0.9534
  751MOL0     C 1280   9.290   0.683   6.365  0.3187  0.7326 -0.7305
  751MOL0     O 1281   9.391   0.767   6.404 -0.2779 -0.0428 -0.0900
  751MOL0     C 1282   9.519   0.760   6.361  0.0521 -0.2905  0.7191
  751MOL0     C 1283   9.563   0.760   6.228  0.0573  0.4867  1.2696
  751MOL0     C 1284   9.699   0.766   6.195 -0.9181 -0.0284  0.2186
  751MOL0     C 1285   9.790   0.779   6.293 -0.6105  0.0792 -0.0357
  751MOL0     O 1286   9.923   0.807   6.267 -0.1641  0.1414 -0.2892
  751MOL0     C 1287   9.990   0.727   6.163 -0.0066 -0.8219 -0.6716
  751MOL0     C 1288  10.136   0.692   6.208  0.8119  0.4900 -0.1215
  751MOL0     C 1289  10.132   0.593   6.328 -0.9282  0.5875  0.0935
  751MOL0     C 1290  10.109   0.447   6.291  0.1330 -0.6173  0.0731
  751MOL0     C 1291  10.228   0.383   6.221  0.5738 -0.9098 -0.6665
  751MOL0     C 1292  10.212   0.229   6.228 -0.2654  0.2289  0.7174
  751MOL0     C 1293  10.098   0.176   6.132 -0.3470 -0.2079 -0.2084
  751MOL0     C 1294  10.104   0.216   5.984 -0.2632 -0.5272  0.5366
  751MOL0    Cl 1295  10.263   0.164   5.915  0.2808  0.1679 -0.4211
  751MOL0     C 1296   9.743   0.774   6.428 -0.4576 -0.3887  0.4421
  751MOL0     C 1297   9.614   0.756   6.465 -0.2392 -0.0379  0.8356
  751MOL0     O 1298   9.302   0.583   6.297 -0.0218  0.4381  0.3442
  751MOL0     C 1299   9.148   0.808   6.525 -0.7427  0.4308 -0.4070
  751MOL0     C 1300   9.033   0.851   6.586  0.1315  0.0613  0.7324
  751MOL0     N 1301   8.249   0.553   6.824  0.0711 -0.8587  0.1134
  751MOL0     N 1302   8.191   0.521   6.719  0.3274  0.6653  0.0426
  751MOL0     C 1303   7.702   1.104   6.675 -0.4622 -0.7379  0.3620
  751MOL0     C 1304   7.728   1.218   6.610 -0.7571 -0.1668  0.0346
  751MOL0     C 1305   7.885   1.636   6.539  0.1678 -0.1238 -0.2367
  751MOL0     C 1306   8.026   1.666   6.524 -0.1711 -1.1737  0.3424
  751MOL0     C 1307   8.062   1.801   6.507  0.3476 -1.1511 -0.9479
  751MOL0     C 1308   7.958   1.901   6.486  0.3312 -0.3536  0.2759
  751MOL0     O 1309   8.008   2.020   6.460  0.2105 -0.2186  0.0289
  751MOL0     C 1310   7.925   2.136   6.481 -0.0097  0.1751  0.4973
  751MOL0     C 1311   7.859   2.163   6.619  0.0294  0.3568 -0.3832
  751MOL0     C 1312   7.949   2.139   6.748  0.0050 -0.0521  0.6776
  751MOL0     C 1313   7.901   2.221   6.868 -0.3948  1.6328  0.7044
  751MOL0     C 1314   7.965   2.152   6.984 -0.4416 -0.8307 -0.0895
  751MOL0     C 1315   8.016   2.102   7.079 -0.0912  0.0009 -0.4028
  751MOL0     C 1316   7.827   1.866   6.499  0.1204 -0.3705 -0.2098
  751MOL0     C 1317   7.796   1.735   6.512 -0.6179  0.1176  0.2764
  751MOL0     H 1318   7.596   1.439   6.835 -0.6252 -1.4482  1.5684
  751MOL0     H 1319   7.548   1.237   6.947  0.7731 -0.9382  0.4629
  751MOL0     H 1320   7.437   0.963   6.925 -1.2386  1.7545 -1.1466
  751MOL0     H 1321   7.460   0.939   6.751  1.7567 -1.4787 -0.8391
  751MOL0     H 1322   7.594   0.758   6.944 -0.1360  1.2207  0.1702
  751MOL0     H 1323   7.425   0.733   6.900 -1.9081  2.9393 -1.8652
  751MOL0     H 1324   7.482   0.633   6.702 -1.6914  0.9856  0.1657
  751MOL0     H 1325   7.529   0.789   6.646  2.1620 -0.9889 -1.4136
  751MOL0     H 1326   7.752   0.761   6.686 -0.5943 -0.2330 -4.7011
  751MOL0     H 1327   7.709   0.620   6.804 -2.7450 -0.2482 -0.2589
  751MOL0     H 1328   7.671   0.484   6.617 -0.9661 -0.8283 -0.7039
  751MOL0     H 1329   7.686   0.622   6.502 -3.1170 -0.8463  2.2633
  751MOL0     H 1330   7.921   0.483   6.645  1.4492 -0.4944 -0.7432
  751MOL0     H 1331   7.864   0.466   6.484 -3.2832  0.8445 -1.3537
  751MOL0     H 1332   7.944   0.709   6.449  2.8836  1.4280  0.7339
  751MOL0     H 1333   7.966   0.731   6.625 -1.1695  1.5480 -1.1610
  751MOL0     H 1334   8.156   0.701   6.448 -0.5422  1.3094  0.4857
  751MOL0     H 1335   8.113   0.519   6.472 -0.2318  1.5257  1.6449
  751MOL0     H 1336   8.313   0.812   6.635 -0.8401 -0.3533  0.1471
  751MOL0     H 1337   8.361   0.862   6.888  0.4042 -0.1653 -0.2543
  751MOL0     H 1338   8.369   0.723   7.003  0.2128 -2.1297 -0.1493
  751MOL0     H 1339   8.551   0.623   6.851 -1.6859  0.5842 -1.8508
  751MOL0     H 1340   8.608   0.756   6.952 -2.9554  0.7815  1.4420
  751MOL0     H 1341   8.602   0.913   6.762 -2.5912 -0.1747  1.0335
  751MOL0     H 1342   8.523   0.801   6.659 -1.2727 -0.0423  1.5960
  751MOL0     H 1343   8.730   0.658   6.655  1.1444  0.2833  1.3483
  751MOL0     H 1344   8.803   0.752   6.772  1.9214  2.5915 -1.6464
  751MOL0     H 1345   8.818   0.677   6.377  0.8562 -0.9062  0.2336
  751MOL0     H 1346   9.009   0.501   6.228 -0.7275  0.0199 -1.4298
  751MOL0     H 1347   8.927   0.646   6.181 -0.7341 -2.0762  1.1737
  751MOL0     H 1348   9.101   0.640   6.156  0.3198 -0.5709 -0.4130
  751MOL0     H 1349   9.496   0.748   6.143 -0.2729  0.5775  1.5179
  751MOL0     H 1350   9.718   0.761   6.088  0.0338  2.4974  0.1972
  751MOL0     H 1351   9.942   0.631   6.139 -1.0378 -0.6687  0.6158
  751MOL0     H 1352   9.996   0.781   6.069 -0.6931 -2.4252 -1.6777
  751MOL0     H 1353  10.183   0.650   6.118  2.4625  0.3553  0.7488
  751MOL0     H 1354  10.189   0.783   6.237 -2.1452  1.9699  0.9525
  751MOL0     H 1355  10.060   0.622   6.405 -0.7938  2.0659 -0.2896
  751MOL0     H 1356  10.229   0.596   6.380 -0.8589  1.7066 -0.0621
  751MOL0     H 1357  10.095   0.397   6.387 -3.5426 -0.4827 -0.2806
  751MOL0     H 1358  10.022   0.438   6.225 -0.6131 -1.2029  1.1104
  751MOL0     H 1359  10.317   0.426   6.268 -1.4782  1.8532  1.0235
  751MOL0     H 1360  10.221   0.410   6.115 -3.1445  0.9049 -0.1264
  751MOL0     H 1361  10.306   0.189   6.189 -0.5976  0.5342 -0.4194
  751MOL0     H 1362  10.182   0.181   6.322  0.0971 -4.6306 -1.3100
  751MOL0     H 1363  10.003   0.217   6.168  0.6684  4.3353 -1.9879
  751MOL0     H 1364  10.102   0.066   6.133 -3.2986 -0.4154 -0.1739
  751MOL0     H 1365  10.086   0.324   5.979 -0.5363 -0.4368  2.7164
  751MOL0     H 1366  10.025   0.165   5.928  1.7724 -1.2608 -1.8565
  751MOL0     H 1367   9.822   0.794   6.500 -0.2629  0.9511 -0.1016
  751MOL0     H 1368   9.602   0.751   6.572  2.2259  0.7877  1.2211
  751MOL0     H 1369   9.245   0.835   6.567 -0.1948 -3.8548  1.5672
  751MOL0     H 1370   9.035   0.933   6.658 -0.5424  0.5056  0.2630
  751MOL0     H 1371   7.745   1.014   6.633  1.3337  0.6128 -0.8552
  751MOL0     H 1372   7.769   1.208   6.510  2.1974 -1.7335  1.2876
  751MOL0     H 1373   8.107   1.594   6.525  0.3183 -0.7332 -1.6716
  751MOL0     H 1374   8.166   1.831   6.504  0.1508 -0.2716  0.4823
  751MOL0     H 1375   7.997   2.217   6.468  0.8531 -0.6899 -0.2853
  751MOL0     H 1376   7.849   2.144   6.402  0.2752 -2.3285 -0.1389
  751MOL0     H 1377   7.778   2.094   6.641 -1.1017  1.6413 -0.4011
  751MOL0     H 1378   7.822   2.265   6.611 -0.1025  0.4899  1.4645
  751MOL0     H 1379   8.048   2.180   6.730  0.5126  0.1738  3.5348
  751MOL0     H 1380   7.961   2.034   6.776 -1.2331 -0.2109  0.6825
  751MOL0     H 1381   7.794   2.208   6.887 -0.0417 -0.8745  1.2971
  751MOL0     H 1382   7.928   2.327   6.856  0.7744  1.2062 -0.7694
  751MOL0     H 1383   8.056   2.054   7.166  1.2358  1.1302 -0.3549
  751MOL0     H 1384   7.744   1.935   6.488  0.3210 -0.2484 -0.9905
  751MOL0     H 1385   7.690   1.717   6.520 -0.9631  2.3088  1.4524
  752MOL0     O 1386   3.174   0.019  10.657 -0.5598  0.5268 -0.4321
  752MOL0     C 1387   3.287  -0.026  10.634  0.1229 -0.1770 -0.4311
  752MOL0     O 1388   3.371  -0.084  10.727  0.4000  0.7192  0.6485
  752MOL0     C 1389   3.356  -0.069  10.861 -0.4845 -0.0613 -0.2789
  752MOL0     C 1390   3.449  -0.139  10.941 -0.4378 -1.1443 -0.0245
  752MOL0     C 1391   3.438  -0.131  11.078  0.4537  0.6686 -0.0233
  752MOL0     C 1392   3.345  -0.054  11.148 -0.7589  0.8957  0.8643
  752MOL0     O 1393   3.353  -0.070  11.286  0.2512 -0.7257  0.5234
  752MOL0     C 1394   3.320   0.054  11.353 -0.5203  0.9609 -0.2387
  752MOL0     C 1395   3.353   0.042  11.491 -0.1647 -0.4160  0.6571
  752MOL0     C 1396   3.267  -0.064  11.555 -0.1027 -0.4794 -0.4689
  752MOL0     C 1397   3.314  -0.077  11.695  0.2218  0.6669 -0.3542
  752MOL0     C 1398   3.204  -0.146  11.782  0.0184 -0.6240 -1.6203
  752MOL0     C 1399   3.261  -0.146  11.924 -0.1086 -0.1359  0.5517
  752MOL0     C 1400   3.140  -0.201  12.010 -0.0192 -0.0222  0.1051
  752MOL0     C 1401   3.176  -0.206  12.167 -0.1673 -0.2615  0.5987
  752MOL0     N 1402   3.179  -0.070  12.215 -0.6934 -0.3320 -0.0239
  752MOL0     C 1403   3.267  -0.029  12.307 -0.1705  0.9011 -1.1452
  752MOL0     C 1404   3.225   0.092  12.351  0.7819 -1.1629  0.2316
  752MOL0     C 1405   3.281   0.189  12.454 -0.4649 -0.4032  0.1920
  752MOL0     C 1406   3.225   0.168  12.590 -0.1865 -0.2287 -0.8372
  752MOL0     C 1407   3.074   0.207  12.593 -0.1205 -0.7045 -0.7823
  752MOL0     C 1408   3.008   0.161  12.730 -0.1635 -0.0907  1.0184
  752MOL0     O 1409   3.025   0.258  12.838  0.3765 -0.0002  0.6607
  752MOL0     C 1410   2.946   0.237  12.950 -0.4737 -0.2807 -0.2721
  752MOL0     C 1411   2.941   0.120  13.015 -0.2189 -0.2040 -0.6552
  752MOL0     C 1412   2.857   0.098  13.119  0.6287  0.1430  0.0998
  752MOL0     C 1413   2.854  -0.031  13.193 -0.6152 -0.0717  0.1742
  752MOL0     C 1414   2.766   0.204  13.159 -0.8902 -0.2851  0.8240
  752MOL0     C 1415   2.669   0.199  13.255 -0.5483 -0.0518  0.1778
  752MOL0     O 1416   2.585   0.083  13.272 -0.2809 -0.1307 -0.0353
  752MOL0     C 1417   2.470   0.086  13.351  0.4632 -0.7020  0.1230
  752MOL0     C 1418   2.372  -0.016  13.318 -0.9429 -0.5500  0.1945
  752MOL0     C 1419   2.257  -0.039  13.393 -0.3725 -0.7355  0.5079
  752MOL0     C 1420   2.230   0.046  13.498 -0.3304 -0.4047 -0.0508
  752MOL0     O 1421   2.100   0.025  13.545  0.4273 -0.3979  0.7297
  752MOL0     C 1422   2.056   0.110  13.654 -0.7224 -0.4294 -0.3362
  752MOL0     C 1423   1.939   0.033  13.717 -0.3218 -0.3045 -0.2327
  752MOL0     C 1424   1.999  -0.097  13.778  0.2340  0.5190  0.2742
  752MOL0     C 1425   2.064  -0.077  13.916 -0.5004  0.1839 -0.3861
  752MOL0     C 1426   1.967  -0.061  14.034 -0.0423  0.1252 -0.7721
  752MOL0     C 1427   1.982   0.083  14.093 -0.2822  0.1316 -0.3600
  752MOL0     C 1428   1.892   0.098  14.214  0.2373 -0.0618  0.8118
  752MOL0     C 1429   1.881  -0.004  14.314 -0.1898  1.4039 -0.3181
  752MOL0    Cl 1430   2.037  -0.071  14.371 -0.0436 -0.4048 -0.1210
  752MOL0     C 1431   2.315   0.153  13.524 -0.5010  0.2183  0.0227
  752MOL0     C 1432   2.427   0.180  13.446 -0.1594 -0.3154  0.1316
  752MOL0     O 1433   2.674   0.295  13.332  0.0032  0.3104  0.6073
  752MOL0     C 1434   2.781   0.319  13.095 -1.3117 -0.1311  0.0071
  752MOL0     C 1435   2.870   0.337  12.994 -0.7881 -0.3878  0.5936
  752MOL0     N 1436   3.116   0.124  12.275  0.5838 -0.8157 -0.1797
  752MOL0     N 1437   3.092   0.024  12.196 -0.2016  0.2262  0.3924
  752MOL0     C 1438   3.260   0.014  11.072 -0.4701 -0.3591 -0.3063
  752MOL0     C 1439   3.259   0.014  10.927 -0.6408 -0.3092  0.1506
  752MOL0     C 1440   3.321  -0.034  10.488  0.6999 -0.2261  0.5243
  752MOL0     C 1441   3.235   0.013  10.382  0.0798  0.1818  0.0660
  752MOL0     C 1442   3.272   0.002  10.250  0.1810 -0.4537  0.7827
  752MOL0     C 1443   3.394  -0.055  10.209  0.0853 -0.8768  0.3596
  752MOL0     O 1444   3.412  -0.089  10.080  0.2278 -0.0166  0.1924
  752MOL0     C 1445   3.523  -0.027  10.007  0.0379  0.2642  0.2351
  752MOL0     C 1446   3.512  -0.050   9.862  0.6660 -0.2457  0.7342
  752MOL0     C 1447   3.391  -0.003   9.785 -1.2068  0.0942 -0.5915
  752MOL0     C 1448   3.263  -0.088   9.800 -0.0859  0.0866 -0.7947
  752MOL0     C 1449   3.150  -0.042   9.712  0.3428 -0.5091 -0.8535
  752MOL0     C 1450   3.078  -0.001   9.631 -0.1572  0.1582 -0.4955
  752MOL0     C 1451   3.469  -0.117  10.308 -0.3629 -0.1189 -0.8264
  752MOL0     C 1452   3.439  -0.097  10.445 -0.1639  1.0052  0.3714
  752MOL0     H 1453   3.534  -0.194  10.900  2.1771  0.8056  2.4526
  752MOL0     H 1454   3.506  -0.189  11.139  1.7580  0.1619 -1.8682
  752MOL0     H 1455   3.373   0.142  11.315 -0.5605  0.7998 -0.6691
  752MOL0     H 1456   3.216   0.082  11.338 -0.9419  0.6737  1.8519
  752MOL0     H 1457   3.462   0.032  11.500  0.2333  2.4980  0.0664
  752MOL0     H 1458   3.324   0.135  11.541  3.0027  1.0864 -0.0218
  752MOL0     H 1459   3.162  -0.036  11.555 -0.0278 -0.0785  1.4934
  752MOL0     H 1460   3.270  -0.159  11.500 -2.0877 -1.2601  0.6628
  752MOL0     H 1461   3.405  -0.138  11.692 -0.2544 -0.0301 -2.9975
  752MOL0     H 1462   3.330   0.020  11.741 -0.7407 -0.2137  1.9947
  752MOL0     H 1463   3.122  -0.075  11.795 -0.7609 -1.6720 -0.6551
  752MOL0     H 1464   3.164  -0.240  11.746 -2.5278  0.3113 -1.4022
  752MOL0     H 1465   3.335  -0.227  11.931 -3.4968 -3.5053  1.1799
  752MOL0     H 1466   3.301  -0.049  11.952  0.4226  0.7987 -2.9743
  752MOL0     H 1467   3.052  -0.141  11.986 -0.0741  0.4406  1.3819
  752MOL0     H 1468   3.121  -0.303  11.975  1.1393 -1.2827  2.8495
  752MOL0     H 1469   3.273  -0.255  12.170 -0.7615 -1.6478  5.5542
  752MOL0     H 1470   3.105  -0.267  12.224 -1.3321 -2.3073 -2.7530
  752MOL0     H 1471   3.353  -0.076  12.353 -0.4750  0.9998 -0.4524
  752MOL0     H 1472   3.390   0.185  12.461 -0.4607  1.0527  1.6889
  752MOL0     H 1473   3.266   0.284  12.401 -1.1924 -1.2123 -1.1059
  752MOL0     H 1474   3.276   0.233  12.661 -0.2040 -0.1358 -0.9094
  752MOL0     H 1475   3.234   0.062  12.616  0.4266  0.2443  1.0794
  752MOL0     H 1476   3.021   0.164  12.506  2.9330 -2.9434 -1.6943
  752MOL0     H 1477   3.050   0.314  12.597 -2.1506 -1.1534  1.0659
  752MOL0     H 1478   3.049   0.067  12.767  1.4787 -0.1371 -0.7926
  752MOL0     H 1479   2.903   0.138  12.710  0.6439 -4.2320  0.7858
  752MOL0     H 1480   3.015   0.045  12.989 -0.1025 -1.0873  1.9138
  752MOL0     H 1481   2.936  -0.090  13.150 -1.5766  0.0271 -1.9248
  752MOL0     H 1482   2.873  -0.015  13.300  0.5664 -2.0415  0.3026
  752MOL0     H 1483   2.752  -0.066  13.174 -0.6840  0.0989  0.2307
  752MOL0     H 1484   2.380  -0.088  13.237  0.9381  1.0538 -1.1627
  752MOL0     H 1485   2.186  -0.117  13.368  0.5841 -0.5692 -3.2724
  752MOL0     H 1486   2.128   0.125  13.735 -3.1793  2.0686  1.5458
  752MOL0     H 1487   2.025   0.204  13.609 -3.7122 -2.1372 -2.2019
  752MOL0     H 1488   1.901   0.102  13.792 -2.6580 -1.0760 -0.6206
  752MOL0     H 1489   1.864   0.004  13.644 -1.4080 -1.4330  1.2648
  752MOL0     H 1490   2.070  -0.146  13.711 -2.0930 -0.2954 -1.7447
  752MOL0     H 1491   1.912  -0.162  13.788  1.1595 -0.6231  1.0756
  752MOL0     H 1492   2.120  -0.169  13.937 -2.4334 -1.2649 -1.2861
  752MOL0     H 1493   2.145  -0.003  13.918 -0.2514 -0.0957  0.1930
  752MOL0     H 1494   1.994  -0.144  14.099 -2.3982 -0.0765  0.0545
  752MOL0     H 1495   1.863  -0.080  14.005  0.1262 -2.4010  0.0008
  752MOL0     H 1496   2.086   0.080  14.125 -0.7997 -1.1459  1.3546
  752MOL0     H 1497   1.968   0.163  14.020  0.2503  1.5154  1.0032
  752MOL0     H 1498   1.790   0.123  14.182  0.6489  1.9466  0.8830
  752MOL0     H 1499   1.927   0.192  14.259 -2.5633  1.7496 -0.5246
  752MOL0     H 1500   1.824  -0.088  14.274  0.8514  0.1339  0.7572
  752MOL0     H 1501   1.824   0.030  14.401 -1.3926 -0.8761 -0.1486
  752MOL0     H 1502   2.290   0.213  13.611 -2.0816 -1.6253  0.9032
  752MOL0     H 1503   2.497   0.257  13.475 -0.5951  0.7770 -1.5776
  752MOL0     H 1504   2.718   0.404  13.118  2.2738  2.1585  2.2827
  752MOL0     H 1505   2.873   0.431  12.939 -0.0509 -0.1799  0.9818
  752MOL0     H 1506   3.178   0.072  11.112 -0.4847 -0.0075 -0.8314
  752MOL0     H 1507   3.193   0.078  10.869 -1.1646 -2.0743 -1.2810
  752MOL0     H 1508   3.140   0.058  10.411 -1.1898 -1.1044 -1.8620
  752MOL0     H 1509   3.203   0.027  10.170  2.9071 -0.0710 -1.6551
  752MOL0     H 1510   3.531   0.079  10.033  0.2814  0.0576  1.0069
  752MOL0     H 1511   3.618  -0.074  10.033 -1.5618 -2.8768  0.8659
  752MOL0     H 1512   3.547  -0.150   9.834  3.1111  0.0387  2.4218
  752MOL0     H 1513   3.592   0.014   9.823 -2.4094  2.5116 -1.6171
  752MOL0     H 1514   3.427  -0.001   9.682 -2.5593 -1.6297 -1.1407
  752MOL0     H 1515   3.375   0.103   9.806 -0.1930  0.3814 -1.1960
  752MOL0     H 1516   3.223  -0.109   9.900  1.7154 -1.9258 -0.4502
  752MOL0     H 1517   3.275  -0.189   9.761  0.3944  0.2420 -1.0467
  752MOL0     H 1518   3.010   0.023   9.551 -1.9808  1.2687  1.2694
  752MOL0     H 1519   3.549  -0.183  10.276  1.5027  1.2462  0.7568
  752MOL0     H 1520   3.506  -0.152  10.510 -1.9706  0.4895  1.8831
  753MOL0     O 1521   9.832   9.371   3.989 -0.3105 -0.1478 -0.4754
  753MOL0     C 1522   9.856   9.343   4.101 -1.2041 -0.5589  0.2408
  753MOL0     O 1523   9.818   9.409   4.207 -0.0669  0.0508 -0.5956
  753MOL0     C 1524   9.694   9.468   4.214 -1.2513  0.0388  0.4793
  753MOL0     C 1525   9.591   9.442   4.131  0.5075 -0.5492 -0.4675
  753MOL0     C 1526   9.463   9.502   4.161  0.5319  0.0844 -0.3483
  753MOL0     C 1527   9.450   9.584   4.267  0.4333 -0.9267  0.5348
  753MOL0     O 1528   9.326   9.642   4.272  0.2517 -0.9173  0.0527
  753MOL0     C 1529   9.284   9.667   4.401 -0.9033  0.8679 -0.2748
  753MOL0     C 1530   9.148   9.735   4.397  0.7134 -0.2553 -0.4490
  753MOL0     C 1531   9.161   9.873   4.325  0.6694 -0.2879  0.2004
  753MOL0     C 1532   9.031   9.959   4.331  0.7160 -0.0431  0.3651
  753MOL0     C 1533   8.978   9.982   4.475 -0.5711 -0.0854  0.0324
  753MOL0     C 1534   8.866  10.088   4.470 -0.3688  0.0875  1.0063
  753MOL0     C 1535   8.829  10.142   4.601 -0.6156 -0.2861  0.3219
  753MOL0     C 1536   8.748  10.042   4.692  0.8002  0.5671 -0.3671
  753MOL0     N 1537   8.634   9.968   4.626  0.2581  0.0412 -0.1210
  753MOL0     C 1538   8.636   9.841   4.597 -0.3408  0.4112  0.5354
  753MOL0     C 1539   8.517   9.812   4.537 -0.1782 -0.4457  0.3164
  753MOL0     C 1540   8.449   9.674   4.509  0.0073 -0.5315  0.0856
  753MOL0     C 1541   8.366   9.616   4.621 -0.5645  0.3117  1.4502
  753MOL0     C 1542   8.222   9.671   4.618 -0.7528 -0.9623 -0.7348
  753MOL0     C 1543   8.128   9.571   4.688 -0.6326  0.6055 -0.5257
  753MOL0     O 1544   8.005   9.647   4.702 -0.4013  0.3762  0.1558
  753MOL0     C 1545   7.895   9.565   4.703 -0.9922  0.6908 -0.9604
  753MOL0     C 1546   7.898   9.453   4.786  0.4859  0.0135 -0.1122
  753MOL0     C 1547   7.783   9.366   4.791  0.3013 -0.4556  0.4807
  753MOL0     C 1548   7.813   9.248   4.889  0.3898 -0.0472  0.7991
  753MOL0     C 1549   7.667   9.396   4.721  0.6304 -0.9797 -0.9446
  753MOL0     C 1550   7.556   9.304   4.718 -0.0057 -0.1888  0.7337
  753MOL0     O 1551   7.437   9.362   4.670 -0.1961  0.1625  0.2458
  753MOL0     C 1552   7.322   9.291   4.645  0.1628  0.9650  0.7626
  753MOL0     C 1553   7.313   9.151   4.625 -0.0679 -0.4755 -0.2329
  753MOL0     C 1554   7.194   9.097   4.595  1.4963  1.0090  0.7349
  753MOL0     C 1555   7.071   9.168   4.591  1.0174  0.2071  0.6903
  753MOL0     O 1556   6.959   9.096   4.572 -0.2989 -0.0022 -0.5428
  753MOL0     C 1557   6.837   9.155   4.615  0.0925  0.2525  0.8981
  753MOL0     C 1558   6.719   9.066   4.552  0.6730  0.1772  0.3531
  753MOL0     C 1559   6.576   9.087   4.617 -0.2875 -1.0927 -0.0205
  753MOL0     C 1560   6.469   9.005   4.551 -0.2901  0.2749 -1.4208
  753MOL0     C 1561   6.332   9.088   4.543 -0.2285 -0.0409  0.1895
  753MOL0     C 1562   6.220   9.041   4.450  0.2988  0.7759 -0.6026
  753MOL0     C 1563   6.173   8.898   4.493 -0.0717 -0.9276  1.3782
  753MOL0     C 1564   6.022   8.876   4.470  0.1028 -0.3770 -0.1673
  753MOL0    Cl 1565   5.990   8.697   4.511  0.5635  0.3277  0.0870
  753MOL0     C 1566   7.077   9.308   4.619  0.7194  0.5792  0.5891
  753MOL0     C 1567   7.203   9.358   4.645 -0.5969 -0.4605  0.9408
  753MOL0     O 1568   7.558   9.194   4.765  0.1069  0.3482  0.5679
  753MOL0     C 1569   7.661   9.517   4.643 -0.5877  0.5036  0.8613
  753MOL0     C 1570   7.776   9.593   4.639  0.0088 -0.5340  0.4549
  753MOL0     N 1571   8.446   9.929   4.543 -0.1049  0.1171 -0.3158
  753MOL0     N 1572   8.518  10.026   4.578  0.4656  0.9447  0.4233
  753MOL0     C 1573   9.553   9.602   4.363 -0.7528  0.4325 -0.7795
  753MOL0     C 1574   9.671   9.534   4.335  0.6441 -0.7697  0.5215
  753MOL0     C 1575   9.936   9.228   4.113  0.1904  0.1506  0.0549
  753MOL0     C 1576  10.005   9.170   4.003  0.5551  0.1883 -0.7243
  753MOL0     C 1577  10.079   9.056   4.026  0.1513  0.4829  0.7690
  753MOL0     C 1578  10.103   8.993   4.154  0.6786 -0.4056  1.0762
  753MOL0     O 1579  10.167   8.878   4.151 -0.4333  0.2196 -0.5214
  753MOL0     C 1580  10.173   8.792   4.264 -0.2498  1.1604 -0.4788
  753MOL0     C 1581  10.236   8.661   4.211  0.3495 -0.0336  0.4196
  753MOL0     C 1582  10.223   8.560   4.330 -0.1656  0.2977  0.0873
  753MOL0     C 1583  10.272   8.423   4.293 -0.4243 -0.2536  0.6100
  753MOL0     C 1584  10.195   8.370   4.183 -0.2346 -0.5186  1.1332
  753MOL0     C 1585  10.153   8.325   4.084 -0.1856  0.5222  1.1351
  753MOL0     C 1586  10.040   9.054   4.262  0.0066 -0.0444 -0.2324
  753MOL0     C 1587   9.950   9.162   4.237  0.8913  0.2692  0.1950
  753MOL0     H 1588   9.594   9.377   4.044 -1.3912  0.8404 -1.6433
  753MOL0     H 1589   9.380   9.485   4.094  0.4444  0.2355 -0.2786
  753MOL0     H 1590   9.267   9.568   4.445  0.2657  1.8085  2.5275
  753MOL0     H 1591   9.348   9.726   4.467 -1.8143 -0.2412  1.6732
  753MOL0     H 1592   9.079   9.672   4.340 -2.3044  2.2967  0.0748
  753MOL0     H 1593   9.138   9.747   4.505  4.5570  0.2568 -0.0379
  753MOL0     H 1594   9.245   9.925   4.373  1.4807 -1.3816 -0.0052
  753MOL0     H 1595   9.179   9.866   4.217 -0.6018 -1.8380  0.0671
  753MOL0     H 1596   9.046  10.055   4.280  4.1926 -0.5719  0.0997
  753MOL0     H 1597   8.953   9.904   4.277  0.4737  1.2267 -0.6207
  753MOL0     H 1598   8.948   9.888   4.522  1.2943 -0.8067 -0.1694
  753MOL0     H 1599   9.051  10.020   4.547 -0.4290  0.1500 -0.2333
  753MOL0     H 1600   8.908  10.171   4.412 -2.1591 -0.7048 -1.6292
  753MOL0     H 1601   8.785  10.060   4.402  2.8445 -2.6384 -2.0652
  753MOL0     H 1602   8.920  10.181   4.647  0.1658  0.2243 -1.5710
  753MOL0     H 1603   8.766  10.231   4.593  1.4013  1.0786 -1.7048
  753MOL0     H 1604   8.715  10.106   4.775 -1.7649 -1.4590  0.3196
  753MOL0     H 1605   8.818   9.974   4.743  0.1952 -0.8220 -1.3145
  753MOL0     H 1606   8.707   9.766   4.630 -0.7572 -0.7973 -1.1474
  753MOL0     H 1607   8.388   9.672   4.419 -1.5368 -1.6600  1.1004
  753MOL0     H 1608   8.536   9.610   4.495  1.7281  1.3501  1.5463
  753MOL0     H 1609   8.425   9.628   4.712  1.1616 -1.0981  0.5798
  753MOL0     H 1610   8.361   9.508   4.603 -1.6413  0.6339 -0.4967
  753MOL0     H 1611   8.192   9.700   4.517  1.6691  2.0293 -0.7568
  753MOL0     H 1612   8.222   9.763   4.678  0.4037  0.2646 -2.5151
  753MOL0     H 1613   8.167   9.532   4.782 -0.6144  1.9361  0.0478
  753MOL0     H 1614   8.131   9.486   4.619  2.0816  0.3522 -0.1919
  753MOL0     H 1615   7.986   9.433   4.847  1.2206 -0.8074 -1.4029
  753MOL0     H 1616   7.800   9.151   4.840 -1.0029  1.3161 -1.7541
  753MOL0     H 1617   7.919   9.255   4.916  0.9372 -1.3197 -0.8296
  753MOL0     H 1618   7.734   9.260   4.964 -1.3872 -0.1993 -0.9684
  753MOL0     H 1619   7.399   9.085   4.620 -0.6500 -1.7389  3.3116
  753MOL0     H 1620   7.179   8.990   4.583  0.2654  0.9931  2.0765
  753MOL0     H 1621   6.833   9.154   4.724 -1.8532  1.0498  0.8713
  753MOL0     H 1622   6.818   9.259   4.586  0.7946  0.2202  0.2686
  753MOL0     H 1623   6.723   9.092   4.446 -0.2035  1.0532  0.5133
  753MOL0     H 1624   6.749   8.961   4.555 -1.2802 -0.4492 -0.1921
  753MOL0     H 1625   6.558   9.192   4.596  1.4097 -0.6293  0.6358
  753MOL0     H 1626   6.580   9.065   4.724 -2.9990 -0.9557  0.1711
  753MOL0     H 1627   6.508   9.003   4.449 -0.6392 -0.1708 -1.5496
  753MOL0     H 1628   6.451   8.902   4.583  1.8627 -0.4763 -2.4571
  753MOL0     H 1629   6.346   9.193   4.514 -0.0294  0.3371  1.5593
  753MOL0     H 1630   6.278   9.090   4.638 -0.3876  0.9703  0.0895
  753MOL0     H 1631   6.157   9.131   4.450  2.3766  2.3249  0.1698
  753MOL0     H 1632   6.254   9.029   4.347  0.3485  0.5471 -0.5589
  753MOL0     H 1633   6.208   8.861   4.590 -0.0456 -0.4848  1.5412
  753MOL0     H 1634   6.212   8.825   4.422 -0.6077 -1.2827  1.4429
  753MOL0     H 1635   5.987   8.903   4.370 -1.1720  3.8677  1.2427
  753MOL0     H 1636   5.977   8.938   4.547 -0.5048  0.5962 -1.2942
  753MOL0     H 1637   6.991   9.374   4.620  1.2959  1.4131 -1.0478
  753MOL0     H 1638   7.201   9.465   4.661  0.1810 -0.5271  1.5233
  753MOL0     H 1639   7.566   9.562   4.614 -0.7754  1.8673  3.3590
  753MOL0     H 1640   7.775   9.696   4.606  2.7057 -0.9568 -1.2132
  753MOL0     H 1641   9.529   9.654   4.455  1.3594 -0.4934  0.3544
  753MOL0     H 1642   9.755   9.552   4.401 -0.3270  1.7868  1.1575
  753MOL0     H 1643   9.999   9.220   3.907  1.6376 -0.5466 -1.1930
  753MOL0     H 1644  10.136   9.008   3.947  0.0883  0.5316  0.6935
  753MOL0     H 1645  10.228   8.845   4.343 -1.7490  3.2670 -0.7591
  753MOL0     H 1646  10.067   8.785   4.288 -0.6485  4.1693 -0.9423
  753MOL0     H 1647  10.340   8.681   4.182 -0.2874  1.2629 -1.1523
  753MOL0     H 1648  10.176   8.631   4.124 -1.0175  0.6554  1.1043
  753MOL0     H 1649  10.120   8.551   4.364 -0.5567  3.0681 -0.1335
  753MOL0     H 1650  10.289   8.586   4.414  2.1175 -4.9940  0.3544
  753MOL0     H 1651  10.257   8.349   4.372 -0.0162 -2.0536 -0.9178
  753MOL0     H 1652  10.379   8.427   4.269  0.8911  1.0113  5.5701
  753MOL0     H 1653  10.120   8.271   3.998  2.3311  2.6282 -1.3515
  753MOL0     H 1654  10.039   9.014   4.363 -2.7310  0.0212 -0.1576
  753MOL0     H 1655   9.885   9.182   4.322 -1.7830 -0.8375 -1.4561
  754MOL0     O 1656   7.954   8.543   2.196  0.1387  0.7274 -0.1081
  754MOL0     C 1657   8.029   8.603   2.124 -0.2586  0.1770  1.0457
  754MOL0     O 1658   8.150   8.559   2.079 -0.0259 -0.0851 -0.4895
  754MOL0     C 1659   8.238   8.490   2.160  0.7757 -0.3437  0.9538
  754MOL0     C 1660   8.225   8.461   2.296 -0.4695 -0.8799  0.6061
  754MOL0     C 1661   8.332   8.391   2.360 -0.0259 -0.7078  0.5004
  754MOL0     C 1662   8.439   8.337   2.284 -0.9952  0.9911 -0.2864
  754MOL0     O 1663   8.530   8.260   2.348 -0.3687  0.2457 -0.4571
  754MOL0     C 1664   8.621   8.175   2.280 -0.7656  0.5201 -0.0271
  754MOL0     C 1665   8.531   8.062   2.225 -0.3383 -0.3591 -1.2736
  754MOL0     C 1666   8.601   7.928   2.232 -0.2235  0.1345 -0.3415
  754MOL0     C 1667   8.518   7.823   2.147  0.9792 -0.1944 -0.3706
  754MOL0     C 1668   8.414   7.740   2.214 -0.2886  0.2970 -0.2157
  754MOL0     C 1669   8.458   7.640   2.319  0.2023  0.1485  0.8601
  754MOL0     C 1670   8.350   7.532   2.340 -0.1458  0.6991 -0.1132
  754MOL0     C 1671   8.391   7.442   2.453 -0.4368 -0.1816 -0.3111
  754MOL0     N 1672   8.310   7.318   2.447 -0.3129 -0.0501  0.4968
  754MOL0     C 1673   8.174   7.314   2.437  1.5390  0.1578  0.2375
  754MOL0     C 1674   8.144   7.182   2.431  0.9690 -0.2022 -0.2482
  754MOL0     C 1675   8.000   7.130   2.442 -0.0341 -0.2221  0.8286
  754MOL0     C 1676   7.959   7.066   2.306 -0.3276 -0.2365  0.4176
  754MOL0     C 1677   7.824   6.996   2.327 -0.6553  0.1598  0.2060
  754MOL0     C 1678   7.774   6.920   2.199 -0.5172  0.0267 -0.0611
  754MOL0     O 1679   7.869   6.816   2.157 -0.5369 -0.3100 -0.2017
  754MOL0     C 1680   7.882   6.717   2.247  0.1104 -0.2041 -0.0864
  754MOL0     C 1681   7.790   6.679   2.346  0.4151  0.0617 -0.5497
  754MOL0     C 1682   7.795   6.568   2.437  0.1658  1.5135  0.1893
  754MOL0     C 1683   7.695   6.549   2.554  0.6725 -0.1554  0.7940
  754MOL0     C 1684   7.913   6.493   2.427  0.9342  1.0269 -0.0667
  754MOL0     C 1685   7.935   6.372   2.508  0.2552 -0.5139  0.8031
  754MOL0     O 1686   7.828   6.286   2.531 -0.1514 -0.2319  0.2464
  754MOL0     C 1687   7.854   6.185   2.622  0.4432 -0.2537 -0.6697
  754MOL0     C 1688   7.770   6.187   2.734  0.7565  0.1123  0.1157
  754MOL0     C 1689   7.809   6.113   2.860  0.6064 -1.4314  0.3104
  754MOL0     C 1690   7.918   6.033   2.868  0.3543 -0.4481 -0.6013
  754MOL0     O 1691   7.970   5.963   2.976 -0.3028  1.1143  0.3477
  754MOL0     C 1692   7.890   5.975   3.099 -1.1741 -0.6235  0.2281
  754MOL0     C 1693   7.956   5.910   3.217  0.2093  0.1789  0.0990
  754MOL0     C 1694   8.085   5.976   3.261  0.3957 -0.0829  0.3411
  754MOL0     C 1695   8.118   5.961   3.412  0.2632 -0.7707  0.6099
  754MOL0     C 1696   8.252   6.045   3.439  0.3431  0.0054 -0.3136
  754MOL0     C 1697   8.378   5.976   3.385  0.0154  0.2855  0.2970
  754MOL0     C 1698   8.501   6.061   3.427 -0.2655 -0.3089  0.0114
  754MOL0     C 1699   8.625   5.970   3.451  0.5508 -0.6167  0.4658
  754MOL0    Cl 1700   8.676   5.890   3.291 -0.0458 -0.0054 -0.1075
  754MOL0     C 1701   7.982   6.017   2.746  0.7255  0.4207  0.6788
  754MOL0     C 1702   7.957   6.092   2.633  0.8994 -0.1519  0.4366
  754MOL0     O 1703   8.049   6.361   2.545 -0.0824 -0.1970 -0.4412
  754MOL0     C 1704   8.004   6.526   2.325  0.5508  0.4392 -0.0863
  754MOL0     C 1705   7.978   6.622   2.230 -0.6107 -1.0902 -0.2010
  754MOL0     N 1706   8.262   7.111   2.423  0.4599  0.5140 -0.7198
  754MOL0     N 1707   8.362   7.194   2.426 -0.3438  0.2554  0.2054
  754MOL0     C 1708   8.449   8.368   2.146  0.3933 -1.3987 -0.4296
  754MOL0     C 1709   8.355   8.451   2.090  0.1106 -0.5953 -0.2661
  754MOL0     C 1710   7.990   8.738   2.061 -0.7246 -0.0033 -0.1576
  754MOL0     C 1711   7.858   8.776   2.084 -1.6085  0.6618 -0.3123
  754MOL0     C 1712   7.806   8.895   2.022  0.6265 -0.9954  0.2934
  754MOL0     C 1713   7.881   8.978   1.950 -0.7339  0.8736 -0.4158
  754MOL0     O 1714   7.819   9.095   1.906 -0.5066 -0.0341  0.2534
  754MOL0     C 1715   7.913   9.173   1.821 -0.1908 -0.3296 -0.1409
  754MOL0     C 1716   7.840   9.291   1.761 -0.5047 -0.0083 -0.1437
  754MOL0     C 1717   7.823   9.403   1.857 -0.4112  0.7030 -0.1115
  754MOL0     C 1718   7.684   9.478   1.840  0.1880  0.3978 -0.3535
  754MOL0     C 1719   7.671   9.548   1.710 -0.2480  0.5445  0.2759
  754MOL0     C 1720   7.653   9.592   1.598  0.6147  0.0428 -0.1043
  754MOL0     C 1721   8.016   8.930   1.923  0.0457 -0.1669  0.2889
  754MOL0     C 1722   8.071   8.818   1.975  0.5303 -0.5060 -0.6496
  754MOL0     H 1723   8.139   8.494   2.353 -0.0785  0.8660  0.2251
  754MOL0     H 1724   8.337   8.360   2.464  0.3913  0.8837  0.9806
  754MOL0     H 1725   8.673   8.228   2.200 -1.8100 -2.4203 -2.8922
  754MOL0     H 1726   8.691   8.122   2.345  0.5001  0.8250 -1.1052
  754MOL0     H 1727   8.437   8.077   2.279 -0.5685  1.3730 -2.0771
  754MOL0     H 1728   8.514   8.083   2.119 -2.2185  3.0967 -0.4477
  754MOL0     H 1729   8.701   7.941   2.190 -0.6941 -0.4161 -1.6809
  754MOL0     H 1730   8.615   7.895   2.335  2.8232  1.8025 -0.1182
  754MOL0     H 1731   8.474   7.876   2.062  2.3830  2.9828  0.7118
  754MOL0     H 1732   8.587   7.743   2.118  0.2901 -0.7748 -0.4385
  754MOL0     H 1733   8.350   7.813   2.266  0.8976 -0.5629  2.6311
  754MOL0     H 1734   8.353   7.691   2.138 -1.4143  2.0530 -0.5002
  754MOL0     H 1735   8.548   7.586   2.286  0.3129 -0.0234  1.4412
  754MOL0     H 1736   8.482   7.698   2.409  0.5753  1.0081  0.2352
  754MOL0     H 1737   8.261   7.582   2.378 -0.4261 -0.9784  1.6237
  754MOL0     H 1738   8.318   7.477   2.251 -1.4357  1.2265  0.0081
  754MOL0     H 1739   8.372   7.491   2.549 -0.8540  2.7435 -1.7706
  754MOL0     H 1740   8.499   7.431   2.446 -0.4120 -0.4334  0.3674
  754MOL0     H 1741   8.104   7.397   2.443  1.8326  0.2986  2.2664
  754MOL0     H 1742   7.997   7.064   2.528 -0.9232  0.4398  1.3212
  754MOL0     H 1743   7.926   7.211   2.452 -3.0149 -2.4170 -1.3602
  754MOL0     H 1744   8.031   6.992   2.270 -0.6683 -1.3936  2.0041
  754MOL0     H 1745   7.939   7.152   2.242 -1.5145 -0.9260 -0.1800
  754MOL0     H 1746   7.741   7.066   2.337 -1.5463 -0.9867  1.2150
  754MOL0     H 1747   7.832   6.934   2.417  2.0356 -3.5787 -2.2790
  754MOL0     H 1748   7.758   7.001   2.127 -1.8203  1.4456  1.7277
  754MOL0     H 1749   7.674   6.876   2.212  0.1264 -3.2736 -3.9363
  754MOL0     H 1750   7.695   6.729   2.363  0.4362  0.0407 -0.3676
  754MOL0     H 1751   7.649   6.451   2.537 -2.7812  1.3149  0.7753
  754MOL0     H 1752   7.738   6.539   2.654  1.9473 -1.3985  0.1597
  754MOL0     H 1753   7.618   6.627   2.545 -1.2253 -2.2241 -3.7096
  754MOL0     H 1754   7.689   6.259   2.745 -0.3993 -1.0341 -0.4803
  754MOL0     H 1755   7.741   6.123   2.944  0.6978  2.3618  0.1288
  754MOL0     H 1756   7.879   6.077   3.136 -0.3188 -1.4644  3.0779
  754MOL0     H 1757   7.791   5.934   3.079 -0.9104 -1.1025 -0.1238
  754MOL0     H 1758   7.884   5.903   3.299  0.7675  0.1507  0.5923
  754MOL0     H 1759   7.989   5.809   3.190  5.3961  1.7229 -0.4417
  754MOL0     H 1760   8.074   6.082   3.233 -0.2493 -0.4324 -0.7939
  754MOL0     H 1761   8.165   5.926   3.205 -2.5732 -3.3010 -1.3643
  754MOL0     H 1762   8.036   6.010   3.465 -1.9891 -2.9824 -0.6087
  754MOL0     H 1763   8.118   5.855   3.442  3.9423 -1.1978 -0.3660
  754MOL0     H 1764   8.262   6.040   3.548  1.4601  0.4421 -0.3812
  754MOL0     H 1765   8.235   6.148   3.405  0.7216  1.3066  3.0072
  754MOL0     H 1766   8.384   5.874   3.423 -1.9737  0.1061  0.2133
  754MOL0     H 1767   8.363   5.968   3.278  1.1051 -1.9692  0.2723
  754MOL0     H 1768   8.488   6.102   3.527  0.4916 -2.3641  1.0269
  754MOL0     H 1769   8.512   6.141   3.354  0.3497  1.0429  1.5203
  754MOL0     H 1770   8.603   5.896   3.529 -1.4345 -0.7369 -0.1469
  754MOL0     H 1771   8.700   6.043   3.482  0.1520  0.3340 -0.7326
  754MOL0     H 1772   8.063   5.945   2.741  0.0554 -0.2781 -0.2007
  754MOL0     H 1773   8.030   6.088   2.552 -1.1790  0.5688 -1.5857
  754MOL0     H 1774   8.093   6.465   2.309 -1.4951 -2.4610 -1.3310
  754MOL0     H 1775   8.044   6.640   2.146  0.7123 -1.0551  0.8150
  754MOL0     H 1776   8.528   8.326   2.085  1.4076 -1.5410  0.9236
  754MOL0     H 1777   8.376   8.487   1.990  1.2193  0.1760  0.2266
  754MOL0     H 1778   7.791   8.716   2.145 -0.2792  1.5889  2.1711
  754MOL0     H 1779   7.699   8.907   2.030  0.5432 -1.8292  0.5604
  754MOL0     H 1780   7.997   9.211   1.879  0.7003 -1.2191 -0.8256
  754MOL0     H 1781   7.958   9.114   1.741  0.5915  1.1004 -0.7984
  754MOL0     H 1782   7.740   9.269   1.723 -2.0020  1.4152  2.6450
  754MOL0     H 1783   7.887   9.336   1.674 -0.2835  3.9044  1.7796
  754MOL0     H 1784   7.923   9.448   1.849  1.0602 -2.3655 -0.4774
  754MOL0     H 1785   7.824   9.359   1.957  1.5261  2.8020  0.8766
  754MOL0     H 1786   7.674   9.561   1.910 -0.1370  0.3095 -0.2894
  754MOL0     H 1787   7.603   9.406   1.856  0.1082  0.6448  0.3931
  754MOL0     H 1788   7.632   9.624   1.498 -0.4247 -1.7132 -0.4955
  754MOL0     H 1789   8.086   8.978   1.856 -0.1098 -1.0989 -0.5483
  754MOL0     H 1790   8.174   8.789   1.963  1.1114  0.5012  1.4095
  755MOL0     O 1791   4.902   6.436   4.835  0.1779  0.3756 -0.3906
  755MOL0     C 1792   4.805   6.392   4.894 -0.2355 -0.7024 -0.0633
  755MOL0     O 1793   4.809   6.313   5.012  0.4029 -0.4579  0.2579
  755MOL0     C 1794   4.938   6.262   5.042 -0.5479  0.7918 -0.2128
  755MOL0     C 1795   4.965   6.127   5.011  0.6726  0.0728 -0.5392
  755MOL0     C 1796   5.086   6.068   5.051  0.0344  0.4011 -0.4073
  755MOL0     C 1797   5.179   6.139   5.130 -0.0509  0.3518 -1.2441
  755MOL0     O 1798   5.301   6.092   5.172  0.9804 -0.6513 -0.2730
  755MOL0     C 1799   5.378   6.025   5.072  0.0549  0.0214  0.6194
  755MOL0     C 1800   5.510   5.991   5.138 -0.7335  0.2424 -0.0736
  755MOL0     C 1801   5.592   6.120   5.169  0.1266  0.0258 -1.2120
  755MOL0     C 1802   5.737   6.091   5.217 -0.4962 -0.6279  0.6485
  755MOL0     C 1803   5.826   6.217   5.190 -0.3612  0.9002 -0.5398
  755MOL0     C 1804   5.978   6.170   5.208  0.7035 -0.2692  0.5863
  755MOL0     C 1805   6.075   6.272   5.151 -0.4407 -0.1560 -0.1907
  755MOL0     C 1806   6.052   6.420   5.169  0.5601  1.0853  0.1298
  755MOL0     N 1807   6.047   6.456   5.311 -0.8279  0.4073  0.3773
  755MOL0     C 1808   6.149   6.435   5.396 -0.8476 -0.0814  0.7523
  755MOL0     C 1809   6.116   6.500   5.513 -0.1182  0.1199 -0.4190
  755MOL0     C 1810   6.183   6.490   5.647  0.5315  0.0380 -0.3426
  755MOL0     C 1811   6.231   6.353   5.693 -0.0153  0.0841  0.6376
  755MOL0     C 1812   6.111   6.244   5.677  0.4653  0.1789 -0.3378
  755MOL0     C 1813   6.152   6.109   5.737  0.3257  0.7436  0.2358
  755MOL0     O 1814   6.136   6.105   5.877  0.1689  0.1087  0.6873
  755MOL0     C 1815   6.201   6.005   5.947 -0.2172  0.5345 -0.4421
  755MOL0     C 1816   6.280   5.896   5.895 -0.8404 -0.5059 -0.0543
  755MOL0     C 1817   6.331   5.798   5.987  0.8253 -0.6539  0.3735
  755MOL0     C 1818   6.436   5.691   5.934  0.3785 -0.2446 -0.3558
  755MOL0     C 1819   6.286   5.802   6.127  0.2555 -0.6430 -0.4168
  755MOL0     C 1820   6.320   5.708   6.230 -0.2875  0.7421 -1.0437
  755MOL0     O 1821   6.266   5.733   6.355  0.4142  0.2674 -0.5670
  755MOL0     C 1822   6.280   5.640   6.474 -0.0608 -0.2080  1.1486
  755MOL0     C 1823   6.285   5.503   6.462 -0.0773  0.8494 -0.3376
  755MOL0     C 1824   6.303   5.425   6.581  0.3571  0.3546 -0.0109
  755MOL0     C 1825   6.315   5.486   6.705 -0.7218 -0.4020  0.7123
  755MOL0     O 1826   6.315   5.427   6.824 -0.3059 -0.2141 -0.1948
  755MOL0     C 1827   6.217   5.321   6.852 -1.1859 -0.5964 -0.3334
  755MOL0     C 1828   6.277   5.175   6.845 -0.6275 -0.9528  0.9173
  755MOL0     C 1829   6.352   5.149   6.981  0.3762 -0.2239 -0.1879
  755MOL0     C 1830   6.467   5.051   6.969  0.1565 -0.5152  0.3576
  755MOL0     C 1831   6.492   5.027   7.122 -0.4787 -0.2981 -0.2437
  755MOL0     C 1832   6.625   4.947   7.141 -0.2084  0.5016  0.3526
  755MOL0     C 1833   6.758   4.989   7.079  0.1434 -0.5947 -0.0259
  755MOL0     C 1834   6.806   5.131   7.108 -0.2544 -0.2725  0.0573
  755MOL0    Cl 1835   6.963   5.163   7.046  0.4282 -0.0330 -0.6897
  755MOL0     C 1836   6.306   5.628   6.708 -0.7142  0.0374  0.0421
  755MOL0     C 1837   6.290   5.703   6.593 -0.4193  0.9534 -0.0234
  755MOL0     O 1838   6.384   5.612   6.195  0.2699 -0.3201  0.2402
  755MOL0     C 1839   6.195   5.903   6.161  0.9783 -0.2065 -0.9855
  755MOL0     C 1840   6.162   6.005   6.082 -0.0603  0.3127 -0.0306
  755MOL0     N 1841   5.983   6.547   5.494 -0.4164 -0.1593 -1.1524
  755MOL0     N 1842   5.956   6.535   5.368 -0.0689  0.3206  0.7150
  755MOL0     C 1843   5.151   6.271   5.171  0.5791  0.6472 -0.2798
  755MOL0     C 1844   5.041   6.331   5.114  0.3680  0.0638  0.0277
  755MOL0     C 1845   4.675   6.459   4.851  0.1167 -0.0812 -0.6245
  755MOL0     C 1846   4.684   6.570   4.763 -0.5584  0.9776  0.3987
  755MOL0     C 1847   4.565   6.634   4.724 -1.0463  0.1427 -1.1053
  755MOL0     C 1848   4.445   6.602   4.786 -0.1738 -0.3003 -1.0780
  755MOL0     O 1849   4.343   6.673   4.750 -0.4664 -0.0195  0.0271
  755MOL0     C 1850   4.241   6.610   4.665 -0.4825 -0.0557 -0.3134
  755MOL0     C 1851   4.098   6.673   4.690  1.4443  1.2052  0.2439
  755MOL0     C 1852   4.076   6.816   4.649 -0.3994 -0.7260 -0.6514
  755MOL0     C 1853   4.087   6.915   4.776  0.5786  0.1468  1.0847
  755MOL0     C 1854   4.058   7.054   4.732  0.0763 -1.0778  0.5224
  755MOL0     C 1855   4.047   7.175   4.705  0.3369 -0.6844 -0.1907
  755MOL0     C 1856   4.438   6.498   4.882 -0.2549  0.5257  0.2851
  755MOL0     C 1857   4.549   6.417   4.911 -0.1562  0.3516  0.2439
  755MOL0     H 1858   4.896   6.062   4.958  0.1796  0.7975 -0.7973
  755MOL0     H 1859   5.113   5.969   5.016  1.2436  0.2826  0.7521
  755MOL0     H 1860   5.312   5.941   5.049 -0.5833 -0.5729  4.0909
  755MOL0     H 1861   5.402   6.080   4.980  1.6068 -1.4914  0.0713
  755MOL0     H 1862   5.474   5.934   5.225  2.1957  1.2464  1.9245
  755MOL0     H 1863   5.568   5.928   5.070 -1.3848  0.9197 -1.2828
  755MOL0     H 1864   5.597   6.167   5.070 -0.7990  0.4843 -1.0574
  755MOL0     H 1865   5.540   6.189   5.236  2.5614 -1.0548  2.0031
  755MOL0     H 1866   5.745   6.071   5.324  2.6928  1.5412  0.9788
  755MOL0     H 1867   5.762   6.002   5.159 -0.6993 -0.9840  1.1018
  755MOL0     H 1868   5.802   6.248   5.088  2.2132  3.2516 -0.5635
  755MOL0     H 1869   5.802   6.296   5.262  0.0691 -1.6694  2.6453
  755MOL0     H 1870   5.995   6.149   5.314 -2.7431 -1.6769  1.0078
  755MOL0     H 1871   6.002   6.072   5.166 -0.5116 -0.6586  0.7657
  755MOL0     H 1872   6.181   6.255   5.175  0.3091  0.1582 -2.8618
  755MOL0     H 1873   6.063   6.257   5.043 -0.9816 -1.2956  0.0148
  755MOL0     H 1874   5.955   6.451   5.129  0.5657 -0.6082 -1.2743
  755MOL0     H 1875   6.123   6.483   5.114  2.6486 -1.3899 -0.1838
  755MOL0     H 1876   6.235   6.370   5.381 -0.5938  0.5395 -0.6540
  755MOL0     H 1877   6.265   6.561   5.635  0.1908  0.4462 -0.2969
  755MOL0     H 1878   6.121   6.540   5.723  3.2828  4.7293 -0.7919
  755MOL0     H 1879   6.279   6.370   5.790 -1.6574  2.0833  1.1804
  755MOL0     H 1880   6.297   6.312   5.615  2.9033  4.0663  0.7320
  755MOL0     H 1881   6.090   6.231   5.571  0.7665  2.0696 -0.6773
  755MOL0     H 1882   6.028   6.272   5.743  0.6582 -1.5255  0.6692
  755MOL0     H 1883   6.248   6.071   5.700  0.6529 -0.5653  2.2709
  755MOL0     H 1884   6.095   6.028   5.689  1.7945 -0.7962  0.9756
  755MOL0     H 1885   6.295   5.892   5.788 -0.0543  1.0499 -0.0229
  755MOL0     H 1886   6.398   5.593   5.962  1.3479  0.0010  2.0136
  755MOL0     H 1887   6.429   5.700   5.825 -1.9674  2.3476 -0.1278
  755MOL0     H 1888   6.538   5.711   5.966 -0.5470  0.9986  2.1229
  755MOL0     H 1889   6.287   5.457   6.364  0.7959 -0.6249  0.3403
  755MOL0     H 1890   6.299   5.316   6.575 -3.5784  0.4190 -1.4830
  755MOL0     H 1891   6.190   5.335   6.957 -0.2228  2.1752 -0.3728
  755MOL0     H 1892   6.132   5.327   6.783 -0.6017  3.1726 -0.9395
  755MOL0     H 1893   6.195   5.102   6.850 -0.5279 -1.0121  1.8790
  755MOL0     H 1894   6.336   5.164   6.755 -1.6116  1.3802 -0.1013
  755MOL0     H 1895   6.280   5.114   7.056  1.8281  1.6393  2.2536
  755MOL0     H 1896   6.394   5.243   7.018  2.3652 -1.1883  0.1780
  755MOL0     H 1897   6.442   4.957   6.920 -2.0151  0.7572 -1.1803
  755MOL0     H 1898   6.552   5.090   6.912 -3.6688  4.6966 -2.7604
  755MOL0     H 1899   6.411   4.967   7.163  0.4493 -1.0136  0.5832
  755MOL0     H 1900   6.505   5.126   7.166  0.0389 -0.2992 -0.3899
  755MOL0     H 1901   6.643   4.947   7.249  4.1329 -2.5001 -0.1372
  755MOL0     H 1902   6.604   4.843   7.116 -2.2919  1.0014 -0.2575
  755MOL0     H 1903   6.746   4.996   6.971 -1.0292 -0.9783  0.0678
  755MOL0     H 1904   6.837   4.919   7.105 -0.4907 -1.6470 -0.8739
  755MOL0     H 1905   6.792   5.152   7.214 -0.8585  3.2826 -0.6023
  755MOL0     H 1906   6.728   5.191   7.060  0.0357 -1.1998 -1.6773
  755MOL0     H 1907   6.295   5.694   6.792  0.3968  3.7060 -2.4571
  755MOL0     H 1908   6.282   5.809   6.614 -3.4872  0.5283  1.3969
  755MOL0     H 1909   6.150   5.917   6.260  4.0348  1.5376  0.2992
  755MOL0     H 1910   6.094   6.084   6.111 -0.6063  0.1362 -0.7899
  755MOL0     H 1911   5.227   6.315   5.234  0.4252  1.0132 -0.3463
  755MOL0     H 1912   5.034   6.436   5.137  2.6913  0.6227 -1.4276
  755MOL0     H 1913   4.781   6.610   4.735  0.4696 -0.5906  1.5500
  755MOL0     H 1914   4.553   6.708   4.645 -2.7965  4.3185  2.6015
  755MOL0     H 1915   4.267   6.632   4.561  2.0640  3.5469  0.8930
  755MOL0     H 1916   4.241   6.500   4.666  0.3624 -0.1214 -2.4995
  755MOL0     H 1917   4.055   6.660   4.790  1.0712 -0.5960 -0.1118
  755MOL0     H 1918   4.039   6.613   4.620  1.8549  1.8430 -0.6600
  755MOL0     H 1919   3.976   6.820   4.605 -0.7723  2.0860  0.2596
  755MOL0     H 1920   4.154   6.838   4.575  0.1131  2.2740  0.6255
  755MOL0     H 1921   4.191   6.922   4.809  0.5310  3.9241  0.8833
  755MOL0     H 1922   4.013   6.894   4.854 -1.4863  0.6675 -0.6347
  755MOL0     H 1923   4.016   7.274   4.680  1.2787 -0.4310 -0.3706
  755MOL0     H 1924   4.345   6.476   4.932  0.4110  0.4214  1.5214
  755MOL0     H 1925   4.534   6.340   4.987 -1.0121  0.2652 -0.0127
  756MOL0     O 1926   9.931   2.964   6.581  0.3796 -0.5405 -0.1445
  756MOL0     C 1927   9.971   3.002   6.470 -0.0029  0.8906 -0.5653
  756MOL0     O 1928  10.048   3.114   6.450 -0.7725 -0.0576 -0.0786
  756MOL0     C 1929  10.152   3.149   6.538  0.1708 -1.2955 -0.3491
  756MOL0     C 1930  10.271   3.076   6.554  0.2171  0.0918 -1.0251
  756MOL0     C 1931  10.377   3.116   6.641 -0.6270 -0.1958  0.0807
  756MOL0     C 1932  10.349   3.230   6.724 -0.5994  0.3822 -0.5581
  756MOL0     O 1933  10.438   3.281   6.818  0.0322 -0.4833 -0.0733
  756MOL0     C 1934  10.558   3.210   6.840  0.6541  0.7907  0.9733
  756MOL0     C 1935  10.648   3.247   6.946  0.2477  0.3516 -0.5406
  756MOL0     C 1936  10.712   3.389   6.940  0.0098 -0.1928  0.5674
  756MOL0     C 1937  10.869   3.371   6.973  0.0265 -0.7067  0.3588
  756MOL0     C 1938  10.953   3.500   6.959 -0.0842 -0.2246  0.1144
  756MOL0     C 1939  10.905   3.616   7.052  0.0091  0.6703 -0.2719
  756MOL0     C 1940  11.015   3.730   7.065  0.8826 -0.3926  0.1404
  756MOL0     C 1941  10.968   3.855   7.148  0.5809  1.0235  0.1155
  756MOL0     N 1942  11.068   3.958   7.163 -0.0965  0.4020 -0.1628
  756MOL0     C 1943  11.190   3.950   7.234  0.3746  0.6009 -0.0673
  756MOL0     C 1944  11.253   4.067   7.224 -0.1113 -0.3664 -0.1671
  756MOL0     C 1945  11.372   4.113   7.288 -0.3395 -0.3075  0.0174
  756MOL0     C 1946  11.330   4.183   7.423 -0.7897  0.1042  0.4001
  756MOL0     C 1947  11.231   4.095   7.511 -0.2946  0.6637  0.1996
  756MOL0     C 1948  11.193   4.156   7.655 -1.1374  0.2228  0.4757
  756MOL0     O 1949  11.155   4.294   7.649  0.5407  0.0071 -0.1351
  756MOL0     C 1950  11.030   4.324   7.605  0.1435 -0.0132 -0.2971
  756MOL0     C 1951  10.995   4.457   7.603 -1.1333  0.0762 -0.2334
  756MOL0     C 1952  10.871   4.497   7.562 -0.1735 -1.0275  1.0606
  756MOL0     C 1953  10.833   4.644   7.585 -0.4893 -1.0266  0.4348
  756MOL0     C 1954  10.770   4.401   7.513 -0.2717  0.4745  0.8910
  756MOL0     C 1955  10.646   4.434   7.459  0.2422 -0.3271  1.2198
  756MOL0     O 1956  10.558   4.339   7.424 -0.4161  0.1057 -0.0785
  756MOL0     C 1957  10.441   4.373   7.379  0.5551 -0.1249  0.0704
  756MOL0     C 1958  10.323   4.371   7.464 -0.4873 -0.0426 -0.6742
  756MOL0     C 1959  10.203   4.413   7.418  0.2805  0.2907  0.0532
  756MOL0     C 1960  10.187   4.463   7.285 -0.3794  0.1334  1.2382
  756MOL0     O 1961  10.075   4.517   7.240  0.6158 -0.2039  0.9172
  756MOL0     C 1962   9.981   4.561   7.326  0.7170 -0.0851  0.0073
  756MOL0     C 1963   9.861   4.608   7.243  0.2055 -0.0032  0.1317
  756MOL0     C 1964   9.794   4.494   7.158  0.3542  0.4227  0.9170
  756MOL0     C 1965   9.852   4.501   7.014 -0.7348  0.3254  0.3336
  756MOL0     C 1966   9.799   4.396   6.928  0.4516 -0.1363  0.1370
  756MOL0     C 1967   9.890   4.273   6.921 -0.9126 -1.0158 -0.3950
  756MOL0     C 1968   9.853   4.165   6.818 -0.0252 -0.1551 -0.5891
  756MOL0     C 1969   9.932   4.035   6.836 -0.1999  0.0625  0.7093
  756MOL0    Cl 1970  10.100   4.070   6.824 -0.0836 -0.2284 -0.1097
  756MOL0     C 1971  10.299   4.457   7.202 -0.3579 -0.2217 -0.0642
  756MOL0     C 1972  10.423   4.418   7.246 -0.6216 -0.0184 -0.9811
  756MOL0     O 1973  10.614   4.558   7.454 -0.0558  0.1249 -0.6731
  756MOL0     C 1974  10.816   4.270   7.509  0.9028  0.4434  0.0830
  756MOL0     C 1975  10.939   4.234   7.552  0.9538 -0.8502 -1.0610
  756MOL0     N 1976  11.188   4.140   7.132  0.4497  0.3120  0.2263
  756MOL0     N 1977  11.072   4.077   7.091  0.2181  0.2078  0.4411
  756MOL0     C 1978  10.230   3.296   6.717  0.0993  0.9599  0.3274
  756MOL0     C 1979  10.136   3.262   6.626 -0.6261 -0.4206 -0.2925
  756MOL0     C 1980   9.932   2.922   6.350  0.5758  0.4999 -0.3400
  756MOL0     C 1981   9.941   2.974   6.221 -0.6077  0.0175 -1.2192
  756MOL0     C 1982   9.895   2.912   6.111 -0.2835 -0.8921 -0.7489
  756MOL0     C 1983   9.833   2.786   6.121  0.5377 -0.6412 -0.5274
  756MOL0     O 1984   9.775   2.724   6.019  0.0820 -0.4905  0.5659
  756MOL0     C 1985   9.769   2.787   5.892 -0.3299  0.4294 -0.1697
  756MOL0     C 1986   9.715   2.690   5.786  0.3975  0.0722 -0.0017
  756MOL0     C 1987   9.809   2.576   5.755  0.1946  0.4077 -0.7773
  756MOL0     C 1988   9.740   2.458   5.685  0.8308  0.5226 -0.1461
  756MOL0     C 1989   9.692   2.474   5.545 -0.1308  0.1020  0.6270
  756MOL0     C 1990   9.662   2.497   5.430 -0.4066  0.5224  0.2667
  756MOL0     C 1991   9.825   2.721   6.246  0.3494  0.8467 -0.5855
  756MOL0     C 1992   9.868   2.794   6.358  1.2554  0.2613  0.4709
  756MOL0     H 1993  10.292   3.005   6.475  0.7268  0.3893 -1.1642
  756MOL0     H 1994  10.470   3.061   6.652 -1.1213 -0.7746  1.5666
  756MOL0     H 1995  10.523   3.110   6.867 -0.3405  0.7472 -0.3384
  756MOL0     H 1996  10.619   3.206   6.749 -0.2986 -3.3299  0.2964
  756MOL0     H 1997  10.598   3.249   7.043  0.4904  3.8258 -0.3584
  756MOL0     H 1998  10.724   3.170   6.964 -2.1973 -1.7634  1.5434
  756MOL0     H 1999  10.697   3.424   6.837 -1.0955 -1.8408  0.1318
  756MOL0     H 2000  10.673   3.468   7.004  0.6779 -1.4063  2.5526
  756MOL0     H 2001  10.880   3.342   7.077  2.2869  0.4237  0.5056
  756MOL0     H 2002  10.911   3.291   6.911  2.2385  1.4620 -1.1994
  756MOL0     H 2003  11.057   3.471   6.975 -0.6841 -2.6735 -0.0791
  756MOL0     H 2004  10.948   3.534   6.855 -0.3422  1.1135  0.5443
  756MOL0     H 2005  10.810   3.652   7.012 -0.4347 -0.8098 -0.5833
  756MOL0     H 2006  10.895   3.579   7.154  1.2960  1.2030  0.0686
  756MOL0     H 2007  11.096   3.685   7.123  1.2333 -0.8853 -0.7032
  756MOL0     H 2008  11.059   3.764   6.971 -2.5639  1.2368 -1.0491
  756MOL0     H 2009  10.931   3.815   7.242 -1.8309 -0.3131 -1.3127
  756MOL0     H 2010  10.883   3.898   7.093  0.8323  1.5002  0.0906
  756MOL0     H 2011  11.227   3.873   7.301  0.7902  0.0859 -0.8655
  756MOL0     H 2012  11.445   4.035   7.309  0.7981  0.0585 -2.2615
  756MOL0     H 2013  11.426   4.193   7.236  1.0419  1.8329  4.2609
  756MOL0     H 2014  11.273   4.273   7.397  1.4644  1.5659  0.2446
  756MOL0     H 2015  11.416   4.218   7.482 -2.9839  0.8875  3.3843
  756MOL0     H 2016  11.279   4.000   7.538 -2.5398 -0.0535  1.9882
  756MOL0     H 2017  11.135   4.076   7.464 -0.7863 -0.8914  1.7344
  756MOL0     H 2018  11.280   4.148   7.721 -2.5813  2.0239  2.7296
  756MOL0     H 2019  11.113   4.095   7.698 -2.4686  2.5605  1.5319
  756MOL0     H 2020  11.061   4.533   7.645 -2.3065 -0.2216  2.3215
  756MOL0     H 2021  10.814   4.691   7.488  2.9378 -2.0310 -0.8638
  756MOL0     H 2022  10.749   4.653   7.655 -0.4369  1.6423  0.2414
  756MOL0     H 2023  10.916   4.706   7.619 -0.5001 -0.8867  0.2043
  756MOL0     H 2024  10.335   4.337   7.567  2.1589  1.1266 -0.5227
  756MOL0     H 2025  10.123   4.405   7.491  0.2650 -1.5951 -0.1361
  756MOL0     H 2026   9.947   4.485   7.397  2.2545 -0.6055  0.2118
  756MOL0     H 2027  10.022   4.643   7.386  1.2908 -0.9218  0.7875
  756MOL0     H 2028   9.784   4.631   7.317  1.1186  3.5885  0.1635
  756MOL0     H 2029   9.877   4.703   7.192 -0.8892  0.2361  0.2114
  756MOL0     H 2030   9.684   4.496   7.156  0.3307 -0.6991  0.5929
  756MOL0     H 2031   9.824   4.402   7.208  0.1515 -0.3300 -0.3268
  756MOL0     H 2032   9.830   4.601   6.974  0.2697  0.7081  0.6887
  756MOL0     H 2033   9.961   4.496   7.008 -0.7809  0.2916 -0.7579
  756MOL0     H 2034   9.794   4.443   6.829  0.5624  0.7045  0.5194
  756MOL0     H 2035   9.696   4.371   6.955  0.0890 -0.2117 -1.2591
  756MOL0     H 2036   9.989   4.310   6.892 -0.2642 -2.6314 -0.3193
  756MOL0     H 2037   9.913   4.224   7.016  3.6163  0.1425 -0.6689
  756MOL0     H 2038   9.874   4.199   6.716  0.7568  0.9752 -0.0770
  756MOL0     H 2039   9.746   4.146   6.831 -0.0203  0.7219  0.8850
  756MOL0     H 2040   9.911   3.963   6.757  1.5802  0.8131 -0.5386
  756MOL0     H 2041   9.913   3.985   6.931 -0.2180 -1.9383 -0.3081
  756MOL0     H 2042  10.285   4.506   7.106  0.4125  4.1003  1.7824
  756MOL0     H 2043  10.504   4.420   7.173  0.4043 -2.0537  0.0070
  756MOL0     H 2044  10.749   4.194   7.469  2.4576 -1.3575  0.7455
  756MOL0     H 2045  10.947   4.126   7.547 -3.0544 -1.4437  0.9561
  756MOL0     H 2046  10.206   3.380   6.782 -1.4429  2.2678 -1.8028
  756MOL0     H 2047  10.035   3.302   6.628 -0.7050 -0.5911  1.9566
  756MOL0     H 2048   9.987   3.070   6.202  0.7958 -1.0308 -3.5901
  756MOL0     H 2049   9.914   2.966   6.019  1.0063  1.1245  0.6205
  756MOL0     H 2050   9.693   2.864   5.909 -2.7884 -1.3892 -2.2195
  756MOL0     H 2051   9.860   2.829   5.848  2.4892 -4.8245 -0.1015
  756MOL0     H 2052   9.691   2.739   5.691  1.4349  2.3117  0.8355
  756MOL0     H 2053   9.618   2.649   5.816  1.0931 -2.2511 -0.6911
  756MOL0     H 2054   9.836   2.542   5.855 -4.2345  2.7743  1.5185
  756MOL0     H 2055   9.898   2.601   5.697  0.6067 -2.0572 -1.3537
  756MOL0     H 2056   9.648   2.420   5.730  1.3530 -1.2286 -0.4790
  756MOL0     H 2057   9.817   2.379   5.688  0.1308 -0.2316 -1.3259
  756MOL0     H 2058   9.662   2.517   5.325  0.5260  2.9849  0.6617
  756MOL0     H 2059   9.793   2.620   6.267  0.8048  0.8740  0.3072
  756MOL0     H 2060   9.852   2.741   6.451 -1.4519  1.1157  0.5713
  757MOL0     O 2061   7.539   5.088   7.129  0.3873  0.1766  0.2509
  757MOL0     C 2062   7.431   5.141   7.095  0.7449 -0.3664  0.8342
  757MOL0     O 2063   7.331   5.177   7.181  0.0908 -0.9416 -0.3376
  757MOL0     C 2064   7.333   5.120   7.309 -0.1142  0.2076  0.7066
  757MOL0     C 2065   7.405   5.178   7.411 -0.2480  0.2203 -0.0848
  757MOL0     C 2066   7.388   5.136   7.543 -0.1415  0.1502 -0.0815
  757MOL0     C 2067   7.308   5.030   7.579 -0.5475 -1.1101 -0.3287
  757MOL0     O 2068   7.290   4.991   7.710 -0.4913 -0.3135  0.8019
  757MOL0     C 2069   7.165   4.943   7.768  0.3192 -0.7904 -0.6238
  757MOL0     C 2070   7.166   4.921   7.920  0.3588  0.0465  0.3458
  757MOL0     C 2071   7.288   4.828   7.953  0.4027  0.2352 -0.1117
  757MOL0     C 2072   7.329   4.802   8.102 -0.0534  0.2464  0.1721
  757MOL0     C 2073   7.459   4.721   8.109  0.2972  0.1898 -0.2577
  757MOL0     C 2074   7.496   4.669   8.241 -0.1681  0.3310  0.2664
  757MOL0     C 2075   7.544   4.781   8.330 -0.9494 -0.4970 -0.5053
  757MOL0     C 2076   7.705   4.799   8.302 -0.3437 -0.2720 -0.5533
  757MOL0     N 2077   7.766   4.871   8.415  0.2444 -0.4744  0.4200
  757MOL0     C 2078   7.800   4.796   8.524 -1.0498  0.2708 -0.3453
  757MOL0     C 2079   7.875   4.878   8.600 -0.1091  0.2430  0.6460
  757MOL0     C 2080   7.945   4.836   8.724  0.2629  0.0311  0.4399
  757MOL0     C 2081   8.093   4.866   8.712 -0.0531 -0.4098  0.3198
  757MOL0     C 2082   8.131   5.015   8.708  0.1105 -0.2214  1.1381
  757MOL0     C 2083   8.275   5.035   8.723 -0.4150  0.1779  0.5140
  757MOL0     O 2084   8.324   4.995   8.857  0.1168 -0.6409 -0.3230
  757MOL0     C 2085   8.464   4.991   8.874 -0.3729  0.2766  1.2541
  757MOL0     C 2086   8.505   4.925   8.979 -0.5148  0.1183  0.1493
  757MOL0     C 2087   8.645   4.908   9.000 -1.2816  0.4156  0.1631
  757MOL0     C 2088   8.693   4.822   9.119 -0.6329 -0.9042 -0.3104
  757MOL0     C 2089   8.738   4.984   8.915 -0.6388 -0.4330  0.5739
  757MOL0     C 2090   8.891   4.985   8.927  0.2733  1.0516  0.2439
  757MOL0     O 2091   8.954   4.901   9.022 -0.1811 -0.6119 -0.4929
  757MOL0     C 2092   9.088   4.923   9.035  0.1332  0.2608  0.1031
  757MOL0     C 2093   9.183   4.866   8.954 -1.1382 -0.8875  0.9751
  757MOL0     C 2094   9.320   4.884   8.976  0.4246  0.2574 -0.6597
  757MOL0     C 2095   9.364   4.959   9.085  0.2823  0.2263 -0.4263
  757MOL0     O 2096   9.503   4.961   9.093  0.0167  0.5001  0.0141
  757MOL0     C 2097   9.555   5.061   9.184 -0.0966 -0.0172  0.1853
  757MOL0     C 2098   9.703   5.044   9.221  0.6923 -0.4501  0.6812
  757MOL0     C 2099   9.789   5.097   9.107  0.0933  0.0915 -0.5186
  757MOL0     C 2100   9.933   5.053   9.100 -0.0879 -0.3576  0.5824
  757MOL0     C 2101   9.999   5.069   8.971 -0.2537 -0.8932  0.3280
  757MOL0     C 2102  10.017   5.214   8.917 -0.8141  0.6223 -0.0922
  757MOL0     C 2103  10.124   5.220   8.798  0.2316 -0.0427 -0.0724
  757MOL0     C 2104  10.113   5.357   8.724  0.5331 -0.2442 -0.7470
  757MOL0    Cl 2105  10.186   5.477   8.845 -0.5322 -0.2876  0.0809
  757MOL0     C 2106   9.268   5.012   9.176 -0.2713 -0.8605  0.1774
  757MOL0     C 2107   9.130   4.992   9.150 -0.0309 -0.1669  0.5058
  757MOL0     O 2108   8.951   5.063   8.845  0.1863 -0.1630 -1.0238
  757MOL0     C 2109   8.689   5.053   8.805  0.3721 -0.3528  0.4333
  757MOL0     C 2110   8.554   5.052   8.788 -0.3714  0.4080  0.9861
  757MOL0     N 2111   7.883   4.999   8.539  0.3196  0.0212  0.2901
  757MOL0     N 2112   7.817   4.995   8.425  0.2467 -0.2414 -0.1657
  757MOL0     C 2113   7.231   4.975   7.477 -0.3936 -0.2451  0.0192
  757MOL0     C 2114   7.248   5.015   7.347 -0.2175  0.5214  0.8642
  757MOL0     C 2115   7.414   5.190   6.948 -0.4417 -0.5757 -0.4299
  757MOL0     C 2116   7.486   5.134   6.845 -0.3399  0.2861 -0.2320
  757MOL0     C 2117   7.481   5.173   6.712 -0.0945  0.0421  0.4615
  757MOL0     C 2118   7.385   5.264   6.675 -0.6216  0.1332 -0.2906
  757MOL0     O 2119   7.376   5.293   6.539 -0.5700  0.7733  0.7720
  757MOL0     C 2120   7.249   5.315   6.485 -0.5062  0.8060 -0.2057
  757MOL0     C 2121   7.164   5.186   6.480  0.6512 -0.1260  0.6620
  757MOL0     C 2122   7.222   5.063   6.405 -0.1497  0.1503 -0.1284
  757MOL0     C 2123   7.263   5.101   6.257 -0.4202 -0.6415  0.3364
  757MOL0     C 2124   7.295   4.984   6.186  0.2401 -0.2833 -0.3437
  757MOL0     C 2125   7.317   4.874   6.124  0.8459 -0.3657 -0.3429
  757MOL0     C 2126   7.309   5.323   6.779 -0.3850 -0.5858  0.3746
  757MOL0     C 2127   7.325   5.292   6.916  0.0452 -0.7102 -0.5051
  757MOL0     H 2128   7.456   5.271   7.391 -1.0594  0.4172 -1.3223
  757MOL0     H 2129   7.418   5.204   7.622 -2.2089 -0.5102  1.3501
  757MOL0     H 2130   7.082   5.007   7.736  1.4039  1.5687  1.0389
  757MOL0     H 2131   7.154   4.843   7.724  2.6103 -1.1622 -0.4486
  757MOL0     H 2132   7.166   5.018   7.970 -0.8782  1.3936 -2.0876
  757MOL0     H 2133   7.070   4.869   7.932 -0.1096  0.0205 -2.6153
  757MOL0     H 2134   7.275   4.728   7.911  3.4697 -1.2827  2.1237
  757MOL0     H 2135   7.378   4.874   7.912  0.1305 -1.5188 -2.8995
  757MOL0     H 2136   7.348   4.900   8.146  0.9065 -1.2557  3.4928
  757MOL0     H 2137   7.250   4.757   8.163  1.3345 -3.2770 -0.3953
  757MOL0     H 2138   7.454   4.635   8.043  3.2699  1.0462 -1.7464
  757MOL0     H 2139   7.537   4.787   8.070  1.6075 -0.5994  0.9396
  757MOL0     H 2140   7.421   4.608   8.290  0.3938 -2.1315 -1.7411
  757MOL0     H 2141   7.577   4.598   8.222 -2.3848 -2.0375 -0.8406
  757MOL0     H 2142   7.492   4.875   8.310 -3.5278 -2.1727 -2.2869
  757MOL0     H 2143   7.527   4.757   8.435  0.9776  2.2697  0.5527
  757MOL0     H 2144   7.734   4.847   8.209  0.0466 -0.0107 -0.3011
  757MOL0     H 2145   7.756   4.703   8.307  0.2606  0.0878  0.6649
  757MOL0     H 2146   7.771   4.695   8.550 -3.0836  1.4011  2.1585
  757MOL0     H 2147   7.896   4.898   8.800  0.9842  1.6953 -0.3947
  757MOL0     H 2148   7.931   4.732   8.756  0.8272 -0.2114 -0.0747
  757MOL0     H 2149   8.139   4.804   8.635 -2.2113 -1.1786 -0.4091
  757MOL0     H 2150   8.132   4.841   8.812 -2.4375  2.3802  2.1015
  757MOL0     H 2151   8.086   5.066   8.793 -0.1383 -0.8437  1.3785
  757MOL0     H 2152   8.102   5.066   8.615  2.0184  0.3799  0.8161
  757MOL0     H 2153   8.297   5.140   8.703 -1.7469  0.3706 -0.0365
  757MOL0     H 2154   8.328   4.985   8.641 -2.3263  1.5908 -1.7289
  757MOL0     H 2155   8.429   4.873   9.037  0.1935 -0.4305  0.6028
  757MOL0     H 2156   8.607   4.780   9.172  0.2161  0.9225  2.7669
  757MOL0     H 2157   8.761   4.743   9.086  2.2744  1.1053  0.4552
  757MOL0     H 2158   8.745   4.890   9.188 -2.9364 -0.1533  0.7667
  757MOL0     H 2159   9.143   4.802   8.876  0.9116  1.2416 -2.0464
  757MOL0     H 2160   9.392   4.849   8.903  0.3892 -2.9075  0.6811
  757MOL0     H 2161   9.539   5.162   9.143 -1.9755  0.7762  2.6394
  757MOL0     H 2162   9.513   5.060   9.285  2.5472  1.2708  1.4069
  757MOL0     H 2163   9.736   5.093   9.313 -3.1323 -1.5344  2.8493
  757MOL0     H 2164   9.728   4.939   9.235  1.5874  0.0212  3.1637
  757MOL0     H 2165   9.787   5.204   9.130 -3.8078 -0.3968  2.3283
  757MOL0     H 2166   9.735   5.089   9.012  0.9647 -0.6952 -0.9662
  757MOL0     H 2167   9.989   5.111   9.173  0.9505 -0.2099 -0.3102
  757MOL0     H 2168   9.927   4.947   9.127 -1.8963 -0.1940  0.9844
  757MOL0     H 2169   9.935   5.024   8.894 -0.7986  1.5738 -0.7536
  757MOL0     H 2170  10.094   5.016   8.971  0.8686  1.0274  1.3880
  757MOL0     H 2171   9.917   5.252   8.894 -1.5657 -1.1555  0.0632
  757MOL0     H 2172  10.066   5.269   8.998  0.1860 -0.4807  0.0793
  757MOL0     H 2173  10.098   5.137   8.732  0.4966 -2.2805  2.4542
  757MOL0     H 2174  10.223   5.207   8.842 -0.6214 -1.2051  1.6423
  757MOL0     H 2175  10.009   5.383   8.704  0.1289 -0.5253  0.8869
  757MOL0     H 2176  10.169   5.344   8.630  0.2221 -3.5005 -0.5849
  757MOL0     H 2177   9.298   5.065   9.265  0.1177  1.4054 -1.2221
  757MOL0     H 2178   9.063   5.026   9.228  1.7472 -1.1840  2.5553
  757MOL0     H 2179   8.750   5.114   8.739 -0.8283  1.2627  0.7405
  757MOL0     H 2180   8.518   5.103   8.699 -2.9278 -0.2937  1.5148
  757MOL0     H 2181   7.169   4.890   7.504  0.6753 -1.4865 -1.3013
  757MOL0     H 2182   7.178   4.974   7.276  0.9320  1.8274 -1.1061
  757MOL0     H 2183   7.566   5.069   6.881 -0.3957  0.0526 -0.5183
  757MOL0     H 2184   7.549   5.157   6.630 -0.1616  1.6701  0.0464
  757MOL0     H 2185   7.204   5.397   6.541  0.1250  1.3554 -0.4807
  757MOL0     H 2186   7.274   5.346   6.383  0.7941  0.3644 -0.0453
  757MOL0     H 2187   7.068   5.213   6.434 -0.0637  0.4565  2.4168
  757MOL0     H 2188   7.136   5.153   6.580  0.7144  0.0757  0.7464
  757MOL0     H 2189   7.157   4.976   6.419 -1.3358  1.0298  0.0235
  757MOL0     H 2190   7.311   5.025   6.455 -1.0094 -1.2345  0.4250
  757MOL0     H 2191   7.343   5.176   6.247 -1.7001  0.9807  1.6329
  757MOL0     H 2192   7.176   5.145   6.206  0.9487  0.8302 -0.8465
  757MOL0     H 2193   7.352   4.788   6.071  0.1561 -1.3142  0.6696
  757MOL0     H 2194   7.229   5.394   6.760 -0.8214 -1.2912 -0.4796
  757MOL0     H 2195   7.281   5.355   6.992 -0.5917 -1.0501 -0.5840
  758MOL0     O 2196   4.102   8.754   6.826 -0.4455  0.4038 -0.3611
  758MOL0     C 2197   4.081   8.755   6.705 -0.3975  0.0139 -0.3307
  758MOL0     O 2198   3.976   8.689   6.642 -0.2323 -0.0383  0.4041
  758MOL0     C 2199   3.877   8.626   6.721  0.1185 -0.1247  0.1370
  758MOL0     C 2200   3.820   8.704   6.822  0.5771  0.1589  0.1244
  758MOL0     C 2201   3.722   8.656   6.911 -0.7005  0.3430  0.2987
  758MOL0     C 2202   3.671   8.523   6.889  0.3684  0.2751  0.4686
  758MOL0     O 2203   3.573   8.468   6.975 -0.1911 -0.0785 -0.6465
  758MOL0     C 2204   3.453   8.444   6.912  0.2684 -0.2892 -0.9899
  758MOL0     C 2205   3.358   8.388   7.015  0.6265 -0.3527  0.0468
  758MOL0     C 2206   3.322   8.500   7.119 -0.4471  0.7296  0.5223
  758MOL0     C 2207   3.236   8.458   7.229  1.1208 -0.8647 -0.9197
  758MOL0     C 2208   3.093   8.413   7.191 -1.1948 -0.4941  0.5420
  758MOL0     C 2209   2.999   8.369   7.300 -0.6330 -0.8983  0.3293
  758MOL0     C 2210   2.973   8.470   7.407 -0.2016 -0.7484 -0.6694
  758MOL0     C 2211   2.868   8.584   7.372 -0.4050 -0.0864 -0.3365
  758MOL0     N 2212   2.936   8.707   7.326  0.2999 -0.5738 -0.4699
  758MOL0     C 2213   3.031   8.794   7.389 -0.0620 -0.3839  0.5333
  758MOL0     C 2214   3.076   8.875   7.292 -0.1056 -0.2903  0.7109
  758MOL0     C 2215   3.160   9.001   7.310  0.1839  0.7123 -0.2443
  758MOL0     C 2216   3.298   8.954   7.371  0.5270  0.0397 -0.3178
  758MOL0     C 2217   3.400   9.070   7.367 -1.4106  0.2572  0.3364
  758MOL0     C 2218   3.369   9.189   7.452 -0.2918 -0.9000 -0.5513
  758MOL0     O 2219   3.349   9.152   7.592 -0.4621  0.0114 -0.2515
  758MOL0     C 2220   3.289   9.254   7.662  0.0213 -0.7172 -0.8495
  758MOL0     C 2221   3.308   9.398   7.643 -0.3322 -0.1849  0.8122
  758MOL0     C 2222   3.247   9.492   7.726 -0.6884  1.0244  0.3653
  758MOL0     C 2223   3.282   9.638   7.681  0.1813  0.1683  0.3457
  758MOL0     C 2224   3.189   9.447   7.847  0.6854 -0.4951 -0.4273
  758MOL0     C 2225   3.142   9.535   7.952 -0.7285  1.0824 -0.2589
  758MOL0     O 2226   3.054   9.626   7.903  0.1983  0.0789 -0.2324
  758MOL0     C 2227   3.006   9.726   7.983 -1.0208  0.5082 -0.1343
  758MOL0     C 2228   2.883   9.713   8.048 -0.0251  0.0799  0.4737
  758MOL0     C 2229   2.827   9.814   8.126 -0.2661 -1.0016  0.1413
  758MOL0     C 2230   2.900   9.931   8.147  1.0921  0.3666 -0.3023
  758MOL0     O 2231   2.846  10.045   8.204 -0.2747  0.2579 -0.7031
  758MOL0     C 2232   2.727  10.038   8.280  0.3493 -0.6384  0.3847
  758MOL0     C 2233   2.593  10.040   8.187 -0.2032 -0.6647  0.6975
  758MOL0     C 2234   2.596  10.174   8.123 -0.2542  0.9829 -0.6399
  758MOL0     C 2235   2.457  10.230   8.091 -0.0702 -0.2814  1.0245
  758MOL0     C 2236   2.469  10.386   8.081 -0.1847 -0.1606 -0.3880
  758MOL0     C 2237   2.344  10.459   8.029  0.0627 -0.7466 -0.4488
  758MOL0     C 2238   2.260  10.385   7.912  0.0645  0.2302  0.2270
  758MOL0     C 2239   2.353  10.359   7.796 -0.8602 -0.1906  0.1202
  758MOL0    Cl 2240   2.252  10.273   7.663 -0.1126 -0.4109 -0.4484
  758MOL0     C 2241   3.030   9.936   8.089  0.0594  1.0080 -0.8043
  758MOL0     C 2242   3.087   9.832   8.005  0.1157 -0.3610 -0.3304
  758MOL0     O 2243   3.162   9.506   8.067 -0.4187  0.8169 -0.3227
  758MOL0     C 2244   3.169   9.308   7.868 -0.1950  0.7604 -0.4164
  758MOL0     C 2245   3.216   9.220   7.774  0.9406 -0.0139 -0.5912
  758MOL0     N 2246   3.014   8.846   7.174  0.9196  0.0760 -0.0796
  758MOL0     N 2247   2.942   8.747   7.197  0.5100 -0.3135  0.2308
  758MOL0     C 2248   3.717   8.446   6.786 -0.0092 -0.3786  0.0488
  758MOL0     C 2249   3.820   8.500   6.695  0.0228 -0.3353  0.0403
  758MOL0     C 2250   4.171   8.826   6.613 -0.0028 -0.5700  0.1779
  758MOL0     C 2251   4.189   8.765   6.491  0.4205 -0.0656  0.0793
  758MOL0     C 2252   4.262   8.820   6.388 -0.0361 -0.0135 -0.1036
  758MOL0     C 2253   4.339   8.930   6.418 -0.7913 -0.2840 -0.1589
  758MOL0     O 2254   4.424   8.995   6.334 -0.3892 -0.5248 -0.0003
  758MOL0     C 2255   4.516   8.912   6.267  0.2100  0.2975  0.5420
  758MOL0     C 2256   4.593   9.000   6.164 -0.1069  0.4115 -0.6015
  758MOL0     C 2257   4.671   8.901   6.075  0.1110 -0.3275  0.5894
  758MOL0     C 2258   4.802   8.969   6.025 -0.4990 -0.4390 -0.3900
  758MOL0     C 2259   4.905   8.958   6.121  0.2652  0.2256 -0.2802
  758MOL0     C 2260   4.975   8.953   6.216 -0.6342  0.8177 -0.0492
  758MOL0     C 2261   4.319   8.999   6.544 -0.1821  0.4126  0.7499
  758MOL0     C 2262   4.236   8.953   6.642 -0.0007 -0.6567 -0.0435
  758MOL0     H 2263   3.862   8.801   6.847 -0.8736  1.2605 -1.4806
  758MOL0     H 2264   3.693   8.702   7.005  2.7511  0.5147  1.3863
  758MOL0     H 2265   3.406   8.539   6.883  0.9804  0.2194 -0.5082
  758MOL0     H 2266   3.466   8.370   6.832 -0.2358  0.0412 -1.3838
  758MOL0     H 2267   3.267   8.362   6.961  0.4834 -0.5256  0.3687
  758MOL0     H 2268   3.406   8.309   7.073 -1.0835  0.4632  2.7744
  758MOL0     H 2269   3.409   8.559   7.146  2.8000 -0.7789 -5.0061
  758MOL0     H 2270   3.265   8.570   7.058  0.3867 -1.1037 -2.5788
  758MOL0     H 2271   3.275   8.370   7.281  0.5308  0.3359  1.7370
  758MOL0     H 2272   3.238   8.543   7.298  0.4163 -0.6147 -1.2004
  758MOL0     H 2273   3.050   8.498   7.136 -1.0103  0.5588  1.9602
  758MOL0     H 2274   3.101   8.341   7.109 -0.6696  0.8232 -0.6223
  758MOL0     H 2275   2.904   8.355   7.247 -1.8389  2.7572  1.2140
  758MOL0     H 2276   3.039   8.275   7.338  1.2768 -0.2397  0.0458
  758MOL0     H 2277   2.922   8.420   7.490 -2.5667  1.8477 -0.3870
  758MOL0     H 2278   3.069   8.506   7.444  0.2909 -0.1678 -2.4140
  758MOL0     H 2279   2.805   8.599   7.460  0.0556 -1.1219  0.1840
  758MOL0     H 2280   2.809   8.543   7.288 -0.8264  2.9046 -1.6242
  758MOL0     H 2281   3.063   8.818   7.489 -0.1659  0.9921  0.2495
  758MOL0     H 2282   3.187   9.049   7.216  0.6791 -0.4240 -0.6942
  758MOL0     H 2283   3.114   9.065   7.387 -1.0655 -0.7149  0.2315
  758MOL0     H 2284   3.321   8.868   7.308  0.7289 -0.7669  0.8245
  758MOL0     H 2285   3.290   8.911   7.472  1.2266  1.7855  0.5331
  758MOL0     H 2286   3.418   9.097   7.262  1.7257 -1.3873  0.3554
  758MOL0     H 2287   3.496   9.031   7.400 -1.9109 -1.1541  0.1879
  758MOL0     H 2288   3.268   9.228   7.435 -1.0121 -1.5500  1.8903
  758MOL0     H 2289   3.446   9.264   7.430 -1.5072 -0.0749 -2.2276
  758MOL0     H 2290   3.361   9.433   7.555  0.2698 -0.3096  1.1252
  758MOL0     H 2291   3.376   9.681   7.718 -0.0036 -0.4381  1.5656
  758MOL0     H 2292   3.276   9.647   7.572  3.4267  0.6306  0.0952
  758MOL0     H 2293   3.198   9.700   7.715  0.3239 -0.6523  2.3186
  758MOL0     H 2294   2.830   9.619   8.036 -1.3857  1.0787 -1.8540
  758MOL0     H 2295   2.727   9.794   8.161 -0.2608 -0.9369  0.1927
  758MOL0     H 2296   2.727   9.955   8.352 -3.1232  2.2439  4.2165
  758MOL0     H 2297   2.724  10.127   8.344 -1.3307  0.2783 -0.8637
  758MOL0     H 2298   2.596   9.961   8.111 -0.4568 -0.7313  0.7558
  758MOL0     H 2299   2.502  10.024   8.246 -1.1896  0.3295 -0.4876
  758MOL0     H 2300   2.652  10.160   8.030  1.7880  0.1212  0.6322
  758MOL0     H 2301   2.652  10.249   8.179 -0.5833 -0.2358  1.4160
  758MOL0     H 2302   2.422  10.183   7.999  1.3651  0.9385 -0.1997
  758MOL0     H 2303   2.380  10.210   8.166 -1.2733  2.8225  0.7708
  758MOL0     H 2304   2.555  10.402   8.015 -0.0937  2.1144  0.2098
  758MOL0     H 2305   2.494  10.436   8.174 -1.2759  2.1047 -1.2476
  758MOL0     H 2306   2.283  10.482   8.117 -1.1262 -0.8865 -1.2200
  758MOL0     H 2307   2.374  10.558   7.993  0.2379  0.1750  2.0456
  758MOL0     H 2308   2.179  10.455   7.890 -2.6843 -1.9735  2.6187
  758MOL0     H 2309   2.214  10.293   7.948  0.3022 -0.1787 -0.4832
  758MOL0     H 2310   2.435  10.291   7.820  2.8600  2.1913 -4.0879
  758MOL0     H 2311   2.407  10.451   7.771  0.3691 -0.8492  0.2501
  758MOL0     H 2312   3.090  10.025   8.105 -1.8487  1.7260  3.8133
  758MOL0     H 2313   3.186   9.839   7.962 -0.5481  1.1102 -1.7435
  758MOL0     H 2314   3.125   9.258   7.954  1.9838  2.7831  2.0455
  758MOL0     H 2315   3.205   9.114   7.795 -1.7103  0.5170  1.0373
  758MOL0     H 2316   3.667   8.352   6.763 -0.3611 -0.9481  2.7847
  758MOL0     H 2317   3.854   8.443   6.609 -0.8541 -1.1743  0.2434
  758MOL0     H 2318   4.133   8.677   6.462 -0.2901  0.6809 -0.9195
  758MOL0     H 2319   4.242   8.777   6.290 -2.6544 -0.6401  0.6236
  758MOL0     H 2320   4.586   8.864   6.336  1.7414  1.2406 -0.2783
  758MOL0     H 2321   4.459   8.826   6.232 -2.2867  0.8954  2.8716
  758MOL0     H 2322   4.663   9.065   6.217  0.7885 -1.1815  0.2447
  758MOL0     H 2323   4.520   9.054   6.102 -3.3431  0.0674  2.5264
  758MOL0     H 2324   4.616   8.881   5.983 -0.6750 -1.5745  1.3139
  758MOL0     H 2325   4.681   8.804   6.124 -1.6027 -0.9852 -0.2803
  758MOL0     H 2326   4.785   9.074   5.999  0.5270  0.4524  2.2309
  758MOL0     H 2327   4.841   8.929   5.931  0.2994  2.2155 -1.2832
  758MOL0     H 2328   5.045   8.955   6.297  0.8194  1.6003 -1.2683
  758MOL0     H 2329   4.386   9.080   6.572 -2.3068  1.8493  1.9090
  758MOL0     H 2330   4.219   8.997   6.739  0.5852  1.1446 -0.7206
  759MOL0     O 2331   0.407   2.407  10.724  0.7333  0.1830  0.1228
  759MOL0     C 2332   0.303   2.436  10.670 -0.1910 -0.9749  0.3661
  759MOL0     O 2333   0.302   2.507  10.553  0.3051 -1.3122  0.6928
  759MOL0     C 2334   0.423   2.519  10.484  0.1345  0.2607 -0.6812
  759MOL0     C 2335   0.510   2.628  10.500  0.3516  0.5541 -0.0395
  759MOL0     C 2336   0.637   2.629  10.446 -0.2543  0.9811 -0.4848
  759MOL0     C 2337   0.673   2.515  10.375 -0.1115  0.7828  0.2037
  759MOL0     O 2338   0.796   2.510  10.319 -0.8278 -0.8635  0.8876
  759MOL0     C 2339   0.905   2.571  10.394  0.0276 -0.6848 -0.3459
  759MOL0     C 2340   1.026   2.494  10.334  0.2461 -0.6374 -0.3292
  759MOL0     C 2341   1.128   2.580  10.253  0.2957  0.2219  0.0583
  759MOL0     C 2342   1.073   2.617  10.114  0.1410  0.3192 -0.5824
  759MOL0     C 2343   1.173   2.660  10.016 -0.0920  0.3482 -0.3316
  759MOL0     C 2344   1.266   2.546   9.958 -0.1496 -0.6956  0.1602
  759MOL0     C 2345   1.352   2.603   9.838 -0.1516  0.3345 -0.0242
  759MOL0     C 2346   1.437   2.490   9.779  0.7325 -0.4507 -0.3489
  759MOL0     N 2347   1.581   2.480   9.837 -0.6678 -0.0744 -0.1842
  759MOL0     C 2348   1.691   2.533   9.785  0.3605 -0.0481  0.2245
  759MOL0     C 2349   1.787   2.491   9.872  0.0006 -0.2071 -0.8284
  759MOL0     C 2350   1.932   2.504   9.864  0.0224 -0.4307 -0.3500
  759MOL0     C 2351   2.000   2.410   9.763 -0.4083  0.7228  0.7915
  759MOL0     C 2352   2.145   2.450   9.730 -0.7053  0.6730  0.1117
  759MOL0     C 2353   2.241   2.398   9.834  0.7883 -0.8810 -0.4666
  759MOL0     O 2354   2.377   2.419   9.787 -0.2648 -0.1476  0.0250
  759MOL0     C 2355   2.471   2.426   9.891 -0.8521 -0.0232 -0.2559
  759MOL0     C 2356   2.457   2.402  10.034  0.6529  0.0661  0.0642
  759MOL0     C 2357   2.563   2.402  10.121  0.2832  0.6353 -0.2803
  759MOL0     C 2358   2.532   2.366  10.268  0.5700 -0.7924 -1.1473
  759MOL0     C 2359   2.692   2.423  10.072  0.7208  0.9032 -0.1927
  759MOL0     C 2360   2.807   2.440  10.164  0.1694  0.7425  0.3419
  759MOL0     O 2361   2.918   2.384  10.140  0.2389  0.8632  0.3613
  759MOL0     C 2362   3.019   2.396  10.232  1.1219  0.4395  0.2553
  759MOL0     C 2363   3.145   2.413  10.185 -0.1696 -0.0946  0.2374
  759MOL0     C 2364   3.248   2.437  10.272  0.5115 -0.0537 -0.0692
  759MOL0     C 2365   3.233   2.421  10.409 -0.2812 -0.4453  0.5515
  759MOL0     O 2366   3.326   2.420  10.504  0.3214 -0.1337 -0.3270
  759MOL0     C 2367   3.460   2.425  10.466  0.0926 -0.4707  0.5960
  759MOL0     C 2368   3.541   2.467  10.583  0.4643  1.2500  0.2036
  759MOL0     C 2369   3.687   2.489  10.538  0.3198  0.1085 -0.0296
  759MOL0     C 2370   3.779   2.534  10.649 -0.5112 -0.4400 -0.0916
  759MOL0     C 2371   3.909   2.596  10.603  0.4693  0.2868 -0.9520
  759MOL0     C 2372   4.018   2.581  10.725 -0.3822  0.0804  0.9057
  759MOL0     C 2373   4.163   2.598  10.691 -0.6731 -0.6797 -0.4813
  759MOL0     C 2374   4.224   2.737  10.687 -0.0883 -0.7016 -1.1110
  759MOL0    Cl 2375   4.347   2.769  10.563 -0.3507  0.3769  0.3365
  759MOL0     C 2376   3.107   2.388  10.459  0.4124  0.2595  0.2807
  759MOL0     C 2377   2.997   2.373  10.368 -1.0435  0.3633  0.6296
  759MOL0     O 2378   2.792   2.529  10.241 -0.5784  0.2029  0.1487
  759MOL0     C 2379   2.710   2.439   9.936 -0.4347  0.5540 -0.6631
  759MOL0     C 2380   2.600   2.438   9.849 -1.2683 -0.0064 -0.0815
  759MOL0     N 2381   1.732   2.426   9.984  0.0330  0.6363  0.0277
  759MOL0     N 2382   1.605   2.416   9.955 -0.2004  0.2271  0.5397
  759MOL0     C 2383   0.581   2.411  10.344 -0.0018 -0.3782  0.1157
  759MOL0     C 2384   0.452   2.413  10.398  0.1339 -0.2363 -0.4672
  759MOL0     C 2385   0.186   2.402  10.739 -0.1588  0.1259  0.7423
  759MOL0     C 2386   0.195   2.319  10.855 -0.4761 -0.1108  1.1095
  759MOL0     C 2387   0.082   2.293  10.928 -0.1753  0.5399 -0.3076
  759MOL0     C 2388  -0.040   2.341  10.892 -0.3741  0.0887 -0.4952
  759MOL0     O 2389  -0.136   2.293  10.970  0.1528 -0.1370  0.5503
  759MOL0     C 2390  -0.223   2.391  11.029 -0.1272  0.6079 -0.7907
  759MOL0     C 2391  -0.147   2.488  11.129  0.4764  1.5178 -0.1912
  759MOL0     C 2392  -0.110   2.412  11.257  0.2036 -0.1660  0.7240
  759MOL0     C 2393  -0.063   2.521  11.351  0.2045  1.1582  0.4073
  759MOL0     C 2394   0.066   2.584  11.302  0.7158 -0.1989  0.2038
  759MOL0     C 2395   0.179   2.612  11.256 -0.0207  0.1287  1.4020
  759MOL0     C 2396  -0.047   2.420  10.779  0.2986 -0.1215 -1.2827
  759MOL0     C 2397   0.062   2.444  10.700  0.4890  0.4475 -0.6209
  759MOL0     H 2398   0.486   2.718  10.555 -0.4759 -0.0237  0.5509
  759MOL0     H 2399   0.707   2.712  10.451  0.4988  0.6884 -3.7738
  759MOL0     H 2400   0.921   2.678  10.378  1.2286 -1.0405 -1.7611
  759MOL0     H 2401   0.902   2.544  10.500 -1.8512  0.7892  0.0181
  759MOL0     H 2402   1.077   2.443  10.417 -1.8634 -0.4832  1.1172
  759MOL0     H 2403   0.989   2.415  10.268  3.2228 -2.5133  0.0053
  759MOL0     H 2404   1.169   2.653  10.324  0.4619 -3.8448  4.5879
  759MOL0     H 2405   1.213   2.513  10.235 -1.2308 -1.8373  0.2905
  759MOL0     H 2406   1.023   2.530  10.072 -0.9154  0.1008  1.0370
  759MOL0     H 2407   1.005   2.702  10.126  2.5217  2.1910  0.6144
  759MOL0     H 2408   1.118   2.695   9.929 -0.1437  1.3101  0.0669
  759MOL0     H 2409   1.230   2.733  10.075 -2.1227  0.6740  1.3177
  759MOL0     H 2410   1.325   2.512  10.044 -0.1406  0.4835  0.6405
  759MOL0     H 2411   1.191   2.476   9.918 -1.4164  2.0646 -2.7483
  759MOL0     H 2412   1.291   2.653   9.762 -0.8957  1.0959  1.0475
  759MOL0     H 2413   1.422   2.675   9.881  0.7911  1.0553 -2.6148
  759MOL0     H 2414   1.444   2.528   9.676 -1.7113 -0.0652 -0.4343
  759MOL0     H 2415   1.389   2.392   9.772  2.4368 -1.2181 -2.4015
  759MOL0     H 2416   1.706   2.562   9.681  0.1905 -0.1891  0.1603
  759MOL0     H 2417   1.955   2.608   9.837 -0.3716 -0.4007 -0.5844
  759MOL0     H 2418   1.978   2.481   9.960 -0.3179 -2.2332 -0.5938
  759MOL0     H 2419   1.957   2.423   9.663  0.6066  0.7286  0.3407
  759MOL0     H 2420   1.997   2.306   9.797  2.8331 -0.4396 -1.8719
  759MOL0     H 2421   2.162   2.557   9.717 -3.0405  1.1109  0.1284
  759MOL0     H 2422   2.176   2.396   9.640  3.3795  1.8687  0.6247
  759MOL0     H 2423   2.227   2.295   9.866 -0.7527  0.1979  2.7025
  759MOL0     H 2424   2.215   2.444   9.930 -1.8552 -1.3907 -0.8586
  759MOL0     H 2425   2.358   2.391  10.078  1.3303 -0.0164  1.6565
  759MOL0     H 2426   2.472   2.274  10.262 -1.7312  0.6645 -2.1673
  759MOL0     H 2427   2.620   2.364  10.332  0.6905 -0.7973 -1.3135
  759MOL0     H 2428   2.465   2.436  10.319  1.5601 -2.0842  2.1433
  759MOL0     H 2429   3.156   2.429  10.078 -1.8590 -0.4112 -0.0129
  759MOL0     H 2430   3.346   2.452  10.228  0.2673  0.4292 -0.4459
  759MOL0     H 2431   3.500   2.328  10.434  0.9894  0.5683 -1.7233
  759MOL0     H 2432   3.474   2.498  10.385 -4.5047 -0.6224 -0.5799
  759MOL0     H 2433   3.500   2.555  10.634 -0.2643  0.7947  0.4150
  759MOL0     H 2434   3.536   2.374  10.641  2.5948 -1.4796 -3.4988
  759MOL0     H 2435   3.693   2.565  10.460 -1.6831  1.8628  1.4026
  759MOL0     H 2436   3.733   2.401  10.494 -0.1769 -0.9901  1.5532
  759MOL0     H 2437   3.719   2.608  10.703  3.1505  3.9650 -1.4514
  759MOL0     H 2438   3.806   2.452  10.717 -0.2443 -1.1754 -1.0560
  759MOL0     H 2439   3.890   2.699  10.574  0.4057  0.6998  0.5129
  759MOL0     H 2440   3.942   2.529  10.523  0.5768 -1.4477  0.4817
  759MOL0     H 2441   3.986   2.630  10.817  1.3665  1.5249  0.7911
  759MOL0     H 2442   4.015   2.473  10.744  2.6478 -0.6243 -1.7558
  759MOL0     H 2443   4.194   2.544  10.601  2.0132 -1.9909  1.1253
  759MOL0     H 2444   4.218   2.556  10.775  1.8452  2.5562 -0.2851
  759MOL0     H 2445   4.256   2.754  10.791 -2.9255 -2.5952  0.2082
  759MOL0     H 2446   4.145   2.811  10.671 -1.2944 -1.4339  1.0201
  759MOL0     H 2447   3.083   2.383  10.565 -0.3015  1.7944  0.2173
  759MOL0     H 2448   2.900   2.339  10.402 -0.5118 -1.5609  0.3375
  759MOL0     H 2449   2.812   2.436   9.899 -1.4420  2.9881 -4.2555
  759MOL0     H 2450   2.620   2.441   9.742 -4.4445 -0.0846 -0.7609
  759MOL0     H 2451   0.600   2.322  10.285 -0.2664 -1.1819  1.2054
  759MOL0     H 2452   0.386   2.328  10.387  1.4787 -1.5050  0.7878
  759MOL0     H 2453   0.286   2.274  10.894  0.1735 -2.2776 -2.4461
  759MOL0     H 2454   0.093   2.219  11.006  3.4237  1.6155  0.3815
  759MOL0     H 2455  -0.262   2.445  10.943 -1.3255 -3.2045 -2.8368
  759MOL0     H 2456  -0.310   2.346  11.076  0.1748  1.6934  0.9195
  759MOL0     H 2457  -0.222   2.566  11.149 -0.6061  1.0998 -2.3351
  759MOL0     H 2458  -0.058   2.528  11.079  3.0574 -1.1701  1.9199
  759MOL0     H 2459  -0.026   2.343  11.245 -1.0545 -1.5591 -0.6039
  759MOL0     H 2460  -0.196   2.361  11.302  0.0054  0.2620  0.8291
  759MOL0     H 2461  -0.053   2.470  11.447 -1.2495 -0.0362 -0.0235
  759MOL0     H 2462  -0.139   2.598  11.365  0.6842  1.4138  1.7043
  759MOL0     H 2463   0.267   2.641  11.202  0.1551  0.4025  1.8263
  759MOL0     H 2464  -0.140   2.466  10.749  0.8528  1.4765 -0.6593
  759MOL0     H 2465   0.050   2.508  10.614 -1.0694  0.5305 -0.3536
  760MOL0     O 2466   6.750   6.085   1.872 -0.2146  0.5010 -0.6591
  760MOL0     C 2467   6.643   6.090   1.938  0.4209 -0.2494  0.1904
  760MOL0     O 2468   6.626   6.044   2.068  1.3014 -0.0279 -0.2829
  760MOL0     C 2469   6.738   5.979   2.120 -0.3509  0.3074 -0.2412
  760MOL0     C 2470   6.859   6.050   2.160  0.2562  0.5566 -0.0130
  760MOL0     C 2471   6.960   5.975   2.219 -0.2732  0.0706 -0.9504
  760MOL0     C 2472   6.943   5.834   2.247 -0.0948 -0.1866  0.3455
  760MOL0     O 2473   7.041   5.752   2.286 -0.2109  0.2829 -0.0474
  760MOL0     C 2474   7.152   5.796   2.372  0.0655 -0.7665 -0.9313
  760MOL0     C 2475   7.290   5.807   2.305  0.3863 -0.3989  0.2302
  760MOL0     C 2476   7.412   5.798   2.411 -0.1577 -0.4580 -0.8635
  760MOL0     C 2477   7.548   5.844   2.355 -0.3171 -0.0818  1.0170
  760MOL0     C 2478   7.669   5.831   2.444  0.1339  0.9196  0.0639
  760MOL0     C 2479   7.804   5.894   2.407 -0.4331 -0.1045  0.2855
  760MOL0     C 2480   7.838   5.890   2.254 -0.1484  0.0858  0.8347
  760MOL0     C 2481   7.785   6.006   2.163  0.4634  0.7125 -0.5380
  760MOL0     N 2482   7.782   5.957   2.025  0.5540  0.3725  0.4040
  760MOL0     C 2483   7.893   5.973   1.938 -0.3234 -0.5996 -0.3450
  760MOL0     C 2484   7.845   5.924   1.819  0.1446  0.8660 -0.1752
  760MOL0     C 2485   7.928   5.909   1.697 -0.0768 -0.1294 -0.2436
  760MOL0     C 2486   8.064   5.844   1.733 -0.3681 -0.9287 -0.0368
  760MOL0     C 2487   8.130   5.790   1.597  0.8794  0.2864  0.1729
  760MOL0     C 2488   8.117   5.883   1.477  0.1610  0.2205  0.3381
  760MOL0     O 2489   8.174   5.812   1.363 -0.9933  0.0495  0.0372
  760MOL0     C 2490   8.121   5.841   1.233 -0.1802  0.2035 -0.9646
  760MOL0     C 2491   8.149   5.747   1.138 -0.8079 -0.2921 -0.1249
  760MOL0     C 2492   8.100   5.768   1.004  0.2145  0.2234 -0.4666
  760MOL0     C 2493   8.146   5.663   0.911  0.0528 -0.4716 -0.1747
  760MOL0     C 2494   8.029   5.892   0.976 -0.5042 -0.5112 -0.1113
  760MOL0     C 2495   7.985   5.940   0.846 -0.2770  0.6027  0.1360
  760MOL0     O 2496   8.021   5.861   0.740 -0.4453  1.2629 -0.2537
  760MOL0     C 2497   7.970   5.879   0.619  0.7413 -0.5407 -0.0601
  760MOL0     C 2498   7.976   5.994   0.538  0.7220  0.6261 -0.0885
  760MOL0     C 2499   7.909   6.006   0.417 -0.7363  0.3384 -0.5501
  760MOL0     C 2500   7.828   5.904   0.370  0.3595 -0.5298 -0.0913
  760MOL0     O 2501   7.755   5.904   0.247  0.1617 -0.3553 -0.2447
  760MOL0     C 2502   7.798   6.000   0.149 -0.3689  0.1339  0.3776
  760MOL0     C 2503   7.716   5.988   0.029  0.1031  0.0295 -0.0937
  760MOL0     C 2504   7.589   6.068   0.055  0.5488 -0.1932  0.4510
  760MOL0     C 2505   7.471   6.011  -0.029  0.2829 -0.2708 -0.5293
  760MOL0     C 2506   7.348   6.094  -0.000  0.1470  0.3630  0.3539
  760MOL0     C 2507   7.219   6.023  -0.019  0.5057 -0.0528 -0.3139
  760MOL0     C 2508   7.190   5.972  -0.162 -0.1784 -0.1044  0.3101
  760MOL0     C 2509   7.183   6.069  -0.274  0.0884 -0.3784 -0.0460
  760MOL0    Cl 2510   7.027   6.152  -0.251  0.4153 -0.0267  0.3595
  760MOL0     C 2511   7.826   5.785   0.441  0.8902  0.1592  0.1066
  760MOL0     C 2512   7.890   5.780   0.569 -0.8512 -0.8680 -0.3770
  760MOL0     O 2513   7.927   6.049   0.837  1.5444  0.0772  0.7646
  760MOL0     C 2514   8.010   5.990   1.075 -0.4729  0.3029  0.6117
  760MOL0     C 2515   8.058   5.960   1.197  0.3698 -0.3350  0.1154
  760MOL0     N 2516   7.723   5.867   1.838  0.0605  1.0322  0.2950
  760MOL0     N 2517   7.678   5.897   1.957 -0.7030 -0.3225  0.4461
  760MOL0     C 2518   6.824   5.768   2.216 -0.5042 -0.3628 -0.0541
  760MOL0     C 2519   6.732   5.841   2.139  0.3872  0.7070  0.3613
  760MOL0     C 2520   6.530   6.153   1.864  0.2874  0.4655 -0.7283
  760MOL0     C 2521   6.508   6.112   1.728  0.6767  0.0748 -0.2980
  760MOL0     C 2522   6.416   6.172   1.648  0.7169  0.5655 -0.1764
  760MOL0     C 2523   6.334   6.275   1.690 -1.4891 -1.1513  0.1466
  760MOL0     O 2524   6.239   6.308   1.598 -0.6308 -0.9114 -0.0756
  760MOL0     C 2525   6.146   6.412   1.621  0.4170 -0.4021 -0.9302
  760MOL0     C 2526   6.197   6.556   1.649  0.1357  0.4247 -0.1615
  760MOL0     C 2527   6.077   6.651   1.656  0.7763 -0.5470 -0.1727
  760MOL0     C 2528   6.104   6.799   1.685  0.0544 -0.6975 -0.6567
  760MOL0     C 2529   6.151   6.808   1.819  0.6172 -0.0617  0.5140
  760MOL0     C 2530   6.168   6.801   1.938 -0.8367 -0.8697 -0.0455
  760MOL0     C 2531   6.357   6.314   1.825  0.2628 -0.4865  0.7598
  760MOL0     C 2532   6.453   6.259   1.905 -0.2741 -0.2675  0.3123
  760MOL0     H 2533   6.855   6.153   2.126 -0.9925  0.6559  0.4020
  760MOL0     H 2534   7.062   6.011   2.222  1.0622 -3.4074 -0.1952
  760MOL0     H 2535   7.124   5.880   2.437 -2.2494 -1.8600 -0.4260
  760MOL0     H 2536   7.170   5.718   2.447  2.5468 -0.3302 -0.9984
  760MOL0     H 2537   7.311   5.732   2.227  1.8618 -0.1514  0.3616
  760MOL0     H 2538   7.313   5.906   2.264  4.2524 -0.7423  1.1645
  760MOL0     H 2539   7.381   5.858   2.497 -1.0502  1.4618 -2.4344
  760MOL0     H 2540   7.416   5.693   2.442 -0.4838 -0.1166  0.4118
  760MOL0     H 2541   7.572   5.786   2.265 -0.9472  0.8877  0.1966
  760MOL0     H 2542   7.534   5.946   2.318  2.3495 -0.6436 -2.0783
  760MOL0     H 2543   7.637   5.870   2.541  0.9307  0.8945  0.3373
  760MOL0     H 2544   7.679   5.723   2.462 -0.8781  0.4589 -1.8174
  760MOL0     H 2545   7.804   5.998   2.439  0.9179 -0.1779  0.5918
  760MOL0     H 2546   7.880   5.850   2.473 -1.1290  0.7207  1.6950
  760MOL0     H 2547   7.947   5.883   2.252 -0.0912  1.1147 -0.2265
  760MOL0     H 2548   7.791   5.798   2.218 -1.4110  1.0431 -0.0410
  760MOL0     H 2549   7.854   6.091   2.170 -0.7219  1.6050  0.9847
  760MOL0     H 2550   7.680   6.025   2.185 -0.7419 -2.9201 -2.2583
  760MOL0     H 2551   7.985   6.028   1.956 -0.1229 -1.2972  0.8888
  760MOL0     H 2552   7.868   5.846   1.630 -2.2842  1.2911  0.2935
  760MOL0     H 2553   7.948   6.011   1.661  0.7872  1.1620  3.4818
  760MOL0     H 2554   8.054   5.760   1.802 -1.8311 -0.3913  0.4397
  760MOL0     H 2555   8.120   5.922   1.786 -0.8849 -0.2414 -0.4939
  760MOL0     H 2556   8.070   5.699   1.582 -2.1853  2.2035 -0.1164
  760MOL0     H 2557   8.233   5.759   1.615  0.2834 -0.2040  3.1985
  760MOL0     H 2558   8.164   5.979   1.501 -0.4204  0.5964 -0.0302
  760MOL0     H 2559   8.011   5.900   1.459 -0.3053 -1.9924  0.6702
  760MOL0     H 2560   8.211   5.661   1.159 -2.6153 -1.4905  0.5465
  760MOL0     H 2561   8.210   5.706   0.834  1.5234 -0.7861  0.8434
  760MOL0     H 2562   8.223   5.598   0.953  1.3092 -1.0398 -3.1658
  760MOL0     H 2563   8.066   5.604   0.864  1.0600 -0.1083 -2.4823
  760MOL0     H 2564   8.030   6.073   0.590 -1.0061  0.5112  2.0162
  760MOL0     H 2565   7.912   6.102   0.368 -2.2500  0.3836 -0.6043
  760MOL0     H 2566   7.789   6.104   0.182 -0.5802  0.4199 -0.5724
  760MOL0     H 2567   7.902   5.984   0.119  0.4538  3.7014  0.9116
  760MOL0     H 2568   7.774   6.021  -0.058  2.8035 -1.5938  0.9820
  760MOL0     H 2569   7.716   5.879   0.017  0.9542 -0.2203  1.8069
  760MOL0     H 2570   7.599   6.175   0.035 -2.4369 -0.0856 -0.9849
  760MOL0     H 2571   7.567   6.054   0.162  0.9723 -1.3835  0.3842
  760MOL0     H 2572   7.489   6.010  -0.136  1.4206 -0.6746 -0.3476
  760MOL0     H 2573   7.453   5.908   0.006 -0.1021  0.3776  1.3395
  760MOL0     H 2574   7.362   6.185  -0.060  3.8930  2.1340  3.4871
  760MOL0     H 2575   7.365   6.132   0.101  0.7925 -0.6290  0.6359
  760MOL0     H 2576   7.213   5.941   0.053 -1.8713  1.3362  1.1987
  760MOL0     H 2577   7.131   6.082   0.008 -0.9577  0.0232 -4.5714
  760MOL0     H 2578   7.092   5.925  -0.155 -0.4007 -0.0117 -1.5956
  760MOL0     H 2579   7.260   5.897  -0.199 -0.3922  0.5637 -1.5773
  760MOL0     H 2580   7.173   6.009  -0.366 -1.3271  0.4680 -0.4669
  760MOL0     H 2581   7.269   6.135  -0.290  0.4564 -0.9895 -0.7073
  760MOL0     H 2582   7.756   5.714   0.397 -0.4112  1.5709 -0.1641
  760MOL0     H 2583   7.859   5.687   0.615 -2.4489 -1.0034 -1.6618
  760MOL0     H 2584   7.959   6.085   1.062 -0.5385  0.3132  0.9350
  760MOL0     H 2585   8.035   6.038   1.269 -1.2455  0.2830 -1.0136
  760MOL0     H 2586   6.815   5.660   2.226  1.4191 -0.7835 -2.1333
  760MOL0     H 2587   6.644   5.785   2.107  1.1416 -0.3870  0.1460
  760MOL0     H 2588   6.583   6.040   1.697  1.8561  1.5317 -0.9553
  760MOL0     H 2589   6.403   6.134   1.547 -2.1235  0.8676 -0.0014
  760MOL0     H 2590   6.072   6.411   1.540 -2.6472  1.0742  1.6607
  760MOL0     H 2591   6.087   6.395   1.711  0.7058  1.3182 -0.3736
  760MOL0     H 2592   6.260   6.588   1.565 -0.5554  1.7605 -0.1963
  760MOL0     H 2593   6.260   6.555   1.739  0.2349 -1.7330 -0.2180
  760MOL0     H 2594   6.016   6.619   1.741  0.6349 -0.9527 -0.4230
  760MOL0     H 2595   6.022   6.644   1.562  1.7000 -0.3440 -0.7399
  760MOL0     H 2596   6.007   6.848   1.670  0.5483  0.4480 -0.2134
  760MOL0     H 2597   6.179   6.835   1.614 -0.4849  1.2634 -0.3084
  760MOL0     H 2598   6.209   6.795   2.036  0.7949  2.7663 -0.3697
  760MOL0     H 2599   6.294   6.393   1.864  0.7319  0.8281 -1.0080
  760MOL0     H 2600   6.458   6.296   2.007  1.4590 -0.2431  0.2519
  761MOL0     O 2601  10.502   5.090   6.303 -0.2223  0.0635 -0.3861
  761MOL0     C 2602  10.424   5.154   6.236 -0.6564  0.5241 -0.3146
  761MOL0     O 2603  10.435   5.170   6.099  0.2688  0.0826 -0.2842
  761MOL0     C 2604  10.514   5.074   6.042 -0.5599 -0.1302  0.5223
  761MOL0     C 2605  10.440   4.966   5.986 -0.1947  0.0334 -0.0493
  761MOL0     C 2606  10.504   4.850   5.943  0.2678  0.2161 -0.2193
  761MOL0     C 2607  10.649   4.856   5.927  0.3818  0.6817 -0.8808
  761MOL0     O 2608  10.716   4.756   5.864  0.5539  0.4934 -0.2196
  761MOL0     C 2609  10.654   4.662   5.773 -1.0761 -0.4831 -0.5276
  761MOL0     C 2610  10.757   4.570   5.717 -0.4817 -0.1981  1.7139
  761MOL0     C 2611  10.762   4.445   5.797  0.8671 -0.0951 -0.1747
  761MOL0     C 2612  10.803   4.458   5.945  0.6611  0.0827 -0.9962
  761MOL0     C 2613  10.779   4.321   6.019  0.2916 -0.4257 -0.8075
  761MOL0     C 2614  10.863   4.205   5.966  0.2463 -0.7934  0.5051
  761MOL0     C 2615  11.012   4.248   5.962 -0.5788  0.0389 -0.0016
  761MOL0     C 2616  11.102   4.145   5.898  0.2992  1.2378  0.0307
  761MOL0     N 2617  11.069   4.006   5.910  0.7337  0.3378  0.1161
  761MOL0     C 2618  11.070   3.940   6.032  0.7423 -0.0262  0.0503
  761MOL0     C 2619  11.024   3.815   6.016  0.4059  0.0033 -0.0205
  761MOL0     C 2620  10.976   3.707   6.114  0.4691  0.2700  0.5254
  761MOL0     C 2621  10.846   3.741   6.185  0.1495  1.1690  0.4464
  761MOL0     C 2622  10.880   3.826   6.300  1.0460 -0.3212 -0.3663
  761MOL0     C 2623  10.763   3.909   6.352 -0.0301 -0.2390  0.4809
  761MOL0     O 2624  10.698   3.982   6.248  0.2256 -0.1791 -0.2904
  761MOL0     C 2625  10.593   4.063   6.281 -0.4583 -0.5721 -0.1374
  761MOL0     C 2626  10.561   4.110   6.415  0.0242  0.5342  0.0812
  761MOL0     C 2627  10.444   4.180   6.434 -1.0418  0.2912 -0.3696
  761MOL0     C 2628  10.421   4.210   6.579 -0.2984 -0.0990  0.4451
  761MOL0     C 2629  10.361   4.213   6.327 -0.5736  0.0503  0.0400
  761MOL0     C 2630  10.227   4.279   6.342 -0.3311 -0.4849  0.0884
  761MOL0     O 2631  10.165   4.277   6.462 -0.0121 -0.3136  0.5412
  761MOL0     C 2632  10.039   4.331   6.467 -0.8640  0.1031 -0.5394
  761MOL0     C 2633  10.031   4.465   6.507 -0.2281  0.3466 -0.9404
  761MOL0     C 2634   9.904   4.530   6.510 -0.7903  0.4189 -0.2562
  761MOL0     C 2635   9.786   4.456   6.490  0.3590 -0.4302  0.1734
  761MOL0     O 2636   9.660   4.503   6.465 -0.1077 -0.3581 -0.2174
  761MOL0     C 2637   9.635   4.638   6.506 -0.0663 -0.1545 -0.0588
  761MOL0     C 2638   9.487   4.678   6.510 -0.1205  0.2540  1.1420
  761MOL0     C 2639   9.413   4.606   6.634  0.3998 -0.0719 -0.0264
  761MOL0     C 2640   9.502   4.602   6.764 -0.3210 -0.1991  0.1477
  761MOL0     C 2641   9.422   4.547   6.875  0.6734  0.4020  0.5458
  761MOL0     C 2642   9.279   4.597   6.896 -0.3911 -0.3669 -0.0795
  761MOL0     C 2643   9.216   4.523   7.018  0.2912 -0.2246 -0.3607
  761MOL0     C 2644   9.077   4.567   7.067  0.6189 -0.1270  0.5952
  761MOL0    Cl 2645   8.975   4.605   6.939 -0.5385 -0.0468  0.2338
  761MOL0     C 2646   9.800   4.316   6.460 -0.2627  0.4773  0.0248
  761MOL0     C 2647   9.926   4.252   6.450  0.1405  0.2892  0.5222
  761MOL0     O 2648  10.174   4.330   6.236  0.0843 -0.3746 -0.8639
  761MOL0     C 2649  10.402   4.179   6.196 -0.1845  0.5054 -0.2783
  761MOL0     C 2650  10.516   4.101   6.173 -0.0507  0.4433 -0.1674
  761MOL0     N 2651  10.999   3.816   5.879 -0.9156  0.5745  0.4138
  761MOL0     N 2652  11.025   3.925   5.817 -0.0718 -0.0059 -0.1829
  761MOL0     C 2653  10.730   4.963   5.980 -0.1685  0.8015 -0.9721
  761MOL0     C 2654  10.650   5.083   6.028  0.2190  0.1309 -0.3325
  761MOL0     C 2655  10.325   5.238   6.306 -0.2367 -0.1063  0.7408
  761MOL0     C 2656  10.236   5.319   6.233 -0.2168  0.0653 -0.0096
  761MOL0     C 2657  10.153   5.407   6.293  1.1916 -0.3481  0.2210
  761MOL0     C 2658  10.145   5.423   6.428 -0.2278  0.2964  0.7321
  761MOL0     O 2659  10.083   5.532   6.469  0.3089  0.2764  0.1106
  761MOL0     C 2660  10.007   5.504   6.584 -0.0942 -1.1095 -0.2123
  761MOL0     C 2661   9.895   5.611   6.599  1.1184  0.4370  0.4258
  761MOL0     C 2662   9.778   5.582   6.498 -0.4564  0.3487 -0.2414
  761MOL0     C 2663   9.665   5.686   6.512 -0.5474  0.4157  0.8267
  761MOL0     C 2664   9.620   5.708   6.647 -0.2803 -0.2640  0.2228
  761MOL0     C 2665   9.597   5.711   6.762  1.6691 -0.1207  0.2263
  761MOL0     C 2666  10.213   5.326   6.508 -0.8315 -0.3283  0.2349
  761MOL0     C 2667  10.307   5.237   6.445  0.2546  0.3376 -1.0456
  761MOL0     H 2668  10.332   4.963   5.986 -0.2456  1.1989 -0.9616
  761MOL0     H 2669  10.439   4.771   5.908 -0.9640  0.6173  1.0624
  761MOL0     H 2670  10.577   4.607   5.828 -0.8684  0.3076  0.5951
  761MOL0     H 2671  10.605   4.711   5.689 -1.4675  0.0367 -0.0038
  761MOL0     H 2672  10.740   4.554   5.610 -0.9656  2.7002  1.2663
  761MOL0     H 2673  10.853   4.623   5.725  0.2515 -0.9699 -0.9091
  761MOL0     H 2674  10.666   4.395   5.784  1.3214 -0.7224 -1.2038
  761MOL0     H 2675  10.838   4.384   5.748 -0.1255 -0.5698 -1.1680
  761MOL0     H 2676  10.902   4.503   5.956  0.2003  0.9232 -0.2001
  761MOL0     H 2677  10.733   4.523   5.998 -0.6566 -1.5069 -0.6840
  761MOL0     H 2678  10.796   4.336   6.126 -0.5556 -0.6484 -0.6380
  761MOL0     H 2679  10.675   4.288   6.016 -0.4150  1.6781 -1.3444
  761MOL0     H 2680  10.856   4.122   6.036  0.2411 -0.0532  1.4012
  761MOL0     H 2681  10.830   4.162   5.871  0.2147 -1.2091  0.7022
  761MOL0     H 2682  11.033   4.344   5.914  0.8373 -0.0873  0.3082
  761MOL0     H 2683  11.025   4.260   6.071  2.0569  0.8406 -0.3208
  761MOL0     H 2684  11.207   4.159   5.924  0.4007  1.3331 -0.4234
  761MOL0     H 2685  11.104   4.167   5.791 -0.4023  1.2402  0.0155
  761MOL0     H 2686  11.094   3.987   6.127  0.4282 -1.0584  0.6593
  761MOL0     H 2687  10.948   3.616   6.060 -0.3598  0.6198  0.3514
  761MOL0     H 2688  11.051   3.682   6.189 -1.4833 -3.3122  1.5240
  761MOL0     H 2689  10.801   3.645   6.214 -1.0855  1.6097  0.0353
  761MOL0     H 2690  10.782   3.795   6.115  0.5832 -1.5814 -2.2726
  761MOL0     H 2691  10.952   3.904   6.272 -0.2349  2.4030  3.2568
  761MOL0     H 2692  10.921   3.765   6.382  0.2700 -1.0190 -0.4908
  761MOL0     H 2693  10.814   3.970   6.427  3.7837 -0.0569 -1.9767
  761MOL0     H 2694  10.685   3.855   6.407 -0.9673  2.4308  1.9261
  761MOL0     H 2695  10.635   4.076   6.487  0.3051 -0.1808 -0.5403
  761MOL0     H 2696  10.334   4.157   6.617 -1.5533  1.5809  0.0118
  761MOL0     H 2697  10.508   4.185   6.640  0.4216  0.6593 -0.2257
  761MOL0     H 2698  10.392   4.315   6.587 -1.5426 -0.2268 -1.6956
  761MOL0     H 2699  10.120   4.524   6.526 -0.5709  1.3401 -2.2129
  761MOL0     H 2700   9.912   4.636   6.531  2.6147  0.6699 -2.0286
  761MOL0     H 2701   9.675   4.676   6.600 -1.4244 -1.1939  0.9836
  761MOL0     H 2702   9.680   4.702   6.429  1.2288 -1.5484 -0.5131
  761MOL0     H 2703   9.485   4.787   6.517  0.2879  0.2771  0.9468
  761MOL0     H 2704   9.431   4.650   6.420 -0.4230  0.0733  1.3848
  761MOL0     H 2705   9.401   4.501   6.606 -0.9953 -0.0111  0.2568
  761MOL0     H 2706   9.315   4.653   6.643  1.1764  1.2844  2.0538
  761MOL0     H 2707   9.592   4.541   6.750 -1.0019 -0.7369 -2.3908
  761MOL0     H 2708   9.541   4.699   6.796  3.3370 -1.1700 -0.9382
  761MOL0     H 2709   9.468   4.582   6.967 -1.7575  1.0884  1.5775
  761MOL0     H 2710   9.425   4.439   6.860  1.8512  0.8123 -3.4660
  761MOL0     H 2711   9.275   4.705   6.911  3.0282 -0.2159  0.4893
  761MOL0     H 2712   9.203   4.572   6.822 -0.5971  0.1538 -0.0455
  761MOL0     H 2713   9.286   4.516   7.102  1.7515  0.4783 -1.4720
  761MOL0     H 2714   9.198   4.419   6.988 -3.3249  0.7884 -2.2777
  761MOL0     H 2715   9.083   4.655   7.132 -2.3613 -0.5287  1.5596
  761MOL0     H 2716   9.035   4.485   7.128  1.1006 -0.4082  0.5562
  761MOL0     H 2717   9.710   4.262   6.432 -1.0200  1.9663 -0.5267
  761MOL0     H 2718   9.945   4.148   6.425  2.3228  0.2751  2.0199
  761MOL0     H 2719  10.334   4.198   6.113 -1.0365 -1.7669 -0.1866
  761MOL0     H 2720  10.544   4.085   6.070  1.0208  1.9835 -0.1492
  761MOL0     H 2721  10.838   4.960   5.970 -0.2095  1.8953 -1.9811
  761MOL0     H 2722  10.709   5.156   6.083 -0.9812  2.0410 -1.5056
  761MOL0     H 2723  10.237   5.304   6.126 -0.1995 -1.0836  0.1309
  761MOL0     H 2724  10.092   5.465   6.224  1.6196  0.1835  0.2776
  761MOL0     H 2725   9.960   5.405   6.582  0.5559 -1.5246  2.0110
  761MOL0     H 2726  10.068   5.515   6.674  1.4607  0.7549 -1.4182
  761MOL0     H 2727   9.941   5.708   6.577  1.0020  0.6436  1.0728
  761MOL0     H 2728   9.865   5.621   6.703  0.5484  0.5838  0.2527
  761MOL0     H 2729   9.735   5.483   6.515 -1.3795  0.4050 -2.0798
  761MOL0     H 2730   9.810   5.577   6.394 -1.0883  0.0593 -0.4249
  761MOL0     H 2731   9.580   5.663   6.447  0.9072 -0.0387 -0.9823
  761MOL0     H 2732   9.711   5.782   6.488  4.3340 -1.2890  2.1354
  761MOL0     H 2733   9.554   5.705   6.859  0.0440 -2.8853 -0.5496
  761MOL0     H 2734  10.206   5.340   6.615 -1.8824 -0.2707  0.1752
  761MOL0     H 2735  10.377   5.183   6.508  3.1703  1.8625 -2.7533
  762MOL0     O 2736   9.915   0.862   6.724 -0.5366 -0.7220  0.3949
  762MOL0     C 2737  10.002   0.781   6.726  0.4787  0.6780  1.2092
  762MOL0     O 2738   9.987   0.662   6.789  0.5960  0.7007  0.5133
  762MOL0     C 2739   9.880   0.631   6.875 -0.6376  0.9582 -0.0386
  762MOL0     C 2740   9.904   0.515   6.958 -0.6879 -0.1674 -0.1696
  762MOL0     C 2741   9.825   0.485   7.063  0.3385 -0.3281 -0.9370
  762MOL0     C 2742   9.712   0.555   7.094  1.0436  0.5075  0.2858
  762MOL0     O 2743   9.657   0.536   7.217  0.3398 -0.7694  0.0114
  762MOL0     C 2744   9.508   0.530   7.206  0.2449 -0.0889 -0.4661
  762MOL0     C 2745   9.454   0.455   7.328 -0.6586 -0.5920  0.2603
  762MOL0     C 2746   9.320   0.506   7.372 -0.0291 -0.2687 -0.2789
  762MOL0     C 2747   9.210   0.413   7.318  0.6271  0.4033 -0.4993
  762MOL0     C 2748   9.062   0.454   7.353 -0.2350  0.4511  0.4258
  762MOL0     C 2749   9.028   0.395   7.494 -0.0112 -0.5290  0.3779
  762MOL0     C 2750   8.889   0.456   7.527 -0.0927 -0.5518  0.1272
  762MOL0     C 2751   8.851   0.426   7.673  0.9248 -0.5275 -0.4613
  762MOL0     N 2752   8.719   0.486   7.699  0.0379 -0.2980 -0.5417
  762MOL0     C 2753   8.597   0.424   7.667  0.0607  0.4057  0.5131
  762MOL0     C 2754   8.508   0.520   7.715  0.3987 -0.8541  0.3318
  762MOL0     C 2755   8.361   0.488   7.713  0.9689 -0.3136  0.0334
  762MOL0     C 2756   8.313   0.395   7.824  0.7400  1.3577  0.2448
  762MOL0     C 2757   8.161   0.397   7.841 -0.8661 -0.1242 -0.2139
  762MOL0     C 2758   8.133   0.284   7.946  0.1197  0.3746 -0.5844
  762MOL0     O 2759   7.987   0.263   7.952 -0.6301  0.3355  0.7888
  762MOL0     C 2760   7.931   0.149   7.897  0.8149 -0.6023 -0.2081
  762MOL0     C 2761   7.988   0.043   7.829 -0.0238 -0.5128 -0.6893
  762MOL0     C 2762   7.919  -0.071   7.805 -0.3243 -1.0352  1.2436
  762MOL0     C 2763   7.985  -0.183   7.727 -1.0363 -0.0306  0.4508
  762MOL0     C 2764   7.781  -0.074   7.839  0.5277  0.5573 -0.5716
  762MOL0     C 2765   7.701  -0.188   7.804  0.1263 -0.2416  0.1875
  762MOL0     O 2766   7.704  -0.288   7.893 -0.1358  0.4849  1.0388
  762MOL0     C 2767   7.617  -0.395   7.879 -0.2021 -0.0355  0.0982
  762MOL0     C 2768   7.634  -0.491   7.783 -0.3840  0.2705 -0.2697
  762MOL0     C 2769   7.553  -0.608   7.780 -0.7817  0.4206 -0.4644
  762MOL0     C 2770   7.454  -0.616   7.872  0.2995 -0.6561 -1.0354
  762MOL0     O 2771   7.369  -0.723   7.856  0.8091  0.1039 -0.0035
  762MOL0     C 2772   7.271  -0.757   7.954  0.6531 -0.2088 -0.3137
  762MOL0     C 2773   7.176  -0.881   7.917 -0.7195  0.5590  0.5327
  762MOL0     C 2774   7.263  -1.012   7.926 -0.0013 -0.0250  0.9949
  762MOL0     C 2775   7.190  -1.135   7.865 -1.2661 -0.7543  0.1033
  762MOL0     C 2776   7.289  -1.250   7.879  0.2458 -0.3143 -0.2553
  762MOL0     C 2777   7.255  -1.366   7.792 -0.9211 -0.7355 -0.0913
  762MOL0     C 2778   7.378  -1.462   7.798 -0.2570  0.5320  0.9019
  762MOL0     C 2779   7.365  -1.601   7.730  0.6099  1.2286 -0.4467
  762MOL0    Cl 2780   7.240  -1.700   7.821 -0.0672  0.2304 -0.0988
  762MOL0     C 2781   7.432  -0.523   7.970  0.3592 -0.3219  0.8771
  762MOL0     C 2782   7.513  -0.411   7.968 -0.3882  0.1980  0.3231
  762MOL0     O 2783   7.628  -0.176   7.703  0.1146 -0.5924 -0.5882
  762MOL0     C 2784   7.720   0.027   7.904  0.8476 -0.3199 -0.3935
  762MOL0     C 2785   7.794   0.139   7.930 -0.1696 -0.3143  0.0354
  762MOL0     N 2786   8.570   0.637   7.753 -1.0227 -0.1288  0.0052
  762MOL0     N 2787   8.699   0.610   7.749 -0.1390 -0.6363 -0.3509
  762MOL0     C 2788   9.674   0.653   6.997  0.6476  0.5926 -0.1562
  762MOL0     C 2789   9.758   0.693   6.891 -0.1265  0.0009  0.3531
  762MOL0     C 2790  10.118   0.812   6.638  0.2332  0.9349 -0.7276
  762MOL0     C 2791  10.238   0.735   6.646 -0.6098  0.4442 -0.6614
  762MOL0     C 2792  10.350   0.760   6.558 -0.3523  0.3172 -0.3611
  762MOL0     C 2793  10.350   0.885   6.489  0.1675  0.1433  1.0278
  762MOL0     O 2794  10.459   0.914   6.410  0.3450  0.5021  0.1034
  762MOL0     C 2795  10.585   0.892   6.476 -0.2247 -0.4022  0.2941
  762MOL0     C 2796  10.699   0.973   6.419 -0.9785 -0.4383  0.0820
  762MOL0     C 2797  10.691   1.115   6.478 -1.3673  1.5455 -1.0066
  762MOL0     C 2798  10.580   1.201   6.452  0.5479  0.1827 -0.2596
  762MOL0     C 2799  10.597   1.314   6.539 -0.2278 -1.0857  0.5838
  762MOL0     C 2800  10.618   1.399   6.626 -1.0107 -0.5732  0.4223
  762MOL0     C 2801  10.231   0.960   6.484 -0.0064  0.1395  0.1499
  762MOL0     C 2802  10.118   0.917   6.554  0.0889 -0.4969 -0.6271
  762MOL0     H 2803   9.997   0.458   6.956 -0.0017  0.7904  2.0427
  762MOL0     H 2804   9.846   0.410   7.139  0.7213  1.1431  0.4558
  762MOL0     H 2805   9.468   0.632   7.203  0.6511  0.0666 -0.6751
  762MOL0     H 2806   9.478   0.489   7.109  1.8573 -0.2687 -0.9194
  762MOL0     H 2807   9.457   0.348   7.305  0.2309 -0.3946 -0.6105
  762MOL0     H 2808   9.530   0.480   7.402 -0.3729  0.6753 -0.4232
  762MOL0     H 2809   9.327   0.502   7.481 -0.3311 -1.6416 -0.2911
  762MOL0     H 2810   9.296   0.607   7.338 -2.2146 -1.3205 -2.2285
  762MOL0     H 2811   9.226   0.406   7.210  2.0926 -0.2369 -0.2743
  762MOL0     H 2812   9.239   0.313   7.352 -1.0367  0.0651  0.0026
  762MOL0     H 2813   9.065   0.563   7.351  1.9792  0.4329 -0.9604
  762MOL0     H 2814   8.987   0.418   7.282  0.1773 -0.9751  0.6706
  762MOL0     H 2815   9.020   0.287   7.479 -2.6591 -0.4239  0.6711
  762MOL0     H 2816   9.099   0.437   7.566 -0.4712  1.4764 -0.2867
  762MOL0     H 2817   8.886   0.565   7.520  0.3766 -0.4041  1.8149
  762MOL0     H 2818   8.816   0.404   7.464 -0.7562  0.2809  0.1903
  762MOL0     H 2819   8.925   0.468   7.742  1.5797 -2.3808  0.0051
  762MOL0     H 2820   8.834   0.319   7.688  0.0726 -0.2680  0.4727
  762MOL0     H 2821   8.584   0.332   7.611  1.3952 -0.5841  1.7791
  762MOL0     H 2822   8.297   0.576   7.721 -1.0663 -1.6342 -0.8405
  762MOL0     H 2823   8.340   0.446   7.614  0.6815 -0.1959  0.0436
  762MOL0     H 2824   8.364   0.413   7.919  0.6297  0.9221  0.3885
  762MOL0     H 2825   8.344   0.293   7.798 -4.8784 -0.3058 -1.4025
  762MOL0     H 2826   8.121   0.377   7.741 -0.4263 -0.2654 -0.3663
  762MOL0     H 2827   8.127   0.492   7.883 -0.8962 -0.7140  1.1704
  762MOL0     H 2828   8.177   0.321   8.039 -0.4333 -0.9508  0.2289
  762MOL0     H 2829   8.182   0.195   7.906 -2.2253 -0.1403 -2.5524
  762MOL0     H 2830   8.086   0.069   7.790 -0.7523 -0.8525 -2.8844
  762MOL0     H 2831   7.974  -0.281   7.774  0.4141 -1.9939 -2.9142
  762MOL0     H 2832   7.946  -0.193   7.625 -2.0155 -1.2656  0.9243
  762MOL0     H 2833   8.093  -0.166   7.730 -1.0330 -0.1932  1.4252
  762MOL0     H 2834   7.708  -0.471   7.706 -2.7465  4.1759 -1.7476
  762MOL0     H 2835   7.567  -0.681   7.701  0.5031 -0.3322  0.4333
  762MOL0     H 2836   7.323  -0.785   8.046 -1.0382 -0.3508  0.6354
  762MOL0     H 2837   7.210  -0.670   7.975  0.8703  0.4050 -2.0273
  762MOL0     H 2838   7.091  -0.889   7.984 -2.1834  1.9617 -1.0470
  762MOL0     H 2839   7.135  -0.860   7.818  0.9043  3.7482  0.4020
  762MOL0     H 2840   7.287  -1.037   8.029 -0.1777  2.4944  1.6988
  762MOL0     H 2841   7.361  -0.995   7.882  1.5963  0.7714  4.5424
  762MOL0     H 2842   7.092  -1.163   7.906 -1.9422 -2.5656 -2.4717
  762MOL0     H 2843   7.169  -1.120   7.759  0.0860 -0.3313 -0.1193
  762MOL0     H 2844   7.304  -1.281   7.983 -0.4341  2.2819  0.7050
  762MOL0     H 2845   7.391  -1.218   7.855  1.3702 -2.8434  0.8118
  762MOL0     H 2846   7.164  -1.414   7.827 -0.3854 -1.7634 -0.0747
  762MOL0     H 2847   7.227  -1.339   7.690 -2.2395  1.3641  0.7578
  762MOL0     H 2848   7.415  -1.485   7.899 -0.1907 -0.6343  0.6285
  762MOL0     H 2849   7.467  -1.413   7.758  2.4488 -2.5390  2.6255
  762MOL0     H 2850   7.464  -1.647   7.741 -0.9403 -1.6382  4.4932
  762MOL0     H 2851   7.334  -1.591   7.626 -0.8230  2.6797  0.0706
  762MOL0     H 2852   7.351  -0.531   8.042  0.0915 -1.2087  0.4824
  762MOL0     H 2853   7.505  -0.338   8.048 -0.2658 -0.1762  0.6754
  762MOL0     H 2854   7.615   0.031   7.932  1.2805 -2.4465  1.8209
  762MOL0     H 2855   7.736   0.221   7.971  0.6135 -0.1887  0.9506
  762MOL0     H 2856   9.588   0.714   7.023  0.4864  0.8726 -1.3190
  762MOL0     H 2857   9.732   0.773   6.823 -0.4921 -1.0436 -0.7746
  762MOL0     H 2858  10.238   0.645   6.706 -2.4409 -0.4325 -1.9010
  762MOL0     H 2859  10.434   0.691   6.561 -0.1836  0.5002  3.1614
  762MOL0     H 2860  10.577   0.916   6.583 -0.5727  0.4690  0.0837
  762MOL0     H 2861  10.621   0.789   6.482  1.7517  0.3322  3.9945
  762MOL0     H 2862  10.691   0.985   6.311 -0.4249  0.0440  0.0914
  762MOL0     H 2863  10.793   0.927   6.451 -1.2343  1.1246  3.5101
  762MOL0     H 2864  10.784   1.156   6.438  0.0185  1.1288  1.5477
  762MOL0     H 2865  10.713   1.117   6.585  2.2942  0.7985 -1.5796
  762MOL0     H 2866  10.484   1.158   6.481  0.0397 -0.7602 -3.0318
  762MOL0     H 2867  10.578   1.239   6.349 -1.1564  0.7850 -0.0280
  762MOL0     H 2868  10.621   1.476   6.701  0.3889  0.4181 -0.5876
  762MOL0     H 2869  10.217   1.046   6.418  3.8583 -0.7278 -2.1002
  762MOL0     H 2870  10.030   0.980   6.561 -0.3448 -1.2817  2.9278
  763MOL0     O 2871   1.558   4.743   9.849 -0.4568  0.3860 -0.0610
  763MOL0     C 2872   1.664   4.795   9.811 -0.4367  0.4371 -0.0271
  763MOL0     O 2873   1.695   4.837   9.693 -0.3199  0.9293 -0.3132
  763MOL0     C 2874   1.622   4.787   9.580  0.2807 -1.0357  0.2272
  763MOL0     C 2875   1.676   4.704   9.486 -0.0414  0.1288 -0.0166
  763MOL0     C 2876   1.600   4.637   9.400 -0.2639  0.5064  0.0241
  763MOL0     C 2877   1.458   4.665   9.396 -0.4368  0.5958  1.1043
  763MOL0     O 2878   1.386   4.604   9.300  0.2860 -0.4129  0.0746
  763MOL0     C 2879   1.245   4.568   9.321  0.0645  0.1013 -1.4560
  763MOL0     C 2880   1.247   4.437   9.401  0.7622  0.3318  0.0770
  763MOL0     C 2881   1.305   4.321   9.317 -0.6971  0.7675  0.7548
  763MOL0     C 2882   1.293   4.190   9.407 -0.2890  0.8703 -0.0180
  763MOL0     C 2883   1.334   4.062   9.335 -0.0692  0.5123 -0.4525
  763MOL0     C 2884   1.245   3.954   9.407  0.4566  0.2983  0.4749
  763MOL0     C 2885   1.292   3.819   9.377  0.1387 -0.6280  0.7476
  763MOL0     C 2886   1.239   3.777   9.234 -0.6577  0.2608 -0.6230
  763MOL0     N 2887   1.321   3.663   9.191 -0.0552 -0.7307  0.6075
  763MOL0     C 2888   1.452   3.685   9.150  0.4848  0.8545  0.3997
  763MOL0     C 2889   1.494   3.561   9.114  0.1316 -0.3873 -1.1832
  763MOL0     C 2890   1.632   3.538   9.065 -0.4624  0.3305  0.5086
  763MOL0     C 2891   1.658   3.432   8.955  0.0837  0.2669  0.8549
  763MOL0     C 2892   1.597   3.297   8.989 -0.2201 -0.1686 -0.3032
  763MOL0     C 2893   1.638   3.189   8.891  0.3959  1.2221  1.1364
  763MOL0     O 2894   1.586   3.059   8.932  0.1753  0.3734 -0.1534
  763MOL0     C 2895   1.453   3.014   8.920  1.1268 -0.1466  0.5471
  763MOL0     C 2896   1.429   2.893   8.971  0.8584 -0.2087 -0.5129
  763MOL0     C 2897   1.294   2.832   8.962 -0.0860  0.5538 -1.6466
  763MOL0     C 2898   1.280   2.699   9.037  0.7340 -0.1668 -0.1262
  763MOL0     C 2899   1.186   2.897   8.889 -0.0224 -0.2620 -0.6131
  763MOL0     C 2900   1.045   2.858   8.877 -0.0098 -0.4974  0.5496
  763MOL0     O 2901   0.957   2.933   8.805  0.5408 -0.1679 -0.1496
  763MOL0     C 2902   0.830   2.937   8.853 -0.1838  0.1627 -0.1873
  763MOL0     C 2903   0.729   2.966   8.758 -0.6599 -0.8888 -0.4831
  763MOL0     C 2904   0.599   2.989   8.804  0.2849 -0.1720 -1.4248
  763MOL0     C 2905   0.565   2.993   8.943  0.2154 -0.5725  0.8600
  763MOL0     O 2906   0.432   3.006   8.992 -0.9526  0.0180 -0.1799
  763MOL0     C 2907   0.342   3.075   8.901 -0.8088 -0.1215 -0.0878
  763MOL0     C 2908   0.230   3.137   8.993 -0.6943 -0.6627  0.1696
  763MOL0     C 2909   0.099   3.186   8.913  0.0426 -0.4770 -0.6930
  763MOL0     C 2910   0.006   3.264   9.001  0.9265  0.4819 -0.8192
  763MOL0     C 2911  -0.062   3.174   9.101 -0.3074  0.0939 -0.1200
  763MOL0     C 2912  -0.158   3.259   9.192  0.2177  0.5030 -0.5271
  763MOL0     C 2913  -0.226   3.179   9.307  0.3108  0.1932  0.1517
  763MOL0     C 2914  -0.274   3.269   9.424 -0.7239  0.0509 -0.2108
  763MOL0    Cl 2915  -0.388   3.375   9.357  0.6160  0.1916 -0.1235
  763MOL0     C 2916   0.662   2.954   9.035 -0.1939 -0.6925 -1.3335
  763MOL0     C 2917   0.797   2.946   8.991 -0.0133  0.9025 -0.1655
  763MOL0     O 2918   1.012   2.760   8.939  0.1870 -0.3027 -0.4238
  763MOL0     C 2919   1.220   3.027   8.851  0.1227 -0.5053  0.4580
  763MOL0     C 2920   1.347   3.076   8.854 -0.1576  0.2822  0.5548
  763MOL0     N 2921   1.391   3.468   9.132 -0.7984 -0.8158 -1.0108
  763MOL0     N 2922   1.287   3.527   9.187  0.4850  0.2066  0.5682
  763MOL0     C 2923   1.410   4.761   9.483 -0.5003 -0.0557  0.1015
  763MOL0     C 2924   1.487   4.820   9.576  0.0410  0.0145 -0.2323
  763MOL0     C 2925   1.756   4.830   9.925 -0.5306  0.0148 -0.2126
  763MOL0     C 2926   1.728   4.786  10.058  0.1164 -0.1597 -0.4859
  763MOL0     C 2927   1.806   4.831  10.164 -0.0590  1.1038  0.7816
  763MOL0     C 2928   1.919   4.907  10.153 -0.2271  0.9717  0.2171
  763MOL0     O 2929   1.983   4.944  10.266 -0.5586  0.2841 -0.3105
  763MOL0     C 2930   2.106   5.016  10.255 -0.2541  1.0205  0.1834
  763MOL0     C 2931   2.084   5.165  10.221 -0.1124 -1.0652 -0.4141
  763MOL0     C 2932   2.220   5.232  10.269  0.8871 -0.3777  0.4799
  763MOL0     C 2933   2.219   5.390  10.248  0.1213  0.2942  0.1321
  763MOL0     C 2934   2.351   5.432  10.280 -0.7967 -0.3926  0.1462
  763MOL0     C 2935   2.460   5.470  10.316  0.5778 -0.6733  0.3183
  763MOL0     C 2936   1.956   4.943  10.019  0.7513 -0.3368 -0.8147
  763MOL0     C 2937   1.873   4.910   9.916 -0.2574 -0.3243  0.1922
  763MOL0     H 2938   1.783   4.689   9.501  0.4359  3.2855  0.3546
  763MOL0     H 2939   1.654   4.573   9.330  1.2058  0.5003  1.1110
  763MOL0     H 2940   1.195   4.647   9.379  0.8495 -0.3007 -0.1873
  763MOL0     H 2941   1.194   4.566   9.224 -1.7412  2.2113 -0.6518
  763MOL0     H 2942   1.292   4.458   9.498 -0.8925 -1.4363  1.3070
  763MOL0     H 2943   1.147   4.403   9.429  2.2815 -2.7054  2.3839
  763MOL0     H 2944   1.262   4.310   9.217  0.8576  2.5848 -0.1846
  763MOL0     H 2945   1.412   4.336   9.299 -0.7589 -0.0532 -0.4549
  763MOL0     H 2946   1.361   4.201   9.491 -1.6903  1.3081  1.0936
  763MOL0     H 2947   1.190   4.181   9.442 -0.0285 -1.7156  0.2818
  763MOL0     H 2948   1.307   4.055   9.229 -3.8572 -3.5649  0.5140
  763MOL0     H 2949   1.442   4.050   9.344  0.1893  0.4868 -2.8596
  763MOL0     H 2950   1.256   3.973   9.514  0.2311  0.1233  0.5289
  763MOL0     H 2951   1.140   3.965   9.378  0.5129 -4.1307 -2.3235
  763MOL0     H 2952   1.401   3.824   9.375  0.2028 -0.2487  2.9651
  763MOL0     H 2953   1.268   3.746   9.455 -0.5289 -1.8938 -0.5789
  763MOL0     H 2954   1.268   3.857   9.165  1.7690  0.0368  0.0526
  763MOL0     H 2955   1.131   3.759   9.224 -0.3313 -1.9407 -0.5437
  763MOL0     H 2956   1.508   3.777   9.151  0.9275  0.6690 -1.7958
  763MOL0     H 2957   1.677   3.635   9.041 -1.3845  0.3052 -1.4708
  763MOL0     H 2958   1.688   3.493   9.148  1.5891  0.6708 -0.6321
  763MOL0     H 2959   1.765   3.416   8.937  0.6289  3.0346  1.0782
  763MOL0     H 2960   1.616   3.471   8.862  0.8964  1.3093  0.9054
  763MOL0     H 2961   1.488   3.306   8.980 -0.6836 -1.9317  2.3529
  763MOL0     H 2962   1.622   3.256   9.088 -1.2634 -4.3938 -1.5657
  763MOL0     H 2963   1.746   3.176   8.896  0.3027 -0.1464  0.0722
  763MOL0     H 2964   1.598   3.213   8.792  2.7930  1.6216  0.2167
  763MOL0     H 2965   1.515   2.835   9.004 -0.5679 -2.2670 -0.2410
  763MOL0     H 2966   1.210   2.631   8.988  1.2644 -3.5472  3.3267
  763MOL0     H 2967   1.378   2.652   9.038  0.5441 -0.6274 -1.3957
  763MOL0     H 2968   1.240   2.710   9.139 -1.0495 -0.2874 -0.7750
  763MOL0     H 2969   0.746   2.950   8.652  3.9763 -0.2155 -0.0490
  763MOL0     H 2970   0.514   3.006   8.738 -1.2151 -0.0758  0.4324
  763MOL0     H 2971   0.395   3.152   8.844 -3.1359  1.4709 -0.2787
  763MOL0     H 2972   0.303   3.004   8.828  0.1983 -1.0664  0.2751
  763MOL0     H 2973   0.211   3.070   9.077 -0.6309  1.7116  2.1719
  763MOL0     H 2974   0.281   3.225   9.035 -0.1783  1.1941 -3.8507
  763MOL0     H 2975   0.056   3.090   8.884 -2.8685  0.0643  1.4009
  763MOL0     H 2976   0.128   3.243   8.824 -2.2627 -1.5274 -2.2000
  763MOL0     H 2977   0.067   3.337   9.055 -2.2108  0.2986  3.5469
  763MOL0     H 2978  -0.070   3.324   8.951 -2.0427 -3.0450 -0.9814
  763MOL0     H 2979   0.017   3.117   9.150 -1.3122 -1.0936  0.1563
  763MOL0     H 2980  -0.122   3.101   9.047 -1.8564 -0.3358  2.0607
  763MOL0     H 2981  -0.110   3.350   9.230 -1.1514  1.0814 -0.1256
  763MOL0     H 2982  -0.239   3.299   9.131  1.5976 -0.2643 -2.9722
  763MOL0     H 2983  -0.156   3.109   9.354 -0.3462 -0.3185  0.3841
  763MOL0     H 2984  -0.309   3.119   9.269  2.0984 -2.2479 -0.1225
  763MOL0     H 2985  -0.190   3.327   9.463 -1.4742  1.5461 -0.7517
  763MOL0     H 2986  -0.316   3.194   9.493  0.6398  0.5061  1.1723
  763MOL0     H 2987   0.637   2.951   9.141  0.7926 -0.0874 -1.0623
  763MOL0     H 2988   0.871   2.919   9.065 -2.5029  1.2838  2.6436
  763MOL0     H 2989   1.147   3.101   8.819  1.0020 -0.3252 -1.2766
  763MOL0     H 2990   1.365   3.174   8.810  2.3425  0.1411  1.1382
  763MOL0     H 2991   1.303   4.773   9.487 -0.6178 -0.7874 -0.6432
  763MOL0     H 2992   1.457   4.889   9.655  1.3241 -2.0010  2.1669
  763MOL0     H 2993   1.641   4.726  10.078  0.0755 -0.2214 -0.8428
  763MOL0     H 2994   1.782   4.809  10.267 -6.1780  1.4038 -0.2235
  763MOL0     H 2995   2.163   5.009  10.348  1.3470  1.1862 -0.7412
  763MOL0     H 2996   2.168   4.960  10.185  1.1763  1.4431  1.0777
  763MOL0     H 2997   2.009   5.200  10.292 -0.4423  0.8636 -1.6469
  763MOL0     H 2998   2.055   5.174  10.116 -0.3433 -2.0795 -0.4441
  763MOL0     H 2999   2.305   5.189  10.215  2.6401  1.8443  1.2732
  763MOL0     H 3000   2.243   5.212  10.375 -1.6984 -0.5996  1.0589
  763MOL0     H 3001   2.146   5.437  10.314 -0.7466  0.5638 -0.9943
  763MOL0     H 3002   2.184   5.425  10.150  0.6178  0.6009  0.0615
  763MOL0     H 3003   2.557   5.514  10.327  0.0561  0.3532  1.0149
  763MOL0     H 3004   2.048   4.995   9.994  1.4576  0.5032  2.8872
  763MOL0     H 3005   1.893   4.942   9.815  1.2955 -0.0763  0.5572
  764MOL0     O 3006   2.630  10.708   2.772 -0.5804 -0.0831  0.3646
  764MOL0     C 3007   2.590  10.595   2.780  0.1388  0.3179  0.3307
  764MOL0     O 3008   2.662  10.487   2.829  0.8071 -0.4010 -0.0877
  764MOL0     C 3009   2.794  10.466   2.791  0.4729 -0.1137  0.2209
  764MOL0     C 3010   2.868  10.549   2.711  0.1745 -0.9243  0.6327
  764MOL0     C 3011   2.999  10.522   2.672 -0.0732  0.2114  0.4166
  764MOL0     C 3012   3.048  10.391   2.694 -0.2461 -0.1168  0.3525
  764MOL0     O 3013   3.173  10.346   2.648  0.2409  0.5372  0.4214
  764MOL0     C 3014   3.172  10.203   2.609  0.3970  0.2264 -1.4255
  764MOL0     C 3015   3.294  10.196   2.506 -0.0149  0.5585 -1.1857
  764MOL0     C 3016   3.418  10.223   2.584  0.5722  0.2012  0.2962
  764MOL0     C 3017   3.533  10.228   2.478 -0.1065  0.4283  0.5422
  764MOL0     C 3018   3.654  10.309   2.534  0.3382 -0.6707 -0.4858
  764MOL0     C 3019   3.717  10.246   2.660  0.3333 -0.0729 -0.1446
  764MOL0     C 3020   3.821  10.347   2.724 -0.1211  0.3268 -0.1103
  764MOL0     C 3021   3.906  10.286   2.840  0.1727 -0.1100 -0.3651
  764MOL0     N 3022   4.023  10.204   2.802 -0.0917 -0.5493  0.1128
  764MOL0     C 3023   4.034  10.077   2.752 -0.6860 -0.1296  0.1115
  764MOL0     C 3024   4.162  10.039   2.744 -0.4212  0.4077 -0.0525
  764MOL0     C 3025   4.227   9.908   2.703  0.8606  0.3430  0.0406
  764MOL0     C 3026   4.374   9.910   2.709  0.3148 -0.3448  0.1151
  764MOL0     C 3027   4.445   9.783   2.670  0.6872  1.0389  0.6330
  764MOL0     C 3028   4.591   9.805   2.653 -0.2562 -1.0047 -0.2016
  764MOL0     O 3029   4.663   9.683   2.660  0.3481  0.4773  0.3249
  764MOL0     C 3030   4.795   9.674   2.671 -0.0050  0.0077 -0.8513
  764MOL0     C 3031   4.887   9.778   2.659 -0.1223  0.1755  0.0664
  764MOL0     C 3032   5.025   9.745   2.677 -0.1705 -0.8864  0.9140
  764MOL0     C 3033   5.124   9.858   2.649 -0.3045  0.6451  0.5557
  764MOL0     C 3034   5.074   9.622   2.714  0.3501  0.5980  0.5016
  764MOL0     C 3035   5.209   9.587   2.751 -0.1636  0.0315 -0.1420
  764MOL0     O 3036   5.231   9.450   2.768 -0.0771  0.2756  0.4119
  764MOL0     C 3037   5.360   9.401   2.763 -0.7796 -0.0211  0.1778
  764MOL0     C 3038   5.391   9.294   2.677  0.3124 -0.1740 -0.3999
  764MOL0     C 3039   5.518   9.239   2.689  0.0801  0.7892  0.5186
  764MOL0     C 3040   5.623   9.284   2.777  0.6342  0.9185  0.2647
  764MOL0     O 3041   5.749   9.227   2.776 -0.7106 -0.1107 -0.4039
  764MOL0     C 3042   5.861   9.314   2.806 -0.5928  0.5176 -0.2634
  764MOL0     C 3043   5.896   9.430   2.696 -0.1732  0.4088  0.6134
  764MOL0     C 3044   5.997   9.535   2.745 -0.5390 -1.1159  0.2909
  764MOL0     C 3045   6.109   9.503   2.844 -0.6877  1.0939 -0.2786
  764MOL0     C 3046   6.163   9.641   2.896  0.1593  0.2298 -0.8582
  764MOL0     C 3047   6.298   9.636   2.964  0.6187  0.3481 -0.3678
  764MOL0     C 3048   6.344   9.776   3.017  0.6571  1.0009  0.0447
  764MOL0     C 3049   6.480   9.816   2.965  0.5268 -0.4860  0.5778
  764MOL0    Cl 3050   6.599   9.685   2.990 -0.0879 -0.4046 -0.0685
  764MOL0     C 3051   5.581   9.390   2.869  0.5132  0.1925  0.0313
  764MOL0     C 3052   5.455   9.446   2.863  0.9752 -0.3124 -0.7482
  764MOL0     O 3053   5.285   9.679   2.782 -0.4997  0.4345 -0.2026
  764MOL0     C 3054   4.974   9.519   2.725 -0.8507  0.0257 -0.0737
  764MOL0     C 3055   4.840   9.541   2.705 -0.4201  0.3103  0.2451
  764MOL0     N 3056   4.233  10.147   2.796  0.4202 -0.4819  0.2640
  764MOL0     N 3057   4.147  10.239   2.824  0.1301 -0.3380 -0.1338
  764MOL0     C 3058   2.974  10.306   2.785  0.5719 -0.3743  0.0380
  764MOL0     C 3059   2.847  10.343   2.830  0.9157 -1.0300 -0.2823
  764MOL0     C 3060   2.450  10.568   2.745 -0.5905 -0.5387 -0.4615
  764MOL0     C 3061   2.383  10.647   2.643  0.4761  0.6411 -0.3272
  764MOL0     C 3062   2.250  10.602   2.603  0.2504  0.5359 -0.7969
  764MOL0     C 3063   2.192  10.485   2.660 -0.3858 -0.1435 -0.4071
  764MOL0     O 3064   2.069  10.432   2.626 -0.7253  0.5146 -0.1300
  764MOL0     C 3065   1.977  10.504   2.547 -0.4608 -0.2317  0.9641
  764MOL0     C 3066   1.861  10.424   2.481 -0.2463  1.1399 -0.1014
  764MOL0     C 3067   1.750  10.526   2.448 -0.1914 -0.2701  0.4192
  764MOL0     C 3068   1.646  10.531   2.560  0.4342 -0.3214  0.4746
  764MOL0     C 3069   1.513  10.577   2.519  0.2962 -0.5925  0.5600
  764MOL0     C 3070   1.391  10.602   2.500 -0.6322 -0.3060 -0.4663
  764MOL0     C 3071   2.273  10.418   2.748  1.0442  1.2581 -0.4246
  764MOL0     C 3072   2.397  10.456   2.795  0.8997 -0.1978  0.0123
  764MOL0     H 3073   2.822  10.643   2.682 -0.7661 -1.9145 -1.2532
  764MOL0     H 3074   3.045  10.605   2.618 -0.7052  1.5166  1.7986
  764MOL0     H 3075   3.197  10.142   2.696  0.0491 -1.9273 -2.7832
  764MOL0     H 3076   3.075  10.169   2.571 -1.1441  1.0497  1.4564
  764MOL0     H 3077   3.302  10.098   2.458  0.8138  0.2473 -0.4382
  764MOL0     H 3078   3.272  10.282   2.443 -3.8972  2.9548  2.8127
  764MOL0     H 3079   3.408  10.313   2.645 -0.0306 -0.9027  1.8924
  764MOL0     H 3080   3.421  10.148   2.664  1.3358  3.2271  3.3299
  764MOL0     H 3081   3.557  10.130   2.436  0.7918  0.8918 -0.0465
  764MOL0     H 3082   3.492  10.275   2.388 -0.1181 -0.6211 -0.0168
  764MOL0     H 3083   3.733  10.314   2.459  0.6973 -1.1514 -0.1412
  764MOL0     H 3084   3.631  10.413   2.560 -3.2298 -2.0008  2.4729
  764MOL0     H 3085   3.633  10.240   2.730  0.5501  3.0467  0.5355
  764MOL0     H 3086   3.764  10.149   2.647  0.2652 -0.6597  3.2038
  764MOL0     H 3087   3.898  10.378   2.653 -0.2722  0.8518 -0.0511
  764MOL0     H 3088   3.768  10.440   2.750 -0.7048  0.0011 -0.1128
  764MOL0     H 3089   3.830  10.232   2.897 -1.8215  4.2575  1.6595
  764MOL0     H 3090   3.940  10.368   2.904 -4.0335 -0.2459  2.4129
  764MOL0     H 3091   3.949  10.014   2.728 -1.1098  1.3000 -2.3956
  764MOL0     H 3092   4.205   9.838   2.785  1.2171 -0.4250 -0.5126
  764MOL0     H 3093   4.187   9.860   2.613  1.4177  1.1223 -0.6293
  764MOL0     H 3094   4.410   9.953   2.803  1.2840 -0.8551 -0.0055
  764MOL0     H 3095   4.402   9.990   2.639 -5.9648  1.7363 -0.6590
  764MOL0     H 3096   4.415   9.745   2.573  2.9317  0.1922  0.2152
  764MOL0     H 3097   4.421   9.712   2.750 -3.4728  2.3184  0.7880
  764MOL0     H 3098   4.612   9.868   2.740 -1.8047 -1.6866  0.7077
  764MOL0     H 3099   4.618   9.856   2.560 -2.0768 -1.3543 -0.9780
  764MOL0     H 3100   4.858   9.868   2.606  0.5868  0.0041 -0.6486
  764MOL0     H 3101   5.173   9.899   2.738  2.4924 -2.2617  0.5481
  764MOL0     H 3102   5.191   9.808   2.578 -4.0634 -4.1385 -0.1918
  764MOL0     H 3103   5.074   9.942   2.601 -1.0902 -0.2960 -0.3330
  764MOL0     H 3104   5.313   9.270   2.606 -0.3310  0.8475 -0.0502
  764MOL0     H 3105   5.539   9.158   2.621 -1.5405  1.7266 -1.1933
  764MOL0     H 3106   5.856   9.343   2.911  3.2616 -0.5753  0.3852
  764MOL0     H 3107   5.945   9.246   2.820 -2.5657 -2.0787 -0.3661
  764MOL0     H 3108   5.931   9.384   2.603 -2.2138 -4.4208  1.9471
  764MOL0     H 3109   5.809   9.491   2.673 -1.0214 -1.6016 -1.9017
  764MOL0     H 3110   5.928   9.610   2.784 -0.1821 -0.4637 -0.3083
  764MOL0     H 3111   6.047   9.570   2.655  1.4574 -3.0971  0.5356
  764MOL0     H 3112   6.072   9.446   2.930 -0.7958  1.8784  0.2037
  764MOL0     H 3113   6.181   9.440   2.791 -0.7979  0.9059 -0.2079
  764MOL0     H 3114   6.084   9.674   2.964 -1.4647 -0.4830 -2.3242
  764MOL0     H 3115   6.175   9.712   2.814  0.4825  1.9928  0.6419
  764MOL0     H 3116   6.298   9.565   3.047  0.3965  0.3435 -0.3717
  764MOL0     H 3117   6.373   9.600   2.892 -1.7450 -0.4481 -2.5834
  764MOL0     H 3118   6.349   9.791   3.125 -2.4483  3.1516  0.0267
  764MOL0     H 3119   6.267   9.845   2.981 -1.9650 -1.0693  1.2901
  764MOL0     H 3120   6.509   9.914   3.005  0.6897  0.3313 -1.4138
  764MOL0     H 3121   6.481   9.836   2.857 -1.2951 -1.8222  0.2657
  764MOL0     H 3122   5.643   9.415   2.954 -0.9030  0.3329  1.0572
  764MOL0     H 3123   5.420   9.510   2.943  1.4467 -1.4665  0.4204
  764MOL0     H 3124   4.996   9.416   2.749 -2.1700  0.4556  3.5158
  764MOL0     H 3125   4.760   9.469   2.718 -1.3298  1.0692 -0.9342
  764MOL0     H 3126   3.008  10.206   2.809 -0.6667 -1.3479 -2.0509
  764MOL0     H 3127   2.780  10.277   2.883 -1.2873 -0.4665 -2.1918
  764MOL0     H 3128   2.427  10.732   2.591  1.8845  1.0946  1.5124
  764MOL0     H 3129   2.201  10.663   2.527 -0.0578  2.4028  0.8134
  764MOL0     H 3130   1.937  10.572   2.623  1.0442  0.8656  0.8125
  764MOL0     H 3131   2.028  10.560   2.468 -0.0784 -2.5910 -0.5736
  764MOL0     H 3132   1.830  10.342   2.547 -2.3895  1.0318 -1.1676
  764MOL0     H 3133   1.890  10.379   2.386 -1.3729 -0.0845  0.1084
  764MOL0     H 3134   1.693  10.503   2.358 -2.9306  2.4139  1.3088
  764MOL0     H 3135   1.800  10.620   2.423  0.5031 -0.6751  0.2282
  764MOL0     H 3136   1.680  10.602   2.635 -1.1263 -0.3671  1.2558
  764MOL0     H 3137   1.633  10.433   2.607  1.7870 -1.1888 -0.8545
  764MOL0     H 3138   1.285  10.621   2.495 -0.2202  2.9952  1.0304
  764MOL0     H 3139   2.232  10.330   2.796  1.0762  2.3410  1.7161
  764MOL0     H 3140   2.426  10.385   2.872 -2.5182  0.1976  1.8988
  765MOL0     O 3141   8.780   4.830   0.583 -0.0795 -0.0449 -0.2067
  765MOL0     C 3142   8.733   4.936   0.530 -0.4533 -0.0626  0.3141
  765MOL0     O 3143   8.798   5.058   0.527  0.2449  0.3129 -0.0927
  765MOL0     C 3144   8.917   5.079   0.585 -0.0240 -0.4623 -0.9328
  765MOL0     C 3145   9.029   4.991   0.580  0.1504 -0.1500 -0.5259
  765MOL0     C 3146   9.152   5.041   0.625 -0.5870 -0.5529 -0.1399
  765MOL0     C 3147   9.176   5.173   0.667 -0.0580  0.0490 -0.0628
  765MOL0     O 3148   9.294   5.233   0.707  0.4399  0.4672 -0.7076
  765MOL0     C 3149   9.410   5.147   0.697 -0.3333 -0.4591 -0.6565
  765MOL0     C 3150   9.532   5.230   0.751 -0.6692 -0.0593  0.4803
  765MOL0     C 3151   9.531   5.244   0.902  0.3747 -0.3203  0.0650
  765MOL0     C 3152   9.661   5.282   0.948 -0.3384  0.0408  0.4303
  765MOL0     C 3153   9.656   5.305   1.098 -0.6178 -0.3822 -0.7971
  765MOL0     C 3154   9.583   5.186   1.190  0.8371  0.0089  0.1247
  765MOL0     C 3155   9.631   5.186   1.338 -0.2659 -0.3043  0.9350
  765MOL0     C 3156   9.618   5.044   1.399  1.1206 -0.7618 -0.2871
  765MOL0     N 3157   9.685   5.034   1.531  0.8814 -0.4460  0.6920
  765MOL0     C 3158   9.750   4.920   1.572  0.2554  0.0083 -0.2257
  765MOL0     C 3159   9.793   4.946   1.698  0.8749  0.2993 -0.4408
  765MOL0     C 3160   9.873   4.855   1.781 -0.3078  1.1074 -0.5332
  765MOL0     C 3161  10.018   4.900   1.823 -0.0286 -0.0102  0.5861
  765MOL0     C 3162  10.117   4.922   1.702 -0.3303  0.1612  0.1970
  765MOL0     C 3163  10.251   4.994   1.737  0.2682  0.0661 -0.0774
  765MOL0     O 3164  10.315   5.036   1.615 -0.5641  0.5088  0.0546
  765MOL0     C 3165  10.439   5.093   1.619  0.3297 -0.2408  0.1284
  765MOL0     C 3166  10.496   5.126   1.496  0.0125 -0.7935 -0.4936
  765MOL0     C 3167  10.624   5.173   1.492 -0.2649  0.4422 -0.6417
  765MOL0     C 3168  10.674   5.214   1.353 -0.8406  0.8399  0.6074
  765MOL0     C 3169  10.708   5.190   1.610 -1.3107 -0.7727  0.4421
  765MOL0     C 3170  10.854   5.234   1.604  0.3381 -1.0149  0.4881
  765MOL0     O 3171  10.912   5.276   1.724  0.1559 -0.5019 -0.1255
  765MOL0     C 3172  11.051   5.284   1.740  0.3204 -0.2178  0.0914
  765MOL0     C 3173  11.149   5.342   1.650  0.8846  1.6254 -0.2969
  765MOL0     C 3174  11.275   5.339   1.686 -0.3785  0.0031 -0.9641
  765MOL0     C 3175  11.325   5.293   1.807 -0.7629  0.1543  0.4440
  765MOL0     O 3176  11.454   5.281   1.858  0.2198 -0.3526 -0.0226
  765MOL0     C 3177  11.549   5.336   1.771  0.9041 -0.4169 -1.4381
  765MOL0     C 3178  11.681   5.311   1.838  0.4273 -0.2329 -0.1324
  765MOL0     C 3179  11.753   5.178   1.802 -0.4275  0.5562  0.1477
  765MOL0     C 3180  11.781   5.132   1.654  0.7225  0.0864  0.6672
  765MOL0     C 3181  11.866   5.006   1.648 -0.0737 -0.5956  0.2677
  765MOL0     C 3182  11.874   4.969   1.501  0.5197 -0.2082  0.2965
  765MOL0     C 3183  11.914   4.823   1.484  1.0023 -0.4570 -0.3780
  765MOL0     C 3184  11.948   4.777   1.345  0.3583  1.0015  1.4031
  765MOL0    Cl 3185  12.099   4.860   1.280  0.1422  0.0517 -0.2039
  765MOL0     C 3186  11.224   5.241   1.895 -0.1706 -0.3329 -1.0454
  765MOL0     C 3187  11.090   5.242   1.862 -0.4095  0.9555 -0.4105
  765MOL0     O 3188  10.930   5.217   1.504  0.0950  0.9951 -0.5851
  765MOL0     C 3189  10.636   5.170   1.731  0.4614  1.1004  0.2607
  765MOL0     C 3190  10.505   5.124   1.740 -0.4390  0.6133  0.4201
  765MOL0     N 3191   9.765   5.071   1.730  0.8774  0.1893  0.9089
  765MOL0     N 3192   9.703   5.124   1.629  0.0022 -0.1918  0.1907
  765MOL0     C 3193   9.062   5.256   0.660  1.1131 -0.4159 -0.0757
  765MOL0     C 3194   8.937   5.212   0.626 -0.0378  0.2925  0.0296
  765MOL0     C 3195   8.603   4.938   0.488  1.5306  0.1202 -0.0803
  765MOL0     C 3196   8.535   4.819   0.441 -0.1839  0.0830 -0.8818
  765MOL0     C 3197   8.399   4.815   0.393  0.1237  0.0439 -0.0177
  765MOL0     C 3198   8.322   4.932   0.389  0.6083  0.7534  0.0210
  765MOL0     O 3199   8.188   4.919   0.350 -0.5860  0.6795 -0.5140
  765MOL0     C 3200   8.115   5.041   0.335  0.3180 -0.7270 -0.2816
  765MOL0     C 3201   7.990   5.023   0.242 -0.6916  0.0457  0.0472
  765MOL0     C 3202   7.892   4.925   0.306  1.0247  0.5278  0.4586
  765MOL0     C 3203   7.805   4.991   0.417 -0.6679 -0.5656  0.5422
  765MOL0     C 3204   7.694   5.074   0.354  0.2481 -0.4128  0.8154
  765MOL0     C 3205   7.594   5.134   0.322  0.1458 -0.1293 -0.1856
  765MOL0     C 3206   8.380   5.049   0.442 -1.1127  0.0385 -1.1122
  765MOL0     C 3207   8.518   5.050   0.494 -0.3993 -0.2902 -0.1060
  765MOL0     H 3208   9.023   4.893   0.535  1.0501 -0.0220 -0.9445
  765MOL0     H 3209   9.237   4.973   0.624 -0.3610 -0.2967  0.8011
  765MOL0     H 3210   9.401   5.058   0.761  2.6606 -0.4939 -0.1476
  765MOL0     H 3211   9.431   5.108   0.597  1.1458 -3.0209  0.5539
  765MOL0     H 3212   9.629   5.191   0.719 -0.8692 -2.0960  2.1024
  765MOL0     H 3213   9.517   5.332   0.714  1.8649  0.3272  0.3831
  765MOL0     H 3214   9.451   5.314   0.925 -1.4610 -1.9658 -1.0595
  765MOL0     H 3215   9.497   5.147   0.939  2.5679 -1.6348 -1.1365
  765MOL0     H 3216   9.735   5.203   0.932 -0.4235  0.3138 -1.5524
  765MOL0     H 3217   9.692   5.371   0.894 -0.2875 -0.4259 -0.3255
  765MOL0     H 3218   9.758   5.311   1.136 -0.8905 -2.4905  0.4360
  765MOL0     H 3219   9.597   5.393   1.125 -2.8536 -2.0585  0.1513
  765MOL0     H 3220   9.476   5.183   1.171  0.5548  2.5703  1.0099
  765MOL0     H 3221   9.625   5.094   1.147  1.6259 -1.0006  2.8186
  765MOL0     H 3222   9.735   5.219   1.329 -0.1490  0.5843  4.1576
  765MOL0     H 3223   9.577   5.258   1.400  0.6309 -0.2444  1.6687
  765MOL0     H 3224   9.662   4.977   1.324 -0.7931 -0.3154 -1.8721
  765MOL0     H 3225   9.511   5.020   1.405  0.8410 -0.1274 -2.1224
  765MOL0     H 3226   9.750   4.828   1.514 -1.0790  0.7399 -1.4104
  765MOL0     H 3227   9.813   4.828   1.868  0.1318 -4.3342 -1.5436
  765MOL0     H 3228   9.901   4.763   1.727  0.9347  0.4702  1.1103
  765MOL0     H 3229  10.056   4.821   1.889 -5.7836 -2.8518  1.1106
  765MOL0     H 3230  10.013   4.990   1.886  0.0005 -1.9090  3.5274
  765MOL0     H 3231  10.071   4.974   1.617 -0.6456  0.3409  0.4789
  765MOL0     H 3232  10.147   4.822   1.670  0.9735 -0.1924  2.3219
  765MOL0     H 3233  10.306   4.924   1.801 -0.8839 -0.0760  0.7934
  765MOL0     H 3234  10.216   5.075   1.802  1.0072  0.6464 -0.3884
  765MOL0     H 3235  10.438   5.130   1.404 -1.4368  2.4305  0.4086
  765MOL0     H 3236  10.723   5.312   1.360  0.4534  0.3498 -0.9425
  765MOL0     H 3237  10.742   5.151   1.295 -0.1338  0.8814  1.3692
  765MOL0     H 3238  10.583   5.222   1.294  0.8088 -2.8073 -2.8888
  765MOL0     H 3239  11.117   5.381   1.553  1.6850  0.7264 -0.9375
  765MOL0     H 3240  11.331   5.372   1.599 -1.7603  0.7229 -1.6150
  765MOL0     H 3241  11.565   5.294   1.671  4.7914 -0.8648 -0.7911
  765MOL0     H 3242  11.533   5.444   1.774 -0.1177 -0.5450  1.6993
  765MOL0     H 3243  11.760   5.380   1.806  2.0304 -1.4377  1.0475
  765MOL0     H 3244  11.678   5.328   1.946 -0.4393  1.7195 -0.4309
  765MOL0     H 3245  11.686   5.096   1.830  0.7893 -0.7119 -0.5148
  765MOL0     H 3246  11.842   5.180   1.865 -1.3964  1.2926  1.5495
  765MOL0     H 3247  11.679   5.119   1.614  1.0518 -0.3639 -0.0501
  765MOL0     H 3248  11.828   5.210   1.593 -0.1215 -0.8184 -1.2558
  765MOL0     H 3249  11.819   4.926   1.706 -2.2301  0.9512  0.7694
  765MOL0     H 3250  11.965   5.009   1.696  1.1973  1.6766 -2.2367
  765MOL0     H 3251  11.780   4.987   1.447  0.1470 -1.5167  0.4667
  765MOL0     H 3252  11.945   5.031   1.446 -1.5552  2.4244  0.3360
  765MOL0     H 3253  11.823   4.777   1.523  1.3494 -1.3539 -0.6132
  765MOL0     H 3254  11.996   4.795   1.552  1.0028  1.2841  0.3958
  765MOL0     H 3255  11.876   4.814   1.271 -1.3726 -2.0049  1.4407
  765MOL0     H 3256  11.955   4.670   1.327 -0.5090  0.6798  2.8844
  765MOL0     H 3257  11.258   5.202   1.990 -1.7820 -2.3821 -1.2553
  765MOL0     H 3258  11.010   5.215   1.929 -0.9304  0.0790 -1.3634
  765MOL0     H 3259  10.680   5.180   1.830  1.5350 -0.8434  0.0383
  765MOL0     H 3260  10.452   5.120   1.834  0.6730  2.1089  1.1464
  765MOL0     H 3261   9.057   5.359   0.693 -2.3050 -1.4763  3.4457
  765MOL0     H 3262   8.852   5.279   0.615 -0.9319 -1.1203 -2.2452
  765MOL0     H 3263   8.588   4.726   0.456  0.2343  0.2339 -1.4149
  765MOL0     H 3264   8.361   4.718   0.361 -0.1951  0.0722  0.2767
  765MOL0     H 3265   8.090   5.089   0.430 -2.2839  1.7682 -2.0229
  765MOL0     H 3266   8.178   5.108   0.275 -1.9137  4.8309  2.8004
  765MOL0     H 3267   8.022   4.982   0.145  1.9018  1.1671  0.3358
  765MOL0     H 3268   7.941   5.119   0.226 -0.3177  0.6290  2.1526
  765MOL0     H 3269   7.941   4.833   0.338 -0.1506 -0.9883 -1.8421
  765MOL0     H 3270   7.819   4.894   0.231  0.6567  0.2694  0.9228
  765MOL0     H 3271   7.862   5.043   0.494  0.4650  4.3728 -3.1323
  765MOL0     H 3272   7.750   4.906   0.459  0.0960 -2.0573 -1.3009
  765MOL0     H 3273   7.511   5.197   0.299 -2.4404 -3.3612 -0.3203
  765MOL0     H 3274   8.331   5.145   0.447 -1.8722 -0.3615 -0.5338
  765MOL0     H 3275   8.567   5.134   0.543 -1.0352  0.3149 -0.4942
  766MOL0     O 3276   3.526  10.463   8.722 -0.0819  0.4656  0.1409
  766MOL0     C 3277   3.565  10.579   8.703 -0.1472  0.7298 -0.3528
  766MOL0     O 3278   3.493  10.697   8.722 -0.1507 -0.1083  0.0512
  766MOL0     C 3279   3.365  10.699   8.749 -0.2099  0.4421 -0.0793
  766MOL0     C 3280   3.302  10.608   8.841  1.1444 -0.2031 -0.8657
  766MOL0     C 3281   3.173  10.600   8.879  0.7444  0.2713 -0.6891
  766MOL0     C 3282   3.087  10.701   8.823  0.8284  0.3186  1.1476
  766MOL0     O 3283   2.951  10.709   8.850 -0.0901  0.0913  0.5420
  766MOL0     C 3284   2.898  10.674   8.975 -0.5188  0.5695  0.2303
  766MOL0     C 3285   2.797  10.571   8.936  0.1240  0.1902  0.9120
  766MOL0     C 3286   2.876  10.434   8.920 -0.0176  0.4335  0.5727
  766MOL0     C 3287   2.771  10.313   8.933 -0.3691  0.2709 -0.2303
  766MOL0     C 3288   2.838  10.175   8.914  0.1458 -0.1521  0.1596
  766MOL0     C 3289   2.929  10.157   8.794  0.2627 -0.6100  0.3115
  766MOL0     C 3290   2.952  10.004   8.789 -0.4185  0.1621 -0.8017
  766MOL0     C 3291   3.036   9.948   8.897  0.1711 -0.3467 -0.0640
  766MOL0     N 3292   3.052   9.799   8.897 -0.3900  0.0201 -0.6181
  766MOL0     C 3293   3.159   9.735   8.848  0.8612  0.5425  1.3907
  766MOL0     C 3294   3.154   9.607   8.888  0.7865  0.6514 -0.5957
  766MOL0     C 3295   3.259   9.507   8.869 -0.4604 -0.4095 -0.5230
  766MOL0     C 3296   3.242   9.419   8.749  0.6956 -0.1252 -0.1672
  766MOL0     C 3297   3.371   9.355   8.695  0.2642  1.0019 -0.0198
  766MOL0     C 3298   3.353   9.287   8.554  0.6865  0.3613 -0.8909
  766MOL0     O 3299   3.473   9.270   8.478  0.8701 -1.0140 -0.0430
  766MOL0     C 3300   3.451   9.213   8.354  0.5590  0.6322  0.2618
  766MOL0     C 3301   3.516   9.267   8.241 -0.2640 -0.3264 -0.6041
  766MOL0     C 3302   3.529   9.205   8.112 -0.0125 -0.0287 -0.3546
  766MOL0     C 3303   3.606   9.274   8.006 -0.3073 -0.3975 -0.2434
  766MOL0     C 3304   3.463   9.080   8.094  0.1166 -0.3596 -0.8553
  766MOL0     C 3305   3.469   8.995   7.976 -0.4929 -0.5632 -0.6714
  766MOL0     O 3306   3.597   8.958   7.958 -0.1576 -0.6944 -0.3203
  766MOL0     C 3307   3.602   8.854   7.872 -0.4419  0.2381  0.2711
  766MOL0     C 3308   3.602   8.724   7.918 -0.7096  0.6962  0.3274
  766MOL0     C 3309   3.590   8.608   7.838 -0.2564 -0.0702 -1.0446
  766MOL0     C 3310   3.572   8.629   7.697  0.0361 -0.1057 -1.0280
  766MOL0     O 3311   3.553   8.522   7.616 -0.3980 -0.2628  0.1776
  766MOL0     C 3312   3.620   8.516   7.486  0.1292 -1.0553  0.0307
  766MOL0     C 3313   3.605   8.372   7.444  0.2705  0.1076 -0.0649
  766MOL0     C 3314   3.657   8.335   7.311 -1.2056 -0.7650 -0.0759
  766MOL0     C 3315   3.808   8.347   7.302  0.6790 -0.7073 -0.1212
  766MOL0     C 3316   3.846   8.478   7.226  0.1110  0.5177 -0.0649
  766MOL0     C 3317   3.998   8.515   7.215 -0.7785  0.4884 -0.8429
  766MOL0     C 3318   4.032   8.574   7.082  0.5161  0.2350  0.1247
  766MOL0     C 3319   4.067   8.462   6.971 -0.5235 -0.5439  0.3005
  766MOL0    Cl 3320   4.199   8.354   7.042  0.1849 -1.0059 -0.2373
  766MOL0     C 3321   3.569   8.765   7.647  0.2842  0.1491 -0.4108
  766MOL0     C 3322   3.581   8.877   7.734 -0.6664  0.3775  0.0610
  766MOL0     O 3323   3.365   8.955   7.927  0.5288 -0.4784  0.0002
  766MOL0     C 3324   3.387   9.024   8.200 -0.0140  0.5667 -0.6381
  766MOL0     C 3325   3.380   9.089   8.326 -0.5150  0.0235 -0.0987
  766MOL0     N 3326   3.034   9.588   8.957 -0.9241  0.3455  0.5356
  766MOL0     N 3327   2.975   9.710   8.965 -0.4630 -0.2873  0.0822
  766MOL0     C 3328   3.135  10.799   8.727  0.3791 -0.4098 -0.4436
  766MOL0     C 3329   3.273  10.792   8.697  0.3035  0.3208  0.3795
  766MOL0     C 3330   3.706  10.602   8.661  0.4697 -0.0617 -0.9399
  766MOL0     C 3331   3.783  10.494   8.610 -0.5322  0.3132 -0.3849
  766MOL0     C 3332   3.924  10.508   8.597 -0.2211  0.1962  1.1684
  766MOL0     C 3333   3.981  10.631   8.613  0.5704 -0.0535  0.3143
  766MOL0     O 3334   4.110  10.672   8.580  0.3206 -0.5358  0.5238
  766MOL0     C 3335   4.214  10.577   8.589 -0.1359 -0.4177  0.4500
  766MOL0     C 3336   4.217  10.531   8.737  0.1562 -0.1778  0.1174
  766MOL0     C 3337   4.234  10.644   8.835  0.1118 -0.2980 -0.5767
  766MOL0     C 3338   4.375  10.702   8.835 -0.6204  0.0492  0.3861
  766MOL0     C 3339   4.469  10.600   8.875  0.2879 -0.3561  0.3907
  766MOL0     C 3340   4.546  10.517   8.917  0.1045  0.3773 -0.2386
  766MOL0     C 3341   3.906  10.742   8.649  0.1168 -0.4191  0.0362
  766MOL0     C 3342   3.772  10.721   8.679  0.5837 -1.0717 -0.6956
  766MOL0     H 3343   3.381  10.562   8.899 -1.2923 -2.0178  1.2197
  766MOL0     H 3344   3.139  10.524   8.949  2.1586 -0.2068 -0.4922
  766MOL0     H 3345   2.974  10.640   9.045 -0.2062  0.4239 -0.1773
  766MOL0     H 3346   2.853  10.764   9.018 -0.0200  1.8306 -1.7397
  766MOL0     H 3347   2.734  10.560   9.025 -0.9175  1.5667  0.3773
  766MOL0     H 3348   2.740  10.590   8.845  0.2572  0.2311  0.8369
  766MOL0     H 3349   2.940  10.427   8.832 -0.2929 -1.5117  0.4813
  766MOL0     H 3350   2.953  10.421   8.997  1.4866  1.2382 -0.7566
  766MOL0     H 3351   2.722  10.320   9.031  0.9091 -0.0864  0.4495
  766MOL0     H 3352   2.695  10.321   8.854  0.1506 -0.3712 -0.8117
  766MOL0     H 3353   2.891  10.147   9.006 -1.5667 -2.0488  0.6308
  766MOL0     H 3354   2.759  10.101   8.915  0.5732 -0.6591 -1.3150
  766MOL0     H 3355   2.882  10.185   8.700  2.4082  0.7925 -0.4246
  766MOL0     H 3356   3.031  10.198   8.789  1.8724 -4.3339 -1.7108
  766MOL0     H 3357   2.850   9.963   8.787 -1.4430  2.5696 -1.6056
  766MOL0     H 3358   2.988   9.975   8.690  4.2253  0.9956  0.4310
  766MOL0     H 3359   2.980   9.969   8.989 -2.1034 -1.1573 -1.1703
  766MOL0     H 3360   3.136   9.990   8.890  1.0754 -1.8966  2.2771
  766MOL0     H 3361   3.239   9.760   8.780 -0.7883  4.4319  0.6558
  766MOL0     H 3362   3.354   9.560   8.866 -0.7367  0.0492 -2.4429
  766MOL0     H 3363   3.257   9.449   8.962  1.3506 -1.2890 -0.9914
  766MOL0     H 3364   3.201   9.484   8.671 -0.4121 -1.4447 -0.7297
  766MOL0     H 3365   3.163   9.347   8.775 -0.0792  0.2049 -1.5122
  766MOL0     H 3366   3.401   9.274   8.762 -1.2349  0.5619  0.1501
  766MOL0     H 3367   3.449   9.431   8.683 -2.1511  3.4645 -1.2659
  766MOL0     H 3368   3.282   9.349   8.498 -0.4185 -0.3183 -0.2583
  766MOL0     H 3369   3.311   9.188   8.569 -0.6555  0.5796 -2.7855
  766MOL0     H 3370   3.562   9.364   8.260 -2.1581  0.9693 -2.1815
  766MOL0     H 3371   3.704   9.228   7.988 -0.7243 -0.6740 -2.0177
  766MOL0     H 3372   3.550   9.261   7.913  1.1215  1.6154 -1.4727
  766MOL0     H 3373   3.623   9.378   8.034  2.3154 -1.6518  3.6476
  766MOL0     H 3374   3.625   8.701   8.022  2.9082 -0.5889 -0.6203
  766MOL0     H 3375   3.586   8.507   7.878 -2.0098  0.5568  0.5019
  766MOL0     H 3376   3.566   8.577   7.414  0.2408 -0.6115  0.3239
  766MOL0     H 3377   3.725   8.543   7.497 -0.0960 -0.5078  0.8608
  766MOL0     H 3378   3.652   8.308   7.519  1.3285  0.1783 -0.6509
  766MOL0     H 3379   3.497   8.352   7.441  0.3323 -0.3168  0.4793
  766MOL0     H 3380   3.609   8.395   7.232  0.5574 -0.1599 -0.7352
  766MOL0     H 3381   3.620   8.234   7.289  0.5286 -1.3806 -0.3717
  766MOL0     H 3382   3.861   8.339   7.397  1.7925  0.4519 -0.6047
  766MOL0     H 3383   3.841   8.267   7.235 -3.2484 -0.4155 -2.7615
  766MOL0     H 3384   3.792   8.560   7.273 -4.9405 -1.8407 -1.1206
  766MOL0     H 3385   3.807   8.471   7.124 -2.7260  2.0455  0.8247
  766MOL0     H 3386   4.030   8.579   7.298  0.7171 -1.5457  0.2580
  766MOL0     H 3387   4.053   8.421   7.225 -3.0297 -0.7916  0.3875
  766MOL0     H 3388   4.122   8.636   7.086  0.8986 -0.3018 -0.0089
  766MOL0     H 3389   3.953   8.637   7.040 -1.9552 -3.0532 -0.5812
  766MOL0     H 3390   4.108   8.506   6.879  0.1924  0.8794  1.2732
  766MOL0     H 3391   3.977   8.407   6.942  0.9106 -1.2943 -3.2073
  766MOL0     H 3392   3.550   8.774   7.541  1.3169  0.8772 -0.5494
  766MOL0     H 3393   3.572   8.977   7.692  0.0564  0.4885  0.1620
  766MOL0     H 3394   3.336   8.929   8.184  0.9404 -0.4122  1.7194
  766MOL0     H 3395   3.331   9.043   8.412  2.8983  1.0892  2.6722
  766MOL0     H 3396   3.055  10.856   8.680 -3.1562 -2.3374  2.6876
  766MOL0     H 3397   3.309  10.865   8.625 -3.8116  0.6418 -1.6210
  766MOL0     H 3398   3.740  10.394   8.596  0.4117 -0.0834 -0.4975
  766MOL0     H 3399   3.986  10.423   8.571 -1.1107  0.3755 -2.0786
  766MOL0     H 3400   4.196  10.486   8.530 -0.4063  0.0348 -0.1784
  766MOL0     H 3401   4.317  10.608   8.566 -0.5712  0.2059 -0.7530
  766MOL0     H 3402   4.293  10.455   8.758 -0.6130 -0.9750  0.0314
  766MOL0     H 3403   4.125  10.475   8.755  0.1878 -0.8318 -1.6244
  766MOL0     H 3404   4.213  10.592   8.929 -3.7437  0.5979 -0.7504
  766MOL0     H 3405   4.153  10.717   8.820  1.4628  1.2725 -0.5660
  766MOL0     H 3406   4.385  10.787   8.904  1.2464 -1.4592  2.1343
  766MOL0     H 3407   4.403  10.740   8.737 -1.9756  3.5212  1.2023
  766MOL0     H 3408   4.612  10.444   8.959  1.0319 -0.4818 -2.9630
  766MOL0     H 3409   3.948  10.842   8.638  0.1005 -0.1275  2.2262
  766MOL0     H 3410   3.709  10.807   8.702 -1.1085 -1.4345 -3.4697
  767MOL0     O 3411   4.646   0.504   0.125  0.0572 -0.0095 -0.5114
  767MOL0     C 3412   4.538   0.563   0.111 -0.0999  0.0012  1.2437
  767MOL0     O 3413   4.511   0.687   0.041 -0.0259  0.8453 -0.2658
  767MOL0     C 3414   4.596   0.791   0.022 -0.6730 -0.1245  0.2524
  767MOL0     C 3415   4.738   0.785   0.053  0.0983  0.5751  0.5328
  767MOL0     C 3416   4.819   0.888   0.014 -0.4594 -1.0462 -0.0548
  767MOL0     C 3417   4.766   0.999  -0.049  0.5942 -0.3076  0.1623
  767MOL0     O 3418   4.840   1.104  -0.087 -0.2347 -0.5907 -0.4886
  767MOL0     C 3419   4.921   1.175   0.010 -0.9849 -0.3969  0.0620
  767MOL0     C 3420   4.975   1.312  -0.056  0.2712  0.2275 -0.5713
  767MOL0     C 3421   5.037   1.279  -0.189  0.4395  0.0019  0.0360
  767MOL0     C 3422   5.168   1.199  -0.194  0.1080 -0.6589  0.5439
  767MOL0     C 3423   5.150   1.051  -0.222 -0.6818 -0.2087  0.1157
  767MOL0     C 3424   5.294   0.989  -0.218  0.2043  0.3425  0.5557
  767MOL0     C 3425   5.301   0.845  -0.259  0.1806 -0.0571  0.0213
  767MOL0     C 3426   5.440   0.785  -0.273  0.8650 -0.0133 -0.8355
  767MOL0     N 3427   5.447   0.670  -0.367  0.3164 -0.4799  0.7838
  767MOL0     C 3428   5.566   0.625  -0.415  0.1210 -0.1987 -0.3167
  767MOL0     C 3429   5.544   0.512  -0.484  0.5168 -0.0449 -0.4945
  767MOL0     C 3430   5.639   0.425  -0.556 -0.5784 -0.0441  1.0967
  767MOL0     C 3431   5.743   0.357  -0.458  0.1696 -0.9025  0.1218
  767MOL0     C 3432   5.683   0.225  -0.428  0.4010 -1.0760  0.1343
  767MOL0     C 3433   5.564   0.235  -0.329 -0.0370 -0.2620 -0.0856
  767MOL0     O 3434   5.550   0.115  -0.250  0.0856  0.1223  0.4866
  767MOL0     C 3435   5.483   0.128  -0.135 -0.2490  0.1529 -0.2468
  767MOL0     C 3436   5.468   0.010  -0.056 -0.0703 -1.6781 -0.4957
  767MOL0     C 3437   5.413   0.005   0.074 -0.2977  0.0429  0.7366
  767MOL0     C 3438   5.432  -0.121   0.156 -0.6716 -0.2654 -0.5324
  767MOL0     C 3439   5.361   0.127   0.125  0.3255 -0.1887 -0.0066
  767MOL0     C 3440   5.315   0.137   0.266 -0.1045 -0.5497 -0.5729
  767MOL0     O 3441   5.310   0.271   0.315 -0.8519  0.1061  0.9660
  767MOL0     C 3442   5.319   0.302   0.443  0.3691  0.1782 -0.2430
  767MOL0     C 3443   5.397   0.231   0.537 -0.3041  0.0125 -0.5188
  767MOL0     C 3444   5.386   0.269   0.672 -0.9895  0.8276 -0.8238
  767MOL0     C 3445   5.294   0.363   0.715 -0.1233  0.0942 -0.3822
  767MOL0     O 3446   5.282   0.386   0.850 -0.7358  0.2683 -0.4663
  767MOL0     C 3447   5.147   0.375   0.892  0.6459  0.4135  0.1366
  767MOL0     C 3448   5.140   0.361   1.041 -0.0817  1.0055  0.0620
  767MOL0     C 3449   5.198   0.225   1.077  0.3330  0.5729 -1.0291
  767MOL0     C 3450   5.168   0.201   1.224  0.7067 -0.2775  0.1699
  767MOL0     C 3451   5.191   0.067   1.294  0.5040 -0.2083 -0.1085
  767MOL0     C 3452   5.195   0.071   1.447 -0.6025 -0.5142  0.1575
  767MOL0     C 3453   5.177  -0.066   1.504  0.0902  0.6333 -0.6605
  767MOL0     C 3454   5.189  -0.044   1.655  0.5510  0.4617 -0.4855
  767MOL0    Cl 3455   5.176  -0.215   1.712 -0.2015 -0.0218  0.2773
  767MOL0     C 3456   5.225   0.439   0.621  0.3565  0.2577  1.2276
  767MOL0     C 3457   5.249   0.417   0.486 -0.9749 -1.0090  0.4301
  767MOL0     O 3458   5.266   0.042   0.323  0.0830  0.1284 -0.0005
  767MOL0     C 3459   5.370   0.243   0.046 -0.5627  0.4059 -0.0667
  767MOL0     C 3460   5.438   0.246  -0.080  0.5263  0.5663  0.1132
  767MOL0     N 3461   5.403   0.483  -0.477  0.3357 -0.1348 -0.1985
  767MOL0     N 3462   5.349   0.577  -0.395 -0.2879  0.4106 -0.9436
  767MOL0     C 3463   4.626   1.004  -0.080  0.0262  1.3338  0.2973
  767MOL0     C 3464   4.537   0.907  -0.036  0.2043  0.2521 -1.5177
  767MOL0     C 3465   4.411   0.496   0.156  0.7918  0.0559 -1.3346
  767MOL0     C 3466   4.287   0.544   0.123  0.5887  0.5935  0.5677
  767MOL0     C 3467   4.166   0.477   0.158  0.1420 -1.1393 -1.1238
  767MOL0     C 3468   4.165   0.359   0.231  0.3735 -0.8766 -0.1178
  767MOL0     O 3469   4.048   0.302   0.281 -0.9021 -0.0429  0.1135
  767MOL0     C 3470   3.917   0.355   0.258 -0.2943 -0.2093  1.2602
  767MOL0     C 3471   3.821   0.239   0.258  0.2302  0.0978  0.0763
  767MOL0     C 3472   3.684   0.302   0.272 -0.2005  0.0654  0.7719
  767MOL0     C 3473   3.581   0.201   0.294 -0.5201 -0.3694  0.3871
  767MOL0     C 3474   3.594   0.146   0.430  0.0814  0.9349 -0.3011
  767MOL0     C 3475   3.616   0.097   0.539 -0.5624  0.1154  0.4803
  767MOL0     C 3476   4.297   0.304   0.265 -0.0263 -0.0655 -0.5437
  767MOL0     C 3477   4.415   0.373   0.225 -0.7119  0.0498  0.2841
  767MOL0     H 3478   4.783   0.702   0.107  1.2636  1.0536  0.3311
  767MOL0     H 3479   4.921   0.881   0.052  0.0485 -1.7930 -1.5036
  767MOL0     H 3480   4.862   1.216   0.093 -0.4149 -0.8966  0.7239
  767MOL0     H 3481   5.007   1.121   0.049 -2.9546 -1.9348  2.5833
  767MOL0     H 3482   4.892   1.381  -0.068 -0.5810 -0.4297  1.1817
  767MOL0     H 3483   5.049   1.360   0.009  1.2143 -1.9854  0.1009
  767MOL0     H 3484   4.965   1.235  -0.259  0.0401  1.5266 -0.5683
  767MOL0     H 3485   5.070   1.378  -0.223  1.3799  0.1238  1.2207
  767MOL0     H 3486   5.226   1.240  -0.277 -0.5964  2.7661  1.5967
  767MOL0     H 3487   5.224   1.221  -0.103  2.4483  1.1186 -1.2077
  767MOL0     H 3488   5.097   0.996  -0.143  2.5274 -4.2100 -0.1857
  767MOL0     H 3489   5.098   1.023  -0.314 -0.9865 -0.3345  0.3230
  767MOL0     H 3490   5.369   1.043  -0.277  0.1495 -1.6443 -1.4612
  767MOL0     H 3491   5.331   0.991  -0.115  1.0443 -1.3624  0.3288
  767MOL0     H 3492   5.241   0.786  -0.188  3.1502 -0.3288  2.5216
  767MOL0     H 3493   5.258   0.849  -0.359 -4.4930  1.3050  1.8084
  767MOL0     H 3494   5.492   0.747  -0.184  2.5807  0.8583 -1.4282
  767MOL0     H 3495   5.513   0.859  -0.306 -1.1716  1.4911 -2.2022
  767MOL0     H 3496   5.659   0.679  -0.407  1.5006 -2.3234 -1.1483
  767MOL0     H 3497   5.584   0.356  -0.620 -0.5753  1.1362 -0.2261
  767MOL0     H 3498   5.689   0.493  -0.625 -2.6654 -0.4588 -0.9567
  767MOL0     H 3499   5.765   0.423  -0.374 -4.1526  2.3141 -0.8926
  767MOL0     H 3500   5.834   0.345  -0.517  0.9513  4.9188 -0.4437
  767MOL0     H 3501   5.763   0.172  -0.377  1.5421 -0.7370 -1.2584
  767MOL0     H 3502   5.654   0.176  -0.521 -0.5521  1.6373 -1.1092
  767MOL0     H 3503   5.474   0.271  -0.379  0.8009  2.4416  0.1696
  767MOL0     H 3504   5.595   0.317  -0.263 -1.5225  0.6004 -0.3997
  767MOL0     H 3505   5.503  -0.082  -0.103  2.6157 -1.9183  1.6921
  767MOL0     H 3506   5.340  -0.168   0.193  0.2383  0.4167  2.9934
  767MOL0     H 3507   5.491  -0.197   0.104 -0.2000  1.6865 -3.0412
  767MOL0     H 3508   5.482  -0.090   0.249 -1.0891  1.0553 -0.7185
  767MOL0     H 3509   5.446   0.139   0.508  0.0451 -0.1686  0.6016
  767MOL0     H 3510   5.448   0.219   0.745 -2.2972 -0.5541 -0.6033
  767MOL0     H 3511   5.093   0.462   0.853  0.1813  0.1667  0.2129
  767MOL0     H 3512   5.103   0.293   0.835  0.9573  0.7999 -0.6689
  767MOL0     H 3513   5.204   0.436   1.089  2.6026 -0.0080 -1.7244
  767MOL0     H 3514   5.039   0.373   1.082  0.5555  0.0582  2.0083
  767MOL0     H 3515   5.305   0.207   1.060 -0.3205 -2.7792 -2.4431
  767MOL0     H 3516   5.156   0.140   1.022 -0.0562 -0.0653  0.2307
  767MOL0     H 3517   5.206   0.288   1.278 -0.7448  0.7412 -0.4068
  767MOL0     H 3518   5.059   0.209   1.230  0.6834  0.5294 -1.0666
  767MOL0     H 3519   5.278   0.014   1.253  0.8437  0.1594  0.1261
  767MOL0     H 3520   5.109  -0.000   1.265  0.5028  0.2631 -1.2402
  767MOL0     H 3521   5.280   0.126   1.489  0.3926 -2.1403  0.3416
  767MOL0     H 3522   5.104   0.129   1.466 -0.7834 -0.3968 -0.9860
  767MOL0     H 3523   5.252  -0.138   1.470  0.7239  0.0338  1.8101
  767MOL0     H 3524   5.087  -0.121   1.474 -0.0529  0.6578 -0.2723
  767MOL0     H 3525   5.102   0.008   1.698  1.0381  0.8307  0.0655
  767MOL0     H 3526   5.284   0.005   1.677  1.3446 -0.5468 -1.5312
  767MOL0     H 3527   5.170   0.523   0.661  2.0552  1.1087  1.8577
  767MOL0     H 3528   5.192   0.470   0.410 -0.2891  0.9663  1.2435
  767MOL0     H 3529   5.334   0.336   0.089 -1.6748 -1.1487  2.6013
  767MOL0     H 3530   5.440   0.338  -0.137 -2.5157 -0.1480 -1.3015
  767MOL0     H 3531   4.585   1.079  -0.146 -1.5735  1.4477  1.3686
  767MOL0     H 3532   4.434   0.899  -0.068 -0.3197  1.3163 -0.1831
  767MOL0     H 3533   4.280   0.636   0.067 -2.0246  0.5534  0.6939
  767MOL0     H 3534   4.074   0.532   0.143  1.8221  2.4851  0.5573
  767MOL0     H 3535   3.895   0.430   0.334  5.3155  1.9526  1.2070
  767MOL0     H 3536   3.908   0.401   0.160  1.1797 -0.9994  0.7156
  767MOL0     H 3537   3.843   0.177   0.345 -2.0303 -1.6949 -0.5410
  767MOL0     H 3538   3.826   0.176   0.169  0.2128 -0.8136  0.7131
  767MOL0     H 3539   3.675   0.349   0.174 -0.3776 -2.0523 -0.2740
  767MOL0     H 3540   3.677   0.376   0.352 -1.9439  3.6693 -2.4248
  767MOL0     H 3541   3.606   0.120   0.224 -3.5151 -0.5382 -0.6131
  767MOL0     H 3542   3.477   0.226   0.272 -0.5758 -2.4414 -2.2563
  767MOL0     H 3543   3.643   0.061   0.637 -0.7922 -1.2748  0.0465
  767MOL0     H 3544   4.289   0.212   0.322  0.1749 -0.2248 -0.7708
  767MOL0     H 3545   4.513   0.330   0.240 -1.0431 -2.6476 -3.7639
  768MOL0     O 3546   6.766   7.869   0.795 -0.1971  0.4336  0.5520
  768MOL0     C 3547   6.803   7.988   0.797 -0.9165  0.3402 -0.9283
  768MOL0     O 3548   6.831   8.043   0.910 -0.0101  0.0955 -0.2845
  768MOL0     C 3549   6.808   7.976   1.028 -0.1185 -0.4013 -0.4059
  768MOL0     C 3550   6.676   7.947   1.076  0.7423 -0.0803  0.1284
  768MOL0     C 3551   6.656   7.897   1.203 -0.3800 -0.1197  0.1356
  768MOL0     C 3552   6.767   7.876   1.282  0.5655 -0.6163 -0.0364
  768MOL0     O 3553   6.759   7.838   1.411  0.5480  0.3310 -0.4078
  768MOL0     C 3554   6.649   7.756   1.453 -0.6143 -0.1338  0.0915
  768MOL0     C 3555   6.576   7.833   1.559  0.4369  0.5789 -0.0397
  768MOL0     C 3556   6.435   7.777   1.596 -0.5828  0.0492  0.3803
  768MOL0     C 3557   6.430   7.655   1.691  0.2703  0.0794 -0.5874
  768MOL0     C 3558   6.284   7.632   1.736  0.8472  1.0661  1.0004
  768MOL0     C 3559   6.184   7.573   1.628  0.1519  1.3803 -0.4500
  768MOL0     C 3560   6.076   7.502   1.703 -0.3140  0.1262 -0.2978
  768MOL0     C 3561   5.969   7.466   1.614 -0.0439  0.4312  0.0572
  768MOL0     N 3562   5.849   7.441   1.689 -0.8117  1.1189  0.3950
  768MOL0     C 3563   5.722   7.456   1.639  1.1753 -0.1152  0.3430
  768MOL0     C 3564   5.642   7.415   1.734  0.0709 -0.2303 -1.2215
  768MOL0     C 3565   5.489   7.413   1.746 -0.0027  0.2423 -0.3900
  768MOL0     C 3566   5.432   7.526   1.664  0.1369 -1.0990  0.0991
  768MOL0     C 3567   5.283   7.545   1.673  0.6120  0.5139 -1.0696
  768MOL0     C 3568   5.231   7.686   1.635  0.3057  1.0614 -0.3333
  768MOL0     O 3569   5.255   7.718   1.499  0.1294  0.2710 -0.5610
  768MOL0     C 3570   5.351   7.809   1.451  0.1386  0.2594 -0.4819
  768MOL0     C 3571   5.364   7.945   1.495  0.5995  0.3230  0.0518
  768MOL0     C 3572   5.466   8.030   1.448 -0.0808  0.1513 -0.3589
  768MOL0     C 3573   5.469   8.158   1.523  0.1205 -0.6361 -0.2711
  768MOL0     C 3574   5.565   7.978   1.360  0.6804 -0.1422 -0.0134
  768MOL0     C 3575   5.655   8.056   1.284  0.2244 -0.8993  0.3686
  768MOL0     O 3576   5.614   8.188   1.247 -0.2504 -0.0173  0.2060
  768MOL0     C 3577   5.710   8.266   1.192 -0.3271 -0.6101  0.4860
  768MOL0     C 3578   5.704   8.290   1.056  0.3098 -0.5421 -0.5985
  768MOL0     C 3579   5.806   8.370   0.996 -0.3061  0.3567 -0.1102
  768MOL0     C 3580   5.913   8.417   1.069  0.6810 -0.5521 -0.3412
  768MOL0     O 3581   6.015   8.480   1.011 -0.3567 -0.5280 -1.3113
  768MOL0     C 3582   5.982   8.611   0.956  0.1593  0.0088  0.8937
  768MOL0     C 3583   6.104   8.640   0.861  0.0930  0.9964  0.6173
  768MOL0     C 3584   6.089   8.566   0.731 -0.3280 -0.4286  0.6122
  768MOL0     C 3585   6.212   8.612   0.655 -0.3223 -0.8010  0.5488
  768MOL0     C 3586   6.204   8.555   0.515 -0.3868 -0.5043 -0.2089
  768MOL0     C 3587   6.321   8.606   0.429  0.0064  0.1904 -0.1541
  768MOL0     C 3588   6.459   8.538   0.451 -0.5719 -0.2936  0.1461
  768MOL0     C 3589   6.460   8.388   0.413 -0.4089 -0.0108  0.3123
  768MOL0    Cl 3590   6.412   8.370   0.235  0.1622 -0.2744 -0.0304
  768MOL0     C 3591   5.904   8.406   1.213  0.0170 -0.4703 -0.3939
  768MOL0     C 3592   5.806   8.325   1.272  0.0614  1.0412 -0.3582
  768MOL0     O 3593   5.760   8.006   1.244 -0.5380  0.4455  0.1205
  768MOL0     C 3594   5.546   7.846   1.314 -0.6412 -0.2705 -0.5159
  768MOL0     C 3595   5.445   7.760   1.358 -0.6578  0.1387 -0.2028
  768MOL0     N 3596   5.723   7.400   1.859  0.2360 -0.2966  0.7408
  768MOL0     N 3597   5.846   7.421   1.823 -0.4136 -0.7153 -1.0395
  768MOL0     C 3598   6.893   7.915   1.241  0.6468  0.4272  0.6050
  768MOL0     C 3599   6.916   7.962   1.113  0.7801  0.8602  0.5469
  768MOL0     C 3600   6.814   8.069   0.674  0.0107  0.9637 -0.4075
  768MOL0     C 3601   6.826   8.211   0.680 -0.2405 -0.1182 -0.2107
  768MOL0     C 3602   6.839   8.292   0.570 -0.4411 -1.4617  0.0804
  768MOL0     C 3603   6.822   8.240   0.440  0.3995 -0.2768  0.5634
  768MOL0     O 3604   6.860   8.330   0.338 -0.2201  0.1300  0.3741
  768MOL0     C 3605   6.935   8.262   0.235  0.1639  0.4538 -0.1514
  768MOL0     C 3606   6.980   8.361   0.135 -0.0162 -0.1011  1.0965
  768MOL0     C 3607   7.126   8.406   0.159 -0.2930  0.3570 -0.6453
  768MOL0     C 3608   7.138   8.459   0.300 -0.5918  0.8434 -0.5006
  768MOL0     C 3609   7.277   8.501   0.317  0.9258 -0.4847 -0.5154
  768MOL0     C 3610   7.390   8.534   0.345  0.0395  0.1402  0.6857
  768MOL0     C 3611   6.801   8.101   0.435 -0.0169 -0.1209 -0.6781
  768MOL0     C 3612   6.805   8.013   0.550 -0.8422 -0.6563  0.3728
  768MOL0     H 3613   6.593   7.971   1.010  1.0502  0.1265 -0.1913
  768MOL0     H 3614   6.552   7.891   1.232 -0.9740 -0.5709 -1.8750
  768MOL0     H 3615   6.586   7.712   1.376 -1.8483 -0.5482  1.3102
  768MOL0     H 3616   6.688   7.674   1.514  1.3031  0.8892  0.3364
  768MOL0     H 3617   6.632   7.836   1.654  0.1924  1.8413  0.0838
  768MOL0     H 3618   6.551   7.935   1.527 -1.7020  0.5348  1.2489
  768MOL0     H 3619   6.378   7.856   1.645  0.1096  0.9131 -0.1494
  768MOL0     H 3620   6.387   7.760   1.499  1.3908 -0.2954 -0.5896
  768MOL0     H 3621   6.466   7.567   1.636  1.0020 -0.2455  0.3810
  768MOL0     H 3622   6.505   7.669   1.770  1.8987  0.5649 -2.1293
  768MOL0     H 3623   6.296   7.565   1.822 -2.3968 -2.1421 -0.7418
  768MOL0     H 3624   6.246   7.726   1.776 -2.6713 -0.4771  1.6325
  768MOL0     H 3625   6.140   7.658   1.574  1.9737  2.5162 -0.2328
  768MOL0     H 3626   6.228   7.501   1.559 -3.6465 -0.9327 -0.7456
  768MOL0     H 3627   6.123   7.411   1.742  1.5857  1.7641  1.5156
  768MOL0     H 3628   6.040   7.555   1.791  1.2305 -0.8498  0.9791
  768MOL0     H 3629   5.983   7.375   1.555 -1.4693 -1.5581  2.5758
  768MOL0     H 3630   5.940   7.554   1.556  0.3887  0.5843  0.0725
  768MOL0     H 3631   5.690   7.478   1.538 -0.8603 -2.6120  0.3381
  768MOL0     H 3632   5.450   7.315   1.716  1.1220  0.0022 -1.1188
  768MOL0     H 3633   5.459   7.420   1.851  2.5464 -1.2729  0.5190
  768MOL0     H 3634   5.445   7.517   1.556 -1.1055  1.0048 -0.2900
  768MOL0     H 3635   5.486   7.619   1.679 -1.0499 -0.1654 -1.1808
  768MOL0     H 3636   5.237   7.519   1.768  0.9019  0.7067 -0.8772
  768MOL0     H 3637   5.240   7.475   1.600  0.4246 -1.1447  0.5589
  768MOL0     H 3638   5.274   7.760   1.704  3.0673 -1.1124  0.4706
  768MOL0     H 3639   5.123   7.692   1.651  0.5735 -0.1204  2.6282
  768MOL0     H 3640   5.306   7.983   1.578 -0.2176  0.9945 -0.8062
  768MOL0     H 3641   5.379   8.215   1.496  1.6502  0.9879 -2.2774
  768MOL0     H 3642   5.469   8.138   1.631 -2.2572  4.7255  1.0535
  768MOL0     H 3643   5.557   8.205   1.478 -0.4441  0.1416 -0.5895
  768MOL0     H 3644   5.637   8.249   0.982  0.3073  0.4157 -1.1416
  768MOL0     H 3645   5.814   8.387   0.889  2.5788  2.5659  0.3433
  768MOL0     H 3646   5.896   8.613   0.888 -0.7658 -1.7024  1.9387
  768MOL0     H 3647   5.977   8.693   1.028  1.9375  0.0791  0.9909
  768MOL0     H 3648   6.101   8.746   0.835 -0.5638  0.9394  0.4239
  768MOL0     H 3649   6.196   8.611   0.913 -0.7301  0.8870  2.0854
  768MOL0     H 3650   5.999   8.602   0.680 -2.8272 -2.0582  3.5064
  768MOL0     H 3651   6.084   8.457   0.737  2.1117 -0.6009  0.3363
  768MOL0     H 3652   6.237   8.718   0.647  0.6640 -1.1308 -1.1698
  768MOL0     H 3653   6.302   8.570   0.700  0.3400 -0.8191 -0.7421
  768MOL0     H 3654   6.112   8.579   0.461 -1.5721 -1.0776  1.4540
  768MOL0     H 3655   6.213   8.447   0.529  0.1570 -0.2829  1.4254
  768MOL0     H 3656   6.290   8.599   0.325  1.1131  0.4522 -0.5189
  768MOL0     H 3657   6.332   8.714   0.445  2.0281  0.2098 -1.2495
  768MOL0     H 3658   6.486   8.537   0.557 -0.7079 -0.4574  0.1786
  768MOL0     H 3659   6.528   8.601   0.394 -2.4314  0.8310 -0.9472
  768MOL0     H 3660   6.395   8.334   0.483  2.8883 -0.3352  3.4114
  768MOL0     H 3661   6.557   8.342   0.433  0.1281  0.3327 -1.3064
  768MOL0     H 3662   5.985   8.453   1.268 -2.5800  2.2039  1.4256
  768MOL0     H 3663   5.796   8.297   1.376 -5.2760  0.0596 -0.8701
  768MOL0     H 3664   5.607   7.805   1.234  0.2223  2.5485 -1.4187
  768MOL0     H 3665   5.440   7.661   1.315 -0.6182  0.9636 -2.1913
  768MOL0     H 3666   6.973   7.907   1.313  2.5648 -0.9832 -1.5217
  768MOL0     H 3667   7.014   7.985   1.072  0.5917  1.6381  0.5257
  768MOL0     H 3668   6.838   8.256   0.779  1.4156 -0.9946  0.0268
  768MOL0     H 3669   6.849   8.400   0.580  1.7679 -1.6845  0.6102
  768MOL0     H 3670   7.016   8.199   0.271 -1.6362 -0.5201  2.5059
  768MOL0     H 3671   6.866   8.195   0.182 -0.6717  0.5420  0.7861
  768MOL0     H 3672   6.921   8.453   0.131 -0.8850 -0.5934  2.0265
  768MOL0     H 3673   6.979   8.321   0.033 -0.5743  2.6069 -0.0428
  768MOL0     H 3674   7.142   8.472   0.073  0.6065 -0.5565 -1.2094
  768MOL0     H 3675   7.197   8.325   0.140  0.2440  0.0810  2.1186
  768MOL0     H 3676   7.131   8.382   0.377 -0.8247 -0.3887 -1.7279
  768MOL0     H 3677   7.062   8.537   0.311  0.5805  1.8668  0.6952
  768MOL0     H 3678   7.477   8.594   0.360 -1.8266  3.0564  0.7127
  768MOL0     H 3679   6.784   8.074   0.332 -1.2142  2.1627 -1.1464
  768MOL0     H 3680   6.793   7.905   0.550  2.0971 -1.0788  1.5382
  769MOL0     O 3681   9.661   9.279   6.180  0.4960 -0.3603 -0.3203
  769MOL0     C 3682   9.676   9.301   6.295 -0.5010 -0.6819 -1.4777
  769MOL0     O 3683   9.573   9.292   6.384 -0.5827 -0.1006  0.7538
  769MOL0     C 3684   9.441   9.271   6.349 -0.1041  0.7045 -0.0851
  769MOL0     C 3685   9.377   9.312   6.229 -0.1215  0.6159  0.3738
  769MOL0     C 3686   9.240   9.310   6.225  0.5658  0.5676 -0.5063
  769MOL0     C 3687   9.163   9.256   6.328 -0.7352 -0.3780 -0.4033
  769MOL0     O 3688   9.029   9.257   6.311  0.4564 -0.1588  1.0470
  769MOL0     C 3689   8.986   9.229   6.173 -0.2498 -1.0499  0.5402
  769MOL0     C 3690   8.841   9.172   6.168 -0.3366 -0.0290  0.0324
  769MOL0     C 3691   8.744   9.282   6.181 -0.4038 -0.3420  0.5152
  769MOL0     C 3692   8.602   9.232   6.200 -0.7632  0.3534  0.4987
  769MOL0     C 3693   8.495   9.340   6.192  0.1915  0.8492 -0.6747
  769MOL0     C 3694   8.364   9.275   6.241  1.1928 -0.3393 -0.4319
  769MOL0     C 3695   8.252   9.383   6.233  1.0489 -0.3255 -0.0277
  769MOL0     C 3696   8.124   9.327   6.279  0.3556 -0.2738 -0.3444
  769MOL0     N 3697   8.098   9.298   6.427 -0.2457 -0.0316 -0.1049
  769MOL0     C 3698   8.086   9.175   6.474 -1.0979  0.2282  0.6679
  769MOL0     C 3699   8.036   9.181   6.603 -0.4226 -0.4759  1.0001
  769MOL0     C 3700   7.996   9.059   6.689 -0.9204 -0.4134 -0.0718
  769MOL0     C 3701   8.025   9.068   6.843 -1.0297  0.9913 -0.3019
  769MOL0     C 3702   7.948   8.950   6.909  0.1466 -0.4055  0.5677
  769MOL0     C 3703   7.933   8.943   7.067  1.0543  0.3710 -0.3482
  769MOL0     O 3704   8.053   8.895   7.127 -0.5725  1.1772 -0.1286
  769MOL0     C 3705   8.081   8.762   7.143  1.4916 -0.5552  0.4951
  769MOL0     C 3706   8.016   8.652   7.083  0.7956  0.1643 -0.7708
  769MOL0     C 3707   8.046   8.518   7.120 -0.1135 -0.7067 -0.1244
  769MOL0     C 3708   7.971   8.407   7.055  1.1601 -0.0006  0.0816
  769MOL0     C 3709   8.163   8.490   7.201  0.4667  0.3811 -0.0306
  769MOL0     C 3710   8.231   8.358   7.221  1.0437 -0.9290  1.0045
  769MOL0     O 3711   8.171   8.240   7.190 -0.0691  0.0465 -0.7948
  769MOL0     C 3712   8.248   8.129   7.215 -0.0911  0.8541 -0.8424
  769MOL0     C 3713   8.238   8.071   7.341 -0.8997  1.3564 -0.9676
  769MOL0     C 3714   8.308   7.949   7.368  0.1146  0.8551 -0.1645
  769MOL0     C 3715   8.387   7.889   7.258  1.2284 -0.3095  0.1410
  769MOL0     O 3716   8.461   7.777   7.274 -0.3034  0.0025  0.2536
  769MOL0     C 3717   8.490   7.741   7.410 -0.0959  1.0661  0.8640
  769MOL0     C 3718   8.587   7.623   7.415 -1.2809 -1.0346 -0.3589
  769MOL0     C 3719   8.524   7.487   7.386  0.3811  0.3545  0.0403
  769MOL0     C 3720   8.633   7.384   7.347  0.3316 -0.0223  0.0237
  769MOL0     C 3721   8.578   7.256   7.298 -0.4943  1.0561  0.4091
  769MOL0     C 3722   8.682   7.145   7.309 -0.4065 -0.0756  0.0650
  769MOL0     C 3723   8.773   7.149   7.184 -0.8026 -0.3829 -0.6040
  769MOL0     C 3724   8.867   7.032   7.185 -0.8498 -0.0381 -0.3612
  769MOL0    Cl 3725   8.785   6.883   7.158  0.2287 -0.1114  0.1589
  769MOL0     C 3726   8.388   7.951   7.131  0.0237 -0.3518 -0.4620
  769MOL0     C 3727   8.325   8.073   7.111  0.0025  0.1274 -0.1397
  769MOL0     O 3728   8.348   8.363   7.253  0.1633 -0.6261 -1.2725
  769MOL0     C 3729   8.233   8.604   7.239  1.0938 -0.5121 -0.0016
  769MOL0     C 3730   8.192   8.736   7.215 -0.9019 -0.2280  0.5471
  769MOL0     N 3731   8.024   9.311   6.639  0.2761 -0.7884  0.6844
  769MOL0     N 3732   8.060   9.378   6.528 -0.5069 -1.0831 -0.6702
  769MOL0     C 3733   9.230   9.210   6.443  0.7356 -0.1201  0.1685
  769MOL0     C 3734   9.374   9.221   6.456  0.6073 -1.2038  0.4829
  769MOL0     C 3735   9.817   9.330   6.354 -0.5991 -0.1659  0.5155
  769MOL0     C 3736   9.939   9.282   6.300 -0.7348 -0.5210  0.3763
  769MOL0     C 3737  10.065   9.323   6.351 -0.9515 -0.1878 -0.3363
  769MOL0     C 3738  10.068   9.404   6.462 -0.6739  0.0429  0.6931
  769MOL0     O 3739  10.188   9.441   6.520 -0.7775 -0.1230 -0.2167
  769MOL0     C 3740  10.249   9.564   6.476  0.1411  0.8703 -0.2181
  769MOL0     C 3741  10.395   9.566   6.507  0.3668 -0.5089 -0.0579
  769MOL0     C 3742  10.474   9.443   6.444  0.4925 -0.8637 -0.7077
  769MOL0     C 3743  10.621   9.437   6.476  0.1971 -0.0885 -0.2018
  769MOL0     C 3744  10.681   9.560   6.421  0.1982 -0.2281 -0.7635
  769MOL0     C 3745  10.730   9.651   6.360  0.9412 -0.4065 -0.5290
  769MOL0     C 3746   9.955   9.434   6.531 -0.3590  0.8217 -0.4061
  769MOL0     C 3747   9.827   9.394   6.477  0.0003  0.2299  0.3510
  769MOL0     H 3748   9.432   9.331   6.138 -1.1848  1.6503 -0.0812
  769MOL0     H 3749   9.205   9.355   6.132  3.1395  3.5386 -0.2205
  769MOL0     H 3750   8.990   9.320   6.112  0.0820 -0.1821  1.8118
  769MOL0     H 3751   9.050   9.152   6.130  0.4149 -1.0117  1.4432
  769MOL0     H 3752   8.827   9.111   6.078  3.8290 -1.9881  0.4514
  769MOL0     H 3753   8.833   9.113   6.259  0.9890  2.1759  1.6944
  769MOL0     H 3754   8.774   9.353   6.258  0.3847  2.4495 -2.1876
  769MOL0     H 3755   8.748   9.325   6.081 -1.3733 -0.1584  0.5469
  769MOL0     H 3756   8.585   9.150   6.130  0.0810  2.4655 -2.3437
  769MOL0     H 3757   8.606   9.180   6.297 -0.0386 -1.1771 -0.3055
  769MOL0     H 3758   8.519   9.423   6.260  0.7264  0.6452 -0.6153
  769MOL0     H 3759   8.480   9.377   6.090  1.1442  0.4458 -0.9668
  769MOL0     H 3760   8.338   9.202   6.163 -0.0295 -0.9878  0.5554
  769MOL0     H 3761   8.371   9.224   6.337 -0.2721 -3.1610 -1.7001
  769MOL0     H 3762   8.268   9.477   6.288 -1.2938  1.2541 -1.8588
  769MOL0     H 3763   8.227   9.406   6.130  1.6451  0.5659  0.0171
  769MOL0     H 3764   8.104   9.242   6.212 -0.8719  1.2514 -2.0398
  769MOL0     H 3765   8.053   9.406   6.250  3.3620  2.6166 -0.4222
  769MOL0     H 3766   8.117   9.083   6.426 -0.7868  1.1212 -0.8941
  769MOL0     H 3767   7.888   9.050   6.682 -0.9352  0.5994 -1.8363
  769MOL0     H 3768   8.041   8.967   6.649 -1.6797 -0.5746 -0.5581
  769MOL0     H 3769   7.995   9.163   6.888 -0.5525  0.8340  0.3687
  769MOL0     H 3770   8.132   9.047   6.854 -0.6435  3.0796  0.2218
  769MOL0     H 3771   7.993   8.856   6.876  1.2544 -0.3118  1.7141
  769MOL0     H 3772   7.846   8.970   6.874 -0.1846  2.7375  2.8549
  769MOL0     H 3773   7.848   8.880   7.096  1.0007  1.1366  1.2470
  769MOL0     H 3774   7.911   9.044   7.102  2.5031  0.6419 -0.1688
  769MOL0     H 3775   7.924   8.673   7.030 -0.1604 -1.6944  0.0559
  769MOL0     H 3776   7.872   8.449   7.035  1.0851  0.1458  0.7323
  769MOL0     H 3777   8.009   8.379   6.957 -3.1201 -2.6157 -1.0941
  769MOL0     H 3778   7.955   8.321   7.120 -0.0730  1.2204  1.4640
  769MOL0     H 3779   8.184   8.118   7.423 -1.7651 -1.2315  0.0459
  769MOL0     H 3780   8.306   7.913   7.470 -1.6437 -0.8081 -0.7167
  769MOL0     H 3781   8.532   7.830   7.458  2.5548 -1.2891  3.3099
  769MOL0     H 3782   8.396   7.711   7.457  0.7066 -1.4022  1.0363
  769MOL0     H 3783   8.672   7.646   7.350 -0.0914 -1.3219  1.0353
  769MOL0     H 3784   8.624   7.609   7.517 -0.7848  1.3234 -0.1677
  769MOL0     H 3785   8.453   7.502   7.303  1.6589  1.1081 -0.9491
  769MOL0     H 3786   8.458   7.460   7.469 -1.3012  2.4409 -0.5343
  769MOL0     H 3787   8.703   7.432   7.278  0.6977 -0.1038  0.3344
  769MOL0     H 3788   8.695   7.367   7.435  0.7462  0.2450 -0.2177
  769MOL0     H 3789   8.548   7.262   7.193 -1.6629 -3.6699  0.2533
  769MOL0     H 3790   8.493   7.231   7.362  0.4132  2.3396  2.1789
  769MOL0     H 3791   8.752   7.146   7.394 -2.5595 -2.6912  2.0507
  769MOL0     H 3792   8.625   7.052   7.309 -0.5402 -0.0204  1.4986
  769MOL0     H 3793   8.828   7.242   7.199 -0.4365 -0.8419  1.1522
  769MOL0     H 3794   8.715   7.155   7.092 -1.3749  4.4377 -0.1538
  769MOL0     H 3795   8.911   7.007   7.282  0.6651 -2.6171 -1.6110
  769MOL0     H 3796   8.946   7.046   7.112  0.3422  0.8093  1.0356
  769MOL0     H 3797   8.427   7.902   7.043 -0.6722 -0.2400 -0.8430
  769MOL0     H 3798   8.331   8.123   7.014  3.6184  3.4276  1.5068
  769MOL0     H 3799   8.331   8.593   7.286  2.0662  0.9848 -1.5386
  769MOL0     H 3800   8.246   8.819   7.257 -2.6080  0.3394  1.7474
  769MOL0     H 3801   9.162   9.183   6.523  0.8201 -3.0934 -0.6400
  769MOL0     H 3802   9.412   9.203   6.556  0.6576  1.6087  1.0504
  769MOL0     H 3803   9.939   9.226   6.207  2.5516 -3.8131  2.0651
  769MOL0     H 3804  10.145   9.289   6.287 -1.1762 -0.2887 -0.5662
  769MOL0     H 3805  10.238   9.575   6.368 -1.1025  0.5862 -0.1400
  769MOL0     H 3806  10.200   9.647   6.528  1.5994  1.2823  0.5689
  769MOL0     H 3807  10.405   9.574   6.615 -2.0898  1.4050  0.1226
  769MOL0     H 3808  10.431   9.658   6.460  0.0330  0.8574  2.2336
  769MOL0     H 3809  10.460   9.456   6.336 -3.4420 -1.0733 -0.3636
  769MOL0     H 3810  10.427   9.349   6.476 -0.9215 -0.0490 -0.3100
  769MOL0     H 3811  10.669   9.353   6.424 -2.4542  0.0822 -3.2839
  769MOL0     H 3812  10.650   9.432   6.581  0.9340 -1.9940 -0.4515
  769MOL0     H 3813  10.764   9.742   6.314 -2.2784 -0.4547 -3.4209
  769MOL0     H 3814   9.965   9.498   6.618 -0.9047 -0.4455  0.6196
  769MOL0     H 3815   9.742   9.429   6.535 -0.1998 -0.2444  0.3429
  770MOL0     O 3816   6.866  10.358   9.335  0.0973 -0.1567  0.6709
  770MOL0     C 3817   6.808  10.459   9.338 -0.5233 -0.4028 -0.9430
  770MOL0     O 3818   6.782  10.536   9.445  0.2790 -0.2749 -0.1868
  770MOL0     C 3819   6.797  10.490   9.579 -0.2592  0.0937 -0.0817
  770MOL0     C 3820   6.817  10.591   9.674  0.0422 -0.0323  0.2189
  770MOL0     C 3821   6.836  10.560   9.805  0.5104  0.3546 -1.0202
  770MOL0     C 3822   6.833  10.423   9.852 -0.5265 -0.5677  0.0578
  770MOL0     O 3823   6.860  10.386   9.983  0.3659  0.0165 -0.7804
  770MOL0     C 3824   6.879  10.488  10.082 -0.1141 -0.3662  0.6047
  770MOL0     C 3825   6.888  10.421  10.217 -0.0138 -0.4521  0.3289
  770MOL0     C 3826   6.918  10.542  10.311 -0.5259  0.3591 -0.7951
  770MOL0     C 3827   6.931  10.483  10.455  1.1579  0.1727  0.1510
  770MOL0     C 3828   6.975  10.581  10.562  0.9330 -0.2415 -0.6645
  770MOL0     C 3829   6.857  10.664  10.611 -0.5642 -1.1798 -0.3744
  770MOL0     C 3830   6.880  10.726  10.747 -0.5770  0.2342 -0.6617
  770MOL0     C 3831   6.767  10.827  10.774 -0.0739  0.0256 -0.4807
  770MOL0     N 3832   6.783  10.924  10.886 -0.1287  0.6485 -0.0414
  770MOL0     C 3833   6.872  10.918  10.987 -0.1814  0.3626 -0.1100
  770MOL0     C 3834   6.875  11.033  11.052 -0.4495 -0.0830 -0.2704
  770MOL0     C 3835   6.955  11.076  11.171  0.5744  0.9791 -0.6831
  770MOL0     C 3836   6.882  11.040  11.306 -0.5043  0.0513  0.2907
  770MOL0     C 3837   6.752  11.115  11.344 -0.0341 -0.7432 -0.4671
  770MOL0     C 3838   6.691  11.052  11.467  0.1575 -0.2503 -0.4447
  770MOL0     O 3839   6.648  10.918  11.445 -1.2886 -0.3247  0.5200
  770MOL0     C 3840   6.538  10.886  11.511  0.4005  0.4847  0.4081
  770MOL0     C 3841   6.417  10.882  11.438  0.7105  0.0280  0.2312
  770MOL0     C 3842   6.297  10.842  11.500 -0.0467  0.9794 -0.3686
  770MOL0     C 3843   6.171  10.829  11.411 -0.8050  0.1677 -0.4438
  770MOL0     C 3844   6.296  10.805  11.637  0.3069 -0.1267  0.3495
  770MOL0     C 3845   6.173  10.775  11.721 -0.0107  0.0811 -0.0218
  770MOL0     O 3846   6.055  10.735  11.664  0.1190 -0.1026  0.6964
  770MOL0     C 3847   5.939  10.703  11.737 -0.9991  0.6553 -0.1011
  770MOL0     C 3848   5.818  10.741  11.685 -0.7153  0.5858 -0.1128
  770MOL0     C 3849   5.701  10.709  11.751 -0.3176 -1.1489  0.3757
  770MOL0     C 3850   5.704  10.635  11.872 -0.6044 -0.4493  0.0908
  770MOL0     O 3851   5.585  10.618  11.936 -0.4321  0.5656 -0.5065
  770MOL0     C 3852   5.569  10.481  11.980 -0.0251  0.7515  0.6048
  770MOL0     C 3853   5.450  10.468  12.066 -0.3454  0.5602  0.6051
  770MOL0     C 3854   5.324  10.495  11.981 -0.7581  0.1811  0.0629
  770MOL0     C 3855   5.270  10.353  11.932 -0.2946  0.4328 -0.3717
  770MOL0     C 3856   5.163  10.387  11.831  0.1220  0.3702  0.2024
  770MOL0     C 3857   5.078  10.264  11.791 -0.0464  0.1974  0.2059
  770MOL0     C 3858   4.962  10.281  11.695 -0.3680  0.4136 -0.5318
  770MOL0     C 3859   5.016  10.338  11.557  0.9594 -0.1353  0.1012
  770MOL0    Cl 3860   4.893  10.346  11.441 -0.1397 -0.1986  0.0854
  770MOL0     C 3861   5.828  10.598  11.924 -0.8761 -0.2272 -0.3564
  770MOL0     C 3862   5.944  10.629  11.859  0.1797 -0.1165  0.4960
  770MOL0     O 3863   6.189  10.784  11.844 -0.3267  0.3679  0.5397
  770MOL0     C 3864   6.417  10.808  11.704 -0.8338 -0.3172  0.2177
  770MOL0     C 3865   6.542  10.840  11.642  0.3965  0.6300 -0.1594
  770MOL0     N 3866   6.778  11.114  10.994  0.7426 -0.4762 -0.3932
  770MOL0     N 3867   6.734  11.050  10.893 -1.1411 -0.8063  1.0813
  770MOL0     C 3868   6.811  10.324   9.755  0.5038 -0.2892  0.1639
  770MOL0     C 3869   6.790  10.355   9.618 -0.0160 -0.6239 -0.5588
  770MOL0     C 3870   6.749  10.507   9.212 -0.2384 -0.2239  0.6315
  770MOL0     C 3871   6.677  10.630   9.197  1.1598 -0.2724  0.2827
  770MOL0     C 3872   6.642  10.676   9.073 -0.3596  0.2036  0.3881
  770MOL0     C 3873   6.666  10.602   8.962  0.2667  0.6814  0.0720
  770MOL0     O 3874   6.615  10.655   8.844 -0.7807 -1.0026  0.5582
  770MOL0     C 3875   6.695  10.641   8.719 -0.1688 -0.0036  0.1305
  770MOL0     C 3876   6.615  10.547   8.635  0.2680 -0.8851  0.3706
  770MOL0     C 3877   6.684  10.503   8.510 -0.1071  0.1046 -0.2184
  770MOL0     C 3878   6.590  10.388   8.452  0.6910  0.4542  0.1054
  770MOL0     C 3879   6.631  10.347   8.314  0.1203 -0.2520  0.1506
  770MOL0     C 3880   6.667  10.324   8.202  0.3536 -0.1203 -0.6283
  770MOL0     C 3881   6.745  10.482   8.970  0.0006 -0.1718  0.5923
  770MOL0     C 3882   6.788  10.436   9.092 -0.4940  0.0499  0.2170
  770MOL0     H 3883   6.826  10.695   9.644  5.1916  0.2654  1.8969
  770MOL0     H 3884   6.864  10.636   9.877  1.0292 -0.8863  0.1471
  770MOL0     H 3885   6.972  10.544  10.067 -1.2868  1.2886 -1.0461
  770MOL0     H 3886   6.802  10.566  10.083 -2.1836 -2.3209  1.8461
  770MOL0     H 3887   6.793  10.371  10.236 -1.7744  0.8301 -3.9324
  770MOL0     H 3888   6.972  10.351  10.223 -0.4849 -0.8919  2.1422
  770MOL0     H 3889   7.014  10.585  10.280  1.1604 -2.4037  0.1842
  770MOL0     H 3890   6.841  10.619  10.318  1.4092  2.2235  1.6941
  770MOL0     H 3891   6.838  10.431  10.479  0.9349  1.1911  1.6486
  770MOL0     H 3892   6.992  10.392  10.455 -0.7066 -1.1406 -0.9092
  770MOL0     H 3893   7.021  10.520  10.640  2.1785 -3.9512 -3.9579
  770MOL0     H 3894   7.049  10.648  10.518  2.2870 -1.9672 -1.1232
  770MOL0     H 3895   6.829  10.735  10.532 -0.3316 -3.9916 -3.1698
  770MOL0     H 3896   6.765  10.606  10.621 -0.8950 -0.6564 -0.3413
  770MOL0     H 3897   6.876  10.650  10.826 -0.4921  0.2943 -0.5985
  770MOL0     H 3898   6.978  10.775  10.752 -0.7225  0.4259  0.9115
  770MOL0     H 3899   6.681  10.763  10.799 -0.5003  0.3884 -0.9943
  770MOL0     H 3900   6.744  10.888  10.686  0.4619  0.8642 -0.0457
  770MOL0     H 3901   6.928  10.828  11.010 -0.8931 -0.0533  0.0165
  770MOL0     H 3902   7.052  11.027  11.185  1.1251  2.4484  1.0337
  770MOL0     H 3903   6.960  11.185  11.171  0.4620  0.9941  0.2847
  770MOL0     H 3904   6.947  11.039  11.394 -0.1308  1.1959  0.0471
  770MOL0     H 3905   6.861  10.932  11.298  0.9371 -0.1912 -0.5491
  770MOL0     H 3906   6.670  11.133  11.275  1.6964  2.9749 -1.7934
  770MOL0     H 3907   6.790  11.213  11.373  1.9807 -0.4907 -3.5432
  770MOL0     H 3908   6.601  11.112  11.483  1.2929  1.3219  0.3911
  770MOL0     H 3909   6.748  11.051  11.561 -0.5705 -1.2457  0.0174
  770MOL0     H 3910   6.401  10.919  11.337  3.8708 -0.5102 -0.5887
  770MOL0     H 3911   6.205  10.824  11.307 -1.0586 -1.6635 -0.4693
  770MOL0     H 3912   6.117  10.735  11.427 -0.9840  0.3035 -0.2512
  770MOL0     H 3913   6.096  10.908  11.401 -3.5661 -2.3597 -1.2558
  770MOL0     H 3914   5.818  10.799  11.593 -1.9485  0.7022 -0.0589
  770MOL0     H 3915   5.606  10.737  11.706  1.3584  0.0071 -2.6826
  770MOL0     H 3916   5.558  10.418  11.891 -3.0550  0.8643  0.7976
  770MOL0     H 3917   5.661  10.440  12.022 -0.3423 -1.1140 -0.3942
  770MOL0     H 3918   5.453  10.364  12.102 -0.9228  1.2310  2.7102
  770MOL0     H 3919   5.453  10.526  12.159  1.2775 -1.1574  1.6898
  770MOL0     H 3920   5.353  10.554  11.894  3.4608 -1.2970  0.2388
  770MOL0     H 3921   5.250  10.546  12.044 -0.2933  3.0468 -1.5495
  770MOL0     H 3922   5.342  10.280  11.894  0.2215  0.6244  0.2163
  770MOL0     H 3923   5.215  10.310  12.016 -1.6716  0.7490 -1.0849
  770MOL0     H 3924   5.217  10.429  11.745  1.2711  1.2305  1.3108
  770MOL0     H 3925   5.098  10.472  11.857 -1.8264  0.4721 -4.0938
  770MOL0     H 3926   5.142  10.192  11.739  0.3442  1.3780 -1.0205
  770MOL0     H 3927   5.037  10.212  11.878 -0.6941  1.6034  0.7749
  770MOL0     H 3928   4.889  10.358  11.723 -2.2399 -1.2230 -0.7165
  770MOL0     H 3929   4.920  10.181  11.684  0.7739 -0.1973  0.4749
  770MOL0     H 3930   5.091  10.274  11.510 -0.5242 -2.2520  0.5017
  770MOL0     H 3931   5.055  10.437  11.585 -0.7350 -0.1217  2.7658
  770MOL0     H 3932   5.848  10.547  12.018  0.8801  0.6043 -0.2470
  770MOL0     H 3933   6.041  10.596  11.895  0.8005 -0.1677 -1.1555
  770MOL0     H 3934   6.433  10.783  11.809 -1.8051 -1.3971  0.1225
  770MOL0     H 3935   6.637  10.820  11.692 -0.6155 -2.1068  0.8396
  770MOL0     H 3936   6.800  10.220   9.782 -1.6904 -0.8125 -2.3424
  770MOL0     H 3937   6.778  10.276   9.544 -0.6667 -0.4391 -0.6503
  770MOL0     H 3938   6.649  10.700   9.276 -2.7458 -0.7425 -0.4573
  770MOL0     H 3939   6.598  10.775   9.066 -1.2037 -0.2751 -1.5824
  770MOL0     H 3940   6.705  10.734   8.663  0.1183  0.1419  0.4163
  770MOL0     H 3941   6.793  10.597   8.740  0.9354  1.7327 -1.1525
  770MOL0     H 3942   6.524  10.596   8.600  1.3063 -0.0264 -1.2427
  770MOL0     H 3943   6.582  10.458   8.691 -3.9628 -0.2202 -0.7092
  770MOL0     H 3944   6.779  10.466   8.550 -0.9520 -0.2913  1.5387
  770MOL0     H 3945   6.683  10.583   8.436 -0.2166  0.3365  0.0345
  770MOL0     H 3946   6.484  10.416   8.446  0.8089  1.3573  1.6914
  770MOL0     H 3947   6.603  10.307   8.525 -0.4895  0.2875  0.1505
  770MOL0     H 3948   6.707  10.293   8.108  0.2544 -1.1427 -0.3482
  770MOL0     H 3949   6.758  10.419   8.883 -0.1404  0.5301  0.0480
  770MOL0     H 3950   6.846  10.344   9.099 -1.8653 -0.9115 -0.6514
  771MOL0     O 3951   8.418   5.347   9.061  0.5114  0.5547  0.9531
  771MOL0     C 3952   8.434   5.421   8.968  0.5249 -0.6840 -0.1452
  771MOL0     O 3953   8.338   5.494   8.908  0.0950 -0.7060 -0.4490
  771MOL0     C 3954   8.209   5.491   8.953 -0.1210 -0.1138 -0.4009
  771MOL0     C 3955   8.134   5.373   8.963  0.2898  0.5624 -0.3556
  771MOL0     C 3956   8.006   5.374   8.993 -0.1091 -0.3580 -0.4578
  771MOL0     C 3957   7.934   5.502   9.016 -0.3322  0.3828  0.4715
  771MOL0     O 3958   7.805   5.520   9.064 -0.6940 -0.1253 -0.6260
  771MOL0     C 3959   7.688   5.445   9.021 -0.8802  0.2048  0.3878
  771MOL0     C 3960   7.562   5.493   9.090  0.1895  0.4112 -0.4955
  771MOL0     C 3961   7.550   5.441   9.231  0.5865 -0.0781 -0.0150
  771MOL0     C 3962   7.422   5.501   9.302 -0.3074 -0.0236  1.2206
  771MOL0     C 3963   7.417   5.445   9.446 -0.1994  0.6070 -0.4763
  771MOL0     C 3964   7.524   5.486   9.538  0.3738 -0.4121 -0.1964
  771MOL0     C 3965   7.513   5.431   9.685  0.0146 -0.0436  0.6451
  771MOL0     C 3966   7.542   5.284   9.696  0.1598 -0.0102  0.9927
  771MOL0     N 3967   7.695   5.271   9.681 -0.2083  0.5042 -0.1381
  771MOL0     C 3968   7.788   5.259   9.796 -0.4194  0.3026  0.4347
  771MOL0     C 3969   7.891   5.200   9.744 -0.3381 -0.3745  0.4023
  771MOL0     C 3970   8.010   5.161   9.837  0.6827  0.7084  0.0797
  771MOL0     C 3971   8.065   5.018   9.809  0.1502  0.9917  0.4712
  771MOL0     C 3972   7.962   4.910   9.835  0.5480 -0.0847  0.1880
  771MOL0     C 3973   7.975   4.809   9.723 -0.1271  0.8165  0.7482
  771MOL0     O 3974   7.867   4.712   9.734 -0.5255 -0.2978  0.9457
  771MOL0     C 3975   7.740   4.740   9.697 -0.2673 -0.1037 -0.4971
  771MOL0     C 3976   7.706   4.818   9.591  0.8869 -0.1171 -0.0802
  771MOL0     C 3977   7.566   4.849   9.565 -0.3485  0.4802 -0.0022
  771MOL0     C 3978   7.531   4.916   9.442 -0.5588  0.9542 -0.0773
  771MOL0     C 3979   7.466   4.812   9.660  0.0342 -0.0637 -0.4510
  771MOL0     C 3980   7.325   4.869   9.673 -0.0802  0.2564  0.5000
  771MOL0     O 3981   7.244   4.821   9.770 -0.0273  0.0645 -0.1513
  771MOL0     C 3982   7.109   4.835   9.764 -0.7248 -0.2065 -0.2823
  771MOL0     C 3983   7.037   4.852   9.642  0.2743 -0.3593 -0.2337
  771MOL0     C 3984   6.903   4.860   9.646  0.8551  1.1783  0.1033
  771MOL0     C 3985   6.834   4.865   9.763 -0.0061 -0.5468 -0.2470
  771MOL0     O 3986   6.703   4.888   9.768  0.1513  0.1305  0.9065
  771MOL0     C 3987   6.613   4.802   9.846 -0.0348 -0.7072 -0.1930
  771MOL0     C 3988   6.478   4.886   9.858 -0.1574 -0.5580  0.1816
  771MOL0     C 3989   6.372   4.814   9.946  0.4012  0.2518 -0.0660
  771MOL0     C 3990   6.240   4.880   9.934  0.4826  0.6458  0.2409
  771MOL0     C 3991   6.127   4.783   9.971 -0.6316  1.1289  0.0743
  771MOL0     C 3992   5.986   4.843   9.947  0.5721  0.9297  0.3196
  771MOL0     C 3993   5.923   4.919  10.067 -0.2722  0.0066  0.2937
  771MOL0     C 3994   5.773   4.917  10.078 -0.0935  0.9904 -0.4197
  771MOL0    Cl 3995   5.732   5.031  10.208  0.2728 -0.1160  0.2974
  771MOL0     C 3996   6.906   4.867   9.879 -0.3848  0.3883 -1.1142
  771MOL0     C 3997   7.043   4.836   9.885 -0.0880 -1.1745  0.1700
  771MOL0     O 3998   7.310   4.969   9.610  0.0055 -0.7262  0.2528
  771MOL0     C 3999   7.504   4.713   9.758 -0.0340 -0.1721  0.5804
  771MOL0     C 4000   7.639   4.680   9.774 -1.0062  0.1202  0.3866
  771MOL0     N 4001   7.881   5.189   9.607  0.5520 -0.3329 -0.3892
  771MOL0     N 4002   7.763   5.227   9.571  0.0293 -0.9704 -0.1004
  771MOL0     C 4003   8.016   5.622   9.021  1.1104 -0.4389  0.3199
  771MOL0     C 4004   8.145   5.617   8.984  0.1134  0.1413  0.6973
  771MOL0     C 4005   8.575   5.434   8.919 -0.6139 -0.5378  0.0630
  771MOL0     C 4006   8.615   5.524   8.820  0.0457 -0.5107  1.0557
  771MOL0     C 4007   8.750   5.523   8.760  1.1301 -0.3383  0.3826
  771MOL0     C 4008   8.850   5.437   8.809  0.8600 -0.5429 -0.7788
  771MOL0     O 4009   8.974   5.453   8.764 -0.9554 -0.2293 -0.3781
  771MOL0     C 4010   9.084   5.364   8.802  0.1517  0.3760 -0.3780
  771MOL0     C 4011   9.205   5.390   8.726  0.1268 -0.4499  0.0950
  771MOL0     C 4012   9.297   5.265   8.712  0.2034 -0.6774 -0.0720
  771MOL0     C 4013   9.375   5.199   8.827  0.0867 -0.6521 -0.5403
  771MOL0     C 4014   9.496   5.267   8.862  0.3642  0.7521 -0.0222
  771MOL0     C 4015   9.612   5.306   8.878 -0.4576 -0.3378  0.5901
  771MOL0     C 4016   8.806   5.347   8.912 -0.6255  0.1821  0.0469
  771MOL0     C 4017   8.674   5.340   8.961  0.6466  0.0093 -0.2550
  771MOL0     H 4018   8.191   5.281   8.959  0.6090  0.5032  2.7165
  771MOL0     H 4019   7.952   5.280   8.996  0.6218 -0.8499 -1.8977
  771MOL0     H 4020   7.670   5.462   8.914  0.0179 -2.4938 -0.2918
  771MOL0     H 4021   7.710   5.339   9.036  0.1119  0.3613  0.1378
  771MOL0     H 4022   7.561   5.602   9.080  1.6264  0.2751 -2.8374
  771MOL0     H 4023   7.479   5.447   9.035  1.0831 -1.7188 -0.1727
  771MOL0     H 4024   7.554   5.333   9.216 -3.3537 -0.5360  0.9954
  771MOL0     H 4025   7.635   5.473   9.291  2.1900 -2.3298 -0.9636
  771MOL0     H 4026   7.438   5.608   9.319 -0.6439 -0.0105  1.4665
  771MOL0     H 4027   7.325   5.483   9.254  1.1217  0.0525 -1.9251
  771MOL0     H 4028   7.328   5.488   9.492 -0.1649  0.1192  0.0599
  771MOL0     H 4029   7.401   5.337   9.441 -1.5233  0.6867  1.2698
  771MOL0     H 4030   7.618   5.455   9.491  1.5364  2.0687  0.3595
  771MOL0     H 4031   7.522   5.595   9.549 -0.4439 -0.4664  0.3105
  771MOL0     H 4032   7.584   5.491   9.744  0.6953 -2.9907  3.0552
  771MOL0     H 4033   7.417   5.457   9.731  1.0127  4.4708  0.6668
  771MOL0     H 4034   7.484   5.223   9.627 -3.7254  2.9553  1.3044
  771MOL0     H 4035   7.533   5.258   9.802 -0.1588  2.8417  1.7567
  771MOL0     H 4036   7.768   5.277   9.901 -1.7871 -0.8881  0.4154
  771MOL0     H 4037   8.091   5.229   9.808  0.6141  1.5965  1.8568
  771MOL0     H 4038   7.991   5.173   9.944 -3.3995 -2.8479  0.0087
  771MOL0     H 4039   8.154   4.991   9.867 -0.2201 -0.4023  0.4170
  771MOL0     H 4040   8.094   5.021   9.703  1.7853 -2.5243  0.6645
  771MOL0     H 4041   7.864   4.959   9.831  0.6271  0.1204  0.7111
  771MOL0     H 4042   7.972   4.865   9.934  3.4459 -1.8312 -0.7901
  771MOL0     H 4043   8.071   4.759   9.735 -1.9133 -3.7680 -1.7532
  771MOL0     H 4044   7.976   4.847   9.621 -0.4121 -2.9916 -0.8069
  771MOL0     H 4045   7.781   4.854   9.521 -0.3000  0.7451 -0.9340
  771MOL0     H 4046   7.544   5.024   9.455  2.3905  0.7053 -0.2008
  771MOL0     H 4047   7.594   4.884   9.359 -0.6789 -1.3540  0.6430
  771MOL0     H 4048   7.427   4.893   9.420 -0.0297 -0.2272 -1.4764
  771MOL0     H 4049   7.091   4.854   9.547  1.2961 -1.2438  0.3057
  771MOL0     H 4050   6.840   4.869   9.558  1.0984  1.2799 -0.0606
  771MOL0     H 4051   6.588   4.709   9.794 -1.2558  1.0215 -2.9569
  771MOL0     H 4052   6.657   4.778   9.943  0.0173 -0.3941 -0.1379
  771MOL0     H 4053   6.484   4.991   9.886  1.3331 -0.9185  1.3361
  771MOL0     H 4054   6.451   4.895   9.753  1.4936 -1.7471 -0.3962
  771MOL0     H 4055   6.410   4.808  10.048 -0.9286  1.6190  0.5503
  771MOL0     H 4056   6.371   4.710   9.913  2.4558 -0.5013  1.9475
  771MOL0     H 4057   6.219   4.969   9.992 -0.6563  0.4837  0.1015
  771MOL0     H 4058   6.223   4.918   9.832 -1.3850  2.5249  1.1819
  771MOL0     H 4059   6.154   4.752  10.073  0.8717 -2.0242 -1.1497
  771MOL0     H 4060   6.134   4.697   9.905  3.0168 -0.5740  2.3567
  771MOL0     H 4061   5.987   4.892   9.849  0.5989  0.0921 -0.1119
  771MOL0     H 4062   5.923   4.754   9.936  0.6474  0.8781  0.3051
  771MOL0     H 4063   5.952   5.022  10.044 -0.8747 -0.4874 -3.2043
  771MOL0     H 4064   5.978   4.885  10.156  0.8882  1.9946  0.3958
  771MOL0     H 4065   5.745   4.812  10.089  1.2746  0.7199  0.6916
  771MOL0     H 4066   5.722   4.957   9.990  0.1603  3.9831  0.6760
  771MOL0     H 4067   6.844   4.867   9.969 -1.5778 -1.3307 -1.8795
  771MOL0     H 4068   7.092   4.828   9.981 -0.1961 -1.1965  0.2244
  771MOL0     H 4069   7.435   4.664   9.827  1.9790 -0.4038  2.5736
  771MOL0     H 4070   7.668   4.623   9.861  1.3651  0.3759 -0.1708
  771MOL0     H 4071   7.974   5.718   9.050  0.2104 -1.1076  1.2589
  771MOL0     H 4072   8.209   5.703   8.996  2.5244 -0.8101 -3.2448
  771MOL0     H 4073   8.536   5.587   8.780  0.6916 -1.3359 -1.6684
  771MOL0     H 4074   8.771   5.592   8.679 -3.8196 -1.9440 -2.7386
  771MOL0     H 4075   9.106   5.357   8.909  1.0645 -3.0278 -0.6615
  771MOL0     H 4076   9.047   5.266   8.773  0.9729 -0.5799  1.6242
  771MOL0     H 4077   9.247   5.481   8.770 -2.5059  1.3435 -0.8669
  771MOL0     H 4078   9.178   5.421   8.624  1.4855  1.9195  0.3654
  771MOL0     H 4079   9.374   5.301   8.642  0.0687  1.1745  0.6596
  771MOL0     H 4080   9.227   5.206   8.652 -2.1504  3.6713 -2.1529
  771MOL0     H 4081   9.410   5.103   8.788  1.5937 -0.1115 -0.5683
  771MOL0     H 4082   9.310   5.192   8.914  0.8317  0.9305  0.1891
  771MOL0     H 4083   9.706   5.358   8.881 -0.2004 -0.8459  2.6107
  771MOL0     H 4084   8.880   5.280   8.955  2.1586  3.0039 -0.0263
  771MOL0     H 4085   8.647   5.261   9.030  2.3056  1.0784  1.7620
  772MOL0     O 4086   0.369   0.483   9.691  0.1785  0.7508 -0.0826
  772MOL0     C 4087   0.444   0.389   9.659  0.2175  0.1411  0.1831
  772MOL0     O 4088   0.397   0.266   9.623 -0.1451  0.1899  0.8589
  772MOL0     C 4089   0.263   0.260   9.576 -0.9587  1.1689 -0.9291
  772MOL0     C 4090   0.161   0.286   9.658 -0.0728 -0.7567  0.7688
  772MOL0     C 4091   0.028   0.283   9.611  0.7134  0.1644  0.1229
  772MOL0     C 4092  -0.000   0.226   9.485  1.0726 -0.7044  0.3450
  772MOL0     O 4093  -0.136   0.229   9.444 -0.0795 -0.1149  0.0407
  772MOL0     C 4094  -0.167   0.177   9.314  0.9731 -0.1211 -0.0773
  772MOL0     C 4095  -0.316   0.178   9.272  0.3847 -0.3237 -0.7614
  772MOL0     C 4096  -0.376   0.312   9.250 -0.1254  0.6147  0.0697
  772MOL0     C 4097  -0.300   0.411   9.159 -0.3296  0.7857  0.0146
  772MOL0     C 4098  -0.383   0.535   9.111 -0.4388  1.1904 -0.0842
  772MOL0     C 4099  -0.479   0.498   8.990 -0.0724  0.6543 -0.7529
  772MOL0     C 4100  -0.573   0.611   8.938 -0.7020  0.9652 -0.5566
  772MOL0     C 4101  -0.675   0.662   9.031 -0.0136 -0.9654 -0.2958
  772MOL0     N 4102  -0.791   0.731   8.961 -0.3381  0.1544 -0.3883
  772MOL0     C 4103  -0.804   0.859   8.923  0.3404 -0.6503  0.6935
  772MOL0     C 4104  -0.920   0.877   8.858  0.2082 -0.0312  0.3195
  772MOL0     C 4105  -0.969   1.012   8.801 -0.1873  0.5625 -0.1181
  772MOL0     C 4106  -1.081   0.991   8.697  0.6175 -0.2849 -1.0107
  772MOL0     C 4107  -1.135   1.139   8.675  0.8751 -0.4989 -0.5932
  772MOL0     C 4108  -1.235   1.178   8.777 -0.4055  0.8185 -0.9779
  772MOL0     O 4109  -1.287   1.303   8.743 -0.6854  0.6848 -0.2467
  772MOL0     C 4110  -1.384   1.351   8.827  0.1907 -0.4974 -0.6823
  772MOL0     C 4111  -1.359   1.472   8.878  1.2446 -0.5569 -0.7144
  772MOL0     C 4112  -1.449   1.544   8.966 -0.4033  0.6610  0.2734
  772MOL0     C 4113  -1.412   1.682   8.996 -1.0345 -0.1088  1.0202
  772MOL0     C 4114  -1.561   1.472   9.018  0.3411 -0.6154  0.2792
  772MOL0     C 4115  -1.666   1.534   9.105  0.5734  0.0571 -0.3575
  772MOL0     O 4116  -1.751   1.442   9.164  0.1295  0.6459 -0.2181
  772MOL0     C 4117  -1.851   1.487   9.247 -0.5447 -0.8715  0.6430
  772MOL0     C 4118  -1.953   1.565   9.191  1.1329  0.0058 -0.0435
  772MOL0     C 4119  -2.055   1.617   9.273 -0.4700 -0.6918 -1.1565
  772MOL0     C 4120  -2.047   1.602   9.418 -0.1088 -0.0598  0.3390
  772MOL0     O 4121  -2.125   1.655   9.512 -0.2855  0.3059  0.0278
  772MOL0     C 4122  -2.251   1.723   9.469  0.3349 -0.0481  0.5345
  772MOL0     C 4123  -2.345   1.745   9.596  0.7335  0.1932  0.0576
  772MOL0     C 4124  -2.493   1.753   9.554 -0.0395 -0.3045  0.8074
  772MOL0     C 4125  -2.522   1.891   9.508 -0.5420 -0.3650 -1.0243
  772MOL0     C 4126  -2.635   1.903   9.411 -0.1753 -0.8065  0.8926
  772MOL0     C 4127  -2.771   1.937   9.487  0.0528  0.1472  0.2706
  772MOL0     C 4128  -2.869   1.926   9.383  0.1282 -0.2199  0.3728
  772MOL0     C 4129  -3.010   1.957   9.441  0.4202 -0.1168 -0.1945
  772MOL0    Cl 4130  -3.023   2.130   9.486 -0.1276 -0.4054  0.3212
  772MOL0     C 4131  -1.941   1.526   9.463 -0.8454 -0.5024  0.1798
  772MOL0     C 4132  -1.848   1.464   9.386 -0.4860  0.1190  0.7688
  772MOL0     O 4133  -1.671   1.654   9.103 -0.1771 -1.0976 -0.2097
  772MOL0     C 4134  -1.576   1.339   8.975  0.7212  0.3550  0.3897
  772MOL0     C 4135  -1.495   1.278   8.878 -1.0536 -0.2189  0.2794
  772MOL0     N 4136  -0.992   0.755   8.885  0.7500 -0.1460  0.4593
  772MOL0     N 4137  -0.914   0.675   8.945  0.7078 -0.7016 -0.1363
  772MOL0     C 4138   0.106   0.182   9.412 -0.9788 -0.7888  1.2410
  772MOL0     C 4139   0.240   0.190   9.455  1.3052 -0.6167  0.3949
  772MOL0     C 4140   0.589   0.422   9.653  1.0956 -0.3165 -0.0564
  772MOL0     C 4141   0.624   0.558   9.674  0.4460  0.3352  0.6797
  772MOL0     C 4142   0.757   0.598   9.675 -0.1470 -0.8671 -0.6931
  772MOL0     C 4143   0.861   0.510   9.654  0.7155 -0.1771 -0.5374
  772MOL0     O 4144   0.982   0.561   9.641 -0.6697  0.3845 -0.1310
  772MOL0     C 4145   1.087   0.509   9.727  0.0836 -0.6466 -0.4644
  772MOL0     C 4146   1.214   0.590   9.688  0.7663  0.9022 -0.8799
  772MOL0     C 4147   1.326   0.549   9.782  0.2849  0.2052 -0.0575
  772MOL0     C 4148   1.318   0.628   9.916 -0.3060  0.2914  0.7223
  772MOL0     C 4149   1.443   0.591   9.993 -0.0357 -0.4139  0.4706
  772MOL0     C 4150   1.529   0.541  10.060  0.1171  1.1359 -0.8519
  772MOL0     C 4151   0.822   0.375   9.624 -0.4695  0.4169 -0.6742
  772MOL0     C 4152   0.690   0.339   9.617 -0.5393 -0.1308 -0.4115
  772MOL0     H 4153   0.180   0.331   9.754 -1.2335 -0.9949  1.1319
  772MOL0     H 4154  -0.051   0.319   9.676  0.3878  0.9164 -0.6670
  772MOL0     H 4155  -0.099   0.221   9.241  2.5344 -5.7364 -2.6126
  772MOL0     H 4156  -0.143   0.070   9.313  0.0617 -0.3348 -0.9476
  772MOL0     H 4157  -0.326   0.123   9.178 -2.8447 -1.2165 -0.0272
  772MOL0     H 4158  -0.370   0.120   9.347  1.9602 -0.3804  0.3587
  772MOL0     H 4159  -0.470   0.303   9.193 -0.1230 -0.3622  0.2090
  772MOL0     H 4160  -0.392   0.358   9.348 -1.5785 -2.4422  1.4023
  772MOL0     H 4161  -0.221   0.450   9.225 -0.6040  1.3645  0.0075
  772MOL0     H 4162  -0.243   0.373   9.073 -0.3800 -0.0689  0.3586
  772MOL0     H 4163  -0.440   0.570   9.198 -1.1316  2.1582 -0.8970
  772MOL0     H 4164  -0.316   0.617   9.086 -0.2960  0.7033 -1.3530
  772MOL0     H 4165  -0.427   0.463   8.900 -0.8813  0.2367 -1.0596
  772MOL0     H 4166  -0.546   0.414   9.011 -1.3952  1.8602  0.0310
  772MOL0     H 4167  -0.500   0.688   8.911  0.2874 -0.8565 -3.4367
  772MOL0     H 4168  -0.627   0.574   8.851 -1.4463  1.2897 -0.2458
  772MOL0     H 4169  -0.634   0.737   9.099 -2.3898  2.7949 -2.6730
  772MOL0     H 4170  -0.711   0.576   9.089 -0.2312  0.1473  1.2685
  772MOL0     H 4171  -0.735   0.941   8.942 -2.8029  2.5012 -0.4512
  772MOL0     H 4172  -1.007   1.059   8.892 -2.3791 -1.5577  0.1666
  772MOL0     H 4173  -0.882   1.065   8.761 -1.0404  1.6337 -0.6010
  772MOL0     H 4174  -1.164   0.925   8.723  0.2618 -0.6466 -2.8957
  772MOL0     H 4175  -1.022   0.959   8.610  1.6457 -1.0499 -0.0672
  772MOL0     H 4176  -1.192   1.133   8.582 -1.7209  1.0055  0.7816
  772MOL0     H 4177  -1.058   1.216   8.681 -0.5282  0.9281 -0.2822
  772MOL0     H 4178  -1.190   1.172   8.876 -3.9300 -1.2796  0.7013
  772MOL0     H 4179  -1.319   1.109   8.765  2.0891 -2.5874 -0.1951
  772MOL0     H 4180  -1.265   1.519   8.850  0.1791  0.9512 -1.9170
  772MOL0     H 4181  -1.443   1.718   9.094 -1.7919 -2.6394  1.7821
  772MOL0     H 4182  -1.303   1.690   8.995 -1.0049 -0.4118 -0.0216
  772MOL0     H 4183  -1.456   1.749   8.921  1.4829  0.3145 -0.1944
  772MOL0     H 4184  -1.958   1.578   9.083  3.1990  2.3248  0.0528
  772MOL0     H 4185  -2.138   1.666   9.224 -0.5177 -0.4961 -0.8811
  772MOL0     H 4186  -2.221   1.825   9.445 -1.2778  1.1309  3.0576
  772MOL0     H 4187  -2.310   1.668   9.395  0.8456 -0.5814  0.5092
  772MOL0     H 4188  -2.348   1.652   9.653  2.1492 -0.0093 -0.1446
  772MOL0     H 4189  -2.310   1.821   9.667 -0.1829 -0.2248  0.9736
  772MOL0     H 4190  -2.556   1.735   9.642  0.4951 -5.5087  0.4431
  772MOL0     H 4191  -2.517   1.681   9.475 -3.4374  2.0156 -0.4965
  772MOL0     H 4192  -2.540   1.948   9.600  0.4169 -3.0098  0.9293
  772MOL0     H 4193  -2.430   1.939   9.474  0.8760 -1.9470  0.3590
  772MOL0     H 4194  -2.645   1.812   9.351 -0.3953  1.4973 -2.8318
  772MOL0     H 4195  -2.619   1.987   9.343  0.0662 -0.0849  1.8197
  772MOL0     H 4196  -2.795   1.862   9.563  0.9974 -0.3613  0.0838
  772MOL0     H 4197  -2.759   2.033   9.536 -3.0939  0.4325  0.7053
  772MOL0     H 4198  -2.882   1.826   9.341 -1.8683 -0.2043  0.8399
  772MOL0     H 4199  -2.839   1.997   9.305  0.0510  2.2264  2.4396
  772MOL0     H 4200  -3.018   1.893   9.529  2.8491 -1.6907 -1.0383
  772MOL0     H 4201  -3.088   1.944   9.366  0.9159 -2.4813 -0.3786
  772MOL0     H 4202  -1.927   1.531   9.571  0.6115 -2.1968  0.0989
  772MOL0     H 4203  -1.763   1.407   9.423  0.3074  0.6330 -0.2179
  772MOL0     H 4204  -1.660   1.284   9.015  0.2016  0.7634 -0.1292
  772MOL0     H 4205  -1.507   1.175   8.847 -2.0311  0.5509 -2.1815
  772MOL0     H 4206   0.095   0.151   9.308  3.2470 -3.2961  1.2922
  772MOL0     H 4207   0.317   0.152   9.389  1.1869 -1.9275  0.9880
  772MOL0     H 4208   0.552   0.631   9.709 -1.2059 -1.4684  1.2046
  772MOL0     H 4209   0.791   0.701   9.685 -0.3872 -0.7006 -1.5288
  772MOL0     H 4210   1.057   0.521   9.832 -0.4543  0.4944 -0.7360
  772MOL0     H 4211   1.106   0.402   9.714  2.9517 -0.4394  1.1269
  772MOL0     H 4212   1.192   0.696   9.673  0.8030  0.8110 -1.6259
  772MOL0     H 4213   1.232   0.559   9.584 -1.8599  0.7830 -1.3747
  772MOL0     H 4214   1.421   0.567   9.732 -0.5893  2.2567 -1.1165
  772MOL0     H 4215   1.328   0.442   9.805 -1.0292  0.0872 -0.3582
  772MOL0     H 4216   1.233   0.599   9.979 -0.9865 -0.0015 -0.3162
  772MOL0     H 4217   1.303   0.736   9.914  0.3067  0.4395  2.4887
  772MOL0     H 4218   1.594   0.495  10.132 -2.2747 -1.8751 -0.3946
  772MOL0     H 4219   0.903   0.305   9.604 -0.4287 -0.2747  1.6149
  772MOL0     H 4220   0.658   0.239   9.590 -0.6529  0.2203 -1.6402
  773MOL0     O 4221   7.199   8.237   7.381 -0.1212  0.4284  0.3008
  773MOL0     C 4222   7.297   8.273   7.323  0.5649  0.8265 -0.1225
  773MOL0     O 4223   7.296   8.337   7.207 -0.2833  0.0836  0.5702
  773MOL0     C 4224   7.177   8.384   7.154 -0.0074 -0.7661  0.3695
  773MOL0     C 4225   7.081   8.297   7.106  0.4248  0.0975  0.2138
  773MOL0     C 4226   6.950   8.351   7.068 -1.0485 -0.3981  0.7954
  773MOL0     C 4227   6.924   8.492   7.070  0.6552  0.6033  0.1251
  773MOL0     O 4228   6.803   8.542   7.029 -1.0935  0.2246  0.0055
  773MOL0     C 4229   6.789   8.679   7.041 -0.9130 -0.6915  0.1444
  773MOL0     C 4230   6.655   8.727   6.980  0.1775 -0.0732  1.1717
  773MOL0     C 4231   6.640   8.881   6.954 -0.5836 -1.1123  0.2210
  773MOL0     C 4232   6.578   8.962   7.066  1.3672  0.1707 -0.2016
  773MOL0     C 4233   6.527   9.105   7.043  0.1522 -0.7172 -0.1977
  773MOL0     C 4234   6.619   9.191   6.971 -0.9132 -0.0208 -0.1525
  773MOL0     C 4235   6.569   9.331   6.930 -0.5118 -0.4356 -0.0361
  773MOL0     C 4236   6.539   9.431   7.048 -0.4051  0.7664 -0.8435
  773MOL0     N 4237   6.642   9.433   7.147  0.0970 -0.2922  0.0408
  773MOL0     C 4238   6.757   9.508   7.134  0.5488  0.1339 -0.1718
  773MOL0     C 4239   6.821   9.477   7.252  0.7299 -0.0568  0.7845
  773MOL0     C 4240   6.958   9.517   7.289  0.0366  0.6462 -0.0875
  773MOL0     C 4241   6.971   9.613   7.409 -0.0206 -0.2838 -0.2126
  773MOL0     C 4242   7.115   9.677   7.430  0.5633 -0.6137 -0.0506
  773MOL0     C 4243   7.230   9.576   7.425  0.1285 -0.4928  0.0086
  773MOL0     O 4244   7.354   9.640   7.435 -0.6100 -0.5211  0.0577
  773MOL0     C 4245   7.463   9.564   7.453  0.0833 -0.0997  0.0543
  773MOL0     C 4246   7.477   9.431   7.423  0.3928  0.3611 -0.8461
  773MOL0     C 4247   7.591   9.356   7.450 -0.3394 -0.5490 -0.3166
  773MOL0     C 4248   7.576   9.210   7.458 -0.6169  0.1152  0.2970
  773MOL0     C 4249   7.715   9.426   7.486 -0.3125 -0.0937 -0.1338
  773MOL0     C 4250   7.844   9.362   7.517  0.0003  0.0928 -0.3467
  773MOL0     O 4251   7.952   9.448   7.541  0.2066 -0.7699  1.0619
  773MOL0     C 4252   8.073   9.414   7.583 -0.3940  1.2568  0.9335
  773MOL0     C 4253   8.191   9.422   7.508 -0.2412  0.7644  0.5395
  773MOL0     C 4254   8.310   9.365   7.558 -0.2930 -0.7990 -0.2768
  773MOL0     C 4255   8.319   9.314   7.686 -0.6145  0.0171 -0.1408
  773MOL0     O 4256   8.444   9.254   7.710  0.1335 -0.2419  0.0059
  773MOL0     C 4257   8.476   9.224   7.850  0.4359  0.7280  0.0657
  773MOL0     C 4258   8.510   9.337   7.945 -1.6848  0.1002 -0.3466
  773MOL0     C 4259   8.536   9.291   8.088 -0.0795  0.4164 -0.9315
  773MOL0     C 4260   8.680   9.305   8.128  0.2888  0.4347  0.7424
  773MOL0     C 4261   8.764   9.198   8.076 -0.8284  0.4779  0.1746
  773MOL0     C 4262   8.912   9.193   8.139  0.7177 -0.4324 -0.5016
  773MOL0     C 4263   8.995   9.079   8.083 -0.5124 -0.3493 -0.3118
  773MOL0     C 4264   9.114   9.027   8.173  0.1013  0.5526 -0.0809
  773MOL0    Cl 4265   9.219   9.166   8.198 -0.0196  0.2218 -0.3417
  773MOL0     C 4266   8.195   9.294   7.762 -0.4926  0.6871  0.1639
  773MOL0     C 4267   8.078   9.359   7.718 -0.2497  0.9698  0.0769
  773MOL0     O 4268   7.850   9.240   7.545  0.2372 -0.2586  0.1643
  773MOL0     C 4269   7.701   9.568   7.505 -0.0524  0.0273 -0.5042
  773MOL0     C 4270   7.576   9.628   7.491  0.4992  1.5617 -0.3735
  773MOL0     N 4271   6.742   9.394   7.329 -0.0154 -0.8672  0.1866
  773MOL0     N 4272   6.636   9.365   7.260 -0.6178  0.7525 -0.8942
  773MOL0     C 4273   7.027   8.581   7.106 -0.2019  0.1946 -0.0681
  773MOL0     C 4274   7.148   8.519   7.164  0.3031  0.5228 -0.1515
  773MOL0     C 4275   7.426   8.256   7.387 -0.1531  1.1098  0.0351
  773MOL0     C 4276   7.538   8.268   7.309  0.7955 -0.0868 -0.1094
  773MOL0     C 4277   7.660   8.230   7.354  0.2824 -0.1026  0.2188
  773MOL0     C 4278   7.681   8.195   7.489  0.8318  0.4396  0.3721
  773MOL0     O 4279   7.793   8.172   7.553 -0.1358 -0.9326  0.9415
  773MOL0     C 4280   7.917   8.165   7.491 -0.7656  0.0120 -0.6881
  773MOL0     C 4281   7.979   8.299   7.491  0.0823 -0.2611  0.6238
  773MOL0     C 4282   8.068   8.331   7.620  0.3407 -0.8197  0.5312
  773MOL0     C 4283   8.053   8.463   7.682  0.4320 -0.8921  0.2554
  773MOL0     C 4284   8.107   8.477   7.819 -0.6012 -0.9738 -0.6627
  773MOL0     C 4285   8.146   8.493   7.930 -0.8385 -0.1139 -1.0925
  773MOL0     C 4286   7.566   8.181   7.570 -0.7489 -0.9352 -0.4759
  773MOL0     C 4287   7.442   8.205   7.527 -0.0067  0.4006  0.1536
  773MOL0     H 4288   7.101   8.191   7.108  1.7859  0.3497  2.2474
  773MOL0     H 4289   6.882   8.275   7.029 -1.4021  0.6762 -0.8194
  773MOL0     H 4290   6.797   8.712   7.145 -2.0712 -0.4667  0.1716
  773MOL0     H 4291   6.869   8.731   6.988  0.7836 -3.2343  0.0372
  773MOL0     H 4292   6.652   8.688   6.878 -0.5549 -0.9769  1.5205
  773MOL0     H 4293   6.569   8.695   7.040 -1.3348  1.7387  0.1208
  773MOL0     H 4294   6.740   8.908   6.918 -0.2784 -0.9763  1.1567
  773MOL0     H 4295   6.582   8.905   6.864  1.6005  1.8050 -0.5989
  773MOL0     H 4296   6.504   8.903   7.120 -1.0535  2.1690 -1.1430
  773MOL0     H 4297   6.655   8.986   7.140 -0.5997  0.8879  1.7182
  773MOL0     H 4298   6.433   9.107   6.988  1.7455  2.0348 -3.1862
  773MOL0     H 4299   6.511   9.161   7.136  2.7049 -0.5532  0.2181
  773MOL0     H 4300   6.705   9.201   7.038 -1.3119  1.1206  0.2080
  773MOL0     H 4301   6.655   9.138   6.882 -0.8789 -2.8032  1.4072
  773MOL0     H 4302   6.646   9.380   6.869 -2.6285  0.2279 -2.3151
  773MOL0     H 4303   6.482   9.338   6.864  0.1375 -2.5243 -1.2009
  773MOL0     H 4304   6.446   9.402   7.097  0.6829  0.6792  1.2734
  773MOL0     H 4305   6.514   9.532   7.013 -2.9168 -0.4232 -2.8200
  773MOL0     H 4306   6.793   9.567   7.051 -0.0879 -2.4721 -2.4447
  773MOL0     H 4307   7.018   9.428   7.308  1.0919  1.9975  3.8885
  773MOL0     H 4308   7.012   9.564   7.206  2.6481  1.2908  1.8513
  773MOL0     H 4309   6.941   9.552   7.495  0.5440 -4.2927 -2.5788
  773MOL0     H 4310   6.898   9.693   7.410  2.6195  2.3164  1.6867
  773MOL0     H 4311   7.117   9.728   7.527 -0.2613  0.1516 -0.4248
  773MOL0     H 4312   7.119   9.747   7.345  0.0016 -0.2438  0.2202
  773MOL0     H 4313   7.211   9.528   7.329  0.9163 -2.0383  0.5784
  773MOL0     H 4314   7.211   9.509   7.510  1.1957  1.5083  1.9343
  773MOL0     H 4315   7.388   9.375   7.394  0.0371  0.8201 -0.6558
  773MOL0     H 4316   7.644   9.157   7.390 -0.6549 -0.8899  1.0207
  773MOL0     H 4317   7.594   9.176   7.560 -1.6594  0.2446  0.5279
  773MOL0     H 4318   7.485   9.161   7.423  1.8513 -4.3119 -0.7048
  773MOL0     H 4319   8.185   9.460   7.407  0.6689  3.0116  1.2774
  773MOL0     H 4320   8.401   9.372   7.500 -0.4585 -0.8938 -0.5493
  773MOL0     H 4321   8.395   9.171   7.900 -0.3050  4.2607  2.9945
  773MOL0     H 4322   8.565   9.161   7.846  0.7165  0.8516  2.6375
  773MOL0     H 4323   8.593   9.392   7.901 -0.0722 -1.4170  0.6310
  773MOL0     H 4324   8.425   9.405   7.949  1.0958  3.8979 -0.2207
  773MOL0     H 4325   8.487   9.196   8.110 -3.2294  2.0807 -0.1885
  773MOL0     H 4326   8.483   9.362   8.152 -0.5460 -3.2499  3.1353
  773MOL0     H 4327   8.712   9.404   8.094  0.7624 -0.2458 -0.8987
  773MOL0     H 4328   8.690   9.312   8.237  0.9669  4.3554  0.5638
  773MOL0     H 4329   8.773   9.209   7.968 -1.5665  1.2180  0.1799
  773MOL0     H 4330   8.721   9.098   8.087 -0.1225  0.1224 -0.2187
  773MOL0     H 4331   8.967   9.286   8.132 -0.5903  0.5677  1.5123
  773MOL0     H 4332   8.913   9.172   8.246  0.7201  0.9576 -0.2148
  773MOL0     H 4333   9.034   9.109   7.986  0.8893 -2.1448 -0.3419
  773MOL0     H 4334   8.928   8.994   8.068 -2.0342  0.2571  2.3014
  773MOL0     H 4335   9.170   8.943   8.129 -1.2504 -0.8066  0.6975
  773MOL0     H 4336   9.082   8.974   8.263 -0.0942 -0.9470 -0.9858
  773MOL0     H 4337   8.192   9.244   7.858  3.0704  2.1553  1.2216
  773MOL0     H 4338   7.986   9.368   7.775 -1.0694 -0.0963 -1.0180
  773MOL0     H 4339   7.778   9.635   7.543 -1.2064  0.9553  0.2679
  773MOL0     H 4340   7.559   9.734   7.503 -0.8381  1.1181  2.4034
  773MOL0     H 4341   7.035   8.689   7.109  1.8894  0.0683  0.0419
  773MOL0     H 4342   7.224   8.586   7.204  0.4876  0.2468 -0.0423
  773MOL0     H 4343   7.530   8.289   7.203 -0.0088 -2.9549 -0.7056
  773MOL0     H 4344   7.737   8.220   7.278  0.4827  2.9035 -0.1164
  773MOL0     H 4345   7.969   8.097   7.559  0.9543  0.6084 -1.3503
  773MOL0     H 4346   7.912   8.120   7.391  3.5977 -1.7622 -0.3496
  773MOL0     H 4347   7.900   8.373   7.473  2.5123  1.8723 -2.1544
  773MOL0     H 4348   8.039   8.310   7.401 -2.2288  1.8604 -0.7826
  773MOL0     H 4349   8.169   8.315   7.584 -0.7064 -1.6064 -2.3293
  773MOL0     H 4350   8.047   8.259   7.700  0.8997 -2.7749 -1.0183
  773MOL0     H 4351   7.947   8.489   7.689  0.6398  0.0639  0.0983
  773MOL0     H 4352   8.090   8.538   7.611 -1.0874 -0.5739 -0.2422
  773MOL0     H 4353   8.193   8.500   8.026 -2.2651  1.5753 -0.4590
  773MOL0     H 4354   7.564   8.152   7.674  0.5277  4.2763  1.3152
  773MOL0     H 4355   7.358   8.170   7.587 -0.3475 -2.3554 -1.7452
  774MOL0     O 4356   8.691   4.455   2.681 -0.6052 -0.2472 -0.0770
  774MOL0     C 4357   8.601   4.516   2.626 -0.9707 -0.8688 -0.1843
  774MOL0     O 4358   8.616   4.617   2.533  0.4802  0.3544 -0.1199
  774MOL0     C 4359   8.726   4.661   2.471 -0.1912 -0.1929 -0.5384
  774MOL0     C 4360   8.846   4.588   2.446  0.4884 -0.4204  0.7012
  774MOL0     C 4361   8.959   4.642   2.371 -0.3491 -0.6382 -1.1874
  774MOL0     C 4362   8.938   4.770   2.329 -0.3379  0.5778  0.0888
  774MOL0     O 4363   9.040   4.838   2.266 -0.1093  0.0712 -0.2142
  774MOL0     C 4364   9.173   4.836   2.321 -0.6487 -0.4736 -0.1165
  774MOL0     C 4365   9.231   4.978   2.300 -1.0101 -0.4285  0.7379
  774MOL0     C 4366   9.300   4.996   2.162  0.1746 -0.2380  0.6941
  774MOL0     C 4367   9.394   5.123   2.162  0.5076  0.0248 -0.9769
  774MOL0     C 4368   9.464   5.141   2.027  0.1230  0.2460  0.7810
  774MOL0     C 4369   9.557   5.252   2.011 -0.2390  0.0046 -0.4512
  774MOL0     C 4370   9.500   5.393   2.026 -0.3837  0.3281 -0.0388
  774MOL0     C 4371   9.403   5.435   1.924 -0.0727  0.7683 -0.2332
  774MOL0     N 4372   9.465   5.488   1.803 -0.6115 -0.2280  0.1215
  774MOL0     C 4373   9.548   5.418   1.718  0.4540 -0.1023  0.6516
  774MOL0     C 4374   9.618   5.513   1.643  0.2728  0.2829 -0.1870
  774MOL0     C 4375   9.710   5.483   1.525  0.5024 -0.4275  0.3744
  774MOL0     C 4376   9.853   5.545   1.540  0.2207 -0.0709 -0.8285
  774MOL0     C 4377   9.860   5.684   1.501  0.1633  0.0009  0.6949
  774MOL0     C 4378   9.989   5.753   1.536  0.0426  1.1747 -0.4935
  774MOL0     O 4379  10.100   5.683   1.468 -0.1427 -0.3341 -1.0180
  774MOL0     C 4380  10.208   5.762   1.442  0.2378 -0.8679 -1.4619
  774MOL0     C 4381  10.274   5.747   1.320 -0.3124 -0.3472 -0.3364
  774MOL0     C 4382  10.378   5.830   1.278  0.9435  0.1783  0.9971
  774MOL0     C 4383  10.435   5.778   1.148 -0.5252 -0.4481  0.7192
  774MOL0     C 4384  10.425   5.934   1.352 -0.0730 -0.3832 -0.9536
  774MOL0     C 4385  10.540   6.019   1.308  0.1113 -0.2010 -0.5543
  774MOL0     O 4386  10.545   6.142   1.371  0.1055 -0.3863 -0.2733
  774MOL0     C 4387  10.645   6.235   1.345  1.0313 -1.2785 -0.2340
  774MOL0     C 4388  10.600   6.363   1.304 -0.2662 -0.0154  0.0044
  774MOL0     C 4389  10.692   6.461   1.287  0.3433  0.2853 -0.6080
  774MOL0     C 4390  10.829   6.433   1.276  0.5552 -1.0767 -0.3213
  774MOL0     O 4391  10.909   6.534   1.240 -0.5328  0.1923  0.3210
  774MOL0     C 4392  11.051   6.518   1.221 -0.1328 -0.1622 -0.3148
  774MOL0     C 4393  11.104   6.636   1.145  0.3623  0.4497 -0.3468
  774MOL0     C 4394  11.262   6.631   1.129  0.5224  1.0195  0.0136
  774MOL0     C 4395  11.319   6.552   1.005 -0.4477 -0.0022 -0.5685
  774MOL0     C 4396  11.474   6.516   1.014 -0.4301 -0.2731 -0.1201
  774MOL0     C 4397  11.519   6.479   0.876  0.3195  0.2937 -0.5700
  774MOL0     C 4398  11.670   6.432   0.879  0.6339  0.5548 -0.8101
  774MOL0     C 4399  11.694   6.310   0.950 -0.6809 -0.0079 -0.4544
  774MOL0    Cl 4400  11.623   6.158   0.875  0.1746  0.0661 -0.2855
  774MOL0     C 4401  10.875   6.311   1.323  0.3358 -0.1781  0.3383
  774MOL0     C 4402  10.781   6.216   1.363  0.4115  0.6642  0.1548
  774MOL0     O 4403  10.619   5.981   1.231 -0.2090 -0.2474  0.0758
  774MOL0     C 4404  10.360   5.949   1.477  0.4209 -0.0164  0.7074
  774MOL0     C 4405  10.254   5.872   1.518  0.1345 -0.1519 -0.5952
  774MOL0     N 4406   9.575   5.634   1.682  0.1921 -0.1386 -0.2887
  774MOL0     N 4407   9.487   5.619   1.778 -0.3939 -0.2180  0.5700
  774MOL0     C 4408   8.818   4.842   2.350 -0.0526  0.3788 -0.2680
  774MOL0     C 4409   8.717   4.787   2.421  0.7891  0.0733  0.2977
  774MOL0     C 4410   8.462   4.480   2.663  0.4123  1.1692 -0.3654
  774MOL0     C 4411   8.415   4.439   2.788  0.2378 -1.2252 -0.0018
  774MOL0     C 4412   8.279   4.395   2.804  0.3130  0.5922 -0.2412
  774MOL0     C 4413   8.188   4.402   2.700 -0.4782 -0.3463 -0.7594
  774MOL0     O 4414   8.060   4.363   2.717 -0.7076  0.2479 -0.0401
  774MOL0     C 4415   7.950   4.423   2.643 -0.4433 -0.4684 -0.0100
  774MOL0     C 4416   7.811   4.375   2.686 -0.3564 -0.1127 -0.5312
  774MOL0     C 4417   7.787   4.227   2.680 -0.1647 -0.1298 -0.3928
  774MOL0     C 4418   7.653   4.176   2.740  0.9947  0.6965  0.8618
  774MOL0     C 4419   7.656   4.028   2.758 -0.6892  0.0744 -0.5310
  774MOL0     C 4420   7.674   3.905   2.771  0.5676  0.5845 -0.6402
  774MOL0     C 4421   8.229   4.447   2.578 -0.8460  0.3494  0.1241
  774MOL0     C 4422   8.360   4.486   2.559 -0.3563 -1.4472  0.0212
  774MOL0     H 4423   8.850   4.489   2.492  1.8947 -0.1859  1.1283
  774MOL0     H 4424   9.055   4.593   2.358  0.6128  0.8248  0.1067
  774MOL0     H 4425   9.176   4.803   2.425  0.2503 -2.3790 -0.6972
  774MOL0     H 4426   9.229   4.758   2.269 -1.3340 -0.8460 -0.2948
  774MOL0     H 4427   9.155   5.054   2.320 -1.3325 -1.1505  2.4504
  774MOL0     H 4428   9.310   4.991   2.374  0.6192 -1.0595 -0.8203
  774MOL0     H 4429   9.355   4.905   2.138 -2.3045 -2.1182  1.5871
  774MOL0     H 4430   9.225   5.011   2.083 -1.2872  0.2853  2.1213
  774MOL0     H 4431   9.331   5.210   2.181  0.5462 -0.2039  0.2971
  774MOL0     H 4432   9.462   5.127   2.248 -1.5959  1.8556  0.7175
  774MOL0     H 4433   9.517   5.050   1.998  0.0251  0.5976 -0.5607
  774MOL0     H 4434   9.385   5.154   1.953  1.6538 -0.0709 -0.9808
  774MOL0     H 4435   9.638   5.243   2.084  0.0699 -1.5592 -0.9419
  774MOL0     H 4436   9.618   5.238   1.921  1.4442  2.5626  0.1669
  774MOL0     H 4437   9.452   5.399   2.124 -0.4145  2.8946 -0.1585
  774MOL0     H 4438   9.583   5.464   2.022 -0.9602  1.0851  1.0766
  774MOL0     H 4439   9.343   5.510   1.976  1.1742  0.5815  1.5396
  774MOL0     H 4440   9.334   5.351   1.908  0.6355  0.1566 -0.1548
  774MOL0     H 4441   9.565   5.311   1.709 -0.6681 -0.1330 -1.9963
  774MOL0     H 4442   9.718   5.374   1.524  1.0971 -0.3905 -0.5218
  774MOL0     H 4443   9.659   5.512   1.432  0.9814  1.4769  0.6598
  774MOL0     H 4444   9.926   5.478   1.494  1.6092 -0.2848  1.5618
  774MOL0     H 4445   9.877   5.538   1.646 -2.9656 -4.2324 -0.0957
  774MOL0     H 4446   9.775   5.740   1.540 -0.7903 -1.0196  0.1428
  774MOL0     H 4447   9.847   5.692   1.393 -3.4251 -3.0758  0.6989
  774MOL0     H 4448   9.995   5.752   1.646  1.3091 -1.5287 -0.5321
  774MOL0     H 4449   9.979   5.857   1.503 -1.4696  2.2838  2.9601
  774MOL0     H 4450  10.239   5.667   1.256  1.9263 -1.8067  0.1600
  774MOL0     H 4451  10.413   5.831   1.054  4.7837 -0.7005 -1.0007
  774MOL0     H 4452  10.543   5.764   1.144 -0.4961 -0.2038 -2.9465
  774MOL0     H 4453  10.397   5.675   1.141 -3.1419  0.2579  2.8020
  774MOL0     H 4454  10.493   6.380   1.305 -0.1731  0.5588  0.1484
  774MOL0     H 4455  10.665   6.563   1.259 -2.5832 -0.9566 -2.7689
  774MOL0     H 4456  11.095   6.528   1.321 -3.9129 -0.7566  1.5873
  774MOL0     H 4457  11.078   6.424   1.172 -0.5945 -1.4451  1.7723
  774MOL0     H 4458  11.045   6.630   1.053 -3.0630  5.6848  1.0822
  774MOL0     H 4459  11.081   6.728   1.200 -0.0355 -0.7175  1.5611
  774MOL0     H 4460  11.302   6.590   1.223 -0.8197  0.7215  0.4758
  774MOL0     H 4461  11.295   6.735   1.122  1.5029  0.6284 -1.9107
  774MOL0     H 4462  11.265   6.457   1.013  0.3980 -0.3489  1.7605
  774MOL0     H 4463  11.302   6.604   0.910 -1.0352 -1.7227 -1.4549
  774MOL0     H 4464  11.488   6.433   1.084  2.9442 -0.7568 -1.2061
  774MOL0     H 4465  11.535   6.601   1.048  0.2195 -1.1490  0.9739
  774MOL0     H 4466  11.458   6.390   0.864  0.9845 -0.6482  2.3483
  774MOL0     H 4467  11.511   6.553   0.796  0.4440  0.1908 -0.6784
  774MOL0     H 4468  11.726   6.510   0.931  1.9305  0.0503 -1.3902
  774MOL0     H 4469  11.715   6.414   0.781  0.3212  1.4065 -1.1184
  774MOL0     H 4470  11.662   6.320   1.054  0.4550 -2.3478  0.1957
  774MOL0     H 4471  11.803   6.303   0.949 -0.5255  1.8397 -2.5399
  774MOL0     H 4472  10.976   6.272   1.320  0.2926 -0.2783  0.2028
  774MOL0     H 4473  10.812   6.127   1.417 -1.2608 -0.1219 -0.1263
  774MOL0     H 4474  10.379   6.039   1.535 -0.8689  2.5261 -2.5069
  774MOL0     H 4475  10.198   5.887   1.610  0.1585 -2.9368 -0.0483
  774MOL0     H 4476   8.815   4.949   2.330  0.8947  0.7116  1.1527
  774MOL0     H 4477   8.625   4.842   2.435  0.8756 -0.2851  2.6931
  774MOL0     H 4478   8.489   4.433   2.867  1.2201 -2.1590 -0.9574
  774MOL0     H 4479   8.239   4.363   2.900 -0.3819  1.1349 -0.3501
  774MOL0     H 4480   7.960   4.532   2.651 -2.5112 -0.3517  3.8298
  774MOL0     H 4481   7.953   4.397   2.537 -4.7659  0.3975 -0.5619
  774MOL0     H 4482   7.735   4.420   2.621 -1.0061  0.0422  0.3218
  774MOL0     H 4483   7.801   4.417   2.786  2.3690  4.3060 -1.8055
  774MOL0     H 4484   7.858   4.170   2.740 -2.8850 -3.6189 -0.1161
  774MOL0     H 4485   7.802   4.196   2.576 -0.2948 -1.1663 -0.1229
  774MOL0     H 4486   7.571   4.189   2.668  2.0747 -1.8567 -0.9874
  774MOL0     H 4487   7.628   4.238   2.826  1.2476  0.7802  0.8750
  774MOL0     H 4488   7.689   3.803   2.799 -1.3171  0.5341  0.3210
  774MOL0     H 4489   8.161   4.436   2.495 -0.1069 -0.6970 -0.3671
  774MOL0     H 4490   8.389   4.528   2.463 -0.1874 -2.1234 -0.2273
  775MOL0     O 4491   7.709   7.022   6.919  0.5271  0.0722 -0.0150
  775MOL0     C 4492   7.815   7.020   6.982 -0.2577 -0.1390  2.5454
  775MOL0     O 4493   7.843   7.078   7.099 -0.3882 -0.0139 -0.7533
  775MOL0     C 4494   7.743   7.150   7.162  0.4363  0.2674 -0.0804
  775MOL0     C 4495   7.652   7.232   7.099 -0.3678 -0.4581 -0.4845
  775MOL0     C 4496   7.556   7.298   7.180 -0.2656 -0.0024  0.3242
  775MOL0     C 4497   7.536   7.260   7.316  0.4319 -0.5119 -0.0990
  775MOL0     O 4498   7.439   7.312   7.401 -0.6519  0.3764 -0.6767
  775MOL0     C 4499   7.391   7.445   7.380 -0.0121 -0.6203 -0.2595
  775MOL0     C 4500   7.499   7.552   7.417  0.1395  0.6394  0.1533
  775MOL0     C 4501   7.448   7.700   7.416  0.3312  0.1862  0.5287
  775MOL0     C 4502   7.401   7.735   7.282 -0.3300 -0.1326  0.2168
  775MOL0     C 4503   7.401   7.887   7.277 -0.5404 -0.2574  0.5525
  775MOL0     C 4504   7.370   7.943   7.130  0.5820  0.5046  0.4885
  775MOL0     C 4505   7.219   7.939   7.105 -0.2099  0.4167  0.2790
  775MOL0     C 4506   7.206   7.972   6.960 -1.0721 -0.5043  0.5943
  775MOL0     N 4507   7.063   7.965   6.928  0.1324  1.0641  0.1133
  775MOL0     C 4508   6.989   7.847   6.937  0.4278  0.6139  0.2503
  775MOL0     C 4509   6.864   7.885   6.899  0.2062  0.4918  0.4646
  775MOL0     C 4510   6.743   7.794   6.865 -0.1355 -0.4015  0.1959
  775MOL0     C 4511   6.663   7.764   6.997  0.1732  0.1626 -0.2889
  775MOL0     C 4512   6.555   7.652   6.978  0.3607  0.5335  0.3972
  775MOL0     C 4513   6.460   7.667   6.863 -0.6386  0.7096  0.5544
  775MOL0     O 4514   6.388   7.784   6.852  0.4345 -0.4483 -0.0040
  775MOL0     C 4515   6.294   7.839   6.940 -0.1562  0.8544  0.2378
  775MOL0     C 4516   6.237   7.966   6.916 -0.3469  0.0877 -0.4698
  775MOL0     C 4517   6.130   8.006   6.997 -0.1324 -0.2625  0.8154
  775MOL0     C 4518   6.068   8.139   6.986 -0.0864  0.4731 -0.2449
  775MOL0     C 4519   6.072   7.922   7.096 -0.5556  0.4446  0.0973
  775MOL0     C 4520   5.948   7.957   7.174 -0.0572  0.0327  0.5418
  775MOL0     O 4521   5.925   7.894   7.296 -0.0502 -0.5571 -0.0247
  775MOL0     C 4522   5.832   7.951   7.394 -0.1706  0.6138  0.3067
  775MOL0     C 4523   5.739   7.860   7.437 -0.0922  0.3677  0.4368
  775MOL0     C 4524   5.651   7.901   7.537 -0.4213  0.3839  0.4633
  775MOL0     C 4525   5.643   8.032   7.577 -0.3720 -0.0935  0.0301
  775MOL0     O 4526   5.540   8.067   7.656  0.1783  0.8423  0.5149
  775MOL0     C 4527   5.422   8.099   7.584  0.0674  0.2492 -0.2329
  775MOL0     C 4528   5.326   8.195   7.651  0.4698 -0.2528 -0.5529
  775MOL0     C 4529   5.307   8.161   7.800  0.3607  0.8594  1.2798
  775MOL0     C 4530   5.321   8.284   7.877  0.7359 -0.5096 -0.5684
  775MOL0     C 4531   5.285   8.262   8.031 -0.9377 -0.2842  0.2185
  775MOL0     C 4532   5.318   8.389   8.117 -0.2884 -0.1477  0.4089
  775MOL0     C 4533   5.303   8.372   8.270  0.4815  0.3337 -0.2865
  775MOL0     C 4534   5.159   8.312   8.312  0.0027 -0.0383 -0.3638
  775MOL0    Cl 4535   5.148   8.131   8.265  0.1128  0.5915 -0.5850
  775MOL0     C 4536   5.739   8.125   7.544  0.0854  0.3107  0.9859
  775MOL0     C 4537   5.842   8.078   7.453 -1.1105  0.4585  0.0810
  775MOL0     O 4538   5.861   8.019   7.121  0.1192  0.1965  0.3480
  775MOL0     C 4539   6.142   7.805   7.132  0.2893 -0.1529  0.5863
  775MOL0     C 4540   6.253   7.760   7.052  0.4213  0.4952  0.3289
  775MOL0     N 4541   6.866   8.018   6.876  0.4716  0.8660  0.3793
  775MOL0     N 4542   6.981   8.069   6.898  0.4394  0.1698 -1.1413
  775MOL0     C 4543   7.625   7.167   7.372 -0.8783  0.1216 -0.2014
  775MOL0     C 4544   7.735   7.118   7.303 -0.0909 -0.8896  1.0087
  775MOL0     C 4545   7.929   6.944   6.925 -1.2496  0.1696 -1.6159
  775MOL0     C 4546   8.055   6.984   6.950  0.0776  0.3829 -0.7947
  775MOL0     C 4547   8.162   6.909   6.898 -0.6387 -0.9474  0.4028
  775MOL0     C 4548   8.147   6.800   6.824  0.3901  0.1154 -0.1616
  775MOL0     O 4549   8.262   6.721   6.789 -0.1999  0.0385  0.0747
  775MOL0     C 4550   8.275   6.589   6.850  0.7027  0.1424  0.5368
  775MOL0     C 4551   8.411   6.548   6.900  0.4687 -0.1006 -0.1946
  775MOL0     C 4552   8.483   6.647   6.995  0.1572  0.2697  0.0558
  775MOL0     C 4553   8.588   6.592   7.095  0.6990 -0.0658 -0.1055
  775MOL0     C 4554   8.712   6.585   7.024 -0.6406  0.4542 -0.4447
  775MOL0     C 4555   8.814   6.586   6.956 -0.1138  0.3601  0.0368
  775MOL0     C 4556   8.020   6.748   6.802 -0.3166  0.8916 -0.3881
  775MOL0     C 4557   7.911   6.828   6.850 -0.3666  0.3094 -0.9793
  775MOL0     H 4558   7.650   7.248   6.991  3.2633  0.9311 -0.4822
  775MOL0     H 4559   7.486   7.361   7.126 -0.5015 -0.3501  0.2236
  775MOL0     H 4560   7.351   7.456   7.278 -2.3527  0.5199  0.7078
  775MOL0     H 4561   7.314   7.463   7.456  2.2904  1.4854  1.7702
  775MOL0     H 4562   7.537   7.530   7.517  1.8776  0.4990 -0.5087
  775MOL0     H 4563   7.590   7.550   7.356  0.2087  2.5525  0.1352
  775MOL0     H 4564   7.369   7.704   7.492  0.2681  0.6111  0.4407
  775MOL0     H 4565   7.525   7.765   7.457 -0.2147  0.3352  1.3454
  775MOL0     H 4566   7.471   7.695   7.208  0.5506  0.5560  0.6457
  775MOL0     H 4567   7.303   7.693   7.261  0.7131 -1.6988 -1.8956
  775MOL0     H 4568   7.347   7.933   7.361 -0.2538 -2.0592  1.7727
  775MOL0     H 4569   7.505   7.912   7.297 -0.4081  1.8057 -2.1903
  775MOL0     H 4570   7.405   8.047   7.128 -1.2621  1.1534 -0.7152
  775MOL0     H 4571   7.424   7.884   7.055  0.4621 -0.1852  0.9339
  775MOL0     H 4572   7.177   7.843   7.134 -0.8617  0.5376 -0.2351
  775MOL0     H 4573   7.187   8.019   7.174  0.9942 -0.2053  1.6119
  775MOL0     H 4574   7.248   7.891   6.900  0.1312  0.5621 -0.0497
  775MOL0     H 4575   7.248   8.070   6.934 -0.8251 -1.3427 -2.4865
  775MOL0     H 4576   7.037   7.752   6.961  3.5255  2.7969  3.7874
  775MOL0     H 4577   6.666   7.845   6.807 -0.1867 -2.0151 -1.2171
  775MOL0     H 4578   6.772   7.709   6.802 -3.9008 -1.6323 -0.1281
  775MOL0     H 4579   6.625   7.860   7.034  1.7432  1.4415 -1.8130
  775MOL0     H 4580   6.723   7.724   7.080  0.4122 -3.8639 -2.1977
  775MOL0     H 4581   6.506   7.628   7.073  1.8597  1.0774  1.3468
  775MOL0     H 4582   6.605   7.560   6.944 -1.1758 -0.2780  0.2384
  775MOL0     H 4583   6.394   7.579   6.859  0.4633 -0.1194  0.0784
  775MOL0     H 4584   6.523   7.665   6.774 -0.5857  2.2160  0.5411
  775MOL0     H 4585   6.274   8.019   6.829  0.9111  0.2745  0.1442
  775MOL0     H 4586   6.137   8.212   6.942  5.3305 -3.9645 -0.2173
  775MOL0     H 4587   5.979   8.134   6.922 -1.3852  1.7433  1.3550
  775MOL0     H 4588   6.048   8.183   7.084 -1.4961  2.1994 -1.2251
  775MOL0     H 4589   5.734   7.765   7.384 -2.0904  1.6478 -1.8477
  775MOL0     H 4590   5.572   7.844   7.585 -1.0582 -0.2806 -1.2766
  775MOL0     H 4591   5.444   8.144   7.487  1.0788 -1.2437 -0.7315
  775MOL0     H 4592   5.358   8.011   7.566 -2.0262  2.0430 -2.1464
  775MOL0     H 4593   5.365   8.297   7.641  0.3457 -0.2848 -1.4129
  775MOL0     H 4594   5.229   8.198   7.602  0.2260  0.8799 -0.0332
  775MOL0     H 4595   5.364   8.079   7.843 -1.8540 -1.1699  0.5524
  775MOL0     H 4596   5.202   8.129   7.799  1.5490 -3.9124 -2.0227
  775MOL0     H 4597   5.424   8.319   7.880  0.9169 -1.0945  0.4706
  775MOL0     H 4598   5.262   8.366   7.836  2.8422  0.8174 -1.0778
  775MOL0     H 4599   5.323   8.173   8.079 -1.2830 -1.3947 -1.4697
  775MOL0     H 4600   5.176   8.254   8.041 -0.7828 -0.1888  2.4012
  775MOL0     H 4601   5.414   8.432   8.089 -1.7741  1.0058 -3.6534
  775MOL0     H 4602   5.248   8.471   8.097 -0.1458  0.4318  2.1099
  775MOL0     H 4603   5.313   8.472   8.313  0.4124 -0.0570  0.6667
  775MOL0     H 4604   5.387   8.312   8.305  1.2769 -0.1336 -2.7965
  775MOL0     H 4605   5.085   8.369   8.254  1.1031  0.5594 -1.2358
  775MOL0     H 4606   5.147   8.328   8.419 -0.0209  0.3297 -0.4200
  775MOL0     H 4607   5.728   8.225   7.584 -0.0339 -0.3261  2.6144
  775MOL0     H 4608   5.919   8.145   7.418 -1.6733  1.2708  0.3651
  775MOL0     H 4609   6.110   7.748   7.219 -0.6673  0.3882  0.6056
  775MOL0     H 4610   6.306   7.665   7.057  1.8282  1.0463 -2.1382
  775MOL0     H 4611   7.606   7.127   7.471 -0.0029 -0.0615 -0.1015
  775MOL0     H 4612   7.808   7.058   7.356  2.5208  1.2018 -0.0229
  775MOL0     H 4613   8.084   7.059   7.023  1.4592  0.2996 -1.2284
  775MOL0     H 4614   8.267   6.932   6.917 -0.8196  0.5419 -0.2954
  775MOL0     H 4615   8.199   6.570   6.926 -1.9291  1.6072 -1.5194
  775MOL0     H 4616   8.258   6.513   6.773 -2.2187  0.6431  0.5736
  775MOL0     H 4617   8.472   6.529   6.811 -0.1189  2.8370 -1.3192
  775MOL0     H 4618   8.400   6.456   6.959  2.9788  2.0516  4.1003
  775MOL0     H 4619   8.414   6.706   7.056  0.2640  0.7473 -0.2835
  775MOL0     H 4620   8.522   6.724   6.928  0.1166 -0.5448 -0.9298
  775MOL0     H 4621   8.560   6.498   7.142  1.3848 -0.6277 -0.7975
  775MOL0     H 4622   8.604   6.666   7.174  0.9484 -0.0321 -0.1866
  775MOL0     H 4623   8.890   6.569   6.883 -2.5917 -0.3356 -2.5433
  775MOL0     H 4624   8.011   6.651   6.753  0.0768  1.2785 -1.2624
  775MOL0     H 4625   7.809   6.790   6.847  0.3297 -1.6640 -0.8821
  776MOL0     O 4626   8.292   5.492   6.326 -0.1945  0.4362 -0.1087
  776MOL0     C 4627   8.282   5.607   6.283  0.9232  0.4904  0.5887
  776MOL0     O 4628   8.350   5.670   6.178  0.1520 -0.4606 -0.6484
  776MOL0     C 4629   8.480   5.655   6.144  0.1000 -0.0555  0.5536
  776MOL0     C 4630   8.562   5.576   6.225 -0.0837 -0.0320 -0.3523
  776MOL0     C 4631   8.694   5.567   6.186  0.2775  0.2628 -0.4206
  776MOL0     C 4632   8.747   5.620   6.073  0.4220 -0.1179 -0.2267
  776MOL0     O 4633   8.870   5.598   6.014  0.0525  0.0352  0.2332
  776MOL0     C 4634   8.977   5.555   6.106 -0.1351  0.4216 -1.0699
  776MOL0     C 4635   9.081   5.484   6.022 -0.0782  0.4962  0.2825
  776MOL0     C 4636   9.048   5.341   6.018 -0.0343  0.2126  0.2879
  776MOL0     C 4637   9.094   5.272   6.151 -0.2957  0.2724  0.4045
  776MOL0     C 4638   8.995   5.168   6.202  0.4153 -0.0127  0.0499
  776MOL0     C 4639   8.977   5.049   6.112 -0.2866 -0.4102 -0.7535
  776MOL0     C 4640   8.870   4.943   6.161 -0.4884 -0.5551 -0.6445
  776MOL0     C 4641   8.853   4.827   6.061  0.1165 -0.2409 -0.5359
  776MOL0     N 4642   8.746   4.732   6.109  0.8493 -0.0702  0.7328
  776MOL0     C 4643   8.696   4.629   6.032 -1.0030  0.5803 -0.0830
  776MOL0     C 4644   8.613   4.571   6.120  0.2995  0.8881  0.2376
  776MOL0     C 4645   8.535   4.440   6.089  0.0406  0.2961  0.1922
  776MOL0     C 4646   8.409   4.477   6.007  0.4059  0.6707 -0.5152
  776MOL0     C 4647   8.320   4.353   5.974 -0.3700  0.4331 -0.2396
  776MOL0     C 4648   8.174   4.385   5.943  0.3209 -0.7145 -0.1922
  776MOL0     O 4649   8.095   4.399   6.072  0.7302 -0.0240  0.8429
  776MOL0     C 4650   8.025   4.290   6.137  0.7832 -0.2255  0.6216
  776MOL0     C 4651   7.923   4.322   6.231 -0.6801  0.6291  1.2607
  776MOL0     C 4652   7.846   4.228   6.295  0.1754 -0.6203 -0.1618
  776MOL0     C 4653   7.755   4.283   6.412 -0.2975 -0.8027  0.1051
  776MOL0     C 4654   7.862   4.089   6.262 -0.3002 -0.1831  0.6947
  776MOL0     C 4655   7.759   3.991   6.298  0.2835  0.9131  0.3565
  776MOL0     O 4656   7.802   3.864   6.313  0.1979 -0.5723  0.5905
  776MOL0     C 4657   7.714   3.759   6.331 -0.2627  0.2346  0.6995
  776MOL0     C 4658   7.618   3.763   6.433 -1.0517 -0.9162  0.0830
  776MOL0     C 4659   7.521   3.661   6.456 -0.3791 -0.2395  0.1667
  776MOL0     C 4660   7.530   3.541   6.388 -0.1592  1.1952 -0.5503
  776MOL0     O 4661   7.474   3.414   6.411  0.4307  0.3620  0.1109
  776MOL0     C 4662   7.354   3.427   6.491 -0.3131  0.4339 -0.1444
  776MOL0     C 4663   7.305   3.286   6.530  0.0167  0.7557 -0.2500
  776MOL0     C 4664   7.230   3.211   6.412  0.6710  0.8234 -0.0843
  776MOL0     C 4665   7.203   3.064   6.449 -0.5088  0.4509  0.1765
  776MOL0     C 4666   7.121   2.998   6.337  0.1994 -0.8931  0.2559
  776MOL0     C 4667   6.987   2.954   6.389 -0.0267  0.7130  0.7423
  776MOL0     C 4668   6.881   3.070   6.402 -0.3464 -0.0444 -0.2273
  776MOL0     C 4669   6.747   3.037   6.472  0.3075  0.8888 -0.6767
  776MOL0    Cl 4670   6.649   2.956   6.351 -0.0946 -0.3372  0.2711
  776MOL0     C 4671   7.635   3.532   6.293  0.0021  0.8249 -0.9336
  776MOL0     C 4672   7.717   3.639   6.266  0.0580  0.3709  0.1729
  776MOL0     O 4673   7.644   4.029   6.312 -0.4343 -0.5100  0.4147
  776MOL0     C 4674   7.968   4.054   6.169  0.5765 -0.0845 -0.0122
  776MOL0     C 4675   8.048   4.151   6.107 -0.1585 -0.0162  0.6855
  776MOL0     N 4676   8.619   4.627   6.245 -0.2790  0.2275 -0.1343
  776MOL0     N 4677   8.711   4.723   6.239 -0.1112 -0.5414 -0.3767
  776MOL0     C 4678   8.657   5.686   5.984 -0.3878  0.2059  0.4817
  776MOL0     C 4679   8.525   5.707   6.027 -0.0581  0.0501  0.1654
  776MOL0     C 4680   8.150   5.677   6.297  0.3080  1.2392 -0.1801
  776MOL0     C 4681   8.117   5.812   6.263 -0.0929  0.2246 -0.9071
  776MOL0     C 4682   7.993   5.868   6.304  0.4600 -0.7028  0.1928
  776MOL0     C 4683   7.889   5.786   6.356 -1.0039 -0.0808 -0.7044
  776MOL0     O 4684   7.773   5.844   6.390  0.1354  0.1196 -1.2594
  776MOL0     C 4685   7.759   5.842   6.533  0.2085 -0.7041  0.0249
  776MOL0     C 4686   7.834   5.952   6.604 -0.3344  0.4359  0.1196
  776MOL0     C 4687   7.785   5.962   6.749  0.3060 -0.1317  0.2975
  776MOL0     C 4688   7.741   6.105   6.785  0.8745  0.0173 -0.2894
  776MOL0     C 4689   7.706   6.111   6.923  0.3776  0.5502 -0.5135
  776MOL0     C 4690   7.686   6.137   7.043 -0.1336  0.1431  0.4629
  776MOL0     C 4691   7.913   5.646   6.365 -0.6733 -0.3927 -0.2726
  776MOL0     C 4692   8.045   5.600   6.342  0.2295  0.0805  0.0952
  776MOL0     H 4693   8.523   5.532   6.316 -1.3811  2.9132  0.6485
  776MOL0     H 4694   8.747   5.504   6.257 -0.8478  1.9182  2.0250
  776MOL0     H 4695   9.029   5.645   6.141  0.7086 -1.0287  1.8270
  776MOL0     H 4696   8.943   5.492   6.189  0.9165 -0.6611 -1.4287
  776MOL0     H 4697   9.082   5.519   5.918  1.2617  1.1024  0.4712
  776MOL0     H 4698   9.183   5.503   6.056  0.0095  0.9294 -0.2135
  776MOL0     H 4699   8.945   5.314   5.993  0.4906 -1.4165 -0.2135
  776MOL0     H 4700   9.113   5.315   5.935 -3.0583 -2.5868 -1.4246
  776MOL0     H 4701   9.190   5.221   6.138 -2.0992 -3.5460  0.4645
  776MOL0     H 4702   9.105   5.341   6.235  2.8522  1.5099 -0.8727
  776MOL0     H 4703   9.031   5.130   6.298 -0.9993 -1.2121  0.1500
  776MOL0     H 4704   8.893   5.202   6.223  0.0494 -0.6346 -0.6406
  776MOL0     H 4705   8.941   5.092   6.018 -0.8146  3.5989  1.0427
  776MOL0     H 4706   9.067   4.990   6.095 -0.6086 -0.8745 -0.8710
  776MOL0     H 4707   8.903   4.904   6.258 -1.5146  0.9100  0.3389
  776MOL0     H 4708   8.777   4.998   6.179  0.4837  0.8877  0.2165
  776MOL0     H 4709   8.940   4.763   6.047 -0.2117 -0.3271 -2.5404
  776MOL0     H 4710   8.829   4.865   5.961  0.6027 -2.0627 -1.3843
  776MOL0     H 4711   8.703   4.597   5.929 -1.7302  1.4620 -0.4197
  776MOL0     H 4712   8.601   4.370   6.037 -0.3796  0.2324 -0.2669
  776MOL0     H 4713   8.510   4.389   6.182 -0.5495  2.4013  1.2488
  776MOL0     H 4714   8.448   4.518   5.913  1.3075  0.5208 -0.2187
  776MOL0     H 4715   8.348   4.550   6.061  0.4084  0.7589 -0.6308
  776MOL0     H 4716   8.316   4.282   6.056  4.4654 -0.8738 -0.7805
  776MOL0     H 4717   8.362   4.308   5.883 -0.9113 -2.5473  0.8672
  776MOL0     H 4718   8.143   4.298   5.884  1.4237 -2.3311  1.4871
  776MOL0     H 4719   8.157   4.473   5.881  0.1708 -2.6424 -3.0710
  776MOL0     H 4720   7.898   4.428   6.230  0.0227  0.8218 -1.0899
  776MOL0     H 4721   7.711   4.200   6.468 -1.3529 -0.6963 -0.5388
  776MOL0     H 4722   7.814   4.354   6.470  0.9211 -0.5669 -1.3555
  776MOL0     H 4723   7.678   4.339   6.358  0.5792  0.4083  0.0701
  776MOL0     H 4724   7.602   3.854   6.488 -0.2942 -1.0308  0.5143
  776MOL0     H 4725   7.438   3.666   6.525 -0.5260  0.6628 -0.0657
  776MOL0     H 4726   7.383   3.481   6.581 -0.3262  0.6311 -0.2579
  776MOL0     H 4727   7.273   3.476   6.436 -2.4531 -3.3572 -0.7287
  776MOL0     H 4728   7.396   3.236   6.564 -0.0923  2.2820  2.5836
  776MOL0     H 4729   7.246   3.311   6.619  1.7355  0.9169  0.8940
  776MOL0     H 4730   7.296   3.214   6.325 -0.0782 -1.0333 -0.7569
  776MOL0     H 4731   7.136   3.264   6.397 -1.8358 -1.9351  3.8264
  776MOL0     H 4732   7.300   3.016   6.467  0.5929  2.9322  1.3063
  776MOL0     H 4733   7.149   3.052   6.543 -0.4413 -2.2035 -0.0508
  776MOL0     H 4734   7.166   2.905   6.301  1.8918  0.3729 -1.0728
  776MOL0     H 4735   7.120   3.054   6.242 -0.9671 -2.6485 -0.8275
  776MOL0     H 4736   6.952   2.882   6.315  1.7678  1.5029 -0.9858
  776MOL0     H 4737   6.999   2.905   6.486  0.2487  2.3233  1.5679
  776MOL0     H 4738   6.843   3.088   6.301 -2.3763  0.0425  0.5076
  776MOL0     H 4739   6.929   3.156   6.449  0.0667 -0.9207  0.9892
  776MOL0     H 4740   6.705   3.134   6.500 -1.2091 -0.0581  0.5072
  776MOL0     H 4741   6.771   2.984   6.565  1.5799  2.6737  0.0635
  776MOL0     H 4742   7.651   3.449   6.226 -0.0180  0.6843 -0.7641
  776MOL0     H 4743   7.801   3.616   6.200 -0.4028  1.8094 -0.9712
  776MOL0     H 4744   7.984   3.952   6.137 -1.1465  0.1477 -1.7743
  776MOL0     H 4745   8.122   4.130   6.030  0.0456  2.5306  0.0953
  776MOL0     H 4746   8.686   5.735   5.892  1.3192  1.4312  1.5984
  776MOL0     H 4747   8.459   5.771   5.970 -4.1976 -2.2319  1.9183
  776MOL0     H 4748   8.189   5.868   6.204  0.4842  1.0966  0.5732
  776MOL0     H 4749   7.962   5.970   6.286  0.5129 -0.3294  2.0438
  776MOL0     H 4750   7.655   5.870   6.553  1.3369  3.5705  0.9149
  776MOL0     H 4751   7.794   5.748   6.577  1.8989  0.0717  0.4262
  776MOL0     H 4752   7.825   6.051   6.560 -0.3902  1.0641  1.5062
  776MOL0     H 4753   7.937   5.916   6.615 -0.6338 -0.6123 -0.3726
  776MOL0     H 4754   7.875   5.940   6.807 -0.5733 -1.3968  1.2301
  776MOL0     H 4755   7.717   5.881   6.775 -0.1507 -0.3133 -1.3696
  776MOL0     H 4756   7.653   6.123   6.722  0.9361  3.6877  0.4827
  776MOL0     H 4757   7.823   6.175   6.773 -0.8334  2.3250  0.6713
  776MOL0     H 4758   7.674   6.175   7.143  1.0265 -1.9538  1.4567
  776MOL0     H 4759   7.845   5.568   6.395 -0.1228 -0.7349  0.1019
  776MOL0     H 4760   8.070   5.497   6.367  1.4829 -0.2629 -2.2568
  777MOL0     O 4761   6.215   8.010   2.063  0.2902 -0.0099  0.0772
  777MOL0     C 4762   6.314   8.089   2.070  0.5355 -0.5350 -0.6851
  777MOL0     O 4763   6.301   8.221   2.113 -0.2786 -0.1286  0.2162
  777MOL0     C 4764   6.186   8.289   2.109  0.3730 -0.2270  0.0354
  777MOL0     C 4765   6.120   8.302   2.237 -0.1435 -0.7817  1.4200
  777MOL0     C 4766   6.013   8.401   2.246  0.1858 -0.1379  0.1404
  777MOL0     C 4767   5.969   8.468   2.132  0.3229 -0.8246 -0.5747
  777MOL0     O 4768   5.864   8.563   2.128 -0.6826  0.6904  0.0411
  777MOL0     C 4769   5.776   8.567   2.240 -0.5257 -0.3346  0.3693
  777MOL0     C 4770   5.657   8.670   2.214  0.4020  0.0365  0.2930
  777MOL0     C 4771   5.533   8.624   2.133 -0.1390 -0.7234  1.1242
  777MOL0     C 4772   5.450   8.745   2.087 -0.2737 -0.0429 -0.5140
  777MOL0     C 4773   5.361   8.711   1.972 -0.4298  0.0984 -0.0676
  777MOL0     C 4774   5.265   8.827   1.954  0.0991 -0.3521 -0.5548
  777MOL0     C 4775   5.181   8.826   1.824 -0.0284  0.0448  1.1853
  777MOL0     C 4776   5.101   8.696   1.800 -0.0787 -0.8999 -0.6309
  777MOL0     N 4777   5.029   8.705   1.671  0.5844  0.5747  0.0181
  777MOL0     C 4778   4.901   8.743   1.654  0.8359  0.3569 -0.3493
  777MOL0     C 4779   4.875   8.727   1.521 -0.6526  0.3304 -0.3122
  777MOL0     C 4780   4.749   8.746   1.448  1.0597 -0.3476  0.6172
  777MOL0     C 4781   4.670   8.866   1.493  0.3298  0.6941 -0.1711
  777MOL0     C 4782   4.547   8.881   1.403 -0.3907 -0.1216 -0.9520
  777MOL0     C 4783   4.431   8.797   1.477  0.1397  0.1654 -0.0042
  777MOL0     O 4784   4.339   8.748   1.371 -0.0668  0.0741  0.7472
  777MOL0     C 4785   4.246   8.830   1.316  0.2559  0.4366  1.0538
  777MOL0     C 4786   4.116   8.811   1.354  1.0532 -0.4491  0.5193
  777MOL0     C 4787   4.016   8.893   1.315  0.0499 -0.4502 -0.1007
  777MOL0     C 4788   3.884   8.881   1.392  0.3631 -0.0233  1.2116
  777MOL0     C 4789   4.042   8.996   1.213 -0.0839  0.2618 -0.2192
  777MOL0     C 4790   3.936   9.089   1.162 -0.5083  0.7435 -0.0976
  777MOL0     O 4791   3.963   9.226   1.172 -0.4183  0.1747  0.0121
  777MOL0     C 4792   3.875   9.321   1.114  0.6410 -0.3591 -0.7167
  777MOL0     C 4793   3.779   9.308   1.016 -0.2645 -1.5584  0.7830
  777MOL0     C 4794   3.724   9.430   0.966  0.9632  0.0851  0.7670
  777MOL0     C 4795   3.775   9.561   0.997  0.2612  0.3763  0.2099
  777MOL0     O 4796   3.735   9.669   0.926 -1.0236 -0.2482 -0.2206
  777MOL0     C 4797   3.808   9.784   0.968 -0.6331 -1.0101  0.2703
  777MOL0     C 4798   3.750   9.883   0.863 -0.9148 -0.4402 -1.2294
  777MOL0     C 4799   3.787  10.036   0.885  0.0606  0.8997  0.2915
  777MOL0     C 4800   3.691  10.128   0.809  0.6113  0.8531  0.2873
  777MOL0     C 4801   3.753  10.184   0.678  0.1941 -0.3049  0.5496
  777MOL0     C 4802   3.650  10.230   0.577  0.3219 -0.8721  0.9215
  777MOL0     C 4803   3.574  10.364   0.608  0.5132  0.2783 -0.1808
  777MOL0     C 4804   3.458  10.386   0.511  1.1605 -0.5484  0.2397
  777MOL0    Cl 4805   3.383  10.545   0.528 -0.1338  0.0107  0.2214
  777MOL0     C 4806   3.862   9.561   1.107 -0.2514 -0.4514  0.8898
  777MOL0     C 4807   3.910   9.449   1.164  0.7425  0.5909  0.4869
  777MOL0     O 4808   3.824   9.046   1.133  0.0750  0.1671 -0.0993
  777MOL0     C 4809   4.174   9.008   1.162 -0.2841 -1.0781  0.1493
  777MOL0     C 4810   4.275   8.924   1.209  1.5542 -0.1675 -0.3026
  777MOL0     N 4811   4.992   8.681   1.461 -0.3363 -0.5679  0.2273
  777MOL0     N 4812   5.077   8.661   1.551  0.0819 -0.1419 -0.7931
  777MOL0     C 4813   6.034   8.459   2.014 -0.0413  0.0216  0.5427
  777MOL0     C 4814   6.141   8.369   2.000 -0.1359 -0.7674  0.7001
  777MOL0     C 4815   6.449   8.042   2.054 -0.6086  0.9872  0.3025
  777MOL0     C 4816   6.487   7.924   1.978 -0.4968  0.5940 -0.6842
  777MOL0     C 4817   6.625   7.879   1.963  0.1762 -0.2986 -0.5750
  777MOL0     C 4818   6.728   7.954   2.012  0.3859  0.8003 -0.1749
  777MOL0     O 4819   6.861   7.921   2.019  0.1653  0.6419  0.3848
  777MOL0     C 4820   6.921   7.805   1.954  0.0741 -0.7247 -0.2323
  777MOL0     C 4821   6.956   7.840   1.810 -0.3824  0.4649 -0.6421
  777MOL0     C 4822   7.076   7.933   1.794 -0.1424  0.0382  0.0908
  777MOL0     C 4823   7.123   7.929   1.648 -0.7550 -0.3515  0.8030
  777MOL0     C 4824   7.206   7.807   1.613 -0.1546  0.6110 -0.3764
  777MOL0     C 4825   7.262   7.710   1.574 -0.8464  0.7282  0.8576
  777MOL0     C 4826   6.693   8.074   2.076 -0.9719  0.0945 -0.6199
  777MOL0     C 4827   6.566   8.118   2.100 -0.1125  0.6425  0.3702
  777MOL0     H 4828   6.134   8.235   2.321  1.3767 -1.1449  0.9013
  777MOL0     H 4829   5.970   8.411   2.345  2.4234  1.1971  1.0676
  777MOL0     H 4830   5.733   8.468   2.257 -1.5624 -0.1487 -1.0292
  777MOL0     H 4831   5.835   8.608   2.323  1.1710 -0.6400 -0.6195
  777MOL0     H 4832   5.636   8.711   2.313  0.7365 -0.0720  0.4104
  777MOL0     H 4833   5.704   8.749   2.155  0.7215 -0.2379  0.1748
  777MOL0     H 4834   5.562   8.558   2.051 -0.4037  2.4257 -1.7436
  777MOL0     H 4835   5.458   8.563   2.184 -0.2943 -1.3786  0.1265
  777MOL0     H 4836   5.387   8.770   2.173  2.9211 -3.1704  3.1173
  777MOL0     H 4837   5.525   8.819   2.056 -1.1186  1.1455  0.1796
  777MOL0     H 4838   5.429   8.693   1.888 -0.3766  0.0004 -0.0028
  777MOL0     H 4839   5.308   8.617   1.987  1.1320 -0.4373  2.7460
  777MOL0     H 4840   5.195   8.832   2.038 -0.5172  0.6815 -1.1136
  777MOL0     H 4841   5.316   8.924   1.960  1.6274 -1.1993  2.5199
  777MOL0     H 4842   5.129   8.920   1.807 -1.0473 -0.8830 -1.2676
  777MOL0     H 4843   5.243   8.836   1.735 -2.4687 -2.1372 -0.9188
  777MOL0     H 4844   5.035   8.680   1.886 -1.3045  0.2123 -1.3103
  777MOL0     H 4845   5.176   8.617   1.797  0.1748 -0.6589 -0.6439
  777MOL0     H 4846   4.821   8.762   1.725  1.1761  1.5047 -0.2557
  777MOL0     H 4847   4.762   8.770   1.342 -1.0186  1.5568  0.7080
  777MOL0     H 4848   4.692   8.653   1.453  2.4151 -1.2282  0.1648
  777MOL0     H 4849   4.730   8.957   1.479 -0.8274  1.2557 -1.8157
  777MOL0     H 4850   4.630   8.847   1.593  0.7088  2.2072  0.2901
  777MOL0     H 4851   4.575   8.831   1.310  4.5027 -3.6765  1.9391
  777MOL0     H 4852   4.528   8.987   1.380 -1.8656  0.0348  0.7279
  777MOL0     H 4853   4.379   8.855   1.554 -3.9402 -1.1158 -1.5375
  777MOL0     H 4854   4.466   8.703   1.521  0.0505  0.9511  1.8564
  777MOL0     H 4855   4.099   8.731   1.425 -1.1668 -1.0812 -0.6501
  777MOL0     H 4856   3.801   8.940   1.353 -1.7378 -1.9326  2.5771
  777MOL0     H 4857   3.853   8.776   1.393 -1.5402  0.4998  0.8879
  777MOL0     H 4858   3.897   8.922   1.492  2.3255 -0.6201  1.2454
  777MOL0     H 4859   3.748   9.211   0.977 -1.2947 -1.2446  0.8039
  777MOL0     H 4860   3.652   9.426   0.886  0.3964  4.6160  0.7799
  777MOL0     H 4861   3.785   9.825   1.066  0.5979 -0.7936  0.4855
  777MOL0     H 4862   3.917   9.776   0.966 -0.4950  0.4736  0.4489
  777MOL0     H 4863   3.785   9.855   0.763  0.5354  1.1467 -1.2144
  777MOL0     H 4864   3.643   9.881   0.887 -0.4814 -1.2943  0.9470
  777MOL0     H 4865   3.891  10.048   0.852  0.1605  1.6117  0.8426
  777MOL0     H 4866   3.771  10.050   0.992  1.7380 -0.8919  0.8312
  777MOL0     H 4867   3.594  10.078   0.798 -0.6804  3.2493  0.1641
  777MOL0     H 4868   3.664  10.213   0.872 -2.0694  0.4967 -0.2482
  777MOL0     H 4869   3.812  10.104   0.632  0.4287 -1.0157  2.0460
  777MOL0     H 4870   3.824  10.260   0.712  0.0561 -1.5961  4.1434
  777MOL0     H 4871   3.700  10.242   0.481  1.5917 -1.0692  1.5370
  777MOL0     H 4872   3.583  10.144   0.564 -0.4066 -0.3985  1.4819
  777MOL0     H 4873   3.647  10.445   0.598 -0.7357  2.0328  3.1442
  777MOL0     H 4874   3.538  10.365   0.711  0.6661  1.1899 -0.1323
  777MOL0     H 4875   3.377  10.313   0.521 -0.5929  0.5919 -3.6662
  777MOL0     H 4876   3.495  10.368   0.410 -0.4195  1.4737 -0.7790
  777MOL0     H 4877   3.893   9.651   1.158  1.0054 -0.4890  0.2469
  777MOL0     H 4878   3.983   9.449   1.244  0.4036  0.7113  0.7989
  777MOL0     H 4879   4.197   9.079   1.083 -0.7140  0.1158  1.0742
  777MOL0     H 4880   4.376   8.931   1.170  1.7847  2.7828  0.5775
  777MOL0     H 4881   5.997   8.524   1.935 -0.3348  0.2526  0.8690
  777MOL0     H 4882   6.194   8.372   1.905  0.6440  2.5946  1.1333
  777MOL0     H 4883   6.415   7.873   1.914  0.1632 -1.3781  0.0822
  777MOL0     H 4884   6.642   7.783   1.915  0.0332 -0.7710  0.3000
  777MOL0     H 4885   7.006   7.764   2.009 -0.9395 -1.7785  0.6009
  777MOL0     H 4886   6.848   7.724   1.959 -3.6954  2.4074  1.6632
  777MOL0     H 4887   6.871   7.882   1.756 -1.6864 -1.3313 -0.0790
  777MOL0     H 4888   6.984   7.748   1.757 -1.4313 -0.0371 -0.3390
  777MOL0     H 4889   7.162   7.899   1.853  1.3085  1.1831 -1.2658
  777MOL0     H 4890   7.050   8.039   1.805  2.5152  0.8379 -0.5932
  777MOL0     H 4891   7.187   8.016   1.636 -2.4044  0.5623 -2.5564
  777MOL0     H 4892   7.045   7.938   1.572  0.7844 -0.3204 -0.8355
  777MOL0     H 4893   7.305   7.622   1.529  0.9893  1.8255  0.3621
  777MOL0     H 4894   6.771   8.139   2.115 -0.2929  0.4114 -2.4459
  777MOL0     H 4895   6.553   8.213   2.151  1.3323  1.9709 -1.5788
  778MOL0     O 4896   5.350   7.288   3.991 -0.4098  0.4965 -0.9252
  778MOL0     C 4897   5.338   7.215   3.889 -0.2436  0.4459  0.4002
  778MOL0     O 4898   5.231   7.207   3.810 -0.6838  0.0747  0.2548
  778MOL0     C 4899   5.125   7.283   3.839 -0.1904 -0.0063 -0.0299
  778MOL0     C 4900   4.998   7.221   3.861  0.0595  0.3910  0.2547
  778MOL0     C 4901   4.887   7.308   3.874 -0.2615 -0.7361 -0.3758
  778MOL0     C 4902   4.904   7.452   3.871 -0.8552 -0.1180 -0.7467
  778MOL0     O 4903   4.793   7.530   3.892 -1.2208 -0.2533  0.3661
  778MOL0     C 4904   4.820   7.667   3.937 -0.3903  0.6063 -0.5500
  778MOL0     C 4905   4.682   7.717   3.965  0.1202  0.7724 -0.1149
  778MOL0     C 4906   4.674   7.858   4.034 -0.2498 -0.8758 -0.7986
  778MOL0     C 4907   4.532   7.916   4.066  0.7126  0.2946 -0.6169
  778MOL0     C 4908   4.490   7.876   4.201 -0.6476 -0.2512 -0.2835
  778MOL0     C 4909   4.358   7.944   4.231 -0.3873  1.5827  0.5999
  778MOL0     C 4910   4.243   7.872   4.152 -0.2286 -0.9051 -0.0599
  778MOL0     C 4911   4.110   7.925   4.202  0.6983  0.0014 -0.7074
  778MOL0     N 4912   4.082   8.056   4.138 -0.0080 -0.1197  0.2540
  778MOL0     C 4913   4.035   8.083   4.013 -0.1000 -0.8488 -0.6692
  778MOL0     C 4914   4.008   8.218   4.010  0.3771  0.4014  0.5928
  778MOL0     C 4915   3.907   8.275   3.910 -0.7550 -0.4425 -0.4400
  778MOL0     C 4916   3.766   8.251   3.968  0.4856  0.5927  0.1077
  778MOL0     C 4917   3.677   8.361   3.925 -0.7313 -1.0027  0.6430
  778MOL0     C 4918   3.601   8.351   3.796 -0.9334 -0.1089  0.2821
  778MOL0     O 4919   3.471   8.413   3.812 -0.6411 -0.1287  0.3106
  778MOL0     C 4920   3.385   8.438   3.712 -0.0172  1.0672 -0.4085
  778MOL0     C 4921   3.387   8.371   3.585 -0.3278  0.1200 -0.3406
  778MOL0     C 4922   3.293   8.405   3.483 -0.2294 -0.4499 -0.1741
  778MOL0     C 4923   3.304   8.329   3.356 -0.6716 -0.1842 -0.2649
  778MOL0     C 4924   3.189   8.496   3.509  0.3688 -0.2904  0.2752
  778MOL0     C 4925   3.081   8.528   3.410  0.5655 -0.1362  0.3945
  778MOL0     O 4926   3.086   8.487   3.282  0.5797 -0.0971 -0.2298
  778MOL0     C 4927   3.001   8.552   3.203  0.0589  0.2748 -0.2436
  778MOL0     C 4928   3.055   8.668   3.152  0.0800 -0.2776  0.0104
  778MOL0     C 4929   2.985   8.745   3.063  0.4276 -0.3079 -0.3753
  778MOL0     C 4930   2.859   8.718   3.031  0.2312  0.6948 -0.2685
  778MOL0     O 4931   2.803   8.792   2.935  0.6330  0.0513  0.4140
  778MOL0     C 4932   2.678   8.857   2.973 -0.4766  0.0522  0.9843
  778MOL0     C 4933   2.692   8.989   2.899 -0.7202  0.7109  0.7950
  778MOL0     C 4934   2.553   9.048   2.860 -0.3730  0.7196 -0.8250
  778MOL0     C 4935   2.570   9.170   2.766  0.5732  0.0606  0.0128
  778MOL0     C 4936   2.430   9.241   2.730 -1.1427  0.0451 -0.0545
  778MOL0     C 4937   2.339   9.274   2.850 -0.0902 -0.2319 -0.0681
  778MOL0     C 4938   2.221   9.177   2.848 -0.5117 -0.1776  0.2661
  778MOL0     C 4939   2.122   9.222   2.954  1.0512 -0.6426  0.9733
  778MOL0    Cl 4940   2.186   9.204   3.122 -0.5831  0.5872  0.0954
  778MOL0     C 4941   2.800   8.599   3.084 -0.6117  0.1598 -0.6442
  778MOL0     C 4942   2.867   8.520   3.177  0.7794 -0.4276  0.0174
  778MOL0     O 4943   3.001   8.609   3.454 -0.0457 -0.0266  0.1676
  778MOL0     C 4944   3.185   8.555   3.638 -0.4371  0.1396  0.0320
  778MOL0     C 4945   3.279   8.521   3.737 -0.1694 -0.1951  0.2114
  778MOL0     N 4946   4.037   8.264   4.135  0.1800 -0.6018 -0.8264
  778MOL0     N 4947   4.087   8.171   4.204 -1.2320  0.8666 -0.0078
  778MOL0     C 4948   5.026   7.506   3.844  0.0156 -0.4792  0.0356
  778MOL0     C 4949   5.132   7.418   3.824  0.1323 -0.1371  0.8743
  778MOL0     C 4950   5.458   7.123   3.863  0.9070 -0.0262  0.2656
  778MOL0     C 4951   5.450   7.031   3.760  0.0894 -1.8571  0.3575
  778MOL0     C 4952   5.560   6.950   3.723  0.6380  0.0156  0.8706
  778MOL0     C 4953   5.675   6.960   3.799 -0.2930  0.7659 -0.5845
  778MOL0     O 4954   5.775   6.869   3.785 -1.0801  1.2698  0.2475
  778MOL0     C 4955   5.796   6.820   3.648 -0.4307  0.5996  0.8575
  778MOL0     C 4956   5.932   6.760   3.616 -0.1213 -0.9962  0.1527
  778MOL0     C 4957   5.976   6.778   3.466 -0.2381  0.5019 -0.6524
  778MOL0     C 4958   6.115   6.750   3.443 -0.5058 -0.1064  0.6093
  778MOL0     C 4959   6.143   6.610   3.483 -0.0274 -0.6187  0.8479
  778MOL0     C 4960   6.180   6.496   3.500 -0.0265  0.7343 -0.0550
  778MOL0     C 4961   5.686   7.061   3.901  0.5087 -0.1098 -0.2454
  778MOL0     C 4962   5.576   7.145   3.934 -0.3879  0.1561  0.6052
  778MOL0     H 4963   4.987   7.115   3.882  0.8007  0.8165  3.2320
  778MOL0     H 4964   4.787   7.266   3.883 -1.0293  1.0303 -0.2698
  778MOL0     H 4965   4.882   7.664   4.027  2.7884 -0.0908 -2.5766
  778MOL0     H 4966   4.865   7.743   3.872  1.5650  0.5654  0.6712
  778MOL0     H 4967   4.629   7.729   3.870 -0.4330  2.6593  0.3856
  778MOL0     H 4968   4.638   7.648   4.037  0.2733  0.7614 -0.0315
  778MOL0     H 4969   4.740   7.860   4.121 -1.7485  2.2560  0.4540
  778MOL0     H 4970   4.730   7.924   3.967  0.6082  0.4199  1.0871
  778MOL0     H 4971   4.542   8.024   4.056  1.4174  0.3277  0.2462
  778MOL0     H 4972   4.454   7.885   3.997  0.8542  2.1400 -1.6545
  778MOL0     H 4973   4.479   7.767   4.207  1.7175 -0.4986  0.5193
  778MOL0     H 4974   4.573   7.906   4.266 -1.7122  0.2819  0.8605
  778MOL0     H 4975   4.345   7.958   4.338  0.9081 -1.4579  1.2620
  778MOL0     H 4976   4.372   8.043   4.186  0.9072  1.2719  0.2596
  778MOL0     H 4977   4.258   7.857   4.045  1.1239 -1.6038  0.2093
  778MOL0     H 4978   4.246   7.768   4.185 -1.4206 -0.4749  1.5575
  778MOL0     H 4979   4.105   7.921   4.311 -0.3149 -1.2006 -0.7670
  778MOL0     H 4980   4.024   7.857   4.192  1.6397 -1.4747  0.7287
  778MOL0     H 4981   4.003   8.012   3.937  1.7406 -0.9276 -1.4327
  778MOL0     H 4982   3.918   8.382   3.889 -1.2013 -0.8739 -3.2515
  778MOL0     H 4983   3.917   8.232   3.810 -4.9629 -0.2759 -1.1381
  778MOL0     H 4984   3.773   8.246   4.077  3.3742 -5.2237 -0.0033
  778MOL0     H 4985   3.731   8.152   3.939  4.6460 -0.6765 -1.2847
  778MOL0     H 4986   3.727   8.458   3.925 -1.1835 -0.7533  2.2128
  778MOL0     H 4987   3.603   8.361   4.005 -1.2404  0.5109  0.1956
  778MOL0     H 4988   3.586   8.243   3.781 -2.6900 -0.2802  2.7104
  778MOL0     H 4989   3.660   8.393   3.713  0.7911 -0.1860  1.4165
  778MOL0     H 4990   3.459   8.291   3.568  0.0865  0.1252  1.2329
  778MOL0     H 4991   3.383   8.255   3.374 -0.7926 -0.1305  0.5216
  778MOL0     H 4992   3.215   8.284   3.313 -1.0214 -0.0844  0.3495
  778MOL0     H 4993   3.331   8.404   3.282  0.3022  0.9653  1.1965
  778MOL0     H 4994   3.149   8.710   3.186 -0.4712 -1.6217  3.5589
  778MOL0     H 4995   3.030   8.832   3.017  0.2156  0.4967  0.8835
  778MOL0     H 4996   2.591   8.800   2.940 -0.4386  0.7830 -0.4176
  778MOL0     H 4997   2.681   8.880   3.080  0.2746  2.0408  0.5772
  778MOL0     H 4998   2.751   9.063   2.955 -3.2985  0.6571  3.8738
  778MOL0     H 4999   2.744   8.963   2.806 -2.1404  0.6880 -0.0146
  778MOL0     H 5000   2.495   9.073   2.949 -1.4747  1.6676 -1.7789
  778MOL0     H 5001   2.484   8.976   2.815 -1.0047  0.0267  1.1270
  778MOL0     H 5002   2.637   9.238   2.819 -0.1445 -0.9622  2.3979
  778MOL0     H 5003   2.600   9.138   2.666  2.0889 -0.5936  0.6388
  778MOL0     H 5004   2.367   9.183   2.661 -0.8236  0.0039 -0.3151
  778MOL0     H 5005   2.462   9.333   2.680 -2.7488  1.8782  2.1023
  778MOL0     H 5006   2.393   9.261   2.944  0.4798 -4.5084 -0.7901
  778MOL0     H 5007   2.293   9.373   2.839 -2.8042 -1.5403 -1.6991
  778MOL0     H 5008   2.249   9.074   2.868 -2.0171 -0.4729  0.9589
  778MOL0     H 5009   2.171   9.169   2.751  0.1279 -0.8353 -0.0174
  778MOL0     H 5010   2.030   9.163   2.948  1.5820 -1.3816 -0.1974
  778MOL0     H 5011   2.094   9.327   2.937  1.4853 -0.7603 -0.6111
  778MOL0     H 5012   2.695   8.584   3.061 -1.8368  6.5726 -1.2076
  778MOL0     H 5013   2.816   8.432   3.215 -0.7812 -0.9744 -3.0533
  778MOL0     H 5014   3.104   8.619   3.668  0.7311  1.7352 -0.0802
  778MOL0     H 5015   3.279   8.570   3.835  3.5956  0.5666 -0.0095
  778MOL0     H 5016   5.054   7.611   3.851  2.3104 -1.0193 -0.3550
  778MOL0     H 5017   5.224   7.465   3.791 -0.1252 -0.1490  0.1167
  778MOL0     H 5018   5.360   7.017   3.700 -1.1671  2.6635  0.8007
  778MOL0     H 5019   5.545   6.877   3.645 -0.8329 -1.0736  2.1058
  778MOL0     H 5020   5.719   6.746   3.626 -2.8625  3.5883 -1.7085
  778MOL0     H 5021   5.779   6.897   3.572 -0.6194 -1.1562 -0.9672
  778MOL0     H 5022   5.941   6.657   3.653 -0.7255 -0.1170  2.9822
  778MOL0     H 5023   5.999   6.817   3.681 -0.1806  0.6781 -1.1867
  778MOL0     H 5024   5.948   6.875   3.422 -2.0859  0.6281  0.6975
  778MOL0     H 5025   5.921   6.699   3.414 -3.2161  0.1938  2.5758
  778MOL0     H 5026   6.171   6.821   3.503  0.6038 -0.3885 -0.0700
  778MOL0     H 5027   6.129   6.764   3.335  1.8268  0.3987  0.9406
  778MOL0     H 5028   6.223   6.399   3.517 -1.0154 -0.1486 -2.3347
  778MOL0     H 5029   5.776   7.077   3.960  0.4240  0.6003 -0.2937
  778MOL0     H 5030   5.587   7.213   4.018 -0.0103  0.6294  0.1806
  779MOL0     O 5031   5.925   8.790   8.177  0.0874  0.3220  0.1507
  779MOL0     C 5032   5.951   8.707   8.092 -0.1812 -0.0825  0.3577
  779MOL0     O 5033   6.063   8.633   8.079  0.2291  0.8971  0.8366
  779MOL0     C 5034   6.164   8.639   8.170 -0.9806 -0.8363  0.1079
  779MOL0     C 5035   6.132   8.636   8.308 -0.3675  0.0584  1.4750
  779MOL0     C 5036   6.239   8.639   8.408 -0.0736 -0.7104 -0.1185
  779MOL0     C 5037   6.377   8.638   8.375 -0.1385  1.2032 -0.8015
  779MOL0     O 5038   6.469   8.615   8.479  0.1950  0.2403 -0.1441
  779MOL0     C 5039   6.572   8.514   8.460 -0.1865 -0.7971  0.1212
  779MOL0     C 5040   6.666   8.477   8.576  0.1451  0.2063  0.4251
  779MOL0     C 5041   6.727   8.597   8.653 -0.4283 -0.4027  0.1012
  779MOL0     C 5042   6.814   8.535   8.773  0.8726 -0.3728  0.0920
  779MOL0     C 5043   6.870   8.642   8.857 -0.6981  0.9299  0.5805
  779MOL0     C 5044   6.771   8.716   8.948 -0.9778 -0.1204 -0.9658
  779MOL0     C 5045   6.733   8.642   9.070 -0.5551  0.4027  0.8494
  779MOL0     C 5046   6.848   8.590   9.155 -0.0069  0.3361  0.7916
  779MOL0     N 5047   6.824   8.580   9.299  0.5877  0.8691  0.3706
  779MOL0     C 5048   6.829   8.466   9.388  0.2131  0.0551 -0.1567
  779MOL0     C 5049   6.823   8.525   9.514  0.4969 -1.2563 -0.3973
  779MOL0     C 5050   6.827   8.448   9.649  0.5070 -0.4576  0.0161
  779MOL0     C 5051   6.862   8.303   9.649  0.2070  0.8480  1.6870
  779MOL0     C 5052   6.820   8.236   9.772  0.0395  0.8399  0.4363
  779MOL0     C 5053   6.832   8.087   9.763  0.8240 -0.6010 -0.4474
  779MOL0     O 5054   6.743   8.015   9.851 -0.2264 -0.7670 -0.1523
  779MOL0     C 5055   6.759   7.884   9.851  0.6776  0.1171  0.5445
  779MOL0     C 5056   6.665   7.800   9.787  0.4922 -0.1824 -0.3072
  779MOL0     C 5057   6.687   7.659   9.778  0.5078  0.7961 -0.6123
  779MOL0     C 5058   6.588   7.582   9.695  1.0577 -0.4131  0.0041
  779MOL0     C 5059   6.801   7.608   9.842  0.1918 -0.3067 -0.4118
  779MOL0     C 5060   6.839   7.469   9.809  0.1659 -0.3185 -1.3801
  779MOL0     O 5061   6.749   7.367   9.819  0.4663 -0.1220  0.2992
  779MOL0     C 5062   6.792   7.243   9.777  0.3442 -0.9211 -0.4711
  779MOL0     C 5063   6.848   7.159   9.869 -0.9583 -0.2068  0.2661
  779MOL0     C 5064   6.887   7.029   9.843 -0.0901  0.4588 -0.4720
  779MOL0     C 5065   6.856   6.978   9.717  0.0113  0.0644  0.6973
  779MOL0     O 5066   6.894   6.847   9.689 -0.3733  0.2549  0.0828
  779MOL0     C 5067   6.962   6.806   9.568  0.6008  0.8234 -0.4988
  779MOL0     C 5068   7.106   6.795   9.592 -0.7787 -1.0868 -0.0307
  779MOL0     C 5069   7.178   6.726   9.478  0.3663 -0.0063 -0.8196
  779MOL0     C 5070   7.326   6.765   9.498 -0.1088 -0.2649 -0.1977
  779MOL0     C 5071   7.415   6.734   9.371  0.5728 -0.5081  0.8905
  779MOL0     C 5072   7.423   6.588   9.333 -0.3751  0.3793  0.1201
  779MOL0     C 5073   7.483   6.496   9.435  0.1886  0.6542 -1.0048
  779MOL0     C 5074   7.456   6.351   9.394 -0.1944 -0.5143  0.3716
  779MOL0    Cl 5075   7.278   6.308   9.398 -0.3388 -0.4234 -0.1681
  779MOL0     C 5076   6.803   7.067   9.620 -0.6972  1.1149  0.1670
  779MOL0     C 5077   6.769   7.197   9.653  0.3255 -1.0459  0.2124
  779MOL0     O 5078   6.955   7.453   9.793  0.2901  1.0200 -0.1761
  779MOL0     C 5079   6.891   7.697   9.910  0.0109 -0.2469  0.0052
  779MOL0     C 5080   6.868   7.828   9.907 -0.5382  0.3244 -0.3129
  779MOL0     N 5081   6.810   8.661   9.496 -0.2274 -0.7486  1.0565
  779MOL0     N 5082   6.810   8.695   9.376  0.7365  1.2057 -0.0986
  779MOL0     C 5083   6.400   8.634   8.239  0.5311 -0.1990  0.9154
  779MOL0     C 5084   6.300   8.654   8.138  0.3123 -0.4107 -0.4479
  779MOL0     C 5085   5.849   8.691   7.983 -0.0294  0.1395 -0.0359
  779MOL0     C 5086   5.833   8.589   7.885 -0.2788  1.0591 -0.4290
  779MOL0     C 5087   5.734   8.581   7.787  0.7262 -0.0658  0.3445
  779MOL0     C 5088   5.638   8.677   7.785 -0.6813 -0.2448  0.6884
  779MOL0     O 5089   5.527   8.679   7.703  0.6317 -0.3631 -0.4469
  779MOL0     C 5090   5.517   8.574   7.608  0.9057 -0.0077 -0.5479
  779MOL0     C 5091   5.602   8.592   7.484  0.0849 -0.2044  0.5359
  779MOL0     C 5092   5.566   8.714   7.405  0.1848 -1.2107  0.5827
  779MOL0     C 5093   5.602   8.708   7.258 -0.2258 -1.2696  0.4374
  779MOL0     C 5094   5.746   8.707   7.240 -0.0964 -0.2112 -0.5112
  779MOL0     C 5095   5.868   8.705   7.228  0.4511  0.3180 -0.0097
  779MOL0     C 5096   5.657   8.785   7.868 -0.4890 -1.2721 -0.4514
  779MOL0     C 5097   5.761   8.798   7.960 -0.6951  0.0060  0.5446
  779MOL0     H 5098   6.036   8.619   8.355 -0.5520  0.8909  1.4286
  779MOL0     H 5099   6.216   8.627   8.514  0.6014 -1.2864 -0.0258
  779MOL0     H 5100   6.521   8.422   8.428 -1.0391 -0.3591  0.2163
  779MOL0     H 5101   6.627   8.547   8.371 -0.3219  0.1236  0.3755
  779MOL0     H 5102   6.602   8.408   8.631  0.8726 -1.6833 -1.0123
  779MOL0     H 5103   6.740   8.412   8.529  1.2923  2.2561 -0.7621
  779MOL0     H 5104   6.788   8.665   8.592 -2.1832  1.1276 -0.0620
  779MOL0     H 5105   6.642   8.652   8.695 -2.3028 -2.7673 -0.3599
  779MOL0     H 5106   6.761   8.468   8.842 -0.4104 -1.5454 -1.9459
  779MOL0     H 5107   6.897   8.476   8.734  0.7580  0.3521 -1.2993
  779MOL0     H 5108   6.950   8.596   8.917  0.8280 -0.1874 -2.1074
  779MOL0     H 5109   6.925   8.699   8.782  0.0932  0.5592  0.8689
  779MOL0     H 5110   6.833   8.798   8.987 -0.6509 -2.1110  3.2518
  779MOL0     H 5111   6.675   8.748   8.905 -1.4230  0.6545  0.5385
  779MOL0     H 5112   6.679   8.712   9.135 -0.4085 -0.7151  2.2348
  779MOL0     H 5113   6.660   8.565   9.043 -0.6109  0.2378  1.4502
  779MOL0     H 5114   6.935   8.648   9.124  1.7242 -3.6308 -2.7327
  779MOL0     H 5115   6.865   8.492   9.109  2.9447  1.7892 -1.6030
  779MOL0     H 5116   6.859   8.366   9.360  0.0661  0.1122 -0.5265
  779MOL0     H 5117   6.893   8.513   9.707 -0.6378  0.3411  0.4582
  779MOL0     H 5118   6.723   8.451   9.683  0.5695  2.7637  0.1610
  779MOL0     H 5119   6.969   8.290   9.632 -0.0960 -0.2456  0.3758
  779MOL0     H 5120   6.812   8.252   9.565  3.1858 -0.5005  0.5854
  779MOL0     H 5121   6.714   8.255   9.787  0.2934  1.0884  2.0930
  779MOL0     H 5122   6.876   8.274   9.858  0.4864  0.4951  0.3003
  779MOL0     H 5123   6.936   8.057   9.778  0.5728 -1.6065 -0.5918
  779MOL0     H 5124   6.793   8.053   9.666 -0.2289 -3.2048  0.7864
  779MOL0     H 5125   6.575   7.838   9.739 -0.3985 -3.2382 -1.3020
  779MOL0     H 5126   6.632   7.524   9.613 -3.0500 -3.0625 -0.6079
  779MOL0     H 5127   6.535   7.521   9.768  0.6725  0.6943  0.6821
  779MOL0     H 5128   6.512   7.645   9.648 -2.8081 -2.9589  2.3269
  779MOL0     H 5129   6.867   7.208   9.964 -1.4430  0.4689  0.0198
  779MOL0     H 5130   6.934   6.964   9.916  0.1503 -1.3586 -2.1746
  779MOL0     H 5131   6.921   6.708   9.540  0.1703  0.7440  0.3739
  779MOL0     H 5132   6.951   6.879   9.488  3.5162  2.2561  0.2932
  779MOL0     H 5133   7.150   6.894   9.603  1.2762 -1.8083 -1.0519
  779MOL0     H 5134   7.127   6.751   9.690 -2.3521  0.6813  1.1709
  779MOL0     H 5135   7.147   6.761   9.379  2.4002  0.0791 -1.4892
  779MOL0     H 5136   7.167   6.618   9.486  0.7535  0.0399  0.6995
  779MOL0     H 5137   7.336   6.873   9.512  0.7627 -0.1395 -1.5588
  779MOL0     H 5138   7.351   6.712   9.590 -1.1629 -1.6559 -0.6727
  779MOL0     H 5139   7.517   6.772   9.383  0.6740 -0.5148  0.1435
  779MOL0     H 5140   7.378   6.795   9.287  0.8649  1.4204  2.1020
  779MOL0     H 5141   7.321   6.556   9.310 -0.6056 -0.9920  2.6459
  779MOL0     H 5142   7.491   6.566   9.250  2.9451  2.3409  2.1161
  779MOL0     H 5143   7.443   6.516   9.534  0.0675 -0.9591 -0.6995
  779MOL0     H 5144   7.589   6.512   9.454 -0.4205  0.7575  3.0436
  779MOL0     H 5145   7.517   6.283   9.454 -1.3791 -1.2205  0.7972
  779MOL0     H 5146   7.490   6.331   9.292 -0.5880 -1.4726  0.4194
  779MOL0     H 5147   6.786   7.031   9.519 -1.1625 -1.2952  1.0457
  779MOL0     H 5148   6.727   7.258   9.574  0.7792  1.2264  1.6494
  779MOL0     H 5149   6.975   7.643   9.952  0.1198  0.6852  1.0252
  779MOL0     H 5150   6.933   7.901   9.954 -1.9037  1.0991  0.4520
  779MOL0     H 5151   6.502   8.616   8.206 -0.2614 -1.2609 -1.0885
  779MOL0     H 5152   6.332   8.665   8.034  1.9193 -0.6553 -0.0010
  779MOL0     H 5153   5.903   8.508   7.902 -2.7240 -0.6937  2.3291
  779MOL0     H 5154   5.750   8.501   7.715  0.7820 -1.3771  1.7604
  779MOL0     H 5155   5.534   8.475   7.650  1.1291 -1.6097 -4.0105
  779MOL0     H 5156   5.411   8.567   7.581  0.9643 -2.2261 -0.3858
  779MOL0     H 5157   5.584   8.510   7.414  1.8218 -3.0538  3.2079
  779MOL0     H 5158   5.711   8.597   7.499  0.2003  4.4867 -0.4013
  779MOL0     H 5159   5.612   8.804   7.448 -1.0054  0.9309 -2.3004
  779MOL0     H 5160   5.458   8.733   7.413  0.3636  0.9106 -1.0410
  779MOL0     H 5161   5.559   8.799   7.215  1.0100 -1.3093 -0.9560
  779MOL0     H 5162   5.568   8.623   7.198 -0.6173 -2.5790  2.4255
  779MOL0     H 5163   5.971   8.685   7.205  0.4041 -3.7166  2.2588
  779MOL0     H 5164   5.588   8.869   7.860 -1.6020 -1.9645  1.2125
  779MOL0     H 5165   5.777   8.884   8.024  3.4305 -0.1312 -0.0294
  780MOL0     O 5166   4.649   7.102   4.325 -0.0934  0.3690 -0.1577
  780MOL0     C 5167   4.652   7.095   4.203 -0.3646  0.6386  0.0131
  780MOL0     O 5168   4.576   7.163   4.104  0.2528 -0.6909 -0.0929
  780MOL0     C 5169   4.484   7.253   4.154  0.3845  0.5188 -0.5355
  780MOL0     C 5170   4.513   7.377   4.190 -0.4516  0.4146  0.1765
  780MOL0     C 5171   4.412   7.458   4.238  0.0651 -0.0094  0.3330
  780MOL0     C 5172   4.281   7.412   4.266 -0.6492 -0.3179  0.2394
  780MOL0     O 5173   4.176   7.479   4.319  0.1823 -0.2728 -0.9972
  780MOL0     C 5174   4.218   7.584   4.417  0.0851 -0.1727  0.0187
  780MOL0     C 5175   4.106   7.590   4.525  0.1565  0.3383  0.2297
  780MOL0     C 5176   3.964   7.604   4.440 -0.2803  0.5556  0.4465
  780MOL0     C 5177   3.845   7.685   4.510  0.3701  0.1084 -0.6791
  780MOL0     C 5178   3.717   7.706   4.430  0.3971  0.2170  1.3357
  780MOL0     C 5179   3.748   7.764   4.291 -0.3327 -0.8900  0.5076
  780MOL0     C 5180   3.619   7.786   4.211 -0.2711  0.0598 -0.0467
  780MOL0     C 5181   3.655   7.873   4.082  0.1056  0.3515  0.9522
  780MOL0     N 5182   3.551   7.865   3.978 -0.1152  0.4349  0.1897
  780MOL0     C 5183   3.540   7.940   3.865 -0.2528 -0.2975 -0.3437
  780MOL0     C 5184   3.428   7.883   3.806  0.1318  0.4021  0.2350
  780MOL0     C 5185   3.395   7.918   3.664  0.0396 -0.7243 -0.6256
  780MOL0     C 5186   3.269   8.007   3.662 -0.0755 -1.2373 -0.2867
  780MOL0     C 5187   3.206   8.008   3.524  0.3107 -0.3326  0.7057
  780MOL0     C 5188   3.065   8.064   3.514  0.3485  0.3445 -0.3760
  780MOL0     O 5189   3.021   8.069   3.376  0.0521  0.0809  0.4346
  780MOL0     C 5190   2.892   8.125   3.350 -0.4788  0.5205 -0.2106
  780MOL0     C 5191   2.844   8.140   3.220  0.3987  0.0951  0.4011
  780MOL0     C 5192   2.717   8.194   3.191 -0.0668  1.5309  0.4167
  780MOL0     C 5193   2.678   8.199   3.048 -0.3547 -0.6451 -0.3449
  780MOL0     C 5194   2.639   8.236   3.299 -0.4283  0.2181  0.0941
  780MOL0     C 5195   2.502   8.288   3.295  0.2993  0.6606 -0.3508
  780MOL0     O 5196   2.438   8.311   3.415 -0.3385 -0.6779 -0.7726
  780MOL0     C 5197   2.309   8.344   3.439  1.0926  0.3076  0.1989
  780MOL0     C 5198   2.202   8.328   3.343 -0.6471  0.4821 -0.2711
  780MOL0     C 5199   2.077   8.360   3.380  0.2607 -0.0237  0.1464
  780MOL0     C 5200   2.049   8.399   3.515 -0.5405  0.3469  0.9762
  780MOL0     O 5201   1.927   8.438   3.565  0.4330 -0.6813  0.2821
  780MOL0     C 5202   1.819   8.353   3.513 -0.3442 -0.2667  0.2359
  780MOL0     C 5203   1.699   8.321   3.613 -0.1993  0.2331 -0.8533
  780MOL0     C 5204   1.742   8.258   3.747  0.0279 -0.5780  0.1399
  780MOL0     C 5205   1.629   8.185   3.827 -0.2044  0.2338 -0.0153
  780MOL0     C 5206   1.578   8.052   3.763  0.2756  0.7118  0.1921
  780MOL0     C 5207   1.443   8.006   3.819  0.9785  0.3938  0.1972
  780MOL0     C 5208   1.379   7.901   3.730  0.1055  0.4793  0.2148
  780MOL0     C 5209   1.437   7.762   3.746 -0.6808  0.8948  1.3685
  780MOL0    Cl 5210   1.362   7.640   3.641  0.0565  0.7954 -0.5340
  780MOL0     C 5211   2.153   8.398   3.613  0.2744  0.8469  0.3862
  780MOL0     C 5212   2.277   8.375   3.573  0.3316  1.3254 -0.2727
  780MOL0     O 5213   2.451   8.312   3.187 -0.1092 -0.0982 -0.0717
  780MOL0     C 5214   2.688   8.219   3.431 -0.8853  0.3699 -0.2703
  780MOL0     C 5215   2.815   8.179   3.453 -0.4223 -0.2752 -0.0221
  780MOL0     N 5216   3.369   7.789   3.891  0.3796 -0.4882  1.0002
  780MOL0     N 5217   3.448   7.783   3.988  0.2976  0.3163 -0.1293
  780MOL0     C 5218   4.250   7.282   4.240  0.1002 -0.7544  0.1309
  780MOL0     C 5219   4.350   7.202   4.175  0.3755 -0.4927  0.1440
  780MOL0     C 5220   4.746   6.992   4.149  0.6649 -0.1848 -0.0322
  780MOL0     C 5221   4.758   6.968   4.015  0.6796  0.2116  0.3130
  780MOL0     C 5222   4.844   6.876   3.953  0.0374 -0.8693 -0.2499
  780MOL0     C 5223   4.925   6.799   4.034 -0.1601  1.1340 -0.5518
  780MOL0     O 5224   5.022   6.705   3.990  0.2437  0.0887 -0.6597
  780MOL0     C 5225   4.991   6.609   3.892  0.2519 -0.9163  0.6382
  780MOL0     C 5226   5.060   6.624   3.756 -0.1152 -0.0791 -0.2003
  780MOL0     C 5227   5.212   6.660   3.776 -0.6965  0.3677 -0.0114
  780MOL0     C 5228   5.276   6.537   3.843 -0.3131 -0.0071 -0.6401
  780MOL0     C 5229   5.418   6.531   3.810 -0.0923  0.1980  1.1237
  780MOL0     C 5230   5.534   6.551   3.788  0.0205 -0.3406  1.2128
  780MOL0     C 5231   4.917   6.813   4.173 -0.1970  0.4098 -0.3713
  780MOL0     C 5232   4.832   6.913   4.229  0.3537 -0.6532  0.4734
  780MOL0     H 5233   4.619   7.393   4.172 -0.6409  1.2831 -0.1939
  780MOL0     H 5234   4.440   7.560   4.264  3.2710 -0.4747 -0.8164
  780MOL0     H 5235   4.311   7.562   4.470 -0.4882 -2.9373 -0.0000
  780MOL0     H 5236   4.215   7.685   4.375 -1.9806 -0.2178 -0.0589
  780MOL0     H 5237   4.109   7.497   4.582  1.4168 -0.2869 -0.8094
  780MOL0     H 5238   4.122   7.678   4.588  1.0075  1.9064 -2.0298
  780MOL0     H 5239   3.979   7.643   4.339 -1.6486 -1.4212 -0.5837
  780MOL0     H 5240   3.922   7.506   4.419 -0.9599  0.8409  0.4412
  780MOL0     H 5241   3.830   7.637   4.608  1.3185  3.0617  1.0437
  780MOL0     H 5242   3.883   7.784   4.539 -1.3391  0.9103 -1.0804
  780MOL0     H 5243   3.655   7.618   4.413 -0.6175  1.2778 -1.0511
  780MOL0     H 5244   3.658   7.782   4.483 -0.8087  0.1643  0.1137
  780MOL0     H 5245   3.805   7.857   4.306  1.1606 -1.7351  0.2412
  780MOL0     H 5246   3.817   7.704   4.232  2.1230  0.5430  1.7582
  780MOL0     H 5247   3.576   7.686   4.198 -0.9682  0.0620  1.8741
  780MOL0     H 5248   3.544   7.841   4.269 -2.3037 -0.5585 -1.9244
  780MOL0     H 5249   3.754   7.846   4.044 -1.3232 -2.9814 -0.9098
  780MOL0     H 5250   3.653   7.981   4.096  2.2136  0.6919 -0.8821
  780MOL0     H 5251   3.591   8.025   3.821  0.8797 -0.5386  0.4666
  780MOL0     H 5252   3.479   7.974   3.622  1.2723 -2.9492 -1.2740
  780MOL0     H 5253   3.398   7.824   3.609  0.7241 -0.1970 -1.5157
  780MOL0     H 5254   3.296   8.110   3.685 -2.3324 -0.5132 -0.7164
  780MOL0     H 5255   3.199   7.973   3.739  2.0747 -0.5658  2.0979
  780MOL0     H 5256   3.207   7.902   3.495  1.5855 -0.3199  0.6158
  780MOL0     H 5257   3.262   8.079   3.462 -2.5551  2.6314  1.2832
  780MOL0     H 5258   3.062   8.156   3.574 -1.1607  0.9797 -1.3600
  780MOL0     H 5259   3.001   7.993   3.566  0.7381  1.1969  1.3608
  780MOL0     H 5260   2.888   8.095   3.132  1.1579 -0.0525  0.8490
  780MOL0     H 5261   2.639   8.300   3.034  2.7665  0.9754  1.6540
  780MOL0     H 5262   2.762   8.201   2.979  0.5415  0.5689  0.7597
  780MOL0     H 5263   2.595   8.131   3.024 -0.9586 -0.8639  2.0479
  780MOL0     H 5264   2.233   8.292   3.245 -0.6140  3.2062 -1.3559
  780MOL0     H 5265   1.988   8.356   3.317 -0.6025 -0.4603  1.3450
  780MOL0     H 5266   1.777   8.396   3.422 -2.7643 -1.0059  0.9265
  780MOL0     H 5267   1.863   8.258   3.483 -0.4598  0.0666 -1.0390
  780MOL0     H 5268   1.640   8.412   3.631 -2.5564 -1.2624 -0.6222
  780MOL0     H 5269   1.636   8.244   3.568 -1.4044 -0.4497  1.8295
  780MOL0     H 5270   1.765   8.328   3.828  1.7027 -0.6196 -0.2702
  780MOL0     H 5271   1.820   8.182   3.745 -1.2326 -2.0023  2.0924
  780MOL0     H 5272   1.675   8.160   3.922  0.3971  4.5294  1.0682
  780MOL0     H 5273   1.540   8.247   3.847  0.2104  1.2473 -1.2005
  780MOL0     H 5274   1.647   7.967   3.757 -1.0509 -0.3212 -0.9357
  780MOL0     H 5275   1.549   8.069   3.659 -0.8974 -3.2338 -0.2798
  780MOL0     H 5276   1.457   7.952   3.913  0.9950 -0.4305 -0.2655
  780MOL0     H 5277   1.366   8.082   3.836 -1.4067 -1.1639 -2.5935
  780MOL0     H 5278   1.408   7.927   3.628  1.1151  0.9795  0.6125
  780MOL0     H 5279   1.272   7.899   3.754  0.2774 -2.1782  1.0191
  780MOL0     H 5280   1.425   7.724   3.848 -3.9212 -0.3351  0.6373
  780MOL0     H 5281   1.543   7.755   3.721 -1.3013  2.4685 -2.2963
  780MOL0     H 5282   2.125   8.398   3.718 -1.5565 -4.1098  0.1848
  780MOL0     H 5283   2.341   8.363   3.660 -1.5100 -1.3850  0.8415
  780MOL0     H 5284   2.644   8.257   3.522  1.3130  0.3751  0.8501
  780MOL0     H 5285   2.850   8.179   3.556  1.2317  1.7725 -0.5224
  780MOL0     H 5286   4.148   7.249   4.261 -0.1369 -0.3653 -0.3844
  780MOL0     H 5287   4.317   7.101   4.149 -1.7937  0.4961 -1.2181
  780MOL0     H 5288   4.686   7.016   3.949 -0.8308 -0.5866  1.3071
  780MOL0     H 5289   4.856   6.862   3.846 -0.3777 -4.3848  0.0440
  780MOL0     H 5290   5.021   6.515   3.939 -1.9712 -0.4553  3.2080
  780MOL0     H 5291   4.882   6.608   3.880  0.2618 -2.7569  0.4991
  780MOL0     H 5292   5.002   6.694   3.695  0.4492 -0.0724 -0.7328
  780MOL0     H 5293   5.045   6.529   3.703  3.2860 -1.4369  0.9837
  780MOL0     H 5294   5.223   6.751   3.835  3.4530  0.8257 -1.1940
  780MOL0     H 5295   5.253   6.682   3.677 -1.0227 -0.7057 -0.4049
  780MOL0     H 5296   5.217   6.450   3.812 -1.9869  0.9259 -0.2145
  780MOL0     H 5297   5.269   6.539   3.952  1.8096 -1.0117 -0.4379
  780MOL0     H 5298   5.640   6.555   3.781 -0.0971  2.7948 -1.0620
  780MOL0     H 5299   4.974   6.757   4.246 -0.3843  0.3217 -0.2935
  780MOL0     H 5300   4.830   6.924   4.337  0.1248  2.2024  0.2568
  781MOL0     O 5301   1.170   8.706   8.287 -0.6053  0.0850  0.8228
  781MOL0     C 5302   1.149   8.825   8.316  0.2154 -0.6291 -0.0702
  781MOL0     O 5303   1.038   8.896   8.282 -0.0030  0.1136  0.0406
  781MOL0     C 5304   0.936   8.841   8.209  0.7753 -0.4314 -0.2313
  781MOL0     C 5305   0.930   8.717   8.145 -0.1703 -0.0577  0.0758
  781MOL0     C 5306   0.822   8.684   8.071  0.0971  0.1821  0.2400
  781MOL0     C 5307   0.705   8.774   8.061 -0.7294 -0.5680 -1.0158
  781MOL0     O 5308   0.590   8.745   7.992  0.2068  0.0989 -0.5099
  781MOL0     C 5309   0.574   8.620   7.924 -0.0078  1.1149  0.6707
  781MOL0     C 5310   0.430   8.599   7.871  0.3473 -0.3522  0.2813
  781MOL0     C 5311   0.330   8.621   7.985 -0.1523  0.2294  0.2812
  781MOL0     C 5312   0.193   8.563   7.956 -0.3036  1.0841  0.2426
  781MOL0     C 5313   0.077   8.596   8.056 -0.0431  0.5265 -0.2531
  781MOL0     C 5314   0.108   8.565   8.205  1.4307 -0.9063  0.3128
  781MOL0     C 5315  -0.008   8.616   8.301  0.3832  0.5102  0.2765
  781MOL0     C 5316  -0.037   8.768   8.306  1.1965  0.8124 -0.4894
  781MOL0     N 5317   0.079   8.841   8.321 -0.5820  1.1513  0.1308
  781MOL0     C 5318   0.138   8.918   8.224 -0.0793  0.9138 -0.7807
  781MOL0     C 5319   0.261   8.958   8.275 -0.5058 -0.9238 -0.3413
  781MOL0     C 5320   0.378   9.026   8.206 -0.7942 -0.4561 -0.5281
  781MOL0     C 5321   0.359   9.182   8.195  0.1376  0.0590 -0.3298
  781MOL0     C 5322   0.491   9.268   8.183 -0.2028  0.5961 -0.0887
  781MOL0     C 5323   0.578   9.270   8.307 -0.4452  0.5552 -1.0018
  781MOL0     O 5324   0.714   9.292   8.268 -0.7437 -1.1504 -0.7271
  781MOL0     C 5325   0.812   9.288   8.364 -0.1875  0.6936  0.2515
  781MOL0     C 5326   0.930   9.366   8.328 -0.6011  0.8533 -0.4042
  781MOL0     C 5327   1.028   9.394   8.422 -0.9548  0.1522 -0.4317
  781MOL0     C 5328   1.145   9.485   8.378  1.1456 -0.5155  0.1784
  781MOL0     C 5329   1.004   9.352   8.560  0.0698  0.8343 -0.8101
  781MOL0     C 5330   1.108   9.373   8.671 -0.4541 -0.2997 -0.1615
  781MOL0     O 5331   1.088   9.305   8.786 -0.2780 -0.0062  0.6596
  781MOL0     C 5332   1.199   9.288   8.867 -0.1888 -0.5118 -0.3898
  781MOL0     C 5333   1.233   9.158   8.914 -0.2182 -0.5412  0.8311
  781MOL0     C 5334   1.357   9.129   8.976  0.2680  0.1003 -0.0386
  781MOL0     C 5335   1.447   9.232   9.004  0.9079  0.7021  0.0123
  781MOL0     O 5336   1.560   9.210   9.079  0.3891 -0.5872 -0.9809
  781MOL0     C 5337   1.549   9.104   9.179 -0.3555 -0.3687  0.6603
  781MOL0     C 5338   1.654   9.092   9.292  1.0395 -0.3430  0.3472
  781MOL0     C 5339   1.798   9.117   9.242  0.8812 -0.6040 -1.1126
  781MOL0     C 5340   1.907   9.033   9.322 -0.1412 -1.4603 -0.1324
  781MOL0     C 5341   2.037   9.036   9.253 -0.0541  0.3864  0.4405
  781MOL0     C 5342   2.153   8.989   9.342 -0.4659  0.0001 -0.3896
  781MOL0     C 5343   2.281   8.993   9.264 -0.5181 -0.2844  0.1519
  781MOL0     C 5344   2.408   8.998   9.349  0.2689 -0.1861 -0.2453
  781MOL0    Cl 5345   2.439   8.841   9.412 -0.2203  0.1209  0.0711
  781MOL0     C 5346   1.404   9.358   8.983  0.2360  0.1098  0.3083
  781MOL0     C 5347   1.290   9.389   8.907  0.0449  0.1176 -0.2184
  781MOL0     O 5348   1.198   9.452   8.654  0.1803 -1.1722  0.9510
  781MOL0     C 5349   0.890   9.272   8.592 -1.4651  0.1120 -0.7070
  781MOL0     C 5350   0.804   9.240   8.493  0.0978 -0.5312  0.0832
  781MOL0     N 5351   0.271   8.910   8.406  0.0661 -0.7486  0.1356
  781MOL0     N 5352   0.159   8.838   8.432  0.2545  0.3822 -0.2083
  781MOL0     C 5353   0.712   8.896   8.124  0.9861 -0.3898 -0.7337
  781MOL0     C 5354   0.828   8.926   8.203  0.1243  0.9069  0.4795
  781MOL0     C 5355   1.247   8.903   8.400 -0.4289  0.4205  0.5723
  781MOL0     C 5356   1.377   8.851   8.407  0.0440 -0.8366  0.8695
  781MOL0     C 5357   1.481   8.899   8.476  0.2917  0.2808 -0.3312
  781MOL0     C 5358   1.462   9.017   8.551 -0.0641  1.0490  0.3572
  781MOL0     O 5359   1.569   9.079   8.619  0.3081  0.3509 -0.3918
  781MOL0     C 5360   1.684   9.121   8.538  0.4101  0.0758  0.5471
  781MOL0     C 5361   1.647   9.240   8.439 -0.4477  0.4214  0.2381
  781MOL0     C 5362   1.622   9.364   8.523 -0.0364 -0.7736 -0.4220
  781MOL0     C 5363   1.570   9.475   8.433 -0.5091 -0.9371  1.1237
  781MOL0     C 5364   1.558   9.600   8.503 -0.8004 -0.0657  0.7137
  781MOL0     C 5365   1.528   9.704   8.552 -0.3368 -0.6888  0.3752
  781MOL0     C 5366   1.333   9.075   8.548  0.4591  0.2394 -0.0532
  781MOL0     C 5367   1.229   9.030   8.464  1.0360 -0.5339  0.5907
  781MOL0     H 5368   1.007   8.641   8.145 -2.5988 -2.7686 -1.9438
  781MOL0     H 5369   0.829   8.584   8.030  0.5949 -0.0436  0.8670
  781MOL0     H 5370   0.643   8.627   7.840 -2.2452  1.6621 -1.2448
  781MOL0     H 5371   0.599   8.539   7.993  0.2244  0.4125 -0.2221
  781MOL0     H 5372   0.403   8.666   7.789  1.1080  0.8774  0.9990
  781MOL0     H 5373   0.419   8.496   7.837 -4.7422 -0.1305  0.4918
  781MOL0     H 5374   0.360   8.569   8.077 -1.8499 -1.3450  0.0219
  781MOL0     H 5375   0.323   8.724   8.020 -2.8158 -0.4866  2.2376
  781MOL0     H 5376   0.160   8.594   7.857  0.6713  3.6759  0.6785
  781MOL0     H 5377   0.203   8.454   7.954 -1.7305  0.9349 -0.4117
  781MOL0     H 5378   0.044   8.699   8.040 -2.9665 -0.2295  0.2176
  781MOL0     H 5379  -0.008   8.531   8.031 -0.2139  0.6563 -0.0138
  781MOL0     H 5380   0.118   8.457   8.224 -0.2281 -0.9235  1.3634
  781MOL0     H 5381   0.196   8.625   8.230  0.1678  2.5007 -2.6324
  781MOL0     H 5382  -0.096   8.555   8.277  0.8230  0.0561 -0.2002
  781MOL0     H 5383   0.018   8.597   8.405  1.3484  3.0090  0.5730
  781MOL0     H 5384  -0.096   8.790   8.395  0.8752  0.0829 -0.5120
  781MOL0     H 5385  -0.080   8.785   8.207  2.6267 -1.9955 -1.7131
  781MOL0     H 5386   0.099   8.936   8.124 -2.9805  1.4494  0.3367
  781MOL0     H 5387   0.466   9.004   8.268 -0.6937 -2.7887 -1.4243
  781MOL0     H 5388   0.396   8.974   8.112 -0.3678 -0.7101 -0.3073
  781MOL0     H 5389   0.309   9.211   8.289 -0.8830 -2.7884  0.0924
  781MOL0     H 5390   0.293   9.197   8.110  1.0349 -2.7177 -1.6310
  781MOL0     H 5391   0.456   9.368   8.156 -1.1790 -0.1067 -1.5228
  781MOL0     H 5392   0.548   9.226   8.100  0.0945 -0.2074  0.5105
  781MOL0     H 5393   0.581   9.167   8.342  4.8675  1.6100  2.8481
  781MOL0     H 5394   0.537   9.324   8.393  0.8944  0.7146 -0.4478
  781MOL0     H 5395   0.925   9.407   8.228 -2.8127 -0.6968 -1.0208
  781MOL0     H 5396   1.241   9.433   8.386  1.2513 -0.1453  1.5467
  781MOL0     H 5397   1.130   9.507   8.272  2.1126 -3.3754 -0.6342
  781MOL0     H 5398   1.149   9.580   8.432 -0.0628 -2.0704  3.2265
  781MOL0     H 5399   1.161   9.083   8.884 -2.4075  2.0289 -0.8561
  781MOL0     H 5400   1.385   9.027   9.003 -2.8301 -1.1055 -0.8767
  781MOL0     H 5401   1.451   9.110   9.228 -0.9802  0.6391 -0.6548
  781MOL0     H 5402   1.550   9.004   9.134  2.2201 -0.6588  1.2028
  781MOL0     H 5403   1.639   9.157   9.379  1.4198  0.4067 -0.1458
  781MOL0     H 5404   1.640   8.989   9.327 -1.0385  0.3637  1.8599
  781MOL0     H 5405   1.822   9.223   9.250 -0.2015 -0.4785  4.1658
  781MOL0     H 5406   1.811   9.099   9.135  1.8255 -2.1288 -0.7753
  781MOL0     H 5407   1.916   9.087   9.416 -1.5297  0.3576 -0.9928
  781MOL0     H 5408   1.875   8.930   9.342 -2.7246 -0.8776 -0.8466
  781MOL0     H 5409   2.061   9.132   9.205 -1.5257  0.3988 -0.3274
  781MOL0     H 5410   2.042   8.971   9.165 -0.5288 -0.6310  1.1434
  781MOL0     H 5411   2.153   9.066   9.420 -2.1899  0.0630 -0.4184
  781MOL0     H 5412   2.136   8.892   9.389  1.5420  0.2287  0.9333
  781MOL0     H 5413   2.278   9.090   9.214  1.5523  0.2422  0.9350
  781MOL0     H 5414   2.298   8.907   9.198 -2.7185 -2.5860  2.3508
  781MOL0     H 5415   2.394   9.058   9.439  1.0585 -4.4270  3.0168
  781MOL0     H 5416   2.495   9.037   9.295  0.5376  2.3934  1.8389
  781MOL0     H 5417   1.469   9.436   9.021  1.1631 -0.3085 -0.3844
  781MOL0     H 5418   1.262   9.492   8.888  1.3261  1.1058  2.6620
  781MOL0     H 5419   0.877   9.241   8.695  3.1747  1.0925  0.4020
  781MOL0     H 5420   0.715   9.182   8.513  1.2471 -2.3948 -0.0353
  781MOL0     H 5421   0.634   8.971   8.128 -2.0132 -3.3665  2.0533
  781MOL0     H 5422   0.831   9.021   8.255  2.4435  1.0072  0.2660
  781MOL0     H 5423   1.394   8.771   8.336 -2.9865 -0.0481 -0.9318
  781MOL0     H 5424   1.580   8.854   8.475  0.7234  1.1953 -0.2658
  781MOL0     H 5425   1.768   9.151   8.603  1.7986  1.1642 -1.6108
  781MOL0     H 5426   1.720   9.032   8.485 -0.5382 -0.4616  0.7911
  781MOL0     H 5427   1.570   9.208   8.368  1.0860 -3.0500 -0.0582
  781MOL0     H 5428   1.731   9.261   8.371  0.5287  0.8960  1.5443
  781MOL0     H 5429   1.723   9.386   8.558  2.0094 -3.1167 -4.1440
  781MOL0     H 5430   1.563   9.339   8.611 -1.5179 -1.2447 -1.4965
  781MOL0     H 5431   1.483   9.440   8.377 -0.8774 -1.0267  1.7402
  781MOL0     H 5432   1.646   9.497   8.357 -2.7502  0.9297 -0.7250
  781MOL0     H 5433   1.518   9.795   8.606 -0.2556 -2.5255  3.7562
  781MOL0     H 5434   1.321   9.169   8.601 -1.1222  0.8569 -1.4151
  781MOL0     H 5435   1.133   9.080   8.465  2.0230  1.7773 -2.6671
  782MOL0     O 5436   1.537   0.378   4.532  0.2506 -0.2068  0.0952
  782MOL0     C 5437   1.631   0.313   4.580 -0.3067  0.2135 -0.6431
  782MOL0     O 5438   1.616   0.215   4.682 -0.1177 -0.1377  0.2556
  782MOL0     C 5439   1.486   0.202   4.723  0.3007  0.1511 -0.4527
  782MOL0     C 5440   1.393   0.129   4.651 -0.3569  0.3572 -0.1428
  782MOL0     C 5441   1.260   0.108   4.709 -0.8082 -0.4338  0.0069
  782MOL0     C 5442   1.234   0.152   4.839 -0.4653 -0.1360 -0.5494
  782MOL0     O 5443   1.109   0.126   4.886 -0.2081  0.6615 -0.0405
  782MOL0     C 5444   1.091   0.138   5.030  0.0744  0.1944  0.0235
  782MOL0     C 5445   0.967   0.063   5.075 -0.5150 -0.4127 -0.1569
  782MOL0     C 5446   0.843   0.121   5.010 -0.1799 -0.1350 -0.5007
  782MOL0     C 5447   0.722   0.076   5.094  0.3889  0.8188  0.2946
  782MOL0     C 5448   0.587   0.116   5.039  0.7252  1.2999 -0.1581
  782MOL0     C 5449   0.561   0.268   5.025 -0.5588  0.0421  1.0560
  782MOL0     C 5450   0.573   0.340   5.161 -0.3167 -0.7216 -0.8343
  782MOL0     C 5451   0.471   0.293   5.271  0.1323  0.0144  0.0946
  782MOL0     N 5452   0.335   0.334   5.253  0.3744  0.1523  0.0635
  782MOL0     C 5453   0.272   0.444   5.307  0.7678  0.5704  0.5147
  782MOL0     C 5454   0.144   0.448   5.259 -0.8435  0.3733  0.2997
  782MOL0     C 5455   0.046   0.562   5.275 -0.5247  1.4629  0.3112
  782MOL0     C 5456  -0.031   0.545   5.404 -0.5307  0.6194 -0.4706
  782MOL0     C 5457  -0.129   0.664   5.414 -0.1105  0.2156  0.2713
  782MOL0     C 5458  -0.251   0.625   5.341 -0.1796  0.2925  0.7164
  782MOL0     O 5459  -0.309   0.748   5.294 -0.8108  0.1867  1.1754
  782MOL0     C 5460  -0.432   0.745   5.229  0.3896 -0.2041 -0.2509
  782MOL0     C 5461  -0.503   0.862   5.197 -0.6414  0.4011 -0.2231
  782MOL0     C 5462  -0.622   0.864   5.122  0.2348 -0.3626  0.8968
  782MOL0     C 5463  -0.656   1.003   5.082  0.0211 -0.5366 -0.9633
  782MOL0     C 5464  -0.690   0.740   5.110  1.0418 -0.3274  0.1044
  782MOL0     C 5465  -0.832   0.723   5.065 -0.6454  0.5835  0.1518
  782MOL0     O 5466  -0.882   0.596   5.093  0.3511 -0.1915  0.0945
  782MOL0     C 5467  -1.016   0.568   5.088  0.7919 -0.8214 -0.2940
  782MOL0     C 5468  -1.065   0.500   5.207 -0.0951  0.2619  0.7192
  782MOL0     C 5469  -1.196   0.461   5.211 -0.6771  0.0153  0.4698
  782MOL0     C 5470  -1.281   0.495   5.113  0.3372 -0.9276 -0.4271
  782MOL0     O 5471  -1.414   0.459   5.145 -0.8598 -0.4212 -0.0398
  782MOL0     C 5472  -1.517   0.510   5.053  0.2845 -1.1706 -0.7315
  782MOL0     C 5473  -1.656   0.456   5.077  0.8024  0.0373  0.0714
  782MOL0     C 5474  -1.766   0.482   4.968  0.1320  0.4406 -0.1600
  782MOL0     C 5475  -1.902   0.436   5.030 -0.0713 -0.1157 -0.2269
  782MOL0     C 5476  -2.020   0.477   4.944 -0.4845 -0.1346  0.3966
  782MOL0     C 5477  -2.037   0.381   4.821 -1.0630  1.2020  0.3831
  782MOL0     C 5478  -2.125   0.449   4.717  0.3070 -0.6248 -0.0339
  782MOL0     C 5479  -2.271   0.450   4.765  0.2353 -0.0931 -0.9921
  782MOL0    Cl 5480  -2.361   0.578   4.680  0.3039 -0.4656 -0.1757
  782MOL0     C 5481  -1.239   0.579   5.012  0.2849 -0.9059  0.1744
  782MOL0     C 5482  -1.101   0.612   4.997  0.1477 -0.0448  0.0950
  782MOL0     O 5483  -0.892   0.818   5.018  0.3901 -0.0285 -0.7117
  782MOL0     C 5484  -0.623   0.625   5.149  0.5745 -0.7409 -0.9016
  782MOL0     C 5485  -0.500   0.626   5.209 -0.7562  0.0344 -0.6083
  782MOL0     N 5486   0.132   0.331   5.184  0.0786 -0.6896 -0.4669
  782MOL0     N 5487   0.245   0.275   5.176 -0.1107  0.3816  0.3932
  782MOL0     C 5488   1.332   0.230   4.906  0.4011  0.6957  0.7159
  782MOL0     C 5489   1.453   0.242   4.856 -0.4181  0.2457  0.1167
  782MOL0     C 5490   1.767   0.336   4.526 -0.1795  0.2769 -0.6523
  782MOL0     C 5491   1.791   0.448   4.441  0.1908  0.2028 -0.5197
  782MOL0     C 5492   1.920   0.463   4.392 -0.1621  0.6633 -0.2840
  782MOL0     C 5493   2.025   0.379   4.431  0.6898  1.3354  0.0659
  782MOL0     O 5494   2.152   0.386   4.391 -1.5274  0.1424 -0.0119
  782MOL0     C 5495   2.219   0.512   4.362 -0.0818  0.8300 -0.2940
  782MOL0     C 5496   2.360   0.505   4.314 -0.9819 -0.3722 -0.1127
  782MOL0     C 5497   2.438   0.452   4.435  0.8422  0.2859  0.4299
  782MOL0     C 5498   2.589   0.436   4.407  0.3039 -0.3358  0.2780
  782MOL0     C 5499   2.655   0.387   4.533  0.2102  0.9371 -0.1175
  782MOL0     C 5500   2.692   0.324   4.633 -0.7611  0.5663  0.4022
  782MOL0     C 5501   1.998   0.259   4.492 -0.1072  0.3716 -1.6675
  782MOL0     C 5502   1.867   0.236   4.543  0.4889  0.0887 -0.7898
  782MOL0     H 5503   1.435   0.088   4.560  0.6284  0.2562  0.3331
  782MOL0     H 5504   1.181   0.052   4.661 -2.8577  2.1330  0.1848
  782MOL0     H 5505   1.179   0.094   5.079 -1.0570  0.3525  2.3058
  782MOL0     H 5506   1.081   0.237   5.075 -0.5843  0.0968  0.0906
  782MOL0     H 5507   0.966  -0.046   5.068 -2.3202 -0.7157  2.8355
  782MOL0     H 5508   0.955   0.090   5.181  3.1851  0.1057  0.2574
  782MOL0     H 5509   0.837   0.228   4.990  1.9354 -0.0317 -0.8594
  782MOL0     H 5510   0.833   0.073   4.913 -0.2844  0.0417 -0.5765
  782MOL0     H 5511   0.723  -0.033   5.094  3.1974  0.6643 -2.7185
  782MOL0     H 5512   0.741   0.103   5.198  3.0703  2.9519 -0.6250
  782MOL0     H 5513   0.582   0.074   4.938  2.0932 -1.1530  0.7246
  782MOL0     H 5514   0.507   0.068   5.096  1.0367 -1.3841 -1.8118
  782MOL0     H 5515   0.632   0.305   4.950  0.8451 -0.1078  2.2578
  782MOL0     H 5516   0.465   0.287   4.977 -0.3259 -1.2562  0.0451
  782MOL0     H 5517   0.671   0.341   5.208 -0.2307  4.2689 -0.6108
  782MOL0     H 5518   0.568   0.449   5.148  2.9153 -0.5055 -0.8691
  782MOL0     H 5519   0.506   0.341   5.362  1.2028  1.5399 -1.0788
  782MOL0     H 5520   0.476   0.186   5.296  0.8440  0.4538  1.9549
  782MOL0     H 5521   0.318   0.533   5.348  0.1566  1.1014  0.0622
  782MOL0     H 5522   0.104   0.654   5.270  1.9191  0.0896  1.5036
  782MOL0     H 5523  -0.025   0.555   5.192 -1.5602  1.6796  1.1509
  782MOL0     H 5524   0.032   0.553   5.494  0.7397  2.4763 -1.4575
  782MOL0     H 5525  -0.071   0.443   5.407 -0.9302  0.7888  0.3681
  782MOL0     H 5526  -0.090   0.751   5.360 -0.0094  0.4014  0.6447
  782MOL0     H 5527  -0.161   0.687   5.516 -0.2996  0.9391  0.0551
  782MOL0     H 5528  -0.324   0.581   5.409 -1.2383 -2.5485 -1.9620
  782MOL0     H 5529  -0.233   0.550   5.263 -1.4081  0.4055  0.3022
  782MOL0     H 5530  -0.466   0.958   5.231  0.5198  0.1894 -0.8406
  782MOL0     H 5531  -0.692   1.063   5.166  1.0398 -3.2784  1.6507
  782MOL0     H 5532  -0.566   1.059   5.054 -1.2709  2.1267 -0.1066
  782MOL0     H 5533  -0.735   1.004   5.007 -1.0367  1.0236  0.1057
  782MOL0     H 5534  -0.983   0.497   5.278  2.3374  2.9825 -1.6549
  782MOL0     H 5535  -1.222   0.410   5.304  1.8253  1.1023  1.8826
  782MOL0     H 5536  -1.525   0.617   5.074 -1.3519 -1.5772  0.9899
  782MOL0     H 5537  -1.492   0.494   4.947 -1.7578 -1.0980 -1.2591
  782MOL0     H 5538  -1.657   0.347   5.088  1.7085  0.1984  2.1269
  782MOL0     H 5539  -1.681   0.483   5.180  4.5461 -2.0571  1.7284
  782MOL0     H 5540  -1.740   0.419   4.882 -0.9714 -0.1203 -0.1059
  782MOL0     H 5541  -1.765   0.587   4.936 -1.2692  1.3464  2.4982
  782MOL0     H 5542  -1.896   0.330   5.059  2.5226  0.1581  0.4818
  782MOL0     H 5543  -1.908   0.494   5.123 -0.7757 -0.5648  0.0169
  782MOL0     H 5544  -1.996   0.568   4.888  1.1852 -1.2120 -0.7115
  782MOL0     H 5545  -2.107   0.493   5.008  1.5253  2.8324  2.7155
  782MOL0     H 5546  -1.938   0.363   4.777 -1.9594 -1.0376 -0.8985
  782MOL0     H 5547  -2.081   0.287   4.854  1.3145  0.8819  3.0679
  782MOL0     H 5548  -2.121   0.385   4.628 -0.2326  1.4831 -1.6830
  782MOL0     H 5549  -2.102   0.548   4.675 -1.7757 -0.2492 -0.4079
  782MOL0     H 5550  -2.281   0.461   4.873  2.8824  3.2044 -0.9324
  782MOL0     H 5551  -2.320   0.353   4.752 -0.5956 -0.0581  1.3161
  782MOL0     H 5552  -1.319   0.609   4.945 -0.0584  0.1230  1.0186
  782MOL0     H 5553  -1.090   0.677   4.911 -1.9010 -1.5842 -1.4456
  782MOL0     H 5554  -0.666   0.526   5.150  0.5352 -0.7962 -3.2779
  782MOL0     H 5555  -0.458   0.536   5.253  1.5660  1.8337  1.1696
  782MOL0     H 5556   1.308   0.270   5.004 -1.3819  2.2197 -0.2910
  782MOL0     H 5557   1.525   0.284   4.926 -2.2185  3.8246 -0.0013
  782MOL0     H 5558   1.716   0.525   4.427 -0.6278 -0.1588  1.4711
  782MOL0     H 5559   1.943   0.548   4.328 -0.6374  1.1928  0.2355
  782MOL0     H 5560   2.160   0.547   4.277 -3.8629 -0.6100  1.5107
  782MOL0     H 5561   2.206   0.583   4.444 -1.1649  0.8953 -0.5138
  782MOL0     H 5562   2.389   0.604   4.278  0.0504 -1.2076 -1.7131
  782MOL0     H 5563   2.359   0.439   4.226 -3.2809  1.9008 -1.9709
  782MOL0     H 5564   2.407   0.352   4.466 -0.2286  0.9493  1.6033
  782MOL0     H 5565   2.412   0.522   4.515 -0.2345  0.8263 -0.3651
  782MOL0     H 5566   2.629   0.535   4.385 -1.8969  0.0384 -2.7737
  782MOL0     H 5567   2.606   0.365   4.325  0.3046 -3.6990  2.9543
  782MOL0     H 5568   2.713   0.268   4.722  0.1302 -0.5565 -0.4626
  782MOL0     H 5569   2.074   0.184   4.512  0.0837 -0.4183 -4.8374
  782MOL0     H 5570   1.848   0.152   4.609 -0.8374  0.8435 -0.1715
  783MOL0     O 5571   6.649   1.695  10.268  0.3591 -0.0579  0.7386
  783MOL0     C 5572   6.745   1.763  10.235 -0.6814 -0.3577 -0.9654
  783MOL0     O 5573   6.734   1.875  10.158  0.6380  0.1918  0.3672
  783MOL0     C 5574   6.624   1.907  10.081  0.5632 -0.2439  0.3061
  783MOL0     C 5575   6.497   1.828  10.074 -0.5293  0.6659 -0.0109
  783MOL0     C 5576   6.394   1.881  10.006  0.5706  1.6557 -0.5391
  783MOL0     C 5577   6.409   2.001   9.931  0.5928  0.9859 -0.5774
  783MOL0     O 5578   6.313   2.045   9.835  0.6482  0.5189 -0.4045
  783MOL0     C 5579   6.178   2.053   9.877  0.0919  0.9845 -0.1389
  783MOL0     C 5580   6.097   2.124   9.770 -0.4226  0.1949 -0.0717
  783MOL0     C 5581   5.947   2.075   9.794 -0.0919 -0.1271  0.4259
  783MOL0     C 5582   5.865   2.086   9.664 -0.0757 -0.3335  0.4989
  783MOL0     C 5583   5.711   2.050   9.686 -0.1159  0.7082  0.3909
  783MOL0     C 5584   5.614   2.079   9.582  0.4441  0.1188  0.2410
  783MOL0     C 5585   5.650   2.045   9.444  0.8804  0.2486  0.3330
  783MOL0     C 5586   5.566   2.117   9.334  0.1051 -0.1652  0.2623
  783MOL0     N 5587   5.418   2.100   9.348 -0.3909 -0.8176  0.1196
  783MOL0     C 5588   5.346   1.991   9.313 -0.3613 -1.1825  0.0369
  783MOL0     C 5589   5.213   2.029   9.329 -1.0280  1.3423  0.7507
  783MOL0     C 5590   5.090   1.943   9.301 -0.3173  0.0890  0.3167
  783MOL0     C 5591   4.975   2.009   9.223 -0.4964 -0.2304 -0.1899
  783MOL0     C 5592   4.861   1.922   9.164  0.1130  0.3816 -0.6829
  783MOL0     C 5593   4.758   1.902   9.282  0.5489 -0.1027  0.7426
  783MOL0     O 5594   4.664   1.806   9.240 -0.0550 -0.8955  0.7217
  783MOL0     C 5595   4.542   1.799   9.305  1.0924 -0.4179  0.0616
  783MOL0     C 5596   4.451   1.714   9.247  0.3550 -0.5068 -0.7073
  783MOL0     C 5597   4.324   1.685   9.304  0.7310  0.2116 -0.3224
  783MOL0     C 5598   4.243   1.578   9.238  0.5555  0.6795  0.1815
  783MOL0     C 5599   4.290   1.735   9.437 -0.0810  0.0670  0.7056
  783MOL0     C 5600   4.165   1.712   9.512 -0.3003  0.0918  0.4356
  783MOL0     O 5601   4.186   1.687   9.644 -0.1586 -0.0293  0.0532
  783MOL0     C 5602   4.092   1.697   9.753  0.2092 -1.2545 -0.2193
  783MOL0     C 5603   3.954   1.684   9.734 -0.1860 -0.1522  0.8998
  783MOL0     C 5604   3.869   1.709   9.845  0.4096 -0.8228 -0.6451
  783MOL0     C 5605   3.914   1.711   9.975 -0.4900 -1.2968  0.1433
  783MOL0     O 5606   3.827   1.722  10.081 -0.6842  0.2996  0.3595
  783MOL0     C 5607   3.854   1.804  10.194  0.3244 -0.3846  0.6185
  783MOL0     C 5608   3.733   1.874  10.251 -0.0871 -0.3317  0.2976
  783MOL0     C 5609   3.763   1.949  10.386 -0.4842  0.7683  0.2272
  783MOL0     C 5610   3.821   2.088  10.369 -0.4744 -0.1260 -0.1869
  783MOL0     C 5611   3.907   2.129  10.496  0.8715 -0.0833  0.2468
  783MOL0     C 5612   4.033   2.031  10.506 -0.0806  0.4720 -0.4556
  783MOL0     C 5613   4.150   2.085  10.584  0.3640  0.7173 -0.6176
  783MOL0     C 5614   4.104   2.086  10.731 -1.3503 -0.1463  0.5484
  783MOL0    Cl 5615   4.227   2.145  10.838  0.2287  0.0047  0.0393
  783MOL0     C 5616   4.059   1.725   9.993  0.8639  0.6207 -0.0443
  783MOL0     C 5617   4.137   1.722   9.884 -0.1764  0.3069 -0.3447
  783MOL0     O 5618   4.052   1.724   9.459 -0.9286 -0.7396 -0.5228
  783MOL0     C 5619   4.387   1.811   9.500 -0.2405  0.3004  0.6843
  783MOL0     C 5620   4.506   1.844   9.433  0.6535  0.0983 -0.4148
  783MOL0     N 5621   5.221   2.152   9.397  0.2164  0.1083  0.4454
  783MOL0     N 5622   5.336   2.197   9.391 -0.2958 -0.0564  0.0307
  783MOL0     C 5623   6.528   2.070   9.924 -0.3468 -0.1619  0.5986
  783MOL0     C 5624   6.627   2.018  10.003 -0.4684 -0.2571  0.5577
  783MOL0     C 5625   6.867   1.756  10.323  0.2435  0.9298  0.2003
  783MOL0     C 5626   6.978   1.826  10.285  0.5389 -0.2357  0.7607
  783MOL0     C 5627   7.082   1.837  10.381  0.0959 -0.4882 -0.1461
  783MOL0     C 5628   7.083   1.759  10.493  0.4024 -0.0462 -0.7520
  783MOL0     O 5629   7.195   1.753  10.577 -0.1025  0.1363  0.2709
  783MOL0     C 5630   7.322   1.771  10.511 -0.4823 -0.4951 -0.2947
  783MOL0     C 5631   7.377   1.916  10.519 -0.1991  0.1295 -0.0794
  783MOL0     C 5632   7.531   1.902  10.465 -0.1495 -0.8021  0.5436
  783MOL0     C 5633   7.595   2.025  10.411 -0.7142  0.5280 -0.3275
  783MOL0     C 5634   7.517   2.093  10.308  0.9655 -0.3132 -0.3219
  783MOL0     C 5635   7.440   2.155  10.233  0.1942  0.7999  0.5703
  783MOL0     C 5636   6.969   1.677  10.527 -0.7538  0.0880 -0.0603
  783MOL0     C 5637   6.858   1.686  10.446  0.2653 -0.2004 -0.4671
  783MOL0     H 5638   6.462   1.749  10.140 -1.1192  0.9516  0.0274
  783MOL0     H 5639   6.304   1.822   9.993  0.0072  1.6879  2.4378
  783MOL0     H 5640   6.138   1.953   9.895  2.3692  0.4462  2.4905
  783MOL0     H 5641   6.170   2.100   9.976  2.7276 -2.5491  1.9761
  783MOL0     H 5642   6.117   2.231   9.770  1.1054 -0.0177 -2.3136
  783MOL0     H 5643   6.140   2.080   9.680 -1.5727 -1.1328 -0.0128
  783MOL0     H 5644   5.942   1.975   9.838  0.4499  0.3212  1.5367
  783MOL0     H 5645   5.908   2.143   9.870  2.1384  1.2030  0.4668
  783MOL0     H 5646   5.876   2.182   9.613 -0.3712 -0.5184  0.0769
  783MOL0     H 5647   5.914   2.012   9.600  1.7546  0.5542  0.8321
  783MOL0     H 5648   5.696   1.946   9.716 -3.2414  0.6197 -1.1398
  783MOL0     H 5649   5.672   2.112   9.768  0.0054  0.3955  0.6899
  783MOL0     H 5650   5.523   2.028   9.614  0.8000 -0.6770  0.0093
  783MOL0     H 5651   5.590   2.185   9.588  0.6638  0.1274  1.1779
  783MOL0     H 5652   5.753   2.072   9.416  0.9972  1.5924  1.9621
  783MOL0     H 5653   5.635   1.937   9.432  0.9347 -0.0748  2.7548
  783MOL0     H 5654   5.610   2.090   9.237 -1.5108 -0.1473 -0.5044
  783MOL0     H 5655   5.586   2.224   9.348  2.9964 -0.4618 -0.8538
  783MOL0     H 5656   5.384   1.895   9.281  2.4584 -0.0672 -0.3120
  783MOL0     H 5657   5.123   1.865   9.232 -2.3743 -0.3394 -0.2646
  783MOL0     H 5658   5.065   1.896   9.397 -0.9772 -0.0129  0.1067
  783MOL0     H 5659   5.003   2.070   9.137  1.0943  2.0787  1.8187
  783MOL0     H 5660   4.929   2.090   9.281  2.1558 -0.3442  2.3127
  783MOL0     H 5661   4.895   1.821   9.141  1.8143  1.0271 -1.1163
  783MOL0     H 5662   4.806   1.963   9.079 -3.6019  0.2745  1.4233
  783MOL0     H 5663   4.702   1.996   9.291  1.8978  0.9051 -0.8721
  783MOL0     H 5664   4.801   1.860   9.373  1.2423 -1.2275 -0.0808
  783MOL0     H 5665   4.475   1.670   9.150  1.4406  2.8101 -2.0714
  783MOL0     H 5666   4.138   1.597   9.260  1.1500  3.5054  1.0653
  783MOL0     H 5667   4.261   1.586   9.131 -3.3923  2.5081 -0.5246
  783MOL0     H 5668   4.267   1.482   9.286  0.8411  1.2213  1.1514
  783MOL0     H 5669   3.899   1.673   9.641 -2.8510  1.0849  2.1884
  783MOL0     H 5670   3.761   1.716   9.840  0.4190  0.9010  0.7247
  783MOL0     H 5671   3.895   1.737  10.270  3.4680  2.1238  1.3781
  783MOL0     H 5672   3.927   1.883  10.174 -0.0688  0.2290  1.5140
  783MOL0     H 5673   3.679   1.947  10.190 -2.8105 -2.7749 -0.4387
  783MOL0     H 5674   3.658   1.796  10.268 -0.9846 -0.0796 -2.0810
  783MOL0     H 5675   3.830   1.892  10.450 -0.9390  1.6348  1.5310
  783MOL0     H 5676   3.668   1.961  10.440 -0.1746  0.4969  0.8263
  783MOL0     H 5677   3.884   2.079  10.281 -0.5575 -1.2562 -0.1395
  783MOL0     H 5678   3.748   2.168  10.353  0.1183  0.1871 -1.3999
  783MOL0     H 5679   3.835   2.123  10.578  0.8103  2.8408  0.5401
  783MOL0     H 5680   3.938   2.234  10.490  2.4171 -0.5322  0.0920
  783MOL0     H 5681   4.008   1.933  10.549 -0.5143  0.4557 -0.7385
  783MOL0     H 5682   4.067   2.019  10.402  2.7943 -0.6581  0.5063
  783MOL0     H 5683   4.165   2.188  10.552 -0.0042  1.3029  1.0147
  783MOL0     H 5684   4.243   2.031  10.567  1.1959  1.8071  0.3392
  783MOL0     H 5685   4.079   1.984  10.760 -2.4696 -0.5230 -1.4848
  783MOL0     H 5686   4.014   2.147  10.743 -0.8389  0.3581  1.9774
  783MOL0     H 5687   4.105   1.728  10.092  1.6235 -0.7868 -0.3310
  783MOL0     H 5688   4.242   1.744   9.894 -0.6296  2.5736 -0.0345
  783MOL0     H 5689   4.377   1.837   9.605 -0.8428 -2.4556  1.3855
  783MOL0     H 5690   4.567   1.892   9.509  1.0050 -0.0068 -0.6260
  783MOL0     H 5691   6.533   2.169   9.880 -3.2667 -0.4410 -0.5897
  783MOL0     H 5692   6.726   2.062  10.005  0.6194 -2.3264  5.0070
  783MOL0     H 5693   6.973   1.890  10.197 -0.5896 -0.5861  0.5478
  783MOL0     H 5694   7.157   1.915  10.372 -2.1584  1.5957 -2.9045
  783MOL0     H 5695   7.394   1.708  10.565 -0.1039  0.8089  0.7540
  783MOL0     H 5696   7.319   1.740  10.406  0.0908  1.2943 -0.8693
  783MOL0     H 5697   7.374   1.955  10.621 -2.2930  0.2721 -0.1427
  783MOL0     H 5698   7.317   1.983  10.456  1.5864  0.8065 -1.1203
  783MOL0     H 5699   7.539   1.834  10.380  0.4021  2.8597 -2.5664
  783MOL0     H 5700   7.591   1.882  10.555  4.8854  1.4137 -1.9556
  783MOL0     H 5701   7.691   2.012  10.361  0.0116  3.7368  0.0166
  783MOL0     H 5702   7.605   2.097  10.492 -1.3174 -1.4325  1.5918
  783MOL0     H 5703   7.366   2.217  10.187 -0.9580 -1.4339 -0.7517
  783MOL0     H 5704   6.966   1.619  10.619 -0.2201 -1.7565 -1.1397
  783MOL0     H 5705   6.776   1.628  10.488 -0.4081 -0.0294 -1.5168
  784MOL0     O 5706  11.163   7.288   2.807 -1.0459 -0.1879  0.7677
  784MOL0     C 5707  11.217   7.330   2.705  0.1353 -0.4504 -0.5885
  784MOL0     O 5708  11.349   7.340   2.685 -0.5081 -0.0540  0.1523
  784MOL0     C 5709  11.424   7.272   2.772 -0.0264 -0.2996 -0.0931
  784MOL0     C 5710  11.532   7.332   2.841  0.1803 -0.4415  0.2329
  784MOL0     C 5711  11.618   7.257   2.923  0.4001 -0.4252 -0.4590
  784MOL0     C 5712  11.598   7.124   2.944 -0.4182  0.0569 -0.5856
  784MOL0     O 5713  11.670   7.052   3.032 -0.4123 -0.1344 -0.0143
  784MOL0     C 5714  11.802   7.090   3.065  0.1897 -0.7943 -0.2024
  784MOL0     C 5715  11.859   6.983   3.148 -0.1350  0.1598  0.3765
  784MOL0     C 5716  12.005   7.000   3.188 -0.7063 -0.1389 -0.0565
  784MOL0     C 5717  12.050   6.879   3.268 -0.9045 -0.7013 -0.5720
  784MOL0     C 5718  12.189   6.900   3.332 -0.7685 -0.2235 -1.1345
  784MOL0     C 5719  12.253   6.776   3.389 -0.6420  0.6718 -0.2203
  784MOL0     C 5720  12.363   6.806   3.486  0.1037  0.2142 -0.3228
  784MOL0     C 5721  12.433   6.680   3.530  0.0688 -0.2972  0.0615
  784MOL0     N 5722  12.508   6.701   3.660  0.6738 -0.4450  0.0284
  784MOL0     C 5723  12.641   6.659   3.680  0.0150 -0.4097  0.2292
  784MOL0     C 5724  12.672   6.687   3.810 -0.2387  0.8194 -0.1853
  784MOL0     C 5725  12.812   6.662   3.865  0.4837 -0.1774  0.1519
  784MOL0     C 5726  12.835   6.523   3.931  0.8564 -0.4310 -0.0361
  784MOL0     C 5727  12.759   6.399   3.860  0.1232 -0.2709  0.5288
  784MOL0     C 5728  12.747   6.287   3.966  0.2298 -0.7205  0.5807
  784MOL0     O 5729  12.678   6.172   3.909 -0.3912  0.0419  0.2181
  784MOL0     C 5730  12.695   6.064   3.998  0.6054  0.1964 -0.8280
  784MOL0     C 5731  12.666   5.943   3.940 -0.4271 -0.4835  0.6188
  784MOL0     C 5732  12.683   5.820   4.004  0.3475  0.6744  0.6767
  784MOL0     C 5733  12.647   5.693   3.935  1.2641  1.5918  0.2630
  784MOL0     C 5734  12.741   5.821   4.133 -0.6692  0.1564 -0.3274
  784MOL0     C 5735  12.780   5.699   4.222 -0.6482  0.6745 -0.3458
  784MOL0     O 5736  12.909   5.691   4.259  0.1445  0.4011  0.2519
  784MOL0     C 5737  12.962   5.567   4.308 -0.8686 -0.6941  0.7239
  784MOL0     C 5738  13.092   5.548   4.271  1.2748  0.5799  0.6055
  784MOL0     C 5739  13.153   5.432   4.305 -0.3316  0.9362  0.5914
  784MOL0     C 5740  13.093   5.331   4.382  0.3187  0.4285 -0.0698
  784MOL0     O 5741  13.154   5.213   4.413 -0.1273 -0.3400 -0.6387
  784MOL0     C 5742  13.200   5.132   4.307  0.4703  0.3683  1.1501
  784MOL0     C 5743  13.286   5.018   4.357 -1.0844 -0.1278 -0.4011
  784MOL0     C 5744  13.216   4.924   4.452  1.0778 -0.1635 -0.9732
  784MOL0     C 5745  13.188   4.971   4.598 -0.0747 -0.7862 -0.7091
  784MOL0     C 5746  13.085   4.897   4.670  0.5337  1.1626  0.2290
  784MOL0     C 5747  12.936   4.907   4.613 -0.5774 -0.3715  0.4535
  784MOL0     C 5748  12.834   4.832   4.703  0.6732 -0.7227  0.4590
  784MOL0     C 5749  12.840   4.682   4.679 -0.2774  0.0287 -0.7981
  784MOL0    Cl 5750  12.730   4.602   4.793 -0.0857  0.0731 -0.1880
  784MOL0     C 5751  12.960   5.360   4.427  0.2365 -0.3900 -0.5782
  784MOL0     C 5752  12.895   5.478   4.393 -0.2583  0.4346 -0.2051
  784MOL0     O 5753  12.691   5.615   4.249  0.0536 -0.3663  0.0596
  784MOL0     C 5754  12.782   5.944   4.188 -1.0968 -0.8312  0.2281
  784MOL0     C 5755  12.749   6.063   4.128 -0.3928 -0.5893 -0.3112
  784MOL0     N 5756  12.554   6.734   3.869  0.0711 -0.4669 -0.1733
  784MOL0     N 5757  12.454   6.728   3.783 -0.1809  0.1937 -0.3058
  784MOL0     C 5758  11.489   7.064   2.887 -0.6276  0.3442 -0.7468
  784MOL0     C 5759  11.411   7.137   2.795  0.1497 -0.3421 -0.4415
  784MOL0     C 5760  11.126   7.358   2.594 -1.0693 -0.3465  1.6353
  784MOL0     C 5761  11.191   7.398   2.474  0.7699  0.1895  0.8540
  784MOL0     C 5762  11.111   7.405   2.361  0.9637  0.7374 -0.1803
  784MOL0     C 5763  10.970   7.376   2.362 -1.0770  0.0174  0.0466
  784MOL0     O 5764  10.892   7.384   2.254 -0.3965  0.7808 -0.7481
  784MOL0     C 5765  10.957   7.391   2.129  0.2766  0.7418 -0.4608
  784MOL0     C 5766  10.873   7.341   2.013  0.2838  0.4150  0.1576
  784MOL0     C 5767  10.841   7.195   2.012 -0.2390  0.8641  0.7104
  784MOL0     C 5768  10.718   7.145   1.915  0.4220  0.2614 -0.1083
  784MOL0     C 5769  10.702   7.224   1.791  1.1973  0.2994  0.2749
  784MOL0     C 5770  10.689   7.275   1.688  0.4642  0.0113  0.0831
  784MOL0     C 5771  10.913   7.338   2.484 -0.2106  0.1220  0.4504
  784MOL0     C 5772  10.993   7.330   2.595  0.4101  1.1877 -1.0109
  784MOL0     H 5773  11.560   7.436   2.834  1.9344 -0.9485 -0.9830
  784MOL0     H 5774  11.693   7.310   2.983 -0.1984  0.1573 -0.2119
  784MOL0     H 5775  11.868   7.095   2.978  0.7013  0.4240  0.2431
  784MOL0     H 5776  11.799   7.182   3.123 -0.5138  0.5490 -2.2762
  784MOL0     H 5777  11.804   6.987   3.242  0.2700  0.0549  0.6172
  784MOL0     H 5778  11.842   6.887   3.098 -0.0275  1.5881 -2.6177
  784MOL0     H 5779  12.074   7.006   3.103 -0.5770 -1.8658 -0.1089
  784MOL0     H 5780  12.017   7.089   3.250  1.1101 -0.9613  0.8364
  784MOL0     H 5781  11.973   6.867   3.346  0.4864  0.3823  1.0257
  784MOL0     H 5782  12.058   6.790   3.205 -0.8982 -1.0332 -0.1138
  784MOL0     H 5783  12.247   6.939   3.248 -0.0767  1.5374  0.0826
  784MOL0     H 5784  12.171   6.977   3.408 -0.6382 -1.3663  0.0909
  784MOL0     H 5785  12.175   6.730   3.450 -0.3329  1.7589  1.0402
  784MOL0     H 5786  12.284   6.700   3.317  0.0821  0.4688  0.2968
  784MOL0     H 5787  12.440   6.867   3.437  1.0824 -1.2549 -0.7150
  784MOL0     H 5788  12.316   6.861   3.567 -1.5071 -0.1108 -0.9907
  784MOL0     H 5789  12.499   6.648   3.449  0.8362  1.6962 -0.1514
  784MOL0     H 5790  12.360   6.601   3.549 -1.6525  0.8829 -1.3605
  784MOL0     H 5791  12.703   6.620   3.600 -0.4672  2.4778 -1.6893
  784MOL0     H 5792  12.889   6.676   3.789  1.4381 -2.4474  0.6267
  784MOL0     H 5793  12.815   6.745   3.937 -2.1627  0.5560 -0.4703
  784MOL0     H 5794  12.781   6.533   4.025 -2.4342 -0.4223 -1.7552
  784MOL0     H 5795  12.941   6.507   3.953  0.3998 -0.7703  2.1140
  784MOL0     H 5796  12.821   6.365   3.776  1.7510  0.6706  1.2960
  784MOL0     H 5797  12.658   6.426   3.829  0.2927  0.7200  0.8141
  784MOL0     H 5798  12.688   6.337   4.043 -1.4442 -0.5665 -0.7329
  784MOL0     H 5799  12.848   6.264   4.001  0.1613 -2.3739 -0.2150
  784MOL0     H 5800  12.628   5.953   3.839  0.5665  2.1552  0.4301
  784MOL0     H 5801  12.567   5.703   3.861  2.0826 -0.1920 -0.9338
  784MOL0     H 5802  12.733   5.652   3.882 -1.1221 -2.0121 -1.2367
  784MOL0     H 5803  12.617   5.616   4.007 -1.2794  2.1454 -0.1068
  784MOL0     H 5804  13.151   5.623   4.218  2.6266  1.2907  2.9342
  784MOL0     H 5805  13.256   5.416   4.275 -0.5523 -0.1131  0.3692
  784MOL0     H 5806  13.121   5.088   4.246  0.9734  2.2038 -0.9516
  784MOL0     H 5807  13.253   5.195   4.235 -2.2508 -0.6426 -2.0015
  784MOL0     H 5808  13.329   4.959   4.275  1.4847  0.0910  0.6929
  784MOL0     H 5809  13.371   5.050   4.417  0.4959 -0.9560 -2.0817
  784MOL0     H 5810  13.257   4.823   4.451 -1.3196 -1.2200 -2.4670
  784MOL0     H 5811  13.112   4.912   4.419 -0.0404 -2.6891  2.9237
  784MOL0     H 5812  13.285   4.972   4.649  2.1686  1.9155 -4.5392
  784MOL0     H 5813  13.144   5.071   4.597 -1.6595 -1.3993  1.3967
  784MOL0     H 5814  13.082   4.937   4.772  1.4778 -1.1038  1.2079
  784MOL0     H 5815  13.113   4.792   4.668 -0.7621  0.7223 -3.8359
  784MOL0     H 5816  12.921   5.014   4.602 -1.6365 -0.5483  0.0192
  784MOL0     H 5817  12.936   4.866   4.512 -1.3475  0.5474  0.0715
  784MOL0     H 5818  12.732   4.865   4.682  0.2443 -1.7765  0.7835
  784MOL0     H 5819  12.845   4.851   4.810 -0.8318 -1.1536  0.7119
  784MOL0     H 5820  12.944   4.650   4.692 -1.2525 -2.1096  3.8954
  784MOL0     H 5821  12.814   4.654   4.577  1.0353  1.7169 -1.6632
  784MOL0     H 5822  12.898   5.289   4.481  2.0287 -2.2972 -0.8980
  784MOL0     H 5823  12.793   5.484   4.430 -0.0018  0.4122  0.5152
  784MOL0     H 5824  12.844   5.943   4.277 -0.0454 -1.6449 -0.4826
  784MOL0     H 5825  12.755   6.156   4.184  0.1595 -0.2398 -0.9413
  784MOL0     H 5826  11.468   6.962   2.916  0.9869  1.0321  3.6132
  784MOL0     H 5827  11.340   7.082   2.735  0.9503  0.0710 -1.8168
  784MOL0     H 5828  11.298   7.398   2.456  0.7246  0.8725  0.5559
  784MOL0     H 5829  11.162   7.418   2.266  1.8187  0.9484  0.2953
  784MOL0     H 5830  10.997   7.492   2.116  1.1008  0.3120 -1.3429
  784MOL0     H 5831  11.034   7.314   2.131  2.6158  2.9691 -0.9057
  784MOL0     H 5832  10.920   7.351   1.915  0.0929 -3.2656 -0.4369
  784MOL0     H 5833  10.779   7.395   2.023  0.2916  0.1248  2.1252
  784MOL0     H 5834  10.811   7.177   2.115  0.6645  1.6814  1.1360
  784MOL0     H 5835  10.930   7.134   1.998 -0.5171  0.9232 -1.9190
  784MOL0     H 5836  10.621   7.142   1.967 -0.2558  0.2097 -1.3368
  784MOL0     H 5837  10.741   7.043   1.882  1.0441  0.4156 -0.1602
  784MOL0     H 5838  10.688   7.313   1.588 -0.4769  0.5115  0.2670
  784MOL0     H 5839  10.808   7.313   2.482 -0.0710 -0.4564 -0.2877
  784MOL0     H 5840  10.941   7.294   2.683  0.4774 -0.7976 -1.7252
  785MOL0     O 5841   3.104   3.349   0.080 -0.5936 -0.0810  0.5541
  785MOL0     C 5842   3.170   3.297  -0.009  0.3902  0.5690  0.1244
  785MOL0     O 5843   3.119   3.241  -0.122 -0.3252 -0.1375  0.2889
  785MOL0     C 5844   2.987   3.246  -0.139 -0.1291 -0.1819 -0.0612
  785MOL0     C 5845   2.931   3.327  -0.243 -0.4753  0.8299 -0.5977
  785MOL0     C 5846   2.796   3.310  -0.270  0.3842 -0.5839 -0.4502
  785MOL0     C 5847   2.712   3.234  -0.188  0.1515 -0.0170  0.2521
  785MOL0     O 5848   2.580   3.204  -0.231 -0.3889  0.7355  0.1233
  785MOL0     C 5849   2.548   3.068  -0.245  0.1593  0.3182  0.0062
  785MOL0     C 5850   2.402   3.044  -0.198 -0.6759 -0.0891 -0.4967
  785MOL0     C 5851   2.318   3.139  -0.275  0.2004 -0.6011 -0.5917
  785MOL0     C 5852   2.178   3.080  -0.305 -0.1241  0.1984  0.2241
  785MOL0     C 5853   2.097   3.178  -0.384 -0.2426 -0.4514 -0.2844
  785MOL0     C 5854   2.073   3.315  -0.315 -0.0071  0.1479  0.6707
  785MOL0     C 5855   1.965   3.394  -0.393 -0.0190 -0.3427 -0.2154
  785MOL0     C 5856   1.958   3.525  -0.312 -0.7348  0.7888  0.4335
  785MOL0     N 5857   1.861   3.621  -0.367  0.1521  0.0182 -0.1815
  785MOL0     C 5858   1.726   3.616  -0.333  0.0490  0.2008  0.4416
  785MOL0     C 5859   1.671   3.730  -0.375  1.6918 -0.1787  0.4477
  785MOL0     C 5860   1.526   3.763  -0.395 -0.1601 -0.3494 -0.1435
  785MOL0     C 5861   1.479   3.696  -0.523 -0.6342  0.3961  0.2622
  785MOL0     C 5862   1.572   3.720  -0.644 -0.6819 -0.8538  0.7768
  785MOL0     C 5863   1.505   3.685  -0.774 -0.5052  0.1749  0.1179
  785MOL0     O 5864   1.593   3.662  -0.881  0.6361 -0.2121 -0.2718
  785MOL0     C 5865   1.546   3.629  -1.001 -0.7986 -0.3124  0.8128
  785MOL0     C 5866   1.412   3.631  -1.042  0.1564 -0.8645 -0.3597
  785MOL0     C 5867   1.368   3.605  -1.168  0.4337 -0.3541 -0.0701
  785MOL0     C 5868   1.220   3.625  -1.201 -0.3983 -0.4072  0.5979
  785MOL0     C 5869   1.471   3.562  -1.259  0.1298 -0.4240  0.6062
  785MOL0     C 5870   1.452   3.502  -1.398 -0.3984  0.2562 -0.3952
  785MOL0     O 5871   1.561   3.456  -1.463 -0.0833 -0.3246 -0.5606
  785MOL0     C 5872   1.544   3.395  -1.581  0.1396 -0.5840  0.1603
  785MOL0     C 5873   1.546   3.251  -1.597  0.3711 -0.9769 -0.8655
  785MOL0     C 5874   1.489   3.195  -1.711 -0.0216 -0.6409 -0.2489
  785MOL0     C 5875   1.443   3.276  -1.815  0.5374 -0.4653 -0.2198
  785MOL0     O 5876   1.405   3.197  -1.922  0.0513 -0.3548 -0.0369
  785MOL0     C 5877   1.356   3.257  -2.046  0.3340  0.0796  0.8985
  785MOL0     C 5878   1.269   3.148  -2.107 -0.4409  0.2647  1.5481
  785MOL0     C 5879   1.163   3.083  -2.014 -0.0999  0.0799 -0.0396
  785MOL0     C 5880   1.079   2.971  -2.080 -1.0349 -0.6099  0.3423
  785MOL0     C 5881   0.971   2.925  -1.989 -0.2809 -0.8468  0.3000
  785MOL0     C 5882   0.997   2.827  -1.873  0.2550 -0.0198  0.2495
  785MOL0     C 5883   0.865   2.783  -1.812  0.2085  0.5149 -0.5504
  785MOL0     C 5884   0.885   2.675  -1.713 -0.4778  0.0119 -1.3749
  785MOL0    Cl 5885   0.991   2.540  -1.744 -0.2283 -0.3165  0.0687
  785MOL0     C 5886   1.458   3.417  -1.805  0.2611  0.4600  0.5701
  785MOL0     C 5887   1.501   3.474  -1.690  0.4206  0.0403  0.1811
  785MOL0     O 5888   1.341   3.523  -1.449 -0.2633  0.7296 -0.3784
  785MOL0     C 5889   1.608   3.569  -1.219  0.6591  0.0477 -0.8738
  785MOL0     C 5890   1.642   3.614  -1.092  0.8492 -0.3737  0.9887
  785MOL0     N 5891   1.775   3.807  -0.427  0.8377 -1.0241  0.6897
  785MOL0     N 5892   1.884   3.749  -0.412  0.5201  0.5302  0.2598
  785MOL0     C 5893   2.762   3.174  -0.075  0.3833 -0.6021  0.2910
  785MOL0     C 5894   2.902   3.176  -0.057  0.0162  0.4187 -0.0461
  785MOL0     C 5895   3.318   3.305   0.003  0.1139  0.3524  0.7603
  785MOL0     C 5896   3.387   3.318   0.127  0.1658 -0.5005 -0.4450
  785MOL0     C 5897   3.530   3.305   0.147  0.5009 -0.3787  0.9919
  785MOL0     C 5898   3.609   3.299   0.036 -0.2524  0.0213  0.0240
  785MOL0     O 5899   3.741   3.317   0.047 -0.5099 -0.2974 -0.4653
  785MOL0     C 5900   3.817   3.292  -0.063 -0.3121  0.0364  0.1182
  785MOL0     C 5901   3.968   3.330  -0.035 -0.3682  0.4060  0.2465
  785MOL0     C 5902   4.025   3.296   0.109 -0.0522 -0.0492 -0.0863
  785MOL0     C 5903   4.175   3.316   0.117 -1.2064  0.8431 -0.6257
  785MOL0     C 5904   4.235   3.189   0.084  0.2855  0.3644 -0.9359
  785MOL0     C 5905   4.278   3.094   0.037 -0.3858  0.3806  0.4604
  785MOL0     C 5906   3.545   3.288  -0.088  0.4235 -0.4898  0.4162
  785MOL0     C 5907   3.402   3.287  -0.109 -0.6304 -0.2373  0.2618
  785MOL0     H 5908   2.989   3.385  -0.314  0.2016 -2.1603 -2.7085
  785MOL0     H 5909   2.760   3.373  -0.351 -1.7343  2.0701  2.3535
  785MOL0     H 5910   2.575   3.037  -0.347  0.4594 -0.2910  0.2673
  785MOL0     H 5911   2.619   3.007  -0.187  2.0092  4.3231  2.3925
  785MOL0     H 5912   2.381   2.943  -0.235 -0.6929  0.0382 -0.8439
  785MOL0     H 5913   2.395   3.060  -0.090 -1.0343  2.6070 -0.8519
  785MOL0     H 5914   2.301   3.225  -0.210 -1.0874 -1.7891  0.7240
  785MOL0     H 5915   2.352   3.164  -0.376 -2.3013  1.6284 -0.9715
  785MOL0     H 5916   2.193   2.998  -0.376 -2.3147  1.1144 -1.4192
  785MOL0     H 5917   2.115   3.047  -0.222  2.2959  2.2474  3.0962
  785MOL0     H 5918   2.162   3.189  -0.471 -0.8114 -0.7028 -0.7448
  785MOL0     H 5919   2.006   3.129  -0.419  0.5819 -1.7245 -0.7055
  785MOL0     H 5920   2.047   3.306  -0.209 -0.0139  0.5355  0.7054
  785MOL0     H 5921   2.169   3.369  -0.311  1.5565 -2.0487 -2.7027
  785MOL0     H 5922   1.991   3.407  -0.499  3.3585 -2.8451  0.1262
  785MOL0     H 5923   1.864   3.353  -0.382  0.5445 -1.3168  1.6772
  785MOL0     H 5924   2.055   3.573  -0.302  0.1577 -1.2126  2.0534
  785MOL0     H 5925   1.914   3.505  -0.214 -1.8840  2.0482  0.1981
  785MOL0     H 5926   1.682   3.528  -0.287  0.4441  1.5518  3.6485
  785MOL0     H 5927   1.466   3.721  -0.314 -1.3095 -0.5614 -1.0745
  785MOL0     H 5928   1.510   3.871  -0.400  0.8962 -0.1909 -0.3240
  785MOL0     H 5929   1.377   3.729  -0.543 -0.3650  1.8669  1.1659
  785MOL0     H 5930   1.477   3.591  -0.493 -0.2012 -0.0826 -1.2449
  785MOL0     H 5931   1.647   3.641  -0.637  0.8157  0.1896 -1.9456
  785MOL0     H 5932   1.627   3.815  -0.648 -1.4363 -0.4331 -1.3459
  785MOL0     H 5933   1.448   3.772  -0.810  0.6651  2.1368  2.6877
  785MOL0     H 5934   1.437   3.599  -0.771  0.3534 -0.4976  1.0615
  785MOL0     H 5935   1.339   3.663  -0.969  0.4487 -0.1934 -0.3498
  785MOL0     H 5936   1.163   3.673  -1.121 -0.8669 -0.8231  0.5228
  785MOL0     H 5937   1.205   3.673  -1.299  4.5491 -2.8445 -1.7222
  785MOL0     H 5938   1.196   3.519  -1.217  0.9852 -1.1076  2.7035
  785MOL0     H 5939   1.572   3.190  -1.511 -0.6995  2.5334  2.1811
  785MOL0     H 5940   1.485   3.087  -1.719  1.9487 -0.9773  2.0953
  785MOL0     H 5941   1.294   3.344  -2.024  0.0892 -0.3262  1.8794
  785MOL0     H 5942   1.436   3.292  -2.111 -2.6104  2.5136 -1.7638
  785MOL0     H 5943   1.213   3.184  -2.194  0.8671 -1.7910 -0.2415
  785MOL0     H 5944   1.341   3.072  -2.138  0.7737  2.2984 -1.1364
  785MOL0     H 5945   1.102   3.165  -1.976  1.1507 -0.2738  2.9513
  785MOL0     H 5946   1.211   3.041  -1.926 -0.8282 -0.7246 -0.0126
  785MOL0     H 5947   1.040   3.009  -2.175 -0.5891  1.1057  0.8066
  785MOL0     H 5948   1.142   2.883  -2.097 -0.0623 -0.5177  2.9400
  785MOL0     H 5949   0.894   2.888  -2.058 -0.4383  0.9257 -0.5402
  785MOL0     H 5950   0.929   3.015  -1.942 -3.4324 -1.4313 -1.0948
  785MOL0     H 5951   1.048   2.740  -1.915  2.9295 -0.0969  3.2695
  785MOL0     H 5952   1.064   2.876  -1.803 -0.2232 -0.4529  1.0295
  785MOL0     H 5953   0.795   2.739  -1.884  0.5853 -0.8447 -0.1101
  785MOL0     H 5954   0.819   2.869  -1.763  1.8383  0.6468  0.8374
  785MOL0     H 5955   0.792   2.631  -1.675  1.6691 -0.1768  4.9203
  785MOL0     H 5956   0.924   2.720  -1.621  0.0206 -0.6529 -1.2564
  785MOL0     H 5957   1.406   3.472  -1.883 -1.1749  0.5718  1.5516
  785MOL0     H 5958   1.498   3.583  -1.684  3.4905  0.2736 -1.1552
  785MOL0     H 5959   1.686   3.542  -1.289 -2.1263 -2.3597 -3.2695
  785MOL0     H 5960   1.749   3.614  -1.075  0.5655 -2.1442  3.2351
  785MOL0     H 5961   2.698   3.132   0.002 -2.2667  0.8765 -0.9832
  785MOL0     H 5962   2.943   3.138   0.036 -1.0805 -0.2925  0.1610
  785MOL0     H 5963   3.330   3.337   0.218  0.1016 -1.6406 -0.2329
  785MOL0     H 5964   3.565   3.315   0.249 -1.5411 -1.7408  1.9021
  785MOL0     H 5965   3.812   3.186  -0.090  0.4398 -0.3597  1.4620
  785MOL0     H 5966   3.787   3.356  -0.147  0.1436  0.5441  0.3355
  785MOL0     H 5967   3.992   3.434  -0.058  0.1183  0.6272  1.6462
  785MOL0     H 5968   4.029   3.277  -0.110 -0.7788 -1.0135  0.8702
  785MOL0     H 5969   4.002   3.199   0.153 -1.5824  0.4169  0.2025
  785MOL0     H 5970   3.975   3.376   0.164  0.0206 -0.9689  1.3559
  785MOL0     H 5971   4.202   3.346   0.219 -3.1499 -1.3593  0.6278
  785MOL0     H 5972   4.208   3.386   0.039  2.1841  0.0464 -0.0866
  785MOL0     H 5973   4.316   3.004  -0.007  0.7863  1.2773 -0.4346
  785MOL0     H 5974   3.604   3.285  -0.179  0.7126 -2.3651  0.6150
  785MOL0     H 5975   3.353   3.262  -0.202  0.4118 -0.0154 -0.3725
  786MOL0     O 5976   8.170   5.067   1.835  0.4501 -0.1867 -0.1946
  786MOL0     C 5977   8.209   5.028   1.942 -0.4533  0.8479  0.5078
  786MOL0     O 5978   8.155   4.927   2.022 -0.0278 -0.4200  0.4522
  786MOL0     C 5979   8.045   4.892   1.977  1.1660  0.0004 -0.7280
  786MOL0     C 5980   7.928   4.966   2.009 -0.7699  0.3110  0.6896
  786MOL0     C 5981   7.802   4.918   1.980  0.4713 -0.2793 -0.0476
  786MOL0     C 5982   7.774   4.789   1.934  0.4343 -0.8351  0.2041
  786MOL0     O 5983   7.648   4.741   1.912  0.5900 -0.4429 -0.6350
  786MOL0     C 5984   7.564   4.766   2.034  0.1148  0.2371  0.7681
  786MOL0     C 5985   7.462   4.880   2.019 -0.9992 -0.0878 -0.1994
  786MOL0     C 5986   7.396   4.902   2.154 -0.9525 -0.2369 -0.3644
  786MOL0     C 5987   7.250   4.946   2.146  0.2169 -1.1157  0.0420
  786MOL0     C 5988   7.191   5.010   2.279  1.1807 -0.4785 -0.1949
  786MOL0     C 5989   7.268   5.141   2.315  0.5975 -0.3655 -0.1298
  786MOL0     C 5990   7.260   5.258   2.207  0.2364  0.3008 -0.2921
  786MOL0     C 5991   7.286   5.391   2.276 -0.5231 -0.2496  0.0219
  786MOL0     N 5992   7.407   5.385   2.363 -0.1416 -0.2477 -0.1517
  786MOL0     C 5993   7.529   5.366   2.309  0.6104  0.9201 -0.6389
  786MOL0     C 5994   7.613   5.380   2.413  0.3066  0.7966 -0.5029
  786MOL0     C 5995   7.769   5.379   2.418  0.1503  0.1647 -0.3777
  786MOL0     C 5996   7.834   5.249   2.362 -0.2709 -0.1272  0.2957
  786MOL0     C 5997   7.964   5.222   2.428 -0.5254  0.4138  0.3540
  786MOL0     C 5998   8.051   5.113   2.347  0.0476 -0.0669 -0.1594
  786MOL0     O 5999   8.172   5.069   2.408  0.7358 -0.6804 -0.1282
  786MOL0     C 6000   8.260   5.168   2.466  0.0681 -0.1261  0.8222
  786MOL0     C 6001   8.274   5.156   2.597  0.3688  0.1157  0.1516
  786MOL0     C 6002   8.350   5.250   2.670  0.7163  0.2169 -0.1536
  786MOL0     C 6003   8.351   5.234   2.818  0.0161  0.3431 -1.0192
  786MOL0     C 6004   8.412   5.360   2.608  0.5914  0.1574  0.5340
  786MOL0     C 6005   8.472   5.473   2.678  0.1188  0.4315 -0.0293
  786MOL0     O 6006   8.419   5.514   2.800  0.2198  0.6892 -0.3880
  786MOL0     C 6007   8.427   5.649   2.827  0.4690  1.0570  0.1017
  786MOL0     C 6008   8.547   5.735   2.827  1.1026  0.2255 -0.4392
  786MOL0     C 6009   8.533   5.865   2.868 -0.8250 -0.1289 -0.1365
  786MOL0     C 6010   8.412   5.913   2.910 -0.6181  0.1168 -0.6002
  786MOL0     O 6011   8.412   6.046   2.943 -0.2641  0.2845  0.0376
  786MOL0     C 6012   8.290   6.121   2.963  0.4579  0.7551 -0.7084
  786MOL0     C 6013   8.295   6.277   2.996 -0.0032 -0.1245  0.6549
  786MOL0     C 6014   8.385   6.347   2.888 -0.3686 -0.3510  0.8084
  786MOL0     C 6015   8.421   6.492   2.909 -0.5624  0.5723 -0.2777
  786MOL0     C 6016   8.485   6.553   2.787  1.0224 -1.1035  0.0646
  786MOL0     C 6017   8.562   6.688   2.803 -0.3920 -0.0721  0.6228
  786MOL0     C 6018   8.676   6.703   2.700 -0.5887  0.0954 -0.3573
  786MOL0     C 6019   8.740   6.839   2.730  1.0363  0.0087  0.2925
  786MOL0    Cl 6020   8.856   6.903   2.611  0.0584  0.7801 -0.2107
  786MOL0     C 6021   8.295   5.836   2.913 -0.9189  1.2291  0.9809
  786MOL0     C 6022   8.304   5.707   2.863 -0.3739  0.1763  0.6340
  786MOL0     O 6023   8.549   5.536   2.612  0.0608  0.1846  0.5749
  786MOL0     C 6024   8.400   5.362   2.470  0.3718 -0.6096 -0.1654
  786MOL0     C 6025   8.322   5.271   2.400  0.0873 -0.5164 -0.4051
  786MOL0     N 6026   7.535   5.420   2.525  0.0452 -0.7211  0.3077
  786MOL0     N 6027   7.409   5.417   2.500  0.4917 -0.0476  0.5235
  786MOL0     C 6028   7.894   4.713   1.901  0.3676 -0.6559 -0.0635
  786MOL0     C 6029   8.027   4.766   1.919  0.0248  0.0570  0.1916
  786MOL0     C 6030   8.341   5.089   1.984  0.2839  0.0732 -0.1047
  786MOL0     C 6031   8.415   5.171   1.907 -0.5877 -0.5057  0.1999
  786MOL0     C 6032   8.537   5.224   1.947  0.0828 -0.5005 -0.0229
  786MOL0     C 6033   8.574   5.197   2.077 -0.8907  0.0343  0.0491
  786MOL0     O 6034   8.704   5.239   2.111 -0.3493 -0.1081  0.2975
  786MOL0     C 6035   8.709   5.301   2.230  0.6093 -0.5617 -0.1346
  786MOL0     C 6036   8.646   5.440   2.233 -0.2626 -0.3098  0.7847
  786MOL0     C 6037   8.721   5.527   2.129 -0.3662 -0.1609 -0.5408
  786MOL0     C 6038   8.682   5.671   2.151 -0.9078  0.1476 -0.8551
  786MOL0     C 6039   8.756   5.725   2.275 -0.1675 -0.0525  0.8500
  786MOL0     C 6040   8.812   5.783   2.373  0.6178 -0.1028 -0.2855
  786MOL0     C 6041   8.501   5.117   2.159 -0.2957 -0.3252 -0.3206
  786MOL0     C 6042   8.383   5.060   2.118  0.0804  0.9612  1.4970
  786MOL0     H 6043   7.946   5.063   2.054 -5.6462  1.1338  1.3329
  786MOL0     H 6044   7.726   4.988   2.014  1.2788  0.0104  1.2616
  786MOL0     H 6045   7.506   4.674   2.043  1.2372 -0.7039 -1.0337
  786MOL0     H 6046   7.627   4.789   2.120  2.0855 -1.5978 -0.0966
  786MOL0     H 6047   7.521   4.964   1.981  1.4425 -0.2543  2.8400
  786MOL0     H 6048   7.388   4.849   1.944 -0.6926 -0.1267 -0.4886
  786MOL0     H 6049   7.402   4.814   2.219 -2.5287  0.8708  1.3908
  786MOL0     H 6050   7.457   4.979   2.204 -0.6702 -1.0314  0.5476
  786MOL0     H 6051   7.237   5.024   2.070 -0.7266  0.6658  1.9549
  786MOL0     H 6052   7.184   4.861   2.126 -2.0856  0.6409 -0.2695
  786MOL0     H 6053   7.085   5.035   2.274  1.1443 -0.1109  1.7410
  786MOL0     H 6054   7.201   4.932   2.355  0.8336 -0.8335 -0.5086
  786MOL0     H 6055   7.203   5.173   2.397 -3.8071 -1.3945 -2.8568
  786MOL0     H 6056   7.368   5.136   2.359  0.1557  3.5881  1.7970
  786MOL0     H 6057   7.336   5.241   2.130 -0.0025  1.4790 -0.8007
  786MOL0     H 6058   7.157   5.262   2.173 -0.3867  1.3628  1.5689
  786MOL0     H 6059   7.195   5.421   2.328 -0.1985  3.0834 -1.0947
  786MOL0     H 6060   7.303   5.461   2.193  1.5662 -2.9334 -2.0015
  786MOL0     H 6061   7.553   5.340   2.207  0.0153 -1.4500 -0.2444
  786MOL0     H 6062   7.810   5.463   2.361 -0.5071  1.1380  0.5269
  786MOL0     H 6063   7.793   5.408   2.521 -2.9219  4.6776 -0.6457
  786MOL0     H 6064   7.850   5.258   2.254  0.7289  2.8245  0.5841
  786MOL0     H 6065   7.761   5.169   2.377 -0.0131 -0.8378 -1.8714
  786MOL0     H 6066   7.949   5.177   2.526  1.6617 -1.9683 -0.2868
  786MOL0     H 6067   8.028   5.310   2.419  1.6764 -1.1359  0.1343
  786MOL0     H 6068   8.074   5.150   2.247 -4.1660  0.5031 -1.0798
  786MOL0     H 6069   7.982   5.031   2.329 -0.5839  0.2962  0.5513
  786MOL0     H 6070   8.226   5.080   2.658  1.1107 -1.0034 -0.6146
  786MOL0     H 6071   8.259   5.284   2.850  1.2266  1.8425  0.3034
  786MOL0     H 6072   8.364   5.129   2.846 -0.4688 -0.1746 -2.5943
  786MOL0     H 6073   8.430   5.289   2.870 -2.6950  0.6730  3.3096
  786MOL0     H 6074   8.646   5.696   2.804  1.1342  0.0822 -0.0699
  786MOL0     H 6075   8.620   5.929   2.885  0.9006 -2.5777  0.7931
  786MOL0     H 6076   8.241   6.107   2.866  0.7972  0.2130 -0.8096
  786MOL0     H 6077   8.225   6.071   3.035  0.3681 -0.1173 -1.3853
  786MOL0     H 6078   8.198   6.322   2.972  0.9499  0.5480 -2.3712
  786MOL0     H 6079   8.334   6.304   3.095 -1.5342  1.0907  0.9668
  786MOL0     H 6080   8.332   6.336   2.792 -1.0689 -1.1542  1.2762
  786MOL0     H 6081   8.477   6.293   2.862 -1.3711 -0.5211 -3.1543
  786MOL0     H 6082   8.340   6.556   2.945  0.3739  1.6628 -0.0567
  786MOL0     H 6083   8.501   6.498   2.983 -2.5939  1.2232  2.0217
  786MOL0     H 6084   8.409   6.591   2.718  0.0441 -0.2092  1.5828
  786MOL0     H 6085   8.551   6.484   2.734  0.7956 -0.9759 -0.3983
  786MOL0     H 6086   8.501   6.779   2.805 -1.3585 -0.7141  0.9224
  786MOL0     H 6087   8.615   6.693   2.898  2.3777  1.1985 -0.8503
  786MOL0     H 6088   8.651   6.696   2.594  2.2357 -0.3135 -1.0883
  786MOL0     H 6089   8.743   6.618   2.715 -1.0761 -0.8805 -3.1423
  786MOL0     H 6090   8.782   6.833   2.831 -2.8313 -2.0519  1.9936
  786MOL0     H 6091   8.664   6.917   2.730  0.2737 -0.6848  1.9583
  786MOL0     H 6092   8.198   5.875   2.940 -1.0166  0.7721  1.2851
  786MOL0     H 6093   8.222   5.636   2.863 -0.2513  0.0277  1.4699
  786MOL0     H 6094   8.446   5.440   2.409  2.5200 -3.3612 -2.3605
  786MOL0     H 6095   8.300   5.278   2.294 -2.8692  0.2566  0.1647
  786MOL0     H 6096   7.871   4.610   1.878 -3.0378  0.1843 -1.0523
  786MOL0     H 6097   8.115   4.709   1.894  0.0914 -0.1104  0.7792
  786MOL0     H 6098   8.376   5.193   1.808  1.4986 -1.0471 -0.8009
  786MOL0     H 6099   8.589   5.298   1.886  0.8681 -0.4430  0.7044
  786MOL0     H 6100   8.658   5.249   2.312  0.9191 -0.2884  0.2331
  786MOL0     H 6101   8.817   5.309   2.247  1.0779  0.6272 -3.1727
  786MOL0     H 6102   8.665   5.483   2.332  3.9449 -0.0111  0.0311
  786MOL0     H 6103   8.539   5.449   2.213 -0.5741  0.4380  2.6194
  786MOL0     H 6104   8.686   5.499   2.029 -5.0860 -0.7766  1.0249
  786MOL0     H 6105   8.828   5.508   2.138 -0.6757 -0.8556  3.4227
  786MOL0     H 6106   8.573   5.675   2.156 -0.8722 -0.3210  1.3423
  786MOL0     H 6107   8.705   5.735   2.065  0.1462  0.2160 -0.5449
  786MOL0     H 6108   8.837   5.841   2.460 -2.0143  0.9219 -0.1214
  786MOL0     H 6109   8.534   5.092   2.259 -2.4302  1.2992  0.8875
  786MOL0     H 6110   8.338   4.995   2.193 -2.7259  0.1151 -0.7565
  787MOL0     O 6111   6.956   7.268   7.455  0.1640  0.3283 -0.1162
  787MOL0     C 6112   6.918   7.177   7.383  0.6846  0.5368  0.5922
  787MOL0     O 6113   6.783   7.163   7.339  0.3559 -0.3884 -0.6480
  787MOL0     C 6114   6.681   7.250   7.369  0.0667  0.1705 -0.3472
  787MOL0     C 6115   6.619   7.331   7.279 -0.7424  0.6336  0.5281
  787MOL0     C 6116   6.513   7.414   7.324  0.1721  0.3521 -0.3088
  787MOL0     C 6117   6.485   7.433   7.458 -0.4765  0.8176  1.2300
  787MOL0     O 6118   6.377   7.512   7.479  0.5597  0.3657 -0.2258
  787MOL0     C 6119   6.372   7.583   7.603  0.0719  0.6052 -0.6923
  787MOL0     C 6120   6.338   7.737   7.568  0.2000 -0.2225  0.4867
  787MOL0     C 6121   6.436   7.800   7.467 -0.0358  0.2500  0.3648
  787MOL0     C 6122   6.425   7.954   7.474 -0.1420  0.2008 -0.1361
  787MOL0     C 6123   6.317   8.013   7.367 -0.9276  0.5026 -0.4721
  787MOL0     C 6124   6.278   8.153   7.402 -0.7169 -0.3396  0.1453
  787MOL0     C 6125   6.223   8.228   7.281 -0.3824  0.3543 -0.3815
  787MOL0     C 6126   6.233   8.375   7.304  0.4135 -0.1496  0.5939
  787MOL0     N 6127   6.200   8.449   7.178  0.0122 -0.1987  0.2713
  787MOL0     C 6128   6.281   8.520   7.095 -0.1573 -0.2672 -0.0933
  787MOL0     C 6129   6.214   8.554   6.989  0.0213  0.3846  0.1129
  787MOL0     C 6130   6.257   8.634   6.872 -0.5419  0.0899  0.1665
  787MOL0     C 6131   6.257   8.779   6.902  0.3988  0.0895 -0.3716
  787MOL0     C 6132   6.114   8.835   6.936  0.0149  0.9884 -0.0318
  787MOL0     C 6133   6.110   8.974   6.985  0.0186  0.3362  0.3150
  787MOL0     O 6134   6.133   9.068   6.882 -0.2356 -0.0114 -0.5857
  787MOL0     C 6135   6.136   9.199   6.917 -0.3444 -0.0987  0.1158
  787MOL0     C 6136   6.122   9.249   7.043 -0.8780 -0.5373 -0.3598
  787MOL0     C 6137   6.127   9.382   7.081  0.2210 -0.6121 -0.0180
  787MOL0     C 6138   6.131   9.414   7.229  0.3314  0.3268  0.5150
  787MOL0     C 6139   6.111   9.481   6.980  0.0563 -0.1790  0.6806
  787MOL0     C 6140   6.095   9.629   7.003  0.2976 -0.0678  0.1213
  787MOL0     O 6141   6.058   9.704   6.900 -1.0246  0.0257  0.2846
  787MOL0     C 6142   6.015   9.838   6.904  0.7519 -0.3110 -0.0175
  787MOL0     C 6143   5.985   9.907   7.026 -0.4156 -0.9284 -0.5251
  787MOL0     C 6144   5.951  10.042   7.026  0.7350  0.0134  0.2316
  787MOL0     C 6145   5.946  10.114   6.908  0.6291 -0.2847  0.0961
  787MOL0     O 6146   5.897  10.236   6.895 -0.3740 -0.7478 -0.0978
  787MOL0     C 6147   5.797  10.284   6.984 -0.0829 -0.1544 -0.7630
  787MOL0     C 6148   5.713  10.403   6.931  0.2520  0.6246  0.6290
  787MOL0     C 6149   5.796  10.526   6.940 -0.0571 -0.6113 -0.4215
  787MOL0     C 6150   5.712  10.655   6.910 -0.8196 -0.1543  0.1595
  787MOL0     C 6151   5.784  10.779   6.915 -0.0154 -0.2124 -0.0614
  787MOL0     C 6152   5.690  10.889   6.882 -0.1302 -0.0605  0.2860
  787MOL0     C 6153   5.760  11.025   6.904  0.0651 -0.0626 -0.3632
  787MOL0     C 6154   5.682  11.123   6.816 -0.6997 -0.0916  0.3923
  787MOL0    Cl 6155   5.764  11.280   6.849  0.0442  0.7757  0.2811
  787MOL0     C 6156   5.974  10.049   6.793 -0.7669 -0.3726  0.6209
  787MOL0     C 6157   6.011   9.910   6.789 -0.1444  0.7848  0.1511
  787MOL0     O 6158   6.128   9.674   7.109  0.7430  0.1740 -0.1934
  787MOL0     C 6159   6.106   9.430   6.850  0.5882  0.4080 -0.3856
  787MOL0     C 6160   6.126   9.292   6.815  0.0633  0.6412 -0.5265
  787MOL0     N 6161   6.081   8.522   7.002 -0.3498  0.7922 -0.5081
  787MOL0     N 6162   6.077   8.458   7.118  0.0874  0.0191  0.3860
  787MOL0     C 6163   6.556   7.360   7.554  0.1555  0.8953  1.4569
  787MOL0     C 6164   6.647   7.263   7.504  0.2916  1.1325  0.9068
  787MOL0     C 6165   7.017   7.079   7.340  0.6621  0.5550  0.7363
  787MOL0     C 6166   7.145   7.082   7.392  0.8410 -0.3505 -0.3043
  787MOL0     C 6167   7.249   6.997   7.359 -0.6192 -0.2704  0.9712
  787MOL0     C 6168   7.232   6.901   7.259  1.2629  0.1020 -0.1492
  787MOL0     O 6169   7.335   6.829   7.203  0.0611  1.5254  0.3477
  787MOL0     C 6170   7.461   6.890   7.225 -0.9603  0.5072 -0.5949
  787MOL0     C 6171   7.581   6.796   7.170 -0.6982  0.4084  0.2254
  787MOL0     C 6172   7.556   6.645   7.196 -0.6041  0.8287  0.9506
  787MOL0     C 6173   7.548   6.592   7.332  0.1098  0.0855  0.3610
  787MOL0     C 6174   7.675   6.620   7.404  0.2905 -1.0774 -1.0750
  787MOL0     C 6175   7.778   6.636   7.467 -0.0633  0.1597 -0.3003
  787MOL0     C 6176   7.103   6.894   7.196 -0.3864 -0.0703 -0.6740
  787MOL0     C 6177   6.999   6.982   7.232  0.0132 -1.6853  0.0964
  787MOL0     H 6178   6.653   7.309   7.179 -0.9141  0.6228  0.4714
  787MOL0     H 6179   6.451   7.469   7.254 -1.1121  1.9389  1.9637
  787MOL0     H 6180   6.289   7.540   7.658 -1.5523  1.8083 -2.0947
  787MOL0     H 6181   6.457   7.577   7.671 -0.9775 -2.8863  0.5166
  787MOL0     H 6182   6.234   7.751   7.538  0.0452  2.0991  1.7938
  787MOL0     H 6183   6.354   7.791   7.663 -2.9704 -0.9082  1.5255
  787MOL0     H 6184   6.533   7.762   7.501 -0.3242 -1.1292 -0.2850
  787MOL0     H 6185   6.414   7.763   7.367 -2.3152 -0.0003  0.9127
  787MOL0     H 6186   6.405   7.993   7.574 -0.5279 -0.6184  0.1149
  787MOL0     H 6187   6.517   8.010   7.453 -1.1651  2.5314  1.3306
  787MOL0     H 6188   6.365   8.010   7.269  1.3234  2.2166  0.4974
  787MOL0     H 6189   6.224   7.956   7.354  0.1793 -1.7286  0.8339
  787MOL0     H 6190   6.208   8.146   7.485  0.5562 -0.1316  1.2712
  787MOL0     H 6191   6.371   8.197   7.439 -0.3176 -0.9703 -0.0865
  787MOL0     H 6192   6.267   8.196   7.186  0.2573  0.9466 -0.2949
  787MOL0     H 6193   6.119   8.195   7.279 -0.1934 -0.2849 -2.9406
  787MOL0     H 6194   6.333   8.411   7.331  0.6389  1.3031 -1.8625
  787MOL0     H 6195   6.152   8.403   7.371 -0.1561 -2.2055  0.8476
  787MOL0     H 6196   6.389   8.535   7.101  0.1133 -2.3717  3.5576
  787MOL0     H 6197   6.360   8.616   6.843  0.0131 -0.2763  2.2080
  787MOL0     H 6198   6.187   8.610   6.792 -1.1197  2.3510 -0.0969
  787MOL0     H 6199   6.288   8.835   6.813 -0.0138 -0.3980 -0.8259
  787MOL0     H 6200   6.332   8.796   6.980  0.8193 -0.4834 -0.6399
  787MOL0     H 6201   6.065   8.765   7.005 -0.4054  0.2739 -1.0359
  787MOL0     H 6202   6.055   8.818   6.845 -2.7867 -0.9898  1.9773
  787MOL0     H 6203   6.185   8.976   7.065 -1.8370 -0.5517  2.1949
  787MOL0     H 6204   6.012   8.994   7.029 -1.4597 -1.1915 -2.0440
  787MOL0     H 6205   6.116   9.173   7.121  4.2146 -4.0176 -2.7675
  787MOL0     H 6206   6.154   9.319   7.278 -0.9111 -0.3756 -0.1912
  787MOL0     H 6207   6.202   9.497   7.238  2.5829 -1.2130 -1.7733
  787MOL0     H 6208   6.032   9.453   7.254 -0.1432  0.0929 -0.8831
  787MOL0     H 6209   5.991   9.871   7.128  1.8943  1.0413  0.1306
  787MOL0     H 6210   5.927  10.076   7.126 -2.4704  1.4586 -0.9142
  787MOL0     H 6211   5.724  10.207   7.013  1.3484 -0.2692  3.1436
  787MOL0     H 6212   5.852  10.311   7.074 -1.8029 -1.1456  0.6525
  787MOL0     H 6213   5.701  10.387   6.824  2.8878  1.2516  0.1795
  787MOL0     H 6214   5.615  10.420   6.977 -0.3994 -0.6420 -0.2286
  787MOL0     H 6215   5.880  10.520   6.870  1.4360  1.4311  1.0716
  787MOL0     H 6216   5.842  10.542   7.038  2.5565 -0.3474 -1.5967
  787MOL0     H 6217   5.667  10.650   6.810  3.3164  0.4065 -1.9547
  787MOL0     H 6218   5.630  10.649   6.982 -0.6901 -1.2966  0.2327
  787MOL0     H 6219   5.861  10.773   6.838  2.0721  1.0521  1.8018
  787MOL0     H 6220   5.838  10.790   7.010  2.5109 -1.0279 -1.3190
  787MOL0     H 6221   5.643  10.883   6.783 -2.0815 -0.9574  1.2195
  787MOL0     H 6222   5.603  10.886   6.947 -2.3121  4.0188 -2.0042
  787MOL0     H 6223   5.866  11.008   6.883 -0.2611 -2.1600 -0.4669
  787MOL0     H 6224   5.753  11.061   7.008  0.7831 -3.5236  1.0134
  787MOL0     H 6225   5.574  11.123   6.835 -0.7532 -1.4209  0.1884
  787MOL0     H 6226   5.715  11.093   6.716  0.6001  0.3848  0.6683
  787MOL0     H 6227   5.947  10.099   6.700  0.7841 -0.6216  0.0030
  787MOL0     H 6228   6.030   9.864   6.693  3.9174 -1.0694  1.6204
  787MOL0     H 6229   6.082   9.493   6.765  0.4292 -0.4349 -0.9746
  787MOL0     H 6230   6.143   9.256   6.714 -0.3870  1.8018 -1.0394
  787MOL0     H 6231   6.526   7.360   7.659 -0.4793  3.2033  1.3403
  787MOL0     H 6232   6.705   7.201   7.571  0.2075 -0.3935 -0.3616
  787MOL0     H 6233   7.171   7.145   7.477  0.1969 -2.3587  1.4640
  787MOL0     H 6234   7.345   7.023   7.402  0.2442  1.8265 -1.9461
  787MOL0     H 6235   7.475   6.991   7.186  0.2146  0.9050  0.7904
  787MOL0     H 6236   7.482   6.886   7.332  0.1778 -0.5454 -0.8370
  787MOL0     H 6237   7.673   6.828   7.219  0.0959 -1.3784 -0.0033
  787MOL0     H 6238   7.597   6.815   7.064  1.9673  1.6783  0.7826
  787MOL0     H 6239   7.638   6.591   7.148 -0.8540  0.4566  0.9351
  787MOL0     H 6240   7.466   6.617   7.140  1.1323  0.9301 -2.0901
  787MOL0     H 6241   7.532   6.485   7.320 -0.0805  0.2567 -1.1755
  787MOL0     H 6242   7.459   6.634   7.381 -1.7072 -2.5672 -0.4290
  787MOL0     H 6243   7.858   6.670   7.529  0.7168 -1.0748 -0.5934
  787MOL0     H 6244   7.088   6.841   7.102 -1.6769 -1.1350  0.0889
  787MOL0     H 6245   6.906   6.975   7.176  0.0783 -4.6896  0.1871
  788MOL0     O 6246  10.547   9.492  10.317  0.0930 -0.1283  0.6593
  788MOL0     C 6247  10.566   9.508  10.198 -0.4708 -0.1833 -0.5389
  788MOL0     O 6248  10.539   9.620  10.122 -0.1226  0.6771 -0.4893
  788MOL0     C 6249  10.461   9.711  10.191 -0.5538 -0.0123  0.3914
  788MOL0     C 6250  10.524   9.830  10.233  0.1254 -0.5544 -0.5896
  788MOL0     C 6251  10.454   9.947  10.276 -0.0024 -0.8349 -0.1516
  788MOL0     C 6252  10.307   9.943  10.283 -1.1199 -0.0173 -0.5168
  788MOL0     O 6253  10.222  10.042  10.328 -0.6186 -0.0849  0.4845
  788MOL0     C 6254  10.290  10.166  10.348 -0.5025  0.0256 -0.2832
  788MOL0     C 6255  10.193  10.280  10.375  0.0905 -1.9813 -0.4512
  788MOL0     C 6256  10.104  10.263  10.502  0.1456 -0.2863  0.7006
  788MOL0     C 6257  10.007  10.375  10.527  0.4172 -0.3483  0.8627
  788MOL0     C 6258   9.928  10.357  10.658  0.0415  0.1283  0.3029
  788MOL0     C 6259   9.832  10.237  10.649 -0.8178 -0.4317 -0.5389
  788MOL0     C 6260   9.763  10.210  10.790  0.3373 -1.4596  0.4951
  788MOL0     C 6261   9.873  10.197  10.895 -0.0102  0.2712  0.3573
  788MOL0     N 6262   9.820  10.116  11.000 -0.1196  0.2233  0.6677
  788MOL0     C 6263   9.754  10.180  11.102  0.3121 -0.0013 -0.0333
  788MOL0     C 6264   9.705  10.079  11.168 -0.0898 -0.2015  0.1896
  788MOL0     C 6265   9.606  10.099  11.282  0.1130 -0.1847  0.1534
  788MOL0     C 6266   9.467  10.034  11.255  0.1367  0.1025  0.4118
  788MOL0     C 6267   9.382  10.108  11.148  1.9475  0.5352 -0.0551
  788MOL0     C 6268   9.264  10.020  11.093  0.0947  0.1555  0.5006
  788MOL0     O 6269   9.166   9.987  11.189 -0.4299  0.0265 -0.1475
  788MOL0     C 6270   9.094   9.875  11.158  0.6117 -0.2198  0.6921
  788MOL0     C 6271   9.132   9.744  11.141  0.1434 -0.7909  1.0079
  788MOL0     C 6272   9.036   9.642  11.123  0.7709 -0.9618 -0.0022
  788MOL0     C 6273   9.086   9.508  11.090 -0.3618  0.3234 -0.3062
  788MOL0     C 6274   8.899   9.676  11.144  0.8474 -0.6133 -0.1057
  788MOL0     C 6275   8.798   9.565  11.141 -0.2968 -0.3011 -0.2129
  788MOL0     O 6276   8.829   9.449  11.211  0.8112 -0.6875 -0.5082
  788MOL0     C 6277   8.737   9.350  11.224  0.8743  0.4283 -0.5256
  788MOL0     C 6278   8.601   9.383  11.254 -0.5787  0.3132 -0.1625
  788MOL0     C 6279   8.500   9.283  11.266 -1.1567 -0.1501  0.1342
  788MOL0     C 6280   8.532   9.148  11.245 -0.3608  0.1542  0.3269
  788MOL0     O 6281   8.424   9.074  11.255  0.5385  0.0093  0.1573
  788MOL0     C 6282   8.426   8.941  11.202 -0.0457 -0.4201 -0.3609
  788MOL0     C 6283   8.280   8.903  11.167 -0.2017  0.8422  0.2815
  788MOL0     C 6284   8.282   8.764  11.109  0.0227 -0.4885  1.2968
  788MOL0     C 6285   8.143   8.701  11.091  0.2194 -0.4505 -0.6492
  788MOL0     C 6286   8.145   8.563  11.026  0.4356  0.0615 -0.0061
  788MOL0     C 6287   8.167   8.569  10.868  1.1643 -0.1376 -0.0627
  788MOL0     C 6288   8.038   8.573  10.786 -0.4617  0.2459 -0.2421
  788MOL0     C 6289   8.059   8.587  10.635 -0.3662 -0.0710  0.1246
  788MOL0    Cl 6290   8.135   8.440  10.566  0.1538  0.2238 -0.0350
  788MOL0     C 6291   8.665   9.123  11.212  0.0039  0.0697 -0.9202
  788MOL0     C 6292   8.768   9.216  11.214  0.4733  0.3372  0.0880
  788MOL0     O 6293   8.693   9.592  11.085  0.2048 -0.5720  0.4380
  788MOL0     C 6294   8.859   9.809  11.160  0.0841  0.1622 -0.0300
  788MOL0     C 6295   8.961   9.903  11.169  0.1147 -0.4104  0.3906
  788MOL0     N 6296   9.731   9.963  11.105 -0.0604 -0.4088 -0.6712
  788MOL0     N 6297   9.805   9.987  11.002  0.3014  0.3325 -0.2472
  788MOL0     C 6298  10.250   9.823  10.241  0.3917  0.2504 -0.3383
  788MOL0     C 6299  10.320   9.711  10.198  1.0077 -0.3276 -0.3597
  788MOL0     C 6300  10.622   9.400  10.124 -1.6118  0.2635  1.1644
  788MOL0     C 6301  10.612   9.396   9.987 -0.2504  0.2118 -0.2732
  788MOL0     C 6302  10.663   9.292   9.911  1.9385 -0.4012 -0.9835
  788MOL0     C 6303  10.726   9.189   9.976  0.1233 -0.2239  0.2271
  788MOL0     O 6304  10.775   9.075   9.918  0.0278 -0.7441  0.6451
  788MOL0     C 6305  10.669   8.988   9.883 -0.4557  1.0811  0.1578
  788MOL0     C 6306  10.730   8.845   9.842  0.3638  0.2246  0.5856
  788MOL0     C 6307  10.820   8.872   9.714 -0.6857  0.2973 -1.0275
  788MOL0     C 6308  10.920   8.766   9.654  0.2411  0.2383 -0.1407
  788MOL0     C 6309  10.854   8.627   9.659 -0.5438 -0.8542 -0.5556
  788MOL0     C 6310  10.803   8.520   9.662  1.1598  0.2627  1.1588
  788MOL0     C 6311  10.746   9.193  10.113 -0.6292  0.2561 -0.0810
  788MOL0     C 6312  10.697   9.302  10.184  0.1775  0.5758  0.0249
  788MOL0     H 6313  10.630   9.836  10.211 -0.0338  0.3648 -1.1466
  788MOL0     H 6314  10.512  10.037  10.295 -1.6188  0.1544  0.2615
  788MOL0     H 6315  10.356  10.146  10.433 -0.9110  1.7570  0.5083
  788MOL0     H 6316  10.357  10.183  10.264 -0.5646 -1.4418 -0.6498
  788MOL0     H 6317  10.253  10.370  10.386 -1.5243 -0.6547 -1.8711
  788MOL0     H 6318  10.123  10.284  10.291 -1.0857 -2.1673  0.4957
  788MOL0     H 6319  10.051  10.169  10.480 -1.3754  1.1797 -2.6602
  788MOL0     H 6320  10.173  10.245  10.585  0.1970  0.2951  0.7834
  788MOL0     H 6321  10.070  10.464  10.534  0.3345  0.0955 -2.3305
  788MOL0     H 6322   9.940  10.376  10.440  2.5239  2.7984 -0.9274
  788MOL0     H 6323  10.008  10.354  10.733  1.1340 -0.0410 -0.8268
  788MOL0     H 6324   9.861  10.440  10.678 -1.5052 -1.1675  0.6819
  788MOL0     H 6325   9.753  10.260  10.577  0.9078  0.9803 -2.0809
  788MOL0     H 6326   9.887  10.146  10.623 -0.1611 -0.6879  1.5452
  788MOL0     H 6327   9.704  10.300  10.804 -0.2151 -1.3949 -1.8526
  788MOL0     H 6328   9.697  10.124  10.773  0.3631 -1.4400  0.2993
  788MOL0     H 6329   9.899  10.293  10.940  0.1192 -0.0954  1.0653
  788MOL0     H 6330   9.957  10.149  10.846 -1.9393 -1.9678 -0.9686
  788MOL0     H 6331   9.754  10.287  11.117  1.8971  0.8346 -4.4823
  788MOL0     H 6332   9.655  10.058  11.371  0.3077 -3.3598 -1.2640
  788MOL0     H 6333   9.591  10.205  11.303 -1.0978 -0.7041  2.2775
  788MOL0     H 6334   9.425  10.042  11.355  2.6254 -1.9673  1.7518
  788MOL0     H 6335   9.482   9.929  11.227  0.4042  0.4655 -0.8600
  788MOL0     H 6336   9.451  10.130  11.066  1.4536  2.0444 -0.1030
  788MOL0     H 6337   9.355  10.211  11.174 -0.3784 -0.0783  0.1906
  788MOL0     H 6338   9.309   9.931  11.047 -0.0844  0.8754 -1.1271
  788MOL0     H 6339   9.230  10.077  11.005  2.7840 -0.2071 -0.8698
  788MOL0     H 6340   9.232   9.705  11.158 -0.0589 -0.9979  1.7489
  788MOL0     H 6341   9.018   9.468  11.014 -0.3742  1.2305 -0.7899
  788MOL0     H 6342   9.185   9.512  11.044  0.0801  1.8358  0.7007
  788MOL0     H 6343   9.092   9.452  11.183 -1.5334  4.3464  2.4563
  788MOL0     H 6344   8.577   9.488  11.262  1.8495  0.9413 -0.6215
  788MOL0     H 6345   8.400   9.316  11.291 -0.6756  1.0640  0.5157
  788MOL0     H 6346   8.500   8.937  11.121  2.0193 -0.2595  1.4447
  788MOL0     H 6347   8.463   8.875  11.280  0.5198  1.6409  1.1896
  788MOL0     H 6348   8.226   8.912  11.262  0.5039  0.8481  0.6966
  788MOL0     H 6349   8.244   8.971  11.089  2.5035  1.9279 -0.1491
  788MOL0     H 6350   8.340   8.692  11.169  0.4304 -3.5229 -2.3880
  788MOL0     H 6351   8.325   8.773  11.009 -0.7534  2.8382  1.1618
  788MOL0     H 6352   8.098   8.682  11.189 -0.4693 -1.3765 -1.1319
  788MOL0     H 6353   8.083   8.773  11.035  0.8348  0.6467  0.0444
  788MOL0     H 6354   8.051   8.515  11.053  0.2185 -0.0036 -0.8306
  788MOL0     H 6355   8.225   8.501  11.067 -0.8740 -0.3191  2.0886
  788MOL0     H 6356   8.221   8.662  10.845 -0.9486  0.4813 -3.0886
  788MOL0     H 6357   8.229   8.483  10.840 -0.0189 -0.0024 -3.6425
  788MOL0     H 6358   7.989   8.664  10.823 -1.1806  1.2743 -3.3718
  788MOL0     H 6359   7.967   8.492  10.801  0.1820 -1.0169 -3.3179
  788MOL0     H 6360   8.133   8.664  10.611  0.1220  0.3032  2.5558
  788MOL0     H 6361   7.966   8.615  10.584 -1.1281 -1.5795  0.6282
  788MOL0     H 6362   8.678   9.017  11.198 -1.2238 -0.0621 -1.1576
  788MOL0     H 6363   8.874   9.196  11.200  0.4894 -0.6229  1.4392
  788MOL0     H 6364   8.756   9.843  11.159  0.0486  0.0672 -1.5462
  788MOL0     H 6365   8.933  10.008  11.167 -0.3075 -0.5112 -1.7768
  788MOL0     H 6366  10.144   9.800  10.253  0.5394 -0.5216 -0.4680
  788MOL0     H 6367  10.271   9.614  10.195  0.6363 -0.2973  2.1544
  788MOL0     H 6368  10.546   9.474   9.950 -1.7413  0.1073  1.9694
  788MOL0     H 6369  10.649   9.286   9.803  1.3863  1.1381 -1.0287
  788MOL0     H 6370  10.610   8.970   9.974 -0.4664  2.9358  0.5596
  788MOL0     H 6371  10.601   9.025   9.806  0.5821  1.1990 -0.7204
  788MOL0     H 6372  10.651   8.776   9.812 -1.2851  1.8601  0.9443
  788MOL0     H 6373  10.787   8.798   9.923  1.2164  1.5738  0.8050
  788MOL0     H 6374  10.875   8.964   9.732 -0.7598 -0.1826  2.0957
  788MOL0     H 6375  10.747   8.883   9.633  1.2831  0.7742 -2.8184
  788MOL0     H 6376  11.012   8.756   9.712  0.1142 -0.2092 -0.0163
  788MOL0     H 6377  10.932   8.802   9.551 -1.1197  0.9176 -0.0838
  788MOL0     H 6378  10.761   8.422   9.672  2.3700 -0.1179  3.0388
  788MOL0     H 6379  10.797   9.117  10.172 -0.9978  2.5066  3.4960
  788MOL0     H 6380  10.711   9.310  10.291  0.9890  1.6511 -0.1437
  789MOL0     O 6381   6.285   3.050   9.788  0.2726  0.2031 -0.6552
  789MOL0     C 6382   6.275   3.169   9.752 -0.0045  0.0098 -0.5002
  789MOL0     O 6383   6.182   3.263   9.789 -0.0225 -0.4322 -0.2238
  789MOL0     C 6384   6.093   3.233   9.885  0.1906 -0.3450 -0.4288
  789MOL0     C 6385   6.114   3.142   9.993 -0.2917  0.3679  0.5287
  789MOL0     C 6386   6.010   3.101  10.083 -0.1371  0.6255 -0.4080
  789MOL0     C 6387   5.882   3.152  10.051  0.3059  0.1654 -0.2885
  789MOL0     O 6388   5.778   3.082  10.119 -0.2548 -0.2104 -0.5727
  789MOL0     C 6389   5.759   3.120  10.254  0.2940 -1.1268  0.1358
  789MOL0     C 6390   5.609   3.115  10.295  0.1549 -0.5538 -0.2335
  789MOL0     C 6391   5.524   3.217  10.222  0.0137  0.0364  0.1153
  789MOL0     C 6392   5.440   3.151  10.115 -0.1237 -0.4282 -0.0457
  789MOL0     C 6393   5.379   3.247  10.002  1.1401  0.5931  0.6816
  789MOL0     C 6394   5.281   3.339  10.060 -0.7170  0.0676 -0.5193
  789MOL0     C 6395   5.210   3.412   9.956  0.2917 -0.3370  0.3557
  789MOL0     C 6396   5.102   3.511  10.010  0.4119 -0.6527  0.0180
  789MOL0     N 6397   5.000   3.535   9.910 -0.2765 -0.3879 -0.1760
  789MOL0     C 6398   4.907   3.450   9.876  0.0854 -0.1012  0.3590
  789MOL0     C 6399   4.818   3.508   9.789  0.5554  0.0143  0.0292
  789MOL0     C 6400   4.688   3.448   9.739 -0.4365  0.6417 -0.7993
  789MOL0     C 6401   4.607   3.546   9.657 -0.6871 -0.6052  0.2245
  789MOL0     C 6402   4.492   3.468   9.606  0.3628  0.2218 -0.1761
  789MOL0     C 6403   4.366   3.545   9.559  0.1936  0.5758  0.7993
  789MOL0     O 6404   4.246   3.478   9.607  0.6127  0.6547  0.1719
  789MOL0     C 6405   4.133   3.498   9.529  0.4583 -0.8538 -0.5598
  789MOL0     C 6406   4.098   3.617   9.453 -0.1734 -0.0579 -1.1838
  789MOL0     C 6407   3.971   3.628   9.395  0.9732 -0.4982  0.2225
  789MOL0     C 6408   3.938   3.756   9.316  0.2922  0.1419 -0.6976
  789MOL0     C 6409   3.868   3.527   9.416  0.5503  0.5347 -0.0223
  789MOL0     C 6410   3.728   3.518   9.344 -0.6526 -0.2109  0.5483
  789MOL0     O 6411   3.633   3.452   9.408  0.0545 -0.0501  0.9467
  789MOL0     C 6412   3.497   3.475   9.390 -0.3422 -0.7054  0.5710
  789MOL0     C 6413   3.409   3.385   9.451 -0.7098 -0.2107 -0.6191
  789MOL0     C 6414   3.270   3.409   9.449  0.0781  0.3034  0.0446
  789MOL0     C 6415   3.220   3.511   9.375 -0.0501  0.5003  0.2351
  789MOL0     O 6416   3.081   3.520   9.378 -0.0532 -0.1794 -0.1691
  789MOL0     C 6417   3.024   3.651   9.368 -1.0642 -0.1229  0.4569
  789MOL0     C 6418   2.876   3.636   9.383  0.3250  0.2514 -0.7442
  789MOL0     C 6419   2.793   3.762   9.360  0.5466 -0.1825  0.3922
  789MOL0     C 6420   2.646   3.734   9.382 -0.0836  0.4185  0.6558
  789MOL0     C 6421   2.563   3.869   9.371 -1.2583 -0.8729  0.4747
  789MOL0     C 6422   2.575   3.938   9.235 -0.4636 -0.4403 -0.0083
  789MOL0     C 6423   2.488   4.062   9.196 -0.0969 -0.0021  0.1108
  789MOL0     C 6424   2.341   4.016   9.198  0.0191 -1.2456  1.3067
  789MOL0    Cl 6425   2.308   3.879   9.079 -0.6058 -0.3096  0.4594
  789MOL0     C 6426   3.300   3.595   9.301 -0.4572 -0.0979 -0.8066
  789MOL0     C 6427   3.445   3.575   9.309  0.6433 -0.9277 -0.1351
  789MOL0     O 6428   3.723   3.560   9.231 -0.2254 -0.0340  0.3399
  789MOL0     C 6429   3.900   3.411   9.491  0.0400  0.1918 -0.0909
  789MOL0     C 6430   4.033   3.403   9.544 -0.7275  1.0938 -0.7104
  789MOL0     N 6431   4.874   3.633   9.772 -0.2486  0.3467  0.0331
  789MOL0     N 6432   4.979   3.646   9.840  0.1034  0.0365  0.5129
  789MOL0     C 6433   5.857   3.225   9.936 -0.2031 -1.1240  0.6303
  789MOL0     C 6434   5.964   3.259   9.855  0.1135 -0.2938  0.7763
  789MOL0     C 6435   6.364   3.219   9.641  0.9483  0.0934  0.0201
  789MOL0     C 6436   6.373   3.355   9.603  0.3864  0.0593  0.0850
  789MOL0     C 6437   6.473   3.404   9.515  0.2085 -0.1678 -0.2934
  789MOL0     C 6438   6.570   3.324   9.459 -0.1706  0.2252  0.5167
  789MOL0     O 6439   6.670   3.380   9.376 -0.0184  0.7577  0.2779
  789MOL0     C 6440   6.687   3.521   9.351  0.4695  0.0974  0.4651
  789MOL0     C 6441   6.801   3.533   9.244 -0.8229  0.7235  0.0667
  789MOL0     C 6442   6.938   3.513   9.309 -0.0370 -1.2136  0.3976
  789MOL0     C 6443   7.051   3.572   9.215 -0.3624 -0.6795  0.9536
  789MOL0     C 6444   7.173   3.508   9.237 -0.7797 -0.1882 -0.8355
  789MOL0     C 6445   7.266   3.446   9.278 -0.1425  0.8113 -0.0021
  789MOL0     C 6446   6.555   3.185   9.487 -0.8955 -0.3915  0.6607
  789MOL0     C 6447   6.467   3.139   9.592 -0.1506  0.1041  0.2950
  789MOL0     H 6448   6.216   3.108  10.009 -0.7377 -2.6478 -1.9863
  789MOL0     H 6449   6.021   3.030  10.164 -0.1287 -1.9614 -2.5703
  789MOL0     H 6450   5.812   3.056  10.326  0.6909  0.5778  1.4418
  789MOL0     H 6451   5.784   3.226  10.268 -1.1241 -0.6081 -1.0121
  789MOL0     H 6452   5.572   3.013  10.280 -2.3625  0.3328 -0.6042
  789MOL0     H 6453   5.607   3.139  10.402 -2.3333 -1.3887 -0.0254
  789MOL0     H 6454   5.454   3.241  10.302  1.8287 -0.4761  1.9247
  789MOL0     H 6455   5.571   3.312  10.193 -1.5532  1.5525  2.2300
  789MOL0     H 6456   5.508   3.085  10.061  0.9246  0.2059  0.4736
  789MOL0     H 6457   5.363   3.093  10.166  0.2918 -0.6826  0.2938
  789MOL0     H 6458   5.461   3.301   9.953  3.4033 -0.7870  2.7120
  789MOL0     H 6459   5.338   3.182   9.924  0.6554  0.6423  0.8945
  789MOL0     H 6460   5.203   3.290  10.120 -1.9825  0.7312 -1.5620
  789MOL0     H 6461   5.340   3.411  10.116 -2.3021  0.3791  0.8302
  789MOL0     H 6462   5.286   3.473   9.907  3.3894 -1.8926  2.8243
  789MOL0     H 6463   5.169   3.340   9.885  1.2763  2.8820 -3.8531
  789MOL0     H 6464   5.134   3.610  10.045  2.7747 -1.1876 -0.4497
  789MOL0     H 6465   5.060   3.463  10.099 -0.9412 -2.1375 -1.3683
  789MOL0     H 6466   4.892   3.351   9.919 -1.6576  0.7652  1.8948
  789MOL0     H 6467   4.717   3.367   9.671  0.6469 -1.3223  1.8260
  789MOL0     H 6468   4.630   3.408   9.823 -0.1391  0.0538 -0.8691
  789MOL0     H 6469   4.681   3.577   9.582 -0.3964  3.5746  1.9879
  789MOL0     H 6470   4.570   3.629   9.718 -1.1880  0.4513 -1.4584
  789MOL0     H 6471   4.463   3.411   9.695  3.5418 -2.9247 -0.9220
  789MOL0     H 6472   4.522   3.398   9.527  1.8022 -1.4264  1.7313
  789MOL0     H 6473   4.364   3.537   9.450  0.8086  0.5825  0.7830
  789MOL0     H 6474   4.379   3.645   9.603 -0.0058  1.7358 -1.6117
  789MOL0     H 6475   4.162   3.705   9.456 -2.0129  1.4112 -2.8921
  789MOL0     H 6476   4.012   3.834   9.337  0.5532 -0.5923  1.3624
  789MOL0     H 6477   3.940   3.746   9.208 -1.6631  3.7012 -1.2318
  789MOL0     H 6478   3.836   3.784   9.344  0.5789  0.0115  0.5476
  789MOL0     H 6479   3.455   3.308   9.512  3.4293  3.6223  1.6992
  789MOL0     H 6480   3.199   3.368   9.520  0.5393 -0.7386 -0.0846
  789MOL0     H 6481   3.059   3.723   9.443 -0.0585  2.0819 -1.9691
  789MOL0     H 6482   3.025   3.689   9.265 -2.3867  0.3601  0.6074
  789MOL0     H 6483   2.850   3.559   9.310  0.0457 -1.5423  1.1525
  789MOL0     H 6484   2.856   3.600   9.484 -2.6802 -1.0678 -1.7295
  789MOL0     H 6485   2.803   3.794   9.256 -2.3270  0.4644  0.2342
  789MOL0     H 6486   2.813   3.841   9.433 -0.3244 -0.4837  0.9789
  789MOL0     H 6487   2.605   3.662   9.310  1.6674  0.3594 -0.3338
  789MOL0     H 6488   2.630   3.692   9.481  0.1754 -0.2611  0.4188
  789MOL0     H 6489   2.603   3.936   9.448  3.2655 -3.7497  1.0180
  789MOL0     H 6490   2.460   3.847   9.397 -1.8816  1.5953  0.3815
  789MOL0     H 6491   2.677   3.978   9.233 -0.2777 -0.8073  1.0719
  789MOL0     H 6492   2.569   3.859   9.160  1.4251 -0.4752 -0.1886
  789MOL0     H 6493   2.506   4.103   9.095  1.5775  0.6646  0.6349
  789MOL0     H 6494   2.507   4.142   9.268 -1.4004  0.1526  0.2997
  789MOL0     H 6495   2.280   4.100   9.165  0.5687  0.2367  3.8142
  789MOL0     H 6496   2.316   3.992   9.302  0.2800 -2.2026  1.1581
  789MOL0     H 6497   3.259   3.676   9.241  0.9889  1.0939 -0.2687
  789MOL0     H 6498   3.518   3.646   9.270  1.0494  0.3493  2.6652
  789MOL0     H 6499   3.837   3.323   9.503  1.8303 -0.8979  2.3249
  789MOL0     H 6500   4.040   3.313   9.604 -1.6404  0.8178 -1.0145
  789MOL0     H 6501   5.756   3.254   9.909  0.3415  2.5961  1.9316
  789MOL0     H 6502   5.940   3.314   9.764 -3.6670 -1.2011  1.0472
  789MOL0     H 6503   6.315   3.435   9.648  0.2986  1.2889 -2.0669
  789MOL0     H 6504   6.478   3.508   9.485  2.3624 -1.1362 -3.9738
  789MOL0     H 6505   6.601   3.564   9.300  3.1024  4.2745 -0.8951
  789MOL0     H 6506   6.719   3.570   9.443  1.0243  1.2227 -0.3059
  789MOL0     H 6507   6.802   3.639   9.218  4.4347  1.5038  2.1495
  789MOL0     H 6508   6.785   3.462   9.162  3.0971  1.5593 -1.6687
  789MOL0     H 6509   6.963   3.408   9.322  4.2484 -0.8221 -2.3959
  789MOL0     H 6510   6.942   3.561   9.407 -0.9838 -3.7647  1.7710
  789MOL0     H 6511   7.058   3.681   9.218  0.0898 -0.7163  1.4067
  789MOL0     H 6512   7.034   3.554   9.108  0.4211 -1.7745  0.9929
  789MOL0     H 6513   7.337   3.382   9.327  0.5335  0.6251 -1.1835
  789MOL0     H 6514   6.611   3.116   9.426 -1.2943  1.1435 -1.5496
  789MOL0     H 6515   6.477   3.032   9.612 -0.2899 -0.1638 -0.9303
  790MOL0     O 6516   9.501  10.537   7.657 -0.5447 -0.5696 -0.0561
  790MOL0     C 6517   9.396  10.513   7.599  0.8435 -0.9414 -0.1657
  790MOL0     O 6518   9.382  10.479   7.471  0.5855 -0.2219  0.2364
  790MOL0     C 6519   9.487  10.480   7.389 -0.8769 -0.8130 -0.4022
  790MOL0     C 6520   9.493  10.593   7.309  0.1279 -1.0167 -0.7221
  790MOL0     C 6521   9.585  10.604   7.206  0.2617 -0.3521 -0.7166
  790MOL0     C 6522   9.684  10.499   7.189 -0.3654 -0.3708 -0.7370
  790MOL0     O 6523   9.790  10.503   7.103  0.0718 -0.3168 -0.9566
  790MOL0     C 6524   9.818  10.611   7.014  0.4716 -0.6372 -0.5548
  790MOL0     C 6525   9.927  10.580   6.913 -0.0270 -0.0234 -0.3443
  790MOL0     C 6526  10.064  10.559   6.979 -0.5252  0.8497 -0.3973
  790MOL0     C 6527  10.176  10.509   6.880 -0.1600  0.2828  0.6767
  790MOL0     C 6528  10.291  10.432   6.950  0.3112 -0.6411 -0.7773
  790MOL0     C 6529  10.406  10.404   6.843 -0.7625 -0.5224 -0.2669
  790MOL0     C 6530  10.503  10.529   6.851  0.2269  0.1622 -0.8700
  790MOL0     C 6531  10.621  10.512   6.756  0.1452 -0.5715 -0.2162
  790MOL0     N 6532  10.698  10.641   6.752 -1.4409  0.1236  0.3159
  790MOL0     C 6533  10.823  10.663   6.709 -0.7588  0.2317  0.2521
  790MOL0     C 6534  10.840  10.795   6.679  0.5454 -0.4035  0.0904
  790MOL0     C 6535  10.965  10.870   6.624 -0.1750  0.6087 -0.9843
  790MOL0     C 6536  10.978  10.997   6.709  0.4688 -0.7342  0.2840
  790MOL0     C 6537  11.069  11.100   6.646 -0.0847 -0.0663  0.6554
  790MOL0     C 6538  11.211  11.055   6.677  0.7768  0.6204 -0.0967
  790MOL0     O 6539  11.283  11.107   6.567 -1.0851  0.1647  0.5057
  790MOL0     C 6540  11.421  11.098   6.548  0.1260 -0.4178  0.2222
  790MOL0     C 6541  11.484  11.188   6.465 -0.3876  0.2408 -0.6699
  790MOL0     C 6542  11.621  11.193   6.450 -0.5292  0.5436  0.4191
  790MOL0     C 6543  11.674  11.311   6.371  0.0218 -0.0402 -0.7149
  790MOL0     C 6544  11.713  11.097   6.514  0.9268  0.3318 -0.1888
  790MOL0     C 6545  11.862  11.075   6.495  0.0843 -0.2640  0.5523
  790MOL0     O 6546  11.951  11.179   6.461  1.2593  0.7732  0.0552
  790MOL0     C 6547  12.081  11.164   6.487  0.2370 -0.9113 -0.2320
  790MOL0     C 6548  12.172  11.069   6.438 -0.2026  0.1796 -0.0101
  790MOL0     C 6549  12.296  11.078   6.457 -1.2892 -0.1014 -0.0823
  790MOL0     C 6550  12.360  11.164   6.544  0.4959 -0.5635 -0.2266
  790MOL0     O 6551  12.499  11.170   6.578  0.5444 -0.2072 -0.3951
  790MOL0     C 6552  12.578  11.142   6.463  0.0269 -0.3160 -1.1640
  790MOL0     C 6553  12.719  11.182   6.483 -0.0851 -0.2032 -0.1780
  790MOL0     C 6554  12.780  11.127   6.619  0.2775 -0.1117  0.4635
  790MOL0     C 6555  12.934  11.144   6.604  0.9674 -0.1508  0.3190
  790MOL0     C 6556  12.965  11.300   6.625  0.3638 -0.4252 -0.3139
  790MOL0     C 6557  13.106  11.334   6.666 -1.6591  0.5817  0.0909
  790MOL0     C 6558  13.210  11.303   6.554 -0.4157  1.1306 -0.9126
  790MOL0     C 6559  13.356  11.315   6.612  0.2121 -0.6059 -0.8158
  790MOL0    Cl 6560  13.373  11.175   6.725  0.0812 -0.2916 -0.1748
  790MOL0     C 6561  12.272  11.270   6.608 -0.4947 -0.6579  1.1972
  790MOL0     C 6562  12.135  11.264   6.573  0.1261 -0.0702  0.6019
  790MOL0     O 6563  11.893  10.957   6.515 -0.0442 -0.7989 -0.5976
  790MOL0     C 6564  11.639  10.998   6.593 -0.2818  0.6458 -0.1816
  790MOL0     C 6565  11.499  11.006   6.626 -0.1113  0.6756  0.3483
  790MOL0     N 6566  10.720  10.857   6.703  0.0351 -0.2720 -0.0707
  790MOL0     N 6567  10.641  10.767   6.760  0.1020 -0.2489 -0.8495
  790MOL0     C 6568   9.682  10.396   7.278  0.2541  0.3188 -0.7915
  790MOL0     C 6569   9.580  10.377   7.376 -0.1464  0.4106 -0.5972
  790MOL0     C 6570   9.266  10.526   7.681 -0.1542 -0.6481  0.8522
  790MOL0     C 6571   9.269  10.591   7.808 -0.5089 -1.0929  0.0074
  790MOL0     C 6572   9.159  10.606   7.884  0.7098 -0.6739  0.2037
  790MOL0     C 6573   9.031  10.558   7.852 -0.2846 -0.9367 -0.5751
  790MOL0     O 6574   8.919  10.568   7.943  0.0706  0.9199  0.0618
  790MOL0     C 6575   8.930  10.637   8.071 -0.2945  0.9757 -0.5431
  790MOL0     C 6576   8.919  10.783   8.058 -0.4753 -0.0148  0.1256
  790MOL0     C 6577   8.909  10.872   8.185  0.4758  0.1772 -0.5157
  790MOL0     C 6578   8.999  10.836   8.305  0.2098  1.2483  0.5666
  790MOL0     C 6579   9.131  10.818   8.260 -0.4422  0.1295  0.3173
  790MOL0     C 6580   9.243  10.795   8.226 -0.7219  0.4684 -0.8194
  790MOL0     C 6581   9.025  10.493   7.726  0.3888  0.4116 -0.3818
  790MOL0     C 6582   9.139  10.490   7.640  0.0962 -0.4549  0.1947
  790MOL0     H 6583   9.424  10.671   7.338  1.0379 -0.5560  0.2713
  790MOL0     H 6584   9.591  10.696   7.148  0.5131 -0.6597 -1.1882
  790MOL0     H 6585   9.732  10.644   6.955 -1.0341  3.8421  3.4640
  790MOL0     H 6586   9.832  10.699   7.078 -0.6203 -1.5151  0.9753
  790MOL0     H 6587   9.908  10.491   6.851  0.3490  0.7816 -1.6406
  790MOL0     H 6588   9.942  10.668   6.851  2.6696  0.9077  1.4175
  790MOL0     H 6589  10.105  10.646   7.031 -0.8020 -0.3214  1.9088
  790MOL0     H 6590  10.048  10.491   7.064  2.1007  1.6916  0.8992
  790MOL0     H 6591  10.132  10.446   6.802 -1.9594  1.3133  0.8306
  790MOL0     H 6592  10.217  10.595   6.827 -2.1924 -1.0092 -3.3706
  790MOL0     H 6593  10.327  10.478   7.042 -2.2389 -0.0658  0.0033
  790MOL0     H 6594  10.251  10.338   6.989 -1.4334  0.6471  0.7130
  790MOL0     H 6595  10.456  10.307   6.854  0.0336 -0.4127 -2.4166
  790MOL0     H 6596  10.371  10.401   6.739  1.1199  2.7543 -1.1390
  790MOL0     H 6597  10.449  10.616   6.814  1.3593  1.0806 -0.3871
  790MOL0     H 6598  10.534  10.548   6.954  0.0762  0.9639 -0.9705
  790MOL0     H 6599  10.601  10.470   6.657 -1.6342 -0.5538  0.1004
  790MOL0     H 6600  10.690  10.440   6.800 -0.1875 -0.5749  0.3025
  790MOL0     H 6601  10.903  10.591   6.694 -0.3379  1.2252 -3.3652
  790MOL0     H 6602  11.054  10.806   6.624  0.9567  2.0994 -0.8527
  790MOL0     H 6603  10.941  10.906   6.524 -0.4140  1.1713 -0.7304
  790MOL0     H 6604  10.998  10.974   6.814  0.2821  1.2610  0.7830
  790MOL0     H 6605  10.878  11.041   6.705  0.0039 -1.8272 -1.1741
  790MOL0     H 6606  11.072  11.207   6.670 -0.3389  1.3279 -4.4113
  790MOL0     H 6607  11.056  11.096   6.537  4.4934 -3.9528 -0.1099
  790MOL0     H 6608  11.218  10.948   6.699  0.1390  0.7196  0.6490
  790MOL0     H 6609  11.263  11.092   6.766  0.2110  0.2739  0.3906
  790MOL0     H 6610  11.413  11.252   6.414  0.0904  1.0476 -0.3416
  790MOL0     H 6611  11.681  11.401   6.432  1.6719 -1.7071  1.7173
  790MOL0     H 6612  11.771  11.288   6.326  2.0872  1.2802  2.6700
  790MOL0     H 6613  11.609  11.343   6.289 -1.4935  2.7934  1.3966
  790MOL0     H 6614  12.161  10.996   6.359  2.4823  1.0715 -1.3182
  790MOL0     H 6615  12.352  11.000   6.408  0.5005  1.6068 -0.8854
  790MOL0     H 6616  12.568  11.034   6.460 -0.8291 -0.4494  2.3436
  790MOL0     H 6617  12.536  11.194   6.377 -2.0760 -0.8685 -0.5299
  790MOL0     H 6618  12.776  11.144   6.397  1.2045 -1.1031  1.0215
  790MOL0     H 6619  12.719  11.290   6.467  2.0831  0.5922  3.7425
  790MOL0     H 6620  12.752  11.026   6.648  1.6510 -0.6413  0.0265
  790MOL0     H 6621  12.740  11.189   6.699  3.1540  0.3149  1.7073
  790MOL0     H 6622  12.988  11.093   6.684 -1.2652 -0.7514  1.5321
  790MOL0     H 6623  12.965  11.096   6.511 -0.6912  1.2338 -1.0345
  790MOL0     H 6624  12.900  11.327   6.709 -1.4387  1.4170 -2.1856
  790MOL0     H 6625  12.944  11.358   6.535 -2.0227 -2.0441 -0.8775
  790MOL0     H 6626  13.112  11.442   6.682  0.0364  0.2871  1.7705
  790MOL0     H 6627  13.124  11.292   6.766 -0.0766  0.4561 -0.2199
  790MOL0     H 6628  13.201  11.385   6.482 -3.3752  2.6285  0.9574
  790MOL0     H 6629  13.185  11.205   6.513 -2.2629  0.3673  1.7833
  790MOL0     H 6630  13.365  11.412   6.663 -0.6340 -0.6819 -0.5105
  790MOL0     H 6631  13.434  11.307   6.535  1.1395 -3.4432  0.2917
  790MOL0     H 6632  12.308  11.345   6.678 -1.5683  2.2811 -1.1700
  790MOL0     H 6633  12.071  11.329   6.632 -2.1336 -1.7678  0.1516
  790MOL0     H 6634  11.679  10.901   6.623 -4.1333 -0.5934  1.7481
  790MOL0     H 6635  11.447  10.930   6.684  1.8426 -1.4279 -0.4709
  790MOL0     H 6636   9.755  10.316   7.266  0.8115  0.9730 -1.8976
  790MOL0     H 6637   9.582  10.293   7.445  2.0885  0.3776 -0.6469
  790MOL0     H 6638   9.365  10.617   7.851  0.5656 -1.1629 -2.1917
  790MOL0     H 6639   9.169  10.657   7.979 -0.1902 -1.2836  0.6397
  790MOL0     H 6640   8.839  10.592   8.113  0.1089 -2.7081 -3.1108
  790MOL0     H 6641   9.015  10.608   8.134 -1.3249 -0.2186  0.3741
  790MOL0     H 6642   8.842  10.806   7.984 -0.7761  0.1194  0.4738
  790MOL0     H 6643   9.013  10.818   8.014  0.8696 -0.5485  2.4010
  790MOL0     H 6644   8.804  10.862   8.213  0.1909 -1.9796 -2.1282
  790MOL0     H 6645   8.936  10.977   8.167 -1.7571  1.0613  0.8715
  790MOL0     H 6646   8.960  10.747   8.356  0.0056 -0.6399 -2.6593
  790MOL0     H 6647   8.991  10.916   8.379 -0.3865 -0.2048  2.1546
  790MOL0     H 6648   9.341  10.759   8.202 -0.6409  2.1014 -3.2762
  790MOL0     H 6649   8.929  10.455   7.692  2.1704 -4.1165 -0.9940
  790MOL0     H 6650   9.120  10.436   7.548 -2.8863 -0.9625  0.9955
  791MOL0     O 6651  10.769   2.724   8.927 -0.1356 -0.3589  0.5919
  791MOL0     C 6652  10.843   2.709   8.828 -0.1261  0.0756 -0.4289
  791MOL0     O 6653  10.796   2.678   8.697  0.1920 -0.6656 -0.7513
  791MOL0     C 6654  10.663   2.667   8.680 -0.3117  1.3051  0.4331
  791MOL0     C 6655  10.608   2.750   8.585 -0.6970  0.3427  0.2057
  791MOL0     C 6656  10.470   2.746   8.568  0.3689 -0.2298  0.1881
  791MOL0     C 6657  10.385   2.657   8.627  2.3961 -0.6811 -0.2790
  791MOL0     O 6658  10.246   2.653   8.597  0.1110 -0.1858 -0.2740
  791MOL0     C 6659  10.185   2.740   8.507  0.0247 -0.0914  0.7883
  791MOL0     C 6660  10.031   2.740   8.530  0.2567 -0.6669 -0.0236
  791MOL0     C 6661  10.008   2.822   8.663  0.6820  1.0045  0.5281
  791MOL0     C 6662   9.863   2.857   8.679  1.1907  0.4669  0.0847
  791MOL0     C 6663   9.832   2.948   8.792  0.1567  0.3514 -0.9381
  791MOL0     C 6664   9.873   2.900   8.926 -0.5210  0.0175 -0.5896
  791MOL0     C 6665   9.777   2.946   9.036  0.1098  0.7140  0.2283
  791MOL0     C 6666   9.805   2.873   9.170  0.1988  0.1302  0.7872
  791MOL0     N 6667   9.787   2.728   9.153 -0.2804 -0.1540  0.3814
  791MOL0     C 6668   9.667   2.669   9.158  0.7330 -0.3516 -0.0022
  791MOL0     C 6669   9.693   2.538   9.159 -0.1427  0.1085  0.2766
  791MOL0     C 6670   9.593   2.425   9.176 -0.1653 -0.2163  0.4808
  791MOL0     C 6671   9.586   2.333   9.053  1.0926  0.2396  0.4802
  791MOL0     C 6672   9.519   2.416   8.936 -0.3242  0.0546 -1.0354
  791MOL0     C 6673   9.401   2.347   8.867 -0.3256 -0.4999  0.6831
  791MOL0     O 6674   9.277   2.379   8.935  0.2665 -0.0595  0.1528
  791MOL0     C 6675   9.160   2.347   8.873 -1.5261  0.9182  0.0350
  791MOL0     C 6676   9.062   2.415   8.930  0.2783  0.2328  0.7008
  791MOL0     C 6677   8.928   2.407   8.885  0.4383  0.2390  0.2675
  791MOL0     C 6678   8.827   2.488   8.965  0.4543  0.1264 -0.6748
  791MOL0     C 6679   8.897   2.324   8.767 -0.8023  0.3106 -1.3925
  791MOL0     C 6680   8.765   2.299   8.720 -0.3712  0.7571 -0.2446
  791MOL0     O 6681   8.749   2.253   8.594 -0.1881  0.5584 -0.0649
  791MOL0     C 6682   8.635   2.186   8.559  1.1146  0.3638  0.8452
  791MOL0     C 6683   8.542   2.242   8.471 -0.6532  0.8181  0.0161
  791MOL0     C 6684   8.425   2.184   8.435  0.3618  0.0247  0.5114
  791MOL0     C 6685   8.386   2.062   8.498  0.0756 -0.0585 -0.0718
  791MOL0     O 6686   8.260   2.004   8.465  0.7386  0.1732 -0.6938
  791MOL0     C 6687   8.155   2.075   8.530  0.7818  0.7739  1.2300
  791MOL0     C 6688   8.019   2.011   8.505 -0.2549  0.2873 -0.6336
  791MOL0     C 6689   7.998   1.885   8.592  0.2512 -0.5491 -0.0315
  791MOL0     C 6690   7.889   1.791   8.547  0.4285  0.0442 -0.6083
  791MOL0     C 6691   7.886   1.674   8.644 -0.3023  0.0250  0.5625
  791MOL0     C 6692   7.825   1.540   8.595  0.0208  0.4700 -0.5514
  791MOL0     C 6693   7.903   1.478   8.478 -0.5591 -0.4650 -0.4446
  791MOL0     C 6694   7.804   1.396   8.408  0.7406  0.9981  0.1720
  791MOL0    Cl 6695   7.764   1.242   8.489 -0.2822  0.3882  0.0782
  791MOL0     C 6696   8.483   1.991   8.575 -0.1120  0.8745  0.5854
  791MOL0     C 6697   8.601   2.052   8.603  0.1367  0.6438 -0.2326
  791MOL0     O 6698   8.673   2.303   8.798  0.6720 -0.0736  0.1439
  791MOL0     C 6699   9.007   2.255   8.719 -0.6195  0.4157 -1.0375
  791MOL0     C 6700   9.134   2.263   8.769  0.2340  0.1472 -1.0927
  791MOL0     N 6701   9.830   2.518   9.155  0.4292  0.2959  0.0332
  791MOL0     N 6702   9.884   2.628   9.156  0.1554 -0.5257  0.6478
  791MOL0     C 6703  10.437   2.565   8.717 -0.6673  0.8233 -0.2464
  791MOL0     C 6704  10.582   2.565   8.743 -0.6790  0.1743  0.8285
  791MOL0     C 6705  10.990   2.677   8.860  0.7156  0.0022  0.5720
  791MOL0     C 6706  11.072   2.619   8.759  0.1510  0.2969 -0.4525
  791MOL0     C 6707  11.203   2.597   8.787  0.4399  0.8218  0.2944
  791MOL0     C 6708  11.272   2.654   8.896  0.2173 -0.7221  0.0483
  791MOL0     O 6709  11.413   2.657   8.899 -0.7425 -0.0890  0.1555
  791MOL0     C 6710  11.481   2.741   9.000 -0.4961  0.6190 -0.3125
  791MOL0     C 6711  11.631   2.741   8.984 -0.2548  0.6142 -0.4998
  791MOL0     C 6712  11.681   2.605   8.996  0.0214 -0.0823  1.0081
  791MOL0     C 6713  11.840   2.600   8.963  1.5004 -0.5101 -0.0488
  791MOL0     C 6714  11.873   2.587   8.823 -1.0999  0.2633 -0.6255
  791MOL0     C 6715  11.894   2.589   8.706 -0.4421  0.3034 -0.2009
  791MOL0     C 6716  11.185   2.708   8.995  0.5858  0.2020 -1.2501
  791MOL0     C 6717  11.049   2.714   8.978  0.5028 -0.4420 -0.6111
  791MOL0     H 6718  10.670   2.823   8.533  0.6542 -0.8698  0.0459
  791MOL0     H 6719  10.422   2.823   8.509  1.3388 -0.2007 -0.5683
  791MOL0     H 6720  10.221   2.841   8.528  1.7927 -0.6584  0.6391
  791MOL0     H 6721  10.211   2.700   8.408  0.7724 -1.3584  1.4552
  791MOL0     H 6722   9.986   2.799   8.450 -1.5417 -0.5747  1.0156
  791MOL0     H 6723   9.987   2.641   8.536  0.8453 -0.8766  1.2832
  791MOL0     H 6724  10.057   2.760   8.739  1.2049 -0.4568 -0.9359
  791MOL0     H 6725  10.068   2.913   8.657 -0.7568  1.9063 -3.7025
  791MOL0     H 6726   9.822   2.900   8.588  1.5268 -0.5497 -0.5568
  791MOL0     H 6727   9.805   2.768   8.707 -1.4562  1.6703 -1.2726
  791MOL0     H 6728   9.858   3.054   8.778  0.6997 -0.0629 -3.6949
  791MOL0     H 6729   9.723   2.938   8.788  0.1954 -1.1474  0.6232
  791MOL0     H 6730   9.881   2.791   8.921 -2.4429 -0.0855 -2.8990
  791MOL0     H 6731   9.979   2.922   8.943  0.1170 -1.3628 -2.4079
  791MOL0     H 6732   9.803   3.052   9.043  0.1907  0.8568 -1.6918
  791MOL0     H 6733   9.670   2.941   9.013  0.2041  1.4718 -0.3821
  791MOL0     H 6734   9.733   2.917   9.239 -3.2149 -1.5647 -1.4472
  791MOL0     H 6735   9.904   2.898   9.210 -1.0963  1.9257  3.0996
  791MOL0     H 6736   9.570   2.717   9.164  0.1977 -1.4709  0.6590
  791MOL0     H 6737   9.625   2.348   9.247 -4.2226 -1.3007  1.3585
  791MOL0     H 6738   9.491   2.446   9.210 -0.2841 -2.9711  2.1538
  791MOL0     H 6739   9.514   2.255   9.078  0.8436  0.1826 -0.4068
  791MOL0     H 6740   9.685   2.294   9.026  1.6677  0.2347  2.4591
  791MOL0     H 6741   9.596   2.440   8.863  1.4063 -0.2301  0.6183
  791MOL0     H 6742   9.482   2.509   8.979  1.0289 -1.0418  2.9618
  791MOL0     H 6743   9.418   2.239   8.868 -1.8051 -0.7726 -0.3458
  791MOL0     H 6744   9.393   2.380   8.763 -0.6332 -0.2106  0.7975
  791MOL0     H 6745   9.092   2.471   9.018  3.2423 -0.9138  0.5631
  791MOL0     H 6746   8.822   2.594   8.940 -0.6770  1.4573  4.1310
  791MOL0     H 6747   8.724   2.456   8.952  0.0931  0.9972 -0.0609
  791MOL0     H 6748   8.852   2.501   9.071 -0.4856  1.4263 -0.5866
  791MOL0     H 6749   8.561   2.343   8.435  0.6685  1.2624  1.8681
  791MOL0     H 6750   8.369   2.231   8.355 -2.6778 -2.4234  1.0214
  791MOL0     H 6751   8.164   2.080   8.638  0.0693  2.3018  1.2424
  791MOL0     H 6752   8.153   2.176   8.489  1.5010  0.8756  1.4497
  791MOL0     H 6753   7.938   2.080   8.528 -1.4179  0.1240 -3.8175
  791MOL0     H 6754   8.002   1.981   8.401 -0.1457 -2.4552  0.0513
  791MOL0     H 6755   7.982   1.912   8.696  0.0302  0.1820 -0.2495
  791MOL0     H 6756   8.091   1.827   8.586  0.4812 -0.0867 -1.1971
  791MOL0     H 6757   7.788   1.832   8.552 -0.1857 -1.5512  3.2690
  791MOL0     H 6758   7.920   1.754   8.449 -0.0902 -1.8621 -0.0762
  791MOL0     H 6759   7.838   1.700   8.739 -0.1564 -3.3439  1.6802
  791MOL0     H 6760   7.988   1.650   8.675 -2.2938 -6.3561  3.6767
  791MOL0     H 6761   7.825   1.471   8.680 -0.1447  2.1993  0.9098
  791MOL0     H 6762   7.724   1.567   8.562 -0.5633 -2.0455 -1.0185
  791MOL0     H 6763   7.980   1.405   8.504  2.4792  2.1454 -1.3168
  791MOL0     H 6764   7.938   1.559   8.413  0.1163 -2.4332 -2.6928
  791MOL0     H 6765   7.856   1.371   8.315  0.2150  0.0768  0.1150
  791MOL0     H 6766   7.711   1.447   8.382  0.1677 -1.0992 -2.2910
  791MOL0     H 6767   8.452   1.893   8.610  0.0319  0.7401  0.3392
  791MOL0     H 6768   8.677   2.003   8.663 -1.7210 -0.7450  1.0924
  791MOL0     H 6769   8.991   2.180   8.642  1.5700 -1.1337 -0.0655
  791MOL0     H 6770   9.213   2.199   8.728  1.3088 -0.1990  1.3440
  791MOL0     H 6771  10.379   2.484   8.762 -1.2199 -1.5831 -4.7093
  791MOL0     H 6772  10.638   2.503   8.812  1.2629  1.8072  0.8180
  791MOL0     H 6773  11.039   2.577   8.664  1.7693  0.7549 -1.2557
  791MOL0     H 6774  11.250   2.543   8.706  1.6582  0.3374  1.3018
  791MOL0     H 6775  11.452   2.846   8.996  1.3485  1.1596 -0.7441
  791MOL0     H 6776  11.462   2.694   9.097 -1.0217 -2.9776 -1.9825
  791MOL0     H 6777  11.684   2.790   9.067  0.7923 -2.7417  0.9607
  791MOL0     H 6778  11.651   2.780   8.884  1.8950  0.0525 -0.3333
  791MOL0     H 6779  11.620   2.537   8.936 -0.0937 -0.4447  1.5244
  791MOL0     H 6780  11.671   2.576   9.101 -0.4558  2.8890  1.8695
  791MOL0     H 6781  11.869   2.512   9.022 -0.3912  0.4410  2.4717
  791MOL0     H 6782  11.881   2.691   9.008 -2.2725 -0.8243  4.9714
  791MOL0     H 6783  11.908   2.589   8.599 -3.3368  1.8799 -0.6868
  791MOL0     H 6784  11.212   2.749   9.092 -0.6143 -1.5880 -0.1073
  791MOL0     H 6785  10.983   2.737   9.061  3.3862  0.2661  1.6648
  792MOL0     O 6786   3.657   0.019   3.445  0.1985 -0.6792 -0.8630
  792MOL0     C 6787   3.675   0.084   3.550  0.5137  0.8357 -0.9205
  792MOL0     O 6788   3.796   0.137   3.594 -1.2293 -0.5613 -0.3778
  792MOL0     C 6789   3.919   0.105   3.533  0.3979 -1.0202  0.2296
  792MOL0     C 6790   3.946  -0.013   3.458 -0.4038  0.6107 -0.2218
  792MOL0     C 6791   4.070  -0.032   3.390 -0.0223 -0.2462  0.8235
  792MOL0     C 6792   4.177   0.063   3.408 -0.2121  0.4726  0.1114
  792MOL0     O 6793   4.292   0.064   3.328  0.0309 -0.0095 -0.1978
  792MOL0     C 6794   4.376  -0.048   3.363  1.1951  0.6294 -0.1869
  792MOL0     C 6795   4.507  -0.024   3.296 -0.2135  0.1123 -0.1439
  792MOL0     C 6796   4.578   0.103   3.345  0.6531  0.1124 -0.0736
  792MOL0     C 6797   4.602   0.119   3.503  1.5210 -0.6711  0.0681
  792MOL0     C 6798   4.689   0.241   3.540 -0.1731 -0.0523 -0.1606
  792MOL0     C 6799   4.827   0.207   3.602  0.6292 -0.4420  0.2761
  792MOL0     C 6800   4.914   0.122   3.511  0.0461 -0.9167 -0.3393
  792MOL0     C 6801   5.058   0.133   3.547 -0.2460 -0.3584  0.4950
  792MOL0     N 6802   5.093   0.021   3.638  0.0192  0.4022  0.4938
  792MOL0     C 6803   5.201   0.016   3.720  0.0106 -0.0838  0.2860
  792MOL0     C 6804   5.199  -0.105   3.767  0.0764 -1.3364  0.4339
  792MOL0     C 6805   5.303  -0.159   3.863 -0.1834 -0.7766  0.3028
  792MOL0     C 6806   5.259  -0.132   4.004  0.6537  0.4426 -0.6611
  792MOL0     C 6807   5.122  -0.180   4.047 -0.0911  0.3529 -0.0293
  792MOL0     C 6808   5.107  -0.173   4.192  0.0754  0.3673 -0.4402
  792MOL0     O 6809   5.159  -0.292   4.251  0.3665 -0.1820 -0.0258
  792MOL0     C 6810   5.115  -0.322   4.381  0.5065  0.2944  0.0775
  792MOL0     C 6811   5.036  -0.238   4.464 -0.3670 -0.4563 -0.8590
  792MOL0     C 6812   5.018  -0.281   4.603 -0.3057 -0.1950 -0.2171
  792MOL0     C 6813   4.952  -0.177   4.700  0.2879  0.1159  0.1331
  792MOL0     C 6814   5.064  -0.411   4.648 -0.2440 -0.3638  0.0302
  792MOL0     C 6815   5.060  -0.468   4.783 -0.0489  0.0589  0.5243
  792MOL0     O 6816   4.936  -0.460   4.855 -0.1048  0.0951  0.2882
  792MOL0     C 6817   4.891  -0.567   4.938 -0.1304  0.2099  0.3883
  792MOL0     C 6818   4.784  -0.528   5.018  0.4020  0.4209  0.5018
  792MOL0     C 6819   4.728  -0.620   5.110  0.2337  0.7949 -0.1334
  792MOL0     C 6820   4.787  -0.748   5.112  0.3831  0.0267 -0.1135
  792MOL0     O 6821   4.734  -0.826   5.209 -0.0543 -0.3836 -0.4665
  792MOL0     C 6822   4.688  -0.950   5.169 -0.1056  0.2962  0.5868
  792MOL0     C 6823   4.606  -1.004   5.277  0.5002  0.1265 -0.2050
  792MOL0     C 6824   4.529  -1.125   5.238 -0.6285 -0.4824  1.0887
  792MOL0     C 6825   4.605  -1.257   5.252  0.3593 -0.0149 -0.0911
  792MOL0     C 6826   4.507  -1.374   5.269 -0.1875 -0.1782  0.3601
  792MOL0     C 6827   4.582  -1.511   5.285 -0.4865 -0.4247  0.5262
  792MOL0     C 6828   4.637  -1.550   5.148  0.8786  0.0892 -0.9032
  792MOL0     C 6829   4.741  -1.666   5.173 -0.4374 -0.4708  0.0856
  792MOL0    Cl 6830   4.673  -1.821   5.232 -0.0702 -0.0225 -0.1624
  792MOL0     C 6831   4.888  -0.792   5.022  0.4112 -0.2547  0.3979
  792MOL0     C 6832   4.941  -0.695   4.939  0.7398  0.2441  0.8687
  792MOL0     O 6833   5.165  -0.521   4.826 -0.3517 -0.2700  0.1503
  792MOL0     C 6834   5.129  -0.491   4.546  0.4679 -0.4686 -0.5570
  792MOL0     C 6835   5.153  -0.450   4.422  0.2190  0.5928  0.5830
  792MOL0     N 6836   5.099  -0.188   3.713 -0.3179 -0.1824  0.6298
  792MOL0     N 6837   5.027  -0.102   3.643 -0.5260  0.3865 -0.3442
  792MOL0     C 6838   4.153   0.176   3.491  0.6638 -0.1470 -0.1118
  792MOL0     C 6839   4.024   0.196   3.547 -0.4579 -1.1523 -0.1188
  792MOL0     C 6840   3.562   0.078   3.644 -0.3708  0.0253  0.2159
  792MOL0     C 6841   3.573   0.121   3.775  0.5110 -0.1468 -0.0270
  792MOL0     C 6842   3.456   0.131   3.862  0.1031 -0.1178  0.3995
  792MOL0     C 6843   3.327   0.115   3.813  0.4202 -0.3989  0.3188
  792MOL0     O 6844   3.217   0.121   3.899 -0.0455  0.0946  0.5620
  792MOL0     C 6845   3.087   0.117   3.837  0.3801  0.2049  0.3439
  792MOL0     C 6846   2.980   0.177   3.929 -0.1648  0.7909  0.7634
  792MOL0     C 6847   2.915   0.069   4.017 -0.3358 -0.6674 -0.0877
  792MOL0     C 6848   2.828   0.137   4.124 -0.3811  0.3520 -0.3513
  792MOL0     C 6849   2.897   0.231   4.207  0.4006 -0.1861 -0.5516
  792MOL0     C 6850   2.929   0.308   4.294 -0.9881  0.3051  0.3487
  792MOL0     C 6851   3.319   0.070   3.679  0.3718  0.1799  0.2672
  792MOL0     C 6852   3.428   0.047   3.597 -1.1176  0.5738 -0.3116
  792MOL0     H 6853   3.869  -0.090   3.448 -1.0456  0.9939  1.3869
  792MOL0     H 6854   4.075  -0.119   3.325 -0.4457 -0.8085  1.5287
  792MOL0     H 6855   4.396  -0.052   3.470  1.0917  1.5134 -0.1311
  792MOL0     H 6856   4.334  -0.145   3.333  2.1887 -0.3756  1.5218
  792MOL0     H 6857   4.568  -0.111   3.324 -4.1310 -2.2638  2.0063
  792MOL0     H 6858   4.508  -0.018   3.187  0.1266 -4.5449 -0.6278
  792MOL0     H 6859   4.678   0.103   3.302 -0.5683  2.3953 -3.2604
  792MOL0     H 6860   4.521   0.189   3.309  1.8950  0.6481 -0.8096
  792MOL0     H 6861   4.502   0.128   3.545  0.3252 -1.5977 -2.3533
  792MOL0     H 6862   4.648   0.024   3.532  1.2507 -1.0146 -0.5991
  792MOL0     H 6863   4.692   0.304   3.451 -2.9727  1.1514  0.4883
  792MOL0     H 6864   4.634   0.305   3.609 -1.5424 -0.5290 -0.7837
  792MOL0     H 6865   4.864   0.307   3.626 -0.0260  0.0934 -0.8623
  792MOL0     H 6866   4.803   0.145   3.690 -0.7356  0.1950  0.3789
  792MOL0     H 6867   4.889   0.016   3.515  2.6732 -1.5934  0.4970
  792MOL0     H 6868   4.892   0.139   3.405  0.6746 -2.2323 -0.7103
  792MOL0     H 6869   5.083   0.228   3.595 -2.5010  0.0711  0.9418
  792MOL0     H 6870   5.103   0.124   3.447  1.0137 -1.8769  1.1480
  792MOL0     H 6871   5.286   0.084   3.717 -1.2378  1.5455 -2.5825
  792MOL0     H 6872   5.324  -0.263   3.837 -1.4002 -1.1116  0.5836
  792MOL0     H 6873   5.397  -0.105   3.853 -1.9318  2.3164 -0.6072
  792MOL0     H 6874   5.251  -0.024   4.018  0.6906  0.3966 -0.2852
  792MOL0     H 6875   5.333  -0.165   4.078  0.2834  3.6872  1.3507
  792MOL0     H 6876   5.117  -0.281   4.005 -0.1917  0.8005 -1.1412
  792MOL0     H 6877   5.043  -0.127   3.992 -0.4274 -0.7540 -0.6499
  792MOL0     H 6878   4.998  -0.175   4.203 -0.1071 -3.3231 -1.4487
  792MOL0     H 6879   5.146  -0.079   4.232  0.4368 -0.7651  2.0467
  792MOL0     H 6880   5.010  -0.143   4.420  0.1228 -0.0950 -0.3859
  792MOL0     H 6881   5.021  -0.137   4.775 -0.5698  1.1866  0.3761
  792MOL0     H 6882   4.906  -0.101   4.636 -0.9917 -4.0145 -4.4672
  792MOL0     H 6883   4.873  -0.234   4.751 -0.9525  1.6602  0.0091
  792MOL0     H 6884   4.738  -0.433   4.993  1.8009  1.0053  0.0597
  792MOL0     H 6885   4.650  -0.599   5.181  0.6449  0.4575  0.4249
  792MOL0     H 6886   4.630  -0.955   5.076 -0.2662 -1.7702  0.7457
  792MOL0     H 6887   4.773  -1.016   5.149 -2.0254 -1.9926 -0.5813
  792MOL0     H 6888   4.669  -1.018   5.365  0.4016 -1.8860 -0.4092
  792MOL0     H 6889   4.529  -0.929   5.298 -2.1964 -0.7811 -5.1696
  792MOL0     H 6890   4.501  -1.116   5.133 -0.9499 -0.2415  1.1948
  792MOL0     H 6891   4.434  -1.135   5.292 -1.9204 -0.6144 -1.1167
  792MOL0     H 6892   4.678  -1.277   5.173 -0.0169  0.7506 -0.6458
  792MOL0     H 6893   4.666  -1.244   5.342 -0.0279  0.1895  0.1439
  792MOL0     H 6894   4.455  -1.382   5.173 -0.4536  1.5276  0.3355
  792MOL0     H 6895   4.441  -1.360   5.354 -0.3705 -0.5674  0.2842
  792MOL0     H 6896   4.655  -1.498   5.366 -0.1797 -1.7889  0.4862
  792MOL0     H 6897   4.518  -1.598   5.304  1.2295 -1.6154  1.0902
  792MOL0     H 6898   4.679  -1.466   5.093  1.0992  0.7020  0.1688
  792MOL0     H 6899   4.557  -1.603   5.095 -3.2986  3.3820  1.4838
  792MOL0     H 6900   4.799  -1.636   5.261  0.7786 -0.5750 -0.6685
  792MOL0     H 6901   4.814  -1.671   5.092 -2.3846 -2.3922 -1.6622
  792MOL0     H 6902   4.930  -0.891   5.037 -0.7952 -1.4170 -2.9568
  792MOL0     H 6903   5.016  -0.735   4.872  0.8990 -0.2286  1.3230
  792MOL0     H 6904   5.157  -0.594   4.565 -2.7140 -1.0536  1.8030
  792MOL0     H 6905   5.213  -0.508   4.352  0.0962 -1.7873  2.3329
  792MOL0     H 6906   4.229   0.252   3.504 -0.7965  2.1721 -3.5838
  792MOL0     H 6907   4.005   0.280   3.614  0.7880 -0.1977 -0.9063
  792MOL0     H 6908   3.664   0.162   3.817 -0.6736  1.2487  1.2866
  792MOL0     H 6909   3.453   0.161   3.967 -0.1306 -0.7494  0.5777
  792MOL0     H 6910   3.081   0.181   3.749 -1.5182 -0.2717  0.0752
  792MOL0     H 6911   3.059   0.020   3.796 -3.0189  1.6459 -1.0843
  792MOL0     H 6912   2.895   0.207   3.867 -0.4909  0.4996  1.0680
  792MOL0     H 6913   3.022   0.261   3.985  1.3697  1.0739 -0.7377
  792MOL0     H 6914   2.998   0.018   4.067 -0.6724 -2.7096 -1.4906
  792MOL0     H 6915   2.849   0.001   3.963 -0.4912  0.0164 -0.7612
  792MOL0     H 6916   2.770   0.063   4.181 -0.6966  1.6468  1.0704
  792MOL0     H 6917   2.753   0.197   4.073  1.1976  2.1484 -0.6848
  792MOL0     H 6918   2.944   0.374   4.377 -3.9482  1.1934  0.2950
  792MOL0     H 6919   3.223   0.034   3.642 -0.9375  3.6505 -0.1082
  792MOL0     H 6920   3.398   0.001   3.503 -0.0302 -0.4908 -0.1687
  793MOL0     O 6921  10.448   4.043   2.488  0.2711  0.1693  0.5922
  793MOL0     C 6922  10.447   4.140   2.561 -0.5515 -0.9325  0.7136
  793MOL0     O 6923  10.338   4.185   2.631  0.8430 -0.0873 -0.3020
  793MOL0     C 6924  10.221   4.107   2.628 -1.4857  0.1542  0.1484
  793MOL0     C 6925  10.206   3.996   2.710 -0.8017 -1.3342  0.5509
  793MOL0     C 6926  10.079   3.939   2.713  0.2578  0.0696 -0.0253
  793MOL0     C 6927   9.977   3.969   2.627 -0.3681 -0.5074  0.2819
  793MOL0     O 6928   9.864   3.897   2.610  0.0750  0.2482 -0.5610
  793MOL0     C 6929   9.780   3.904   2.721 -0.4962 -0.7002 -0.2404
  793MOL0     C 6930   9.658   3.817   2.690  0.1585 -0.6090  0.4480
  793MOL0     C 6931   9.563   3.854   2.577  0.2023 -1.1479  0.2566
  793MOL0     C 6932   9.442   3.754   2.572  0.3629  0.6729 -0.6216
  793MOL0     C 6933   9.449   3.636   2.479 -1.5328  0.4739 -0.7160
  793MOL0     C 6934   9.480   3.681   2.337 -0.3725  0.3707  0.0595
  793MOL0     C 6935   9.628   3.669   2.305  0.7585  0.6410  0.1069
  793MOL0     C 6936   9.671   3.754   2.185 -0.2632  0.3157 -0.6791
  793MOL0     N 6937   9.812   3.753   2.159 -0.6469 -0.0239  0.2172
  793MOL0     C 6938   9.919   3.752   2.251  0.3516 -0.1714 -0.0553
  793MOL0     C 6939  10.025   3.721   2.170  0.3986 -0.1176 -0.0349
  793MOL0     C 6940  10.170   3.712   2.216  0.4548  0.5241 -0.9152
  793MOL0     C 6941  10.234   3.851   2.207 -0.1651  1.4069 -0.1936
  793MOL0     C 6942  10.220   3.910   2.067 -0.5538 -0.4628  0.3239
  793MOL0     C 6943  10.298   4.041   2.048  1.2439  0.7633 -0.4998
  793MOL0     O 6944  10.265   4.126   1.929 -0.4309  0.3414 -0.4444
  793MOL0     C 6945  10.362   4.140   1.837 -0.3853 -0.0458  0.4741
  793MOL0     C 6946  10.405   4.030   1.765 -0.3012 -1.2047 -1.0117
  793MOL0     C 6947  10.527   4.031   1.691 -0.6231 -0.2798  0.4473
  793MOL0     C 6948  10.572   3.905   1.619  0.1854 -0.4283  0.3604
  793MOL0     C 6949  10.604   4.147   1.689  0.0835  0.1028 -0.4975
  793MOL0     C 6950  10.735   4.142   1.627  0.2402 -0.2617  0.3943
  793MOL0     O 6951  10.846   4.126   1.702  0.2670  0.0316  0.1645
  793MOL0     C 6952  10.969   4.101   1.643 -0.0561  0.3880  0.4305
  793MOL0     C 6953  11.044   4.204   1.589  0.1619  0.5826 -0.3253
  793MOL0     C 6954  11.176   4.188   1.547  0.0140  0.1388 -0.2007
  793MOL0     C 6955  11.235   4.064   1.546 -0.9813 -0.9048 -0.0205
  793MOL0     O 6956  11.365   4.046   1.524 -0.4676 -0.6516  0.3653
  793MOL0     C 6957  11.424   4.138   1.442 -0.3317 -0.5282 -0.1314
  793MOL0     C 6958  11.537   4.071   1.371  0.1323  0.3486 -0.6635
  793MOL0     C 6959  11.644   4.179   1.328 -0.1947  0.1677 -1.1416
  793MOL0     C 6960  11.741   4.108   1.242 -1.1664 -0.1285 -0.8618
  793MOL0     C 6961  11.880   4.188   1.231  0.0901  0.0578  0.5780
  793MOL0     C 6962  11.855   4.316   1.143  0.5866 -0.6960 -0.2886
  793MOL0     C 6963  11.984   4.388   1.122  0.9459 -1.2620  0.0386
  793MOL0     C 6964  11.966   4.521   1.047 -0.2826 -0.3309  0.0582
  793MOL0    Cl 6965  12.116   4.600   1.070 -0.3238 -0.0690 -0.0381
  793MOL0     C 6966  11.158   3.958   1.589  0.1705 -0.7156 -0.6105
  793MOL0     C 6967  11.029   3.977   1.638 -0.2600 -0.0720 -0.2819
  793MOL0     O 6968  10.734   4.153   1.505 -0.4103 -0.0015  0.4142
  793MOL0     C 6969  10.556   4.264   1.751  0.4582 -0.1172  0.0579
  793MOL0     C 6970  10.433   4.262   1.820 -0.4691  0.3484 -0.2882
  793MOL0     N 6971   9.982   3.700   2.040  0.3306  0.7804  0.6291
  793MOL0     N 6972   9.855   3.732   2.037 -0.2393 -0.5862  0.6487
  793MOL0     C 6973  10.007   4.076   2.536  0.5850 -0.5004  0.5722
  793MOL0     C 6974  10.123   4.150   2.540  0.1268  0.2312  0.5510
  793MOL0     C 6975  10.565   4.237   2.558 -0.5207  0.2997  0.1377
  793MOL0     C 6976  10.568   4.341   2.652  0.3467 -0.3170 -0.2831
  793MOL0     C 6977  10.658   4.449   2.634 -0.1725 -0.0018 -0.7617
  793MOL0     C 6978  10.750   4.456   2.530 -1.2280 -0.4278  0.3630
  793MOL0     O 6979  10.820   4.568   2.514  0.4230 -0.9843  0.4060
  793MOL0     C 6980  10.961   4.560   2.476  0.3018  0.6068 -0.7012
  793MOL0     C 6981  11.039   4.521   2.606 -0.0132  0.2086 -0.3811
  793MOL0     C 6982  11.188   4.545   2.595 -0.0358  0.4663 -0.3723
  793MOL0     C 6983  11.202   4.698   2.586 -0.2524 -0.5110 -0.1222
  793MOL0     C 6984  11.340   4.746   2.611 -0.4475  0.4088  1.0611
  793MOL0     C 6985  11.454   4.792   2.611 -0.1809 -0.3935 -0.1839
  793MOL0     C 6986  10.753   4.342   2.450 -0.7463 -0.7544  0.1405
  793MOL0     C 6987  10.673   4.231   2.464  0.3900 -0.0292 -0.2460
  793MOL0     H 6988  10.290   3.968   2.772  0.5839 -0.3588 -0.8053
  793MOL0     H 6989  10.069   3.871   2.797 -0.4477  1.0897  0.7359
  793MOL0     H 6990   9.830   3.863   2.810 -1.3520 -0.2225  0.4851
  793MOL0     H 6991   9.751   4.007   2.743 -2.8939 -0.9155 -2.0413
  793MOL0     H 6992   9.697   3.717   2.668 -0.3873 -1.3824  2.7150
  793MOL0     H 6993   9.598   3.808   2.781  1.5951  0.4676  1.5610
  793MOL0     H 6994   9.510   3.947   2.601 -0.6947 -1.6466  0.2635
  793MOL0     H 6995   9.613   3.871   2.481  2.1098 -3.0206  0.8545
  793MOL0     H 6996   9.415   3.713   2.670 -0.1319 -0.3859 -1.1823
  793MOL0     H 6997   9.355   3.815   2.549 -1.8205 -1.3038  1.7629
  793MOL0     H 6998   9.539   3.580   2.503 -1.0463  0.6851 -1.9649
  793MOL0     H 6999   9.365   3.568   2.493 -0.9988 -0.1427 -0.4575
  793MOL0     H 7000   9.429   3.620   2.262 -0.8059  1.9677 -1.0046
  793MOL0     H 7001   9.440   3.782   2.323 -2.8567 -0.5644  0.0510
  793MOL0     H 7002   9.675   3.693   2.400 -2.9003  3.6344  1.4007
  793MOL0     H 7003   9.649   3.568   2.269  0.9667  0.3206  1.0996
  793MOL0     H 7004   9.639   3.857   2.206 -0.2468  0.0064  1.0292
  793MOL0     H 7005   9.615   3.733   2.093  0.1058  0.4173 -0.9291
  793MOL0     H 7006   9.900   3.786   2.353 -1.5846 -0.7309 -0.1827
  793MOL0     H 7007  10.166   3.682   2.321 -1.0813  1.5921 -0.6339
  793MOL0     H 7008  10.229   3.638   2.160  1.6900 -0.3710  1.4282
  793MOL0     H 7009  10.340   3.833   2.223 -0.2540  1.0325 -0.0085
  793MOL0     H 7010  10.192   3.908   2.291 -2.8719 -0.3366 -0.2296
  793MOL0     H 7011  10.112   3.927   2.056 -0.9586 -2.5888  0.6886
  793MOL0     H 7012  10.258   3.850   1.984  2.0135  2.1516 -0.5500
  793MOL0     H 7013  10.404   4.015   2.046  1.2182  0.5457 -3.4253
  793MOL0     H 7014  10.276   4.107   2.132  2.1250  1.8121 -1.0637
  793MOL0     H 7015  10.351   3.939   1.790 -1.2205 -0.1731  0.9156
  793MOL0     H 7016  10.628   3.842   1.689  2.0414 -1.1803 -1.6896
  793MOL0     H 7017  10.494   3.842   1.576  0.4568  0.1673 -1.0687
  793MOL0     H 7018  10.642   3.918   1.536 -0.1506  0.5591  0.2152
  793MOL0     H 7019  10.984   4.293   1.573 -1.3168 -0.8424 -3.6596
  793MOL0     H 7020  11.227   4.274   1.505 -0.8090  1.2342  0.9889
  793MOL0     H 7021  11.361   4.193   1.371  0.0073  1.0434  0.7286
  793MOL0     H 7022  11.468   4.219   1.501  2.0507 -0.8699 -1.3186
  793MOL0     H 7023  11.588   4.001   1.439 -0.3822  1.7599  1.2507
  793MOL0     H 7024  11.503   4.019   1.281 -0.7899  3.0167 -1.9626
  793MOL0     H 7025  11.687   4.211   1.423  0.1003 -0.1012 -1.1823
  793MOL0     H 7026  11.601   4.259   1.267  0.3070  0.3338 -1.2817
  793MOL0     H 7027  11.766   4.015   1.294 -0.1127  1.3790  1.4995
  793MOL0     H 7028  11.695   4.081   1.146  1.1275 -1.4438 -1.6742
  793MOL0     H 7029  11.958   4.122   1.194 -1.4461 -0.6646 -1.5522
  793MOL0     H 7030  11.911   4.207   1.335 -1.9473 -1.3769  1.5180
  793MOL0     H 7031  11.832   4.267   1.048 -1.2625  0.7311 -0.6265
  793MOL0     H 7032  11.769   4.380   1.164 -1.7409 -4.0100  1.1192
  793MOL0     H 7033  12.068   4.343   1.068  1.8807  1.5384 -1.0356
  793MOL0     H 7034  12.026   4.409   1.221 -0.2361  0.9222  0.1574
  793MOL0     H 7035  11.897   4.592   1.093  1.4284  1.0547  0.5889
  793MOL0     H 7036  11.949   4.500   0.940 -1.0274  0.4181  0.0217
  793MOL0     H 7037  11.190   3.855   1.572 -2.1441 -1.6382  0.1922
  793MOL0     H 7038  10.980   3.892   1.683  1.7800 -2.4983 -2.2947
  793MOL0     H 7039  10.614   4.356   1.749 -0.0235  0.1765 -1.5246
  793MOL0     H 7040  10.397   4.328   1.898 -0.6881 -1.3571  1.0870
  793MOL0     H 7041   9.933   4.106   2.462  1.6107 -0.8954 -0.6540
  793MOL0     H 7042  10.125   4.236   2.474  1.5504 -0.0871  0.1475
  793MOL0     H 7043  10.493   4.349   2.729  1.0376 -1.3386  0.5298
  793MOL0     H 7044  10.659   4.527   2.709  3.7376 -0.8263  0.2564
  793MOL0     H 7045  10.982   4.489   2.396  1.2815  0.4406 -0.3142
  793MOL0     H 7046  10.991   4.658   2.438 -1.8654  1.6248  0.0311
  793MOL0     H 7047  11.026   4.413   2.618  1.0920 -0.0405 -1.2142
  793MOL0     H 7048  10.992   4.574   2.689 -0.3903 -1.1946  0.3334
  793MOL0     H 7049  11.232   4.494   2.509 -3.0243 -2.4924 -0.3451
  793MOL0     H 7050  11.235   4.502   2.684  2.0497 -0.5432 -1.8775
  793MOL0     H 7051  11.131   4.738   2.659  0.9625 -0.8901  1.3202
  793MOL0     H 7052  11.190   4.722   2.480  2.2879 -0.2869 -0.4319
  793MOL0     H 7053  11.547   4.845   2.608  0.2644 -0.9617  1.7506
  793MOL0     H 7054  10.822   4.346   2.367 -1.1781 -0.5224 -0.2101
  793MOL0     H 7055  10.677   4.145   2.398  0.4839 -0.3031  0.1133
  794MOL0     O 7056   9.246   9.475   8.599 -0.3462 -0.2772 -0.5027
  794MOL0     C 7057   9.354   9.461   8.664  0.2669 -1.1224  1.2492
  794MOL0     O 7058   9.373   9.481   8.797 -0.1075 -0.3230  0.2783
  794MOL0     C 7059   9.299   9.554   8.881  0.4489  0.2599  0.4102
  794MOL0     C 7060   9.219   9.662   8.835  0.3533 -1.7416 -0.3864
  794MOL0     C 7061   9.170   9.753   8.930  0.7280 -0.7727 -0.2804
  794MOL0     C 7062   9.182   9.731   9.069  0.5563 -0.5430  0.0892
  794MOL0     O 7063   9.123   9.815   9.163  0.0433  0.0858 -0.5293
  794MOL0     C 7064   8.996   9.872   9.120 -0.0550  0.2385 -0.9524
  794MOL0     C 7065   8.936   9.965   9.221  0.1773  0.1174  0.0953
  794MOL0     C 7066   8.804  10.039   9.187  0.4603  0.2385  1.3088
  794MOL0     C 7067   8.682   9.944   9.191  0.5068  0.2060  0.9054
  794MOL0     C 7068   8.561   9.997   9.123  0.2304  0.6394  0.0411
  794MOL0     C 7069   8.432   9.945   9.194  0.0209  0.4841  0.1460
  794MOL0     C 7070   8.305   9.944   9.103  0.0963  0.1998 -0.5482
  794MOL0     C 7071   8.257  10.085   9.056  0.8526  1.6721  0.1133
  794MOL0     N 7072   8.205  10.179   9.157  0.0130  0.3765  0.7646
  794MOL0     C 7073   8.068  10.184   9.173  0.6211 -0.2783  0.5455
  794MOL0     C 7074   8.039  10.304   9.220 -0.3753  0.2107 -0.3227
  794MOL0     C 7075   7.918  10.355   9.270  0.0392 -0.4787  0.5193
  794MOL0     C 7076   7.845  10.266   9.382  0.0947 -0.3427 -0.5338
  794MOL0     C 7077   7.695  10.306   9.391 -0.3770 -0.4088 -0.3814
  794MOL0     C 7078   7.610  10.227   9.495 -0.8781 -0.3121 -0.4637
  794MOL0     O 7079   7.468  10.239   9.475  0.0089  0.1018 -0.6873
  794MOL0     C 7080   7.379  10.197   9.567  0.1441  0.9113 -0.1523
  794MOL0     C 7081   7.247  10.178   9.522  0.2371 -0.4139  0.3820
  794MOL0     C 7082   7.157  10.113   9.598 -0.5745  0.5681  0.1914
  794MOL0     C 7083   7.020  10.102   9.541 -0.1919 -0.1665 -0.3852
  794MOL0     C 7084   7.197  10.058   9.718 -0.5573  0.7628  0.2587
  794MOL0     C 7085   7.104   9.987   9.812 -0.6716  0.3368 -1.3083
  794MOL0     O 7086   7.157   9.973   9.939 -0.5329  0.3927 -0.2968
  794MOL0     C 7087   7.074   9.925  10.043 -0.3016 -1.6809 -0.6631
  794MOL0     C 7088   7.087   9.797  10.092 -0.7984  0.1189 -0.0798
  794MOL0     C 7089   6.995   9.746  10.180  0.4537  0.4340 -1.1801
  794MOL0     C 7090   6.888   9.813  10.220 -0.1392 -0.3345  0.0155
  794MOL0     O 7091   6.802   9.732  10.284 -0.1383 -0.5011  0.1091
  794MOL0     C 7092   6.666   9.769  10.321  0.5419 -0.0560  0.7468
  794MOL0     C 7093   6.664   9.847  10.456  1.1452 -0.5534  0.1700
  794MOL0     C 7094   6.514   9.875  10.503  0.2898 -0.2597  0.9862
  794MOL0     C 7095   6.461   9.744  10.567  0.7028 -0.1387  0.1183
  794MOL0     C 7096   6.316   9.763  10.621  0.2466  0.0179 -0.4710
  794MOL0     C 7097   6.208   9.788  10.508 -0.0771 -0.2575 -0.2608
  794MOL0     C 7098   6.056   9.815  10.550 -1.0101  0.1526 -0.1376
  794MOL0     C 7099   6.013   9.931  10.461 -0.0581 -0.0571 -0.3057
  794MOL0    Cl 7100   5.955   9.868  10.309  0.1944 -0.2220 -0.0405
  794MOL0     C 7101   6.875   9.945  10.175 -0.6854 -0.4642 -0.2491
  794MOL0     C 7102   6.965  10.006  10.081  0.0294 -0.1861 -0.3693
  794MOL0     O 7103   6.995   9.944   9.771 -0.7907  1.1417 -0.0967
  794MOL0     C 7104   7.331  10.068   9.757  0.3902  0.4495 -0.6316
  794MOL0     C 7105   7.421  10.144   9.687 -0.3154  0.4800 -0.9447
  794MOL0     N 7106   8.165  10.360   9.239 -0.1999  0.7895  0.2799
  794MOL0     N 7107   8.262  10.289   9.208 -0.6990  0.0932  0.1670
  794MOL0     C 7108   9.236   9.612   9.111 -0.8094 -0.2710 -0.4226
  794MOL0     C 7109   9.307   9.530   9.019 -0.0647  0.2958 -0.6993
  794MOL0     C 7110   9.477   9.406   8.599 -0.0107 -0.2292  0.1731
  794MOL0     C 7111   9.608   9.404   8.660  0.2208 -0.7351 -0.6010
  794MOL0     C 7112   9.715   9.337   8.605 -0.7934  0.1569 -0.3820
  794MOL0     C 7113   9.698   9.280   8.477  0.2467  0.0677 -1.0799
  794MOL0     O 7114   9.799   9.233   8.404 -0.3470 -0.2329  0.0562
  794MOL0     C 7115   9.930   9.242   8.455 -1.0611 -0.1310 -0.6233
  794MOL0     C 7116  10.033   9.201   8.361 -0.0955 -0.8406 -0.9962
  794MOL0     C 7117  10.065   9.311   8.250 -0.2648  0.1290 -0.6995
  794MOL0     C 7118   9.954   9.351   8.163  0.5403  0.6596 -0.1756
  794MOL0     C 7119  10.011   9.439   8.057  0.0402  0.1407  0.5112
  794MOL0     C 7120  10.062   9.498   7.967  0.0878 -0.2964  0.7423
  794MOL0     C 7121   9.571   9.288   8.410 -0.6132  0.7383  0.8128
  794MOL0     C 7122   9.466   9.355   8.468  0.3160  0.1215  0.5076
  794MOL0     H 7123   9.217   9.696   8.731 -0.4293  1.4837  0.5568
  794MOL0     H 7124   9.120   9.845   8.902  3.2326  1.6365  2.5290
  794MOL0     H 7125   8.996   9.928   9.026 -0.6257 -2.4107 -2.6382
  794MOL0     H 7126   8.926   9.790   9.099  0.9960 -1.1913  0.8545
  794MOL0     H 7127   8.915   9.907   9.312 -3.3689  0.0424 -0.6264
  794MOL0     H 7128   9.007  10.046   9.240 -0.5637  0.8581 -0.2361
  794MOL0     H 7129   8.792  10.122   9.257  2.2716  1.6103  0.0654
  794MOL0     H 7130   8.808  10.080   9.086 -1.2779  1.4521  1.6770
  794MOL0     H 7131   8.696   9.843   9.150 -3.4000  0.3456 -1.2467
  794MOL0     H 7132   8.669   9.927   9.298 -1.3933  2.2085  1.0496
  794MOL0     H 7133   8.567  10.107   9.121  0.6821  0.6199 -2.7507
  794MOL0     H 7134   8.556   9.965   9.019  0.6795  3.2026 -0.8526
  794MOL0     H 7135   8.451   9.837   9.199  0.5188  0.5443 -0.3601
  794MOL0     H 7136   8.409   9.982   9.294 -1.8089 -0.6087  0.1742
  794MOL0     H 7137   8.315   9.884   9.012 -0.9238 -2.0718  0.7390
  794MOL0     H 7138   8.229   9.891   9.162 -0.2061 -1.0702 -1.9941
  794MOL0     H 7139   8.183  10.086   8.975  1.3279  2.1178 -0.3202
  794MOL0     H 7140   8.347  10.130   9.013  3.4519 -0.0659  3.2669
  794MOL0     H 7141   7.992  10.108   9.156  1.2930 -1.4896  2.5888
  794MOL0     H 7142   7.933  10.454   9.314  0.8117 -0.7531  0.8968
  794MOL0     H 7143   7.852  10.351   9.183 -1.4553  1.5686  1.4748
  794MOL0     H 7144   7.895  10.289   9.476 -5.2138  1.9799  2.1630
  794MOL0     H 7145   7.841  10.160   9.358 -1.7950 -0.1628 -1.2370
  794MOL0     H 7146   7.653  10.289   9.292 -1.1541 -2.4137  0.2381
  794MOL0     H 7147   7.681  10.414   9.399 -3.0268 -0.5046 -2.4602
  794MOL0     H 7148   7.633  10.265   9.595  0.2801  0.1386 -0.8807
  794MOL0     H 7149   7.619  10.118   9.491 -0.1528 -0.2673 -0.2156
  794MOL0     H 7150   7.233  10.231   9.428 -1.1942  0.0069  0.7972
  794MOL0     H 7151   7.008   9.995   9.518 -0.7405 -0.1151 -0.3470
  794MOL0     H 7152   6.942  10.121   9.615 -0.5967  1.1336 -1.1330
  794MOL0     H 7153   7.005  10.163   9.452  0.8392  1.9071  0.7960
  794MOL0     H 7154   7.167   9.745  10.039 -0.0893 -0.2946  1.3552
  794MOL0     H 7155   7.004   9.640  10.200  2.0477  0.7379 -0.1131
  794MOL0     H 7156   6.625   9.822  10.235 -0.2533 -0.7677  0.6756
  794MOL0     H 7157   6.604   9.680  10.332 -1.0574  0.5470 -2.2861
  794MOL0     H 7158   6.725   9.797  10.532 -0.7925 -0.2564  2.0367
  794MOL0     H 7159   6.705   9.948  10.446  1.2004 -0.6352 -0.4306
  794MOL0     H 7160   6.459   9.905  10.413  0.8705  0.1527  0.7655
  794MOL0     H 7161   6.518   9.953  10.580  2.1315 -1.3169  2.0328
  794MOL0     H 7162   6.465   9.667  10.489  3.4549 -0.1656  0.1988
  794MOL0     H 7163   6.528   9.711  10.647 -0.3538  0.6778  1.3712
  794MOL0     H 7164   6.301   9.854  10.679 -1.9527 -0.4581 -0.2018
  794MOL0     H 7165   6.289   9.669  10.669  2.8418 -2.1156 -2.8509
  794MOL0     H 7166   6.244   9.865  10.440  3.9012 -1.0684  0.6535
  794MOL0     H 7167   6.214   9.693  10.454  0.2294  0.2712 -1.1725
  794MOL0     H 7168   6.045   9.854  10.652 -0.8336  2.5944 -0.9847
  794MOL0     H 7169   5.995   9.727  10.530  1.5296 -1.1967 -2.6333
  794MOL0     H 7170   6.080  10.014  10.439 -0.1034  0.1206  0.2063
  794MOL0     H 7171   5.925   9.978  10.504 -2.5499 -2.5477 -2.3456
  794MOL0     H 7172   6.787  10.000  10.208  0.2728 -0.2299  2.1045
  794MOL0     H 7173   6.952  10.105  10.039 -0.1952  0.2920  0.7912
  794MOL0     H 7174   7.365  10.014   9.844 -1.9117 -1.3717 -0.7816
  794MOL0     H 7175   7.524  10.143   9.720 -0.0854 -2.9110 -1.4700
  794MOL0     H 7176   9.255   9.594   9.217  2.6951  2.4022 -0.4230
  794MOL0     H 7177   9.361   9.445   9.059 -1.0329  0.9357  2.2243
  794MOL0     H 7178   9.610   9.445   8.761 -1.7724 -0.7429 -0.5242
  794MOL0     H 7179   9.803   9.321   8.666  0.7067 -1.3727 -2.7665
  794MOL0     H 7180   9.957   9.346   8.477 -0.3779 -0.8061  2.2369
  794MOL0     H 7181   9.955   9.190   8.548  1.0469  1.3719 -0.2624
  794MOL0     H 7182   9.986   9.117   8.309 -1.8889 -0.9123  0.6003
  794MOL0     H 7183  10.118   9.178   8.426  0.8640  0.8045 -1.6120
  794MOL0     H 7184  10.146   9.279   8.184  0.4849  0.0553  0.2453
  794MOL0     H 7185  10.109   9.396   8.303  2.4201 -0.4995 -1.7525
  794MOL0     H 7186   9.873   9.399   8.218  0.8606  0.4791  0.4695
  794MOL0     H 7187   9.907   9.264   8.116  0.7483 -1.2924  2.9575
  794MOL0     H 7188  10.096   9.560   7.886  1.1950 -0.0325  1.3883
  794MOL0     H 7189   9.558   9.240   8.313 -3.8143 -1.3273  2.1091
  794MOL0     H 7190   9.367   9.362   8.425 -0.8455  2.7450  3.3089
  795MOL0     O 7191  10.788   4.649   9.320  0.0867 -0.1439 -0.6277
  795MOL0     C 7192  10.877   4.619   9.242  0.0925 -0.7153 -0.6900
  795MOL0     O 7193  11.011   4.585   9.285  0.3841  0.2384  0.2325
  795MOL0     C 7194  11.071   4.623   9.405 -0.3056  0.2061  0.3638
  795MOL0     C 7195  11.026   4.734   9.479 -0.6174  0.4293  0.7860
  795MOL0     C 7196  11.093   4.782   9.588  0.2419 -0.2589  0.1776
  795MOL0     C 7197  11.208   4.721   9.633  0.4300 -1.3917  0.9113
  795MOL0     O 7198  11.293   4.761   9.733 -0.8156 -0.1368 -0.2472
  795MOL0     C 7199  11.257   4.879   9.812  0.6588 -0.5142 -0.2699
  795MOL0     C 7200  11.216   4.831   9.951  0.3224 -0.6048 -0.1785
  795MOL0     C 7201  11.188   4.935  10.057  0.1107  1.0485  0.6544
  795MOL0     C 7202  11.053   5.014  10.040  0.5856 -0.9492 -0.4769
  795MOL0     C 7203  11.034   5.103  10.162  0.3990  0.9582  0.1809
  795MOL0     C 7204  11.086   5.246  10.131  0.1791 -0.5771  0.0011
  795MOL0     C 7205  10.975   5.353  10.123 -0.7605 -0.4190  0.9625
  795MOL0     C 7206  11.030   5.497  10.106 -0.0545 -0.3511 -0.8680
  795MOL0     N 7207  10.998   5.551   9.974  0.4776 -0.5841 -0.3245
  795MOL0     C 7208  11.070   5.547   9.861  0.6847  0.7133  0.2989
  795MOL0     C 7209  10.988   5.613   9.773  0.1760  0.3903 -0.1046
  795MOL0     C 7210  11.022   5.660   9.632  0.0745 -0.4754 -0.8582
  795MOL0     C 7211  11.055   5.546   9.542 -0.5550  0.7897  0.7400
  795MOL0     C 7212  11.085   5.593   9.399 -0.5059 -0.0106 -0.6253
  795MOL0     C 7213  11.103   5.481   9.307 -0.0306  0.2428  0.7039
  795MOL0     O 7214  10.975   5.433   9.249 -0.6341  0.3310  0.8636
  795MOL0     C 7215  10.965   5.376   9.127 -0.0789 -0.3965 -0.0491
  795MOL0     C 7216  11.062   5.352   9.023  0.0403 -1.1065  0.5740
  795MOL0     C 7217  11.021   5.295   8.897 -0.2691 -0.4376 -0.9898
  795MOL0     C 7218  11.121   5.256   8.799  0.5191 -0.1204  0.0386
  795MOL0     C 7219  10.879   5.268   8.874 -0.1404 -0.0760  0.3464
  795MOL0     C 7220  10.815   5.199   8.753  0.5049  0.2360 -0.9067
  795MOL0     O 7221  10.685   5.159   8.768 -0.0578 -0.8149  0.4304
  795MOL0     C 7222  10.608   5.136   8.654 -0.2511  0.3741 -0.7375
  795MOL0     C 7223  10.656   5.050   8.554  1.3175  0.5462 -0.3568
  795MOL0     C 7224  10.579   5.026   8.440 -0.0152 -0.8234 -0.9588
  795MOL0     C 7225  10.452   5.087   8.425 -0.7390  0.2035  0.2804
  795MOL0     O 7226  10.397   5.057   8.305  0.0936 -0.3785 -0.3134
  795MOL0     C 7227  10.291   5.130   8.258  0.3445 -0.1925 -1.0435
  795MOL0     C 7228  10.243   5.077   8.126  1.1988 -0.1111 -0.2888
  795MOL0     C 7229  10.175   4.939   8.128 -0.8432 -0.5821  0.0407
  795MOL0     C 7230  10.046   4.931   8.217 -0.0245 -0.4428 -0.0179
  795MOL0     C 7231   9.973   4.809   8.173 -0.1056 -0.0489  0.0021
  795MOL0     C 7232   9.835   4.813   8.239 -0.1105  0.7769  0.6740
  795MOL0     C 7233   9.749   4.700   8.174  0.5015 -0.0717 -0.7156
  795MOL0     C 7234   9.631   4.668   8.263 -0.1329  0.3547  0.0485
  795MOL0    Cl 7235   9.534   4.816   8.279 -0.2801  0.2850 -0.0428
  795MOL0     C 7236  10.401   5.164   8.527 -0.3709 -0.8303 -0.4313
  795MOL0     C 7237  10.482   5.192   8.640 -0.6921  0.2839  0.2613
  795MOL0     O 7238  10.882   5.203   8.650 -0.3076  0.2750 -0.1522
  795MOL0     C 7239  10.785   5.305   8.975  0.1435 -0.0451  0.0084
  795MOL0     C 7240  10.828   5.361   9.096  0.2069  0.6620  0.2668
  795MOL0     N 7241  10.872   5.653   9.840 -0.4807  0.0653 -0.6071
  795MOL0     N 7242  10.871   5.608   9.960 -1.1564 -0.0602  0.4703
  795MOL0     C 7243  11.250   4.606   9.569 -0.0524 -0.6739 -0.4005
  795MOL0     C 7244  11.186   4.564   9.454  0.1375  0.0150  0.2258
  795MOL0     C 7245  10.830   4.603   9.104  0.1663 -0.2107 -0.1840
  795MOL0     C 7246  10.723   4.684   9.051 -0.3294  1.0713 -0.5706
  795MOL0     C 7247  10.670   4.650   8.930  0.2902 -0.8031  0.0857
  795MOL0     C 7248  10.724   4.549   8.855 -0.0744  0.3570 -0.8306
  795MOL0     O 7249  10.649   4.516   8.743  0.0637 -0.1162 -0.2555
  795MOL0     C 7250  10.721   4.456   8.630  0.0631  0.7855  0.0757
  795MOL0     C 7251  10.654   4.491   8.498 -0.6452  0.7146  0.4637
  795MOL0     C 7252  10.547   4.398   8.435 -0.2032  0.8150  0.4675
  795MOL0     C 7253  10.606   4.274   8.379  0.1424  0.6021  0.8277
  795MOL0     C 7254  10.511   4.168   8.392 -0.0281 -0.0810  0.3990
  795MOL0     C 7255  10.417   4.095   8.410  0.0059 -0.4754  0.0400
  795MOL0     C 7256  10.821   4.462   8.901  0.2091 -0.0972  0.6138
  795MOL0     C 7257  10.870   4.492   9.025 -0.5545  0.5176 -0.5793
  795MOL0     H 7258  10.936   4.785   9.447 -1.4994 -0.7096  1.3674
  795MOL0     H 7259  11.048   4.858   9.650  0.8254 -1.0799  1.6823
  795MOL0     H 7260  11.345   4.944   9.823 -1.5594  3.2608 -2.7345
  795MOL0     H 7261  11.180   4.945   9.770  1.6021  0.3437 -0.7007
  795MOL0     H 7262  11.125   4.773   9.932  0.8834 -0.7962 -2.5339
  795MOL0     H 7263  11.301   4.772   9.987  1.0013  0.1041 -0.5750
  795MOL0     H 7264  11.191   4.885  10.153  1.7701  2.3227  1.3107
  795MOL0     H 7265  11.271   5.006  10.052  0.7412  0.3977  1.7113
  795MOL0     H 7266  11.059   5.065   9.944 -0.0006  1.9997  0.9470
  795MOL0     H 7267  10.975   4.939  10.058 -1.6992  1.8819  2.9295
  795MOL0     H 7268  10.927   5.101  10.181 -0.2991  1.5256 -3.1029
  795MOL0     H 7269  11.092   5.065  10.247 -1.8221 -3.1131  0.0709
  795MOL0     H 7270  11.145   5.269  10.220  0.7268 -1.4203 -0.1394
  795MOL0     H 7271  11.153   5.246  10.045 -0.9431  1.0131 -0.9322
  795MOL0     H 7272  10.909   5.340  10.037 -0.5041  2.9382  0.1018
  795MOL0     H 7273  10.907   5.351  10.209 -0.2416  3.2248  1.6140
  795MOL0     H 7274  11.140   5.498  10.100  0.1939  1.2332  2.1344
  795MOL0     H 7275  11.002   5.561  10.189 -0.3827 -3.3456  1.4779
  795MOL0     H 7276  11.168   5.511   9.833  0.9969  1.4346  0.4500
  795MOL0     H 7277  10.945   5.727   9.594 -0.9440  0.7731  3.0038
  795MOL0     H 7278  11.110   5.721   9.653 -0.0558 -0.9827  1.3362
  795MOL0     H 7279  10.968   5.480   9.543 -0.0639  0.1356  1.5964
  795MOL0     H 7280  11.142   5.506   9.594 -0.7968 -0.9774 -0.1485
  795MOL0     H 7281  11.173   5.658   9.405  0.8054 -1.7875  0.5158
  795MOL0     H 7282  11.001   5.658   9.373 -0.3552 -0.5965 -2.6841
  795MOL0     H 7283  11.143   5.394   9.360  0.9487 -1.2671 -2.2981
  795MOL0     H 7284  11.174   5.518   9.233 -1.6414 -1.5014 -1.8726
  795MOL0     H 7285  11.169   5.360   9.043 -0.3740  2.5105  2.1040
  795MOL0     H 7286  11.219   5.266   8.846  0.9392 -1.5405 -0.4948
  795MOL0     H 7287  11.103   5.152   8.770 -0.3348  0.4578 -1.6300
  795MOL0     H 7288  11.117   5.321   8.711  1.1568  2.7704  1.9854
  795MOL0     H 7289  10.751   5.003   8.574  0.3116 -1.3157  0.2915
  795MOL0     H 7290  10.612   4.963   8.358  0.6389 -0.0379 -1.3114
  795MOL0     H 7291  10.207   5.142   8.327 -2.1984 -5.1039 -2.7745
  795MOL0     H 7292  10.326   5.228   8.225  1.0597 -0.0072  0.2140
  795MOL0     H 7293  10.182   5.155   8.079  1.7123  0.2770 -0.3232
  795MOL0     H 7294  10.328   5.068   8.057  1.0919  1.1861 -0.6169
  795MOL0     H 7295  10.245   4.857   8.146 -1.6929 -2.0495 -2.7273
  795MOL0     H 7296  10.146   4.933   8.023  0.8159  1.8767 -0.6438
  795MOL0     H 7297  10.071   4.924   8.323 -0.0650  0.2204  0.0434
  795MOL0     H 7298   9.977   5.015   8.207 -2.5581 -2.3552  0.5614
  795MOL0     H 7299  10.023   4.730   8.230  0.1316  1.9037  2.7205
  795MOL0     H 7300   9.975   4.792   8.065 -0.4134 -0.8467  0.1148
  795MOL0     H 7301   9.844   4.789   8.345 -0.4007  0.4289  0.6207
  795MOL0     H 7302   9.790   4.912   8.229  1.3871  1.2263 -3.0559
  795MOL0     H 7303   9.816   4.614   8.163  1.4620  0.7349 -1.4796
  795MOL0     H 7304   9.722   4.729   8.071 -0.8495  1.0211 -0.0836
  795MOL0     H 7305   9.657   4.625   8.360 -1.6270  1.4418  0.9837
  795MOL0     H 7306   9.568   4.591   8.217 -1.4290  1.5139 -0.1914
  795MOL0     H 7307  10.303   5.211   8.524 -0.3043 -0.4217  1.9983
  795MOL0     H 7308  10.449   5.262   8.715 -3.0076 -1.1674  0.6917
  795MOL0     H 7309  10.681   5.275   8.969  0.3582 -0.9167  0.4180
  795MOL0     H 7310  10.752   5.392   9.167  0.2634 -1.1999  1.2079
  795MOL0     H 7311  11.336   4.546   9.598 -2.5772 -3.7670  1.2986
  795MOL0     H 7312  11.202   4.464   9.414 -1.7332  0.2600 -1.2473
  795MOL0     H 7313  10.686   4.760   9.120  0.2732  1.8036 -1.0398
  795MOL0     H 7314  10.583   4.700   8.889  1.1244  0.4313 -0.2559
  795MOL0     H 7315  10.824   4.492   8.627  0.4749 -0.1286  1.8265
  795MOL0     H 7316  10.730   4.347   8.633  2.4412  0.9402  1.4689
  795MOL0     H 7317  10.736   4.481   8.426 -1.0842  1.0768 -0.0933
  795MOL0     H 7318  10.615   4.593   8.494 -3.1310 -0.1821 -2.1843
  795MOL0     H 7319  10.491   4.451   8.358 -4.5950 -2.6426  0.8787
  795MOL0     H 7320  10.479   4.372   8.517  0.7999 -1.1893  0.7335
  795MOL0     H 7321  10.700   4.235   8.420 -0.4670 -0.7413  0.9854
  795MOL0     H 7322  10.625   4.297   8.273  1.0646 -1.0462  0.6052
  795MOL0     H 7323  10.337   4.033   8.445  2.6485 -2.5576  2.8911
  795MOL0     H 7324  10.850   4.368   8.854 -1.0054 -0.3964  0.4264
  795MOL0     H 7325  10.929   4.412   9.069 -2.0023  1.7109  4.1569
  796MOL0     O 7326   9.199   3.663   8.118 -0.2357  0.3844  0.6182
  796MOL0     C 7327   9.175   3.701   8.003 -0.3091  0.1548 -0.0793
  796MOL0     O 7328   9.060   3.669   7.951  0.2278 -0.2582  0.6689
  796MOL0     C 7329   9.005   3.547   7.987  0.1441 -0.6952  0.5762
  796MOL0     C 7330   9.073   3.427   8.021 -0.9339 -0.2102 -0.2987
  796MOL0     C 7331   9.007   3.312   8.062 -0.2069  0.2369 -0.0146
  796MOL0     C 7332   8.865   3.316   8.080 -1.1190 -0.0904  0.9187
  796MOL0     O 7333   8.791   3.204   8.111 -0.6071  0.3931  0.0970
  796MOL0     C 7334   8.729   3.207   8.236 -0.4728 -0.1844 -0.5209
  796MOL0     C 7335   8.625   3.094   8.262 -0.1982  0.0860 -0.0779
  796MOL0     C 7336   8.586   3.107   8.414  0.1663  0.2755  0.0036
  796MOL0     C 7337   8.467   3.018   8.443  0.7543 -0.9936  0.7316
  796MOL0     C 7338   8.403   3.049   8.580 -0.8729  0.2051  0.4606
  796MOL0     C 7339   8.283   2.948   8.589  0.7443  0.1439 -0.3689
  796MOL0     C 7340   8.212   2.958   8.721 -0.1521 -0.7219 -0.3508
  796MOL0     C 7341   8.118   3.081   8.739  0.1522  1.3380 -0.7095
  796MOL0     N 7342   7.993   3.077   8.653 -0.3584 -0.4362 -0.8367
  796MOL0     C 7343   7.954   3.158   8.551 -0.2626 -0.8172 -0.1460
  796MOL0     C 7344   7.826   3.129   8.520  0.1412 -0.5410 -0.9011
  796MOL0     C 7345   7.742   3.184   8.409 -1.2388  0.5581 -0.4716
  796MOL0     C 7346   7.622   3.249   8.458  0.2668 -0.3023  0.3859
  796MOL0     C 7347   7.514   3.145   8.507  0.8851 -0.4476 -0.3598
  796MOL0     C 7348   7.371   3.191   8.522 -0.6480 -0.0610  0.1395
  796MOL0     O 7349   7.333   3.230   8.394 -0.2330  0.3216  0.3726
  796MOL0     C 7350   7.204   3.281   8.386 -0.6635  0.0410 -0.7227
  796MOL0     C 7351   7.140   3.260   8.264  0.5251 -0.2338  0.1664
  796MOL0     C 7352   7.013   3.305   8.235  0.8497  0.0042 -0.4586
  796MOL0     C 7353   6.966   3.288   8.088  0.9647 -1.3671  1.3676
  796MOL0     C 7354   6.943   3.368   8.340  0.4446  0.8986  0.0998
  796MOL0     C 7355   6.810   3.432   8.326 -0.0349  0.1264  0.3763
  796MOL0     O 7356   6.715   3.400   8.424 -0.8388 -0.3685  0.5659
  796MOL0     C 7357   6.575   3.425   8.404  0.3920 -0.4830  0.6257
  796MOL0     C 7358   6.513   3.416   8.286 -0.0329  0.2272 -0.6586
  796MOL0     C 7359   6.382   3.454   8.274  0.5267  0.7709 -0.2846
  796MOL0     C 7360   6.296   3.485   8.384 -0.6415  0.2944  0.1319
  796MOL0     O 7361   6.167   3.507   8.353  0.5366  0.5912  0.6646
  796MOL0     C 7362   6.082   3.542   8.467  0.6948  0.2591  0.4801
  796MOL0     C 7363   5.931   3.556   8.426 -0.7999 -1.1779 -0.6132
  796MOL0     C 7364   5.853   3.647   8.537 -0.0559 -1.0590  0.0199
  796MOL0     C 7365   5.812   3.556   8.651 -0.2001 -0.4733 -0.1588
  796MOL0     C 7366   5.730   3.635   8.746 -0.4003 -1.2315  0.3354
  796MOL0     C 7367   5.795   3.768   8.795  0.3204  0.4538 -0.4163
  796MOL0     C 7368   5.706   3.838   8.890  0.2783  0.4886 -0.2943
  796MOL0     C 7369   5.748   3.980   8.907  0.0418 -0.4032  0.4860
  796MOL0    Cl 7370   5.918   4.007   8.968 -0.4679  0.0971 -0.0256
  796MOL0     C 7371   6.364   3.476   8.510 -0.0546 -0.7120 -0.3259
  796MOL0     C 7372   6.501   3.458   8.520 -0.2669 -0.1981  0.7476
  796MOL0     O 7373   6.790   3.503   8.224  0.2935 -0.8284 -0.4724
  796MOL0     C 7374   6.999   3.378   8.469  0.7408 -0.2502 -1.3659
  796MOL0     C 7375   7.122   3.328   8.499 -0.1105 -0.3822 -0.0100
  796MOL0     N 7376   7.790   3.042   8.630 -0.0643  0.3600 -0.0148
  796MOL0     N 7377   7.885   3.011   8.702  0.6002 -0.5801 -0.6598
  796MOL0     C 7378   8.787   3.430   8.044  0.3246  0.9504 -0.3036
  796MOL0     C 7379   8.860   3.543   7.996  0.1526  0.1954 -1.1937
  796MOL0     C 7380   9.264   3.786   7.925 -0.0476 -0.1268 -0.0673
  796MOL0     C 7381   9.367   3.859   7.987  0.7000  0.4356  0.1136
  796MOL0     C 7382   9.452   3.945   7.918 -0.7787  0.2710  0.2547
  796MOL0     C 7383   9.439   3.954   7.785 -0.6549  0.1163 -0.7060
  796MOL0     O 7384   9.527   4.039   7.718 -0.0758  0.0413 -0.1955
  796MOL0     C 7385   9.458   4.131   7.632  0.7066 -0.9002  1.6013
  796MOL0     C 7386   9.539   4.257   7.648 -0.1249 -1.1610  0.0816
  796MOL0     C 7387   9.529   4.341   7.525 -0.2129 -0.2957  0.6979
  796MOL0     C 7388   9.392   4.408   7.518 -0.7351 -0.4864  0.6295
  796MOL0     C 7389   9.394   4.514   7.409 -1.0557  1.2191  0.5223
  796MOL0     C 7390   9.412   4.616   7.347  0.6453  0.5943 -0.1550
  796MOL0     C 7391   9.348   3.880   7.719 -0.2621 -0.7744 -0.4911
  796MOL0     C 7392   9.255   3.796   7.783 -0.4540  0.2274 -0.3268
  796MOL0     H 7393   9.181   3.437   8.021 -0.9987  1.6133  2.2969
  796MOL0     H 7394   9.054   3.220   8.093 -0.3730  0.7035  1.7139
  796MOL0     H 7395   8.799   3.188   8.317 -1.5628 -2.6257 -0.0415
  796MOL0     H 7396   8.678   3.302   8.251  0.0557 -0.1434  1.1640
  796MOL0     H 7397   8.539   3.110   8.196 -0.2362 -1.7741 -0.5295
  796MOL0     H 7398   8.664   2.995   8.240  0.2201 -0.2888  2.0970
  796MOL0     H 7399   8.669   3.079   8.479  1.4972 -2.3567 -2.6032
  796MOL0     H 7400   8.560   3.210   8.438  0.9451  0.4287  0.2069
  796MOL0     H 7401   8.394   3.026   8.361  1.4373  0.8350  0.2394
  796MOL0     H 7402   8.494   2.912   8.446 -2.8314 -2.0272  1.7678
  796MOL0     H 7403   8.471   3.029   8.663 -0.8867  0.6207  0.5752
  796MOL0     H 7404   8.366   3.152   8.580 -0.4813  0.3594 -1.0531
  796MOL0     H 7405   8.212   2.959   8.506 -1.4316 -1.2461  1.1955
  796MOL0     H 7406   8.333   2.851   8.593 -1.9057 -1.4701 -2.6837
  796MOL0     H 7407   8.155   2.866   8.735 -0.0683 -0.6059  0.7934
  796MOL0     H 7408   8.289   2.974   8.797 -0.3792  0.6683 -0.3858
  796MOL0     H 7409   8.181   3.168   8.719 -0.0856  1.9038  0.8935
  796MOL0     H 7410   8.088   3.080   8.844  2.5767 -1.1688  0.1013
  796MOL0     H 7411   8.018   3.223   8.492 -1.0224 -1.1079 -1.3203
  796MOL0     H 7412   7.798   3.256   8.349 -0.5798 -1.0411 -1.8768
  796MOL0     H 7413   7.720   3.100   8.342 -1.6829  0.7645 -0.5893
  796MOL0     H 7414   7.585   3.309   8.375  2.1637 -2.9011 -2.5429
  796MOL0     H 7415   7.647   3.331   8.526  1.8654  1.4465 -2.1305
  796MOL0     H 7416   7.549   3.123   8.608 -0.4107  3.0117  1.0159
  796MOL0     H 7417   7.513   3.051   8.451 -2.7970 -2.1332  2.1424
  796MOL0     H 7418   7.380   3.283   8.580  0.1902 -1.3219  2.0936
  796MOL0     H 7419   7.310   3.120   8.579 -0.7896 -0.3009 -0.3011
  796MOL0     H 7420   7.192   3.215   8.180 -1.4920 -1.8283 -0.3020
  796MOL0     H 7421   6.989   3.384   8.041 -3.3966 -0.3721  0.8998
  796MOL0     H 7422   7.024   3.225   8.020  0.6228  1.1854 -1.4698
  796MOL0     H 7423   6.858   3.272   8.087  0.6502  0.5384 -0.6157
  796MOL0     H 7424   6.558   3.381   8.193 -2.2831 -0.7830 -1.4353
  796MOL0     H 7425   6.349   3.448   8.171  2.2589 -0.2857 -0.8217
  796MOL0     H 7426   6.093   3.458   8.536  0.5717  0.6423  0.9667
  796MOL0     H 7427   6.105   3.640   8.511  1.1157 -0.5816  2.2196
  796MOL0     H 7428   5.934   3.601   8.327 -0.5694 -1.3828 -0.6990
  796MOL0     H 7429   5.889   3.455   8.420 -2.2539 -1.1771  4.3395
  796MOL0     H 7430   5.771   3.701   8.488 -0.8952 -1.5286  0.8719
  796MOL0     H 7431   5.919   3.731   8.559 -2.6362  1.2101 -0.3219
  796MOL0     H 7432   5.758   3.467   8.617  2.0806 -2.9476  2.2505
  796MOL0     H 7433   5.902   3.513   8.695 -0.0108  1.4774  1.4925
  796MOL0     H 7434   5.690   3.573   8.827  1.6522 -2.1221  0.7211
  796MOL0     H 7435   5.641   3.667   8.690 -0.2221 -0.7580  0.3238
  796MOL0     H 7436   5.885   3.731   8.845 -0.2709 -1.1394 -0.4984
  796MOL0     H 7437   5.836   3.841   8.724 -2.3633  2.8599  0.2984
  796MOL0     H 7438   5.690   3.790   8.986  0.3184  2.3860  0.7105
  796MOL0     H 7439   5.608   3.836   8.842  0.7273 -2.6805 -1.2815
  796MOL0     H 7440   5.684   4.032   8.980 -2.3117  1.0941 -2.4340
  796MOL0     H 7441   5.741   4.039   8.815  0.2589 -0.8019  0.2127
  796MOL0     H 7442   6.311   3.484   8.605  2.3324  0.0492  1.0214
  796MOL0     H 7443   6.558   3.462   8.612  1.7607 -1.6810 -0.3747
  796MOL0     H 7444   6.949   3.436   8.546  3.3235 -0.4026  0.5924
  796MOL0     H 7445   7.151   3.333   8.603  0.3259  1.4784 -0.1915
  796MOL0     H 7446   8.679   3.425   8.044  0.3603 -3.3940  0.5582
  796MOL0     H 7447   8.815   3.635   7.963  1.9558  2.2054  1.4995
  796MOL0     H 7448   9.384   3.855   8.094  0.8729  4.5191  0.4140
  796MOL0     H 7449   9.531   3.996   7.972 -0.5186  0.8892 -0.6823
  796MOL0     H 7450   9.454   4.107   7.526 -0.5873 -0.5851  1.5652
  796MOL0     H 7451   9.357   4.147   7.670  0.2968 -1.2297  0.6667
  796MOL0     H 7452   9.644   4.238   7.670  0.2353 -2.2289 -2.2449
  796MOL0     H 7453   9.512   4.321   7.732 -0.5778 -1.4399  0.1498
  796MOL0     H 7454   9.544   4.279   7.436  2.6742 -1.9380  2.1515
  796MOL0     H 7455   9.604   4.421   7.533  0.9217 -1.1360 -0.9411
  796MOL0     H 7456   9.364   4.441   7.618  1.6316 -0.2891  1.2885
  796MOL0     H 7457   9.317   4.338   7.481 -0.1421 -0.8991  0.1847
  796MOL0     H 7458   9.442   4.709   7.303  4.3700 -0.2038  0.3519
  796MOL0     H 7459   9.351   3.871   7.610  0.1858 -0.1702 -0.5335
  796MOL0     H 7460   9.181   3.747   7.721  1.2301 -0.7577 -1.6200
  797MOL0     O 7461   9.137   0.221  10.773 -0.0365  0.3248  0.1395
  797MOL0     C 7462   9.066   0.201  10.871 -0.0299 -0.0575  0.6575
  797MOL0     O 7463   9.024   0.070  10.910 -0.4406  0.5303 -0.3468
  797MOL0     C 7464   9.055  -0.032  10.825  1.3338 -0.5177 -0.1423
  797MOL0     C 7465   9.030  -0.035  10.687 -0.5019 -0.2928  0.3453
  797MOL0     C 7466   9.035  -0.150  10.616 -0.1159  0.6038 -0.0266
  797MOL0     C 7467   9.069  -0.268  10.680  0.2153 -0.2559  0.7991
  797MOL0     O 7468   9.051  -0.391  10.621 -0.4899 -0.9924  0.6869
  797MOL0     C 7469   9.044  -0.400  10.476 -0.7109 -0.5794  0.2020
  797MOL0     C 7470   9.028  -0.541  10.442 -0.2663  0.4144 -0.3625
  797MOL0     C 7471   8.980  -0.540  10.297 -1.1040  0.1998  0.2072
  797MOL0     C 7472   9.021  -0.667  10.221  1.0319  0.0128  0.4746
  797MOL0     C 7473   8.955  -0.680  10.093  0.4584 -0.3916  1.0348
  797MOL0     C 7474   8.822  -0.763  10.103  0.5593  0.3926  0.2673
  797MOL0     C 7475   8.747  -0.780   9.964 -0.3123 -0.3981 -0.3655
  797MOL0     C 7476   8.616  -0.859   9.996  0.3231  0.2213  0.3956
  797MOL0     N 7477   8.637  -1.007  10.009  0.6335 -0.6733  0.3168
  797MOL0     C 7478   8.654  -1.084  10.124 -0.0124  0.3127 -0.2081
  797MOL0     C 7479   8.658  -1.208  10.074  0.0172  0.2290  0.5962
  797MOL0     C 7480   8.694  -1.323  10.163  0.1298  0.0152  0.0904
  797MOL0     C 7481   8.570  -1.380  10.237  0.7081  1.2254  0.2185
  797MOL0     C 7482   8.582  -1.522  10.286 -0.2362  0.5115 -0.5261
  797MOL0     C 7483   8.526  -1.624  10.186  0.4450  0.0698  0.1866
  797MOL0     O 7484   8.554  -1.754  10.220 -0.2764 -0.2788  1.4478
  797MOL0     C 7485   8.468  -1.841  10.274 -0.3362  0.5969 -0.6722
  797MOL0     C 7486   8.477  -1.971  10.238  0.6216 -0.3241 -0.1677
  797MOL0     C 7487   8.395  -2.073  10.293  0.8216  0.0676  0.5416
  797MOL0     C 7488   8.423  -2.209  10.256  0.2624 -0.1399 -0.6088
  797MOL0     C 7489   8.301  -2.036  10.390 -0.0617  0.3587  0.5479
  797MOL0     C 7490   8.211  -2.143  10.464 -0.0520 -0.6370  0.4790
  797MOL0     O 7491   8.211  -2.275  10.428 -0.1794  0.6031 -0.7128
  797MOL0     C 7492   8.125  -2.352  10.499  0.4494 -0.0423 -0.7912
  797MOL0     C 7493   8.006  -2.374  10.442  0.0765 -0.1432 -0.2615
  797MOL0     C 7494   7.903  -2.446  10.513 -0.9172  0.3502  0.8158
  797MOL0     C 7495   7.933  -2.496  10.640  0.7485  0.9209  0.3120
  797MOL0     O 7496   7.854  -2.578  10.719 -0.4121  0.0934 -0.3719
  797MOL0     C 7497   7.727  -2.631  10.674  0.6738 -0.1740  0.3596
  797MOL0     C 7498   7.677  -2.742  10.756  1.3006  0.6092  0.1132
  797MOL0     C 7499   7.555  -2.810  10.696 -1.1361 -0.7622  0.1654
  797MOL0     C 7500   7.429  -2.727  10.708  0.3187 -0.1818 -0.2881
  797MOL0     C 7501   7.322  -2.822  10.639 -0.0033 -0.2598 -0.6102
  797MOL0     C 7502   7.203  -2.747  10.577  0.9829  0.4139  0.0193
  797MOL0     C 7503   7.126  -2.819  10.472 -0.2459  0.3691  0.3439
  797MOL0     C 7504   7.022  -2.910  10.524 -0.8994  0.3726  0.7620
  797MOL0    Cl 7505   6.927  -2.970  10.382  0.5475 -0.2152 -0.4401
  797MOL0     C 7506   8.061  -2.474  10.697 -0.1707  0.3727  1.0395
  797MOL0     C 7507   8.155  -2.395  10.630  0.2417  0.0242  0.4246
  797MOL0     O 7508   8.121  -2.095  10.532  0.4734  0.1691  0.2381
  797MOL0     C 7509   8.283  -1.899  10.413 -1.2363 -0.5688  0.9111
  797MOL0     C 7510   8.368  -1.803  10.363  0.2165 -0.7473 -0.0227
  797MOL0     N 7511   8.647  -1.211   9.936  0.5713 -0.9277  0.8656
  797MOL0     N 7512   8.630  -1.094   9.902 -0.4212  0.5289  0.3667
  797MOL0     C 7513   9.092  -0.265  10.816  1.0643  0.5880  0.4068
  797MOL0     C 7514   9.087  -0.148  10.892 -0.4089 -0.3721  0.3204
  797MOL0     C 7515   8.999   0.316  10.932 -0.4950 -0.0981 -0.0507
  797MOL0     C 7516   9.040   0.454  10.922 -0.6625  0.0740 -0.5345
  797MOL0     C 7517   8.973   0.560  10.981 -0.4070  1.0346 -0.0955
  797MOL0     C 7518   8.864   0.535  11.062 -0.1843  0.0357 -0.0670
  797MOL0     O 7519   8.805   0.633  11.139  1.0663 -0.0066 -0.0836
  797MOL0     C 7520   8.854   0.765  11.140  0.7923 -0.3674  0.7567
  797MOL0     C 7521   8.906   0.796  11.279 -0.7375  1.1055 -0.0329
  797MOL0     C 7522   8.785   0.781  11.376  0.6815  0.1296  0.0103
  797MOL0     C 7523   8.712   0.912  11.415 -0.0482  0.2962 -0.4205
  797MOL0     C 7524   8.599   0.938  11.318  0.0070 -0.2376  0.0905
  797MOL0     C 7525   8.529   0.945  11.225 -0.1032  0.4649 -0.2622
  797MOL0     C 7526   8.824   0.400  11.083 -0.2165  0.5556 -0.4891
  797MOL0     C 7527   8.893   0.293  11.024 -0.0982  0.6920 -1.4681
  797MOL0     H 7528   8.986   0.054  10.644  1.3734 -0.4254 -2.0715
  797MOL0     H 7529   8.986  -0.138  10.520 -2.3287 -1.7937  0.6725
  797MOL0     H 7530   8.953  -0.342  10.458  0.7440  2.6563  2.2133
  797MOL0     H 7531   9.134  -0.346  10.444 -0.7699 -0.9185 -0.5451
  797MOL0     H 7532   9.125  -0.590  10.451 -1.1309 -1.4149 -0.5754
  797MOL0     H 7533   8.964  -0.599  10.509 -1.1090  1.3929 -0.2826
  797MOL0     H 7534   8.873  -0.518  10.295 -0.9309  1.0459 -1.2802
  797MOL0     H 7535   9.028  -0.461  10.239  0.0183  0.1054  0.9772
  797MOL0     H 7536   9.129  -0.672  10.202  1.1607  1.6054  0.6685
  797MOL0     H 7537   9.016  -0.750  10.292 -0.1864  2.0445  2.9492
  797MOL0     H 7538   8.937  -0.578  10.057 -1.1206 -0.1455  2.4135
  797MOL0     H 7539   9.014  -0.745  10.028  1.2231  0.5132  0.8026
  797MOL0     H 7540   8.837  -0.862  10.149 -2.3721  1.2110  3.4031
  797MOL0     H 7541   8.751  -0.713  10.170 -1.2118 -0.2632 -1.0615
  797MOL0     H 7542   8.719  -0.682   9.924  2.2487  0.8508  0.7067
  797MOL0     H 7543   8.814  -0.824   9.890  2.8494  0.9928  1.4820
  797MOL0     H 7544   8.545  -0.846   9.914 -1.3603  1.2843  1.9235
  797MOL0     H 7545   8.572  -0.821  10.089 -0.3879 -1.4149  0.7577
  797MOL0     H 7546   8.655  -1.038  10.222 -0.3782  3.1092 -1.3851
  797MOL0     H 7547   8.723  -1.408  10.100  3.0893  0.3254  0.8768
  797MOL0     H 7548   8.776  -1.303  10.233  0.7536 -2.5388  0.1998
  797MOL0     H 7549   8.491  -1.374  10.162  1.8219  2.7366 -0.9093
  797MOL0     H 7550   8.540  -1.326  10.328  2.6716 -0.3923  1.9397
  797MOL0     H 7551   8.528  -1.535  10.380 -1.2647 -0.1683 -1.1914
  797MOL0     H 7552   8.689  -1.537  10.303 -0.5201 -1.3265 -0.1727
  797MOL0     H 7553   8.569  -1.611  10.087  0.8214 -2.6073 -0.0604
  797MOL0     H 7554   8.417  -1.617  10.180  0.3453  1.3330  2.1320
  797MOL0     H 7555   8.558  -2.003  10.173  0.9468  0.9101 -0.3970
  797MOL0     H 7556   8.330  -2.257  10.227 -1.9749  3.0483  0.6581
  797MOL0     H 7557   8.479  -2.218  10.163 -2.9787 -1.2069 -2.6180
  797MOL0     H 7558   8.471  -2.254  10.343  1.2664  1.6445 -0.1886
  797MOL0     H 7559   7.980  -2.330  10.346  2.7291  0.5238 -0.7590
  797MOL0     H 7560   7.809  -2.458  10.460  0.0523  1.1881 -1.2350
  797MOL0     H 7561   7.656  -2.550  10.661 -0.0167 -1.1432 -2.7909
  797MOL0     H 7562   7.734  -2.667  10.571  0.7161 -1.2627  0.7209
  797MOL0     H 7563   7.764  -2.809  10.754  2.0046  1.5138 -1.0216
  797MOL0     H 7564   7.647  -2.701  10.853 -1.5058  0.8924 -0.7945
  797MOL0     H 7565   7.542  -2.901  10.756 -1.5525 -1.2709 -0.6749
  797MOL0     H 7566   7.565  -2.862  10.601  0.9308 -2.2024  1.1135
  797MOL0     H 7567   7.402  -2.705  10.811  2.2971 -0.8320  0.4204
  797MOL0     H 7568   7.429  -2.640  10.642  0.5307  0.2512  0.2780
  797MOL0     H 7569   7.283  -2.903  10.700 -3.0275  2.1524  0.9607
  797MOL0     H 7570   7.370  -2.859  10.547  3.4373 -0.1664  0.9842
  797MOL0     H 7571   7.132  -2.717  10.655 -1.4595  0.2356 -2.0102
  797MOL0     H 7572   7.239  -2.650  10.540  0.7614  1.0710  1.4350
  797MOL0     H 7573   7.194  -2.874  10.406 -1.5670 -0.8785 -0.0312
  797MOL0     H 7574   7.085  -2.744  10.404 -0.4274  0.8591  0.9858
  797MOL0     H 7575   6.948  -2.866  10.592 -4.6623 -0.1201 -2.5962
  797MOL0     H 7576   7.070  -2.994  10.575 -2.6633 -1.5185 -0.5009
  797MOL0     H 7577   8.080  -2.517  10.795  2.5480  0.8392  0.8042
  797MOL0     H 7578   8.232  -2.356  10.696 -1.5046 -1.0959  3.2690
  797MOL0     H 7579   8.200  -1.871  10.477 -3.0670 -2.3861 -0.5352
  797MOL0     H 7580   8.359  -1.695  10.369 -0.6147 -0.8548  0.9109
  797MOL0     H 7581   9.111  -0.362  10.859  2.0711  0.1016 -1.0363
  797MOL0     H 7582   9.088  -0.139  11.000 -2.8485 -0.5928  0.4035
  797MOL0     H 7583   9.129   0.484  10.868  0.3140 -0.8489  0.5178
  797MOL0     H 7584   9.027   0.651  10.959 -0.2938  1.0642  0.2972
  797MOL0     H 7585   8.916   0.798  11.057 -0.9622 -0.6858 -0.7459
  797MOL0     H 7586   8.768   0.832  11.129  2.1302  1.4593  0.9749
  797MOL0     H 7587   8.954   0.894  11.278 -0.1185  1.0151  4.1864
  797MOL0     H 7588   8.973   0.716  11.313 -2.0317  0.0238  0.0891
  797MOL0     H 7589   8.838   0.736  11.460  2.9186  0.2456 -1.2431
  797MOL0     H 7590   8.720   0.703  11.334  2.4161 -1.6921  0.5028
  797MOL0     H 7591   8.783   0.994  11.409  2.1334 -1.4146  0.4923
  797MOL0     H 7592   8.676   0.905  11.518 -1.8140  0.4223 -1.0046
  797MOL0     H 7593   8.473   0.952  11.134 -2.8679  2.8575  1.4341
  797MOL0     H 7594   8.739   0.387  11.150  0.5239 -1.2184  0.1388
  797MOL0     H 7595   8.859   0.192  11.043  3.8341 -0.3682  1.2367
  798MOL0     O 7596   8.091   8.915  10.005 -0.9846 -0.9615 -0.3194
  798MOL0     C 7597   8.083   8.800   9.980 -0.7660  0.1653 -0.0457
  798MOL0     O 7598   7.994   8.744   9.889  0.1570 -0.6065  0.4148
  798MOL0     C 7599   7.896   8.830   9.842 -0.6732 -0.0453  0.1964
  798MOL0     C 7600   7.925   8.937   9.756  0.1669  0.7468  0.5532
  798MOL0     C 7601   7.822   9.013   9.707  0.3091  0.8056 -0.7662
  798MOL0     C 7602   7.689   8.984   9.732  0.7844  0.0197 -0.0016
  798MOL0     O 7603   7.588   9.057   9.679  0.3044 -0.3815  0.6244
  798MOL0     C 7604   7.521   9.153   9.769  0.2012  0.6410  0.1966
  798MOL0     C 7605   7.393   9.209   9.718 -0.3017  0.4532 -0.1223
  798MOL0     C 7606   7.416   9.247   9.570  0.4994  0.1172 -1.0443
  798MOL0     C 7607   7.281   9.280   9.509  0.4025  0.1538 -0.4763
  798MOL0     C 7608   7.298   9.320   9.357 -1.1592 -0.0262 -0.0793
  798MOL0     C 7609   7.173   9.336   9.279 -0.3290  0.4518  0.3905
  798MOL0     C 7610   7.059   9.425   9.346  1.1770  0.6620 -0.0118
  798MOL0     C 7611   6.945   9.453   9.248  0.0728 -0.2999 -0.0219
  798MOL0     N 7612   6.852   9.548   9.314 -0.1231  0.5897  0.1733
  798MOL0     C 7613   6.870   9.687   9.305 -0.2714  0.3361 -0.6340
  798MOL0     C 7614   6.762   9.731   9.369 -0.6757 -0.2075  0.6085
  798MOL0     C 7615   6.741   9.874   9.400 -0.4163  0.1475  0.7092
  798MOL0     C 7616   6.638   9.937   9.312  0.0721  0.1138  1.2404
  798MOL0     C 7617   6.635  10.086   9.323 -0.6137  0.2804 -0.7613
  798MOL0     C 7618   6.534  10.157   9.230  0.3164 -0.4861 -0.4914
  798MOL0     O 7619   6.576  10.160   9.096 -0.1981 -0.5030  0.2544
  798MOL0     C 7620   6.488  10.164   8.999 -0.7256 -0.1731  0.2528
  798MOL0     C 7621   6.432  10.285   8.951  0.7112  0.9119 -0.1335
  798MOL0     C 7622   6.339  10.286   8.844  0.0874  0.1277 -0.2075
  798MOL0     C 7623   6.268  10.415   8.806 -0.1486 -0.0975  0.7675
  798MOL0     C 7624   6.294  10.160   8.788  0.4019 -0.1919  0.5445
  798MOL0     C 7625   6.199  10.156   8.673  0.1993  0.0172 -0.6022
  798MOL0     O 7626   6.216  10.251   8.576  0.3455 -0.0424 -0.7236
  798MOL0     C 7627   6.129  10.253   8.475 -0.1758 -0.8253  0.1316
  798MOL0     C 7628   6.015  10.337   8.493 -0.1934 -0.3423  0.0371
  798MOL0     C 7629   5.917  10.344   8.395  0.0493 -0.1540  0.0965
  798MOL0     C 7630   5.932  10.263   8.281  0.0141  0.5935  1.0781
  798MOL0     O 7631   5.842  10.265   8.178  0.1614 -0.2387 -0.0963
  798MOL0     C 7632   5.706  10.300   8.206 -0.3866 -0.1416  0.9132
  798MOL0     C 7633   5.632  10.327   8.075  0.2906 -0.6178  0.6225
  798MOL0     C 7634   5.477  10.341   8.088 -1.4100 -0.5225  0.3961
  798MOL0     C 7635   5.397  10.220   8.042 -0.8939 -0.5585  0.3634
  798MOL0     C 7636   5.250  10.258   8.046 -0.1725 -0.5273 -0.3129
  798MOL0     C 7637   5.170  10.135   8.012 -0.5283  0.2879 -0.0891
  798MOL0     C 7638   5.023  10.154   8.043  0.2123  0.6751 -0.2311
  798MOL0     C 7639   4.936  10.039   8.001 -0.3408  0.1281  0.8066
  798MOL0    Cl 7640   4.946   9.897   8.118 -0.3919 -0.0469 -0.0995
  798MOL0     C 7641   6.047  10.182   8.260  0.0576  0.3394 -0.2911
  798MOL0     C 7642   6.139  10.171   8.365 -0.7342  0.3074 -0.9636
  798MOL0     O 7643   6.115  10.066   8.673 -0.3327  0.1190  0.5683
  798MOL0     C 7644   6.348  10.042   8.844 -0.2266 -0.6958  0.9179
  798MOL0     C 7645   6.446  10.039   8.945  0.1658  0.2264 -0.2146
  798MOL0     N 7646   6.693   9.623   9.425 -0.2361 -0.5967  0.9001
  798MOL0     N 7647   6.748   9.513   9.389 -0.2164 -0.4958  0.3152
  798MOL0     C 7648   7.658   8.861   9.801  1.4272  0.3428 -0.0768
  798MOL0     C 7649   7.763   8.784   9.853  0.4310 -1.3770 -1.0052
  798MOL0     C 7650   8.173   8.715  10.052  0.4807 -0.1711 -0.2628
  798MOL0     C 7651   8.222   8.592   9.999  0.7731 -0.0798 -0.3101
  798MOL0     C 7652   8.283   8.490  10.075  0.3426 -0.2341  0.7630
  798MOL0     C 7653   8.310   8.518  10.213  0.1903 -0.1688 -0.5539
  798MOL0     O 7654   8.381   8.429  10.294 -0.0270 -0.6878 -0.5611
  798MOL0     C 7655   8.494   8.489  10.341  0.2156  0.9454  0.0890
  798MOL0     C 7656   8.612   8.463  10.247 -0.4169  0.0520  0.4008
  798MOL0     C 7657   8.604   8.326  10.169  0.2627 -0.4791  0.6486
  798MOL0     C 7658   8.710   8.319  10.065 -0.1308 -0.3900 -0.1138
  798MOL0     C 7659   8.838   8.278  10.120 -0.2256  0.0330  0.1098
  798MOL0     C 7660   8.944   8.240  10.166  0.1832  0.2067 -0.4124
  798MOL0     C 7661   8.263   8.635  10.270 -0.1385 -0.1973  0.1324
  798MOL0     C 7662   8.199   8.737  10.193  0.0482 -0.9922  1.2582
  798MOL0     H 7663   8.024   8.960   9.718 -0.1446  0.4686 -0.4814
  798MOL0     H 7664   7.831   9.102   9.646  3.9916  1.0954  0.0063
  798MOL0     H 7665   7.515   9.104   9.867  0.3617 -1.8911 -0.9910
  798MOL0     H 7666   7.594   9.235   9.777 -0.4422  1.1819  0.6137
  798MOL0     H 7667   7.309   9.140   9.722 -0.5271  0.6645 -1.0029
  798MOL0     H 7668   7.374   9.301   9.775  2.1169  1.3801 -0.6871
  798MOL0     H 7669   7.477   9.337   9.559 -0.5698  0.9567 -0.2937
  798MOL0     H 7670   7.461   9.170   9.506  2.0705 -1.8603  2.1507
  798MOL0     H 7671   7.220   9.189   9.509  1.8184 -0.8898  1.6518
  798MOL0     H 7672   7.234   9.362   9.565 -0.2116  0.0306 -0.8041
  798MOL0     H 7673   7.346   9.416   9.336 -1.2206 -0.4022 -2.1709
  798MOL0     H 7674   7.354   9.236   9.314 -2.6539 -1.7345  1.1638
  798MOL0     H 7675   7.197   9.363   9.176  3.7862 -0.8671  0.7964
  798MOL0     H 7676   7.133   9.234   9.282  0.1715  0.2357 -0.1416
  798MOL0     H 7677   7.015   9.378   9.435  1.9890  0.8857  0.5220
  798MOL0     H 7678   7.100   9.524   9.371  1.5029  1.3210 -2.8602
  798MOL0     H 7679   6.883   9.366   9.223 -0.3444  0.0754 -0.3160
  798MOL0     H 7680   6.980   9.499   9.155 -1.2120  1.4053  0.3080
  798MOL0     H 7681   6.956   9.742   9.268  1.2190 -1.5369 -0.1772
  798MOL0     H 7682   6.703   9.889   9.502  0.7282  2.7292  0.8235
  798MOL0     H 7683   6.832   9.934   9.395 -0.1520 -0.1319  1.7940
  798MOL0     H 7684   6.540   9.890   9.329 -1.8004  1.7604 -3.4360
  798MOL0     H 7685   6.658   9.908   9.209  0.4142 -1.6323  1.7582
  798MOL0     H 7686   6.734  10.126   9.295 -0.0175 -0.5238  0.1421
  798MOL0     H 7687   6.607  10.102   9.427 -0.7510 -1.5394 -0.4929
  798MOL0     H 7688   6.534  10.264   9.254  3.7173 -0.6253  0.5367
  798MOL0     H 7689   6.436  10.107   9.228  0.6411 -1.1613 -2.7688
  798MOL0     H 7690   6.454  10.382   8.994 -2.7605  0.9001  2.0199
  798MOL0     H 7691   6.307  10.495   8.870  3.6842 -2.3112  1.4776
  798MOL0     H 7692   6.287  10.436   8.700 -1.4153  0.4681  0.6296
  798MOL0     H 7693   6.160  10.405   8.818 -0.6134  2.7199 -0.1544
  798MOL0     H 7694   6.005  10.407   8.575 -1.6569 -1.1433  0.5762
  798MOL0     H 7695   5.840  10.419   8.406  0.5107  0.3114  0.1989
  798MOL0     H 7696   5.665  10.217   8.264 -3.1976  0.8907  0.5751
  798MOL0     H 7697   5.691  10.386   8.272  0.2524 -0.6747  1.7818
  798MOL0     H 7698   5.671  10.423   8.040  0.7979 -0.9062  0.4042
  798MOL0     H 7699   5.653  10.246   8.005 -1.7935 -0.8384  0.1866
  798MOL0     H 7700   5.446  10.428   8.030 -0.9283 -0.9778 -0.5784
  798MOL0     H 7701   5.449  10.350   8.193 -2.1419 -1.3972  0.2871
  798MOL0     H 7702   5.434  10.192   7.942 -5.3301  0.1007 -1.7084
  798MOL0     H 7703   5.418  10.135   8.107 -0.9118 -0.0380  1.0485
  798MOL0     H 7704   5.230  10.335   7.970 -1.0435 -0.7978 -0.3725
  798MOL0     H 7705   5.225  10.289   8.148 -0.8108 -2.4620  0.1670
  798MOL0     H 7706   5.195  10.104   7.910  2.6718  1.3353  0.2749
  798MOL0     H 7707   5.193  10.044   8.068 -3.0446 -1.8963 -2.3114
  798MOL0     H 7708   4.979  10.236   7.986  0.7450 -0.5410 -2.5102
  798MOL0     H 7709   5.006  10.171   8.150  0.9499 -2.8195  0.5579
  798MOL0     H 7710   4.968  10.016   7.898 -1.3495 -0.9101  0.7029
  798MOL0     H 7711   4.829  10.062   7.997 -1.0119 -2.6825 -0.1955
  798MOL0     H 7712   6.057  10.152   8.156  0.8959  4.7122 -1.7169
  798MOL0     H 7713   6.228  10.111   8.348 -0.3551  0.2050  1.1127
  798MOL0     H 7714   6.310   9.949   8.802 -1.5690  0.2772 -0.1344
  798MOL0     H 7715   6.463   9.938   8.980 -1.7454 -0.2839 -0.6629
  798MOL0     H 7716   7.560   8.822   9.824  2.5663 -1.4588  2.1110
  798MOL0     H 7717   7.737   8.712   9.930 -1.9484  2.4146  2.1180
  798MOL0     H 7718   8.190   8.564   9.899 -3.0256 -0.7770  0.9256
  798MOL0     H 7719   8.315   8.393  10.040  2.6489  1.5316 -2.6364
  798MOL0     H 7720   8.490   8.596  10.364  4.4177  1.2901  0.0124
  798MOL0     H 7721   8.512   8.440  10.438 -0.5005 -0.0518 -0.2621
  798MOL0     H 7722   8.705   8.486  10.299 -0.4260  2.2818 -0.4745
  798MOL0     H 7723   8.612   8.550  10.181  1.6362  0.1717  0.4700
  798MOL0     H 7724   8.514   8.334  10.108  0.5670 -2.9939 -0.2461
  798MOL0     H 7725   8.599   8.243  10.240  1.0360 -0.4749  0.7122
  798MOL0     H 7726   8.714   8.417  10.018  2.8173 -0.3909 -0.0160
  798MOL0     H 7727   8.683   8.244   9.991  2.4731 -3.1685  1.5260
  798MOL0     H 7728   9.025   8.189  10.215 -0.5709 -1.4990 -0.8925
  798MOL0     H 7729   8.262   8.645  10.378 -0.3203  0.0927  0.1063
  798MOL0     H 7730   8.147   8.819  10.240  0.8333  0.5249 -0.4094
  799MOL0     O 7731  10.526   7.028   4.144  0.4771  0.5363 -0.0797
  799MOL0     C 7732  10.496   7.109   4.054  0.2408 -0.4265  0.2541
  799MOL0     O 7733  10.447   7.238   4.075  0.4629  0.3313 -0.3276
  799MOL0     C 7734  10.399   7.282   4.194  0.2058 -0.0053  0.8832
  799MOL0     C 7735  10.403   7.421   4.206 -0.3628 -0.0590 -0.4763
  799MOL0     C 7736  10.330   7.478   4.316 -1.1569 -0.4353 -1.2993
  799MOL0     C 7737  10.265   7.391   4.400 -0.3042  0.2375 -0.7903
  799MOL0     O 7738  10.182   7.431   4.505 -0.5776  0.0550  0.0239
  799MOL0     C 7739  10.072   7.505   4.464 -0.5169  0.6604 -0.0234
  799MOL0     C 7740   9.949   7.470   4.543 -0.2658  0.7444 -0.2968
  799MOL0     C 7741   9.957   7.464   4.696  0.9828  0.6613 -0.4156
  799MOL0     C 7742   9.825   7.456   4.764  1.1099  0.1726  0.4911
  799MOL0     C 7743   9.735   7.337   4.744  0.7777 -1.1155 -0.5343
  799MOL0     C 7744   9.814   7.212   4.758 -0.0893 -0.3378 -0.0795
  799MOL0     C 7745   9.728   7.092   4.718 -1.0037 -1.0001  0.9179
  799MOL0     C 7746   9.717   7.087   4.569  0.8514  0.1509 -1.2849
  799MOL0     N 7747   9.631   6.982   4.514 -0.0252  0.6576  0.3842
  799MOL0     C 7748   9.641   6.843   4.533 -0.2122 -0.1383 -0.9667
  799MOL0     C 7749   9.530   6.792   4.477 -0.9160 -0.5463  0.1309
  799MOL0     C 7750   9.506   6.645   4.479  0.2548  0.0306  0.5195
  799MOL0     C 7751   9.414   6.623   4.599 -0.6766  0.1843  0.0045
  799MOL0     C 7752   9.337   6.494   4.583  0.1108 -0.1168 -0.8484
  799MOL0     C 7753   9.256   6.447   4.702  0.0768  0.4047  0.5989
  799MOL0     O 7754   9.332   6.401   4.807 -0.0564  1.4003  0.6710
  799MOL0     C 7755   9.262   6.353   4.917  0.1391 -0.0024 -0.2192
  799MOL0     C 7756   9.119   6.338   4.929 -0.1269  0.3950 -0.0706
  799MOL0     C 7757   9.042   6.312   5.042 -0.3700 -0.4280  0.0259
  799MOL0     C 7758   8.901   6.294   5.019  0.0555  0.2706 -0.2728
  799MOL0     C 7759   9.114   6.294   5.158  0.1503  0.5333  0.0062
  799MOL0     C 7760   9.047   6.251   5.283 -0.7277 -0.3936 -0.7586
  799MOL0     O 7761   8.906   6.253   5.289 -0.4884 -0.4553  0.1118
  799MOL0     C 7762   8.841   6.226   5.408  0.3899  0.0321 -0.6033
  799MOL0     C 7763   8.739   6.134   5.413  0.0664  0.1253  0.3153
  799MOL0     C 7764   8.670   6.121   5.530 -0.7979 -0.8616  0.1075
  799MOL0     C 7765   8.710   6.193   5.654  0.2698  0.2113  0.3949
  799MOL0     O 7766   8.652   6.172   5.775 -0.1226 -0.3549  0.5375
  799MOL0     C 7767   8.531   6.093   5.789 -0.6767 -0.3157  0.5459
  799MOL0     C 7768   8.477   6.110   5.928 -0.8388  0.2966  0.6970
  799MOL0     C 7769   8.332   6.063   5.935 -0.1547  0.6707  0.5252
  799MOL0     C 7770   8.254   6.091   6.064 -0.5877 -0.5732  0.0926
  799MOL0     C 7771   8.191   6.237   6.061  0.0133 -0.0987  0.5678
  799MOL0     C 7772   8.091   6.250   5.946  0.5203 -0.4818  0.7223
  799MOL0     C 7773   7.972   6.334   5.997 -0.1462  1.0606 -0.4537
  799MOL0     C 7774   8.013   6.474   6.032  0.2147  1.1941 -0.8397
  799MOL0    Cl 7775   7.882   6.582   6.088 -0.0515 -0.1178  0.0712
  799MOL0     C 7776   8.818   6.276   5.645  0.4190  0.4435 -0.1079
  799MOL0     C 7777   8.886   6.296   5.520  0.6216  0.5722  0.2558
  799MOL0     O 7778   9.122   6.219   5.375  0.1809  0.5509  0.5642
  799MOL0     C 7779   9.256   6.300   5.160  0.3115  0.6128  0.4478
  799MOL0     C 7780   9.326   6.330   5.039 -0.5948 -0.3864  0.7757
  799MOL0     N 7781   9.453   6.890   4.417 -0.8220  0.5080 -0.1263
  799MOL0     N 7782   9.523   7.006   4.438 -0.0595  0.3451  0.7096
  799MOL0     C 7783  10.285   7.256   4.394 -0.1084  0.2044  0.1552
  799MOL0     C 7784  10.332   7.197   4.287 -0.4887 -0.0764  0.1687
  799MOL0     C 7785  10.554   7.085   3.912  0.8261 -0.6623 -0.1075
  799MOL0     C 7786  10.612   6.966   3.877  0.5568  0.5066  0.0563
  799MOL0     C 7787  10.658   6.948   3.742  0.0465  0.4073  0.3309
  799MOL0     C 7788  10.634   7.042   3.649 -0.5597  0.1189  0.4643
  799MOL0     O 7789  10.659   7.007   3.525 -0.1269 -0.1933  0.2859
  799MOL0     C 7790  10.637   7.100   3.417  0.2581 -0.1692 -0.2267
  799MOL0     C 7791  10.491   7.116   3.371 -0.0808 -0.7516 -0.1866
  799MOL0     C 7792  10.460   7.254   3.326  0.5635 -0.5303 -0.0267
  799MOL0     C 7793  10.340   7.283   3.231  0.2689 -0.7825  0.4844
  799MOL0     C 7794  10.217   7.238   3.293  0.5174  0.5272 -0.7973
  799MOL0     C 7795  10.125   7.177   3.349 -0.1568 -0.7116 -0.3863
  799MOL0     C 7796  10.572   7.156   3.688  0.3998 -0.4608 -0.0154
  799MOL0     C 7797  10.533   7.180   3.814 -1.0614  0.0984  0.1485
  799MOL0     H 7798  10.467   7.480   4.141  0.1081  0.8221  0.7338
  799MOL0     H 7799  10.315   7.585   4.315 -0.2666 -0.3064 -1.3197
  799MOL0     H 7800  10.096   7.608   4.493  0.9474  0.8693 -1.8405
  799MOL0     H 7801  10.062   7.505   4.356  4.6220 -1.0641 -0.7695
  799MOL0     H 7802   9.870   7.541   4.516  0.0631  0.6860 -1.4692
  799MOL0     H 7803   9.907   7.373   4.514  1.1222 -0.5431  1.7665
  799MOL0     H 7804  10.037   7.395   4.724 -0.3587 -0.8565 -0.1746
  799MOL0     H 7805   9.996   7.563   4.721  0.2216  1.0866 -0.8649
  799MOL0     H 7806   9.841   7.457   4.872 -1.5914 -1.7021  1.0310
  799MOL0     H 7807   9.770   7.549   4.748  0.0947 -0.7505 -1.9281
  799MOL0     H 7808   9.643   7.338   4.804  3.3500  0.4869  3.8371
  799MOL0     H 7809   9.689   7.341   4.645  0.2357 -2.9452 -0.4022
  799MOL0     H 7810   9.902   7.215   4.693 -0.0647  1.2563  0.0025
  799MOL0     H 7811   9.836   7.205   4.865  0.6945  0.9073 -0.1377
  799MOL0     H 7812   9.777   7.003   4.758  1.4826 -0.7561 -1.2912
  799MOL0     H 7813   9.636   7.106   4.776  0.0828  2.6670  1.9939
  799MOL0     H 7814   9.818   7.078   4.529  0.4159 -2.5557 -2.0227
  799MOL0     H 7815   9.676   7.182   4.535 -2.0993 -0.6118 -0.2028
  799MOL0     H 7816   9.713   6.783   4.587 -0.5315 -0.2691 -0.6788
  799MOL0     H 7817   9.471   6.606   4.383 -0.6456  0.5812  0.6121
  799MOL0     H 7818   9.609   6.614   4.499  0.4876  1.0408  0.9662
  799MOL0     H 7819   9.359   6.717   4.607  0.4439  1.0607 -1.9143
  799MOL0     H 7820   9.476   6.631   4.688 -0.4956  2.6480 -0.2646
  799MOL0     H 7821   9.414   6.417   4.570  0.3876 -0.5905  2.6869
  799MOL0     H 7822   9.276   6.495   4.492 -0.5136 -2.1519 -0.5069
  799MOL0     H 7823   9.190   6.370   4.659  1.9822 -1.5082  0.9556
  799MOL0     H 7824   9.201   6.529   4.750  1.2281 -0.0467  2.8016
  799MOL0     H 7825   9.062   6.349   4.838  0.0407  1.2337 -0.0801
  799MOL0     H 7826   8.878   6.316   4.914 -0.4325 -0.4107 -0.3116
  799MOL0     H 7827   8.876   6.192   5.047  1.6720  0.0751  0.5479
  799MOL0     H 7828   8.841   6.365   5.078 -0.3590  0.6318 -1.1055
  799MOL0     H 7829   8.718   6.077   5.324  0.1807  0.9653 -0.2581
  799MOL0     H 7830   8.590   6.050   5.546  0.1739 -1.8284  0.9201
  799MOL0     H 7831   8.454   6.119   5.715 -0.0126 -0.6768 -0.2988
  799MOL0     H 7832   8.549   5.988   5.764  1.9492 -0.4161  2.4525
  799MOL0     H 7833   8.537   6.055   6.002 -1.2433  0.1199  0.8962
  799MOL0     H 7834   8.481   6.212   5.965 -0.4150  0.6132 -0.1891
  799MOL0     H 7835   8.338   5.954   5.929 -2.0293  0.4702  1.6039
  799MOL0     H 7836   8.286   6.105   5.845  1.7226 -0.2361 -0.9251
  799MOL0     H 7837   8.172   6.019   6.060 -0.1247 -1.0665 -0.9623
  799MOL0     H 7838   8.319   6.087   6.152 -0.3434  0.2231 -0.0479
  799MOL0     H 7839   8.258   6.323   6.062 -1.8350  1.4056  0.2123
  799MOL0     H 7840   8.137   6.250   6.155 -2.7977 -0.3763 -0.9122
  799MOL0     H 7841   8.143   6.310   5.871 -1.0674 -0.2091 -0.2185
  799MOL0     H 7842   8.054   6.156   5.905 -0.6829  0.7859 -1.3048
  799MOL0     H 7843   7.919   6.284   6.079 -1.6116 -0.8058 -2.4036
  799MOL0     H 7844   7.902   6.344   5.914 -3.0471 -0.6425  1.5925
  799MOL0     H 7845   8.059   6.510   5.939  1.8489  0.5284 -0.3221
  799MOL0     H 7846   8.095   6.475   6.104  1.3069 -0.6053 -1.9557
  799MOL0     H 7847   8.856   6.328   5.732  5.9572 -1.8461 -0.7632
  799MOL0     H 7848   8.970   6.363   5.513  1.9570 -1.1718 -2.1918
  799MOL0     H 7849   9.306   6.301   5.255 -3.2830  2.1425  2.5365
  799MOL0     H 7850   9.433   6.339   5.025 -0.7667  1.3307  0.3596
  799MOL0     H 7851  10.241   7.199   4.475 -3.6252  1.2216 -0.8592
  799MOL0     H 7852  10.338   7.090   4.268  0.0957 -0.2785  1.4088
  799MOL0     H 7853  10.611   6.887   3.950  1.8809  1.8957  1.6645
  799MOL0     H 7854  10.690   6.844   3.733 -1.6976 -0.6219  4.0214
  799MOL0     H 7855  10.682   7.196   3.444 -0.2092 -0.3390  1.2357
  799MOL0     H 7856  10.687   7.056   3.330  0.4712  0.1962 -0.2906
  799MOL0     H 7857  10.420   7.089   3.449  1.1286 -3.1847  0.1747
  799MOL0     H 7858  10.469   7.039   3.297  2.8452  0.3818 -2.4490
  799MOL0     H 7859  10.555   7.279   3.278  0.5905  1.0405  0.7771
  799MOL0     H 7860  10.460   7.325   3.409 -0.6655 -1.0136  0.4196
  799MOL0     H 7861  10.340   7.240   3.130 -4.9745 -1.7559  0.6001
  799MOL0     H 7862  10.334   7.391   3.221  3.7814 -0.6400 -2.2577
  799MOL0     H 7863  10.043   7.135   3.403 -1.3239  3.4773  1.5727
  799MOL0     H 7864  10.546   7.233   3.616  0.3860 -1.0356 -0.6416
  799MOL0     H 7865  10.481   7.272   3.838  2.8455  2.0044  2.1452
  800MOL0     O 7866   8.576   0.969   8.380  0.0188 -0.3601 -0.5103
  800MOL0     C 7867   8.599   0.861   8.436  0.4006  1.0241  0.0613
  800MOL0     O 7868   8.551   0.740   8.395  0.3627  0.5317 -1.0264
  800MOL0     C 7869   8.460   0.738   8.295 -0.4728 -0.0120  0.2857
  800MOL0     C 7870   8.483   0.663   8.180  0.0919 -0.0726 -0.9623
  800MOL0     C 7871   8.398   0.661   8.068  0.4602 -0.6260 -0.2384
  800MOL0     C 7872   8.283   0.737   8.073 -0.1774 -0.4463 -0.4222
  800MOL0     O 7873   8.216   0.733   7.948 -0.2398  0.2847  0.4874
  800MOL0     C 7874   8.082   0.795   7.947 -0.1254  0.3162  0.1646
  800MOL0     C 7875   8.026   0.774   7.806 -0.0881 -0.5438 -0.0198
  800MOL0     C 7876   7.875   0.783   7.802 -0.5747 -0.0826  0.7991
  800MOL0     C 7877   7.828   0.734   7.668 -0.5022 -0.2844 -0.6705
  800MOL0     C 7878   7.673   0.712   7.661  1.4827 -0.6701  0.3313
  800MOL0     C 7879   7.592   0.824   7.720  0.2301  0.2310  0.2381
  800MOL0     C 7880   7.436   0.800   7.704  1.1329 -0.2864  0.1590
  800MOL0     C 7881   7.378   0.707   7.819  0.4702 -0.5647 -0.0631
  800MOL0     N 7882   7.243   0.745   7.861 -0.3800 -0.2936 -0.5257
  800MOL0     C 7883   7.194   0.869   7.881  0.8682  0.4983  0.0197
  800MOL0     C 7884   7.063   0.858   7.914  0.1680  0.2002  0.0107
  800MOL0     C 7885   6.958   0.962   7.933  0.9128  0.2749 -0.2155
  800MOL0     C 7886   6.957   1.065   7.823 -1.0386 -0.2420  0.2278
  800MOL0     C 7887   6.832   1.150   7.837 -0.1066  0.1381  0.3768
  800MOL0     C 7888   6.841   1.269   7.737 -1.6885 -0.2509 -0.1611
  800MOL0     O 7889   6.709   1.319   7.726  1.0148  0.0970 -0.5497
  800MOL0     C 7890   6.682   1.401   7.619 -0.4021  0.3155  0.3488
  800MOL0     C 7891   6.774   1.458   7.536 -0.8468 -0.1718 -0.4477
  800MOL0     C 7892   6.731   1.543   7.433  0.1559 -0.3387  0.3605
  800MOL0     C 7893   6.844   1.618   7.365 -0.3553 -0.1233  0.6400
  800MOL0     C 7894   6.595   1.562   7.404  0.0147 -0.5390  0.6248
  800MOL0     C 7895   6.548   1.644   7.289  0.0129 -1.8756  0.3678
  800MOL0     O 7896   6.453   1.736   7.308 -0.5016 -0.0413  0.5164
  800MOL0     C 7897   6.391   1.815   7.212  0.3269  0.4317  0.3572
  800MOL0     C 7898   6.306   1.910   7.273 -0.6525 -0.6458 -0.0751
  800MOL0     C 7899   6.242   2.006   7.195 -0.1706 -0.5854  0.8904
  800MOL0     C 7900   6.258   2.015   7.056 -0.5147  0.4757 -0.3428
  800MOL0     O 7901   6.186   2.100   6.985  0.2619  0.1361 -0.2228
  800MOL0     C 7902   6.134   2.058   6.860  0.7036 -0.7572 -0.1729
  800MOL0     C 7903   6.038   2.172   6.816 -0.8763 -0.7961  0.0875
  800MOL0     C 7904   5.953   2.235   6.921  0.3995  0.0510  1.1583
  800MOL0     C 7905   5.870   2.131   6.995  0.3710  1.0204 -0.0756
  800MOL0     C 7906   5.781   2.191   7.111  0.5230  0.7262  0.0030
  800MOL0     C 7907   5.691   2.299   7.048  0.8622 -0.3747  0.6540
  800MOL0     C 7908   5.593   2.232   6.949 -0.3437 -0.2044  0.8550
  800MOL0     C 7909   5.485   2.325   6.896  0.5156 -0.2630  0.7811
  800MOL0    Cl 7910   5.387   2.383   7.027  0.4350  0.1078 -0.0367
  800MOL0     C 7911   6.338   1.915   7.004 -1.1466 -1.0555  0.7475
  800MOL0     C 7912   6.410   1.822   7.074 -0.5448 -0.5678  0.6020
  800MOL0     O 7913   6.608   1.630   7.182 -0.2143 -0.7504  0.5851
  800MOL0     C 7914   6.499   1.518   7.497  0.5031  0.4756  0.0446
  800MOL0     C 7915   6.541   1.425   7.598  0.5256 -0.0668  0.2656
  800MOL0     N 7916   7.027   0.719   7.911  0.0913  0.8887 -0.3405
  800MOL0     N 7917   7.142   0.661   7.876  0.0985 -0.1620  0.5729
  800MOL0     C 7918   8.244   0.803   8.190  0.1556  0.3816 -0.0713
  800MOL0     C 7919   8.336   0.812   8.296 -0.8077 -0.0843  0.1323
  800MOL0     C 7920   8.683   0.848   8.551 -0.3351 -0.3365  0.6701
  800MOL0     C 7921   8.732   0.721   8.594  0.5823 -0.6377  0.2640
  800MOL0     C 7922   8.827   0.715   8.693  0.0799  0.4028  0.2493
  800MOL0     C 7923   8.870   0.827   8.765 -0.8140  0.0073 -0.1431
  800MOL0     O 7924   8.964   0.807   8.869 -0.2999  0.1696  0.6460
  800MOL0     C 7925   9.014   0.909   8.952  0.6213  0.0370 -0.0156
  800MOL0     C 7926   8.915   0.929   9.074  0.2272 -0.4206 -0.0513
  800MOL0     C 7927   8.971   0.845   9.190  0.2130 -0.0531  0.5332
  800MOL0     C 7928   8.886   0.883   9.314  0.6306 -0.8864  0.6047
  800MOL0     C 7929   8.963   0.869   9.443 -0.1665  0.8367 -0.5906
  800MOL0     C 7930   9.029   0.830   9.539  0.3779  0.1976  0.2087
  800MOL0     C 7931   8.805   0.947   8.735 -0.3450 -0.6617  0.0917
  800MOL0     C 7932   8.718   0.962   8.619  0.7774 -0.0532 -0.3063
  800MOL0     H 7933   8.573   0.603   8.185  0.3078  0.3411  1.3013
  800MOL0     H 7934   8.422   0.598   7.983 -0.4034 -1.0715 -0.1581
  800MOL0     H 7935   8.009   0.749   8.015 -2.5364  2.4055 -0.8348
  800MOL0     H 7936   8.085   0.899   7.981  0.5663  0.7946 -1.2651
  800MOL0     H 7937   8.068   0.851   7.741  0.4767 -2.0429 -1.4823
  800MOL0     H 7938   8.060   0.685   7.754 -1.3860  0.2567 -2.3851
  800MOL0     H 7939   7.822   0.730   7.882 -0.7614 -3.5734 -1.4052
  800MOL0     H 7940   7.855   0.890   7.806  1.7261  0.3528  2.6290
  800MOL0     H 7941   7.857   0.800   7.586 -2.6396  1.0840 -0.4038
  800MOL0     H 7942   7.875   0.636   7.656  1.0404  0.2185  0.8448
  800MOL0     H 7943   7.669   0.689   7.554  1.8158 -1.6890  0.5281
  800MOL0     H 7944   7.658   0.614   7.708 -1.3891 -2.3150 -3.5160
  800MOL0     H 7945   7.618   0.839   7.825  2.6641  2.0278 -0.5283
  800MOL0     H 7946   7.623   0.918   7.674  0.8462 -0.4493 -0.7999
  800MOL0     H 7947   7.394   0.901   7.708 -3.0910 -1.8203  3.7976
  800MOL0     H 7948   7.418   0.758   7.605 -0.5824 -0.4282  0.4891
  800MOL0     H 7949   7.437   0.722   7.910 -1.6612  2.0133  1.0185
  800MOL0     H 7950   7.383   0.602   7.789 -1.8546 -0.4348 -1.1169
  800MOL0     H 7951   7.246   0.963   7.869 -3.1119  2.7456 -1.6266
  800MOL0     H 7952   6.862   0.910   7.928  0.1156  1.7211 -4.7121
  800MOL0     H 7953   6.959   1.014   8.029 -2.5382 -0.9866  0.6222
  800MOL0     H 7954   6.974   1.020   7.725 -0.0538  0.5582  0.0084
  800MOL0     H 7955   7.046   1.127   7.840 -0.6369 -0.5476 -0.7096
  800MOL0     H 7956   6.829   1.187   7.940 -2.1207  0.7444  0.1460
  800MOL0     H 7957   6.739   1.095   7.818 -1.0234  2.3533 -2.2057
  800MOL0     H 7958   6.872   1.217   7.647  0.0523  0.1344  0.1837
  800MOL0     H 7959   6.915   1.343   7.770 -2.0734 -0.6564  1.7262
  800MOL0     H 7960   6.878   1.437   7.560 -0.7033 -0.4815 -1.3111
  800MOL0     H 7961   6.877   1.560   7.279  3.0831  1.3397  0.7745
  800MOL0     H 7962   6.815   1.719   7.336 -3.6081 -0.9058  0.7736
  800MOL0     H 7963   6.936   1.604   7.423  0.4036 -0.9605 -0.7036
  800MOL0     H 7964   6.291   1.896   7.379 -3.2893  1.8556  0.0124
  800MOL0     H 7965   6.171   2.078   7.235 -1.6357 -1.3819 -0.1677
  800MOL0     H 7966   6.212   2.054   6.784 -0.5569 -1.0744 -1.5142
  800MOL0     H 7967   6.067   1.972   6.865  0.4244 -0.5675 -0.5697
  800MOL0     H 7968   6.109   2.249   6.784 -1.7080  1.4231  3.0886
  800MOL0     H 7969   5.977   2.131   6.736 -0.7472 -2.3337  0.7369
  800MOL0     H 7970   5.889   2.301   6.862  3.3501 -0.5351 -3.1445
  800MOL0     H 7971   6.010   2.298   6.989 -0.0012  1.4522  0.2377
  800MOL0     H 7972   5.811   2.076   6.921 -0.3929  3.2696 -1.2541
  800MOL0     H 7973   5.942   2.063   7.042  0.7563  0.2702 -1.6744
  800MOL0     H 7974   5.848   2.236   7.185  1.6391 -0.2212 -0.4067
  800MOL0     H 7975   5.725   2.115   7.166  0.3363 -0.4846 -1.7697
  800MOL0     H 7976   5.629   2.344   7.126  1.2949 -1.0444  1.4003
  800MOL0     H 7977   5.742   2.383   7.000 -1.9910 -0.3885 -2.7946
  800MOL0     H 7978   5.558   2.152   7.014 -1.5968  1.4310  2.2783
  800MOL0     H 7979   5.639   2.205   6.854  2.0292  2.0914  1.2411
  800MOL0     H 7980   5.421   2.284   6.817  1.5653  1.6013 -1.1734
  800MOL0     H 7981   5.518   2.413   6.839 -0.2720 -1.5357 -1.8170
  800MOL0     H 7982   6.363   1.921   6.899 -1.8430  1.3282  0.6586
  800MOL0     H 7983   6.484   1.758   7.027  0.5468  1.2763 -0.3046
  800MOL0     H 7984   6.395   1.545   7.488  0.2224  0.2995  2.2288
  800MOL0     H 7985   6.476   1.390   7.677 -0.7751 -0.5139 -0.9637
  800MOL0     H 7986   8.145   0.847   8.198  0.2675  0.7003 -0.3811
  800MOL0     H 7987   8.322   0.871   8.386  1.9727  0.2446  0.4479
  800MOL0     H 7988   8.706   0.634   8.536  2.8609 -1.7476  0.7803
  800MOL0     H 7989   8.881   0.621   8.701  0.8665  0.7728 -0.5611
  800MOL0     H 7990   9.116   0.883   8.984 -0.5505 -2.1150  2.4062
  800MOL0     H 7991   9.019   1.000   8.892  0.8994  0.1291  0.1508
  800MOL0     H 7992   8.817   0.891   9.042  1.9574 -2.9649 -2.7914
  800MOL0     H 7993   8.906   1.036   9.096  1.0217 -0.5573  0.9801
  800MOL0     H 7994   9.078   0.860   9.204  0.2002 -0.4354  1.0466
  800MOL0     H 7995   8.958   0.740   9.163  1.7684 -0.4403  1.1771
  800MOL0     H 7996   8.796   0.821   9.316  0.6538 -0.9926 -0.9229
  800MOL0     H 7997   8.847   0.984   9.303 -1.3371 -1.7382 -0.9269
  800MOL0     H 7998   9.083   0.788   9.621  1.1000  0.5012 -0.1044
  800MOL0     H 7999   8.822   1.036   8.796 -0.1109 -0.7728  0.1882
  800MOL0     H 8000   8.691   1.064   8.593  3.9264  0.8063 -0.6651
  801MOL0     O 8001   8.877   6.098   6.230  0.0757  0.1385  0.2920
  801MOL0     C 8002   8.846   6.184   6.141 -0.6264 -0.1140 -0.5209
  801MOL0     O 8003   8.912   6.198   6.026  0.0743  0.0188  0.6299
  801MOL0     C 8004   9.001   6.105   5.980 -0.1592 -0.0366  0.0335
  801MOL0     C 8005   8.976   5.965   5.992  0.0003  1.2408 -0.5939
  801MOL0     C 8006   9.061   5.863   5.938 -0.2571 -0.4472  0.2028
  801MOL0     C 8007   9.172   5.911   5.870 -0.0803 -0.3343  0.0394
  801MOL0     O 8008   9.265   5.816   5.836  0.3730 -0.3212 -0.5258
  801MOL0     C 8009   9.388   5.844   5.770 -1.0535  0.0459 -0.0486
  801MOL0     C 8010   9.413   5.723   5.693 -0.3452 -0.4262 -0.6205
  801MOL0     C 8011   9.562   5.731   5.643  0.9324  0.3845 -0.2311
  801MOL0     C 8012   9.578   5.645   5.518 -0.6178  0.2686 -0.4176
  801MOL0     C 8013   9.724   5.647   5.460  0.8455 -0.6413  0.2529
  801MOL0     C 8014   9.828   5.589   5.558 -0.3929 -0.6605 -0.3721
  801MOL0     C 8015   9.961   5.555   5.496  0.2734 -0.0221 -0.9888
  801MOL0     C 8016   9.973   5.416   5.435 -0.2715  0.6023  0.0271
  801MOL0     N 8017  10.057   5.418   5.309 -0.2146  0.5583 -0.9967
  801MOL0     C 8018  10.188   5.370   5.291 -0.6656 -0.2098 -0.3879
  801MOL0     C 8019  10.210   5.386   5.164  0.9230  0.6025 -0.3080
  801MOL0     C 8020  10.335   5.337   5.089  0.1611 -0.2010  0.1332
  801MOL0     C 8021  10.414   5.465   5.063  0.4089 -0.5018 -0.0210
  801MOL0     C 8022  10.544   5.422   4.998 -0.1001 -0.8758  0.5171
  801MOL0     C 8023  10.629   5.532   4.923 -0.4505  0.7349  0.2417
  801MOL0     O 8024  10.719   5.588   5.016 -0.3926 -0.0782  0.6633
  801MOL0     C 8025  10.854   5.533   5.026  1.2186  0.2370  0.2025
  801MOL0     C 8026  10.895   5.412   4.976 -0.1054  0.4793  0.2218
  801MOL0     C 8027  11.022   5.357   5.001  1.2187  1.0554  0.0877
  801MOL0     C 8028  11.043   5.215   4.951 -0.0722  0.0742  0.6571
  801MOL0     C 8029  11.120   5.431   5.068 -1.0828 -0.0249 -0.1750
  801MOL0     C 8030  11.255   5.371   5.128 -0.3115  0.2633 -0.0096
  801MOL0     O 8031  11.317   5.432   5.236 -0.5762 -1.2292  0.2999
  801MOL0     C 8032  11.455   5.396   5.260  0.3889  0.2801  0.2195
  801MOL0     C 8033  11.493   5.262   5.290  0.3435  1.6320 -0.1992
  801MOL0     C 8034  11.631   5.235   5.323  0.0419  0.0258  0.8208
  801MOL0     C 8035  11.740   5.327   5.332  0.2208 -0.9081  1.5141
  801MOL0     O 8036  11.862   5.280   5.360  0.1765 -0.2202 -0.5860
  801MOL0     C 8037  11.969   5.372   5.356  0.3506 -0.9714 -0.3112
  801MOL0     C 8038  12.028   5.371   5.223  0.2588  0.2442  1.0721
  801MOL0     C 8039  12.151   5.462   5.222 -0.5907  0.4696 -0.2377
  801MOL0     C 8040  12.221   5.498   5.087  0.4599 -0.4690  0.3045
  801MOL0     C 8041  12.308   5.620   5.090 -0.7566  0.6666 -0.2680
  801MOL0     C 8042  12.440   5.603   5.163  0.4609  0.3944  0.3914
  801MOL0     C 8043  12.534   5.727   5.128  0.3663  0.3894 -0.1518
  801MOL0     C 8044  12.670   5.700   5.198  0.0464  0.2273  0.2836
  801MOL0    Cl 8045  12.771   5.598   5.082  0.6869 -0.0727 -0.5559
  801MOL0     C 8046  11.698   5.455   5.285  0.2524  0.4256  0.4369
  801MOL0     C 8047  11.563   5.487   5.264 -0.4238  0.4392  0.8593
  801MOL0     O 8048  11.283   5.266   5.077 -0.3402  0.3998 -0.9091
  801MOL0     C 8049  11.078   5.565   5.102 -0.9881  0.2926 -0.5599
  801MOL0     C 8050  10.951   5.611   5.085  0.5319  0.2044 -0.4030
  801MOL0     N 8051  10.095   5.429   5.107 -0.0443  0.2807 -0.0649
  801MOL0     N 8052  10.007   5.455   5.191  0.2110  0.5624 -0.2130
  801MOL0     C 8053   9.189   6.049   5.846  1.0494 -0.1472  0.7802
  801MOL0     C 8054   9.109   6.150   5.909  0.3330  0.4771 -0.4305
  801MOL0     C 8055   8.729   6.260   6.159  0.0443 -0.6973 -0.6816
  801MOL0     C 8056   8.701   6.372   6.075 -0.3267  0.1087  0.2870
  801MOL0     C 8057   8.584   6.445   6.093  0.1659 -0.7200 -0.0937
  801MOL0     C 8058   8.492   6.423   6.197 -0.4073 -0.5146 -0.2450
  801MOL0     O 8059   8.396   6.515   6.212  0.0272 -0.4424 -0.2066
  801MOL0     C 8060   8.305   6.484   6.321 -0.6934 -0.3062  0.3489
  801MOL0     C 8061   8.198   6.596   6.348  0.1072  0.4826  0.4005
  801MOL0     C 8062   8.268   6.717   6.421 -0.2728 -0.2105  0.0489
  801MOL0     C 8063   8.171   6.826   6.464  0.3891 -0.0205  0.1429
  801MOL0     C 8064   8.067   6.872   6.366  0.3415  0.0789 -0.1512
  801MOL0     C 8065   7.992   6.912   6.287  0.3302 -0.0213 -0.5789
  801MOL0     C 8066   8.516   6.298   6.269  0.1872 -0.4403  0.0352
  801MOL0     C 8067   8.631   6.228   6.262  0.0857 -0.2850 -0.2479
  801MOL0     H 8068   8.892   5.929   6.052 -0.2605  2.1107 -0.4108
  801MOL0     H 8069   9.041   5.757   5.950  1.5143 -0.9325 -0.8650
  801MOL0     H 8070   9.390   5.934   5.708 -1.2253 -0.2638 -0.5042
  801MOL0     H 8071   9.469   5.851   5.843  1.2464 -3.1171 -2.0290
  801MOL0     H 8072   9.397   5.630   5.748 -0.2103 -0.7694 -1.1510
  801MOL0     H 8073   9.346   5.728   5.607  1.7199  0.7635 -2.2568
  801MOL0     H 8074   9.595   5.835   5.628  0.7331  0.3772 -0.7177
  801MOL0     H 8075   9.619   5.700   5.731  0.8867 -2.8227 -1.2316
  801MOL0     H 8076   9.550   5.546   5.556 -1.9175  0.2926 -1.2430
  801MOL0     H 8077   9.501   5.671   5.444 -3.1650 -0.0000  1.9821
  801MOL0     H 8078   9.721   5.583   5.372 -1.1184  0.6260 -0.6697
  801MOL0     H 8079   9.741   5.753   5.436  1.0048  0.4505  4.2875
  801MOL0     H 8080   9.858   5.669   5.626 -0.3065 -0.3226 -0.8014
  801MOL0     H 8081   9.783   5.507   5.614 -1.9022 -0.5768 -1.4103
  801MOL0     H 8082   9.984   5.623   5.413  1.7113 -0.8136 -1.2686
  801MOL0     H 8083  10.038   5.576   5.570 -2.3319 -0.9035  2.1811
  801MOL0     H 8084   9.881   5.361   5.413  0.8630 -1.4838  0.2528
  801MOL0     H 8085  10.017   5.355   5.513  1.2647  5.2082  3.1878
  801MOL0     H 8086  10.263   5.335   5.362 -1.5793  1.1884  1.3453
  801MOL0     H 8087  10.375   5.253   5.147 -1.2336 -1.4931 -0.7237
  801MOL0     H 8088  10.309   5.308   4.987 -0.4503 -0.0697  0.2473
  801MOL0     H 8089  10.421   5.516   5.160 -1.7722 -0.5592  0.2162
  801MOL0     H 8090  10.353   5.530   5.000 -0.4700 -3.4271 -2.4203
  801MOL0     H 8091  10.504   5.357   4.919 -0.4996  1.0706 -0.9670
  801MOL0     H 8092  10.601   5.360   5.068  0.9633  0.3543  0.7610
  801MOL0     H 8093  10.573   5.615   4.879  3.1313  2.0567 -2.3123
  801MOL0     H 8094  10.680   5.492   4.835 -0.2881  3.0397 -0.7925
  801MOL0     H 8095  10.814   5.350   4.939 -1.6967  1.8779  1.2359
  801MOL0     H 8096  11.069   5.158   5.040  0.9426  0.5007  0.6433
  801MOL0     H 8097  10.955   5.178   4.897  1.2732 -0.7613 -1.0414
  801MOL0     H 8098  11.118   5.222   4.871  1.4404  0.8330  2.0863
  801MOL0     H 8099  11.416   5.185   5.297  0.8715  0.9870 -1.1828
  801MOL0     H 8100  11.634   5.137   5.369 -0.6412  1.2306  3.5830
  801MOL0     H 8101  11.941   5.469   5.398  2.5562  0.1609 -1.2939
  801MOL0     H 8102  12.046   5.343   5.427  0.1302  2.3921  1.5166
  801MOL0     H 8103  12.054   5.268   5.198  0.9721  1.3072 -3.5462
  801MOL0     H 8104  11.959   5.396   5.141 -0.0626 -2.9687  0.2164
  801MOL0     H 8105  12.224   5.423   5.294  0.4493  1.4644 -0.7276
  801MOL0     H 8106  12.129   5.560   5.264 -1.4505  0.1641  0.0407
  801MOL0     H 8107  12.278   5.416   5.042  0.3224 -0.4032  0.0050
  801MOL0     H 8108  12.143   5.516   5.012  0.2733  2.0563  1.0066
  801MOL0     H 8109  12.254   5.703   5.137  0.5021  1.2921  0.1228
  801MOL0     H 8110  12.324   5.650   4.986 -1.5255 -1.8497 -1.1786
  801MOL0     H 8111  12.418   5.576   5.267  0.7543 -0.4524  0.2409
  801MOL0     H 8112  12.496   5.520   5.119  1.1883  0.8780  0.3798
  801MOL0     H 8113  12.490   5.816   5.175  1.9281  1.7303 -1.1177
  801MOL0     H 8114  12.549   5.745   5.021 -0.6200 -0.9164 -0.5214
  801MOL0     H 8115  12.659   5.656   5.297  0.3750 -2.0398 -0.6276
  801MOL0     H 8116  12.718   5.798   5.201 -0.3108  0.4741 -1.0333
  801MOL0     H 8117  11.771   5.535   5.275  0.6113 -0.0349 -0.9448
  801MOL0     H 8118  11.555   5.593   5.245  3.0762  0.9101  1.3780
  801MOL0     H 8119  11.141   5.631   5.160  0.7930 -3.9888  3.0459
  801MOL0     H 8120  10.920   5.707   5.125 -1.6060 -0.2839 -0.7629
  801MOL0     H 8121   9.269   6.081   5.781 -0.5697  2.7052  0.0181
  801MOL0     H 8122   9.138   6.254   5.920 -1.3400  0.8020  1.4892
  801MOL0     H 8123   8.770   6.387   5.993  6.2061 -1.9433  4.6187
  801MOL0     H 8124   8.569   6.533   6.031  0.5029 -2.5971 -3.0247
  801MOL0     H 8125   8.269   6.381   6.315  2.1065 -1.2714 -3.5482
  801MOL0     H 8126   8.366   6.479   6.412 -1.4438 -2.3009  0.7891
  801MOL0     H 8127   8.124   6.561   6.421  3.1978  0.7485  4.0008
  801MOL0     H 8128   8.146   6.611   6.253  0.7483  3.1225  0.3825
  801MOL0     H 8129   8.352   6.749   6.359  0.4065  0.0666  1.0913
  801MOL0     H 8130   8.319   6.672   6.507  0.8324 -0.7639 -0.8719
  801MOL0     H 8131   8.225   6.914   6.501 -0.9252  0.6829  0.4585
  801MOL0     H 8132   8.117   6.798   6.555  0.7601  1.4560  0.8536
  801MOL0     H 8133   7.924   6.937   6.207 -0.4863  0.9882  0.4032
  801MOL0     H 8134   8.444   6.268   6.344 -0.0161 -1.7192 -0.6522
  801MOL0     H 8135   8.654   6.145   6.328 -2.2151 -1.4397 -0.7943
  802MOL0     O 8136  10.612  11.064   0.528 -0.4427  0.0691 -0.3873
  802MOL0     C 8137  10.647  10.960   0.587 -0.0291 -0.2914 -0.1172
  802MOL0     O 8138  10.592  10.838   0.574 -0.2152 -0.3354 -0.4227
  802MOL0     C 8139  10.497  10.819   0.479  0.7695  0.2273  0.5538
  802MOL0     C 8140  10.371  10.852   0.540  0.9046  0.9531  0.3429
  802MOL0     C 8141  10.253  10.809   0.484  0.4969 -0.1201  0.1976
  802MOL0     C 8142  10.262  10.734   0.361  0.5566  0.3361 -0.3833
  802MOL0     O 8143  10.138  10.701   0.308 -0.0378 -0.4734  0.2735
  802MOL0     C 8144  10.133  10.628   0.191 -0.1911 -0.8869  0.2598
  802MOL0     C 8145   9.991  10.598   0.160  0.7544  0.4078  0.9825
  802MOL0     C 8146   9.898  10.713   0.140 -0.0029  0.6953  0.3138
  802MOL0     C 8147   9.775  10.679   0.047  0.2700 -1.1396  0.1216
  802MOL0     C 8148   9.680  10.798   0.014 -1.0256 -0.7213  0.1636
  802MOL0     C 8149   9.542  10.769  -0.059  0.9992 -0.1066  0.3911
  802MOL0     C 8150   9.460  10.645  -0.011  0.1093  0.6737 -1.1203
  802MOL0     C 8151   9.445  10.631   0.141  0.4022  0.2781  0.5478
  802MOL0     N 8152   9.353  10.517   0.166  0.4356 -0.2342  0.2908
  802MOL0     C 8153   9.395  10.385   0.145  0.1199  0.1788 -0.1514
  802MOL0     C 8154   9.307  10.308   0.208  0.6331  0.0224  0.7278
  802MOL0     C 8155   9.331  10.165   0.218  0.1528  1.0188 -0.0559
  802MOL0     C 8156   9.197  10.090   0.186 -0.7783  0.6224  0.5257
  802MOL0     C 8157   9.223   9.936   0.176  0.0407  0.0891 -0.2093
  802MOL0     C 8158   9.104   9.871   0.116 -0.2484  0.4974  0.4011
  802MOL0     O 8159   8.983   9.910   0.180  0.6796 -0.5403 -0.6146
  802MOL0     C 8160   8.867   9.849   0.139  0.0191  0.0009 -0.9432
  802MOL0     C 8161   8.754   9.922   0.176 -0.4109  0.5027 -0.3928
  802MOL0     C 8162   8.628   9.876   0.169  0.3825  0.1047 -0.4706
  802MOL0     C 8163   8.513   9.978   0.200  0.6754  0.3546 -0.3657
  802MOL0     C 8164   8.598   9.753   0.110  0.0225  0.6561 -0.4009
  802MOL0     C 8165   8.466   9.690   0.107  0.5107  0.4572 -0.4972
  802MOL0     O 8166   8.429   9.639  -0.015 -0.2108 -0.5767  0.3705
  802MOL0     C 8167   8.298   9.592  -0.022 -0.1832  0.4236 -0.8256
  802MOL0     C 8168   8.260   9.468   0.031  0.1010  1.3170  0.4582
  802MOL0     C 8169   8.125   9.440   0.034  0.3472  0.0546  0.8160
  802MOL0     C 8170   8.023   9.520  -0.027 -0.7100  0.1793  0.2402
  802MOL0     O 8171   7.886   9.510  -0.011 -0.9806  0.0046  0.7768
  802MOL0     C 8172   7.842   9.402   0.068  0.1346 -0.1993 -0.2026
  802MOL0     C 8173   7.685   9.392   0.063 -0.0513  0.1273  1.3443
  802MOL0     C 8174   7.614   9.361  -0.072 -0.1148 -0.9834  0.5650
  802MOL0     C 8175   7.467   9.407  -0.076 -0.6454 -0.1144 -0.0266
  802MOL0     C 8176   7.418   9.402  -0.221  0.0267 -0.2970  0.4156
  802MOL0     C 8177   7.268   9.457  -0.235 -0.0001 -0.5125  0.4715
  802MOL0     C 8178   7.167   9.363  -0.165  0.1202 -0.4866  0.7356
  802MOL0     C 8179   7.023   9.422  -0.171 -0.0954  0.7424  0.1614
  802MOL0    Cl 8180   6.998   9.508  -0.012 -0.0669  0.0140  0.0703
  802MOL0     C 8181   8.071   9.627  -0.103  0.9074 -0.3825 -0.0589
  802MOL0     C 8182   8.204   9.664  -0.097 -0.0612  0.4935  0.3914
  802MOL0     O 8183   8.393   9.698   0.204  0.2494 -0.3066 -0.2649
  802MOL0     C 8184   8.708   9.675   0.059  0.9479 -0.4074  0.2817
  802MOL0     C 8185   8.840   9.725   0.076 -0.1464 -0.6200  0.6377
  802MOL0     N 8186   9.207  10.396   0.261 -0.5776  0.0319 -0.1155
  802MOL0     N 8187   9.236  10.524   0.235 -0.4149 -0.4923  0.3073
  802MOL0     C 8188  10.383  10.713   0.294  0.6078 -0.3694 -0.7302
  802MOL0     C 8189  10.501  10.762   0.351 -0.5553 -0.3042  0.0586
  802MOL0     C 8190  10.755  10.982   0.686 -0.8887 -0.1374  0.1794
  802MOL0     C 8191  10.759  10.891   0.798  0.1970 -0.3941  0.9945
  802MOL0     C 8192  10.835  10.925   0.911 -0.3262  0.1386  0.1360
  802MOL0     C 8193  10.922  11.029   0.906 -0.1622 -0.0269 -0.0172
  802MOL0     O 8194  11.013  11.044   1.013  0.4315  0.1118 -0.2205
  802MOL0     C 8195  11.141  11.095   0.980  0.0132  0.1655 -0.3710
  802MOL0     C 8196  11.237  11.048   1.087  0.0257  0.3533 -0.3235
  802MOL0     C 8197  11.370  11.134   1.083 -0.5727  0.0883  0.4619
  802MOL0     C 8198  11.500  11.042   1.086  0.3063  0.0019 -0.0050
  802MOL0     C 8199  11.501  10.940   0.984 -0.9895  0.0402  0.3332
  802MOL0     C 8200  11.511  10.850   0.909  0.3941 -0.8012  1.2021
  802MOL0     C 8201  10.924  11.108   0.792  0.5544  0.1854 -0.0468
  802MOL0     C 8202  10.832  11.096   0.689  0.1466 -0.3313 -0.4228
  802MOL0     H 8203  10.381  10.898   0.638  1.8785 -2.7905  2.1557
  802MOL0     H 8204  10.159  10.830   0.534  0.5897  3.0226 -0.7256
  802MOL0     H 8205  10.170  10.689   0.108  0.2444  0.1644  1.2085
  802MOL0     H 8206  10.203  10.543   0.190  0.3632 -0.4368  0.5121
  802MOL0     H 8207   9.989  10.548   0.062  0.6849  0.1174  1.1319
  802MOL0     H 8208   9.947  10.532   0.235  1.5615  0.9160  1.9265
  802MOL0     H 8209   9.858  10.755   0.234 -2.0433  0.7363 -0.5080
  802MOL0     H 8210   9.937  10.804   0.094 -1.2984  0.0935 -2.1834
  802MOL0     H 8211   9.803  10.638  -0.051 -0.4072  1.9566 -1.4877
  802MOL0     H 8212   9.721  10.599   0.098 -1.5239  0.0229  0.1022
  802MOL0     H 8213   9.645  10.830   0.113 -2.3901 -0.6552 -0.3186
  802MOL0     H 8214   9.733  10.888  -0.018  2.4602 -1.9995  1.8265
  802MOL0     H 8215   9.476  10.851  -0.029  0.9669 -1.3257  4.0823
  802MOL0     H 8216   9.559  10.771  -0.167 -1.8740 -1.3062 -0.1791
  802MOL0     H 8217   9.366  10.653  -0.065 -0.7665 -3.8862 -0.6652
  802MOL0     H 8218   9.504  10.550  -0.043 -3.2791 -2.2389  1.9383
  802MOL0     H 8219   9.403  10.725   0.178  1.1813  0.4701  0.9733
  802MOL0     H 8220   9.540  10.614   0.192  1.6365 -0.9333 -1.9406
  802MOL0     H 8221   9.479  10.342   0.093 -0.0498 -1.2643  0.7095
  802MOL0     H 8222   9.400  10.123   0.144  0.1495 -2.5718  1.7469
  802MOL0     H 8223   9.367  10.136   0.317  1.3615 -1.7851 -1.2091
  802MOL0     H 8224   9.142  10.121   0.098 -0.5169 -0.9805 -0.2371
  802MOL0     H 8225   9.143  10.093   0.281  1.4409  1.6354  1.8644
  802MOL0     H 8226   9.231   9.893   0.276 -0.9595 -0.2527 -0.2641
  802MOL0     H 8227   9.312   9.905   0.121  1.1772  1.4713  0.7729
  802MOL0     H 8228   9.113   9.762   0.116 -1.0171  0.4283  0.4763
  802MOL0     H 8229   9.102   9.904   0.012 -0.1382  2.4366  0.9687
  802MOL0     H 8230   8.769  10.018   0.225 -0.2390 -0.1188  0.8110
  802MOL0     H 8231   8.559  10.076   0.215 -0.5067  1.1317 -1.5713
  802MOL0     H 8232   8.445   9.977   0.114 -0.5270 -0.1044  0.5569
  802MOL0     H 8233   8.447   9.962   0.286 -1.9607  0.3956 -2.2657
  802MOL0     H 8234   8.332   9.405   0.083  1.5041  0.3683 -2.3908
  802MOL0     H 8235   8.092   9.352   0.087  1.6129 -2.4763 -2.2509
  802MOL0     H 8236   7.884   9.306   0.036 -4.0931 -2.8114  1.2079
  802MOL0     H 8237   7.860   9.428   0.172 -1.2730 -2.1679  0.6030
  802MOL0     H 8238   7.657   9.324   0.144  0.0390  0.9697  2.1028
  802MOL0     H 8239   7.648   9.490   0.096  0.5691  2.2417 -3.3640
  802MOL0     H 8240   7.618   9.256  -0.105 -1.3683 -0.2980 -2.1085
  802MOL0     H 8241   7.674   9.416  -0.145 -1.2333 -1.5707 -0.8741
  802MOL0     H 8242   7.414   9.331  -0.019  0.1094  1.8300  3.5504
  802MOL0     H 8243   7.453   9.508  -0.037 -0.3883  0.2342 -0.7991
  802MOL0     H 8244   7.425   9.299  -0.258 -1.2601 -0.9114  1.7862
  802MOL0     H 8245   7.483   9.465  -0.282  0.5132  0.3265  1.5391
  802MOL0     H 8246   7.259   9.562  -0.204 -2.3309 -0.4824 -0.1479
  802MOL0     H 8247   7.234   9.453  -0.338  3.3602 -1.1238 -0.7341
  802MOL0     H 8248   7.187   9.356  -0.058 -0.0309  0.6552  0.8463
  802MOL0     H 8249   7.177   9.262  -0.207  1.8973 -0.5314  1.1783
  802MOL0     H 8250   6.957   9.337  -0.192  1.5664  0.1451 -3.3004
  802MOL0     H 8251   7.015   9.490  -0.256 -0.8016  1.0991  0.4960
  802MOL0     H 8252   8.004   9.707  -0.132  2.3553  1.2878  1.0314
  802MOL0     H 8253   8.241   9.752  -0.149  1.4896 -0.6089 -0.5002
  802MOL0     H 8254   8.695   9.572   0.026 -4.4747 -0.0023  0.2658
  802MOL0     H 8255   8.918   9.662   0.034  0.5392 -1.6995  3.3233
  802MOL0     H 8256  10.391  10.672   0.194 -1.3649  3.4615 -2.6991
  802MOL0     H 8257  10.599  10.742   0.309 -1.3453 -2.2417 -0.9663
  802MOL0     H 8258  10.685  10.813   0.810 -3.2565  2.7991  2.4498
  802MOL0     H 8259  10.831  10.856   0.994  0.6984 -0.0391  0.0501
  802MOL0     H 8260  11.184  11.046   0.892 -1.7177 -3.4135  0.5631
  802MOL0     H 8261  11.134  11.204   0.977 -3.1134  0.0529 -0.0675
  802MOL0     H 8262  11.263  10.942   1.079  1.9673  0.5673  1.8693
  802MOL0     H 8263  11.185  11.073   1.180  0.3241  2.9739 -0.7803
  802MOL0     H 8264  11.375  11.206   1.166  0.1776  1.6553 -0.8888
  802MOL0     H 8265  11.371  11.183   0.986  1.0748 -0.2438  0.2744
  802MOL0     H 8266  11.516  10.988   1.180 -1.4490  1.8388  1.4137
  802MOL0     H 8267  11.581  11.109   1.055  2.2299 -0.1517  4.0086
  802MOL0     H 8268  11.538  10.772   0.841 -2.2479  1.0275 -2.2487
  802MOL0     H 8269  10.988  11.193   0.769  1.3383 -1.0101 -2.7325
  802MOL0     H 8270  10.849  11.168   0.609 -1.3974  0.7267  0.1514
  803MOL0     O 8271  11.128   2.278   1.312  0.4953  0.0352  1.1609
  803MOL0     C 8272  11.168   2.167   1.345 -0.5452  0.6323 -0.5932
  803MOL0     O 8273  11.099   2.044   1.320  0.4325 -0.2798 -0.2738
  803MOL0     C 8274  10.975   2.057   1.268  0.9239 -0.4293 -0.0536
  803MOL0     C 8275  10.870   2.003   1.333 -0.7113  0.1810 -0.4190
  803MOL0     C 8276  10.735   2.026   1.312 -0.5594 -0.2604 -0.8527
  803MOL0     C 8277  10.704   2.107   1.198  0.8431 -0.4166 -0.6876
  803MOL0     O 8278  10.574   2.142   1.177  0.3058  0.3370  1.2630
  803MOL0     C 8279  10.548   2.265   1.098  0.3880 -0.3883 -0.4999
  803MOL0     C 8280  10.407   2.314   1.142  0.0275  0.0724 -0.8150
  803MOL0     C 8281  10.372   2.352   1.287 -0.1870  0.3809 -0.1653
  803MOL0     C 8282  10.459   2.466   1.347  0.9064  0.6174  0.9123
  803MOL0     C 8283  10.501   2.451   1.488 -0.0875 -0.4883 -0.0681
  803MOL0     C 8284  10.605   2.344   1.525  0.4960  0.2402  0.5670
  803MOL0     C 8285  10.736   2.356   1.437  0.1867 -0.2473  0.6789
  803MOL0     C 8286  10.807   2.500   1.441 -0.0843  1.2818  0.0133
  803MOL0     N 8287  10.886   2.513   1.562 -0.1005 -0.4119  0.7020
  803MOL0     C 8288  11.024   2.524   1.566  0.0760  0.0079  0.0508
  803MOL0     C 8289  11.056   2.568   1.692  0.8656  0.5876  0.4479
  803MOL0     C 8290  11.191   2.606   1.736 -0.1870 -1.0120  0.7825
  803MOL0     C 8291  11.310   2.533   1.667  0.1550 -0.1518  0.3053
  803MOL0     C 8292  11.345   2.388   1.727  0.1028  0.3871  0.4757
  803MOL0     C 8293  11.369   2.381   1.872  0.5904  0.4721  0.2853
  803MOL0     O 8294  11.489   2.307   1.888  0.2828  0.9847  0.9818
  803MOL0     C 8295  11.609   2.361   1.868 -0.4573  0.3453  0.2689
  803MOL0     C 8296  11.646   2.491   1.876  0.2864  0.3376  0.1209
  803MOL0     C 8297  11.775   2.538   1.861 -0.4717  0.0374  0.4690
  803MOL0     C 8298  11.808   2.693   1.862  0.0226 -0.0522 -0.7785
  803MOL0     C 8299  11.882   2.442   1.839  0.6894  0.1944  0.0036
  803MOL0     C 8300  12.017   2.494   1.825  1.0045  1.0765 -0.0178
  803MOL0     O 8301  12.049   2.558   1.709 -0.0425 -0.3262 -0.6875
  803MOL0     C 8302  12.179   2.575   1.667 -1.2505 -0.2649 -0.1012
  803MOL0     C 8303  12.206   2.686   1.585 -0.4748 -0.3038  0.3152
  803MOL0     C 8304  12.338   2.730   1.562 -1.0230 -0.0843 -0.3705
  803MOL0     C 8305  12.448   2.649   1.598  0.5221 -0.8849  1.0375
  803MOL0     O 8306  12.576   2.690   1.573  0.5374  0.1112 -0.3759
  803MOL0     C 8307  12.615   2.694   1.434 -0.1092  0.0993  0.8304
  803MOL0     C 8308  12.759   2.741   1.420 -0.1004 -0.4862 -0.4412
  803MOL0     C 8309  12.783   2.887   1.452  0.6997 -0.1409  0.6485
  803MOL0     C 8310  12.918   2.932   1.409  0.2175  0.0729 -0.4894
  803MOL0     C 8311  12.941   3.073   1.458  0.1086 -1.0219  0.1691
  803MOL0     C 8312  13.085   3.118   1.446  0.4098  0.0869  0.5149
  803MOL0     C 8313  13.096   3.251   1.507 -0.4582 -0.6102 -1.4183
  803MOL0     C 8314  13.147   3.242   1.653 -0.2804  0.3832  0.1359
  803MOL0    Cl 8315  13.189   3.410   1.695  0.0836  0.2149  0.2512
  803MOL0     C 8316  12.425   2.548   1.686  0.2851 -0.0504 -0.9816
  803MOL0     C 8317  12.293   2.507   1.725 -0.7472  0.5733  0.2422
  803MOL0     O 8318  12.091   2.468   1.911  0.0791 -0.0704  0.0367
  803MOL0     C 8319  11.847   2.308   1.826 -0.6086 -0.6895 -0.5053
  803MOL0     C 8320  11.706   2.269   1.832 -0.9923  0.6053 -0.1903
  803MOL0     N 8321  10.937   2.562   1.765  0.7874 -0.5623 -0.4696
  803MOL0     N 8322  10.833   2.541   1.685  0.1226 -0.9325  0.7136
  803MOL0     C 8323  10.806   2.153   1.114  0.1378 -0.2111 -0.2435
  803MOL0     C 8324  10.942   2.123   1.146 -0.6979  0.1937 -0.1062
  803MOL0     C 8325  11.304   2.153   1.402  0.4794 -0.6118 -0.9866
  803MOL0     C 8326  11.393   2.263   1.396 -0.6405  0.1223  0.5849
  803MOL0     C 8327  11.532   2.250   1.426  0.3022 -0.8407  0.4208
  803MOL0     C 8328  11.567   2.122   1.476  0.0205  0.2147  0.3566
  803MOL0     O 8329  11.694   2.080   1.494 -0.5374 -0.2639  0.5141
  803MOL0     C 8330  11.815   2.170   1.476 -0.1374  0.2647  0.7151
  803MOL0     C 8331  11.945   2.070   1.477  0.3581 -0.0110 -0.2851
  803MOL0     C 8332  12.071   2.154   1.502 -0.6262 -1.9278 -0.2335
  803MOL0     C 8333  12.209   2.082   1.486 -0.3584 -0.0566  0.1046
  803MOL0     C 8334  12.317   2.182   1.482  0.0521  0.8258 -0.2385
  803MOL0     C 8335  12.399   2.272   1.473  0.2357  0.7493  0.9819
  803MOL0     C 8336  11.477   2.017   1.491 -0.8210 -0.2782 -0.4854
  803MOL0     C 8337  11.341   2.024   1.458  0.4724 -0.6459 -0.3058
  803MOL0     H 8338  10.887   1.938   1.418  0.8413  2.4259  1.1044
  803MOL0     H 8339  10.657   1.987   1.375 -0.0022 -0.1111 -0.0483
  803MOL0     H 8340  10.624   2.340   1.123  0.1856  0.3528 -2.0096
  803MOL0     H 8341  10.552   2.242   0.992  2.0014 -1.3073 -0.2725
  803MOL0     H 8342  10.392   2.400   1.076  3.5781  1.9731  0.5494
  803MOL0     H 8343  10.329   2.245   1.110 -1.4099  0.7912  0.9559
  803MOL0     H 8344  10.268   2.386   1.286 -0.4589 -0.4258  0.0656
  803MOL0     H 8345  10.380   2.265   1.352 -3.4587 -0.2680 -0.4560
  803MOL0     H 8346  10.552   2.476   1.290  0.5730 -3.3514 -0.6102
  803MOL0     H 8347  10.412   2.565   1.341  1.0875  0.8193  2.3540
  803MOL0     H 8348  10.525   2.553   1.518 -1.4338 -0.5510  1.3913
  803MOL0     H 8349  10.410   2.424   1.543 -0.2486 -2.1338 -1.0683
  803MOL0     H 8350  10.633   2.359   1.630  0.8677  0.6697  0.4111
  803MOL0     H 8351  10.557   2.249   1.503  0.0824  0.5792 -0.0151
  803MOL0     H 8352  10.804   2.277   1.470  2.6042  3.4527  5.9506
  803MOL0     H 8353  10.720   2.333   1.331 -2.4087 -0.0848  0.9763
  803MOL0     H 8354  10.727   2.575   1.445 -0.3536  1.0851 -1.3658
  803MOL0     H 8355  10.865   2.521   1.351 -3.7465 -1.7496 -3.4758
  803MOL0     H 8356  11.104   2.494   1.500  1.6378  0.8423  1.4818
  803MOL0     H 8357  11.198   2.712   1.711 -2.7481 -1.0188 -0.2503
  803MOL0     H 8358  11.195   2.608   1.846  0.0060  3.3680  0.8974
  803MOL0     H 8359  11.395   2.598   1.690  0.6246 -0.8699  0.6257
  803MOL0     H 8360  11.311   2.518   1.559  1.4055  1.0445  0.1164
  803MOL0     H 8361  11.432   2.354   1.671 -1.1503  1.4929 -2.3080
  803MOL0     H 8362  11.263   2.319   1.704 -1.1012  1.9664 -0.2026
  803MOL0     H 8363  11.284   2.327   1.915 -2.7890  3.0142 -2.5271
  803MOL0     H 8364  11.365   2.485   1.907  0.3092  0.0190  1.6420
  803MOL0     H 8365  11.565   2.558   1.905 -1.6078 -1.1222 -1.5748
  803MOL0     H 8366  11.710   2.739   1.852  0.2921  0.3012 -2.0047
  803MOL0     H 8367  11.847   2.736   1.955 -0.4995 -1.1693 -0.0247
  803MOL0     H 8368  11.874   2.714   1.777  2.0904  1.3514  1.0458
  803MOL0     H 8369  12.116   2.726   1.539 -0.0798 -0.0184 -0.2188
  803MOL0     H 8370  12.359   2.817   1.500  2.4363 -0.0727  0.5933
  803MOL0     H 8371  12.610   2.598   1.382  3.1035  0.0910  0.3099
  803MOL0     H 8372  12.553   2.763   1.377  1.9224  2.4213  1.2550
  803MOL0     H 8373  12.826   2.689   1.489  3.0830 -1.2637 -3.7818
  803MOL0     H 8374  12.788   2.720   1.316 -1.8704  2.7122 -1.7336
  803MOL0     H 8375  12.774   2.901   1.560  0.6312 -0.9251  0.7499
  803MOL0     H 8376  12.712   2.962   1.416  0.9191 -0.1635  0.1626
  803MOL0     H 8377  12.990   2.886   1.477 -0.2104  0.3522  0.1646
  803MOL0     H 8378  12.937   2.914   1.303 -1.0732  0.7282 -0.8525
  803MOL0     H 8379  12.916   3.075   1.564  0.8970  2.5843  0.4058
  803MOL0     H 8380  12.868   3.143   1.415 -1.5012 -3.2236 -0.9360
  803MOL0     H 8381  13.155   3.047   1.493  2.3614  1.5513 -0.0178
  803MOL0     H 8382  13.108   3.122   1.339 -2.8013  1.2582 -0.2425
  803MOL0     H 8383  13.005   3.312   1.510  0.5569  0.9963  2.1037
  803MOL0     H 8384  13.172   3.315   1.460  1.6187 -1.8538  0.0585
  803MOL0     H 8385  13.237   3.180   1.663 -1.7335 -1.8449  0.3127
  803MOL0     H 8386  13.073   3.207   1.725  0.9344 -0.0282  1.2135
  803MOL0     H 8387  12.499   2.492   1.743  0.2484  0.6019 -0.2800
  803MOL0     H 8388  12.286   2.436   1.806  0.6987  0.9202  0.7115
  803MOL0     H 8389  11.930   2.238   1.819  0.4469  0.6277 -1.5992
  803MOL0     H 8390  11.698   2.163   1.809  1.8172  0.9159 -3.3660
  803MOL0     H 8391  10.795   2.221   1.030 -0.4482 -1.8473 -1.5404
  803MOL0     H 8392  11.021   2.164   1.083  0.7705 -0.5417  1.1784
  803MOL0     H 8393  11.376   2.358   1.346  4.3143  0.2422 -1.4513
  803MOL0     H 8394  11.613   2.321   1.425  0.5659 -0.9380 -3.8993
  803MOL0     H 8395  11.818   2.229   1.384  1.8279 -0.2398  0.4108
  803MOL0     H 8396  11.821   2.239   1.561 -2.3081 -0.8346  1.8457
  803MOL0     H 8397  11.952   2.007   1.388  1.3776 -0.8052  0.3398
  803MOL0     H 8398  11.957   1.996   1.557  1.7354  1.2176  0.6676
  803MOL0     H 8399  12.053   2.184   1.605 -3.7217  1.0137 -1.4069
  803MOL0     H 8400  12.076   2.241   1.436  0.9119 -3.0245 -1.6664
  803MOL0     H 8401  12.209   2.020   1.396 -1.1815  0.7927 -0.5038
  803MOL0     H 8402  12.229   2.014   1.569  1.1834 -3.0501 -2.5335
  803MOL0     H 8403  12.466   2.348   1.438  2.5282 -0.6715  1.9868
  803MOL0     H 8404  11.507   1.918   1.524  2.5809  1.3163  1.8813
  803MOL0     H 8405  11.285   1.933   1.480  1.3197 -0.6309  2.2742
  804MOL0     O 8406   9.741   2.455   2.937  1.2531 -0.1342 -0.7454
  804MOL0     C 8407   9.710   2.485   2.822 -0.3121  0.2214  0.2928
  804MOL0     O 8408   9.614   2.425   2.754 -0.3151 -0.3225  0.1613
  804MOL0     C 8409   9.518   2.348   2.811 -0.0883  0.1730 -0.0199
  804MOL0     C 8410   9.534   2.256   2.922  0.0216 -0.1927 -0.4981
  804MOL0     C 8411   9.423   2.174   2.964 -0.5004  0.0365 -0.1942
  804MOL0     C 8412   9.298   2.184   2.906 -0.0215 -0.2138 -1.6566
  804MOL0     O 8413   9.179   2.124   2.952 -0.6577  0.6621 -0.9558
  804MOL0     C 8414   9.202   2.013   3.039 -0.0251  0.8810 -0.2472
  804MOL0     C 8415   9.081   1.920   3.054  0.0021 -0.0929 -0.6854
  804MOL0     C 8416   9.095   1.814   3.174 -0.3711  0.7023 -0.1050
  804MOL0     C 8417   8.961   1.733   3.198  0.7785 -0.1516  0.7027
  804MOL0     C 8418   8.846   1.819   3.253 -0.4474  0.6003  0.7072
  804MOL0     C 8419   8.718   1.757   3.267 -0.1301  0.6723 -0.0114
  804MOL0     C 8420   8.629   1.815   3.377  0.0183  0.6497  0.6707
  804MOL0     C 8421   8.485   1.771   3.352  0.2271  1.2062  0.4170
  804MOL0     N 8422   8.409   1.881   3.303  0.0911  0.1575 -0.1074
  804MOL0     C 8423   8.289   1.923   3.356 -0.1246 -0.6119  0.2067
  804MOL0     C 8424   8.219   1.976   3.254 -1.2873  0.5719  0.2527
  804MOL0     C 8425   8.078   2.038   3.282 -0.5143 -0.1552  0.6840
  804MOL0     C 8426   7.987   2.009   3.158 -0.5123 -0.1148 -0.4262
  804MOL0     C 8427   7.949   1.856   3.147  0.9096 -0.7115  0.6446
  804MOL0     C 8428   7.817   1.836   3.077 -0.4968 -0.5019 -0.2435
  804MOL0     O 8429   7.706   1.888   3.148 -0.5458 -0.4212 -0.4411
  804MOL0     C 8430   7.584   1.863   3.085 -0.3426  0.1405  0.1195
  804MOL0     C 8431   7.491   1.787   3.151  0.1435 -0.0359  1.3497
  804MOL0     C 8432   7.354   1.767   3.106 -0.3651 -0.5885 -1.7186
  804MOL0     C 8433   7.273   1.691   3.210  0.1384 -0.2938  0.0055
  804MOL0     C 8434   7.325   1.810   2.976  0.1001  0.1348  0.0386
  804MOL0     C 8435   7.200   1.782   2.905 -0.3551  0.1410 -0.0025
  804MOL0     O 8436   7.127   1.668   2.944 -0.0596  0.5416 -0.6524
  804MOL0     C 8437   6.992   1.654   2.947  1.0837 -0.2193  0.3759
  804MOL0     C 8438   6.901   1.759   2.947 -0.5017 -0.3070  0.5328
  804MOL0     C 8439   6.764   1.731   2.954 -0.4027  0.1121 -0.1760
  804MOL0     C 8440   6.716   1.598   2.959  0.7418 -0.1103  0.1061
  804MOL0     O 8441   6.582   1.559   2.974  0.5304  0.2153 -1.0355
  804MOL0     C 8442   6.474   1.615   2.900 -0.2203  0.6541 -0.2370
  804MOL0     C 8443   6.353   1.519   2.876  0.5089 -0.9694 -1.2010
  804MOL0     C 8444   6.247   1.487   2.979 -0.2315 -1.5477 -0.2087
  804MOL0     C 8445   6.134   1.398   2.935  0.1399  0.1939 -0.0847
  804MOL0     C 8446   6.071   1.324   3.058  0.6491  0.0159 -0.0104
  804MOL0     C 8447   6.025   1.415   3.179 -0.5375 -0.6616  0.1954
  804MOL0     C 8448   5.927   1.335   3.261  0.6488  0.1588 -0.4219
  804MOL0     C 8449   5.909   1.416   3.387 -0.7644 -0.3481 -1.0214
  804MOL0    Cl 8450   5.810   1.316   3.490  0.5722  0.0159  0.1939
  804MOL0     C 8451   6.812   1.494   2.963  0.2157  0.5958  0.4321
  804MOL0     C 8452   6.947   1.523   2.953  0.6735 -0.1730 -0.5655
  804MOL0     O 8453   7.161   1.861   2.823 -0.0576  0.2121 -0.9364
  804MOL0     C 8454   7.421   1.883   2.907 -0.3975  0.4050 -0.3195
  804MOL0     C 8455   7.545   1.908   2.955  0.2510 -0.0482  0.8019
  804MOL0     N 8456   8.293   1.971   3.142 -1.1031  0.5605  0.0621
  804MOL0     N 8457   8.406   1.921   3.166  0.1640  0.3224 -0.3139
  804MOL0     C 8458   9.287   2.271   2.798 -0.3321  0.0140  0.1653
  804MOL0     C 8459   9.394   2.355   2.753  0.4058 -0.6975  0.5949
  804MOL0     C 8460   9.794   2.593   2.767 -0.2746  0.2692 -0.1451
  804MOL0     C 8461   9.799   2.617   2.622 -0.3762  0.4191  0.2000
  804MOL0     C 8462   9.892   2.706   2.576  0.1298  0.0552 -0.3368
  804MOL0     C 8463   9.982   2.773   2.656 -0.3117 -0.3661 -0.4997
  804MOL0     O 8464  10.076   2.846   2.600  0.5178 -0.0271  0.6048
  804MOL0     C 8465  10.159   2.758   2.520  0.7559  0.2187  0.3050
  804MOL0     C 8466  10.304   2.793   2.552 -0.3108 -0.4476 -0.5992
  804MOL0     C 8467  10.347   2.743   2.686  0.1259 -0.4859  0.1554
  804MOL0     C 8468  10.368   2.592   2.696  0.4751 -0.5642  0.3777
  804MOL0     C 8469  10.452   2.560   2.812  0.3605 -0.1082  0.2098
  804MOL0     C 8470  10.523   2.529   2.904 -0.1018  0.2420 -0.5811
  804MOL0     C 8471   9.976   2.755   2.795 -0.2476  1.0728 -1.0243
  804MOL0     C 8472   9.891   2.658   2.852 -0.5677  0.2096  0.5243
  804MOL0     H 8473   9.619   2.257   2.989 -0.5778  2.5448  0.3300
  804MOL0     H 8474   9.434   2.111   3.052 -1.3929 -3.4489 -2.4281
  804MOL0     H 8475   9.283   1.946   3.007  0.5220  0.0897  2.5477
  804MOL0     H 8476   9.238   2.048   3.136 -2.0695 -1.3767  1.4545
  804MOL0     H 8477   8.988   1.975   3.071  0.5965  1.1515 -1.3477
  804MOL0     H 8478   9.081   1.871   2.957  2.9527  0.6709 -1.1636
  804MOL0     H 8479   9.168   1.738   3.144  0.2954  0.7247  1.4127
  804MOL0     H 8480   9.136   1.868   3.259  3.1477  2.1137 -2.4684
  804MOL0     H 8481   8.923   1.683   3.108  1.3355 -0.0334  0.3951
  804MOL0     H 8482   8.976   1.661   3.278  1.6049 -1.6872 -0.7763
  804MOL0     H 8483   8.875   1.871   3.344  1.6557  2.4647 -0.9157
  804MOL0     H 8484   8.834   1.894   3.174  0.6171  2.4875  2.2738
  804MOL0     H 8485   8.664   1.758   3.172  1.7310 -0.9748 -1.1516
  804MOL0     H 8486   8.739   1.651   3.277 -3.0998 -0.1560 -1.3735
  804MOL0     H 8487   8.650   1.775   3.476 -3.1169 -1.5018  0.6276
  804MOL0     H 8488   8.646   1.922   3.371  2.3837  0.2534 -1.3092
  804MOL0     H 8489   8.427   1.724   3.431  1.7342  0.5186  1.1372
  804MOL0     H 8490   8.490   1.706   3.264  0.9248 -0.8670  1.9286
  804MOL0     H 8491   8.265   1.915   3.461  3.1379 -1.9538  0.9465
  804MOL0     H 8492   8.041   2.004   3.379 -1.1060 -4.0313 -0.7014
  804MOL0     H 8493   8.082   2.147   3.286 -2.7579  0.0565 -0.9661
  804MOL0     H 8494   8.042   2.030   3.065 -0.3963  1.0106 -0.1208
  804MOL0     H 8495   7.905   2.081   3.164 -1.1309 -0.7878 -0.7816
  804MOL0     H 8496   7.940   1.822   3.251  0.4537 -1.9298  0.2215
  804MOL0     H 8497   8.035   1.802   3.106  1.0969  0.7801 -1.0388
  804MOL0     H 8498   7.800   1.728   3.070  2.9319 -1.0647 -2.4984
  804MOL0     H 8499   7.824   1.866   2.972 -2.4804 -3.3751 -1.3349
  804MOL0     H 8500   7.514   1.774   3.256  1.3694  0.3658  1.1476
  804MOL0     H 8501   7.332   1.625   3.274  1.9151  0.5381 -0.7119
  804MOL0     H 8502   7.242   1.779   3.268  2.4234  0.1769  0.6236
  804MOL0     H 8503   7.186   1.643   3.166  1.6404 -0.9770 -2.4152
  804MOL0     H 8504   6.933   1.863   2.937 -0.9297 -0.1747  0.5080
  804MOL0     H 8505   6.696   1.816   2.962  1.0518  1.5734 -2.2554
  804MOL0     H 8506   6.428   1.698   2.954 -0.2289  0.4715  0.0353
  804MOL0     H 8507   6.511   1.648   2.802  2.1293 -0.7351  0.1075
  804MOL0     H 8508   6.298   1.553   2.788  0.1844 -2.5005 -1.6228
  804MOL0     H 8509   6.386   1.418   2.849 -0.6441 -0.7335 -3.7879
  804MOL0     H 8510   6.213   1.585   3.014  2.2656  0.2988 -2.5191
  804MOL0     H 8511   6.297   1.455   3.071  0.5264 -0.2615 -0.1526
  804MOL0     H 8512   6.046   1.442   2.887 -0.4137  0.1568  0.8710
  804MOL0     H 8513   6.178   1.322   2.870  2.1387 -0.1132  1.5214
  804MOL0     H 8514   6.147   1.256   3.097  0.2306 -3.1403 -4.0413
  804MOL0     H 8515   5.987   1.261   3.026 -1.1122  1.1799  2.0091
  804MOL0     H 8516   6.102   1.449   3.249  0.6307  1.2103 -1.8701
  804MOL0     H 8517   5.975   1.505   3.140 -0.5686  0.2275  2.1932
  804MOL0     H 8518   5.962   1.234   3.283 -1.1141 -0.1997  0.9077
  804MOL0     H 8519   5.832   1.330   3.208  1.0151  1.0327 -1.2182
  804MOL0     H 8520   5.861   1.513   3.370  0.5401  0.3440 -0.9240
  804MOL0     H 8521   6.007   1.428   3.434 -0.0206 -0.4376 -2.5113
  804MOL0     H 8522   6.773   1.394   2.974 -1.4237  1.0115 -1.1108
  804MOL0     H 8523   7.030   1.455   2.969  1.2554  0.5102 -0.6116
  804MOL0     H 8524   7.390   1.942   2.821 -2.8928  3.2888  2.2908
  804MOL0     H 8525   7.614   1.975   2.906  0.2446 -0.3661  0.3516
  804MOL0     H 8526   9.198   2.263   2.736  0.6274 -2.7140 -1.0127
  804MOL0     H 8527   9.374   2.420   2.669 -2.0656 -0.4983  1.2618
  804MOL0     H 8528   9.737   2.563   2.551 -0.7112  1.0678 -0.0058
  804MOL0     H 8529   9.894   2.715   2.468  1.6069  1.1889 -0.2565
  804MOL0     H 8530  10.160   2.649   2.522  1.0173  0.0577 -3.2565
  804MOL0     H 8531  10.142   2.781   2.415 -5.0433  1.0809  1.1153
  804MOL0     H 8532  10.325   2.899   2.537 -1.4240  0.1601  1.6475
  804MOL0     H 8533  10.374   2.746   2.483  0.8557  0.3713 -0.0142
  804MOL0     H 8534  10.275   2.781   2.759  0.3993  0.2123  0.0658
  804MOL0     H 8535  10.440   2.794   2.712 -2.7208  4.0958  2.7907
  804MOL0     H 8536  10.420   2.570   2.603 -0.2263 -1.5202  0.1933
  804MOL0     H 8537  10.274   2.536   2.693  0.8707 -1.1915 -0.4677
  804MOL0     H 8538  10.587   2.504   2.986 -0.0370  0.1319 -0.6663
  804MOL0     H 8539  10.032   2.814   2.866 -0.5164 -1.1721  1.1613
  804MOL0     H 8540   9.893   2.643   2.959  1.9099  2.7142  0.9450
  805MOL0     O 8541   7.535   9.640   0.421  0.8173  0.1873  0.2553
  805MOL0     C 8542   7.525   9.762   0.401 -1.2801  0.2458 -0.3376
  805MOL0     O 8543   7.414   9.841   0.425 -0.1984  0.7297  0.5555
  805MOL0     C 8544   7.298   9.774   0.466 -0.2724  0.4880 -0.4001
  805MOL0     C 8545   7.243   9.810   0.588  0.0938 -0.5107 -0.4418
  805MOL0     C 8546   7.125   9.740   0.632  0.4143 -0.0602  0.4213
  805MOL0     C 8547   7.064   9.649   0.547 -0.0379  1.2641 -0.2716
  805MOL0     O 8548   6.961   9.573   0.598  0.0890 -0.6503  0.0978
  805MOL0     C 8549   6.990   9.480   0.706  0.0758  0.4918  0.2663
  805MOL0     C 8550   6.870   9.380   0.722 -0.6197 -0.9496  0.3907
  805MOL0     C 8551   6.867   9.311   0.857  0.1647  0.2710  0.4360
  805MOL0     C 8552   6.741   9.225   0.869 -0.2923  0.6266 -0.3889
  805MOL0     C 8553   6.625   9.294   0.947 -0.5577 -0.2150  0.3425
  805MOL0     C 8554   6.508   9.201   0.992  0.3533 -0.3799  0.2794
  805MOL0     C 8555   6.537   9.116   1.120  0.0575 -0.1836 -0.5099
  805MOL0     C 8556   6.589   9.188   1.236 -0.1501  0.0288  1.2901
  805MOL0     N 8557   6.734   9.204   1.222 -0.3491 -0.0635  0.0208
  805MOL0     C 8558   6.804   9.326   1.222  0.1530 -0.1792 -1.2070
  805MOL0     C 8559   6.925   9.289   1.261  0.5786  0.5708 -0.0161
  805MOL0     C 8560   7.027   9.394   1.309 -0.3977 -1.0327 -0.0895
  805MOL0     C 8561   7.163   9.365   1.246  0.1179  0.0126 -0.1829
  805MOL0     C 8562   7.278   9.353   1.349  0.0468  0.4998  0.1380
  805MOL0     C 8563   7.275   9.215   1.417  0.0579 -0.5129 -0.3538
  805MOL0     O 8564   7.383   9.205   1.504 -0.3859  0.4932 -0.6813
  805MOL0     C 8565   7.403   9.081   1.562 -0.2736 -0.2365 -0.3619
  805MOL0     C 8566   7.311   8.975   1.554  0.4681 -0.3322 -0.6235
  805MOL0     C 8567   7.328   8.845   1.604  0.3865  0.7805 -0.0170
  805MOL0     C 8568   7.224   8.745   1.558  0.6267 -0.0956  0.8484
  805MOL0     C 8569   7.449   8.821   1.674  0.3202  0.2047 -0.4088
  805MOL0     C 8570   7.494   8.685   1.722  0.3367 -0.7663  0.3419
  805MOL0     O 8571   7.585   8.667   1.819  0.3515 -0.8260 -0.6188
  805MOL0     C 8572   7.678   8.558   1.819 -0.0691 -0.5773  0.2493
  805MOL0     C 8573   7.693   8.487   1.933 -0.1187  0.4036 -1.0767
  805MOL0     C 8574   7.789   8.388   1.951 -0.2643  1.0549  0.2010
  805MOL0     C 8575   7.869   8.349   1.841 -0.1249  0.4751  0.7735
  805MOL0     O 8576   7.960   8.245   1.850 -0.6120  1.0932  0.5258
  805MOL0     C 8577   8.027   8.233   1.970 -0.3585  0.2681 -0.6451
  805MOL0     C 8578   8.071   8.085   1.964 -0.6107  0.6079 -0.0851
  805MOL0     C 8579   8.137   8.064   2.106  0.0479 -0.7973  0.5321
  805MOL0     C 8580   8.043   8.027   2.225 -0.6004 -0.0542 -0.4952
  805MOL0     C 8581   8.124   8.049   2.350  0.4341  0.3455  0.5835
  805MOL0     C 8582   8.052   7.990   2.481 -0.7913 -0.6462 -0.1854
  805MOL0     C 8583   8.134   7.984   2.615  0.1294 -1.4283  0.3986
  805MOL0     C 8584   8.238   7.872   2.609  1.0083  0.6237 -0.5716
  805MOL0    Cl 8585   8.192   7.712   2.672 -0.1708 -0.3056 -0.0899
  805MOL0     C 8586   7.844   8.410   1.707 -1.1003  0.2138 -0.3816
  805MOL0     C 8587   7.762   8.522   1.708 -0.5733 -0.2872 -0.0816
  805MOL0     O 8588   7.462   8.590   1.647  0.4680 -0.6106  0.0102
  805MOL0     C 8589   7.528   8.936   1.694 -0.4927  0.2902 -0.8985
  805MOL0     C 8590   7.507   9.059   1.642  0.5069  0.6431 -0.6116
  805MOL0     N 8591   6.930   9.152   1.278  0.4404  0.4624  0.1400
  805MOL0     N 8592   6.813   9.097   1.249 -0.0806 -0.3339 -0.4844
  805MOL0     C 8593   7.116   9.618   0.418  0.3864 -0.9765 -0.7035
  805MOL0     C 8594   7.233   9.680   0.377 -0.3936 -0.3444 -0.0011
  805MOL0     C 8595   7.642   9.835   0.350  0.1644  0.6805 -0.6024
  805MOL0     C 8596   7.732   9.752   0.286  0.1921  0.1246  0.0252
  805MOL0     C 8597   7.862   9.796   0.258  0.2769  0.2113 -0.6591
  805MOL0     C 8598   7.904   9.928   0.283 -1.1379  0.0162 -1.4781
  805MOL0     O 8599   8.024   9.985   0.246  0.3348 -0.4407  0.2005
  805MOL0     C 8600   8.073   9.944   0.115  0.0150  0.2004  0.6059
  805MOL0     C 8601   8.149  10.064   0.052 -0.2992  0.5669 -0.7012
  805MOL0     C 8602   8.051  10.186   0.030  0.0910  0.9886  0.0445
  805MOL0     C 8603   8.131  10.301  -0.029 -0.4521 -0.1689 -0.6827
  805MOL0     C 8604   8.247  10.353   0.052 -0.1734 -0.8115 -0.2613
  805MOL0     C 8605   8.334  10.409   0.108  0.5979 -0.1718  1.0628
  805MOL0     C 8606   7.808  10.009   0.350  0.8806 -0.7326  0.6598
  805MOL0     C 8607   7.680   9.965   0.386 -0.1069  0.6460 -0.3345
  805MOL0     H 8608   7.293   9.889   0.642  2.3670 -0.8506 -1.9195
  805MOL0     H 8609   7.082   9.764   0.728  1.6242  2.0278  0.5042
  805MOL0     H 8610   7.071   9.417   0.667 -0.0497  1.6623 -2.1080
  805MOL0     H 8611   7.020   9.543   0.790  0.9472  0.5885 -0.1064
  805MOL0     H 8612   6.783   9.445   0.710  2.1594  3.5150  1.9548
  805MOL0     H 8613   6.881   9.305   0.643 -0.1343  0.7646 -1.2577
  805MOL0     H 8614   6.947   9.237   0.867  0.0255 -0.2935 -1.9600
  805MOL0     H 8615   6.874   9.385   0.937  1.8791 -0.4430  0.9862
  805MOL0     H 8616   6.707   9.184   0.773 -0.5492 -3.0293  1.1230
  805MOL0     H 8617   6.777   9.136   0.921 -1.8109 -0.3323 -0.9206
  805MOL0     H 8618   6.655   9.373   1.016  0.5215  1.3728 -1.8063
  805MOL0     H 8619   6.583   9.363   0.873 -0.2211  2.4494  2.4836
  805MOL0     H 8620   6.423   9.266   1.016  0.4240 -0.7421  1.5751
  805MOL0     H 8621   6.476   9.135   0.910 -1.1734 -1.8878  2.0207
  805MOL0     H 8622   6.450   9.058   1.153 -2.3624  2.4556 -1.7396
  805MOL0     H 8623   6.614   9.042   1.094  1.3019  0.9893 -0.2394
  805MOL0     H 8624   6.574   9.128   1.326 -1.3862 -0.6657  0.6433
  805MOL0     H 8625   6.528   9.279   1.240 -0.9360 -0.1783 -2.3072
  805MOL0     H 8626   6.774   9.430   1.220  1.3884  0.2963  0.8869
  805MOL0     H 8627   6.988   9.491   1.279  0.3614  0.2242  2.7072
  805MOL0     H 8628   7.033   9.389   1.418 -2.2632 -0.7584  0.0534
  805MOL0     H 8629   7.187   9.453   1.186 -0.2592  0.1996 -0.0653
  805MOL0     H 8630   7.157   9.279   1.178  2.7993  0.0827 -0.6004
  805MOL0     H 8631   7.286   9.431   1.425 -0.3096 -0.2783  0.9869
  805MOL0     H 8632   7.373   9.360   1.295  1.0039  0.6954  1.7953
  805MOL0     H 8633   7.291   9.142   1.337  0.8912  3.9995 -4.7796
  805MOL0     H 8634   7.180   9.205   1.471  0.7362 -4.9008  0.4002
  805MOL0     H 8635   7.221   9.006   1.501 -0.2852 -0.6929  0.3965
  805MOL0     H 8636   7.126   8.789   1.538  1.2197  0.6246 -0.6308
  805MOL0     H 8637   7.261   8.709   1.462  0.0402  2.5694 -0.4599
  805MOL0     H 8638   7.207   8.658   1.622 -0.8081  2.0345  3.5745
  805MOL0     H 8639   7.629   8.498   2.020  1.1574 -1.9907  0.2385
  805MOL0     H 8640   7.776   8.334   2.044  1.7649 -3.1267 -1.6774
  805MOL0     H 8641   8.115   8.297   1.974 -0.0587 -0.0267 -2.0426
  805MOL0     H 8642   7.965   8.254   2.057  1.4162 -1.4765  1.1542
  805MOL0     H 8643   7.988   8.018   1.939  2.5240 -4.4358  1.5656
  805MOL0     H 8644   8.151   8.078   1.891 -0.6897  3.1568 -0.5259
  805MOL0     H 8645   8.192   8.154   2.136  1.0750 -0.6073 -1.7777
  805MOL0     H 8646   8.205   7.979   2.099  2.2034  0.9639 -1.8417
  805MOL0     H 8647   7.953   8.089   2.224  0.4066  1.4862  0.1459
  805MOL0     H 8648   8.013   7.923   2.206 -4.0626  1.0886 -2.0864
  805MOL0     H 8649   8.139   8.155   2.374  0.0648  0.4649  0.2940
  805MOL0     H 8650   8.221   8.001   2.333 -0.2554 -0.9420  0.1355
  805MOL0     H 8651   7.971   8.060   2.501 -1.5231 -1.7109  0.7335
  805MOL0     H 8652   8.008   7.891   2.463 -1.7559  0.2047 -3.0488
  805MOL0     H 8653   8.059   7.970   2.693  1.1310 -1.7000  1.3436
  805MOL0     H 8654   8.193   8.075   2.634  0.5371 -1.1766 -1.8741
  805MOL0     H 8655   8.314   7.901   2.681 -1.6066 -0.0148  2.7094
  805MOL0     H 8656   8.271   7.870   2.505 -1.8175  4.3805 -1.7940
  805MOL0     H 8657   7.906   8.381   1.623 -0.9696  0.6296 -0.4323
  805MOL0     H 8658   7.758   8.592   1.626 -1.3202 -2.3094 -1.8404
  805MOL0     H 8659   7.623   8.928   1.748 -0.5381 -0.9686 -0.9698
  805MOL0     H 8660   7.583   9.135   1.658 -0.5535  1.6739 -0.3048
  805MOL0     H 8661   7.059   9.536   0.378 -1.4147 -2.0607  3.5439
  805MOL0     H 8662   7.276   9.642   0.285 -1.1004 -0.6512 -0.2149
  805MOL0     H 8663   7.712   9.656   0.240  0.3933 -0.0544  0.3136
  805MOL0     H 8664   7.920   9.732   0.192  1.7152 -1.0684  1.7146
  805MOL0     H 8665   8.132   9.852   0.120  2.6415  1.8153  1.9166
  805MOL0     H 8666   7.977   9.932   0.064 -0.2693  2.4926  0.4943
  805MOL0     H 8667   8.192  10.028  -0.042 -0.0786  1.4351 -0.9440
  805MOL0     H 8668   8.221  10.090   0.131 -0.6053 -1.5839  0.3496
  805MOL0     H 8669   7.998  10.227   0.117 -1.9371  0.2492 -0.7806
  805MOL0     H 8670   7.969  10.158  -0.036 -1.0713  1.9901  1.0050
  805MOL0     H 8671   8.055  10.377  -0.049 -0.6785 -0.8471 -2.6008
  805MOL0     H 8672   8.167  10.268  -0.126 -1.1363 -2.1892 -0.3025
  805MOL0     H 8673   8.426  10.449   0.147  0.9767 -1.0137  1.0655
  805MOL0     H 8674   7.841  10.111   0.370 -0.3907 -0.1467 -0.0827
  805MOL0     H 8675   7.619  10.034   0.442  1.6996  3.4172 -1.5634
  806MOL0     O 8676  10.447   8.780   7.707  1.2671 -0.0262 -0.0076
  806MOL0     C 8677  10.439   8.725   7.599 -0.4012  1.5812 -0.6926
  806MOL0     O 8678  10.354   8.628   7.570  0.2382  0.5794 -0.5212
  806MOL0     C 8679  10.237   8.620   7.628  0.0349 -0.1126 -0.6953
  806MOL0     C 8680  10.201   8.497   7.679  0.0826 -0.2436 -0.8394
  806MOL0     C 8681  10.064   8.486   7.727 -0.3139  0.0921 -0.4753
  806MOL0     C 8682   9.975   8.592   7.719 -0.4810  0.1815 -0.5856
  806MOL0     O 8683   9.841   8.578   7.752  0.0689 -0.2694 -0.2930
  806MOL0     C 8684   9.747   8.680   7.736 -0.8854  0.8534 -0.6729
  806MOL0     C 8685   9.705   8.690   7.592  0.3594  0.7132  0.9947
  806MOL0     C 8686   9.587   8.779   7.586  0.5694  0.2644  0.0501
  806MOL0     C 8687   9.604   8.865   7.471  1.1785 -1.1649  0.9407
  806MOL0     C 8688   9.483   8.933   7.409 -0.0863 -1.0330  0.6888
  806MOL0     C 8689   9.506   9.069   7.343  0.1326 -0.0842 -0.0911
  806MOL0     C 8690   9.379   9.113   7.279 -0.4903  0.6896 -0.8565
  806MOL0     C 8691   9.379   9.256   7.237  0.2683  0.2527 -0.1621
  806MOL0     N 8692   9.484   9.280   7.139 -0.3499 -0.1135  0.3235
  806MOL0     C 8693   9.522   9.196   7.037 -0.3045  0.1152 -0.7916
  806MOL0     C 8694   9.637   9.247   6.981  0.5407  0.6385 -0.3022
  806MOL0     C 8695   9.712   9.195   6.859  1.0088 -0.3273 -0.5130
  806MOL0     C 8696   9.617   9.145   6.750  0.1748 -0.4786 -0.5502
  806MOL0     C 8697   9.683   9.019   6.676 -0.4644  0.2920  0.0977
  806MOL0     C 8698   9.806   9.036   6.587  0.1550  0.2700 -0.3863
  806MOL0     O 8699   9.835   8.924   6.510  0.0232 -0.4152 -0.2464
  806MOL0     C 8700   9.858   8.799   6.557 -0.7721  0.6339 -0.2328
  806MOL0     C 8701   9.901   8.776   6.690 -0.1707  0.0177  0.4720
  806MOL0     C 8702   9.912   8.640   6.738 -0.1454 -0.1302 -0.0269
  806MOL0     C 8703   9.940   8.620   6.881  0.9673 -0.6587 -0.1415
  806MOL0     C 8704   9.879   8.526   6.652  0.3360  0.4139 -0.3474
  806MOL0     C 8705   9.878   8.387   6.694 -0.8107  0.9662  0.6462
  806MOL0     O 8706   9.852   8.357   6.825  0.3525 -0.6410 -0.5634
  806MOL0     C 8707   9.836   8.225   6.853  0.3859 -0.7629 -0.0238
  806MOL0     C 8708   9.913   8.180   6.951 -0.7307  0.3908  0.1850
  806MOL0     C 8709   9.913   8.044   6.993 -0.2905  0.3392  0.3743
  806MOL0     C 8710   9.818   7.959   6.946  1.0171  1.0063 -0.5178
  806MOL0     O 8711   9.807   7.826   6.983  0.2853  0.0753  1.0967
  806MOL0     C 8712   9.806   7.803   7.121 -0.6804  0.0083  0.0909
  806MOL0     C 8713   9.901   7.688   7.165  0.9082 -0.0518 -0.0064
  806MOL0     C 8714   9.919   7.671   7.312 -0.3002  0.5115 -0.1738
  806MOL0     C 8715  10.050   7.741   7.358  0.1888 -0.5052 -0.5101
  806MOL0     C 8716  10.176   7.662   7.315  0.8928 -0.9749 -0.1942
  806MOL0     C 8717  10.292   7.753   7.280  0.7071  0.5692 -0.2279
  806MOL0     C 8718  10.425   7.667   7.274 -0.1898  0.5761 -0.4760
  806MOL0     C 8719  10.527   7.730   7.367  0.5249 -0.9718 -1.0379
  806MOL0    Cl 8720  10.571   7.879   7.270  0.2451  0.0114  0.2185
  806MOL0     C 8721   9.732   8.001   6.833 -0.6355  0.0548 -0.0070
  806MOL0     C 8722   9.742   8.136   6.792 -0.5508  0.5948  0.0310
  806MOL0     O 8723   9.914   8.300   6.608  0.0953 -1.1671 -0.8938
  806MOL0     C 8724   9.834   8.557   6.523  0.0573  0.9351  0.3207
  806MOL0     C 8725   9.827   8.693   6.472 -0.3281  0.2960  0.7518
  806MOL0     N 8726   9.666   9.364   7.051  0.3344  0.1080 -0.4308
  806MOL0     N 8727   9.571   9.389   7.139 -0.9655  0.2135  0.7657
  806MOL0     C 8728  10.020   8.715   7.652  0.1894  0.2178 -0.2434
  806MOL0     C 8729  10.150   8.730   7.618 -0.4072 -0.8512  0.0829
  806MOL0     C 8730  10.544   8.748   7.491 -0.6634  0.1722  0.3423
  806MOL0     C 8731  10.531   8.683   7.367 -0.2836 -0.2176 -1.4738
  806MOL0     C 8732  10.632   8.700   7.271 -0.4442  0.7874 -0.4006
  806MOL0     C 8733  10.738   8.783   7.294 -0.8432  0.2455 -0.0582
  806MOL0     O 8734  10.833   8.774   7.192 -0.3302  0.5433 -0.4441
  806MOL0     C 8735  10.962   8.824   7.228 -0.8110  0.5135  0.1610
  806MOL0     C 8736  11.069   8.806   7.121  0.0615 -0.6817 -0.9443
  806MOL0     C 8737  11.187   8.902   7.122 -0.4293 -0.4744 -0.4038
  806MOL0     C 8738  11.268   8.894   6.994 -0.1328 -0.4807 -0.7349
  806MOL0     C 8739  11.408   8.923   7.025 -0.6177  0.4178  0.5348
  806MOL0     C 8740  11.520   8.941   7.058 -0.0674 -0.4113 -0.5100
  806MOL0     C 8741  10.754   8.849   7.413  0.3001 -0.1857 -0.2167
  806MOL0     C 8742  10.657   8.834   7.509  0.9122  0.3591  1.0082
  806MOL0     H 8743  10.275   8.418   7.678  2.5638  1.9592 -0.8924
  806MOL0     H 8744  10.038   8.396   7.781 -1.3116  1.2353  1.0080
  806MOL0     H 8745   9.655   8.658   7.792 -0.0456 -0.3772  0.2518
  806MOL0     H 8746   9.779   8.780   7.768 -1.3899  0.9061 -0.3012
  806MOL0     H 8747   9.786   8.732   7.531 -1.6480  0.3526 -2.1459
  806MOL0     H 8748   9.680   8.585   7.574  0.9596  0.7961 -0.4564
  806MOL0     H 8749   9.496   8.720   7.575 -0.1649  0.6349  3.0351
  806MOL0     H 8750   9.564   8.848   7.668 -0.1613 -2.3844  2.2366
  806MOL0     H 8751   9.672   8.946   7.501 -0.0070 -0.0647  0.7465
  806MOL0     H 8752   9.657   8.815   7.390  1.1213  3.6442 -2.5546
  806MOL0     H 8753   9.443   8.874   7.326  1.2249 -1.1243  0.0957
  806MOL0     H 8754   9.400   8.938   7.481  0.0423  0.5851  0.7455
  806MOL0     H 8755   9.542   9.131   7.425  2.2628 -1.6669  0.2404
  806MOL0     H 8756   9.589   9.059   7.273  0.9743  1.4138  0.6639
  806MOL0     H 8757   9.356   9.044   7.197  1.1730  0.1211 -0.8835
  806MOL0     H 8758   9.294   9.094   7.345 -1.4176 -2.4768 -2.7340
  806MOL0     H 8759   9.402   9.322   7.321 -0.0708  1.8984 -1.3024
  806MOL0     H 8760   9.282   9.280   7.191  0.3470 -3.5886 -2.8209
  806MOL0     H 8761   9.473   9.100   7.020  1.2251 -0.9844  0.6587
  806MOL0     H 8762   9.770   9.281   6.823 -1.0268  0.0198 -3.3087
  806MOL0     H 8763   9.790   9.118   6.867  2.0879  0.6737 -1.0439
  806MOL0     H 8764   9.596   9.231   6.686  1.5793  1.6573  1.7374
  806MOL0     H 8765   9.524   9.117   6.801  0.2876  0.1280 -0.0072
  806MOL0     H 8766   9.619   8.979   6.597 -0.3440  0.6928 -0.2050
  806MOL0     H 8767   9.699   8.936   6.745 -0.8309 -1.0163 -1.3209
  806MOL0     H 8768   9.890   9.085   6.637  0.8356 -1.1959 -0.0134
  806MOL0     H 8769   9.789   9.113   6.512 -0.2046  1.2276  0.6622
  806MOL0     H 8770   9.916   8.854   6.764 -0.6006 -1.0611  1.7371
  806MOL0     H 8771   9.994   8.703   6.927 -3.6706  0.6375  3.8704
  806MOL0     H 8772   9.846   8.625   6.937  0.2787  4.4700 -1.2230
  806MOL0     H 8773  10.000   8.531   6.899  0.1376 -1.0195  0.9376
  806MOL0     H 8774   9.986   8.241   7.003  2.9965 -1.5603 -2.2677
  806MOL0     H 8775   9.985   8.022   7.070  0.6940  1.6310 -0.1413
  806MOL0     H 8776   9.822   7.893   7.181  0.7432  0.6907 -1.2444
  806MOL0     H 8777   9.702   7.772   7.133 -1.0573  0.0337 -2.6233
  806MOL0     H 8778   9.875   7.590   7.127  2.0853 -0.1811 -0.5168
  806MOL0     H 8779   9.996   7.706   7.113  0.0837 -1.0900 -1.9663
  806MOL0     H 8780   9.925   7.563   7.327  0.4764  0.7066  0.9898
  806MOL0     H 8781   9.834   7.725   7.356  0.1947  3.0054 -2.0455
  806MOL0     H 8782  10.068   7.846   7.333  1.9344 -0.9605 -1.2739
  806MOL0     H 8783  10.052   7.735   7.468 -1.2647 -4.3293 -0.5509
  806MOL0     H 8784  10.149   7.597   7.231  0.2814 -1.8254  0.6421
  806MOL0     H 8785  10.192   7.606   7.408  0.0196  0.0091  0.5805
  806MOL0     H 8786  10.270   7.805   7.186  0.0020  1.9932  0.6925
  806MOL0     H 8787  10.304   7.831   7.356 -0.8995 -0.5332  1.2348
  806MOL0     H 8788  10.464   7.666   7.171  1.3749 -1.6994  0.0620
  806MOL0     H 8789  10.409   7.563   7.303 -1.1978  0.5998 -0.9006
  806MOL0     H 8790  10.617   7.668   7.378  0.6186 -0.5571  0.9290
  806MOL0     H 8791  10.483   7.734   7.467 -0.6289 -0.2068 -1.5618
  806MOL0     H 8792   9.680   7.922   6.781  0.5020  0.5608 -1.9922
  806MOL0     H 8793   9.674   8.151   6.710 -0.7403 -1.1334 -0.1506
  806MOL0     H 8794   9.822   8.480   6.448 -0.7346  0.7378  0.6452
  806MOL0     H 8795   9.788   8.691   6.370  2.5703 -1.0166 -0.4441
  806MOL0     H 8796   9.953   8.797   7.629 -0.7436 -0.1666  1.0311
  806MOL0     H 8797  10.189   8.819   7.569  1.6921 -0.5076  2.2259
  806MOL0     H 8798  10.454   8.612   7.339  0.6823 -1.3813 -1.2544
  806MOL0     H 8799  10.641   8.642   7.180 -1.6580  3.5268 -2.3830
  806MOL0     H 8800  10.954   8.932   7.247 -1.4557  0.2886  1.2993
  806MOL0     H 8801  10.997   8.776   7.320 -1.3827 -0.9936 -0.3882
  806MOL0     H 8802  11.010   8.829   7.032 -4.0137  0.9622  1.8770
  806MOL0     H 8803  11.092   8.700   7.133 -1.7026 -0.8094  2.4461
  806MOL0     H 8804  11.254   8.886   7.207  1.5593  5.5929 -0.3326
  806MOL0     H 8805  11.174   9.009   7.139 -1.8903 -0.1985 -2.7994
  806MOL0     H 8806  11.235   8.960   6.914 -1.4602  0.9972  0.9265
  806MOL0     H 8807  11.255   8.789   6.968  0.1105 -0.4399 -1.0175
  806MOL0     H 8808  11.613   8.975   7.100  0.2760 -1.0086 -0.7755
  806MOL0     H 8809  10.843   8.912   7.419  1.3844 -1.5942 -1.0857
  806MOL0     H 8810  10.670   8.883   7.606  0.8763 -2.1523  2.3522
  807MOL0     O 8811   8.623   8.133   9.447 -0.5780  0.2167  0.7766
  807MOL0     C 8812   8.543   8.089   9.531 -0.8490  0.6831 -0.0245
  807MOL0     O 8813   8.410   8.080   9.522  0.1631 -0.1893 -0.3878
  807MOL0     C 8814   8.353   8.129   9.403 -0.3138  0.3501 -0.8028
  807MOL0     C 8815   8.311   8.253   9.359 -0.0669 -0.6770 -0.2552
  807MOL0     C 8816   8.251   8.271   9.235 -1.2620  0.0611  0.3543
  807MOL0     C 8817   8.248   8.163   9.146  0.3595 -0.0518 -0.0131
  807MOL0     O 8818   8.206   8.160   9.016  0.5204 -0.8431  0.2423
  807MOL0     C 8819   8.139   8.275   8.957 -0.5863 -0.1902  0.1300
  807MOL0     C 8820   7.997   8.279   9.024  0.0595 -1.1477  0.3871
  807MOL0     C 8821   7.890   8.204   8.955 -0.0349  0.1301 -0.6016
  807MOL0     C 8822   7.745   8.248   9.015 -0.8997  0.0618 -0.5858
  807MOL0     C 8823   7.630   8.160   8.963 -1.1764 -0.7636 -0.3931
  807MOL0     C 8824   7.640   8.012   8.998  0.3153  0.2166  0.5332
  807MOL0     C 8825   7.511   7.940   8.959  0.1145  0.7881  0.0271
  807MOL0     C 8826   7.397   7.976   9.063  0.2730 -0.4348 -0.1970
  807MOL0     N 8827   7.286   7.869   9.059 -0.6764  0.8457 -0.9969
  807MOL0     C 8828   7.277   7.766   9.147  0.3775 -0.5616 -0.1117
  807MOL0     C 8829   7.173   7.685   9.101 -0.3039 -0.2584 -0.1770
  807MOL0     C 8830   7.125   7.571   9.176 -0.0087 -0.2188 -1.2855
  807MOL0     C 8831   7.071   7.597   9.315  0.9250  0.1838  0.2853
  807MOL0     C 8832   6.947   7.693   9.306 -0.3451  0.5554 -0.2185
  807MOL0     C 8833   6.856   7.688   9.427  0.6256  0.3465 -0.0737
  807MOL0     O 8834   6.776   7.807   9.466  0.5501  0.1620  0.1316
  807MOL0     C 8835   6.662   7.828   9.402 -0.4409 -0.9040  0.7967
  807MOL0     C 8836   6.614   7.756   9.294 -0.1119  0.6900 -0.4428
  807MOL0     C 8837   6.500   7.788   9.227  1.0164 -0.8561 -0.3162
  807MOL0     C 8838   6.457   7.698   9.110 -0.1057  0.3130 -0.7086
  807MOL0     C 8839   6.419   7.889   9.272  0.6535 -0.0020  0.4058
  807MOL0     C 8840   6.283   7.925   9.222 -0.9079 -0.3867  0.5801
  807MOL0     O 8841   6.217   7.838   9.133 -0.6453 -0.1439  0.0625
  807MOL0     C 8842   6.095   7.877   9.073 -0.5947  1.1674  0.4539
  807MOL0     C 8843   5.984   7.938   9.137  0.0463 -0.2604 -0.4654
  807MOL0     C 8844   5.864   7.956   9.060 -0.4629  0.3091 -0.0979
  807MOL0     C 8845   5.864   7.922   8.923  0.0468 -0.2908  0.6220
  807MOL0     O 8846   5.746   7.938   8.850  0.3204 -0.3848 -0.4571
  807MOL0     C 8847   5.749   8.015   8.727  0.2060  0.2999  0.4609
  807MOL0     C 8848   5.617   7.999   8.662 -0.0601  0.1022  0.4078
  807MOL0     C 8849   5.506   8.106   8.708 -0.5056 -0.4360  0.2178
  807MOL0     C 8850   5.391   8.067   8.607  0.2613 -0.5100  0.4105
  807MOL0     C 8851   5.252   8.117   8.642 -0.5245  0.2303  0.3296
  807MOL0     C 8852   5.203   8.072   8.782  0.2209 -0.3383 -0.3103
  807MOL0     C 8853   5.052   8.095   8.802  0.4082  0.6808 -0.6293
  807MOL0     C 8854   5.004   8.005   8.924 -0.4965 -0.2590  0.1587
  807MOL0    Cl 8855   5.079   8.051   9.073 -0.5898  0.1591 -0.3464
  807MOL0     C 8856   5.971   7.866   8.865  0.4150  1.0169 -0.3890
  807MOL0     C 8857   6.090   7.851   8.937  0.3681  0.4487 -0.4253
  807MOL0     O 8858   6.239   8.031   9.263  0.1184  0.3079  0.3883
  807MOL0     C 8859   6.474   7.969   9.379  0.1699  0.2502  0.1385
  807MOL0     C 8860   6.584   7.936   9.451 -0.0348 -0.4153  0.1632
  807MOL0     N 8861   7.134   7.730   8.983 -0.1630 -0.8827  0.1837
  807MOL0     N 8862   7.205   7.837   8.953 -0.8822 -0.0437  0.0543
  807MOL0     C 8863   8.290   8.041   9.189 -0.0462 -0.1944 -0.6728
  807MOL0     C 8864   8.336   8.018   9.319 -0.0089  0.3245 -1.1649
  807MOL0     C 8865   8.612   8.055   9.660  0.2963 -0.5894 -0.0143
  807MOL0     C 8866   8.747   8.080   9.676 -0.1265 -0.5623 -0.2066
  807MOL0     C 8867   8.818   8.049   9.794  0.0485  0.5825 -0.9267
  807MOL0     C 8868   8.756   7.985   9.906  0.0565 -0.1642  0.4575
  807MOL0     O 8869   8.840   7.940  10.007  0.9657  0.5077 -0.3193
  807MOL0     C 8870   8.781   7.912  10.129  0.5102 -0.0538 -1.0832
  807MOL0     C 8871   8.892   7.894  10.230 -0.1947 -0.6856  0.3620
  807MOL0     C 8872   8.840   7.852  10.374 -0.4820  0.2882 -0.6422
  807MOL0     C 8873   8.843   7.969  10.476 -0.0006  0.4805  0.3996
  807MOL0     C 8874   8.974   8.030  10.482 -0.7562  0.2875 -0.1749
  807MOL0     C 8875   9.080   8.070  10.517  0.2834  0.6680 -0.0740
  807MOL0     C 8876   8.612   7.967   9.895 -0.6608  0.1149  0.4891
  807MOL0     C 8877   8.547   7.995   9.771  0.7916 -0.0097  0.3207
  807MOL0     H 8878   8.320   8.335   9.430  0.2697  1.1245 -2.2620
  807MOL0     H 8879   8.212   8.364   9.198 -1.3368 -0.3757 -0.6960
  807MOL0     H 8880   8.196   8.367   8.971  0.7298 -0.8830 -0.5040
  807MOL0     H 8881   8.127   8.272   8.848 -1.5298  0.5331  0.1980
  807MOL0     H 8882   8.010   8.242   9.126  0.1571 -0.0309  0.7955
  807MOL0     H 8883   7.972   8.385   9.024  2.0265 -0.6105  1.9398
  807MOL0     H 8884   7.898   8.228   8.849 -0.8470 -0.7470 -0.8757
  807MOL0     H 8885   7.903   8.095   8.962 -1.5997 -0.0623 -0.1962
  807MOL0     H 8886   7.734   8.214   9.118 -3.5138 -1.8261 -1.3706
  807MOL0     H 8887   7.723   8.354   8.998 -2.4112  0.6196  3.7255
  807MOL0     H 8888   7.534   8.195   9.003 -0.8545  0.6767 -0.8210
  807MOL0     H 8889   7.609   8.190   8.859 -0.6461  1.5173  0.0949
  807MOL0     H 8890   7.729   7.979   8.943 -0.3588  2.6157 -2.2758
  807MOL0     H 8891   7.656   7.992   9.104  2.5126  0.9055  0.3727
  807MOL0     H 8892   7.479   7.962   8.857  2.6308 -1.8629 -1.4618
  807MOL0     H 8893   7.526   7.832   8.960 -1.0313  0.5546  2.9825
  807MOL0     H 8894   7.349   8.069   9.031 -0.1533  0.3097  2.3881
  807MOL0     H 8895   7.428   7.991   9.167 -0.4276  0.9448 -0.1637
  807MOL0     H 8896   7.340   7.756   9.235 -0.6473 -0.7399  0.6189
  807MOL0     H 8897   7.054   7.517   9.114 -1.7932  2.2216 -1.4993
  807MOL0     H 8898   7.208   7.499   9.180  0.8843  0.8229  0.9414
  807MOL0     H 8899   7.156   7.638   9.370 -0.5831  2.3319  1.1515
  807MOL0     H 8900   7.041   7.500   9.355  0.2504  0.0200 -0.5954
  807MOL0     H 8901   6.878   7.684   9.222 -1.5005  5.4772 -0.1267
  807MOL0     H 8902   6.976   7.799   9.304  0.0174  0.4493 -0.9431
  807MOL0     H 8903   6.909   7.655   9.517 -0.4053 -1.3439 -0.0476
  807MOL0     H 8904   6.792   7.601   9.410  0.0329  0.6160  0.7332
  807MOL0     H 8905   6.665   7.667   9.258  4.2927  2.4837  0.7902
  807MOL0     H 8906   6.536   7.643   9.059 -0.8485 -0.7002 -0.7920
  807MOL0     H 8907   6.383   7.628   9.150 -0.3387  0.4235 -0.9388
  807MOL0     H 8908   6.405   7.756   9.032 -3.1856 -2.0513 -0.6196
  807MOL0     H 8909   5.991   7.980   9.237 -3.8395 -0.6354  0.1416
  807MOL0     H 8910   5.774   8.011   9.086 -1.6180  0.3776 -3.7238
  807MOL0     H 8911   5.762   8.122   8.742  1.1556  0.3490 -0.5724
  807MOL0     H 8912   5.829   7.982   8.659 -0.4147 -1.3831  0.5055
  807MOL0     H 8913   5.621   8.019   8.555 -4.3973  1.2142  0.2488
  807MOL0     H 8914   5.569   7.903   8.682 -0.2944 -0.4263 -2.3219
  807MOL0     H 8915   5.532   8.212   8.714 -3.1282  0.2854  0.2040
  807MOL0     H 8916   5.474   8.074   8.808  0.1379  0.3118  0.6749
  807MOL0     H 8917   5.417   8.109   8.509  1.0887  1.0989  1.2705
  807MOL0     H 8918   5.379   7.959   8.596  2.0297 -0.5703 -1.4564
  807MOL0     H 8919   5.182   8.076   8.569  0.5660 -2.2477  0.5715
  807MOL0     H 8920   5.250   8.226   8.640  0.1557  0.2487  0.3002
  807MOL0     H 8921   5.222   7.968   8.811 -3.4519 -1.6509 -2.0753
  807MOL0     H 8922   5.246   8.144   8.853 -0.3447  2.2970 -2.5003
  807MOL0     H 8923   4.998   8.070   8.710  2.1209  0.5739 -1.6634
  807MOL0     H 8924   5.033   8.201   8.819  1.0007  0.7745 -0.5242
  807MOL0     H 8925   5.031   7.903   8.893  0.9063  0.5676 -1.4920
  807MOL0     H 8926   4.896   8.016   8.930 -0.4706  1.6131 -1.8146
  807MOL0     H 8927   5.977   7.850   8.758  0.2798 -1.0810 -0.1309
  807MOL0     H 8928   6.178   7.815   8.884  0.8258 -0.3402  0.8180
  807MOL0     H 8929   6.427   8.062   9.410 -0.0840 -0.7651  3.1335
  807MOL0     H 8930   6.611   8.009   9.527  1.0303  0.2593 -0.8186
  807MOL0     H 8931   8.293   7.964   9.113  0.7553 -1.6394  0.7778
  807MOL0     H 8932   8.364   7.923   9.363 -1.1903 -0.6962 -2.5108
  807MOL0     H 8933   8.797   8.141   9.602 -0.0402  0.6629  0.8317
  807MOL0     H 8934   8.922   8.070   9.817 -0.0448 -0.5487  0.6983
  807MOL0     H 8935   8.715   7.992  10.164 -0.2024 -1.9323  2.3230
  807MOL0     H 8936   8.717   7.824  10.142 -0.2891  0.8402  2.0480
  807MOL0     H 8937   8.949   7.986  10.245  0.1048 -1.0052  1.2868
  807MOL0     H 8938   8.953   7.810  10.195  1.8410  0.3753  1.2162
  807MOL0     H 8939   8.919   7.786  10.411 -1.2022 -1.3404 -1.8818
  807MOL0     H 8940   8.740   7.806  10.376 -0.9220  1.1938 -1.2761
  807MOL0     H 8941   8.822   7.927  10.575  0.0920  1.6805  0.9403
  807MOL0     H 8942   8.767   8.045  10.456  1.8987  4.1455  5.0817
  807MOL0     H 8943   9.171   8.110  10.557 -0.1780  2.5268 -0.7736
  807MOL0     H 8944   8.551   7.921   9.972 -0.7697  0.5302  0.6531
  807MOL0     H 8945   8.445   7.961   9.753  0.6339  1.3303 -1.6247
  808MOL0     O 8946   4.445   3.704   3.482 -0.0984 -0.3787 -0.1675
  808MOL0     C 8947   4.553   3.651   3.481 -1.5599 -0.3507  0.3804
  808MOL0     O 8948   4.599   3.549   3.569 -0.2403 -0.1209  0.0233
  808MOL0     C 8949   4.523   3.496   3.666 -0.2368  0.1982  0.0761
  808MOL0     C 8950   4.601   3.409   3.750  0.2368  0.8620  0.2189
  808MOL0     C 8951   4.541   3.329   3.847  0.1146 -0.2167 -1.0916
  808MOL0     C 8952   4.402   3.336   3.875 -0.5581 -0.5975 -1.5013
  808MOL0     O 8953   4.323   3.259   3.957  0.2834 -0.0231 -0.5317
  808MOL0     C 8954   4.343   3.118   3.963  0.4834 -0.0495  0.2703
  808MOL0     C 8955   4.251   3.064   4.077  0.2717 -0.3924  0.4966
  808MOL0     C 8956   4.103   3.050   4.037 -0.1785 -0.5080  0.1068
  808MOL0     C 8957   4.015   2.977   4.139  0.0385 -0.7768  0.0970
  808MOL0     C 8958   3.866   2.978   4.098  0.5540  0.0323 -0.6349
  808MOL0     C 8959   3.784   2.876   4.167 -0.3715  0.1672 -0.0076
  808MOL0     C 8960   3.773   2.895   4.318 -0.2099  0.3247  0.1166
  808MOL0     C 8961   3.730   2.765   4.394  1.0637 -0.5510 -0.0845
  808MOL0     N 8962   3.599   2.721   4.334  0.3172  0.3067  0.0113
  808MOL0     C 8963   3.480   2.721   4.396  0.9658 -0.0655 -0.3035
  808MOL0     C 8964   3.388   2.659   4.316  0.7519 -1.3577  0.3654
  808MOL0     C 8965   3.243   2.647   4.343  0.3599  0.1077 -0.2651
  808MOL0     C 8966   3.166   2.672   4.215  0.0536  0.7111  0.0590
  808MOL0     C 8967   3.021   2.687   4.245  0.4884  0.2692 -0.1832
  808MOL0     C 8968   2.933   2.583   4.180 -0.8111  0.3907 -0.6519
  808MOL0     O 8969   2.802   2.628   4.210 -0.2741  0.2561 -0.2952
  808MOL0     C 8970   2.695   2.539   4.192  0.4588 -0.2111 -0.3906
  808MOL0     C 8971   2.701   2.429   4.108  0.9503 -0.1404  0.4244
  808MOL0     C 8972   2.589   2.339   4.089 -0.2230  0.1300 -0.0243
  808MOL0     C 8973   2.611   2.246   3.977  0.2762  0.1035  0.5335
  808MOL0     C 8974   2.477   2.355   4.172 -0.2770 -0.7762  0.0951
  808MOL0     C 8975   2.356   2.259   4.173 -0.4380  0.3794  0.3184
  808MOL0     O 8976   2.245   2.293   4.250 -0.8259  0.5409  0.0503
  808MOL0     C 8977   2.129   2.224   4.246 -0.4061  0.8188  0.6312
  808MOL0     C 8978   2.125   2.093   4.290  0.9723  0.3585 -0.8538
  808MOL0     C 8979   1.997   2.031   4.286  0.1487  0.5975 -0.1634
  808MOL0     C 8980   1.878   2.096   4.244  0.4093  0.1460  0.4290
  808MOL0     O 8981   1.755   2.047   4.227  0.7280  0.1441 -0.0536
  808MOL0     C 8982   1.729   1.905   4.204  0.4471 -0.0716  0.2554
  808MOL0     C 8983   1.574   1.888   4.209 -0.4753  0.7018  0.4302
  808MOL0     C 8984   1.532   1.745   4.152 -0.0721 -0.2838  0.0545
  808MOL0     C 8985   1.530   1.743   3.998 -0.0864 -0.4320  0.0423
  808MOL0     C 8986   1.491   1.603   3.948 -0.2576 -0.2164 -0.5722
  808MOL0     C 8987   1.502   1.583   3.803  0.8437  0.9906  0.5889
  808MOL0     C 8988   1.426   1.688   3.713  0.3821  0.1704 -0.7417
  808MOL0     C 8989   1.273   1.689   3.749  0.2694  0.7175 -0.0457
  808MOL0    Cl 8990   1.193   1.524   3.736  0.0533 -0.6191 -0.3317
  808MOL0     C 8991   1.886   2.232   4.227 -0.3457  0.5037 -0.0768
  808MOL0     C 8992   2.015   2.289   4.216  0.0222  0.4429  0.4433
  808MOL0     O 8993   2.367   2.149   4.127  0.2837 -1.2774 -0.0127
  808MOL0     C 8994   2.472   2.468   4.258  0.0835  0.8353 -0.6262
  808MOL0     C 8995   2.577   2.555   4.260  0.1136  0.0584 -0.3421
  808MOL0     N 8996   3.457   2.631   4.191 -0.1051  0.9862 -0.1156
  808MOL0     N 8997   3.582   2.665   4.213  0.2679  0.0636 -0.3088
  808MOL0     C 8998   4.325   3.428   3.794 -1.4259 -0.1009 -0.5911
  808MOL0     C 8999   4.385   3.504   3.688 -0.6575 -0.3718 -0.6647
  808MOL0     C 9000   4.646   3.708   3.378  0.7459  0.4418 -0.3099
  808MOL0     C 9001   4.758   3.630   3.344 -0.8055 -0.6396 -0.0702
  808MOL0     C 9002   4.842   3.674   3.237  0.1283  0.3378 -0.3785
  808MOL0     C 9003   4.818   3.792   3.168  0.7398 -0.3115 -0.8672
  808MOL0     O 9004   4.900   3.830   3.067 -0.1312 -0.3027  0.5105
  808MOL0     C 9005   4.990   3.940   3.091  0.6256 -0.7975  0.9190
  808MOL0     C 9006   5.124   3.869   3.108 -0.0302 -0.8327 -0.3013
  808MOL0     C 9007   5.234   3.967   3.150 -0.2130 -0.1988 -0.6899
  808MOL0     C 9008   5.313   4.019   3.028  0.4097 -0.9470  0.1204
  808MOL0     C 9009   5.423   4.114   3.067  0.3735 -0.4791 -0.1356
  808MOL0     C 9010   5.498   4.195   3.115 -0.4932 -0.0726  0.2172
  808MOL0     C 9011   4.707   3.869   3.206 -0.4652 -0.9197  0.0050
  808MOL0     C 9012   4.615   3.825   3.306 -0.9860  0.0201 -0.1279
  808MOL0     H 9013   4.705   3.392   3.725 -0.2686 -0.0456 -1.4015
  808MOL0     H 9014   4.609   3.266   3.904 -0.9697  1.9833  3.0755
  808MOL0     H 9015   4.304   3.079   3.868 -3.1384  2.6234  0.4316
  808MOL0     H 9016   4.445   3.081   3.979  0.8388  0.8801  0.2803
  808MOL0     H 9017   4.287   2.961   4.085 -0.2180 -0.5437  0.8215
  808MOL0     H 9018   4.246   3.118   4.173 -2.6347  2.0535 -0.8702
  808MOL0     H 9019   4.070   3.154   4.035  4.3512  1.1522  0.1008
  808MOL0     H 9020   4.082   3.009   3.938 -1.0041 -0.1585  0.1293
  808MOL0     H 9021   4.049   2.874   4.144 -2.0557 -1.4692  2.3994
  808MOL0     H 9022   4.035   3.019   4.239  0.6547  0.1585 -0.4019
  808MOL0     H 9023   3.839   3.082   4.116  2.4375  0.2726  1.2029
  808MOL0     H 9024   3.857   2.947   3.993  4.0856 -0.9603 -0.7601
  808MOL0     H 9025   3.687   2.874   4.117  0.2524  3.7710 -1.6583
  808MOL0     H 9026   3.826   2.776   4.151  0.5639  0.2605  1.6633
  808MOL0     H 9027   3.868   2.927   4.362 -0.3142  2.1567 -0.9053
  808MOL0     H 9028   3.696   2.971   4.332  1.8018  2.7003 -1.0862
  808MOL0     H 9029   3.725   2.791   4.500 -0.7290  0.5258 -0.3913
  808MOL0     H 9030   3.807   2.688   4.381  2.5236  1.0514 -1.5837
  808MOL0     H 9031   3.441   2.766   4.487 -2.6971 -2.6776 -0.3252
  808MOL0     H 9032   3.219   2.545   4.376  0.6681  0.6620  1.8102
  808MOL0     H 9033   3.220   2.711   4.428  0.5556  0.8277 -0.7506
  808MOL0     H 9034   3.184   2.592   4.142 -2.5261  1.0208 -1.0102
  808MOL0     H 9035   3.211   2.762   4.174  2.1461  0.4606  1.5956
  808MOL0     H 9036   2.983   2.781   4.203  0.8304  0.0004 -1.1270
  808MOL0     H 9037   3.000   2.686   4.352 -1.0085  1.9938 -0.3989
  808MOL0     H 9038   2.937   2.488   4.233 -1.5020  1.2981  1.1240
  808MOL0     H 9039   2.965   2.566   4.077  0.5151 -0.1584 -0.1722
  808MOL0     H 9040   2.790   2.401   4.054 -0.6906 -3.9486 -0.6433
  808MOL0     H 9041   2.552   2.279   3.891  2.0915  3.3801  0.3714
  808MOL0     H 9042   2.717   2.223   3.960  0.8587  1.3023  2.3193
  808MOL0     H 9043   2.555   2.156   4.001  0.1302 -0.3418 -1.2876
  808MOL0     H 9044   2.213   2.046   4.333  0.5298  1.6416  1.6522
  808MOL0     H 9045   1.994   1.926   4.314  1.0579  0.1138 -1.7863
  808MOL0     H 9046   1.765   1.866   4.108  1.8673 -0.9055  1.0906
  808MOL0     H 9047   1.778   1.835   4.273  0.6663 -1.8396 -1.5935
  808MOL0     H 9048   1.538   1.893   4.312 -1.1523  2.3129  0.1568
  808MOL0     H 9049   1.526   1.967   4.150 -0.6434 -0.9158 -1.7113
  808MOL0     H 9050   1.429   1.729   4.185 -0.8672 -0.1130 -2.1536
  808MOL0     H 9051   1.594   1.662   4.188 -0.1520  1.0403  3.5841
  808MOL0     H 9052   1.466   1.824   3.962  2.0125  1.4448  0.3062
  808MOL0     H 9053   1.627   1.756   3.949 -1.0255 -0.6866 -1.9792
  808MOL0     H 9054   1.394   1.571   3.986 -0.6008  1.8377  0.3863
  808MOL0     H 9055   1.561   1.535   3.997  3.5098  2.2970 -2.0047
  808MOL0     H 9056   1.606   1.601   3.777  0.9572 -0.1134  0.2180
  808MOL0     H 9057   1.466   1.480   3.789  0.2766  0.9172  2.4143
  808MOL0     H 9058   1.445   1.676   3.606  3.5488  0.3556 -0.2828
  808MOL0     H 9059   1.472   1.784   3.737 -0.1917  0.4874 -0.8744
  808MOL0     H 9060   1.226   1.767   3.689  1.8180  2.4641  0.9036
  808MOL0     H 9061   1.264   1.735   3.848 -0.1569  3.1052 -1.1371
  808MOL0     H 9062   1.799   2.297   4.219  0.4840  1.7743  0.9012
  808MOL0     H 9063   2.028   2.395   4.198 -0.4506  0.6619  1.3733
  808MOL0     H 9064   2.386   2.499   4.316 -0.0246  0.1299 -0.4055
  808MOL0     H 9065   2.571   2.631   4.337 -1.1717  1.5717 -1.8369
  808MOL0     H 9066   4.219   3.434   3.812 -1.9855 -1.8161 -2.8666
  808MOL0     H 9067   4.331   3.577   3.628 -0.8023  2.3319  2.4465
  808MOL0     H 9068   4.783   3.532   3.384  1.1273 -0.6945 -1.2897
  808MOL0     H 9069   4.932   3.614   3.223  1.7550  1.6980  3.0299
  808MOL0     H 9070   4.996   4.007   3.004 -2.6632  0.3642  1.4413
  808MOL0     H 9071   4.966   4.000   3.179  0.4658 -0.8437  0.9078
  808MOL0     H 9072   5.139   3.818   3.013  0.1936 -0.2678 -0.5702
  808MOL0     H 9073   5.119   3.787   3.181  0.9769 -1.8383 -1.3286
  808MOL0     H 9074   5.300   3.921   3.224 -3.3111  0.5980  2.8877
  808MOL0     H 9075   5.187   4.048   3.207  2.2498  0.1095  1.0847
  808MOL0     H 9076   5.248   4.069   2.956  0.2597 -1.9230 -0.4426
  808MOL0     H 9077   5.352   3.933   2.972  3.0904  0.6430 -0.6450
  808MOL0     H 9078   5.582   4.250   3.153  0.3317 -1.9142  1.1667
  808MOL0     H 9079   4.685   3.956   3.145  0.9394 -1.0092 -0.6610
  808MOL0     H 9080   4.524   3.877   3.333 -1.1871 -0.3745 -0.0399
  809MOL0     O 9081   2.135   3.132   6.672 -0.1753 -0.6817 -0.0527
  809MOL0     C 9082   2.132   3.048   6.584  0.4495  0.3840  0.5126
  809MOL0     O 9083   2.243   3.002   6.523 -0.3011 -0.6436 -0.2686
  809MOL0     C 9084   2.362   2.970   6.580  0.3022  0.0761 -0.3769
  809MOL0     C 9085   2.370   2.934   6.714 -1.0434  0.1390 -0.2264
  809MOL0     C 9086   2.489   2.887   6.776  0.2324  0.2822  0.2036
  809MOL0     C 9087   2.603   2.860   6.689  0.8966 -0.6703 -0.1892
  809MOL0     O 9088   2.722   2.813   6.727  0.3287 -0.3083 -0.1159
  809MOL0     C 9089   2.774   2.862   6.856 -0.2771 -0.7227  0.6887
  809MOL0     C 9090   2.923   2.847   6.874  0.0320 -0.0323 -0.2076
  809MOL0     C 9091   2.995   2.938   6.778  0.6176 -0.2933 -0.0732
  809MOL0     C 9092   3.147   2.930   6.799 -0.3301  1.2063  0.2643
  809MOL0     C 9093   3.207   2.812   6.722 -0.0863 -1.0837 -0.4860
  809MOL0     C 9094   3.362   2.814   6.747  0.4710 -0.5840  0.3992
  809MOL0     C 9095   3.445   2.941   6.721 -0.6942 -0.1804 -0.0791
  809MOL0     C 9096   3.604   2.934   6.717 -1.0151  0.7570  0.9130
  809MOL0     N 9097   3.644   2.811   6.645 -0.0489  0.3065 -0.0583
  809MOL0     C 9098   3.617   2.794   6.514 -0.4569 -0.3162  0.2864
  809MOL0     C 9099   3.658   2.672   6.477  0.3506  0.2651  0.5586
  809MOL0     C 9100   3.627   2.615   6.343 -0.0479  0.5995  0.4145
  809MOL0     C 9101   3.639   2.705   6.220 -0.6377  0.0335  0.1153
  809MOL0     C 9102   3.591   2.638   6.096  0.2706  0.3722 -0.3049
  809MOL0     C 9103   3.629   2.703   5.964  0.5384  0.6727 -0.5943
  809MOL0     O 9104   3.777   2.712   5.967  0.4187  0.4639 -0.8895
  809MOL0     C 9105   3.838   2.808   5.887  0.1928 -0.2069 -0.3131
  809MOL0     C 9106   3.770   2.904   5.806 -0.3574 -0.4566 -0.3727
  809MOL0     C 9107   3.847   3.005   5.736 -0.2275 -0.4371  0.3178
  809MOL0     C 9108   3.763   3.114   5.670  0.1582  0.4022  1.1595
  809MOL0     C 9109   3.982   3.010   5.752  0.0787 -0.3181 -0.3654
  809MOL0     C 9110   4.069   3.112   5.699 -0.2420  0.4839  0.1581
  809MOL0     O 9111   4.171   3.151   5.780  0.2985 -0.1992  0.1881
  809MOL0     C 9112   4.273   3.238   5.743  0.2809  0.6762 -0.5285
  809MOL0     C 9113   4.406   3.199   5.768 -0.4029 -0.3942 -0.3670
  809MOL0     C 9114   4.500   3.288   5.719 -0.0201  0.2455  0.5771
  809MOL0     C 9115   4.470   3.413   5.666  0.3542  0.1690  0.3290
  809MOL0     O 9116   4.554   3.505   5.597  0.8000 -0.2483 -0.5331
  809MOL0     C 9117   4.681   3.498   5.651  0.0493 -0.9147 -0.3506
  809MOL0     C 9118   4.782   3.595   5.584 -0.5452 -0.6222  0.1610
  809MOL0     C 9119   4.924   3.590   5.655  0.3945 -0.4918  0.3631
  809MOL0     C 9120   5.026   3.668   5.572  1.1223  0.2092 -0.6842
  809MOL0     C 9121   5.007   3.821   5.564 -0.9318 -0.2262 -1.2265
  809MOL0     C 9122   5.020   3.904   5.698  0.3878  0.8128 -0.2348
  809MOL0     C 9123   5.162   3.888   5.758 -0.0999 -0.1079 -0.5217
  809MOL0     C 9124   5.173   3.987   5.876  0.7217 -0.1264 -0.4260
  809MOL0    Cl 9125   5.038   3.972   5.997  0.2087 -0.2175 -0.1642
  809MOL0     C 9126   4.340   3.444   5.635  0.3228  0.2387  0.4266
  809MOL0     C 9127   4.241   3.359   5.683 -0.3218 -0.2627  0.0240
  809MOL0     O 9128   4.049   3.153   5.586  0.1048  0.1087 -0.0641
  809MOL0     C 9129   4.050   2.920   5.837 -0.6245  1.2832  0.5538
  809MOL0     C 9130   3.975   2.819   5.894 -0.4794 -0.0293  0.8816
  809MOL0     N 9131   3.699   2.612   6.597 -1.3832 -0.3256 -0.1248
  809MOL0     N 9132   3.695   2.700   6.692 -0.1704 -0.5989  0.5112
  809MOL0     C 9133   2.590   2.894   6.554 -0.2226 -0.7696  0.0476
  809MOL0     C 9134   2.476   2.949   6.496 -0.2429  1.0569 -0.3867
  809MOL0     C 9135   2.003   3.001   6.527  0.2933 -0.8312 -0.3799
  809MOL0     C 9136   1.998   2.879   6.465 -0.3981  0.1400 -0.3865
  809MOL0     C 9137   1.883   2.821   6.414  0.0129  0.2618 -0.6990
  809MOL0     C 9138   1.767   2.894   6.427 -0.6705 -0.9602 -0.0123
  809MOL0     O 9139   1.646   2.850   6.373 -0.4663 -0.8495 -0.9137
  809MOL0     C 9140   1.629   2.721   6.313 -0.0447 -0.4491  0.5472
  809MOL0     C 9141   1.501   2.714   6.234 -0.3119 -0.3235 -0.7939
  809MOL0     C 9142   1.377   2.737   6.335 -0.3434  0.4952 -0.6128
  809MOL0     C 9143   1.248   2.730   6.252 -0.8423  0.5795 -0.0845
  809MOL0     C 9144   1.238   2.832   6.145  0.0413 -0.0383  0.5972
  809MOL0     C 9145   1.219   2.913   6.051  0.5593  0.0270  0.5052
  809MOL0     C 9146   1.765   3.012   6.497 -0.2722 -0.1711 -0.2224
  809MOL0     C 9147   1.883   3.066   6.545  1.0282 -0.1450  0.2002
  809MOL0     H 9148   2.284   2.943   6.780  1.2912  0.3025  3.0982
  809MOL0     H 9149   2.507   2.854   6.878  0.6243  1.9424  0.6999
  809MOL0     H 9150   2.750   2.968   6.866 -1.0238 -0.9970  1.8756
  809MOL0     H 9151   2.722   2.799   6.928 -0.5208 -4.3798 -2.3450
  809MOL0     H 9152   2.952   2.880   6.974 -0.6036  1.1033 -0.3764
  809MOL0     H 9153   2.944   2.741   6.864 -0.3136 -0.2961  1.6253
  809MOL0     H 9154   2.972   2.913   6.674  1.1953 -0.8431 -0.0801
  809MOL0     H 9155   2.971   3.041   6.803  0.5113 -0.0127 -1.2582
  809MOL0     H 9156   3.196   3.022   6.765  2.4784  0.2527  1.4932
  809MOL0     H 9157   3.173   2.927   6.905  2.2823  2.3045 -0.2672
  809MOL0     H 9158   3.168   2.716   6.756 -1.6531 -0.1895  0.2928
  809MOL0     H 9159   3.175   2.820   6.617 -2.0402  0.6752  0.1851
  809MOL0     H 9160   3.380   2.770   6.846 -0.1538  0.1888  0.8685
  809MOL0     H 9161   3.410   2.741   6.681  2.7430  1.0084  0.1841
  809MOL0     H 9162   3.397   3.006   6.647  0.6082  0.1069 -0.7052
  809MOL0     H 9163   3.425   2.998   6.812 -3.8319  0.1235 -0.8420
  809MOL0     H 9164   3.642   2.920   6.819 -0.5371 -3.5994  0.3615
  809MOL0     H 9165   3.647   3.022   6.671  0.0993  0.5884  1.5991
  809MOL0     H 9166   3.568   2.866   6.449  0.9761 -0.9328 -1.5802
  809MOL0     H 9167   3.709   2.545   6.327  1.3531  2.8278 -3.7932
  809MOL0     H 9168   3.531   2.563   6.340  0.7861 -1.0644 -3.4324
  809MOL0     H 9169   3.737   2.751   6.205 -0.4999  0.3301  1.7745
  809MOL0     H 9170   3.578   2.795   6.228 -0.1713  0.4789 -1.0981
  809MOL0     H 9171   3.484   2.621   6.103  0.0850  1.3149 -0.6362
  809MOL0     H 9172   3.636   2.539   6.108 -1.9893 -0.5484  1.0232
  809MOL0     H 9173   3.580   2.801   5.972 -1.0548  0.0759 -2.2851
  809MOL0     H 9174   3.589   2.641   5.883 -0.1729  0.0985  0.1719
  809MOL0     H 9175   3.662   2.908   5.799 -0.2405  0.4752 -2.0230
  809MOL0     H 9176   3.666   3.069   5.644  0.9198 -0.7891  0.2811
  809MOL0     H 9177   3.760   3.200   5.737  0.9265  2.0533 -0.8208
  809MOL0     H 9178   3.805   3.145   5.574 -1.3584  2.1383  0.9924
  809MOL0     H 9179   4.423   3.103   5.815 -1.7904 -1.0147 -1.0892
  809MOL0     H 9180   4.602   3.257   5.739  0.0458 -0.2185 -0.4181
  809MOL0     H 9181   4.675   3.531   5.755 -4.3832 -0.0909 -0.6707
  809MOL0     H 9182   4.728   3.400   5.637 -0.6632 -1.1451 -1.1973
  809MOL0     H 9183   4.797   3.588   5.475  3.5206 -1.9549  0.6034
  809MOL0     H 9184   4.750   3.697   5.605 -0.1426  0.0780 -2.2330
  809MOL0     H 9185   4.954   3.485   5.651  3.6657  0.3577 -3.8960
  809MOL0     H 9186   4.918   3.610   5.763  0.0265  1.1149  0.0696
  809MOL0     H 9187   5.125   3.646   5.614  1.2786  0.1507 -1.0840
  809MOL0     H 9188   5.036   3.628   5.471 -1.1891 -1.0209 -0.4879
  809MOL0     H 9189   4.911   3.849   5.521 -0.4993  1.3668 -1.2051
  809MOL0     H 9190   5.084   3.861   5.498  1.4019 -1.0754  0.8080
  809MOL0     H 9191   5.004   4.010   5.678  2.3638  0.7720 -2.3580
  809MOL0     H 9192   4.945   3.852   5.760 -1.0747 -1.4237 -3.5688
  809MOL0     H 9193   5.238   3.913   5.684  1.3709  1.4795  1.4137
  809MOL0     H 9194   5.184   3.793   5.807 -0.9120  0.0284  0.1111
  809MOL0     H 9195   5.177   4.090   5.838  1.4469 -1.0549 -3.1116
  809MOL0     H 9196   5.266   3.966   5.930  0.6311  2.7398  1.0462
  809MOL0     H 9197   4.306   3.525   5.571 -1.2937 -0.3615  0.4745
  809MOL0     H 9198   4.141   3.399   5.672 -0.1031  0.1677 -0.3906
  809MOL0     H 9199   4.157   2.922   5.857 -0.8541  1.5803  1.8142
  809MOL0     H 9200   4.039   2.753   5.951 -0.7010 -0.9532  0.0815
  809MOL0     H 9201   2.678   2.884   6.492  0.2386 -0.3522  0.6162
  809MOL0     H 9202   2.475   2.977   6.391 -0.1644  1.1594 -0.3599
  809MOL0     H 9203   2.093   2.830   6.445 -0.0089 -0.2400  2.0153
  809MOL0     H 9204   1.887   2.736   6.347  0.2567 -0.7857  0.5807
  809MOL0     H 9205   1.716   2.706   6.248 -0.4627  0.0387 -0.1330
  809MOL0     H 9206   1.616   2.642   6.388 -2.5758  0.9618  1.7180
  809MOL0     H 9207   1.486   2.617   6.185 -0.9929 -0.4506 -0.3527
  809MOL0     H 9208   1.499   2.793   6.158 -2.2810  1.2361  0.7568
  809MOL0     H 9209   1.384   2.833   6.386  0.7833  0.2065 -0.1853
  809MOL0     H 9210   1.381   2.650   6.402 -1.0319  0.0675 -1.1192
  809MOL0     H 9211   1.164   2.745   6.321  0.5738  2.3497  1.3491
  809MOL0     H 9212   1.254   2.632   6.204  0.1241  0.5806  0.0216
  809MOL0     H 9213   1.181   2.969   5.968  1.0350  0.6929  0.7276
  809MOL0     H 9214   1.667   3.050   6.523 -0.3455  0.7831 -1.7384
  809MOL0     H 9215   1.875   3.165   6.589  0.9290  0.4521 -1.1123
  810MOL0     O 9216   3.037   1.837   8.392  0.1429 -0.2808  0.7673
  810MOL0     C 9217   3.067   1.907   8.491 -0.3247 -0.4747  0.0464
  810MOL0     O 9218   3.022   2.037   8.506  0.3984 -0.7222  0.0723
  810MOL0     C 9219   2.950   2.088   8.402  0.2436 -0.3491 -0.3750
  810MOL0     C 9220   2.815   2.109   8.432 -0.0956  0.2353 -0.2041
  810MOL0     C 9221   2.731   2.159   8.336  0.3412  0.1992  0.1723
  810MOL0     C 9222   2.781   2.176   8.203 -0.2336  0.6394 -0.7328
  810MOL0     O 9223   2.706   2.210   8.094 -0.3345  0.3537  1.1461
  810MOL0     C 9224   2.570   2.253   8.123  0.9275  0.1390 -0.6081
  810MOL0     C 9225   2.499   2.329   8.017  0.0411  0.0479 -0.2572
  810MOL0     C 9226   2.365   2.386   8.075  0.9681 -0.0571  1.2426
  810MOL0     C 9227   2.280   2.476   7.979  0.4097 -0.2243 -0.6312
  810MOL0     C 9228   2.161   2.542   8.049 -0.8074 -0.0736  1.0417
  810MOL0     C 9229   2.050   2.455   8.098 -1.0130  0.2498  0.0272
  810MOL0     C 9230   1.962   2.429   7.972  0.2917  0.2123  0.1276
  810MOL0     C 9231   1.838   2.353   8.005  0.2459  1.0162 -0.1924
  810MOL0     N 9232   1.738   2.440   8.058 -0.2309  0.3714  0.4037
  810MOL0     C 9233   1.621   2.468   7.992  0.6368  0.0039 -0.2537
  810MOL0     C 9234   1.548   2.528   8.088 -0.1679 -0.2164  0.3361
  810MOL0     C 9235   1.406   2.581   8.073 -0.6789  0.1272  0.3122
  810MOL0     C 9236   1.426   2.734   8.032 -0.7188 -0.2667 -0.0781
  810MOL0     C 9237   1.448   2.826   8.150  0.4763  0.8022 -0.2647
  810MOL0     C 9238   1.474   2.963   8.096  0.2129  0.3333  0.9364
  810MOL0     O 9239   1.369   3.012   8.012 -0.1869  0.3217 -0.9257
  810MOL0     C 9240   1.385   3.134   7.951  0.2623 -0.5518  0.3075
  810MOL0     C 9241   1.288   3.172   7.862 -0.0929 -0.6067  0.1335
  810MOL0     C 9242   1.290   3.291   7.786 -0.6157 -0.2530 -0.6826
  810MOL0     C 9243   1.171   3.315   7.696 -0.6178 -0.4209  0.0671
  810MOL0     C 9244   1.403   3.377   7.802 -0.8316 -0.1551  0.1724
  810MOL0     C 9245   1.419   3.509   7.739 -0.3332  0.0832  0.3860
  810MOL0     O 9246   1.520   3.588   7.765 -0.7113  0.0162  0.3597
  810MOL0     C 9247   1.519   3.717   7.717 -1.0042 -0.7946 -0.1389
  810MOL0     C 9248   1.432   3.806   7.775 -1.1190 -0.5414 -0.4700
  810MOL0     C 9249   1.428   3.941   7.722  0.2990  1.3274  0.3232
  810MOL0     C 9250   1.497   3.972   7.605  0.0159  0.7512  0.5962
  810MOL0     O 9251   1.484   4.105   7.567  0.2164  0.0733 -0.5350
  810MOL0     C 9252   1.593   4.168   7.492 -0.8013 -0.2107 -0.1181
  810MOL0     C 9253   1.580   4.317   7.525 -0.2586 -0.1872 -0.5061
  810MOL0     C 9254   1.692   4.406   7.472  0.1328  0.7819  0.0166
  810MOL0     C 9255   1.668   4.553   7.498 -0.4466 -0.1165  1.3917
  810MOL0     C 9256   1.572   4.620   7.393 -0.9122  0.3278 -1.2233
  810MOL0     C 9257   1.598   4.766   7.364  1.1178  0.2905 -0.7545
  810MOL0     C 9258   1.548   4.866   7.477 -0.5278  0.4877  0.0596
  810MOL0     C 9259   1.548   5.006   7.428  0.6433 -0.2776  0.3316
  810MOL0    Cl 9260   1.702   5.046   7.344  0.1384  0.1513  0.2734
  810MOL0     C 9261   1.582   3.877   7.548 -0.2391 -0.0433  0.1373
  810MOL0     C 9262   1.592   3.754   7.607  0.9261 -0.1769  0.1532
  810MOL0     O 9263   1.328   3.545   7.671  1.0935  0.0601  0.0001
  810MOL0     C 9264   1.510   3.334   7.889  0.9586 -0.2166 -0.8749
  810MOL0     C 9265   1.494   3.216   7.966  0.5827  0.0258 -0.3225
  810MOL0     N 9266   1.618   2.532   8.206 -0.3927  0.1812 -1.5017
  810MOL0     N 9267   1.729   2.474   8.189 -0.3325 -0.2132 -0.0746
  810MOL0     C 9268   2.916   2.154   8.177 -1.1441  1.1407 -0.5710
  810MOL0     C 9269   3.001   2.114   8.278 -0.1780  0.0645 -0.3304
  810MOL0     C 9270   3.148   1.843   8.601 -0.0770 -0.7795  0.0041
  810MOL0     C 9271   3.167   1.918   8.724 -0.5581  0.3683  0.2350
  810MOL0     C 9272   3.250   1.873   8.827  0.1515 -1.0608 -0.1979
  810MOL0     C 9273   3.309   1.746   8.814 -0.1382  0.0294 -0.2843
  810MOL0     O 9274   3.369   1.686   8.918 -0.8862  0.1444 -0.2521
  810MOL0     C 9275   3.307   1.677   9.043 -0.0440 -0.2941 -0.8169
  810MOL0     C 9276   3.410   1.645   9.144 -0.2142 -0.2612 -0.7242
  810MOL0     C 9277   3.489   1.515   9.110  0.2059 -1.1767 -0.3878
  810MOL0     C 9278   3.600   1.485   9.214  0.5629  0.5542  0.0802
  810MOL0     C 9279   3.712   1.587   9.208 -0.6770  0.5361  0.2414
  810MOL0     C 9280   3.800   1.660   9.188 -0.3719 -1.0188 -0.1496
  810MOL0     C 9281   3.293   1.672   8.688  0.2476 -0.5576 -0.6750
  810MOL0     C 9282   3.204   1.721   8.591  0.1314  0.6022  0.0984
  810MOL0     H 9283   2.780   2.088   8.532  3.9192 -0.0817  1.2821
  810MOL0     H 9284   2.626   2.162   8.363 -0.2250 -1.5262 -1.5862
  810MOL0     H 9285   2.504   2.170   8.149  3.4873 -1.9580 -0.4226
  810MOL0     H 9286   2.576   2.330   8.202 -4.1018 -1.0889  1.4080
  810MOL0     H 9287   2.559   2.420   8.016  0.8627 -0.1830  4.2377
  810MOL0     H 9288   2.488   2.269   7.927  1.8361  1.0573 -1.2172
  810MOL0     H 9289   2.309   2.304   8.122 -2.4883  1.2299 -0.2761
  810MOL0     H 9290   2.389   2.446   8.163 -1.3419  0.0425  1.8868
  810MOL0     H 9291   2.352   2.550   7.943  2.1916 -1.7234 -0.3066
  810MOL0     H 9292   2.243   2.420   7.893 -2.0686 -0.1457  0.2760
  810MOL0     H 9293   2.211   2.581   8.139  0.1484 -1.1738  1.0176
  810MOL0     H 9294   2.123   2.627   7.992 -3.9383 -3.1904 -1.9420
  810MOL0     H 9295   2.087   2.358   8.133  0.6903 -0.4875 -3.3935
  810MOL0     H 9296   2.005   2.507   8.183  0.4229 -1.2567  1.7866
  810MOL0     H 9297   1.943   2.521   7.916  0.2724  0.3971  0.4350
  810MOL0     H 9298   2.019   2.371   7.899  1.3582  0.1318  1.0060
  810MOL0     H 9299   1.862   2.273   8.075 -0.2715 -1.6748 -2.8883
  810MOL0     H 9300   1.808   2.311   7.908  1.2230 -1.3279  0.4709
  810MOL0     H 9301   1.587   2.443   7.892  1.9537  0.9771 -0.9845
  810MOL0     H 9302   1.347   2.530   7.996 -1.0549 -0.5858  1.0644
  810MOL0     H 9303   1.356   2.566   8.169 -1.7555  2.4719  0.1802
  810MOL0     H 9304   1.332   2.760   7.983  0.1985 -0.0560 -1.7773
  810MOL0     H 9305   1.507   2.741   7.959 -0.8582 -3.7866 -0.7861
  810MOL0     H 9306   1.523   2.799   8.225  1.3424  3.4843 -0.0691
  810MOL0     H 9307   1.352   2.840   8.200  0.1804  0.2681 -0.6676
  810MOL0     H 9308   1.561   2.962   8.029 -2.1412  0.8046 -2.3631
  810MOL0     H 9309   1.478   3.028   8.184  3.2756  0.2997  0.9452
  810MOL0     H 9310   1.198   3.111   7.848 -0.5717 -0.2229  1.3862
  810MOL0     H 9311   1.150   3.422   7.695  2.8032  0.3617  0.1993
  810MOL0     H 9312   1.181   3.282   7.592 -1.7745 -2.6056  0.5793
  810MOL0     H 9313   1.087   3.267   7.748 -0.7306 -0.7224 -0.3867
  810MOL0     H 9314   1.372   3.795   7.864 -0.7896  0.7477 -0.0671
  810MOL0     H 9315   1.388   4.028   7.772  1.9718  1.9322  0.6837
  810MOL0     H 9316   1.692   4.145   7.533  0.3592  1.5737 -1.7504
  810MOL0     H 9317   1.595   4.156   7.384  3.7426  4.8146 -1.0686
  810MOL0     H 9318   1.489   4.356   7.476 -1.1258 -2.6109 -0.9784
  810MOL0     H 9319   1.568   4.330   7.633 -1.6780 -2.3574 -0.3284
  810MOL0     H 9320   1.715   4.383   7.368 -1.4158 -3.0347  0.3749
  810MOL0     H 9321   1.782   4.378   7.527 -0.4336 -2.0899 -0.3920
  810MOL0     H 9322   1.622   4.562   7.598 -3.4150 -0.6909  0.2033
  810MOL0     H 9323   1.759   4.612   7.492 -1.4186  1.3100  0.1875
  810MOL0     H 9324   1.464   4.607   7.409 -0.5194 -0.5766  1.0459
  810MOL0     H 9325   1.591   4.566   7.300 -0.2696 -0.6110 -0.5583
  810MOL0     H 9326   1.705   4.778   7.346  1.1348  0.3866 -0.5994
  810MOL0     H 9327   1.551   4.790   7.269  1.7097 -0.5404 -1.2728
  810MOL0     H 9328   1.618   4.855   7.560  0.1847  2.0883 -0.2952
  810MOL0     H 9329   1.452   4.834   7.516 -1.1599  2.0005 -0.1974
  810MOL0     H 9330   1.524   5.070   7.514 -0.2227 -0.5128  0.2739
  810MOL0     H 9331   1.468   5.000   7.355  2.1457 -0.2695 -1.3813
  810MOL0     H 9332   1.646   3.894   7.462  1.4220  0.2368  1.3495
  810MOL0     H 9333   1.665   3.682   7.573  2.2234  0.6040  1.1802
  810MOL0     H 9334   1.598   3.394   7.909  2.7018 -2.6603 -0.8211
  810MOL0     H 9335   1.575   3.190   8.034  2.0498  2.7699 -0.8290
  810MOL0     H 9336   2.955   2.196   8.085 -2.1941  1.8124 -0.7172
  810MOL0     H 9337   3.108   2.099   8.264 -0.2011 -0.3709 -0.0724
  810MOL0     H 9338   3.126   2.019   8.723 -1.3599  0.0735  1.3151
  810MOL0     H 9339   3.264   1.921   8.923 -1.5108 -2.0584  0.5946
  810MOL0     H 9340   3.256   1.767   9.080  1.3483 -0.8037  2.7835
  810MOL0     H 9341   3.228   1.602   9.047 -0.3563  0.0445 -0.4813
  810MOL0     H 9342   3.366   1.626   9.242  1.3061 -1.0442 -0.1566
  810MOL0     H 9343   3.475   1.732   9.158 -1.5198  0.7663 -0.8526
  810MOL0     H 9344   3.543   1.523   9.015  0.2968  0.5774 -0.2151
  810MOL0     H 9345   3.422   1.428   9.108 -2.5642  0.8358  0.2982
  810MOL0     H 9346   3.652   1.393   9.187  1.0612  0.9942 -0.5064
  810MOL0     H 9347   3.553   1.475   9.312 -0.5192  0.0903 -0.4685
  810MOL0     H 9348   3.878   1.733   9.176 -1.9489  0.5015 -1.8522
  810MOL0     H 9349   3.329   1.570   8.691 -0.9581 -0.9879  1.3356
  810MOL0     H 9350   3.166   1.653   8.516 -0.2470 -1.1709  1.7988
  811MOL0     O 9351  10.964   5.823  10.656 -0.4253 -0.0791 -0.3478
  811MOL0     C 9352  10.905   5.871  10.755  0.1727  0.2391 -0.6479
  811MOL0     O 9353  10.932   5.989  10.816  0.8839 -0.6112  0.0859
  811MOL0     C 9354  11.033   6.061  10.752  0.6485  0.1137  0.0461
  811MOL0     C 9355  11.159   6.041  10.801 -0.3510  0.2914  0.3205
  811MOL0     C 9356  11.265   6.120  10.737 -0.0207  0.0718  0.0489
  811MOL0     C 9357  11.241   6.192  10.619  0.3174  0.3247  0.7318
  811MOL0     O 9358  11.338   6.266  10.552  0.4104  0.7778 -0.5952
  811MOL0     C 9359  11.481   6.250  10.580  0.3866 -0.6563  0.1159
  811MOL0     C 9360  11.572   6.313  10.473  0.2644  0.2093  0.4473
  811MOL0     C 9361  11.536   6.471  10.458  1.0309  0.9730 -0.2600
  811MOL0     C 9362  11.658   6.553  10.420 -0.2652  0.1874 -0.1879
  811MOL0     C 9363  11.618   6.697  10.405 -0.3262 -0.4407 -0.2227
  811MOL0     C 9364  11.541   6.706  10.275 -1.2225 -0.7523 -0.3817
  811MOL0     C 9365  11.515   6.856  10.247 -0.5718 -1.3590 -0.1337
  811MOL0     C 9366  11.450   6.869  10.110  0.2699 -0.1071  0.3674
  811MOL0     N 9367  11.313   6.826  10.112 -0.2966  0.4764  0.1640
  811MOL0     C 9368  11.254   6.744  10.023 -0.3000 -0.9478 -0.1945
  811MOL0     C 9369  11.125   6.761  10.035 -0.3721 -1.3217  0.5142
  811MOL0     C 9370  11.014   6.704   9.957 -0.2319  0.0600  0.2180
  811MOL0     C 9371  11.032   6.556   9.941 -0.4201 -0.0397  0.8666
  811MOL0     C 9372  10.905   6.498   9.877 -0.3303 -0.7635 -0.7220
  811MOL0     C 9373  10.881   6.535   9.728 -0.1025  1.3295 -0.0726
  811MOL0     O 9374  10.776   6.461   9.674 -0.0158  0.5417  0.3377
  811MOL0     C 9375  10.648   6.501   9.694 -0.0772  0.8016  0.0564
  811MOL0     C 9376  10.613   6.623   9.758  0.5799  0.2509 -0.1573
  811MOL0     C 9377  10.478   6.676   9.754 -0.5356  0.4218  0.5412
  811MOL0     C 9378  10.461   6.788   9.853 -0.5132  0.1641 -0.5063
  811MOL0     C 9379  10.380   6.623   9.677  0.0736  0.4142  0.6854
  811MOL0     C 9380  10.248   6.682   9.669  0.6866  0.0516  0.6559
  811MOL0     O 9381  10.171   6.627   9.564 -0.4030  0.3364 -0.3288
  811MOL0     C 9382  10.040   6.613   9.587 -1.2790 -0.1877 -0.4486
  811MOL0     C 9383   9.990   6.503   9.652 -0.1136 -0.2388 -0.9303
  811MOL0     C 9384   9.847   6.488   9.675 -0.0979 -0.3435  0.1073
  811MOL0     C 9385   9.763   6.593   9.629 -0.0811  1.0712 -0.4125
  811MOL0     O 9386   9.634   6.575   9.659 -0.1822 -0.3143 -0.0640
  811MOL0     C 9387   9.529   6.645   9.591 -0.4477 -0.5919  0.2203
  811MOL0     C 9388   9.400   6.564   9.602 -0.0751  0.8936 -0.1611
  811MOL0     C 9389   9.388   6.502   9.750 -0.8893  0.0255  0.2673
  811MOL0     C 9390   9.248   6.429   9.771 -0.0457 -0.0565  0.2326
  811MOL0     C 9391   9.219   6.432   9.925  0.2580 -0.2406 -0.0207
  811MOL0     C 9392   9.091   6.344   9.961  0.4783  0.0200  0.3434
  811MOL0     C 9393   8.960   6.397   9.880 -0.7434  0.2671  0.4061
  811MOL0     C 9394   8.832   6.344   9.930 -0.0757  0.7883  0.0283
  811MOL0    Cl 9395   8.824   6.167   9.969  0.5419 -0.0279  0.3090
  811MOL0     C 9396   9.824   6.703   9.574 -0.0995 -0.4224  0.0304
  811MOL0     C 9397   9.960   6.712   9.553 -0.5210  0.7608 -0.0109
  811MOL0     O 9398  10.201   6.743   9.762  1.0244  0.3228 -0.1739
  811MOL0     C 9399  10.406   6.495   9.623  0.1756  0.2498  0.2721
  811MOL0     C 9400  10.537   6.433   9.633 -0.0572 -0.0949  0.0314
  811MOL0     N 9401  11.106   6.867  10.122  0.0528  0.5845  0.7791
  811MOL0     N 9402  11.216   6.904  10.170  0.4716  0.8949  0.0579
  811MOL0     C 9403  11.111   6.190  10.566 -0.8906  0.5152  0.3408
  811MOL0     C 9404  11.006   6.125  10.633  0.9438 -0.0434  0.9969
  811MOL0     C 9405  10.809   5.775  10.822 -0.2337 -0.4620 -0.6541
  811MOL0     C 9406  10.718   5.824  10.924  0.5032  0.9640 -0.3312
  811MOL0     C 9407  10.609   5.738  10.962 -0.6049 -0.6256 -0.4795
  811MOL0     C 9408  10.608   5.601  10.913 -0.2926  0.1242  0.4992
  811MOL0     O 9409  10.507   5.505  10.936  0.1762 -1.2060  0.1370
  811MOL0     C 9410  10.385   5.540  11.006 -0.3873  0.3999  0.1295
  811MOL0     C 9411  10.411   5.546  11.162  0.2950 -0.1424  0.1269
  811MOL0     C 9412  10.306   5.629  11.236 -0.3441 -0.2658  0.4703
  811MOL0     C 9413  10.315   5.643  11.389 -0.0985 -0.4480  0.4864
  811MOL0     C 9414  10.435   5.710  11.429  0.2479 -0.1016 -0.2344
  811MOL0     C 9415  10.540   5.770  11.455 -0.3434  0.4393 -0.1959
  811MOL0     C 9416  10.714   5.554  10.833  0.4484  1.0844  0.0528
  811MOL0     C 9417  10.813   5.645  10.784 -0.8044  0.2757  1.0483
  811MOL0     H 9418  11.188   6.006  10.900  1.8750 -2.8383 -1.2749
  811MOL0     H 9419  11.361   6.110  10.788  0.0656 -2.2898 -0.4641
  811MOL0     H 9420  11.504   6.294  10.678 -0.5617  0.3522 -0.0972
  811MOL0     H 9421  11.498   6.141  10.581  1.6173 -0.5014 -0.9685
  811MOL0     H 9422  11.681   6.307  10.480  0.4930  2.6841 -0.0411
  811MOL0     H 9423  11.548   6.260  10.380 -0.1158 -0.9307  1.1648
  811MOL0     H 9424  11.450   6.484  10.392  0.1127  1.8763  1.0793
  811MOL0     H 9425  11.493   6.506  10.552  2.1674  2.8251 -0.3802
  811MOL0     H 9426  11.736   6.548  10.497  1.9354  0.5461 -2.2469
  811MOL0     H 9427  11.697   6.504  10.330  1.9115  0.1438  0.7152
  811MOL0     H 9428  11.543   6.718  10.482  0.1255 -2.4675  0.8416
  811MOL0     H 9429  11.706   6.762  10.414 -0.0350 -1.0211  1.4468
  811MOL0     H 9430  11.608   6.660  10.202 -0.2976  0.8278 -0.5825
  811MOL0     H 9431  11.446   6.652  10.275 -1.5250 -0.2459 -1.0608
  811MOL0     H 9432  11.453   6.903  10.324  0.3573  0.5679 -0.5173
  811MOL0     H 9433  11.608   6.913  10.253 -0.9345 -0.7950  0.2185
  811MOL0     H 9434  11.509   6.819  10.033 -0.8762 -0.3858 -0.3590
  811MOL0     H 9435  11.445   6.977  10.094 -0.5905  0.0806  1.7210
  811MOL0     H 9436  11.310   6.679   9.958 -0.7475  1.6198 -3.4402
  811MOL0     H 9437  10.928   6.721  10.022  0.3602  1.2330  0.6974
  811MOL0     H 9438  11.004   6.762   9.865 -0.0996 -1.4384 -0.7927
  811MOL0     H 9439  11.034   6.510  10.040 -0.8821  0.8295  1.2969
  811MOL0     H 9440  11.120   6.529   9.882 -0.2737 -0.8846  1.4607
  811MOL0     H 9441  10.822   6.535   9.938  2.0234 -1.1107  2.9971
  811MOL0     H 9442  10.909   6.389   9.881 -0.9062 -0.7676 -0.2950
  811MOL0     H 9443  10.970   6.504   9.672 -1.4941 -0.9339 -1.1487
  811MOL0     H 9444  10.866   6.643   9.718 -0.0058  1.3821  0.3157
  811MOL0     H 9445  10.678   6.680   9.822 -1.2329 -0.2405  2.2643
  811MOL0     H 9446  10.556   6.813   9.901 -0.8297  0.1727  0.1205
  811MOL0     H 9447  10.436   6.881   9.801 -1.2195  0.5412  0.4943
  811MOL0     H 9448  10.389   6.765   9.931 -2.5419  1.0786 -2.0163
  811MOL0     H 9449  10.067   6.440   9.696 -0.5873  0.4305  0.9281
  811MOL0     H 9450   9.790   6.415   9.732  1.0687  0.6538  2.6748
  811MOL0     H 9451   9.514   6.741   9.641  2.1996 -0.0125  0.0797
  811MOL0     H 9452   9.554   6.644   9.485 -1.9689 -1.7768 -0.1503
  811MOL0     H 9453   9.312   6.615   9.563  1.0956  2.1323 -1.3120
  811MOL0     H 9454   9.407   6.476   9.538 -1.4182  0.9889 -0.4572
  811MOL0     H 9455   9.403   6.575   9.829 -4.9653  0.3338  0.9973
  811MOL0     H 9456   9.465   6.425   9.757 -1.0233 -0.0660  0.7355
  811MOL0     H 9457   9.178   6.493   9.717  2.0708  1.4608 -0.8485
  811MOL0     H 9458   9.248   6.329   9.726  1.7804 -0.4170  0.9442
  811MOL0     H 9459   9.212   6.533   9.967  1.6920  0.3251 -1.0665
  811MOL0     H 9460   9.299   6.385   9.984 -0.5040 -2.0276 -0.3419
  811MOL0     H 9461   9.114   6.238   9.948  2.2437  0.5213 -1.0297
  811MOL0     H 9462   9.079   6.353  10.070  2.4782  1.7535  0.4726
  811MOL0     H 9463   8.976   6.360   9.778 -1.3726 -0.4179  0.5431
  811MOL0     H 9464   8.960   6.506   9.880 -0.8396  0.2677  0.3194
  811MOL0     H 9465   8.762   6.379   9.854  0.1095  0.0698 -0.4871
  811MOL0     H 9466   8.810   6.415  10.010  3.5981  4.2363 -1.6785
  811MOL0     H 9467   9.756   6.785   9.555 -1.8643 -1.0842  2.9360
  811MOL0     H 9468  10.004   6.804   9.515 -1.9025  0.9491 -1.2368
  811MOL0     H 9469  10.325   6.444   9.573 -2.1261  2.5823  1.3929
  811MOL0     H 9470  10.549   6.334   9.591  1.9388  0.0702  0.1304
  811MOL0     H 9471  11.104   6.229  10.465 -1.4410 -0.4112  0.0147
  811MOL0     H 9472  10.905   6.118  10.594  0.7277  3.9720  0.3887
  811MOL0     H 9473  10.720   5.926  10.961  3.1383  0.8030  0.1827
  811MOL0     H 9474  10.530   5.773  11.027  0.2657 -0.3935  0.4917
  811MOL0     H 9475  10.349   5.637  10.970  0.9398  1.3052  1.1622
  811MOL0     H 9476  10.306   5.468  10.985 -0.2742  0.4927 -0.6337
  811MOL0     H 9477  10.514   5.582  11.173  0.7401 -1.7092  1.5558
  811MOL0     H 9478  10.416   5.439  11.184  3.0489 -0.2171 -0.5199
  811MOL0     H 9479  10.217   5.571  11.213  1.1006 -2.1892 -0.5349
  811MOL0     H 9480  10.311   5.732  11.199  4.9888  0.1809  1.5366
  811MOL0     H 9481  10.312   5.545  11.438  1.4188 -0.1815  1.1605
  811MOL0     H 9482  10.238   5.707  11.434  1.5841  1.1655  1.1842
  811MOL0     H 9483  10.624   5.832  11.478 -1.0713  1.3399  0.0957
  811MOL0     H 9484  10.716   5.448  10.808  2.5946  0.7411  1.3742
  811MOL0     H 9485  10.889   5.594  10.725  1.2179  2.5676  1.4987
  812MOL0     O 9486   3.497   0.329   1.344 -0.3639 -0.2231 -0.1452
  812MOL0     C 9487   3.553   0.333   1.456  0.3311 -0.2541 -0.3686
  812MOL0     O 9488   3.684   0.342   1.474 -1.2967 -0.0080  0.1316
  812MOL0     C 9489   3.764   0.378   1.362  0.2096 -0.4529  0.4733
  812MOL0     C 9490   3.868   0.289   1.320  0.2470  0.0376 -0.0693
  812MOL0     C 9491   3.938   0.315   1.205 -0.4492 -0.2253 -0.7027
  812MOL0     C 9492   3.923   0.440   1.138  0.3723  0.2585 -0.8455
  812MOL0     O 9493   4.007   0.444   1.037 -0.5863 -0.0624 -0.7510
  812MOL0     C 9494   3.998   0.543   0.937 -0.4323 -0.2662  0.3732
  812MOL0     C 9495   4.127   0.529   0.841  0.0645 -0.0564  0.3116
  812MOL0     C 9496   4.217   0.651   0.862  0.3188 -0.4141  0.4678
  812MOL0     C 9497   4.348   0.634   0.791 -0.2226 -0.1951 -0.2298
  812MOL0     C 9498   4.420   0.766   0.775 -0.0525 -0.6551  0.4299
  812MOL0     C 9499   4.430   0.850   0.897  1.3500 -0.8354 -0.0713
  812MOL0     C 9500   4.535   0.799   0.994 -0.0194 -0.6694  0.6171
  812MOL0     C 9501   4.527   0.894   1.123  0.4377 -0.1658  0.7832
  812MOL0     N 9502   4.397   0.872   1.193 -0.9452 -0.1042  0.0850
  812MOL0     C 9503   4.338   0.754   1.225  0.5160  0.0728 -0.3887
  812MOL0     C 9504   4.224   0.793   1.288 -0.9159  0.1202  0.5350
  812MOL0     C 9505   4.132   0.693   1.350 -0.5826 -0.9605  0.5191
  812MOL0     C 9506   4.165   0.665   1.495 -0.2079  0.4141  0.8876
  812MOL0     C 9507   4.077   0.733   1.597  0.7215  0.3204 -0.7142
  812MOL0     C 9508   3.942   0.658   1.614 -0.7683 -0.7560  0.7448
  812MOL0     O 9509   3.977   0.527   1.648 -0.0802 -0.5295 -0.4390
  812MOL0     C 9510   3.899   0.451   1.736 -0.4977  1.2573 -0.0261
  812MOL0     C 9511   3.866   0.321   1.710  1.0797  0.8405 -0.1951
  812MOL0     C 9512   3.780   0.236   1.793 -1.0005 -0.2086  0.2218
  812MOL0     C 9513   3.773   0.102   1.739  0.2336  0.3374  0.3034
  812MOL0     C 9514   3.732   0.291   1.913  1.3581  0.6881  0.6996
  812MOL0     C 9515   3.626   0.226   2.004 -0.3599  0.6580 -0.1468
  812MOL0     O 9516   3.592   0.304   2.107  0.0842  0.3942 -0.9758
  812MOL0     C 9517   3.482   0.311   2.192 -0.2781 -0.2239  0.1524
  812MOL0     C 9518   3.374   0.227   2.192 -0.7384  0.2453 -0.0486
  812MOL0     C 9519   3.266   0.238   2.280 -0.4725 -0.3353 -0.1933
  812MOL0     C 9520   3.252   0.344   2.377  0.3033  0.6231  0.0305
  812MOL0     O 9521   3.150   0.371   2.460  0.3265  0.4780 -0.3629
  812MOL0     C 9522   3.020   0.304   2.446 -0.4451  0.3519 -0.5691
  812MOL0     C 9523   2.911   0.357   2.544  0.6593  0.3050 -0.4061
  812MOL0     C 9524   2.875   0.503   2.510 -1.0842 -0.2786 -0.0417
  812MOL0     C 9525   2.799   0.568   2.627  0.2651 -0.8485  0.1297
  812MOL0     C 9526   2.756   0.708   2.588 -0.5696  0.1082  0.2873
  812MOL0     C 9527   2.649   0.713   2.478  1.1417  0.1167  0.4004
  812MOL0     C 9528   2.624   0.856   2.441  0.4481  0.0091 -0.4729
  812MOL0     C 9529   2.516   0.859   2.334  0.6131  0.8244  1.2597
  812MOL0    Cl 9530   2.355   0.895   2.409  0.1616  0.3655 -0.3962
  812MOL0     C 9531   3.363   0.426   2.366 -1.1232 -0.2833  0.0854
  812MOL0     C 9532   3.474   0.418   2.276  0.5440  0.0592  0.0881
  812MOL0     O 9533   3.600   0.112   1.985  0.7423  0.5196 -0.1139
  812MOL0     C 9534   3.780   0.422   1.947 -0.3848 -1.0711 -0.3466
  812MOL0     C 9535   3.867   0.503   1.859  1.4471  0.2105 -0.3852
  812MOL0     N 9536   4.212   0.925   1.295 -0.5199  0.3917 -0.1540
  812MOL0     N 9537   4.311   0.968   1.223 -0.6345 -0.0859 -0.3822
  812MOL0     C 9538   3.836   0.536   1.185 -0.5011  1.0861 -0.1560
  812MOL0     C 9539   3.758   0.503   1.297 -0.7226 -0.3303 -0.2666
  812MOL0     C 9540   3.467   0.323   1.578  0.0003 -0.6621  0.5471
  812MOL0     C 9541   3.343   0.255   1.571  0.9129  0.5426 -0.7983
  812MOL0     C 9542   3.253   0.255   1.678  0.5586  0.2284  0.0106
  812MOL0     C 9543   3.278   0.338   1.791 -0.2392 -0.0500 -0.3818
  812MOL0     O 9544   3.189   0.362   1.894 -0.8641 -1.6492 -0.1575
  812MOL0     C 9545   3.068   0.287   1.893  0.2937 -0.6675  1.1201
  812MOL0     C 9546   2.985   0.313   2.021  0.0686  0.0420  0.6583
  812MOL0     C 9547   2.929   0.450   2.006 -0.1224  0.8338  0.2512
  812MOL0     C 9548   2.821   0.484   2.112 -0.8039  0.0044 -1.0650
  812MOL0     C 9549   2.775   0.622   2.104  0.4160  0.5088 -0.6708
  812MOL0     C 9550   2.754   0.739   2.085 -0.3016  0.8801 -0.1098
  812MOL0     C 9551   3.406   0.397   1.802 -0.1176  1.2162 -0.5649
  812MOL0     C 9552   3.494   0.386   1.698 -0.3206 -0.0039  0.1965
  812MOL0     H 9553   3.875   0.182   1.341  0.1409 -0.0093 -0.2648
  812MOL0     H 9554   4.003   0.235   1.171 -0.0803 -0.1136 -0.2586
  812MOL0     H 9555   3.909   0.517   0.880 -0.4431  1.9538 -0.7183
  812MOL0     H 9556   3.979   0.644   0.974 -1.5228 -0.3719  0.1414
  812MOL0     H 9557   4.186   0.446   0.883  2.6659  1.8709  0.7526
  812MOL0     H 9558   4.099   0.502   0.739 -1.3645  0.5068  0.5335
  812MOL0     H 9559   4.168   0.743   0.828  1.1940 -0.7859 -1.9560
  812MOL0     H 9560   4.242   0.655   0.969  3.3176  4.7629 -0.0616
  812MOL0     H 9561   4.413   0.554   0.827 -1.6164  0.0711  3.2355
  812MOL0     H 9562   4.331   0.602   0.688  1.9517 -2.4945  0.0314
  812MOL0     H 9563   4.521   0.738   0.744  0.0903 -0.7110  0.9304
  812MOL0     H 9564   4.360   0.814   0.697 -3.8628 -0.8459  2.9675
  812MOL0     H 9565   4.446   0.958   0.882  1.0524 -0.9579 -1.3828
  812MOL0     H 9566   4.335   0.859   0.951  1.8462  1.2047  0.5851
  812MOL0     H 9567   4.525   0.695   1.025  0.5592 -0.6916  0.7429
  812MOL0     H 9568   4.635   0.810   0.951  0.3958  0.9957  1.8959
  812MOL0     H 9569   4.531   0.998   1.090 -0.7012 -0.4842 -0.4318
  812MOL0     H 9570   4.612   0.891   1.191 -0.2992  0.4763  1.7742
  812MOL0     H 9571   4.372   0.654   1.201  0.3692  0.0328 -0.4300
  812MOL0     H 9572   4.030   0.731   1.340 -1.3251 -2.5348  1.6750
  812MOL0     H 9573   4.146   0.602   1.290  4.1643  0.1971 -0.5490
  812MOL0     H 9574   4.266   0.698   1.521  0.3441  1.5427 -2.2418
  812MOL0     H 9575   4.154   0.557   1.511  0.9192  0.0968 -0.2738
  812MOL0     H 9576   4.057   0.835   1.562  1.8081  1.1633  0.9464
  812MOL0     H 9577   4.128   0.744   1.693 -1.3995 -1.7047  0.7532
  812MOL0     H 9578   3.886   0.666   1.520  2.4084  0.5824 -1.2343
  812MOL0     H 9579   3.883   0.701   1.695  1.3064  2.9529  0.4866
  812MOL0     H 9580   3.913   0.284   1.619  1.3433 -1.3188  0.7367
  812MOL0     H 9581   3.811   0.024   1.806  3.4267  0.9377 -0.6282
  812MOL0     H 9582   3.669   0.086   1.711  0.3192 -0.7937  0.5715
  812MOL0     H 9583   3.836   0.097   1.649 -0.8156  3.1497 -0.6938
  812MOL0     H 9584   3.378   0.140   2.127  0.5429 -0.1440  0.5101
  812MOL0     H 9585   3.192   0.159   2.274 -2.1392  1.0182  1.3520
  812MOL0     H 9586   2.977   0.310   2.345 -2.9504  3.2707  0.5148
  812MOL0     H 9587   3.031   0.197   2.466  0.2509  0.6228  0.5711
  812MOL0     H 9588   2.825   0.293   2.524  1.8271 -0.9504 -1.6905
  812MOL0     H 9589   2.930   0.344   2.651  0.2445 -0.9637 -0.4707
  812MOL0     H 9590   2.821   0.528   2.419 -3.2048  2.8519  1.8754
  812MOL0     H 9591   2.971   0.553   2.499 -1.6848  1.0765  0.6280
  812MOL0     H 9592   2.711   0.520   2.669 -0.4150  2.5140  3.0902
  812MOL0     H 9593   2.863   0.576   2.715 -0.6231 -2.3474  0.9411
  812MOL0     H 9594   2.845   0.757   2.548  0.7756 -0.2698  2.6735
  812MOL0     H 9595   2.721   0.763   2.676  1.2713  2.5790 -0.4099
  812MOL0     H 9596   2.680   0.652   2.392  2.6396  0.7380  0.4701
  812MOL0     H 9597   2.558   0.667   2.517  0.2658  1.3784 -0.1239
  812MOL0     H 9598   2.719   0.896   2.404 -0.0405  1.3921 -0.2948
  812MOL0     H 9599   2.592   0.916   2.527 -2.0768  0.8786 -1.9365
  812MOL0     H 9600   2.517   0.767   2.275  3.8749  2.4323 -1.5096
  812MOL0     H 9601   2.541   0.940   2.266  4.8254 -0.2408  1.2995
  812MOL0     H 9602   3.376   0.500   2.443  0.4217 -0.6128  0.1786
  812MOL0     H 9603   3.548   0.495   2.259 -0.1416  0.5480 -0.7140
  812MOL0     H 9604   3.743   0.477   2.033  3.5384  1.7073 -0.1365
  812MOL0     H 9605   3.890   0.606   1.885  0.7328  0.3688 -0.3685
  812MOL0     H 9606   3.849   0.634   1.139  1.9562  0.9443  0.0906
  812MOL0     H 9607   3.697   0.582   1.340 -0.2276 -0.3065  0.4131
  812MOL0     H 9608   3.306   0.195   1.488  1.0016  2.4965 -2.3418
  812MOL0     H 9609   3.162   0.195   1.679  0.8282 -0.2036  1.6557
  812MOL0     H 9610   3.017   0.311   1.799 -2.3679 -0.6875  2.4511
  812MOL0     H 9611   3.099   0.182   1.899  2.2387 -0.0683  3.0714
  812MOL0     H 9612   3.054   0.304   2.105  1.6604 -4.3162 -0.8004
  812MOL0     H 9613   2.913   0.231   2.026  0.1702 -0.1093 -0.1502
  812MOL0     H 9614   2.890   0.475   1.907 -0.2722  0.4747  0.2191
  812MOL0     H 9615   3.008   0.525   2.021 -0.1449  1.0317 -0.5764
  812MOL0     H 9616   2.863   0.460   2.210 -1.1462  0.8850 -0.6833
  812MOL0     H 9617   2.732   0.421   2.102 -1.1008  0.2728 -0.2363
  812MOL0     H 9618   2.731   0.844   2.079 -0.3045  0.7901 -3.6364
  812MOL0     H 9619   3.429   0.443   1.897 -0.3579  0.9439 -0.3740
  812MOL0     H 9620   3.586   0.443   1.713 -0.8603  0.8267  0.4493
  813MOL0     O 9621  10.945   3.131   4.741  0.1788 -0.7834  0.5920
  813MOL0     C 9622  11.028   3.107   4.828 -0.0692 -0.1208  1.4623
  813MOL0     O 9623  11.017   3.022   4.934  0.9129 -0.3829 -0.5890
  813MOL0     C 9624  10.902   2.944   4.952  0.1281 -0.1267 -0.3175
  813MOL0     C 9625  10.833   2.876   4.847 -1.0218 -0.6039 -0.5811
  813MOL0     C 9626  10.701   2.849   4.849  0.1091  0.0857 -0.4978
  813MOL0     C 9627  10.637   2.843   4.972  0.8745 -0.5245 -0.2753
  813MOL0     O 9628  10.503   2.803   4.973  0.5194 -0.5830 -0.0763
  813MOL0     C 9629  10.485   2.665   5.003 -0.1420 -0.3511 -0.5127
  813MOL0     C 9630  10.570   2.565   4.919  0.0666 -0.7355 -0.4603
  813MOL0     C 9631  10.533   2.422   4.931 -0.1864  0.4954  0.1421
  813MOL0     C 9632  10.654   2.330   4.942  0.6063  0.1546  0.1845
  813MOL0     C 9633  10.727   2.327   5.081 -0.3777  0.0244  0.1148
  813MOL0     C 9634  10.838   2.218   5.081 -0.3039 -0.1270  0.2782
  813MOL0     C 9635  10.848   2.139   5.211 -0.0773 -0.5333  0.3798
  813MOL0     C 9636  10.903   2.210   5.335  0.1902  0.4029 -0.0805
  813MOL0     N 9637  11.046   2.201   5.346  0.0923 -0.2351 -0.9975
  813MOL0     C 9638  11.133   2.236   5.241  0.5569 -0.1736 -0.4339
  813MOL0     C 9639  11.252   2.181   5.271  0.6099  0.4310 -0.5064
  813MOL0     C 9640  11.391   2.190   5.212 -0.1388  0.4702  0.1375
  813MOL0     C 9641  11.481   2.069   5.236  0.6303  0.0418  0.4885
  813MOL0     C 9642  11.587   2.102   5.344 -0.9328  0.0976  0.3465
  813MOL0     C 9643  11.716   2.125   5.267 -0.0079  0.2780 -0.5307
  813MOL0     O 9644  11.824   2.168   5.359 -0.5595 -0.4571  0.8432
  813MOL0     C 9645  11.867   2.300   5.360 -0.1155  0.0657  0.1644
  813MOL0     C 9646  11.991   2.319   5.422  0.3079 -0.4089  0.7768
  813MOL0     C 9647  12.044   2.449   5.445  0.6105 -0.2123 -0.5152
  813MOL0     C 9648  12.182   2.453   5.511  1.2165  0.0147  0.1261
  813MOL0     C 9649  11.979   2.559   5.386 -0.3950 -0.1382 -0.0335
  813MOL0     C 9650  12.019   2.700   5.411  1.2736 -0.4161 -0.0753
  813MOL0     O 9651  11.926   2.795   5.381 -0.0189 -0.5380  0.6559
  813MOL0     C 9652  11.962   2.933   5.389 -0.1807  0.6688  0.7541
  813MOL0     C 9653  12.080   2.998   5.354  0.2633 -0.8114  0.3254
  813MOL0     C 9654  12.099   3.131   5.374 -0.9765  0.2328 -0.3388
  813MOL0     C 9655  11.994   3.212   5.416 -0.7295 -0.6886 -0.5257
  813MOL0     O 9656  12.001   3.346   5.414  0.9729 -0.0797  0.2929
  813MOL0     C 9657  12.108   3.411   5.351  0.2417 -0.2038 -0.0294
  813MOL0     C 9658  12.066   3.556   5.331 -0.1765 -0.0923  0.1619
  813MOL0     C 9659  12.175   3.631   5.251  0.7199 -0.8135  0.0643
  813MOL0     C 9660  12.310   3.647   5.320  0.2260  0.0896  0.7558
  813MOL0     C 9661  12.418   3.683   5.217 -0.0070  0.5812 -0.3050
  813MOL0     C 9662  12.558   3.703   5.274 -0.4277 -0.2340  0.2382
  813MOL0     C 9663  12.656   3.738   5.165 -0.9754  0.6097  0.1387
  813MOL0     C 9664  12.660   3.633   5.052  0.1961  0.1675  0.9004
  813MOL0    Cl 9665  12.784   3.663   4.933 -0.1825  0.1350  0.2935
  813MOL0     C 9666  11.869   3.155   5.414  0.0713  0.4408 -0.3373
  813MOL0     C 9667  11.854   3.019   5.414  0.2986 -0.9085  0.4023
  813MOL0     O 9668  12.127   2.725   5.457 -0.8117  0.3968 -0.3041
  813MOL0     C 9669  11.853   2.534   5.324  1.0580 -0.2423 -0.1855
  813MOL0     C 9670  11.806   2.410   5.309 -0.8257 -0.2442  0.0989
  813MOL0     N 9671  11.243   2.115   5.392 -0.0182 -0.1439 -0.8619
  813MOL0     N 9672  11.121   2.117   5.422  1.0839  0.3150  0.4341
  813MOL0     C 9673  10.699   2.891   5.090 -0.2932  0.0220  0.3868
  813MOL0     C 9674  10.836   2.952   5.077 -1.2856  0.0124  0.0290
  813MOL0     C 9675  11.150   3.185   4.825  0.4171  0.3314  0.0957
  813MOL0     C 9676  11.265   3.119   4.870  0.0531 -0.1886  0.5320
  813MOL0     C 9677  11.382   3.199   4.873  0.1859  0.5465  0.3181
  813MOL0     C 9678  11.388   3.331   4.841  0.0611 -0.1142  0.4519
  813MOL0     O 9679  11.505   3.398   4.851 -0.6097 -0.0452 -0.6688
  813MOL0     C 9680  11.614   3.368   4.768 -0.2716 -0.7909  0.4503
  813MOL0     C 9681  11.725   3.477   4.787  0.3873 -0.3506 -0.1520
  813MOL0     C 9682  11.664   3.620   4.758 -0.4267 -0.3800  0.6332
  813MOL0     C 9683  11.768   3.734   4.776  1.1537  0.1946 -0.1734
  813MOL0     C 9684  11.833   3.734   4.911  0.6579 -0.1615 -0.2622
  813MOL0     C 9685  11.900   3.729   5.017 -0.0229 -0.9270  0.8534
  813MOL0     C 9686  11.273   3.393   4.797  0.4074 -0.9055 -0.1090
  813MOL0     C 9687  11.152   3.331   4.797  1.0351  0.3663 -0.0479
  813MOL0     H 9688  10.878   2.864   4.749 -0.4264 -1.4526 -0.2159
  813MOL0     H 9689  10.644   2.837   4.757  0.3179 -1.9473 -0.4154
  813MOL0     H 9690  10.498   2.647   5.110 -2.4090  2.5477  0.3812
  813MOL0     H 9691  10.381   2.642   4.980 -1.1090 -0.7455  3.5958
  813MOL0     H 9692  10.562   2.599   4.816 -0.0954  1.2530  0.1549
  813MOL0     H 9693  10.671   2.579   4.959 -0.6286  0.1010  1.1291
  813MOL0     H 9694  10.471   2.405   5.020  0.8172 -2.1644  0.4217
  813MOL0     H 9695  10.472   2.404   4.842  0.3531 -0.3754 -0.0685
  813MOL0     H 9696  10.612   2.232   4.919 -2.1002  0.2749  3.7441
  813MOL0     H 9697  10.719   2.345   4.856 -1.1083 -0.0634 -1.1918
  813MOL0     H 9698  10.769   2.427   5.097 -1.6771  0.2885  2.2450
  813MOL0     H 9699  10.659   2.313   5.165 -0.2482 -1.3490  0.0116
  813MOL0     H 9700  10.818   2.150   4.999 -1.1180 -1.7774  1.7815
  813MOL0     H 9701  10.928   2.268   5.043 -1.2429  0.6213 -1.0522
  813MOL0     H 9702  10.748   2.102   5.234  0.0679 -1.7082 -0.7548
  813MOL0     H 9703  10.903   2.045   5.201 -0.0447 -0.4329 -0.4360
  813MOL0     H 9704  10.856   2.178   5.428  0.0949  0.9669  0.0721
  813MOL0     H 9705  10.878   2.317   5.328 -1.9922 -0.1250 -1.0978
  813MOL0     H 9706  11.122   2.302   5.156  0.2063  1.9028  1.1557
  813MOL0     H 9707  11.381   2.178   5.104 -1.5062 -0.9435  0.3991
  813MOL0     H 9708  11.432   2.284   5.250 -2.0886  0.2429  3.1335
  813MOL0     H 9709  11.529   2.026   5.147 -1.5304 -2.6093  0.4860
  813MOL0     H 9710  11.415   1.986   5.262 -2.6906  1.8423 -1.3816
  813MOL0     H 9711  11.603   2.020   5.414 -0.8086  1.2325  1.6789
  813MOL0     H 9712  11.561   2.196   5.392  0.7463  2.5959 -3.2353
  813MOL0     H 9713  11.701   2.195   5.184 -3.3687  0.6466  0.2342
  813MOL0     H 9714  11.748   2.026   5.233  0.4554  0.2761 -0.0901
  813MOL0     H 9715  12.048   2.232   5.451  1.3093  0.3659  1.1989
  813MOL0     H 9716  12.226   2.357   5.540  1.4731  0.2946  0.6926
  813MOL0     H 9717  12.260   2.500   5.451 -0.8745  1.6757 -1.4668
  813MOL0     H 9718  12.160   2.509   5.602 -1.5058 -1.9153  0.7951
  813MOL0     H 9719  12.165   2.945   5.313 -0.6598 -1.4917 -0.7798
  813MOL0     H 9720  12.198   3.171   5.354 -1.8553  2.4734 -0.4977
  813MOL0     H 9721  12.200   3.408   5.411  0.8693 -1.7185 -1.0066
  813MOL0     H 9722  12.143   3.373   5.255 -1.5265  3.6237 -2.4454
  813MOL0     H 9723  11.983   3.558   5.260  0.5789  0.0322 -0.7489
  813MOL0     H 9724  12.045   3.613   5.422  2.4759  0.5860  0.4305
  813MOL0     H 9725  12.136   3.733   5.237  0.0332 -0.8518  1.5233
  813MOL0     H 9726  12.177   3.587   5.151 -1.4189  0.1509 -0.4646
  813MOL0     H 9727  12.295   3.727   5.393 -3.2133  1.3775 -1.1250
  813MOL0     H 9728  12.335   3.550   5.363 -0.6631 -0.2447  0.5376
  813MOL0     H 9729  12.397   3.780   5.172 -2.6662  0.5759  0.7395
  813MOL0     H 9730  12.414   3.610   5.136  1.4572  1.8985 -1.6381
  813MOL0     H 9731  12.562   3.783   5.348 -1.0878  0.1305 -0.1112
  813MOL0     H 9732  12.592   3.613   5.327  1.0825 -0.0345 -0.3270
  813MOL0     H 9733  12.761   3.739   5.198  0.3179  3.5931 -3.3468
  813MOL0     H 9734  12.632   3.832   5.113 -1.2671 -1.4213 -3.7295
  813MOL0     H 9735  12.562   3.641   5.003  0.9427  3.3053 -0.2980
  813MOL0     H 9736  12.672   3.539   5.107 -1.4025 -0.1764  0.7162
  813MOL0     H 9737  11.780   3.218   5.419  0.3983  1.2176 -2.8771
  813MOL0     H 9738  11.755   2.974   5.411 -0.5549  0.9073 -1.4408
  813MOL0     H 9739  11.792   2.617   5.288  0.9161  0.5076  1.6742
  813MOL0     H 9740  11.708   2.400   5.262 -1.3737  0.2562  1.0942
  813MOL0     H 9741  10.645   2.894   5.184 -0.2240 -0.8986  0.4597
  813MOL0     H 9742  10.904   2.982   5.156 -0.5978 -1.1065 -0.1038
  813MOL0     H 9743  11.268   3.016   4.904  1.9468  0.6871  3.3079
  813MOL0     H 9744  11.471   3.149   4.911  0.2258  1.2611  1.2039
  813MOL0     H 9745  11.657   3.272   4.798  1.8994 -0.2909 -0.8118
  813MOL0     H 9746  11.578   3.363   4.665  0.3953 -3.7298  0.2858
  813MOL0     H 9747  11.820   3.458   4.736 -0.1960 -0.3365 -1.2684
  813MOL0     H 9748  11.738   3.464   4.895  0.9619 -0.5640 -0.2431
  813MOL0     H 9749  11.579   3.638   4.824  0.6988  0.6900  1.8490
  813MOL0     H 9750  11.632   3.610   4.654 -1.3194 -0.8118  0.9355
  813MOL0     H 9751  11.714   3.829   4.762  0.7871  0.2896  1.5811
  813MOL0     H 9752  11.835   3.721   4.691 -3.8020 -0.5269 -4.4589
  813MOL0     H 9753  11.971   3.706   5.094  2.1553 -0.5383 -0.9306
  813MOL0     H 9754  11.282   3.497   4.767  0.7595 -1.1197 -0.7749
  813MOL0     H 9755  11.062   3.376   4.758  2.7219  3.0876 -1.0421
  814MOL0     O 9756   7.623   4.527   3.491  0.1347  0.5985  0.6604
  814MOL0     C 9757   7.622   4.404   3.481 -0.4342 -0.9561  0.1413
  814MOL0     O 9758   7.517   4.330   3.454 -0.0733  0.4770  0.2730
  814MOL0     C 9759   7.396   4.391   3.453  0.5772 -0.1274  0.9376
  814MOL0     C 9760   7.319   4.387   3.328 -0.2563 -0.9268 -0.0188
  814MOL0     C 9761   7.182   4.420   3.332  0.7900 -1.3245 -0.2307
  814MOL0     C 9762   7.117   4.471   3.450 -0.1247 -0.0959 -0.1401
  814MOL0     O 9763   6.996   4.518   3.441 -0.1187 -0.3444 -0.6890
  814MOL0     C 9764   6.979   4.634   3.354  0.4323  0.0827  0.2767
  814MOL0     C 9765   6.831   4.646   3.301 -0.1358 -0.0709 -0.2988
  814MOL0     C 9766   6.782   4.523   3.228 -0.5253  0.3662  0.2436
  814MOL0     C 9767   6.647   4.545   3.162  0.2331 -0.1381 -0.6097
  814MOL0     C 9768   6.577   4.428   3.100  1.4125 -0.6060 -1.3339
  814MOL0     C 9769   6.523   4.338   3.213  0.0958 -0.2412 -0.4443
  814MOL0     C 9770   6.434   4.240   3.147  0.2941  0.1969  0.6273
  814MOL0     C 9771   6.289   4.300   3.115  0.1382 -0.6774  0.5556
  814MOL0     N 9772   6.209   4.184   3.067 -0.1958 -0.3917  0.1599
  814MOL0     C 9773   6.151   4.092   3.154  0.1950 -0.2823  0.8909
  814MOL0     C 9774   6.112   4.002   3.075 -0.0462 -0.0797  0.2896
  814MOL0     C 9775   6.046   3.872   3.124 -0.7725 -0.2498  0.2146
  814MOL0     C 9776   5.914   3.882   3.198 -0.0758 -0.1333  0.8969
  814MOL0     C 9777   5.794   3.907   3.112  0.1524  0.6937 -0.1772
  814MOL0     C 9778   5.662   3.848   3.173 -0.1773  0.3576 -0.0191
  814MOL0     O 9779   5.668   3.710   3.183 -1.0301  0.5842 -0.0533
  814MOL0     C 9780   5.547   3.654   3.209  0.4858  0.0423 -1.2212
  814MOL0     C 9781   5.449   3.643   3.117 -0.4200  0.1793  0.6351
  814MOL0     C 9782   5.339   3.564   3.141 -0.3042 -0.1130  0.1273
  814MOL0     C 9783   5.234   3.526   3.035  0.5816  0.3318  0.5273
  814MOL0     C 9784   5.317   3.522   3.272 -0.3946  1.4767  0.1574
  814MOL0     C 9785   5.196   3.460   3.315 -0.0437 -1.1731 -0.2495
  814MOL0     O 9786   5.163   3.336   3.270 -0.1732  0.8549  1.0484
  814MOL0     C 9787   5.041   3.280   3.300  0.1333  0.3656  0.0250
  814MOL0     C 9788   4.981   3.296   3.424  0.3012  0.0317  0.4825
  814MOL0     C 9789   4.851   3.242   3.443 -0.2779 -0.1817  0.2338
  814MOL0     C 9790   4.787   3.167   3.335 -0.2177  0.3819  1.1824
  814MOL0     O 9791   4.659   3.125   3.334 -0.4896  0.1969  0.3292
  814MOL0     C 9792   4.544   3.170   3.417 -0.6463 -0.7803 -0.1068
  814MOL0     C 9793   4.412   3.113   3.369 -1.4331  0.0481 -0.1986
  814MOL0     C 9794   4.304   3.207   3.401 -0.3043 -0.3778  0.7238
  814MOL0     C 9795   4.290   3.309   3.286  0.0165  0.3376  0.2306
  814MOL0     C 9796   4.211   3.428   3.331 -0.8691  0.4555 -0.1563
  814MOL0     C 9797   4.236   3.558   3.229  0.0122 -0.4430 -0.8421
  814MOL0     C 9798   4.142   3.670   3.278 -0.5653 -1.3503 -0.0794
  814MOL0     C 9799   4.146   3.779   3.172 -0.0216  0.1798  0.9521
  814MOL0    Cl 9800   4.296   3.886   3.187 -0.1950 -0.3803  0.3105
  814MOL0     C 9801   4.857   3.135   3.219 -0.3035 -0.0904 -0.2281
  814MOL0     C 9802   4.987   3.188   3.217 -0.2870  0.1860  0.2459
  814MOL0     O 9803   5.121   3.539   3.368 -0.3896 -0.0703  0.4365
  814MOL0     C 9804   5.399   3.572   3.376  0.2956  0.4576 -0.0785
  814MOL0     C 9805   5.516   3.640   3.345 -0.3454  0.1977  0.0570
  814MOL0     N 9806   6.140   4.028   2.944 -0.0387  0.3639  0.5297
  814MOL0     N 9807   6.200   4.142   2.938 -0.0671 -1.1668  0.6621
  814MOL0     C 9808   7.181   4.455   3.572  0.0530 -0.1725  0.6512
  814MOL0     C 9809   7.322   4.417   3.578 -0.4080  0.0275  0.6277
  814MOL0     C 9810   7.748   4.329   3.481 -0.3387 -0.4969 -0.6519
  814MOL0     C 9811   7.743   4.189   3.472 -0.4381 -0.9078  1.4906
  814MOL0     C 9812   7.870   4.119   3.492 -0.2887  0.0472  0.2128
  814MOL0     C 9813   7.999   4.182   3.504 -1.3143 -0.6858 -0.3791
  814MOL0     O 9814   8.104   4.107   3.547  0.3818  0.1723 -0.6012
  814MOL0     C 9815   8.182   4.148   3.663 -0.7210  0.1124  0.6541
  814MOL0     C 9816   8.195   4.029   3.761 -0.7886  0.1312 -0.7041
  814MOL0     C 9817   8.083   4.022   3.867  0.9042 -0.2034 -0.2048
  814MOL0     C 9818   7.942   3.971   3.813  0.6773  0.0421 -0.4242
  814MOL0     C 9819   7.829   3.988   3.908  0.5950  0.7254  1.0336
  814MOL0     C 9820   7.740   3.988   3.993  0.4117 -0.5849  0.6621
  814MOL0     C 9821   8.005   4.326   3.505  0.8207  0.3562 -0.5446
  814MOL0     C 9822   7.878   4.394   3.502 -0.2812 -0.2243  0.1976
  814MOL0     H 9823   7.360   4.339   3.239  0.5042  2.4183 -1.6296
  814MOL0     H 9824   7.126   4.417   3.239  1.4352  0.3739 -0.7049
  814MOL0     H 9825   7.014   4.730   3.393  0.7717 -0.6785  1.9278
  814MOL0     H 9826   7.040   4.614   3.265 -2.8012  1.7377 -2.5430
  814MOL0     H 9827   6.767   4.667   3.387  1.0592  0.0312  0.5904
  814MOL0     H 9828   6.842   4.733   3.235  0.7283  0.7597  0.8935
  814MOL0     H 9829   6.854   4.498   3.149  0.1182  0.2076  0.8717
  814MOL0     H 9830   6.780   4.439   3.298  0.7072 -2.7990 -3.1420
  814MOL0     H 9831   6.582   4.573   3.245 -0.2463  0.2915 -1.1244
  814MOL0     H 9832   6.669   4.621   3.086  1.3421  1.6762  1.4036
  814MOL0     H 9833   6.491   4.457   3.038  0.0650 -1.6159 -0.0191
  814MOL0     H 9834   6.642   4.382   3.026  0.2704 -0.5052 -2.4303
  814MOL0     H 9835   6.613   4.294   3.256  0.1860  1.6679  1.4588
  814MOL0     H 9836   6.477   4.387   3.299  3.0766 -1.9972  2.3582
  814MOL0     H 9837   6.472   4.197   3.054 -2.0439  0.5747 -0.5669
  814MOL0     H 9838   6.431   4.155   3.216 -4.7695  0.4338  1.0646
  814MOL0     H 9839   6.292   4.375   3.035  0.7532 -1.0961  0.1708
  814MOL0     H 9840   6.263   4.353   3.208  4.8457  1.0372  1.2048
  814MOL0     H 9841   6.140   4.110   3.261 -0.1987 -0.3874  0.8704
  814MOL0     H 9842   6.038   3.805   3.038 -1.3871  0.7431 -0.5260
  814MOL0     H 9843   6.112   3.826   3.198 -1.6334 -0.1951  1.0308
  814MOL0     H 9844   5.930   3.964   3.269  1.3239  0.8761 -0.5077
  814MOL0     H 9845   5.914   3.785   3.249  1.3887  0.4684  2.1281
  814MOL0     H 9846   5.807   3.850   3.020 -2.6391 -2.3967  1.1166
  814MOL0     H 9847   5.780   4.013   3.088  0.0321  0.8710  0.6437
  814MOL0     H 9848   5.580   3.874   3.105  0.7572 -0.7243 -1.6390
  814MOL0     H 9849   5.636   3.883   3.273 -1.4396  2.9181 -1.1623
  814MOL0     H 9850   5.466   3.672   3.014  6.5572 -0.8344  1.0758
  814MOL0     H 9851   5.149   3.595   3.041 -0.3434 -0.5680 -1.3591
  814MOL0     H 9852   5.276   3.540   2.935  1.0712 -0.0934  0.6702
  814MOL0     H 9853   5.199   3.423   3.051 -3.1357  1.7369  2.7308
  814MOL0     H 9854   5.033   3.338   3.509 -0.2584  2.4679 -0.3131
  814MOL0     H 9855   4.796   3.261   3.534 -0.3185  0.7381  0.0206
  814MOL0     H 9856   4.551   3.164   3.526  0.6766  1.7685  0.0237
  814MOL0     H 9857   4.542   3.277   3.393  0.5139 -1.4245 -3.6780
  814MOL0     H 9858   4.424   3.093   3.262  3.0679 -2.6508  0.5751
  814MOL0     H 9859   4.410   3.015   3.417  0.4347 -0.7174 -1.5837
  814MOL0     H 9860   4.312   3.261   3.496 -0.1263  0.3374  0.3109
  814MOL0     H 9861   4.207   3.157   3.407 -0.8941  0.2985 -2.0165
  814MOL0     H 9862   4.386   3.346   3.248  1.5760 -2.5042  1.0611
  814MOL0     H 9863   4.233   3.261   3.205 -0.4414 -0.1218  0.8174
  814MOL0     H 9864   4.238   3.468   3.429  0.9494  1.4503 -1.0110
  814MOL0     H 9865   4.105   3.401   3.331 -0.8150  0.2135  1.2387
  814MOL0     H 9866   4.338   3.595   3.238 -0.0019 -0.8634  1.9336
  814MOL0     H 9867   4.211   3.512   3.133  1.4124 -0.7513 -1.0707
  814MOL0     H 9868   4.159   3.709   3.379  2.5988  1.9000 -1.6031
  814MOL0     H 9869   4.044   3.622   3.275  0.0480 -2.6240 -0.7624
  814MOL0     H 9870   4.061   3.848   3.180 -0.3013 -0.2462  1.8690
  814MOL0     H 9871   4.140   3.739   3.071 -0.6167 -2.5636  2.0000
  814MOL0     H 9872   4.819   3.075   3.136  0.0688 -1.4762  0.5779
  814MOL0     H 9873   5.049   3.163   3.132  1.8417  1.4490  1.3239
  814MOL0     H 9874   5.380   3.543   3.479 -1.7652  0.2606 -0.4754
  814MOL0     H 9875   5.586   3.661   3.425 -0.8310 -1.9498  1.0970
  814MOL0     H 9876   7.127   4.475   3.664  0.6562  3.6729  0.3458
  814MOL0     H 9877   7.377   4.389   3.668 -2.5508  1.1453  2.3867
  814MOL0     H 9878   7.656   4.128   3.447 -1.7876  0.4618  2.5849
  814MOL0     H 9879   7.871   4.011   3.489  3.8613 -0.1046  1.6391
  814MOL0     H 9880   8.277   4.184   3.623  2.3001 -3.0466  4.1748
  814MOL0     H 9881   8.130   4.228   3.716 -2.2458  0.2337 -0.9514
  814MOL0     H 9882   8.286   4.050   3.818 -0.8738 -2.4523  0.4910
  814MOL0     H 9883   8.210   3.938   3.703  2.0028  1.1603 -1.7573
  814MOL0     H 9884   8.056   4.122   3.904 -3.3946 -0.7420 -1.3958
  814MOL0     H 9885   8.112   3.960   3.952 -2.6143  1.0341  2.1298
  814MOL0     H 9886   7.954   3.874   3.763  1.0668  0.9053 -2.0450
  814MOL0     H 9887   7.908   4.031   3.729  0.6858  2.7880  1.4075
  814MOL0     H 9888   7.681   4.006   4.081 -4.7785 -2.0646 -2.1223
  814MOL0     H 9889   8.097   4.377   3.531  0.4692 -0.1497  1.8989
  814MOL0     H 9890   7.898   4.500   3.519 -0.2836 -0.5049  2.2556
  815MOL0     O 9891   1.467   3.248   5.139 -0.0419 -0.0681  0.0845
  815MOL0     C 9892   1.478   3.128   5.128 -0.3227  0.4030 -0.4649
  815MOL0     O 9893   1.598   3.070   5.101  0.4530 -0.2809  0.0954
  815MOL0     C 9894   1.706   3.096   5.178  0.0687  0.2997 -0.3156
  815MOL0     C 9895   1.825   3.042   5.125  0.2058 -0.1099 -0.3193
  815MOL0     C 9896   1.937   3.057   5.197 -1.2165 -0.2009 -0.1366
  815MOL0     C 9897   1.949   3.141   5.313 -0.9049 -0.7498  0.0871
  815MOL0     O 9898   2.074   3.160   5.368 -0.3883 -0.1481 -0.2974
  815MOL0     C 9899   2.087   3.256   5.483 -0.5041  0.4873  0.2043
  815MOL0     C 9900   2.219   3.329   5.475 -0.3390 -0.0469 -0.7892
  815MOL0     C 9901   2.260   3.393   5.610 -0.2031  0.2305 -0.4674
  815MOL0     C 9902   2.322   3.302   5.721  0.0939 -0.4482  0.2433
  815MOL0     C 9903   2.474   3.278   5.686 -0.5152 -0.2266 -0.0561
  815MOL0     C 9904   2.549   3.219   5.797 -1.5603 -0.1504  0.5162
  815MOL0     C 9905   2.522   3.070   5.828  0.3556  0.2852  0.6605
  815MOL0     C 9906   2.554   2.983   5.700  0.4944 -0.3238  0.3066
  815MOL0     N 9907   2.530   2.845   5.730  0.5467  0.3316  0.1333
  815MOL0     C 9908   2.409   2.795   5.752  0.4710 -0.5777 -0.7532
  815MOL0     C 9909   2.433   2.664   5.788 -0.2244  0.4252  0.8179
  815MOL0     C 9910   2.319   2.574   5.830 -0.2377 -0.2590 -0.1099
  815MOL0     C 9911   2.218   2.534   5.725 -0.4089 -1.0895 -0.2998
  815MOL0     C 9912   2.138   2.421   5.783 -1.2495  0.2540 -0.8745
  815MOL0     C 9913   1.992   2.425   5.742 -0.0586 -0.0261 -0.1453
  815MOL0     O 9914   1.925   2.314   5.791  0.2320  0.0623  0.1415
  815MOL0     C 9915   1.785   2.305   5.787  0.0097  0.1165  0.0524
  815MOL0     C 9916   1.702   2.414   5.754  0.1122 -0.1940  0.1484
  815MOL0     C 9917   1.562   2.401   5.755 -0.0947 -0.1866 -0.1398
  815MOL0     C 9918   1.487   2.521   5.726 -0.8484  0.0252  0.9280
  815MOL0     C 9919   1.501   2.277   5.795  0.6239 -0.0181  1.1190
  815MOL0     C 9920   1.360   2.257   5.803  0.4187 -0.0699 -0.1042
  815MOL0     O 9921   1.322   2.166   5.894  0.3392 -0.2204  0.2588
  815MOL0     C 9922   1.190   2.160   5.930  0.2421  0.5345  0.0563
  815MOL0     C 9923   1.116   2.043   5.921  0.1202 -0.1087 -0.7953
  815MOL0     C 9924   0.982   2.047   5.967 -0.3047  0.2078  0.7218
  815MOL0     C 9925   0.927   2.162   6.021  0.2547  1.4143 -0.1219
  815MOL0     O 9926   0.803   2.170   6.070  0.0011 -0.1082 -0.6969
  815MOL0     C 9927   0.767   2.063   6.159  1.4094 -0.1997  0.3668
  815MOL0     C 9928   0.622   2.095   6.211 -1.2586 -0.0490  0.6980
  815MOL0     C 9929   0.611   2.231   6.275 -0.0005 -0.7663  0.6313
  815MOL0     C 9930   0.474   2.242   6.338  0.4941  0.5737  0.2024
  815MOL0     C 9931   0.474   2.388   6.406 -0.8136  1.0743 -0.2153
  815MOL0     C 9932   0.333   2.436   6.444  0.0857 -0.9578  0.9901
  815MOL0     C 9933   0.260   2.345   6.545  0.8525  0.5659  0.1590
  815MOL0     C 9934   0.178   2.245   6.469  0.0684  0.0148  0.0279
  815MOL0    Cl 9935   0.042   2.179   6.577 -0.4695  0.2447  0.0976
  815MOL0     C 9936   1.009   2.273   6.029  1.1232 -0.2096  0.3875
  815MOL0     C 9937   1.139   2.275   5.990  0.4408 -0.8216  0.0056
  815MOL0     O 9938   1.282   2.333   5.744 -0.2161 -0.3069 -0.4539
  815MOL0     C 9939   1.586   2.170   5.823  0.3511  0.1532  0.2409
  815MOL0     C 9940   1.727   2.183   5.822  0.8120  0.2073  0.3280
  815MOL0     N 9941   2.570   2.644   5.790 -0.5032 -0.1717 -0.6017
  815MOL0     N 9942   2.628   2.748   5.747  0.0704  0.0597 -0.8898
  815MOL0     C 9943   1.830   3.194   5.366  0.7651  0.4244  0.0570
  815MOL0     C 9944   1.702   3.157   5.303  0.5705 -0.2869  0.5166
  815MOL0     C 9945   1.362   3.047   5.108 -0.2242 -1.2455 -0.2482
  815MOL0     C 9946   1.378   2.914   5.064  0.8402  0.1384  0.5794
  815MOL0     C 9947   1.258   2.836   5.064  0.1450 -0.1676 -0.9090
  815MOL0     C 9948   1.134   2.893   5.106  0.2080 -0.0174  0.6145
  815MOL0     O 9949   1.020   2.821   5.113 -0.1707 -0.1822  0.1009
  815MOL0     C 9950   1.013   2.710   5.024 -1.0120  0.1119  1.3497
  815MOL0     C 9951   0.874   2.650   5.048  0.5191  0.5718 -0.2070
  815MOL0     C 9952   0.816   2.606   4.917 -0.4688 -0.4750  0.2143
  815MOL0     C 9953   0.689   2.520   4.921  0.1774 -0.2662 -0.0518
  815MOL0     C 9954   0.568   2.594   4.972 -0.0807  0.2135 -0.3553
  815MOL0     C 9955   0.465   2.649   5.000 -0.3232 -0.7996 -0.2884
  815MOL0     C 9956   1.116   3.028   5.138 -0.5347 -0.2770 -0.3514
  815MOL0     C 9957   1.234   3.099   5.137 -0.0608 -0.5731 -0.0592
  815MOL0     H 9958   1.828   2.987   5.032  1.8369 -1.8981  0.7160
  815MOL0     H 9959   2.034   3.019   5.165  0.1121  1.2637  1.8691
  815MOL0     H 9960   2.004   3.327   5.488  0.0036  0.9714  3.1996
  815MOL0     H 9961   2.078   3.198   5.575  0.0818 -0.1679 -0.1352
  815MOL0     H 9962   2.294   3.251   5.456 -0.5062 -0.4874  0.2801
  815MOL0     H 9963   2.207   3.409   5.402 -2.8922  0.0130 -0.3722
  815MOL0     H 9964   2.331   3.472   5.584 -2.0271  1.9315 -0.5553
  815MOL0     H 9965   2.169   3.438   5.652  1.6446  4.3533 -0.3273
  815MOL0     H 9966   2.307   3.351   5.818 -1.6355 -1.2527  0.4177
  815MOL0     H 9967   2.254   3.216   5.721  0.6310 -0.8776  0.9314
  815MOL0     H 9968   2.484   3.216   5.597 -0.1025  0.0602 -0.2099
  815MOL0     H 9969   2.507   3.381   5.668  0.1588 -0.2426  1.0431
  815MOL0     H 9970   2.657   3.233   5.788 -1.5375 -0.0585  0.9262
  815MOL0     H 9971   2.515   3.271   5.887 -0.7887 -0.9984  1.3263
  815MOL0     H 9972   2.586   3.036   5.910  1.9557 -3.1532 -1.7304
  815MOL0     H 9973   2.416   3.056   5.852  0.1595 -0.1359 -0.3655
  815MOL0     H 9974   2.657   2.992   5.662  0.8812  0.3135  1.4591
  815MOL0     H 9975   2.487   3.014   5.620  1.8569  0.1898 -0.6828
  815MOL0     H 9976   2.313   2.845   5.755  0.8845  0.1684  0.8724
  815MOL0     H 9977   2.349   2.490   5.894 -2.3947  0.3887  1.8875
  815MOL0     H 9978   2.273   2.633   5.910 -0.1436  0.2623 -0.4324
  815MOL0     H 9979   2.264   2.494   5.634 -2.4045  1.0924 -2.3933
  815MOL0     H 9980   2.153   2.622   5.716  1.7896  0.8386  1.2420
  815MOL0     H 9981   2.139   2.427   5.892  0.7287  2.9215 -0.9416
  815MOL0     H 9982   2.180   2.323   5.759 -2.3013 -0.4667  0.1138
  815MOL0     H 9983   1.981   2.415   5.634 -1.8875  1.5622 -0.1527
  815MOL0     H 9984   1.948   2.517   5.781  1.7906 -0.1712  2.6023
  815MOL0     H 9985   1.735   2.506   5.708 -3.2588  0.2753 -1.6329
  815MOL0     H 9986   1.470   2.531   5.618 -1.5668 -2.2150  0.7696
  815MOL0     H 9987   1.395   2.532   5.783 -0.4675  1.1951  1.3504
  815MOL0     H 9988   1.546   2.610   5.749 -1.9084  1.8014 -2.4628
  815MOL0     H 9989   1.161   1.949   5.891 -0.8262 -1.9527  2.9529
  815MOL0     H 9990   0.920   1.959   5.950 -2.6228  1.5529  1.6678
  815MOL0     H 9991   0.757   1.962   6.117 -2.2115 -0.3449  1.1987
  815MOL0     H 9992   0.835   2.074   6.243  0.9826  0.6636  0.6132
  815MOL0     H 9993   0.554   2.076   6.127  0.7552  1.0112 -1.2952
  815MOL0     H 9994   0.599   2.025   6.292 -2.4198  1.1609  1.4380
  815MOL0     H 9995   0.604   2.306   6.196  0.7276 -2.9329 -1.5902
  815MOL0     H 9996   0.679   2.261   6.356  0.0403 -0.6508  0.5536
  815MOL0     H 9997   0.390   2.228   6.270  0.4788 -0.0850  0.3502
  815MOL0     H 9998   0.455   2.162   6.411 -0.8532  0.7778  0.1015
  815MOL0     H 9999   0.521   2.459   6.337 -2.3454  4.1574  1.7440
  815MOL0     H10000   0.538   2.380   6.494 -1.0574  0.8009 -0.0595
  815MOL0     H10001   0.344   2.541   6.472  0.1000 -0.2681 -1.3474
  815MOL0     H10002   0.281   2.446   6.348  0.2045  1.4065  1.1182
  815MOL0     H10003   0.193   2.417   6.593 -0.5706  0.0710 -1.0197
  815MOL0     H10004   0.333   2.300   6.612  2.6202  3.5071  0.3924
  815MOL0     H10005   0.250   2.166   6.446  2.3293  1.6128  1.2165
  815MOL0     H10006   0.139   2.277   6.372  2.7957  2.9183 -0.2987
  815MOL0     H10007   0.969   2.369   6.061  2.5360  1.6348 -2.8278
  815MOL0     H10008   1.204   2.361   5.976  3.4319 -3.0107 -0.5677
  815MOL0     H10009   1.527   2.082   5.850 -1.1558  0.0349 -2.8675
  815MOL0     H10010   1.799   2.105   5.846  2.5057  1.3793 -0.7284
  815MOL0     H10011   1.814   3.257   5.452 -1.3815  0.0615 -0.0328
  815MOL0     H10012   1.611   3.191   5.350  0.7051  0.5542  0.1879
  815MOL0     H10013   1.478   2.879   5.040  0.1447 -0.3262 -2.0247
  815MOL0     H10014   1.253   2.733   5.030 -0.5148 -0.2917 -0.4524
  815MOL0     H10015   1.024   2.739   4.920 -0.9751  2.7386  2.0305
  815MOL0     H10016   1.092   2.638   5.048  1.5920  2.4909  0.4363
  815MOL0     H10017   0.816   2.732   5.092 -1.3211 -1.2476  0.9294
  815MOL0     H10018   0.874   2.569   5.122 -0.0268  0.4297 -0.3573
  815MOL0     H10019   0.890   2.543   4.866  0.3573 -0.3979  1.2864
  815MOL0     H10020   0.802   2.689   4.847  0.0402 -0.5722 -0.0169
  815MOL0     H10021   0.706   2.419   4.959  4.0944 -0.6890 -2.3136
  815MOL0     H10022   0.666   2.495   4.817 -1.7214  2.1183 -0.2771
  815MOL0     H10023   0.373   2.703   5.016 -0.1320 -0.5630  0.0213
  815MOL0     H10024   1.014   3.057   5.159 -0.9523 -0.9153 -1.4565
  815MOL0     H10025   1.215   3.199   5.175 -2.5874 -0.7846 -0.5304
  816MOL0     O10026   6.614  10.343   2.034 -0.1981 -0.1211  0.6810
  816MOL0     C10027   6.572  10.409   2.127  0.1007  0.3308  0.3005
  816MOL0     O10028   6.444  10.399   2.181 -1.0516 -0.3903 -0.6022
  816MOL0     C10029   6.363  10.297   2.135 -1.2398 -0.0170 -0.6046
  816MOL0     C10030   6.386  10.160   2.114  0.1122 -0.7734 -0.2311
  816MOL0     C10031   6.279  10.061   2.098  0.2426 -0.2953 -0.3195
  816MOL0     C10032   6.147  10.117   2.081 -0.3525 -0.5959  0.1277
  816MOL0     O10033   6.037  10.033   2.084 -0.6847 -0.5204  0.3118
  816MOL0     C10034   5.916  10.073   2.010  0.4677 -0.0609 -0.0864
  816MOL0     C10035   5.814   9.961   2.000 -0.2075  0.0193  0.2161
  816MOL0     C10036   5.752   9.958   2.140 -0.3779  0.5274  1.4339
  816MOL0     C10037   5.683   9.824   2.157 -0.7193 -0.1147 -0.5499
  816MOL0     C10038   5.557   9.796   2.078 -1.7054  0.1172 -0.2880
  816MOL0     C10039   5.573   9.648   2.010  0.0116 -0.0138 -0.1814
  816MOL0     C10040   5.464   9.623   1.896  0.1685 -0.2149  0.1462
  816MOL0     C10041   5.479   9.721   1.771 -0.7675  0.9519 -0.4275
  816MOL0     N10042   5.616   9.706   1.714  0.3528  0.2543  0.9369
  816MOL0     C10043   5.659   9.597   1.634 -0.6592 -0.1626 -0.5319
  816MOL0     C10044   5.790   9.619   1.634 -0.2146  0.0454  0.0617
  816MOL0     C10045   5.895   9.515   1.589 -0.5070 -0.0049 -0.1091
  816MOL0     C10046   5.862   9.371   1.636 -0.0605 -0.2162 -0.0204
  816MOL0     C10047   5.882   9.362   1.785 -0.0253  0.8845 -0.5057
  816MOL0     C10048   5.829   9.231   1.846  0.1287 -0.3181 -0.2697
  816MOL0     O10049   5.683   9.230   1.866 -1.0642  0.6138  0.7495
  816MOL0     C10050   5.617   9.200   1.985 -0.0875  0.7707  0.3863
  816MOL0     C10051   5.669   9.130   2.094  0.5361 -0.0981  0.3234
  816MOL0     C10052   5.598   9.118   2.212 -0.1212 -0.2520  0.0461
  816MOL0     C10053   5.665   9.039   2.322 -0.5583  0.4974  0.7104
  816MOL0     C10054   5.461   9.163   2.227 -0.0302  0.4500 -0.1381
  816MOL0     C10055   5.360   9.131   2.339  0.5120 -0.7702  0.4333
  816MOL0     O10056   5.235   9.182   2.318 -0.4691  0.2332  0.4989
  816MOL0     C10057   5.140   9.141   2.400  0.8932 -0.3103  0.6331
  816MOL0     C10058   5.074   9.224   2.495  0.1795 -0.0827  0.4336
  816MOL0     C10059   4.968   9.177   2.573  0.1232  0.6487  0.4793
  816MOL0     C10060   4.929   9.041   2.578 -0.9796 -0.3324 -0.6100
  816MOL0     O10061   4.836   8.990   2.660  0.2477 -0.0654 -0.1587
  816MOL0     C10062   4.863   9.030   2.794  0.0167  0.2426 -1.3215
  816MOL0     C10063   4.746   8.969   2.878  0.6421  0.0905 -0.3369
  816MOL0     C10064   4.781   8.967   3.019 -0.1665 -0.0508  0.6341
  816MOL0     C10065   4.686   8.887   3.110 -0.5387  0.2626  0.1046
  816MOL0     C10066   4.702   8.941   3.249 -0.1615  0.4007 -0.2394
  816MOL0     C10067   4.809   8.879   3.337 -0.2832  0.0985  0.4010
  816MOL0     C10068   4.822   8.949   3.472  1.1985  0.5129 -0.3780
  816MOL0     C10069   4.934   8.901   3.548 -0.1901  0.1865 -0.3600
  816MOL0    Cl10070   5.088   8.984   3.499  0.0975  0.0041 -0.0994
  816MOL0     C10071   4.994   8.964   2.478 -0.5803 -0.1887  0.7785
  816MOL0     C10072   5.092   9.012   2.393 -0.3686  0.4672  0.0547
  816MOL0     O10073   5.388   9.054   2.425 -0.2959 -0.1812 -0.5021
  816MOL0     C10074   5.412   9.228   2.110 -0.2356 -0.4196  0.0540
  816MOL0     C10075   5.487   9.244   1.994  0.0006 -0.3038 -0.2382
  816MOL0     N10076   5.826   9.747   1.683 -0.3291  0.6110  1.0573
  816MOL0     N10077   5.721   9.795   1.730 -0.6159 -0.0831  0.0414
  816MOL0     C10078   6.124  10.257   2.099 -0.5537  0.4633  0.2185
  816MOL0     C10079   6.235  10.342   2.124  0.4512 -1.2650 -0.5072
  816MOL0     C10080   6.674  10.495   2.197  0.6546 -0.3714 -0.5527
  816MOL0     C10081   6.801  10.513   2.147  0.0589 -0.3201  0.0824
  816MOL0     C10082   6.901  10.581   2.211  0.1673  0.5049  0.3585
  816MOL0     C10083   6.884  10.629   2.345  0.0015 -0.6800 -0.0731
  816MOL0     O10084   6.981  10.709   2.409  0.2102 -0.0321  0.8962
  816MOL0     C10085   7.007  10.830   2.342  0.6196  0.8013 -0.2791
  816MOL0     C10086   7.139  10.887   2.378 -0.2026 -0.2009  0.4960
  816MOL0     C10087   7.172  10.885   2.532  0.0467  0.2642  0.5724
  816MOL0     C10088   7.079  10.972   2.616  0.7495  0.2117  1.2585
  816MOL0     C10089   7.096  11.117   2.582 -0.0316 -0.2220 -0.6759
  816MOL0     C10090   7.134  11.235   2.568  0.8603  0.8171  0.0957
  816MOL0     C10091   6.760  10.606   2.404  0.0391  0.2143  0.4268
  816MOL0     C10092   6.654  10.541   2.330  0.1026  0.1119 -0.3782
  816MOL0     H10093   6.486  10.118   2.115  0.1065 -0.7712  0.2780
  816MOL0     H10094   6.294   9.956   2.075  2.9445 -0.1385  0.3601
  816MOL0     H10095   5.868  10.161   2.053 -1.9940  0.3679 -3.3600
  816MOL0     H10096   5.944  10.106   1.910 -0.8429  2.1855  0.2298
  816MOL0     H10097   5.748   9.995   1.920 -0.2951 -0.5297  0.0539
  816MOL0     H10098   5.867   9.869   1.974 -1.8087 -0.6837 -0.6804
  816MOL0     H10099   5.819   9.972   2.225  0.7319  1.8938  0.3863
  816MOL0     H10100   5.690  10.048   2.149 -0.4666  0.5817  0.4159
  816MOL0     H10101   5.753   9.743   2.135 -2.2235 -2.0955  1.4758
  816MOL0     H10102   5.667   9.817   2.265  0.3153  0.8001 -0.3136
  816MOL0     H10103   5.470   9.806   2.143 -0.7712  0.8396  0.8886
  816MOL0     H10104   5.555   9.865   1.993 -0.0881 -1.2075 -1.4734
  816MOL0     H10105   5.670   9.642   1.961  0.3310 -0.7380  0.5085
  816MOL0     H10106   5.579   9.568   2.084  2.0279 -0.5796 -0.9043
  816MOL0     H10107   5.482   9.524   1.854 -0.9985  0.3904 -1.9434
  816MOL0     H10108   5.362   9.631   1.935 -0.1263 -0.3383 -0.5879
  816MOL0     H10109   5.453   9.822   1.806 -2.5144  0.7056 -0.9294
  816MOL0     H10110   5.402   9.679   1.707 -0.4127 -1.5265  0.6459
  816MOL0     H10111   5.606   9.508   1.603 -4.0723  1.0807  1.1582
  816MOL0     H10112   5.896   9.511   1.480  0.4225  2.8067 -0.2720
  816MOL0     H10113   5.990   9.551   1.629 -1.1105  0.0088  1.3579
  816MOL0     H10114   5.930   9.302   1.585  0.2676  0.6921 -0.8460
  816MOL0     H10115   5.761   9.345   1.603  0.0541 -0.6678 -0.0243
  816MOL0     H10116   5.813   9.435   1.829 -3.2847 -0.3880 -3.0972
  816MOL0     H10117   5.989   9.380   1.796  0.2247 -0.9069  0.4700
  816MOL0     H10118   5.878   9.223   1.943  2.4939 -1.0084 -1.4338
  816MOL0     H10119   5.855   9.147   1.780  3.6461  0.9369 -0.7021
  816MOL0     H10120   5.767   9.087   2.073 -0.8019 -1.8061 -3.3712
  816MOL0     H10121   5.629   8.936   2.317 -0.0524  0.2780  1.3701
  816MOL0     H10122   5.773   9.038   2.304 -0.5788  3.7118 -0.2493
  816MOL0     H10123   5.643   9.074   2.423 -0.8325  1.6731  0.2526
  816MOL0     H10124   5.089   9.331   2.499 -1.0816  0.1513 -0.4309
  816MOL0     H10125   4.908   9.252   2.622 -2.3718  0.2824 -1.7484
  816MOL0     H10126   4.960   8.995   2.831 -0.1567  1.5184  0.4850
  816MOL0     H10127   4.854   9.138   2.804 -0.8546  0.0511  0.3381
  816MOL0     H10128   4.657   9.031   2.860 -0.6105 -1.4840  0.1503
  816MOL0     H10129   4.715   8.869   2.846  0.0608  0.0987  0.1816
  816MOL0     H10130   4.795   9.073   3.042 -0.5428  0.1176  0.1168
  816MOL0     H10131   4.879   8.921   3.035  0.8982  1.3708 -1.3294
  816MOL0     H10132   4.586   8.907   3.071 -0.6333 -0.7671 -0.2006
  816MOL0     H10133   4.712   8.781   3.101  1.8891  0.6883  1.1880
  816MOL0     H10134   4.606   8.928   3.300 -0.0898 -0.9925 -0.4188
  816MOL0     H10135   4.705   9.050   3.247 -0.4094  0.4549  1.0998
  816MOL0     H10136   4.788   8.776   3.368  1.6161 -0.1136  1.1396
  816MOL0     H10137   4.904   8.863   3.285 -1.1317 -7.5627  0.0674
  816MOL0     H10138   4.733   8.931   3.534  0.6636 -3.7104 -2.0108
  816MOL0     H10139   4.838   9.057   3.462 -0.3077  0.6521 -1.6670
  816MOL0     H10140   4.929   8.792   3.556  3.4470 -0.0288  0.6227
  816MOL0     H10141   4.914   8.938   3.649  2.3741 -3.1559  1.5717
  816MOL0     H10142   4.956   8.862   2.476 -1.6091  0.0808 -3.1908
  816MOL0     H10143   5.132   8.950   2.313  1.4589 -0.2640  1.4598
  816MOL0     H10144   5.317   9.280   2.099 -0.0500  0.3403  1.7126
  816MOL0     H10145   5.453   9.310   1.915 -0.3807 -0.5433 -0.2800
  816MOL0     H10146   6.021  10.291   2.093  0.1041  2.7690  0.6711
  816MOL0     H10147   6.212  10.447   2.133  0.5811 -1.1655 -1.3168
  816MOL0     H10148   6.841  10.474   2.054  2.4892  1.1160  0.4239
  816MOL0     H10149   6.997  10.604   2.167  0.5718 -0.7887  0.5245
  816MOL0     H10150   6.999  10.819   2.233  0.8785 -0.6989 -0.1793
  816MOL0     H10151   6.939  10.905   2.382  2.7275  2.9007 -0.4080
  816MOL0     H10152   7.136  10.993   2.352  1.1066 -0.6697 -1.8899
  816MOL0     H10153   7.221  10.842   2.320 -2.6547 -2.2875 -1.5863
  816MOL0     H10154   7.278  10.908   2.543 -0.5345  2.6814  1.8472
  816MOL0     H10155   7.154  10.785   2.573 -0.9467  0.8854  1.7362
  816MOL0     H10156   7.108  10.950   2.720 -1.1571  1.8836  2.2258
  816MOL0     H10157   6.978  10.933   2.608  1.2655 -0.9583  0.2159
  816MOL0     H10158   7.172  11.335   2.567 -0.3947  1.3086  0.3754
  816MOL0     H10159   6.738  10.628   2.508 -2.0780 -1.6656  0.4467
  816MOL0     H10160   6.558  10.529   2.379  1.0371 -2.6622  0.9725
  817MOL0     O10161   2.530   9.176  11.018  0.7977 -0.1135  0.4877
  817MOL0     C10162   2.529   9.210  10.898 -0.3174 -0.9819 -0.0533
  817MOL0     O10163   2.481   9.334  10.853  0.8312  0.8776  0.5161
  817MOL0     C10164   2.394   9.394  10.945 -0.6430 -0.0032  0.4458
  817MOL0     C10165   2.412   9.534  10.954  0.2559  0.0744 -0.3533
  817MOL0     C10166   2.334   9.608  11.045 -0.0127 -0.2223 -0.0815
  817MOL0     C10167   2.222   9.550  11.109 -1.1837  0.7809 -0.1478
  817MOL0     O10168   2.134   9.633  11.172  0.7313 -0.4655  0.3409
  817MOL0     C10169   1.997   9.587  11.185 -0.6338 -0.1672  0.3778
  817MOL0     C10170   1.907   9.688  11.248  0.5307 -0.3145 -0.1842
  817MOL0     C10171   1.755   9.638  11.244  0.1525  0.2161 -0.2722
  817MOL0     C10172   1.665   9.746  11.290 -0.6753  0.0219  1.0328
  817MOL0     C10173   1.523   9.732  11.239  0.1724  0.0284 -0.2855
  817MOL0     C10174   1.458   9.630  11.331 -0.7512  0.5010  0.0367
  817MOL0     C10175   1.305   9.613  11.329 -0.4601  0.1588 -0.1563
  817MOL0     C10176   1.235   9.721  11.405 -0.2549  0.2242  0.2945
  817MOL0     N10177   1.096   9.711  11.417 -0.7304  0.4399  0.5066
  817MOL0     C10178   0.998   9.790  11.363 -0.5170  0.7398  0.3886
  817MOL0     C10179   0.882   9.731  11.395  0.5747 -0.5080  1.2357
  817MOL0     C10180   0.758   9.756  11.309  0.0080 -1.1770  0.2656
  817MOL0     C10181   0.704   9.897  11.326  0.0104  0.0380 -0.3337
  817MOL0     C10182   0.580   9.935  11.258  0.6587  0.1768  0.3963
  817MOL0     C10183   0.519  10.077  11.272 -1.2055 -0.0514 -0.4575
  817MOL0     O10184   0.626  10.166  11.249  0.0263 -0.2239 -0.1406
  817MOL0     C10185   0.602  10.252  11.157 -0.6572 -0.6042 -0.0656
  817MOL0     C10186   0.615  10.213  11.028  0.6400 -0.2341  0.8030
  817MOL0     C10187   0.603  10.301  10.923 -0.2542 -0.3195  0.5336
  817MOL0     C10188   0.650  10.253  10.794  0.0402 -0.5705  0.7982
  817MOL0     C10189   0.573  10.436  10.955 -0.2724 -0.1310 -0.2494
  817MOL0     C10190   0.574  10.541  10.849  0.4404 -0.1686  0.5063
  817MOL0     O10191   0.499  10.521  10.735 -0.1692 -0.7457  0.0538
  817MOL0     C10192   0.484  10.634  10.660 -0.9311  0.4989  0.2578
  817MOL0     C10193   0.394  10.725  10.703  0.0764 -0.2176  0.7246
  817MOL0     C10194   0.367  10.831  10.615 -0.1115 -0.1801 -0.1484
  817MOL0     C10195   0.440  10.859  10.500  0.3820  0.5562  0.3342
  817MOL0     O10196   0.409  10.977  10.437  0.5723 -0.1359  0.4331
  817MOL0     C10197   0.462  11.019  10.311 -0.2481  0.7086 -0.3594
  817MOL0     C10198   0.608  11.074  10.320 -0.2052  0.4747  1.1036
  817MOL0     C10199   0.689  11.012  10.198 -0.3595  0.1007 -0.4381
  817MOL0     C10200   0.828  11.072  10.218 -0.2335  0.8587 -0.2250
  817MOL0     C10201   0.934  10.987  10.146 -0.2357 -0.7149  0.4423
  817MOL0     C10202   0.975  10.866  10.224  1.0264 -0.2125 -0.0923
  817MOL0     C10203   1.056  10.900  10.355 -1.2861 -0.4810 -0.0029
  817MOL0     C10204   1.100  10.770  10.422  0.0347 -1.0034 -0.3611
  817MOL0    Cl10205   0.964  10.676  10.484 -0.5701 -0.6383 -0.1293
  817MOL0     C10206   0.533  10.765  10.460  0.2704 -0.0015  0.8508
  817MOL0     C10207   0.548  10.640  10.535 -0.1043 -1.1461  0.0244
  817MOL0     O10208   0.628  10.648  10.887 -0.4026  0.1766  0.8339
  817MOL0     C10209   0.541  10.475  11.085 -0.3838 -0.1477 -0.9438
  817MOL0     C10210   0.563  10.382  11.186  0.2599  0.1803 -0.1295
  817MOL0     N10211   0.906   9.629  11.482 -0.6328  0.1782  0.0940
  817MOL0     N10212   1.029   9.624  11.507  0.3873  0.8487 -0.1072
  817MOL0     C10213   2.210   9.406  11.099  0.2701 -0.6897  0.1622
  817MOL0     C10214   2.295   9.338  11.019  1.2686 -0.2929 -0.1342
  817MOL0     C10215   2.586   9.124  10.791  0.0557  0.2595  0.1121
  817MOL0     C10216   2.607   9.171  10.651 -0.5028  0.5875 -0.1848
  817MOL0     C10217   2.657   9.088  10.546 -0.1332  0.4075 -0.4371
  817MOL0     C10218   2.695   8.961  10.570 -0.3841  0.2281  0.3070
  817MOL0     O10219   2.738   8.869  10.469 -0.5743 -0.1780  0.0859
  817MOL0     C10220   2.789   8.749  10.513 -0.0096 -0.7224  0.3320
  817MOL0     C10221   2.840   8.663  10.395  0.7267  0.3159  0.2191
  817MOL0     C10222   2.885   8.518  10.426  0.1002  0.4701  0.4218
  817MOL0     C10223   2.955   8.486  10.559 -0.4692 -0.4281 -0.6751
  817MOL0     C10224   3.019   8.351  10.577 -0.7299 -0.3153  0.7400
  817MOL0     C10225   3.084   8.245  10.588 -0.1989  0.3730 -0.0807
  817MOL0     C10226   2.683   8.923  10.707 -0.1241 -0.0340 -0.6403
  817MOL0     C10227   2.632   8.997  10.813 -0.0798 -0.0563  0.1606
  817MOL0     H10228   2.485   9.585  10.891 -0.8534 -0.1825 -1.9211
  817MOL0     H10229   2.359   9.713  11.050  0.4550 -0.1445 -2.6909
  817MOL0     H10230   1.966   9.546  11.088  0.7661  0.3395 -0.2991
  817MOL0     H10231   2.010   9.504  11.255  2.0591  0.4546  0.7136
  817MOL0     H10232   1.932   9.707  11.353  1.5345  1.9665 -0.7742
  817MOL0     H10233   1.921   9.786  11.201 -0.2871  0.1521  0.5259
  817MOL0     H10234   1.731   9.608  11.141  0.3160 -0.1050 -0.2177
  817MOL0     H10235   1.739   9.547  11.303 -1.6109 -0.2466 -1.3785
  817MOL0     H10236   1.677   9.757  11.398  2.4549 -0.8150  0.8372
  817MOL0     H10237   1.704   9.832  11.236 -0.0934 -0.1945  1.1063
  817MOL0     H10238   1.458   9.819  11.237 -1.6239 -1.2599 -2.7153
  817MOL0     H10239   1.517   9.713  11.131  0.2014  2.3117 -0.7373
  817MOL0     H10240   1.514   9.538  11.311 -0.3912  0.4711  1.1455
  817MOL0     H10241   1.476   9.674  11.430 -3.1043 -0.7619  1.0958
  817MOL0     H10242   1.275   9.606  11.224 -0.4482 -0.3854 -0.1251
  817MOL0     H10243   1.286   9.514  11.371  3.1502 -1.0878 -1.0637
  817MOL0     H10244   1.259   9.822  11.368  1.3254 -1.3239 -3.3661
  817MOL0     H10245   1.275   9.719  11.507 -0.0491 -1.2014  0.1976
  817MOL0     H10246   1.008   9.871  11.292 -1.4959 -0.4117 -1.1259
  817MOL0     H10247   0.784   9.752  11.203  1.0515 -1.3827  0.5247
  817MOL0     H10248   0.677   9.688  11.338 -3.8190  2.7688 -0.1633
  817MOL0     H10249   0.778   9.959  11.275 -1.3931 -0.1235 -2.7380
  817MOL0     H10250   0.699   9.925  11.431  4.4006  0.2034  0.0109
  817MOL0     H10251   0.501   9.874  11.304 -1.4509  2.9514  0.6740
  817MOL0     H10252   0.600   9.904  11.155 -0.2126 -0.1380  0.3088
  817MOL0     H10253   0.482  10.096  11.373  2.1074 -1.5649  1.2259
  817MOL0     H10254   0.437  10.085  11.200 -2.4653  2.2948  1.1009
  817MOL0     H10255   0.648  10.111  11.011  0.9344  0.0785 -0.6230
  817MOL0     H10256   0.678  10.333  10.726 -0.1570 -1.9377 -0.9887
  817MOL0     H10257   0.724  10.174  10.810 -1.6802 -2.0289  2.1550
  817MOL0     H10258   0.571  10.195  10.744 -0.3893 -3.0341  3.9940
  817MOL0     H10259   0.341  10.717  10.797 -3.0882 -1.2604 -0.9948
  817MOL0     H10260   0.302  10.911  10.649 -1.6105 -2.2834  2.2257
  817MOL0     H10261   0.457  10.937  10.240  0.7244 -0.6431  1.0462
  817MOL0     H10262   0.384  11.087  10.276 -1.7776 -1.0772 -0.5422
  817MOL0     H10263   0.597  11.182  10.316  0.9402  0.6179  1.4427
  817MOL0     H10264   0.650  11.052  10.418 -3.1351 -0.3938  2.2848
  817MOL0     H10265   0.650  11.045  10.102 -0.8419  0.3416 -0.1648
  817MOL0     H10266   0.703  10.903  10.201  0.0169  0.1512 -0.2337
  817MOL0     H10267   0.828  11.177  10.187 -2.2865  1.0708  0.3543
  817MOL0     H10268   0.864  11.078  10.321  0.1473  0.9860 -0.3643
  817MOL0     H10269   1.028  11.042  10.135 -0.1731 -0.5916  1.4369
  817MOL0     H10270   0.890  10.961  10.050 -2.9092  2.7293  0.5334
  817MOL0     H10271   0.880  10.821  10.256  1.2566  0.0838  1.0669
  817MOL0     H10272   1.023  10.781  10.175 -2.3677 -3.6626  1.9507
  817MOL0     H10273   0.984  10.956  10.416 -2.3890 -0.9687 -0.8139
  817MOL0     H10274   1.149  10.955  10.337  0.4997 -2.5615  2.1715
  817MOL0     H10275   1.163  10.789  10.510  0.8830  0.6275 -1.2856
  817MOL0     H10276   1.163  10.717  10.349 -0.6576 -0.3523 -1.4524
  817MOL0     H10277   0.602  10.782  10.378  2.5112 -1.4798  2.2915
  817MOL0     H10278   0.628  10.572  10.511  1.7189 -0.1353  2.6780
  817MOL0     H10279   0.522  10.581  11.096 -1.1074 -0.2465 -1.2084
  817MOL0     H10280   0.546  10.400  11.292 -2.3388  1.7053 -0.7156
  817MOL0     H10281   2.122   9.357  11.137 -1.6253  2.8285  0.7561
  817MOL0     H10282   2.266   9.234  11.007  1.8038 -0.5111  0.4120
  817MOL0     H10283   2.541   9.251  10.618  0.4877  1.1778 -0.7618
  817MOL0     H10284   2.658   9.126  10.445 -0.0944 -2.5008 -1.6308
  817MOL0     H10285   2.871   8.756  10.585 -1.4355 -0.0412  1.9458
  817MOL0     H10286   2.713   8.686  10.560 -1.1371  1.3838  1.4516
  817MOL0     H10287   2.932   8.708  10.355  1.7319 -1.1530  0.7919
  817MOL0     H10288   2.766   8.659  10.315 -0.4953 -0.2902  1.3528
  817MOL0     H10289   2.947   8.480  10.344  0.5870  1.2611  0.4042
  817MOL0     H10290   2.796   8.456  10.414  0.3834  0.4271 -1.8534
  817MOL0     H10291   2.891   8.501  10.647 -1.9668  0.9252 -1.9386
  817MOL0     H10292   3.029   8.567  10.563 -2.1286  1.2639 -2.3228
  817MOL0     H10293   3.147   8.160  10.607  0.7921  1.3049  0.9512
  817MOL0     H10294   2.710   8.823  10.739  0.2720  0.3272  0.1838
  817MOL0     H10295   2.627   8.951  10.912 -1.3972 -0.6513 -0.1664
  818MOL0     O10296   7.407   0.047  11.379 -0.0409 -0.3097 -0.4443
  818MOL0     C10297   7.498  -0.002  11.453  0.2252  0.1790  0.2790
  818MOL0     O10298   7.481  -0.097  11.551  0.4137 -0.2723  0.1588
  818MOL0     C10299   7.352  -0.138  11.570 -0.4555  1.6764  0.4307
  818MOL0     C10300   7.245  -0.150  11.474  0.4502  0.5639 -0.2228
  818MOL0     C10301   7.119  -0.192  11.516  0.3120 -1.0385 -0.2197
  818MOL0     C10302   7.088  -0.217  11.649  0.3615 -0.4383 -0.2947
  818MOL0     O10303   6.958  -0.245  11.680  0.2971 -0.9342 -0.4004
  818MOL0     C10304   6.912  -0.200  11.811 -0.5909 -0.1881  0.4109
  818MOL0     C10305   6.765  -0.165  11.808  1.0387 -0.6029  0.2466
  818MOL0     C10306   6.678  -0.282  11.840  0.4077  0.5066 -0.0763
  818MOL0     C10307   6.537  -0.229  11.856  0.8445 -0.7646 -0.7039
  818MOL0     C10308   6.431  -0.329  11.915  0.6925  0.1256 -0.6186
  818MOL0     C10309   6.473  -0.386  12.060  0.2755  0.1947  0.8587
  818MOL0     C10310   6.351  -0.455  12.125  0.5479 -0.0637 -0.6377
  818MOL0     C10311   6.398  -0.591  12.188  0.5499 -0.0619 -0.3867
  818MOL0     N10312   6.284  -0.658  12.256  0.5184  0.3325 -0.5946
  818MOL0     C10313   6.159  -0.684  12.209 -0.5268 -0.4524  0.2770
  818MOL0     C10314   6.097  -0.770  12.306 -0.2805  0.0419  0.1344
  818MOL0     C10315   5.958  -0.810  12.300  0.9791  0.6112 -0.5748
  818MOL0     C10316   5.853  -0.702  12.303  0.3585 -0.5228 -0.6225
  818MOL0     C10317   5.710  -0.753  12.299  0.1339 -0.6198  0.0942
  818MOL0     C10318   5.612  -0.643  12.346  0.1474 -0.1874  0.3784
  818MOL0     O10319   5.631  -0.510  12.291  1.3374 -0.3207  0.3403
  818MOL0     C10320   5.615  -0.503  12.152 -0.2497 -0.9007 -0.3771
  818MOL0     C10321   5.503  -0.546  12.087  0.7861 -0.5756  0.4261
  818MOL0     C10322   5.486  -0.530  11.949  0.8966 -0.1089  0.7256
  818MOL0     C10323   5.359  -0.599  11.898  0.1427 -0.4076  0.0403
  818MOL0     C10324   5.586  -0.454  11.872  0.1474  0.2427 -0.5957
  818MOL0     C10325   5.578  -0.410  11.730  0.3561  0.1236  0.3352
  818MOL0     O10326   5.693  -0.365  11.672 -0.2003  0.5329  0.5733
  818MOL0     C10327   5.710  -0.363  11.536  0.3238  0.3626  0.2533
  818MOL0     C10328   5.678  -0.466  11.441  0.4036  0.3719 -0.0080
  818MOL0     C10329   5.701  -0.439  11.300  0.3487  0.9981 -0.4630
  818MOL0     C10330   5.770  -0.327  11.254 -1.2325  1.2414 -0.7962
  818MOL0     O10331   5.816  -0.316  11.127  0.2915 -0.6059 -0.1387
  818MOL0     C10332   5.763  -0.408  11.030  1.0994  0.2807 -0.6901
  818MOL0     C10333   5.814  -0.367  10.892 -0.7253 -0.5597 -0.1666
  818MOL0     C10334   5.773  -0.222  10.863  0.6243 -0.1371 -0.2489
  818MOL0     C10335   5.825  -0.165  10.728 -1.0203 -0.7742 -0.1789
  818MOL0     C10336   5.767  -0.024  10.697  0.1241  0.1488  1.0514
  818MOL0     C10337   5.821   0.011  10.554 -0.0349  0.0203 -0.1416
  818MOL0     C10338   5.751   0.139  10.525 -0.8905  0.0148  0.2327
  818MOL0     C10339   5.767   0.194  10.377  0.3411  0.4533 -0.6443
  818MOL0    Cl10340   5.676   0.343  10.351  0.1311 -0.1304  0.2869
  818MOL0     C10341   5.805  -0.229  11.350 -0.4561 -0.6213 -0.0589
  818MOL0     C10342   5.766  -0.245  11.490  0.2915 -0.1514  0.1724
  818MOL0     O10343   5.472  -0.430  11.667 -0.6293 -0.0603 -0.0270
  818MOL0     C10344   5.706  -0.416  11.939 -0.3915 -0.0954 -0.4559
  818MOL0     C10345   5.712  -0.434  12.080 -1.1019 -0.4539  0.2124
  818MOL0     N10346   6.190  -0.788  12.405  0.1535  1.4277 -0.7241
  818MOL0     N10347   6.295  -0.727  12.379 -0.4366  0.1321  0.6759
  818MOL0     C10348   7.193  -0.198  11.744  0.3052 -1.1420  0.1871
  818MOL0     C10349   7.323  -0.164  11.702 -0.6414  0.3515  0.2231
  818MOL0     C10350   7.641   0.042  11.422 -0.0316 -0.0156 -0.6442
  818MOL0     C10351   7.673   0.132  11.323  0.0164 -0.4528 -0.7485
  818MOL0     C10352   7.803   0.177  11.303 -0.3857  0.7260 -0.7039
  818MOL0     C10353   7.912   0.130  11.370 -0.1735 -0.2982  0.3708
  818MOL0     O10354   8.042   0.172  11.351 -0.1023  0.1380 -0.6839
  818MOL0     C10355   8.083   0.209  11.219 -0.5669 -0.6726  0.5334
  818MOL0     C10356   8.235   0.197  11.205 -0.6217  0.5529  0.6778
  818MOL0     C10357   8.317   0.285  11.298 -0.4924 -0.1081  0.8708
  818MOL0     C10358   8.278   0.438  11.298 -0.4714  0.5822 -0.2558
  818MOL0     C10359   8.390   0.520  11.356  0.5149 -0.1141 -0.0831
  818MOL0     C10360   8.456   0.592  11.421  0.1466  0.0709 -0.8731
  818MOL0     C10361   7.886   0.044  11.480  1.0502 -0.2432 -0.0379
  818MOL0     C10362   7.749  -0.009  11.508  0.3743 -0.6616  0.1663
  818MOL0     H10363   7.249  -0.125  11.369 -0.1690  3.2966  0.3275
  818MOL0     H10364   7.040  -0.189  11.441 -0.9063  1.0186  1.0707
  818MOL0     H10365   6.938  -0.267  11.894 -3.8955  2.1011  3.6077
  818MOL0     H10366   6.967  -0.110  11.838 -0.2068 -0.9112  2.2038
  818MOL0     H10367   6.750  -0.094  11.889 -1.2119 -1.0842  0.3089
  818MOL0     H10368   6.739  -0.132  11.707  2.6696  0.5096  0.1460
  818MOL0     H10369   6.683  -0.368  11.772 -1.8853  1.5296 -1.6798
  818MOL0     H10370   6.722  -0.325  11.930  0.2638 -2.0919 -1.1637
  818MOL0     H10371   6.523  -0.134  11.908 -3.5186 -0.9186 -1.2613
  818MOL0     H10372   6.498  -0.213  11.755  1.8496 -2.4000 -1.3985
  818MOL0     H10373   6.331  -0.285  11.913 -0.8993 -3.1599 -2.5068
  818MOL0     H10374   6.433  -0.407  11.838  0.1680 -0.7296  0.2153
  818MOL0     H10375   6.558  -0.452  12.047 -0.4253 -0.6725  0.5666
  818MOL0     H10376   6.505  -0.302  12.122  0.6456 -0.6964  1.8891
  818MOL0     H10377   6.318  -0.381  12.198 -2.3869 -1.7119 -0.1181
  818MOL0     H10378   6.268  -0.463  12.054 -1.0983  2.2812  0.8849
  818MOL0     H10379   6.476  -0.563  12.260  0.2802  1.2915 -0.5794
  818MOL0     H10380   6.445  -0.665  12.122 -1.9677 -0.1036 -2.2809
  818MOL0     H10381   6.119  -0.643  12.117  1.4720 -2.5916 -1.6905
  818MOL0     H10382   5.937  -0.856  12.203  3.5794  0.8140 -1.3005
  818MOL0     H10383   5.939  -0.870  12.389  2.4931  1.9189  0.6900
  818MOL0     H10384   5.871  -0.640  12.215  3.0718 -1.2633 -0.6791
  818MOL0     H10385   5.867  -0.647  12.397 -0.5749 -1.3180  0.0130
  818MOL0     H10386   5.700  -0.837  12.368 -0.3072 -1.9440 -1.5337
  818MOL0     H10387   5.683  -0.789  12.199  3.4173 -0.8686 -0.8092
  818MOL0     H10388   5.628  -0.619  12.452 -0.5834  0.4947  0.3397
  818MOL0     H10389   5.513  -0.686  12.332 -0.9329  1.4110  2.4952
  818MOL0     H10390   5.434  -0.599  12.151  0.2649 -0.5105 -0.0801
  818MOL0     H10391   5.305  -0.527  11.835  3.9602  0.0717 -3.0801
  818MOL0     H10392   5.373  -0.671  11.817 -2.3994 -0.2493 -0.6254
  818MOL0     H10393   5.308  -0.646  11.982 -0.8716 -1.2583 -1.0104
  818MOL0     H10394   5.617  -0.550  11.473 -1.0488  0.6138 -1.9444
  818MOL0     H10395   5.675  -0.528  11.244  3.3247  0.0764 -0.5816
  818MOL0     H10396   5.792  -0.511  11.049  0.8723  0.3494  0.0765
  818MOL0     H10397   5.654  -0.399  11.033  0.9610 -1.1915  1.9392
  818MOL0     H10398   5.919  -0.397  10.880 -0.8338 -1.0218  0.0189
  818MOL0     H10399   5.758  -0.427  10.820 -0.3041 -0.6878 -0.3903
  818MOL0     H10400   5.804  -0.154  10.943 -2.6786  1.0798  0.1801
  818MOL0     H10401   5.664  -0.214  10.865  0.6406  0.6119  2.4589
  818MOL0     H10402   5.934  -0.162  10.740 -1.3376  2.3495  4.1043
  818MOL0     H10403   5.807  -0.232  10.644  0.6210 -0.8068 -0.5437
  818MOL0     H10404   5.803   0.054  10.765 -0.5047  1.5350 -0.1485
  818MOL0     H10405   5.658  -0.029  10.694 -0.0967  3.2129 -0.9818
  818MOL0     H10406   5.929   0.027  10.562  0.8311 -4.6009  0.7106
  818MOL0     H10407   5.793  -0.072  10.488 -1.8422 -0.8818  1.6443
  818MOL0     H10408   5.781   0.214  10.599 -1.3534  1.5033 -1.0363
  818MOL0     H10409   5.644   0.117  10.537 -0.6118 -1.6667 -0.1804
  818MOL0     H10410   5.720   0.123  10.308 -2.1620  0.9927  0.4127
  818MOL0     H10411   5.872   0.203  10.347  0.0803 -0.9125 -2.1780
  818MOL0     H10412   5.857  -0.144  11.306 -2.5046  0.4571 -0.5337
  818MOL0     H10413   5.774  -0.159  11.555 -0.9986  1.7854 -2.1027
  818MOL0     H10414   5.777  -0.356  11.884  1.2865  0.0301  1.7005
  818MOL0     H10415   5.793  -0.394  12.139 -0.6620  1.0564 -1.3339
  818MOL0     H10416   7.169  -0.204  11.849 -2.8890  0.3862 -0.3203
  818MOL0     H10417   7.403  -0.140  11.771 -0.5336  2.0428 -0.4367
  818MOL0     H10418   7.599   0.168  11.253 -0.7241 -2.4128 -1.0572
  818MOL0     H10419   7.819   0.256  11.229 -0.0438  0.3845 -1.0017
  818MOL0     H10420   8.035   0.135  11.155  1.1374 -2.5599  1.3262
  818MOL0     H10421   8.051   0.312  11.201  2.2349  0.6009  2.1755
  818MOL0     H10422   8.262   0.221  11.102 -0.6603 -1.0509  0.2601
  818MOL0     H10423   8.262   0.094  11.233 -0.1432  0.8747  1.4286
  818MOL0     H10424   8.420   0.282  11.264 -1.2521 -0.2538 -1.5795
  818MOL0     H10425   8.310   0.253  11.403  2.2269 -0.4703  1.0157
  818MOL0     H10426   8.199   0.451  11.373 -0.9127 -0.0266 -0.6041
  818MOL0     H10427   8.253   0.474  11.198 -1.3496 -3.5377 -1.7229
  818MOL0     H10428   8.503   0.648  11.500  0.7451  1.0207 -1.8770
  818MOL0     H10429   7.964   0.014  11.549  1.0626  0.2010  0.1390
  818MOL0     H10430   7.731  -0.072  11.595  1.2749  0.2035  1.0055
  819MOL0     O10431   8.811   8.623   4.104 -0.1769  0.5770  0.0885
  819MOL0     C10432   8.852   8.509   4.095 -0.7173  0.2904  0.0437
  819MOL0     O10433   8.982   8.474   4.072 -0.3727  0.1420  0.4549
  819MOL0     C10434   9.070   8.576   4.073 -0.2633  0.2577 -0.4115
  819MOL0     C10435   9.149   8.613   4.189 -0.6664  0.4669 -0.0229
  819MOL0     C10436   9.241   8.712   4.177  0.1818 -0.8491  1.1806
  819MOL0     C10437   9.259   8.785   4.056 -0.3188  0.6339  0.1440
  819MOL0     O10438   9.348   8.896   4.052  0.0316  0.1613  0.1145
  819MOL0     C10439   9.460   8.882   4.139 -0.0901 -1.1824  0.1214
  819MOL0     C10440   9.570   8.975   4.086  0.2468 -0.0754 -0.0181
  819MOL0     C10441   9.597   8.956   3.940 -0.0722 -0.2839  0.1256
  819MOL0     C10442   9.723   9.029   3.899  0.2586  0.2389  0.5640
  819MOL0     C10443   9.752   9.018   3.760  0.1246  0.0773  0.3221
  819MOL0     C10444   9.823   8.888   3.713  0.5816 -0.6580  0.5765
  819MOL0     C10445   9.828   8.884   3.552  0.2031  0.0784 -0.6602
  819MOL0     C10446   9.915   8.768   3.496 -0.3279  0.3779  0.9976
  819MOL0     N10447   9.923   8.776   3.348  0.6587  0.1284 -0.5324
  819MOL0     C10448  10.038   8.795   3.272  0.3611 -0.1452  0.1724
  819MOL0     C10449   9.997   8.812   3.148 -0.4809  0.0779 -0.0040
  819MOL0     C10450  10.088   8.820   3.023  0.5550  0.9695  0.4799
  819MOL0     C10451  10.048   8.945   2.939 -0.3003  0.1588 -0.0814
  819MOL0     C10452  10.139   8.934   2.810  0.6225  0.2753 -0.2543
  819MOL0     C10453  10.270   9.013   2.810  1.0559 -0.3961  0.4538
  819MOL0     O10454  10.356   8.950   2.902 -0.0125 -0.1468  0.5594
  819MOL0     C10455  10.478   9.013   2.922 -0.2026  0.0506  0.6860
  819MOL0     C10456  10.483   9.139   2.972  0.2642  0.5825 -1.0278
  819MOL0     C10457  10.611   9.182   3.015  0.6976 -0.7809 -0.8802
  819MOL0     C10458  10.612   9.316   3.098  0.2504  0.2344  1.1616
  819MOL0     C10459  10.731   9.113   2.978 -0.1738  0.3896  0.6152
  819MOL0     C10460  10.865   9.163   3.006 -0.0270  0.4618 -0.3291
  819MOL0     O10461  10.888   9.295   3.005 -0.4726 -0.5113 -0.1054
  819MOL0     C10462  11.016   9.338   2.990  0.8244  0.3082 -1.1464
  819MOL0     C10463  11.049   9.460   3.047  1.4140  0.4024 -0.8072
  819MOL0     C10464  11.174   9.518   3.030  0.5960  0.2979 -0.2506
  819MOL0     C10465  11.258   9.470   2.929 -1.1062  0.4189  0.0477
  819MOL0     O10466  11.376   9.532   2.900 -0.3975 -0.4840  0.0395
  819MOL0     C10467  11.375   9.673   2.904 -0.4165 -0.7660 -0.0474
  819MOL0     C10468  11.485   9.718   2.808 -0.9643 -0.7752 -0.3734
  819MOL0     C10469  11.619   9.703   2.881 -0.2805 -0.3248 -0.3249
  819MOL0     C10470  11.741   9.708   2.785  0.3395  0.3620  0.1229
  819MOL0     C10471  11.867   9.664   2.849 -0.0749  0.0818 -0.7616
  819MOL0     C10472  11.973   9.662   2.734 -0.3478 -0.0707 -0.0340
  819MOL0     C10473  12.114   9.660   2.809 -0.0429  0.6374  1.1475
  819MOL0     C10474  12.223   9.622   2.710 -0.3007 -0.2462 -0.1536
  819MOL0    Cl10475  12.233   9.727   2.563 -0.0415  0.2361 -0.2582
  819MOL0     C10476  11.232   9.349   2.864  0.1071  0.6867  0.6144
  819MOL0     C10477  11.109   9.288   2.897 -0.3618  0.2615 -0.0540
  819MOL0     O10478  10.943   9.081   3.052 -0.3375  0.6188 -0.0013
  819MOL0     C10479  10.720   8.981   2.926  0.2515  0.4214  0.3946
  819MOL0     C10480  10.594   8.931   2.904 -0.2316  0.5618  0.6073
  819MOL0     N10481   9.862   8.790   3.150 -0.1441 -0.2239  0.4659
  819MOL0     N10482   9.818   8.779   3.266  0.0566 -0.2850 -0.3646
  819MOL0     C10483   9.185   8.744   3.942 -0.9341 -0.8056 -0.6118
  819MOL0     C10484   9.090   8.644   3.958 -0.6855 -0.1966  0.6343
  819MOL0     C10485   8.759   8.398   4.112 -0.0348 -0.2726 -0.3250
  819MOL0     C10486   8.621   8.424   4.088  0.7853  0.6761  0.3033
  819MOL0     C10487   8.527   8.322   4.097  0.6843  0.6401 -0.4810
  819MOL0     C10488   8.565   8.195   4.129  0.5636 -0.8317 -0.6077
  819MOL0     O10489   8.470   8.091   4.140 -0.4963  0.4004 -0.5394
  819MOL0     C10490   8.497   7.974   4.062  0.2861  0.2615  0.3351
  819MOL0     C10491   8.449   7.959   3.909 -0.0644 -0.4950 -0.1000
  819MOL0     C10492   8.360   8.075   3.870  0.0553  0.2352  0.7496
  819MOL0     C10493   8.300   8.075   3.722 -0.1921 -0.0240 -0.0911
  819MOL0     C10494   8.236   8.206   3.672 -0.4248  0.8560 -0.0123
  819MOL0     C10495   8.182   8.306   3.630 -0.1532 -0.3534  0.2839
  819MOL0     C10496   8.706   8.163   4.146  0.3324  0.2995 -0.1922
  819MOL0     C10497   8.801   8.262   4.136  0.5416  1.9178 -0.0020
  819MOL0     H10498   9.154   8.555   4.281 -1.7473 -0.3649 -0.4510
  819MOL0     H10499   9.291   8.736   4.270  2.4928  2.0473 -0.5938
  819MOL0     H10500   9.440   8.922   4.239  2.6348 -2.1009  1.1148
  819MOL0     H10501   9.506   8.783   4.149  4.3054  0.6665 -0.0511
  819MOL0     H10502   9.529   9.076   4.095 -1.8047 -1.0944  3.8787
  819MOL0     H10503   9.648   8.982   4.162  0.8272  3.7653 -0.7263
  819MOL0     H10504   9.605   8.848   3.923  0.8631 -0.3047  0.6322
  819MOL0     H10505   9.520   8.998   3.875 -0.6619 -3.2205 -1.2632
  819MOL0     H10506   9.710   9.134   3.930  0.9889  0.6883 -0.6019
  819MOL0     H10507   9.807   9.001   3.964  0.7604  1.4626  0.4832
  819MOL0     H10508   9.658   9.030   3.705  0.4104  1.0778  0.0428
  819MOL0     H10509   9.820   9.101   3.743  1.1462 -0.4781  1.5771
  819MOL0     H10510   9.926   8.893   3.751  1.3541 -2.5515 -1.1081
  819MOL0     H10511   9.780   8.797   3.756  0.3999  0.3974  2.7773
  819MOL0     H10512   9.732   8.880   3.501 -0.0436 -2.3793 -0.1248
  819MOL0     H10513   9.873   8.981   3.528 -1.9645  0.8802 -1.6978
  819MOL0     H10514   9.870   8.673   3.525 -3.3390  1.7609  1.1902
  819MOL0     H10515  10.019   8.767   3.529 -0.0602 -0.4601  0.1531
  819MOL0     H10516  10.137   8.802   3.315  0.4732  2.1996 -0.3519
  819MOL0     H10517  10.191   8.818   3.058  0.2752 -2.7763  1.4648
  819MOL0     H10518  10.069   8.732   2.962 -1.1858  0.3797  1.7781
  819MOL0     H10519  10.046   9.034   3.002 -4.0907 -1.4770  2.4752
  819MOL0     H10520   9.946   8.936   2.900 -0.6134  3.7685 -0.4023
  819MOL0     H10521  10.079   8.974   2.727  0.5741  1.1511  0.1830
  819MOL0     H10522  10.162   8.828   2.796  0.8608  0.1418  1.0594
  819MOL0     H10523  10.262   9.117   2.845  0.0001  0.9363 -3.3058
  819MOL0     H10524  10.311   9.000   2.710 -0.6625 -1.2694 -0.1807
  819MOL0     H10525  10.393   9.190   3.005  0.6542 -0.7657  2.6018
  819MOL0     H10526  10.695   9.298   3.167 -0.8289 -0.4916  2.3037
  819MOL0     H10527  10.617   9.405   3.035  0.4105  0.2800  1.2387
  819MOL0     H10528  10.522   9.326   3.160 -0.4386  0.3935  0.1743
  819MOL0     H10529  10.976   9.499   3.118 -0.0547 -0.5577 -1.7316
  819MOL0     H10530  11.197   9.603   3.093  0.3725 -1.8636  3.0159
  819MOL0     H10531  11.279   9.718   2.877 -1.2472 -2.5243 -0.1579
  819MOL0     H10532  11.400   9.710   3.004 -4.4602  1.7443  0.2420
  819MOL0     H10533  11.477   9.650   2.722 -1.1779 -2.5612  0.9991
  819MOL0     H10534  11.475   9.821   2.774 -1.1298 -1.2011 -1.6916
  819MOL0     H10535  11.623   9.618   2.951 -2.2211  1.5029  2.2316
  819MOL0     H10536  11.631   9.788   2.949 -0.9405 -0.8136  0.4221
  819MOL0     H10537  11.725   9.632   2.707 -0.2442  2.0515 -1.4687
  819MOL0     H10538  11.745   9.806   2.736  2.5682  0.7256  0.9166
  819MOL0     H10539  11.867   9.566   2.897 -4.6866  0.3634  0.2628
  819MOL0     H10540  11.889   9.741   2.923 -2.0258 -0.2941  0.2816
  819MOL0     H10541  11.967   9.570   2.674  1.9371 -2.2286  2.7929
  819MOL0     H10542  11.967   9.748   2.667  0.5010 -0.5064 -0.6904
  819MOL0     H10543  12.118   9.593   2.896  1.8037 -0.2090  0.4612
  819MOL0     H10544  12.139   9.763   2.832 -0.2131  1.4728 -1.9404
  819MOL0     H10545  12.203   9.518   2.682 -3.1521  0.0775  0.3681
  819MOL0     H10546  12.320   9.617   2.760 -1.4898  0.2272  2.3034
  819MOL0     H10547  11.294   9.315   2.782 -0.5474 -1.9914  1.1591
  819MOL0     H10548  11.093   9.192   2.851  1.5784  0.0439 -0.3725
  819MOL0     H10549  10.804   8.917   2.903 -0.4167 -0.8324  1.3025
  819MOL0     H10550  10.588   8.835   2.855  0.8564  0.5709  0.4402
  819MOL0     H10551   9.209   8.786   3.844  4.5509 -2.6968 -0.3986
  819MOL0     H10552   9.040   8.619   3.866  2.2078  2.5641 -1.9657
  819MOL0     H10553   8.584   8.521   4.055  2.3018  0.5716 -1.9597
  819MOL0     H10554   8.422   8.345   4.080 -0.1435 -2.2453  0.1427
  819MOL0     H10555   8.603   7.952   4.050 -0.0468 -0.4950 -1.6130
  819MOL0     H10556   8.444   7.897   4.117 -1.5122  1.1450 -0.0700
  819MOL0     H10557   8.392   7.866   3.895 -2.2342  0.7552  0.0400
  819MOL0     H10558   8.536   7.945   3.845 -0.1685 -2.9913  0.1767
  819MOL0     H10559   8.425   8.163   3.878  5.3922 -3.0782 -1.0838
  819MOL0     H10560   8.272   8.076   3.935  0.3538  0.3336  1.1591
  819MOL0     H10561   8.226   7.996   3.707  1.7902 -1.5312 -3.0598
  819MOL0     H10562   8.377   8.052   3.647  0.1813 -3.5174  1.1754
  819MOL0     H10563   8.151   8.400   3.588  4.4918  1.2914 -0.0337
  819MOL0     H10564   8.737   8.059   4.158 -0.5150  0.2499  1.9005
  819MOL0     H10565   8.904   8.228   4.147 -0.1646  0.2894  2.4737
  820MOL0     O10566   8.331   9.914   7.387  0.1247  0.6015 -0.2505
  820MOL0     C10567   8.337   9.839   7.492  0.4016 -0.0180  0.0317
  820MOL0     O10568   8.223   9.794   7.559 -0.2758  0.2596 -0.2516
  820MOL0     C10569   8.100   9.831   7.522  0.0717 -0.9996  0.2670
  820MOL0     C10570   8.022   9.758   7.426 -0.0748 -0.5436 -0.7443
  820MOL0     C10571   7.895   9.805   7.391  0.6215  0.3263  0.0611
  820MOL0     C10572   7.844   9.913   7.445  0.1208 -0.8316 -0.5653
  820MOL0     O10573   7.730   9.958   7.385 -0.6259  0.5974  0.8775
  820MOL0     C10574   7.649  10.030   7.478 -0.2455  0.2092 -0.2126
  820MOL0     C10575   7.522  10.070   7.411  0.0484  0.3029  0.6568
  820MOL0     C10576   7.445  10.182   7.480  0.1507  0.7980 -0.2207
  820MOL0     C10577   7.517  10.324   7.492 -0.7940  0.3706  0.3497
  820MOL0     C10578   7.431  10.437   7.537 -0.2696 -0.1315 -0.9362
  820MOL0     C10579   7.316  10.471   7.443  0.1654  0.4967  0.3948
  820MOL0     C10580   7.201  10.524   7.524  0.6713 -1.1500 -0.0678
  820MOL0     C10581   7.211  10.676   7.534 -0.5507  0.5780  0.1359
  820MOL0     N10582   7.107  10.734   7.611  0.7994 -0.4343 -0.0703
  820MOL0     C10583   7.127  10.848   7.690 -0.2254  0.0321 -0.5608
  820MOL0     C10584   7.013  10.872   7.762  0.1481 -0.6238  0.0849
  820MOL0     C10585   6.992  10.978   7.861 -1.7365 -0.2848 -0.4134
  820MOL0     C10586   6.879  11.063   7.820  0.3187  0.1594  0.8654
  820MOL0     C10587   6.866  11.174   7.929 -0.1303 -0.2374 -0.3582
  820MOL0     C10588   6.736  11.260   7.922 -0.4012  0.1179 -0.0516
  820MOL0     O10589   6.626  11.170   7.941 -0.5060  0.5909  0.4601
  820MOL0     C10590   6.496  11.210   7.923  0.1535  0.1159  0.4166
  820MOL0     C10591   6.455  11.327   7.870  0.2045  1.5460 -0.5219
  820MOL0     C10592   6.320  11.359   7.874 -0.0324 -0.1280 -0.5428
  820MOL0     C10593   6.288  11.499   7.822  0.6416  0.3977  0.2110
  820MOL0     C10594   6.221  11.271   7.918  0.3214  0.5623 -0.3438
  820MOL0     C10595   6.071  11.293   7.909 -0.7537 -0.5319 -1.0999
  820MOL0     O10596   5.993  11.198   7.964 -0.6055 -0.1131  0.3633
  820MOL0     C10597   5.861  11.221   7.994 -0.2245 -0.2291 -0.4747
  820MOL0     C10598   5.807  11.340   8.063 -0.0761 -0.2803 -0.1828
  820MOL0     C10599   5.676  11.340   8.102  0.3383 -0.4089  0.1581
  820MOL0     C10600   5.597  11.228   8.104  0.5173 -0.1297 -0.0782
  820MOL0     O10601   5.465  11.246   8.135 -0.7264 -0.2337 -0.5298
  820MOL0     C10602   5.384  11.156   8.060  0.0434  0.6274  1.1543
  820MOL0     C10603   5.235  11.196   8.055  0.2413 -0.4388  0.3121
  820MOL0     C10604   5.168  11.185   8.194 -0.0148  0.6132  0.2729
  820MOL0     C10605   5.017  11.198   8.199 -0.7026 -0.6437 -0.1403
  820MOL0     C10606   4.944  11.109   8.097  0.6571  0.2256 -0.0812
  820MOL0     C10607   4.797  11.143   8.096 -0.2536 -0.9956  0.1123
  820MOL0     C10608   4.710  11.041   8.021 -0.1559 -0.3900 -0.2542
  820MOL0     C10609   4.567  11.057   8.039  0.0891  0.4363  0.6097
  820MOL0    Cl10610   4.478  10.914   7.977  0.2560  0.0426  0.1715
  820MOL0     C10611   5.653  11.107   8.062 -0.5216 -0.2945 -0.3286
  820MOL0     C10612   5.786  11.107   8.004 -0.7205  0.2440  1.1377
  820MOL0     O10613   6.024  11.394   7.858  0.5934 -0.2777 -0.2495
  820MOL0     C10614   6.264  11.151   7.974  0.8684  0.1703  0.0045
  820MOL0     C10615   6.403  11.114   7.975  0.5836 -0.7220 -0.1172
  820MOL0     N10616   6.921  10.769   7.721  0.2007 -0.0957 -0.2487
  820MOL0     N10617   6.970  10.705   7.625 -0.3806  0.2324  0.1492
  820MOL0     C10618   7.915   9.985   7.543 -0.3990  0.3137  0.3418
  820MOL0     C10619   8.043   9.947   7.574 -0.2098  0.0998 -0.1272
  820MOL0     C10620   8.461   9.798   7.550  0.3861  0.1102  0.3896
  820MOL0     C10621   8.469   9.694   7.641 -1.1817  0.3443 -0.3135
  820MOL0     C10622   8.594   9.656   7.698  0.7434 -0.0990  0.1722
  820MOL0     C10623   8.710   9.721   7.663 -1.1245 -0.2291  0.8016
  820MOL0     O10624   8.827   9.659   7.718  0.1634  0.0260  0.5865
  820MOL0     C10625   8.952   9.722   7.697 -0.2197 -0.2653  0.0053
  820MOL0     C10626   9.064   9.666   7.785  0.0410 -1.4016 -0.1514
  820MOL0     C10627   9.098   9.519   7.757 -0.3739  0.6240  0.2280
  820MOL0     C10628   9.235   9.477   7.804  0.0158  0.2198 -0.1399
  820MOL0     C10629   9.336   9.522   7.699 -0.3136  0.9319 -0.3263
  820MOL0     C10630   9.415   9.567   7.617  0.7447  0.4823 -1.0374
  820MOL0     C10631   8.708   9.821   7.565  0.6952 -1.2327  0.1725
  820MOL0     C10632   8.585   9.858   7.515 -0.5984  0.0087  1.0973
  820MOL0     H10633   8.054   9.663   7.385 -1.4133 -1.4460  0.1976
  820MOL0     H10634   7.831   9.755   7.319  1.5129 -0.7584 -0.0106
  820MOL0     H10635   7.621   9.973   7.567  2.5295 -2.0248 -0.6423
  820MOL0     H10636   7.709  10.118   7.503  0.4349  0.6242 -2.9406
  820MOL0     H10637   7.550  10.126   7.322 -1.4172  1.6672  1.0179
  820MOL0     H10638   7.464   9.977   7.400  2.5174 -1.2633  0.1456
  820MOL0     H10639   7.355  10.204   7.422 -0.2611  1.8158  0.7667
  820MOL0     H10640   7.411  10.141   7.576 -0.1508 -0.2829 -0.7647
  820MOL0     H10641   7.601  10.313   7.561 -2.5219 -2.7558  2.2177
  820MOL0     H10642   7.548  10.343   7.389  0.9468 -1.2219  0.5176
  820MOL0     H10643   7.396  10.397   7.633 -1.5297 -0.0849 -1.3552
  820MOL0     H10644   7.497  10.523   7.551  1.7480 -1.6267 -0.9616
  820MOL0     H10645   7.355  10.547   7.374  1.4133  3.0705  3.6154
  820MOL0     H10646   7.276  10.393   7.380 -0.7743  1.1284  0.1908
  820MOL0     H10647   7.114  10.505   7.461  1.1165 -1.6319 -0.5535
  820MOL0     H10648   7.204  10.484   7.626  4.1273 -1.4010 -0.1416
  820MOL0     H10649   7.208  10.724   7.436  2.6269 -2.9218 -1.9648
  820MOL0     H10650   7.307  10.704   7.578 -0.8700 -0.3621  1.5260
  820MOL0     H10651   7.221  10.902   7.700 -1.0119  0.9901  2.6371
  820MOL0     H10652   6.962  10.935   7.957 -4.6308 -1.4760 -1.7506
  820MOL0     H10653   7.090  11.026   7.867  0.2925 -4.0951 -0.4356
  820MOL0     H10654   6.782  11.014   7.813 -0.5045  1.8157  0.1302
  820MOL0     H10655   6.897  11.104   7.720 -2.9049  2.1742  0.9806
  820MOL0     H10656   6.945  11.249   7.926 -1.3214  1.6948  5.0359
  820MOL0     H10657   6.867  11.129   8.029 -1.7141 -0.5402 -0.4622
  820MOL0     H10658   6.727  11.315   7.829  1.0359  0.8110  0.1794
  820MOL0     H10659   6.736  11.331   8.006 -0.6850 -0.2643  0.2745
  820MOL0     H10660   6.530  11.395   7.832  1.4385 -0.0309 -1.0331
  820MOL0     H10661   6.210  11.490   7.746  1.3870 -1.1701 -0.4047
  820MOL0     H10662   6.242  11.564   7.897  0.9149  2.3293 -1.2261
  820MOL0     H10663   6.374  11.551   7.778  1.9079 -0.3392  1.7327
  820MOL0     H10664   5.867  11.430   8.061  3.1504 -2.2531 -0.0643
  820MOL0     H10665   5.624  11.435   8.114 -0.4717 -0.9675  1.2666
  820MOL0     H10666   5.417  11.124   7.961  0.3945 -0.0719  1.4910
  820MOL0     H10667   5.383  11.059   8.110  0.1281 -2.0469 -3.4738
  820MOL0     H10668   5.215  11.299   8.025 -2.2019 -0.6667  0.9175
  820MOL0     H10669   5.173  11.140   7.984 -3.0027  2.2210  0.8067
  820MOL0     H10670   5.205  11.263   8.261  0.2376  1.8726 -1.2756
  820MOL0     H10671   5.195  11.083   8.226  0.3226  0.2240 -1.1835
  820MOL0     H10672   4.983  11.177   8.301  0.4683 -1.4868  0.0967
  820MOL0     H10673   4.999  11.305   8.192 -1.0927 -0.6651  0.4399
  820MOL0     H10674   4.959  11.003   8.121  0.7067  0.2360 -0.0686
  820MOL0     H10675   4.980  11.149   8.002  0.9153  2.3521  0.8685
  820MOL0     H10676   4.766  11.153   8.200 -1.9690 -4.2502  0.0344
  820MOL0     H10677   4.790  11.239   8.043  0.6559 -0.7757  0.3771
  820MOL0     H10678   4.742  10.947   8.066 -0.5555 -1.0592 -1.3257
  820MOL0     H10679   4.740  11.039   7.915  0.3857  1.8680 -0.2002
  820MOL0     H10680   4.545  11.152   7.989  2.7061  1.2428  0.8337
  820MOL0     H10681   4.543  11.070   8.145  2.7476  0.2866  1.3211
  820MOL0     H10682   5.591  11.018   8.064 -0.9025 -0.0297 -0.2696
  820MOL0     H10683   5.833  11.015   7.971 -1.8772 -0.2356  0.7851
  820MOL0     H10684   6.195  11.077   8.012  2.1631 -0.7358  0.6733
  820MOL0     H10685   6.431  11.019   8.018 -0.5299 -1.1891 -0.3974
  820MOL0     H10686   7.875  10.070   7.599 -2.1975 -0.3212  0.0955
  820MOL0     H10687   8.096   9.997   7.655 -1.5094 -0.3801  1.0595
  820MOL0     H10688   8.382   9.636   7.670 -0.9311  0.2820  0.3341
  820MOL0     H10689   8.601   9.579   7.774 -0.2589 -2.0052 -1.5670
  820MOL0     H10690   8.975   9.710   7.591 -0.2606  1.7624 -0.2722
  820MOL0     H10691   8.944   9.828   7.722 -0.3673 -0.3919  0.5171
  820MOL0     H10692   9.021   9.668   7.886  1.3925 -1.2130  0.4314
  820MOL0     H10693   9.149   9.734   7.789  0.0599 -1.4730  2.6179
  820MOL0     H10694   9.087   9.494   7.651  2.3869  0.5600 -0.1030
  820MOL0     H10695   9.026   9.461   7.816  0.7289  1.0668  2.1046
  820MOL0     H10696   9.247   9.369   7.816  1.6154  0.2697 -1.1324
  820MOL0     H10697   9.267   9.533   7.893 -1.9162  0.6724  0.3224
  820MOL0     H10698   9.459   9.613   7.530 -1.9529  0.9574 -2.2330
  820MOL0     H10699   8.794   9.874   7.525 -1.2898  2.8859  0.7713
  820MOL0     H10700   8.600   9.935   7.440  4.1606 -1.7594 -0.1445
  821MOL0     O10701   6.503   7.533  10.551  0.4795 -0.0043  0.1287
  821MOL0     C10702   6.453   7.636  10.585 -0.5574  0.0022 -0.3055
  821MOL0     O10703   6.519   7.731  10.663  0.3705  0.2119 -0.3076
  821MOL0     C10704   6.646   7.688  10.702 -0.2389 -0.2862 -0.2882
  821MOL0     C10705   6.667   7.602  10.806  0.0781 -0.4346  0.2080
  821MOL0     C10706   6.791   7.582  10.854  0.8032 -0.3217 -0.0491
  821MOL0     C10707   6.898   7.645  10.797 -0.1306  0.9594 -0.3829
  821MOL0     O10708   7.023   7.623  10.836 -0.2928 -0.0539 -0.0357
  821MOL0     C10709   7.049   7.490  10.875 -0.6583 -0.3783 -0.4424
  821MOL0     C10710   7.193   7.469  10.871 -0.1931  0.5138  0.3125
  821MOL0     C10711   7.230   7.399  10.729 -0.2596  0.4622 -0.0662
  821MOL0     C10712   7.229   7.503  10.615  0.2326 -0.5900 -0.0894
  821MOL0     C10713   7.303   7.471  10.482 -0.8292 -1.1252 -0.0498
  821MOL0     C10714   7.437   7.387  10.505 -0.0530 -0.1500  0.2113
  821MOL0     C10715   7.543   7.420  10.398  0.1784  0.2693  0.9435
  821MOL0     C10716   7.684   7.353  10.427 -0.1063 -1.0234  0.2225
  821MOL0     N10717   7.677   7.202  10.408 -0.3245  0.0112 -0.2920
  821MOL0     C10718   7.680   7.138  10.292  0.3967 -0.1858  0.1804
  821MOL0     C10719   7.687   7.011  10.327  0.3283 -0.3472  0.1952
  821MOL0     C10720   7.692   6.899  10.228  1.0152  0.7805  0.9215
  821MOL0     C10721   7.824   6.915  10.152 -0.9309 -0.4076 -0.1793
  821MOL0     C10722   7.850   6.792  10.068  0.0908  0.4467  0.0495
  821MOL0     C10723   7.945   6.828   9.955  1.1047  0.2940  0.0419
  821MOL0     O10724   8.076   6.849  10.020  0.0593  0.3385  0.0839
  821MOL0     C10725   8.176   6.908   9.945 -0.4490 -0.4752 -0.6543
  821MOL0     C10726   8.177   6.915   9.811 -0.2140 -0.4801  0.6889
  821MOL0     C10727   8.288   6.957   9.736 -0.0442 -0.0297  0.1155
  821MOL0     C10728   8.271   6.958   9.587  0.6915 -0.3309  0.6267
  821MOL0     C10729   8.416   6.983   9.800  0.3221 -0.5891 -0.3430
  821MOL0     C10730   8.528   7.037   9.725  0.4841  0.6947  0.1076
  821MOL0     O10731   8.554   6.998   9.593  0.0153  0.5560 -0.6030
  821MOL0     C10732   8.643   7.080   9.533 -0.0697 -0.4345  0.2913
  821MOL0     C10733   8.774   7.041   9.531 -0.6860 -0.4287 -0.4223
  821MOL0     C10734   8.866   7.128   9.477 -0.0772 -0.3996  0.3013
  821MOL0     C10735   8.830   7.252   9.434 -0.1944 -0.1204  0.0429
  821MOL0     O10736   8.912   7.346   9.373 -0.4736  0.5727  0.2786
  821MOL0     C10737   9.048   7.306   9.338 -0.5498 -0.0203  0.0080
  821MOL0     C10738   9.102   7.398   9.222  0.1661  0.2367 -0.4377
  821MOL0     C10739   9.048   7.371   9.083 -1.1441 -0.6417 -0.4090
  821MOL0     C10740   9.082   7.464   8.968  0.0555 -0.4871  0.0069
  821MOL0     C10741   9.019   7.424   8.840 -0.6150 -0.0705  0.0530
  821MOL0     C10742   8.866   7.463   8.850  0.0170 -0.0353  0.0571
  821MOL0     C10743   8.818   7.495   8.707 -0.2638 -0.1846 -1.3298
  821MOL0     C10744   8.668   7.519   8.704 -0.4308 -0.5317 -1.3021
  821MOL0    Cl10745   8.617   7.561   8.542 -0.3021 -0.4667 -0.1335
  821MOL0     C10746   8.696   7.293   9.446 -0.4108 -0.1025 -0.3869
  821MOL0     C10747   8.603   7.194   9.477  1.2574 -1.0981  0.6138
  821MOL0     O10748   8.602   7.112   9.789 -0.0391 -0.6274  1.1319
  821MOL0     C10749   8.416   6.978   9.946  0.0249 -0.4674 -0.0291
  821MOL0     C10750   8.300   6.932  10.012 -0.3637 -0.1038 -0.2353
  821MOL0     N10751   7.674   6.994  10.461  0.6180 -0.5530 -0.4563
  821MOL0     N10752   7.673   7.111  10.512 -0.0694 -0.0217 -0.0474
  821MOL0     C10753   6.885   7.737  10.692 -0.1547  0.3467 -0.9062
  821MOL0     C10754   6.747   7.766  10.655 -0.3073 -0.4283  0.1114
  821MOL0     C10755   6.317   7.662  10.533 -0.1256  0.0183 -0.1242
  821MOL0     C10756   6.255   7.573  10.448  0.2940  0.1025 -0.4906
  821MOL0     C10757   6.125   7.597  10.402 -0.0973  0.3735  0.3971
  821MOL0     C10758   6.046   7.702  10.441 -0.1479 -0.3975 -0.4342
  821MOL0     O10759   5.922   7.716  10.390 -0.2199 -0.3949 -0.0620
  821MOL0     C10760   5.845   7.836  10.401 -0.1306 -0.1432  0.0736
  821MOL0     C10761   5.772   7.831  10.539  0.1426  0.4494 -0.6083
  821MOL0     C10762   5.648   7.923  10.548  0.9349  0.7244 -0.1378
  821MOL0     C10763   5.506   7.854  10.514 -1.6276 -0.5301  1.5738
  821MOL0     C10764   5.519   7.779  10.389 -1.0115  0.2366 -0.1390
  821MOL0     C10765   5.510   7.714  10.288  0.3736 -0.1726  0.6222
  821MOL0     C10766   6.109   7.796  10.522  0.0780 -0.0672  0.6383
  821MOL0     C10767   6.238   7.775  10.568 -1.1481  0.3782  0.1294
  821MOL0     H10768   6.578   7.556  10.848 -0.3623 -0.1665 -0.4130
  821MOL0     H10769   6.799   7.509  10.934 -1.1184 -0.6253 -0.0804
  821MOL0     H10770   7.023   7.471  10.979  1.5817 -0.4844  0.1406
  821MOL0     H10771   6.991   7.417  10.817 -0.4370 -1.9845  1.2839
  821MOL0     H10772   7.248   7.563  10.882  2.4804 -0.9793  0.4239
  821MOL0     H10773   7.212   7.394  10.948 -2.3503 -2.9469 -2.2311
  821MOL0     H10774   7.336   7.371  10.738 -0.6014 -0.3935  2.0939
  821MOL0     H10775   7.180   7.304  10.712 -0.5876  0.8535 -1.3396
  821MOL0     H10776   7.124   7.533  10.607  0.3000  0.6657  2.6440
  821MOL0     H10777   7.279   7.594  10.648  0.3681 -0.9431  0.6917
  821MOL0     H10778   7.235   7.404  10.428  1.5940 -2.2670 -1.9200
  821MOL0     H10779   7.309   7.567  10.430  1.0941  0.1115  2.2649
  821MOL0     H10780   7.485   7.420  10.597 -0.5459 -1.4649  0.9729
  821MOL0     H10781   7.427   7.279  10.524 -0.6825  0.3779  3.3811
  821MOL0     H10782   7.501   7.388  10.302  1.2730 -1.6115  1.0569
  821MOL0     H10783   7.549   7.529  10.392  2.3067  0.3354  3.0313
  821MOL0     H10784   7.719   7.378  10.528  0.3713 -1.3029  0.1275
  821MOL0     H10785   7.765   7.393  10.365  2.5493 -2.0083  2.8037
  821MOL0     H10786   7.676   7.175  10.191  1.4461  1.0647  0.5691
  821MOL0     H10787   7.694   6.801  10.276 -1.0648 -0.4128 -1.2489
  821MOL0     H10788   7.614   6.900  10.152  0.6279 -3.1347  1.0691
  821MOL0     H10789   7.902   6.924  10.227  1.0389 -1.9499 -1.9040
  821MOL0     H10790   7.814   7.010  10.098  0.3721  1.6658  2.9552
  821MOL0     H10791   7.758   6.762  10.016 -0.1244  1.6263 -0.2976
  821MOL0     H10792   7.884   6.707  10.127  0.8623  0.8704  0.2287
  821MOL0     H10793   7.913   6.920   9.907 -0.6932 -0.2548  0.1105
  821MOL0     H10794   7.948   6.739   9.891 -0.5143  0.5025 -0.3572
  821MOL0     H10795   8.080   6.900   9.765 -1.7812  1.0160  3.2486
  821MOL0     H10796   8.326   7.043   9.545  0.2711 -0.7270 -0.8123
  821MOL0     H10797   8.307   6.866   9.541 -1.4395 -0.8903 -0.0470
  821MOL0     H10798   8.167   6.974   9.556  0.9970  1.9747  0.6631
  821MOL0     H10799   8.800   6.954   9.591 -1.7255 -0.1172  0.5069
  821MOL0     H10800   8.971   7.104   9.488 -0.1084 -0.6254  0.1210
  821MOL0     H10801   9.114   7.314   9.425  1.0688 -1.6908 -0.9850
  821MOL0     H10802   9.050   7.205   9.296 -0.3181  0.7409 -1.9219
  821MOL0     H10803   9.063   7.499   9.242  0.4304  0.8646 -2.7645
  821MOL0     H10804   9.212   7.396   9.223  0.1926  0.7504 -1.3344
  821MOL0     H10805   8.940   7.358   9.091 -0.9746 -1.3500  1.0970
  821MOL0     H10806   9.088   7.272   9.060  0.6643 -0.2693  0.9463
  821MOL0     H10807   9.070   7.568   8.998  0.5578 -0.8231  1.4429
  821MOL0     H10808   9.190   7.459   8.948 -0.1471  2.7150 -2.7061
  821MOL0     H10809   9.025   7.318   8.813 -5.9849 -0.8466  0.8879
  821MOL0     H10810   9.068   7.487   8.766  1.7032 -1.5678  0.1840
  821MOL0     H10811   8.811   7.380   8.896  0.7534 -0.8267 -0.4477
  821MOL0     H10812   8.856   7.558   8.903 -2.1811  0.0662 -0.4473
  821MOL0     H10813   8.834   7.421   8.627 -0.7335  2.5336 -4.1355
  821MOL0     H10814   8.862   7.585   8.664 -0.2539  1.6378  2.2014
  821MOL0     H10815   8.638   7.590   8.782 -2.3209 -2.1974 -0.4155
  821MOL0     H10816   8.623   7.422   8.728  0.1044 -0.2092  1.4067
  821MOL0     H10817   8.667   7.396   9.433  0.2042  0.1606  0.2331
  821MOL0     H10818   8.496   7.212   9.476  0.8509 -2.9507 -2.2870
  821MOL0     H10819   8.506   7.001  10.003 -0.4300  1.4855 -0.0434
  821MOL0     H10820   8.307   6.926  10.120 -0.8475 -3.7742 -0.2726
  821MOL0     H10821   6.964   7.801  10.654 -1.9674  3.5556  0.3329
  821MOL0     H10822   6.727   7.826  10.567 -0.1440 -1.2817 -0.5191
  821MOL0     H10823   6.305   7.482  10.418 -2.1152 -2.1755  1.9317
  821MOL0     H10824   6.084   7.526  10.332 -1.8532  0.4386  1.2894
  821MOL0     H10825   5.906   7.927  10.392 -1.5840  0.9466  0.9245
  821MOL0     H10826   5.779   7.837  10.314  0.0266 -1.7314 -0.0962
  821MOL0     H10827   5.840   7.863  10.619  0.7198  2.3399 -1.7923
  821MOL0     H10828   5.733   7.732  10.568  1.9702 -0.2650 -0.4515
  821MOL0     H10829   5.671   8.009  10.484 -1.6858  2.5818  1.2297
  821MOL0     H10830   5.626   7.958  10.649  3.0403  2.1702 -0.1223
  821MOL0     H10831   5.429   7.930  10.499 -2.6642 -2.0035 -1.2858
  821MOL0     H10832   5.466   7.790  10.593 -1.2038 -0.7345  1.6254
  821MOL0     H10833   5.492   7.656  10.200  2.9531 -2.3164  1.3733
  821MOL0     H10834   6.079   7.898  10.545 -3.2843 -0.8724  0.4688
  821MOL0     H10835   6.284   7.844  10.639  1.8566  0.0517 -1.3357
  822MOL0     O10836   9.693   6.280   8.239  0.7191 -0.4768 -0.4322
  822MOL0     C10837   9.749   6.360   8.167  0.4415  0.6390  0.6722
  822MOL0     O10838   9.800   6.328   8.047  0.0776  0.6533 -0.4152
  822MOL0     C10839   9.800   6.197   8.004 -0.0197 -0.2197  0.5792
  822MOL0     C10840   9.922   6.143   7.970  0.3200  0.1872 -0.2692
  822MOL0     C10841   9.933   6.016   7.909  0.5188  0.0868 -0.4925
  822MOL0     C10842   9.813   5.953   7.888  0.2046  0.2759  0.2471
  822MOL0     O10843   9.808   5.825   7.834 -0.4292  0.0413 -0.0917
  822MOL0     C10844   9.925   5.748   7.819  0.4525 -0.1798 -0.2500
  822MOL0     C10845   9.878   5.606   7.784  0.3484 -0.9180 -0.5580
  822MOL0     C10846   9.976   5.486   7.795 -0.5969  0.4166 -0.3163
  822MOL0     C10847   9.964   5.402   7.923 -0.4138 -0.7618 -0.5902
  822MOL0     C10848   9.920   5.251   7.903 -0.0352 -0.1191  0.3624
  822MOL0     C10849   9.882   5.177   8.037 -0.0573  0.1976  0.2499
  822MOL0     C10850   9.740   5.206   8.084  0.4229  0.9229  0.5625
  822MOL0     C10851   9.634   5.112   8.020  1.2641  0.3507 -0.5465
  822MOL0     N10852   9.500   5.159   8.052  0.3584  0.1930 -0.0780
  822MOL0     C10853   9.433   5.156   8.170  1.0530 -0.8708  0.3001
  822MOL0     C10854   9.305   5.198   8.143 -0.4390  0.2091  0.4945
  822MOL0     C10855   9.185   5.188   8.225 -0.4483 -0.6419  0.3044
  822MOL0     C10856   9.123   5.052   8.233  0.2452 -0.0033 -0.6955
  822MOL0     C10857   8.974   5.066   8.289 -0.1555 -0.4062  0.7467
  822MOL0     C10858   8.989   5.084   8.441 -0.5741  0.0269 -0.2537
  822MOL0     O10859   9.018   4.966   8.522  0.1788 -0.4432  0.5107
  822MOL0     C10860   8.926   4.869   8.561  0.2393 -0.6666 -0.2885
  822MOL0     C10861   8.793   4.872   8.525 -0.4093 -0.6226 -0.1802
  822MOL0     C10862   8.703   4.766   8.565 -0.1585  1.0839  0.3132
  822MOL0     C10863   8.565   4.782   8.521  0.9081  0.3623 -0.1714
  822MOL0     C10864   8.740   4.669   8.660  0.0587 -0.4384 -0.1970
  822MOL0     C10865   8.660   4.559   8.717  1.1606  0.4246 -0.6163
  822MOL0     O10866   8.700   4.512   8.843 -0.1929 -0.1725 -0.0989
  822MOL0     C10867   8.627   4.424   8.922  0.0356  0.8035 -0.2219
  822MOL0     C10868   8.536   4.327   8.870  0.2217  0.6875 -0.9392
  822MOL0     C10869   8.465   4.241   8.952  0.4705 -0.0686 -0.1716
  822MOL0     C10870   8.482   4.246   9.095  0.4107 -0.3447  0.7735
  822MOL0     O10871   8.409   4.165   9.175  0.4087 -0.1593 -0.5208
  822MOL0     C10872   8.280   4.108   9.140 -0.1302  0.9783 -0.8826
  822MOL0     C10873   8.207   4.057   9.275  0.6325 -0.0703  0.4544
  822MOL0     C10874   8.193   4.176   9.374 -0.6314  0.1290  0.0443
  822MOL0     C10875   8.082   4.151   9.463  0.0405 -0.9423 -0.7903
  822MOL0     C10876   8.073   4.267   9.568 -0.4824  0.4638  0.2632
  822MOL0     C10877   7.934   4.274   9.627 -0.8699 -0.1653 -0.4963
  822MOL0     C10878   7.904   4.386   9.730  0.2963 -1.0280 -1.1148
  822MOL0     C10879   8.018   4.410   9.827  0.0925 -0.1551 -0.4919
  822MOL0    Cl10880   7.948   4.478   9.976  0.1349  0.4075  0.1355
  822MOL0     C10881   8.566   4.339   9.149 -0.5654 -0.1925 -0.1188
  822MOL0     C10882   8.636   4.432   9.070 -0.2350  0.4821 -0.4316
  822MOL0     O10883   8.578   4.505   8.649 -0.0044 -0.4528 -0.2693
  822MOL0     C10884   8.873   4.680   8.707 -0.1741 -0.2479  0.3874
  822MOL0     C10885   8.969   4.768   8.649 -0.1324 -0.3246  1.0910
  822MOL0     N10886   9.303   5.227   8.005  0.3850 -0.1456  1.0263
  822MOL0     N10887   9.420   5.196   7.950  0.4848 -0.1466 -0.5902
  822MOL0     C10888   9.693   5.999   7.923  0.2506  0.1729 -0.1718
  822MOL0     C10889   9.683   6.125   7.986  0.6961  0.3813 -0.1847
  822MOL0     C10890   9.760   6.502   8.217  0.3411  0.2434  0.0739
  822MOL0     C10891   9.854   6.585   8.167  1.6134  0.2668  0.1654
  822MOL0     C10892   9.856   6.716   8.218 -0.3389 -0.3417  0.4064
  822MOL0     C10893   9.773   6.750   8.327 -0.5666 -0.8773 -0.1443
  822MOL0     O10894   9.795   6.874   8.388  0.1700  0.0066 -0.5635
  822MOL0     C10895   9.692   6.952   8.452  0.0583 -1.0821 -1.1613
  822MOL0     C10896   9.740   7.072   8.524 -0.3251 -0.3155 -0.3579
  822MOL0     C10897   9.808   7.182   8.439  0.3732 -1.5874 -0.5656
  822MOL0     C10898   9.855   7.296   8.533  0.2475 -0.2467  0.0028
  822MOL0     C10899   9.960   7.262   8.632  0.4523 -0.0418  0.6411
  822MOL0     C10900  10.062   7.249   8.696  0.1643  1.3119  1.1840
  822MOL0     C10901   9.691   6.657   8.387 -0.1277  0.6792  1.9809
  822MOL0     C10902   9.685   6.527   8.332  0.1954 -0.4012 -0.5513
  822MOL0     H10903  10.007   6.210   7.974  0.9159 -0.4350 -1.7523
  822MOL0     H10904  10.025   5.981   7.863 -0.2036 -1.5416 -0.7614
  822MOL0     H10905   9.995   5.790   7.746  0.6539 -2.0971 -1.2285
  822MOL0     H10906   9.973   5.743   7.917  1.6496 -0.2423 -0.8172
  822MOL0     H10907   9.784   5.587   7.837  0.3889 -0.6480 -0.3873
  822MOL0     H10908   9.851   5.611   7.679  1.2008  4.5946 -0.8110
  822MOL0     H10909   9.954   5.414   7.715  0.0108 -1.2013  0.9129
  822MOL0     H10910  10.074   5.530   7.775  0.5747 -1.1363  1.5685
  822MOL0     H10911  10.057   5.414   7.978 -1.0137  1.0594  0.1067
  822MOL0     H10912   9.890   5.440   7.995 -1.7657  0.2610 -2.4239
  822MOL0     H10913   9.846   5.252   7.822  1.0596 -0.2001 -0.6715
  822MOL0     H10914  10.002   5.197   7.855 -0.1378 -1.9914  2.1556
  822MOL0     H10915   9.899   5.070   8.026 -0.7480  0.1313 -0.2027
  822MOL0     H10916   9.957   5.204   8.112  0.2305  0.5684 -0.1753
  822MOL0     H10917   9.732   5.188   8.191  2.5019 -0.7613  0.5093
  822MOL0     H10918   9.714   5.309   8.058 -0.2935  0.3631 -1.1100
  822MOL0     H10919   9.650   5.005   8.038 -1.3969 -0.0228  0.0745
  822MOL0     H10920   9.648   5.120   7.912  0.9981 -1.0451 -0.7048
  822MOL0     H10921   9.466   5.113   8.264 -2.5702  0.6758  2.4785
  822MOL0     H10922   9.196   5.245   8.318  0.4669 -1.6375  0.8254
  822MOL0     H10923   9.103   5.245   8.181 -0.3022 -1.5315 -1.1885
  822MOL0     H10924   9.190   5.004   8.304  1.7239  0.0239 -2.0145
  822MOL0     H10925   9.108   5.002   8.136 -1.0969  1.1202 -1.1076
  822MOL0     H10926   8.913   4.976   8.286 -0.1915 -0.4396  2.1486
  822MOL0     H10927   8.927   5.155   8.245  0.2157 -0.2342  0.6872
  822MOL0     H10928   8.894   5.130   8.471  0.5223  2.8902 -0.8418
  822MOL0     H10929   9.057   5.166   8.466  1.1102 -1.7592  1.2785
  822MOL0     H10930   8.760   4.950   8.457  0.5883 -1.1503 -1.2966
  822MOL0     H10931   8.555   4.849   8.436 -0.6274  0.6801  0.2254
  822MOL0     H10932   8.519   4.684   8.502  2.5000 -0.5560  0.5170
  822MOL0     H10933   8.507   4.827   8.602 -3.5491 -2.7408 -1.2177
  822MOL0     H10934   8.531   4.316   8.763  3.0459  0.4037 -1.1111
  822MOL0     H10935   8.404   4.168   8.899  0.4439  1.2370 -2.0237
  822MOL0     H10936   8.220   4.180   9.083  0.4050  1.1569 -1.2262
  822MOL0     H10937   8.295   4.021   9.075  1.3000 -0.5886  1.3940
  822MOL0     H10938   8.116   4.009   9.238 -1.2612  3.3640  0.2140
  822MOL0     H10939   8.271   3.984   9.325 -0.6995 -1.7772 -0.2093
  822MOL0     H10940   8.162   4.264   9.317 -0.2175 -0.4911 -1.1813
  822MOL0     H10941   8.285   4.211   9.421  1.7823 -0.8961 -3.5027
  822MOL0     H10942   7.981   4.141   9.423 -0.2154  0.7292 -0.6151
  822MOL0     H10943   8.100   4.055   9.513  2.5215 -0.9385 -1.5403
  822MOL0     H10944   8.077   4.365   9.520 -1.3420  1.4344  2.0690
  822MOL0     H10945   8.158   4.276   9.635  0.0475  0.1170 -0.3501
  822MOL0     H10946   7.867   4.277   9.541 -1.5125 -0.6343 -0.0225
  822MOL0     H10947   7.909   4.178   9.673  1.0603 -0.5349 -0.1429
  822MOL0     H10948   7.810   4.371   9.784  0.6070 -2.6440 -0.9645
  822MOL0     H10949   7.889   4.477   9.672  0.7572  0.0339  0.3765
  822MOL0     H10950   8.097   4.474   9.787  0.3670 -0.2409 -0.0940
  822MOL0     H10951   8.069   4.315   9.848 -0.4822 -0.4081 -0.2263
  822MOL0     H10952   8.580   4.343   9.257 -3.0241  1.0948  0.2224
  822MOL0     H10953   8.709   4.496   9.118  2.7630 -1.4732 -2.1326
  822MOL0     H10954   8.898   4.605   8.781 -3.5801 -0.2439  1.7230
  822MOL0     H10955   9.075   4.761   8.673  0.2551 -4.2804 -0.9521
  822MOL0     H10956   9.596   5.952   7.910  0.6912 -0.6352 -0.6135
  822MOL0     H10957   9.597   6.188   8.005 -0.2772 -0.5974 -1.2358
  822MOL0     H10958   9.924   6.555   8.090  2.1795  1.7874  0.0484
  822MOL0     H10959   9.924   6.792   8.181 -0.7529 -0.0859  0.1658
  822MOL0     H10960   9.620   6.979   8.375 -2.3802 -0.9042  1.0596
  822MOL0     H10961   9.638   6.893   8.526 -0.6986  3.7899  2.6700
  822MOL0     H10962   9.794   7.038   8.612 -1.3410 -2.1121 -0.3700
  822MOL0     H10963   9.643   7.112   8.556 -1.3457 -1.3767 -1.9383
  822MOL0     H10964   9.747   7.223   8.357  0.9001 -0.0755 -0.2394
  822MOL0     H10965   9.900   7.146   8.392  1.3576 -0.5492  0.4685
  822MOL0     H10966   9.769   7.328   8.593  1.7410  0.4223  1.8953
  822MOL0     H10967   9.888   7.379   8.471 -2.3064  0.2939 -0.7408
  822MOL0     H10968  10.156   7.220   8.740  0.2391 -1.6502 -0.6177
  822MOL0     H10969   9.646   6.683   8.482  0.1872  0.8359  2.0896
  822MOL0     H10970   9.621   6.451   8.375 -0.8969 -0.5150 -2.2524
  823MOL0     O10971   3.684   9.127   5.306  0.2163 -0.9694 -0.0748
  823MOL0     C10972   3.655   9.152   5.188  0.8698 -0.3376 -0.7607
  823MOL0     O10973   3.745   9.181   5.090 -0.1116  0.6756  0.3770
  823MOL0     C10974   3.869   9.219   5.119  1.7845 -0.6293 -0.2097
  823MOL0     C10975   3.897   9.314   5.225 -0.2838 -0.3047  0.8361
  823MOL0     C10976   4.023   9.335   5.261 -0.7936 -0.5280  0.9772
  823MOL0     C10977   4.132   9.261   5.196  0.0778  0.4358 -0.1025
  823MOL0     O10978   4.259   9.295   5.229  0.1536 -0.0726  0.1565
  823MOL0     C10979   4.328   9.192   5.297  0.6683  0.3446 -0.2806
  823MOL0     C10980   4.475   9.228   5.328  0.3449  0.4566  0.7031
  823MOL0     C10981   4.572   9.217   5.205 -0.3335 -0.1981 -0.0054
  823MOL0     C10982   4.716   9.206   5.249 -0.9624  0.2536 -0.6007
  823MOL0     C10983   4.754   9.102   5.367 -0.0950 -0.1429 -0.3610
  823MOL0     C10984   4.902   9.111   5.385  0.0193  0.1733  0.1423
  823MOL0     C10985   4.954   8.993   5.470  1.1499 -0.3092  0.0684
  823MOL0     C10986   4.901   8.987   5.613  0.0478  0.5398 -0.6240
  823MOL0     N10987   4.761   8.942   5.630  0.3122  0.0442  0.1696
  823MOL0     C10988   4.685   8.852   5.552  0.1011  0.3581 -1.1650
  823MOL0     C10989   4.563   8.845   5.607 -0.2550  0.1541  0.1540
  823MOL0     C10990   4.459   8.747   5.564 -0.7118 -0.0514 -0.7710
  823MOL0     C10991   4.324   8.805   5.519  0.5690 -0.7613 -1.1002
  823MOL0     C10992   4.230   8.716   5.444 -0.0003  0.3610  1.1262
  823MOL0     C10993   4.188   8.594   5.529 -0.0218  0.1316  0.5096
  823MOL0     O10994   4.105   8.500   5.453 -0.4173 -0.1097 -0.3431
  823MOL0     C10995   3.971   8.500   5.461 -0.1743 -0.0775 -0.4034
  823MOL0     C10996   3.919   8.477   5.586 -0.2321 -1.3313 -0.0772
  823MOL0     C10997   3.781   8.494   5.610  0.1402 -0.2224 -0.5483
  823MOL0     C10998   3.730   8.505   5.756 -0.3979  0.4982 -0.0355
  823MOL0     C10999   3.700   8.527   5.497  0.1169  0.5578 -0.0721
  823MOL0     C11000   3.556   8.558   5.507 -0.7331 -0.8617  0.3334
  823MOL0     O11001   3.498   8.607   5.392  0.0145 -0.1550 -0.4164
  823MOL0     C11002   3.370   8.651   5.380  0.7555 -0.2685 -0.4731
  823MOL0     C11003   3.259   8.574   5.407 -0.7358 -0.0733  0.2136
  823MOL0     C11004   3.131   8.625   5.398  0.8464 -0.6603  0.2496
  823MOL0     C11005   3.111   8.760   5.375 -0.7022 -0.6899  0.2401
  823MOL0     O11006   2.989   8.815   5.361  0.1336  0.0050  0.6675
  823MOL0     C11007   2.877   8.743   5.427  0.2911  0.0164  0.6002
  823MOL0     C11008   2.743   8.820   5.435  0.0957  0.5825 -0.7754
  823MOL0     C11009   2.675   8.821   5.296  0.0263  0.4340 -0.1005
  823MOL0     C11010   2.540   8.885   5.321 -0.4484  0.0931 -0.1097
  823MOL0     C11011   2.444   8.876   5.201 -1.2366  0.0266 -0.4466
  823MOL0     C11012   2.336   8.986   5.194  0.2018 -0.2729 -0.0219
  823MOL0     C11013   2.240   8.971   5.315  0.0583  0.3420  0.4513
  823MOL0     C11014   2.100   9.040   5.313 -0.0287  0.0522  0.9804
  823MOL0    Cl11015   1.976   8.932   5.239 -0.1020 -0.0616 -0.0064
  823MOL0     C11016   3.218   8.847   5.376 -0.7681 -0.7191  0.6311
  823MOL0     C11017   3.347   8.794   5.370  0.3548  0.5143  0.3315
  823MOL0     O11018   3.491   8.542   5.611  0.5384  0.3433  0.1354
  823MOL0     C11019   3.753   8.532   5.368 -0.3422 -0.9633  0.6433
  823MOL0     C11020   3.887   8.508   5.348 -0.2636 -0.6515 -0.8419
  823MOL0     N11021   4.561   8.915   5.718  0.1460  0.4815 -0.6860
  823MOL0     N11022   4.673   8.974   5.734 -0.2440 -0.1474  0.1156
  823MOL0     C11023   4.095   9.160   5.099 -0.1743  0.1825 -0.3499
  823MOL0     C11024   3.965   9.150   5.056  0.0382 -0.4198 -0.0051
  823MOL0     C11025   3.511   9.167   5.145  0.3173 -0.8563 -0.7026
  823MOL0     C11026   3.482   9.196   5.013  0.1804  0.0419 -0.1548
  823MOL0     C11027   3.349   9.213   4.967  0.4309 -0.5421 -0.3247
  823MOL0     C11028   3.239   9.208   5.060 -0.7554  0.1129  0.4170
  823MOL0     O11029   3.115   9.246   5.026  0.4663  0.0238 -0.1904
  823MOL0     C11030   3.008   9.153   4.999  0.3719  0.6873 -0.4781
  823MOL0     C11031   3.046   9.029   4.916  0.7310  0.0578 -0.0840
  823MOL0     C11032   2.925   8.955   4.850 -0.7117 -0.5344 -0.8082
  823MOL0     C11033   2.954   8.818   4.801 -0.9501  0.4167  0.4502
  823MOL0     C11034   2.985   8.731   4.915  0.3427 -0.6426 -1.0722
  823MOL0     C11035   2.985   8.656   5.011  0.4716  0.4334  1.2226
  823MOL0     C11036   3.275   9.173   5.187  0.5434  0.4052  0.4118
  823MOL0     C11037   3.403   9.152   5.232  0.5582 -0.3006  1.0024
  823MOL0     H11038   3.817   9.376   5.264  0.1573  1.4975 -0.9606
  823MOL0     H11039   4.044   9.409   5.337  2.8257 -0.5923  0.2223
  823MOL0     H11040   4.280   9.192   5.395  0.6651 -2.3483 -0.2013
  823MOL0     H11041   4.321   9.101   5.237  2.5956  0.7605 -1.2204
  823MOL0     H11042   4.477   9.328   5.373 -1.0066  0.9460 -0.2509
  823MOL0     H11043   4.504   9.152   5.400  0.8295  0.1101  0.1484
  823MOL0     H11044   4.543   9.136   5.138 -0.7019  0.7596 -1.0431
  823MOL0     H11045   4.558   9.307   5.144  1.2562 -0.4953 -0.8613
  823MOL0     H11046   4.786   9.186   5.168  1.5539  2.2862  0.9036
  823MOL0     H11047   4.745   9.301   5.296  1.9263 -1.8346  2.2883
  823MOL0     H11048   4.706   9.125   5.463 -0.0604 -3.6344  0.6343
  823MOL0     H11049   4.724   9.001   5.339 -0.5157 -0.0650 -0.2020
  823MOL0     H11050   4.956   9.101   5.291  0.7629 -1.4876  0.6967
  823MOL0     H11051   4.934   9.204   5.434  1.0663  0.2468 -0.6511
  823MOL0     H11052   4.960   8.897   5.419 -0.1164 -0.4849  0.2293
  823MOL0     H11053   5.058   9.020   5.493  1.3018  0.3407 -1.2754
  823MOL0     H11054   4.912   9.084   5.663  0.6509 -0.0951  0.4961
  823MOL0     H11055   4.962   8.919   5.672  1.0748 -1.8539 -4.1202
  823MOL0     H11056   4.721   8.799   5.465  0.9990 -1.5791  0.3022
  823MOL0     H11057   4.509   8.684   5.490 -0.3578 -1.2499  0.4395
  823MOL0     H11058   4.438   8.671   5.640 -0.1351 -0.1520 -0.7109
  823MOL0     H11059   4.337   8.904   5.474  1.8794  0.7484  2.2336
  823MOL0     H11060   4.276   8.834   5.613 -0.5885 -2.2857 -1.1837
  823MOL0     H11061   4.266   8.686   5.345 -3.3210  1.5207 -0.6023
  823MOL0     H11062   4.133   8.765   5.432  0.6216  1.8293  1.8645
  823MOL0     H11063   4.137   8.632   5.618 -0.0151  0.9067  0.1896
  823MOL0     H11064   4.279   8.542   5.558 -0.5214 -1.2535 -0.2961
  823MOL0     H11065   3.973   8.458   5.678 -0.3420 -1.6953 -0.0883
  823MOL0     H11066   3.676   8.413   5.780 -0.2661  0.2650 -0.6193
  823MOL0     H11067   3.812   8.506   5.828  0.5747 -2.1723 -0.9901
  823MOL0     H11068   3.673   8.597   5.771 -0.1326  0.7203 -0.3753
  823MOL0     H11069   3.288   8.470   5.419  1.6387  0.7226  1.9651
  823MOL0     H11070   3.040   8.568   5.413  0.4315 -0.0306  0.1793
  823MOL0     H11071   2.840   8.663   5.362  0.4825  1.9168 -2.0206
  823MOL0     H11072   2.891   8.690   5.522  0.9263 -3.4378 -1.2257
  823MOL0     H11073   2.675   8.774   5.508  2.9201  0.6721  2.1090
  823MOL0     H11074   2.753   8.920   5.478 -1.0200  0.8533 -1.0883
  823MOL0     H11075   2.661   8.722   5.250  1.5839 -0.5386  1.3704
  823MOL0     H11076   2.720   8.881   5.217 -2.2689  0.4165 -1.5096
  823MOL0     H11077   2.489   8.841   5.408  1.1652 -0.0571  0.8033
  823MOL0     H11078   2.561   8.989   5.348  0.8008 -0.4281  0.9788
  823MOL0     H11079   2.403   8.775   5.191 -1.4813  0.1234 -0.4061
  823MOL0     H11080   2.505   8.893   5.111 -0.1922 -0.3574  0.1650
  823MOL0     H11081   2.375   9.089   5.190  1.8944 -0.9071 -2.9367
  823MOL0     H11082   2.271   8.977   5.106 -1.8230  1.5170  1.1617
  823MOL0     H11083   2.296   9.017   5.397 -1.0054  2.7972 -0.1038
  823MOL0     H11084   2.227   8.866   5.342  3.4210 -1.4501 -3.7854
  823MOL0     H11085   2.116   9.134   5.260  0.8841 -0.2985  0.6239
  823MOL0     H11086   2.068   9.053   5.417  1.2131  1.9809  1.1664
  823MOL0     H11087   3.213   8.955   5.366 -3.8471 -0.8648 -0.8523
  823MOL0     H11088   3.430   8.864   5.370  0.0637  0.9451  3.1368
  823MOL0     H11089   3.698   8.548   5.276  1.9879  1.7161 -0.4294
  823MOL0     H11090   3.934   8.514   5.250 -2.1508  0.3947 -1.7430
  823MOL0     H11091   4.157   9.081   5.056  1.1661  1.0979 -0.1643
  823MOL0     H11092   3.931   9.077   4.984 -1.1747  0.0265  0.0986
  823MOL0     H11093   3.561   9.209   4.940 -0.1821  0.4797 -0.4729
  823MOL0     H11094   3.330   9.241   4.864 -2.2549  0.2934  0.3071
  823MOL0     H11095   2.967   9.128   5.097  1.7836  7.8468  2.5687
  823MOL0     H11096   2.927   9.213   4.957 -0.9173 -0.1210  0.7843
  823MOL0     H11097   3.093   8.959   4.986 -1.7100 -1.6205 -0.0159
  823MOL0     H11098   3.119   9.067   4.843  1.2385  2.4670  1.5363
  823MOL0     H11099   2.891   9.016   4.766  1.3064 -1.8172 -2.6927
  823MOL0     H11100   2.850   8.948   4.929  2.6793  0.1182  2.8282
  823MOL0     H11101   3.038   8.810   4.732  0.0908 -1.9848  1.8701
  823MOL0     H11102   2.862   8.781   4.754  1.0717 -0.7986 -2.9581
  823MOL0     H11103   3.012   8.593   5.093 -0.1291 -0.8839  0.4516
  823MOL0     H11104   3.191   9.165   5.256 -0.4097  1.6683 -0.5549
  823MOL0     H11105   3.423   9.132   5.337 -2.0003  2.3260  2.1088
  824MOL0     O11106   1.341   6.311   7.314 -0.0226 -0.7596 -0.0996
  824MOL0     C11107   1.461   6.339   7.290  0.0353  0.8538  0.7045
  824MOL0     O11108   1.504   6.380   7.172  0.7824  0.4110 -0.5223
  824MOL0     C11109   1.405   6.399   7.075  0.2984  0.1276  0.9470
  824MOL0     C11110   1.400   6.311   6.968 -0.6534  0.0974 -0.1306
  824MOL0     C11111   1.302   6.328   6.864 -0.2597  1.1812 -0.2498
  824MOL0     C11112   1.200   6.417   6.887 -0.1077  0.3941  0.4897
  824MOL0     O11113   1.101   6.435   6.794 -1.1075  0.3075 -0.0281
  824MOL0     C11114   0.974   6.375   6.827 -0.8376  0.5645  0.1340
  824MOL0     C11115   0.875   6.446   6.926  0.1305 -0.6375 -0.1899
  824MOL0     C11116   0.734   6.383   6.909 -0.0149 -0.3461 -0.0536
  824MOL0     C11117   0.665   6.415   6.772  0.4958  0.0728  0.2515
  824MOL0     C11118   0.516   6.399   6.793 -0.0765 -0.0532  0.4681
  824MOL0     C11119   0.441   6.402   6.651 -0.0379  0.5092 -0.0588
  824MOL0     C11120   0.494   6.507   6.552  0.4553 -0.2849  0.5819
  824MOL0     C11121   0.474   6.647   6.600 -0.2638 -0.6514  0.6415
  824MOL0     N11122   0.354   6.675   6.682  0.3703 -0.8276 -0.1077
  824MOL0     C11123   0.225   6.684   6.644  0.4317 -0.1761 -0.4205
  824MOL0     C11124   0.153   6.729   6.752 -0.6312 -0.6436 -0.7604
  824MOL0     C11125   0.008   6.771   6.745 -0.0562 -0.7634 -0.2974
  824MOL0     C11126  -0.094   6.661   6.762  0.5520 -0.6581 -0.4352
  824MOL0     C11127  -0.241   6.715   6.776  0.2902 -0.6584  0.5765
  824MOL0     C11128  -0.338   6.592   6.768 -0.8696 -0.6057  0.2959
  824MOL0     O11129  -0.282   6.481   6.843 -0.2033 -0.0488 -0.6826
  824MOL0     C11130  -0.296   6.480   6.985 -0.0354 -0.1703 -0.6608
  824MOL0     C11131  -0.203   6.391   7.047  0.2405  0.3793  0.0889
  824MOL0     C11132  -0.205   6.373   7.191 -0.9480  0.6899 -0.3295
  824MOL0     C11133  -0.108   6.272   7.262  0.5115  0.6018 -0.4102
  824MOL0     C11134  -0.293   6.451   7.268  0.1081  0.9007  0.6633
  824MOL0     C11135  -0.298   6.456   7.413  0.3265 -0.7960 -1.0919
  824MOL0     O11136  -0.372   6.557   7.462  0.2035  0.1613 -0.2980
  824MOL0     C11137  -0.373   6.578   7.595  0.6441 -0.7036 -0.7642
  824MOL0     C11138  -0.293   6.679   7.648 -1.3494  0.0588 -0.3479
  824MOL0     C11139  -0.290   6.705   7.787  0.4920  0.0984  0.0972
  824MOL0     C11140  -0.384   6.630   7.868 -0.1114 -0.3374  0.5429
  824MOL0     O11141  -0.389   6.636   8.006 -0.0863 -0.1939 -0.1682
  824MOL0     C11142  -0.287   6.710   8.074  0.4249 -0.3656 -0.2562
  824MOL0     C11143  -0.321   6.707   8.222  0.4620 -0.6458  0.8780
  824MOL0     C11144  -0.312   6.570   8.281  1.3916 -0.3250  0.5115
  824MOL0     C11145  -0.194   6.484   8.241 -0.8743 -0.2670  0.2228
  824MOL0     C11146  -0.194   6.360   8.328  0.2095 -0.4643  0.2771
  824MOL0     C11147  -0.055   6.295   8.308 -0.0844  0.9110  0.6556
  824MOL0     C11148  -0.059   6.144   8.354  0.2172  0.1160  0.1319
  824MOL0     C11149   0.078   6.093   8.383  0.0981 -0.6546  0.1273
  824MOL0    Cl11150   0.167   6.160   8.534 -0.0045 -0.1177 -0.1538
  824MOL0     C11151  -0.467   6.545   7.813  0.2022 -0.1478  0.1400
  824MOL0     C11152  -0.475   6.515   7.677  0.1894 -0.1642  0.5921
  824MOL0     O11153  -0.257   6.361   7.479 -0.5842  0.3479 -0.3157
  824MOL0     C11154  -0.369   6.547   7.200  0.0209  0.3416 -1.1298
  824MOL0     C11155  -0.381   6.553   7.062  0.0422  0.2434 -0.4538
  824MOL0     N11156   0.244   6.758   6.853 -0.3821  0.8004  0.4121
  824MOL0     N11157   0.356   6.710   6.815  0.0705  0.4514 -0.3263
  824MOL0     C11158   1.210   6.504   6.997  0.2964  0.2077  0.0356
  824MOL0     C11159   1.307   6.495   7.093  0.2370 -0.0398 -0.3987
  824MOL0     C11160   1.557   6.330   7.403  0.0229 -0.8874  0.3693
  824MOL0     C11161   1.689   6.387   7.407  0.4836 -0.1146  0.1431
  824MOL0     C11162   1.773   6.388   7.521 -0.4173 -0.5568  1.3261
  824MOL0     C11163   1.733   6.313   7.627  0.6491  0.7050  0.6951
  824MOL0     O11164   1.797   6.317   7.747  0.6661 -0.5150  0.2672
  824MOL0     C11165   1.756   6.230   7.856 -0.0921 -0.1036  0.4035
  824MOL0     C11166   1.852   6.272   7.969 -0.4975 -0.0556 -0.1595
  824MOL0     C11167   1.995   6.215   7.931  0.6687  0.2268  0.6381
  824MOL0     C11168   2.088   6.198   8.042 -0.8872 -0.1436  0.0503
  824MOL0     C11169   2.091   6.309   8.140 -0.7875  0.8247 -0.1858
  824MOL0     C11170   2.102   6.383   8.234  0.1313  0.1590 -0.4399
  824MOL0     C11171   1.615   6.243   7.619 -0.1296  0.8414 -0.4418
  824MOL0     C11172   1.515   6.255   7.513 -0.8937 -0.4078  0.1654
  824MOL0     H11173   1.483   6.241   6.964  0.9553  1.8281  1.3158
  824MOL0     H11174   1.306   6.269   6.773  0.0287  3.3587 -1.7579
  824MOL0     H11175   0.930   6.374   6.726  1.3705 -0.4766 -0.8844
  824MOL0     H11176   0.987   6.269   6.848 -0.2512  0.6869  0.4076
  824MOL0     H11177   0.911   6.431   7.028  2.3937  0.3647 -0.7771
  824MOL0     H11178   0.880   6.554   6.911  2.0974 -0.5844  0.6125
  824MOL0     H11179   0.733   6.274   6.919 -0.6943 -0.2713  0.8589
  824MOL0     H11180   0.674   6.424   6.991 -0.8321  0.7571 -1.1552
  824MOL0     H11181   0.687   6.519   6.746  1.7986 -0.8885 -2.9809
  824MOL0     H11182   0.696   6.355   6.686 -0.1774  0.6205 -0.3802
  824MOL0     H11183   0.497   6.308   6.852  0.3349  1.5814  3.2943
  824MOL0     H11184   0.487   6.478   6.862  1.0933 -0.1774  1.1301
  824MOL0     H11185   0.461   6.300   6.615  1.3141  0.9424 -0.5901
  824MOL0     H11186   0.334   6.409   6.672 -0.0103 -0.0664  0.3101
  824MOL0     H11187   0.600   6.490   6.526  0.9941 -1.3798  3.1796
  824MOL0     H11188   0.448   6.497   6.453 -0.9349  1.2164  1.0274
  824MOL0     H11189   0.501   6.717   6.520  2.8367 -2.6940 -0.3072
  824MOL0     H11190   0.559   6.669   6.666 -0.4937  1.0753  0.4267
  824MOL0     H11191   0.188   6.671   6.543  2.7175  2.4278 -1.7056
  824MOL0     H11192  -0.007   6.846   6.823  0.8256 -2.7765  1.9265
  824MOL0     H11193  -0.018   6.820   6.651  1.8791 -1.4175 -1.2248
  824MOL0     H11194  -0.073   6.596   6.848 -3.0209 -0.5912  0.6467
  824MOL0     H11195  -0.080   6.589   6.681  0.1137  1.5987 -2.6031
  824MOL0     H11196  -0.253   6.786   6.694  2.6611 -1.9655 -0.9980
  824MOL0     H11197  -0.251   6.768   6.871  3.0304 -0.3074  0.7425
  824MOL0     H11198  -0.366   6.561   6.667 -1.5591 -2.6972  1.0832
  824MOL0     H11199  -0.432   6.618   6.820 -0.5779  1.2306 -0.0117
  824MOL0     H11200  -0.144   6.319   6.991 -3.6227 -4.2344  1.2465
  824MOL0     H11201  -0.031   6.315   7.326  2.7354 -0.7715 -2.0447
  824MOL0     H11202  -0.167   6.200   7.320 -0.1611  2.9402  2.0336
  824MOL0     H11203  -0.053   6.222   7.183  1.2638  1.7122 -0.6152
  824MOL0     H11204  -0.221   6.727   7.581  0.2126 -2.8556 -0.9628
  824MOL0     H11205  -0.210   6.769   7.824 -0.3054  0.0937  1.9561
  824MOL0     H11206  -0.189   6.671   8.044  1.1731 -0.3071  1.9435
  824MOL0     H11207  -0.285   6.816   8.046 -2.7498  0.1613  1.0541
  824MOL0     H11208  -0.252   6.777   8.271 -0.6880 -0.2246  1.9368
  824MOL0     H11209  -0.414   6.761   8.239  2.5322  3.7938 -0.2922
  824MOL0     H11210  -0.406   6.525   8.247  1.2602  0.8304 -0.7692
  824MOL0     H11211  -0.325   6.574   8.389  2.2312 -3.2359  0.8018
  824MOL0     H11212  -0.205   6.462   8.134 -0.5413 -1.1092  0.3519
  824MOL0     H11213  -0.105   6.544   8.257 -0.9993  0.2448 -0.9028
  824MOL0     H11214  -0.284   6.302   8.304  0.5144 -0.3172 -1.2807
  824MOL0     H11215  -0.220   6.381   8.432 -0.4703  2.3542 -0.3722
  824MOL0     H11216  -0.017   6.312   8.207 -1.3279  3.0044  0.4708
  824MOL0     H11217   0.019   6.350   8.368 -0.9656  1.1755  1.5163
  824MOL0     H11218  -0.098   6.083   8.272 -0.2515  0.2435  0.2590
  824MOL0     H11219  -0.127   6.141   8.440  1.4893  2.2933  1.3167
  824MOL0     H11220   0.139   6.111   8.294 -0.0615  1.2890  0.3805
  824MOL0     H11221   0.062   5.985   8.393 -1.4980 -0.7047 -2.1641
  824MOL0     H11222  -0.535   6.503   7.887 -1.7853 -0.2717 -1.6511
  824MOL0     H11223  -0.531   6.432   7.634  0.6868 -1.1789  1.8494
  824MOL0     H11224  -0.426   6.630   7.241 -0.0933 -0.0837 -0.4022
  824MOL0     H11225  -0.455   6.626   7.030  1.9943  1.8140 -1.6252
  824MOL0     H11226   1.140   6.586   7.013  0.1447 -0.1828  1.5734
  824MOL0     H11227   1.324   6.577   7.162  0.9338  1.1439 -1.9129
  824MOL0     H11228   1.723   6.423   7.311  1.2484  0.9347  0.7986
  824MOL0     H11229   1.870   6.434   7.516  0.4171 -2.1197  2.2908
  824MOL0     H11230   1.650   6.232   7.885 -0.9016  1.7827 -2.2788
  824MOL0     H11231   1.766   6.124   7.830  0.4370 -0.6687  2.7090
  824MOL0     H11232   1.819   6.224   8.062 -0.2112 -0.5109 -0.2894
  824MOL0     H11233   1.864   6.380   7.981 -0.6172 -0.1674  1.1112
  824MOL0     H11234   2.041   6.287   7.862 -0.9905  0.1311 -0.6358
  824MOL0     H11235   1.991   6.126   7.868 -0.6969  0.4103  0.4360
  824MOL0     H11236   2.190   6.186   8.004 -0.2716  3.0294  0.3559
  824MOL0     H11237   2.079   6.100   8.090  2.2359 -1.2858 -1.4260
  824MOL0     H11238   2.106   6.457   8.311 -0.8461  1.0592 -1.2141
  824MOL0     H11239   1.573   6.191   7.705  0.4738  0.1737 -0.5422
  824MOL0     H11240   1.419   6.205   7.513 -2.3613  2.1976 -0.1275
  825MOL0     O11241   9.393   0.271   4.025 -0.3708  0.2316  0.4566
  825MOL0     C11242   9.370   0.337   4.124  1.2146  0.0682 -0.3949
  825MOL0     O11243   9.250   0.390   4.148  0.1271 -0.7382 -0.2323
  825MOL0     C11244   9.142   0.368   4.061 -0.7642  1.6812  0.0311
  825MOL0     C11245   9.068   0.483   4.038  0.3162  0.1554 -0.7605
  825MOL0     C11246   8.956   0.488   3.967  0.0813  0.2095 -0.2727
  825MOL0     C11247   8.926   0.372   3.890 -0.3221  0.4925  0.2469
  825MOL0     O11248   8.817   0.358   3.808  1.0239  0.3963 -0.0551
  825MOL0     C11249   8.730   0.467   3.799 -0.4676  0.3576 -1.3340
  825MOL0     C11250   8.624   0.440   3.694  0.9035 -0.9665 -0.3084
  825MOL0     C11251   8.688   0.426   3.553  0.7505 -0.5613  0.5069
  825MOL0     C11252   8.605   0.516   3.459 -0.0069  0.4126 -1.0153
  825MOL0     C11253   8.635   0.669   3.486 -0.0784 -0.3800 -0.3199
  825MOL0     C11254   8.584   0.756   3.375  0.6520 -0.9007  0.3582
  825MOL0     C11255   8.674   0.752   3.257 -1.3902  0.1800 -0.1129
  825MOL0     C11256   8.642   0.840   3.141 -0.0888 -0.2904  0.4249
  825MOL0     N11257   8.509   0.807   3.092 -1.1859 -0.5028  0.7221
  825MOL0     C11258   8.476   0.702   3.009 -0.2760 -0.0440 -0.0005
  825MOL0     C11259   8.368   0.735   2.942 -0.7677  0.3600 -0.2372
  825MOL0     C11260   8.297   0.638   2.847 -0.3058 -0.5912  0.0970
  825MOL0     C11261   8.151   0.621   2.885  1.0098  0.5596 -0.2461
  825MOL0     C11262   8.120   0.558   3.026 -1.6486 -0.9165 -0.6391
  825MOL0     C11263   7.978   0.513   3.036  0.5821 -0.7939  0.4605
  825MOL0     O11264   7.885   0.631   3.033  0.1470 -0.0276 -0.6650
  825MOL0     C11265   7.756   0.597   3.032  0.5140 -0.5595  0.1343
  825MOL0     C11266   7.668   0.693   3.005  0.2342 -0.1768 -0.4356
  825MOL0     C11267   7.529   0.679   3.001  0.6036  0.1984 -0.9042
  825MOL0     C11268   7.441   0.792   2.951 -0.5690  0.4026 -0.9134
  825MOL0     C11269   7.470   0.559   3.033  1.5665  0.1101  0.8977
  825MOL0     C11270   7.329   0.516   3.028  0.2027  0.4705  0.5289
  825MOL0     O11271   7.297   0.388   3.064  0.3639  0.1460 -0.1680
  825MOL0     C11272   7.174   0.337   3.035  0.1090  0.5472  0.4248
  825MOL0     C11273   7.155   0.283   2.905  0.3611 -0.2425  1.0234
  825MOL0     C11274   7.030   0.223   2.874 -0.8201 -0.6071  0.9843
  825MOL0     C11275   6.923   0.239   2.957 -0.2424 -0.4312  0.7446
  825MOL0     O11276   6.802   0.188   2.928 -0.4296 -0.0967  0.5956
  825MOL0     C11277   6.778   0.054   2.979 -0.6897 -0.5417  0.5307
  825MOL0     C11278   6.836  -0.059   2.885  0.1979 -0.7801  0.3546
  825MOL0     C11279   6.820  -0.201   2.929  0.8157  0.6943 -0.6275
  825MOL0     C11280   6.673  -0.249   2.928 -0.6361 -0.7835 -0.1360
  825MOL0     C11281   6.649  -0.394   2.969  0.0156  1.0928 -0.1039
  825MOL0     C11282   6.501  -0.421   2.985 -0.8181  0.1710 -0.5693
  825MOL0     C11283   6.426  -0.415   2.857  0.3859 -0.0490 -0.1969
  825MOL0     C11284   6.288  -0.474   2.878  0.5489 -0.1277 -0.4013
  825MOL0    Cl11285   6.201  -0.464   2.727  0.2140 -0.0162 -0.0050
  825MOL0     C11286   6.937   0.309   3.079  0.2800  0.5565 -0.1074
  825MOL0     C11287   7.065   0.350   3.115  0.5325 -0.9883  0.7078
  825MOL0     O11288   7.243   0.596   3.002  0.3207  0.4572  0.1845
  825MOL0     C11289   7.557   0.458   3.063 -0.4804 -0.7015 -0.1126
  825MOL0     C11290   7.696   0.475   3.063  0.0347 -0.4907  0.2203
  825MOL0     N11291   8.327   0.863   2.986 -0.9096 -0.4248 -0.8053
  825MOL0     N11292   8.423   0.908   3.066 -0.0773 -0.1141  0.1964
  825MOL0     C11293   8.998   0.248   3.900 -0.0650 -0.2850 -1.5557
  825MOL0     C11294   9.104   0.245   3.996  0.0633 -0.1581  0.3184
  825MOL0     C11295   9.463   0.344   4.222  0.2055 -0.2901 -0.5629
  825MOL0     C11296   9.590   0.364   4.186  0.4131  0.3504 -0.0230
  825MOL0     C11297   9.686   0.390   4.279  0.1841 -0.4425  0.4950
  825MOL0     C11298   9.657   0.385   4.416 -0.3177 -0.0793 -1.6506
  825MOL0     O11299   9.750   0.398   4.524 -0.5866  0.2876 -0.0639
  825MOL0     C11300   9.878   0.446   4.496  0.0533  0.1172  0.3874
  825MOL0     C11301   9.875   0.597   4.468  0.2054  0.0449  0.2727
  825MOL0     C11302   9.893   0.680   4.605  0.6601 -0.0433  0.1219
  825MOL0     C11303  10.042   0.700   4.633 -0.7698  0.6846 -0.7821
  825MOL0     C11304  10.103   0.800   4.539  1.3605  0.8885 -0.3569
  825MOL0     C11305  10.144   0.873   4.460  0.2228 -0.7740  1.1197
  825MOL0     C11306   9.532   0.343   4.450 -0.1831  0.1848  0.1757
  825MOL0     C11307   9.428   0.319   4.356 -0.4324 -0.4076  0.0884
  825MOL0     H11308   9.094   0.579   4.083 -0.7446  0.2947 -0.4062
  825MOL0     H11309   8.898   0.577   3.947 -2.1752 -1.6123 -2.5127
  825MOL0     H11310   8.676   0.486   3.893 -0.5270  1.2094 -1.5294
  825MOL0     H11311   8.790   0.556   3.777  1.2985 -0.4628 -0.0913
  825MOL0     H11312   8.562   0.353   3.721 -0.1670 -0.2942 -0.5396
  825MOL0     H11313   8.544   0.514   3.702 -2.1519 -3.8609 -1.5622
  825MOL0     H11314   8.796   0.445   3.546  0.3716  1.4545 -0.7682
  825MOL0     H11315   8.671   0.321   3.530  1.1188 -0.1164 -2.2488
  825MOL0     H11316   8.642   0.489   3.359  3.6698 -1.5187  0.6704
  825MOL0     H11317   8.496   0.508   3.467  0.1823 -1.3945  0.3005
  825MOL0     H11318   8.587   0.694   3.581  1.6984 -0.1748  0.5523
  825MOL0     H11319   8.740   0.695   3.500 -0.4281  0.9193  0.0164
  825MOL0     H11320   8.480   0.733   3.349 -0.3915  2.8755  0.5338
  825MOL0     H11321   8.575   0.861   3.405 -0.5469 -0.3464 -1.7225
  825MOL0     H11322   8.779   0.779   3.274 -1.6877 -0.1716  2.6376
  825MOL0     H11323   8.673   0.647   3.228  1.6309  0.2076 -0.6117
  825MOL0     H11324   8.715   0.837   3.059  0.2796 -0.0199  0.7361
  825MOL0     H11325   8.647   0.942   3.179  1.7342 -0.2228  0.1058
  825MOL0     H11326   8.518   0.602   3.006 -2.1826 -0.8702 -2.4030
  825MOL0     H11327   8.315   0.657   2.740  0.9960 -0.7070  0.2887
  825MOL0     H11328   8.325   0.535   2.867 -1.7129 -1.0683 -0.2059
  825MOL0     H11329   8.111   0.558   2.806 -0.3737  2.8020 -1.4504
  825MOL0     H11330   8.084   0.707   2.876 -0.6018 -0.4126  1.6590
  825MOL0     H11331   8.154   0.628   3.103 -2.6700 -0.0755 -0.9376
  825MOL0     H11332   8.182   0.470   3.044  1.8280  0.8940 -2.6286
  825MOL0     H11333   7.961   0.455   3.127  0.0552  2.1604  2.4021
  825MOL0     H11334   7.955   0.450   2.949  1.3522 -0.7511  0.2194
  825MOL0     H11335   7.718   0.786   2.979 -1.1062  0.5958 -0.3553
  825MOL0     H11336   7.501   0.880   2.928 -0.1154  0.9919  2.0747
  825MOL0     H11337   7.388   0.757   2.862  0.4422 -2.1651 -0.5949
  825MOL0     H11338   7.361   0.823   3.019 -1.1959  1.7031 -2.1944
  825MOL0     H11339   7.239   0.287   2.837 -0.2485  3.0193  0.2691
  825MOL0     H11340   6.995   0.171   2.786  0.8257 -0.0958 -0.0162
  825MOL0     H11341   6.811   0.032   3.081  0.0610 -1.8651  0.0305
  825MOL0     H11342   6.669   0.057   2.982 -0.6401  1.0754  1.5871
  825MOL0     H11343   6.786  -0.058   2.788  0.8872  0.1857 -0.0023
  825MOL0     H11344   6.941  -0.032   2.875 -0.2917  2.8300  2.7877
  825MOL0     H11345   6.854  -0.214   3.032  1.5237  1.0740 -0.8111
  825MOL0     H11346   6.878  -0.271   2.868 -0.5082  0.2340 -1.4194
  825MOL0     H11347   6.615  -0.180   2.989 -0.5556  1.6800 -2.6948
  825MOL0     H11348   6.639  -0.228   2.827  1.6068  1.5406 -0.4983
  825MOL0     H11349   6.694  -0.419   3.066 -3.0143 -4.6046  0.2418
  825MOL0     H11350   6.706  -0.462   2.904  3.3839  0.8753  2.7484
  825MOL0     H11351   6.492  -0.525   3.018  1.9060  0.3648  1.1264
  825MOL0     H11352   6.468  -0.347   3.059  0.4340  1.8290 -1.5837
  825MOL0     H11353   6.487  -0.460   2.779  0.4778  0.3142 -0.3314
  825MOL0     H11354   6.417  -0.314   2.816  0.1512  1.4335  3.1230
  825MOL0     H11355   6.231  -0.411   2.947  2.0873  2.2007 -1.1262
  825MOL0     H11356   6.291  -0.578   2.911 -0.2878 -0.2289 -0.6106
  825MOL0     H11357   6.854   0.308   3.148 -0.6399  1.4071 -1.1763
  825MOL0     H11358   7.068   0.397   3.213  1.7705  1.9446 -0.6361
  825MOL0     H11359   7.527   0.355   3.081  2.1884 -1.3455  1.1433
  825MOL0     H11360   7.755   0.388   3.088 -2.0582 -2.6008 -1.6930
  825MOL0     H11361   8.964   0.157   3.850 -2.9132  0.8197 -1.8090
  825MOL0     H11362   9.148   0.146   4.004  0.4803  0.0134  0.1623
  825MOL0     H11363   9.608   0.381   4.080 -1.9314 -1.0107 -0.7057
  825MOL0     H11364   9.781   0.426   4.240 -0.4010 -1.5710 -2.1091
  825MOL0     H11365   9.951   0.438   4.577  1.7102  2.4073 -0.7837
  825MOL0     H11366   9.923   0.381   4.420  1.0902 -0.1046  1.1618
  825MOL0     H11367   9.783   0.621   4.414  1.3039  0.1419 -1.6207
  825MOL0     H11368   9.958   0.623   4.403  1.6865  4.3608  3.4226
  825MOL0     H11369   9.856   0.614   4.684 -0.3284 -0.7639 -0.9148
  825MOL0     H11370   9.841   0.775   4.618 -1.1088 -0.2897 -3.7350
  825MOL0     H11371  10.107   0.613   4.634 -1.4679  0.1258  1.1150
  825MOL0     H11372  10.050   0.737   4.736  0.5562 -3.2735  0.7373
  825MOL0     H11373  10.176   0.945   4.388 -1.5281 -0.5257  0.5215
  825MOL0     H11374   9.529   0.335   4.558  2.0821 -0.0481  0.2755
  825MOL0     H11375   9.327   0.288   4.381 -0.2610 -1.1731 -0.1543
  826MOL0     O11376   1.718   0.977   7.167  0.3337 -0.5555 -0.7471
  826MOL0     C11377   1.821   0.988   7.101 -0.2526 -0.2640 -0.0703
  826MOL0     O11378   1.850   1.081   7.010 -0.2725  0.6446 -1.5177
  826MOL0     C11379   1.773   1.193   7.000  0.0810 -0.7602 -0.8941
  826MOL0     C11380   1.824   1.325   7.026  0.2423  0.1989 -0.7336
  826MOL0     C11381   1.739   1.444   7.007 -0.5566  0.2295  0.2825
  826MOL0     C11382   1.614   1.434   6.947 -0.2916 -0.2618 -0.1610
  826MOL0     O11383   1.536   1.547   6.913  0.3947 -0.0519  0.3950
  826MOL0     C11384   1.562   1.678   6.969  0.8033  0.3065 -0.6018
  826MOL0     C11385   1.510   1.697   7.107 -0.1312 -0.0262 -0.7335
  826MOL0     C11386   1.366   1.683   7.128  0.0894 -0.2620 -0.3814
  826MOL0     C11387   1.297   1.726   7.262  0.0115 -0.2564  0.0583
  826MOL0     C11388   1.152   1.762   7.224 -0.7318  0.0240 -0.4372
  826MOL0     C11389   1.062   1.813   7.345 -0.2602  0.6989 -0.4285
  826MOL0     C11390   0.929   1.845   7.290  0.9428  0.2814  0.5417
  826MOL0     C11391   0.920   1.998   7.286 -0.4295  0.2055 -0.4466
  826MOL0     N11392   0.904   2.069   7.421  0.8538  0.2011 -0.1510
  826MOL0     C11393   0.876   2.199   7.448  0.4756 -0.5738 -0.7329
  826MOL0     C11394   0.876   2.211   7.584  0.4031 -0.5159 -0.3457
  826MOL0     C11395   0.856   2.348   7.664 -0.0744  0.6464 -0.1798
  826MOL0     C11396   0.897   2.335   7.810 -0.2934 -0.0245  0.2395
  826MOL0     C11397   1.027   2.420   7.830 -0.4812  1.2402  0.7292
  826MOL0     C11398   1.144   2.321   7.827  0.1817 -0.8405  0.0310
  826MOL0     O11399   1.171   2.277   7.689 -0.0739  0.9295 -0.1220
  826MOL0     C11400   1.276   2.186   7.671 -0.2774 -1.4482  0.0069
  826MOL0     C11401   1.371   2.157   7.777  0.6919 -0.6397 -0.4439
  826MOL0     C11402   1.480   2.082   7.748 -0.3991  0.4295  0.7679
  826MOL0     C11403   1.588   2.073   7.860  0.5211  0.5527 -0.2043
  826MOL0     C11404   1.496   2.026   7.615  0.0672 -0.2328 -0.4244
  826MOL0     C11405   1.611   1.937   7.585  0.6944 -0.0796 -0.0948
  826MOL0     O11406   1.644   1.849   7.686  0.2218 -0.2563 -0.3159
  826MOL0     C11407   1.717   1.733   7.666 -0.7358 -0.8364 -0.2838
  826MOL0     C11408   1.798   1.685   7.768 -1.2826  0.1392 -1.6177
  826MOL0     C11409   1.869   1.564   7.756  0.2297 -0.1243  0.2517
  826MOL0     C11410   1.872   1.498   7.628  0.0367  0.4790 -0.6185
  826MOL0     O11411   1.952   1.376   7.632 -0.4287 -0.7411  0.7121
  826MOL0     C11412   1.953   1.295   7.507  0.2424 -1.0747 -0.5401
  826MOL0     C11413   1.812   1.227   7.500  0.5848 -0.0561 -0.7427
  826MOL0     C11414   1.797   1.111   7.590  0.1802  0.1047 -0.1423
  826MOL0     C11415   1.867   0.991   7.531 -0.2250  0.9113  0.3411
  826MOL0     C11416   1.811   0.857   7.597  0.3789 -0.0913 -0.7447
  826MOL0     C11417   1.837   0.733   7.517 -0.4357  0.0614 -0.1428
  826MOL0     C11418   1.803   0.604   7.587  0.8031  0.1644 -0.6990
  826MOL0     C11419   1.785   0.482   7.504 -1.4029  1.2322 -0.2682
  826MOL0    Cl11420   1.649   0.490   7.402 -0.2178 -0.1104 -0.0896
  826MOL0     C11421   1.808   1.555   7.516  0.1343  0.6933 -0.0959
  826MOL0     C11422   1.734   1.676   7.536 -0.8535 -0.1109 -0.3733
  826MOL0     O11423   1.661   1.950   7.472  0.3933  0.0887 -0.0097
  826MOL0     C11424   1.406   2.070   7.515 -0.8505 -0.7079 -0.3919
  826MOL0     C11425   1.301   2.144   7.544 -0.0170  0.0352 -0.2733
  826MOL0     N11426   0.874   2.089   7.638  0.1160  0.7436  0.2092
  826MOL0     N11427   0.902   2.003   7.541  1.0535  0.3009 -0.1091
  826MOL0     C11428   1.571   1.305   6.914 -0.2056 -0.2352  0.2264
  826MOL0     C11429   1.649   1.190   6.944 -0.3343  0.0256 -0.0360
  826MOL0     C11430   1.928   0.891   7.115  0.5118 -0.0013  0.1618
  826MOL0     C11431   1.893   0.762   7.149 -0.4088 -0.0979 -1.1954
  826MOL0     C11432   1.991   0.662   7.182  0.2175  0.2672  0.4357
  826MOL0     C11433   2.128   0.692   7.169  0.2670 -0.4163  0.2959
  826MOL0     O11434   2.227   0.603   7.211  0.0218  0.1279  0.4950
  826MOL0     C11435   2.195   0.504   7.316  0.1845 -0.1005  0.0546
  826MOL0     C11436   2.327   0.430   7.350 -0.7186 -0.1414 -0.2250
  826MOL0     C11437   2.328   0.359   7.482 -0.4044  0.5549 -0.1023
  826MOL0     C11438   2.466   0.307   7.526  1.0336 -0.1757  0.4614
  826MOL0     C11439   2.553   0.234   7.429 -0.0879  0.0006  0.0135
  826MOL0     C11440   2.613   0.162   7.356 -0.4447  0.8383 -0.7393
  826MOL0     C11441   2.169   0.819   7.118  0.7968  0.2341 -0.2596
  826MOL0     C11442   2.063   0.911   7.093  0.1665 -0.8525  0.1253
  826MOL0     H11443   1.918   1.359   7.070 -1.6497  2.2442  2.0953
  826MOL0     H11444   1.789   1.536   7.032  1.7403 -1.4867  2.5026
  826MOL0     H11445   1.670   1.691   6.982  0.5517  1.7221  0.3774
  826MOL0     H11446   1.514   1.753   6.906  1.3745  1.4568  0.2928
  826MOL0     H11447   1.571   1.656   7.188 -2.4154  0.8692  1.5910
  826MOL0     H11448   1.534   1.803   7.117 -0.2231  0.0800 -1.5668
  826MOL0     H11449   1.325   1.753   7.055 -0.0048  3.9399  3.2775
  826MOL0     H11450   1.331   1.584   7.096 -2.8675  0.7303 -0.4732
  826MOL0     H11451   1.296   1.644   7.334 -1.4186  0.0384  0.3973
  826MOL0     H11452   1.350   1.816   7.297 -1.7186  0.6772  0.4200
  826MOL0     H11453   1.138   1.843   7.151 -1.1725  1.8042  1.4984
  826MOL0     H11454   1.096   1.682   7.176 -3.7703  2.2885 -1.0290
  826MOL0     H11455   1.081   1.738   7.422  0.4009 -0.2149 -1.4622
  826MOL0     H11456   1.110   1.901   7.390  0.4678  1.4789 -2.6279
  826MOL0     H11457   0.906   1.799   7.193 -0.2766 -0.7194  1.2804
  826MOL0     H11458   0.859   1.814   7.367  1.6774 -0.3551  0.9692
  826MOL0     H11459   0.828   2.018   7.230  0.0279  2.3587 -0.5037
  826MOL0     H11460   1.011   2.029   7.233  0.2768  1.4347  1.3741
  826MOL0     H11461   0.879   2.278   7.373  3.9748 -1.4058 -1.6240
  826MOL0     H11462   0.895   2.433   7.607 -1.3838 -0.0754 -2.2739
  826MOL0     H11463   0.748   2.367   7.660  0.0951  1.7866  0.2004
  826MOL0     H11464   0.898   2.236   7.856  0.4593 -0.8968 -1.5608
  826MOL0     H11465   0.810   2.377   7.861 -1.4564  1.7011 -2.8333
  826MOL0     H11466   1.011   2.469   7.926  3.6423 -0.5338  2.5492
  826MOL0     H11467   1.040   2.492   7.748  0.2759 -3.4703 -3.8288
  826MOL0     H11468   1.131   2.241   7.901  1.3767 -2.3512 -1.3248
  826MOL0     H11469   1.227   2.390   7.847 -0.3196  0.6765 -2.6943
  826MOL0     H11470   1.378   2.201   7.876 -0.4868 -0.0100 -0.6115
  826MOL0     H11471   1.670   2.135   7.823 -1.3416  0.9175 -4.2208
  826MOL0     H11472   1.542   2.101   7.956  1.4195 -1.4019  0.8435
  826MOL0     H11473   1.625   1.974   7.889  2.4098  1.6264  1.3162
  826MOL0     H11474   1.803   1.749   7.855  0.0753 -0.8983 -0.8959
  826MOL0     H11475   1.920   1.532   7.846 -0.7679 -2.6065  0.0287
  826MOL0     H11476   1.962   1.360   7.419  0.2228 -0.9497 -0.4488
  826MOL0     H11477   2.030   1.217   7.508  2.5475  1.0636  1.2545
  826MOL0     H11478   1.729   1.293   7.528  1.0801  0.2307  0.0745
  826MOL0     H11479   1.796   1.205   7.394 -0.7229  0.8296 -0.7548
  826MOL0     H11480   1.690   1.099   7.609  0.0608  1.1045 -0.1067
  826MOL0     H11481   1.842   1.136   7.686  0.0559 -0.4092  0.0513
  826MOL0     H11482   1.854   0.994   7.422  1.1611  2.6965  0.1809
  826MOL0     H11483   1.973   0.997   7.557  0.0447 -1.2693 -0.0071
  826MOL0     H11484   1.705   0.878   7.608  0.2638 -1.7554  3.0164
  826MOL0     H11485   1.842   0.840   7.701 -0.4156 -0.7769 -0.6087
  826MOL0     H11486   1.788   0.739   7.420 -1.6186 -2.0905  0.2485
  826MOL0     H11487   1.946   0.735   7.501  0.0983 -0.5948  2.7543
  826MOL0     H11488   1.708   0.609   7.642  0.0109 -1.2062 -1.8531
  826MOL0     H11489   1.881   0.590   7.662 -0.9002  2.1867  1.6254
  826MOL0     H11490   1.774   0.397   7.572  1.2293 -1.4287 -2.8448
  826MOL0     H11491   1.880   0.464   7.453 -1.2160 -1.8749  0.9634
  826MOL0     H11492   1.827   1.516   7.416 -0.3873 -0.9794  0.4240
  826MOL0     H11493   1.684   1.719   7.450  1.7349  3.3176 -0.3759
  826MOL0     H11494   1.422   2.024   7.418  1.7094 -1.3665  0.2805
  826MOL0     H11495   1.225   2.167   7.470 -1.0138 -0.9726  0.3976
  826MOL0     H11496   1.476   1.294   6.864 -2.3900  1.5605  3.6358
  826MOL0     H11497   1.607   1.092   6.924 -2.2806  0.5502  1.2395
  826MOL0     H11498   1.789   0.736   7.163 -0.4724 -0.2098 -1.8734
  826MOL0     H11499   1.941   0.572   7.216 -0.2911  0.2908 -0.2108
  826MOL0     H11500   2.173   0.571   7.399  1.6782  4.9726 -3.1922
  826MOL0     H11501   2.112   0.437   7.291 -1.2803  1.8238 -0.4810
  826MOL0     H11502   2.416   0.494   7.349 -0.7124 -0.0468  1.7511
  826MOL0     H11503   2.326   0.360   7.266 -1.2994 -0.6618  0.2061
  826MOL0     H11504   2.264   0.271   7.472  0.9246 -0.9894  3.3014
  826MOL0     H11505   2.291   0.417   7.567 -3.3902 -0.2187 -0.7544
  826MOL0     H11506   2.436   0.238   7.604  0.7448 -0.5308  0.0420
  826MOL0     H11507   2.520   0.385   7.581 -0.9984  1.4108  0.3418
  826MOL0     H11508   2.682   0.110   7.293  3.0867 -1.8935  4.6343
  826MOL0     H11509   2.274   0.839   7.103  0.7825  0.6078  0.1221
  826MOL0     H11510   2.103   1.011   7.079  1.2808 -0.9429  2.2568
  827MOL0     O11511   9.855   2.278   0.208  0.3242  0.4670  0.0988
  827MOL0     C11512   9.845   2.163   0.253  0.7183 -0.5756  0.0564
  827MOL0     O11513   9.902   2.055   0.197 -0.5538  0.5668  0.5458
  827MOL0     C11514   9.944   2.060   0.066  0.1386 -0.0238  0.6292
  827MOL0     C11515   9.853   2.109  -0.037 -0.3064 -0.2873 -0.2434
  827MOL0     C11516   9.878   2.095  -0.178  0.2391  0.3157 -0.9897
  827MOL0     C11517  10.008   2.043  -0.218  0.8266 -0.0966 -0.0420
  827MOL0     O11518  10.040   2.014  -0.349  1.4927 -0.3584 -0.8225
  827MOL0     C11519   9.943   2.066  -0.441  0.1638  0.8515 -0.2681
  827MOL0     C11520  10.005   2.086  -0.578 -0.0320 -0.2526  0.4098
  827MOL0     C11521   9.922   2.175  -0.678  0.6958  0.0497  0.2341
  827MOL0     C11522  10.007   2.225  -0.792  0.1993  0.5626 -0.3108
  827MOL0     C11523   9.947   2.329  -0.887 -0.3654  0.5350 -0.2430
  827MOL0     C11524  10.053   2.388  -0.983 -0.7431 -0.5270 -0.2205
  827MOL0     C11525  10.012   2.520  -1.033 -0.1593  0.2028  0.8817
  827MOL0     C11526   9.876   2.509  -1.121 -0.5950  0.4992 -0.4079
  827MOL0     N11527   9.870   2.631  -1.206  0.1085  0.3627 -0.5356
  827MOL0     C11528   9.909   2.759  -1.180 -0.7195  0.5004 -0.2135
  827MOL0     C11529   9.885   2.826  -1.297  0.7767 -0.6628  0.3624
  827MOL0     C11530   9.898   2.979  -1.307  0.3457  0.1121 -0.7163
  827MOL0     C11531  10.038   3.023  -1.297 -0.3320 -0.0547 -0.2297
  827MOL0     C11532  10.130   2.968  -1.411 -0.6536 -0.8510  0.4271
  827MOL0     C11533  10.268   3.035  -1.404 -0.9620  0.2340 -0.1061
  827MOL0     O11534  10.350   2.978  -1.507  1.1272 -0.0687 -0.5390
  827MOL0     C11535  10.477   3.029  -1.519  0.8610 -0.1076  0.2012
  827MOL0     C11536  10.528   3.139  -1.447  0.3592  0.0934  0.0446
  827MOL0     C11537  10.659   3.183  -1.460 -0.0116  0.1960 -1.1775
  827MOL0     C11538  10.696   3.295  -1.370 -0.8451 -0.8848 -0.1052
  827MOL0     C11539  10.745   3.123  -1.553  0.1403 -0.0608  0.2598
  827MOL0     C11540  10.881   3.173  -1.581 -0.1552 -0.2271  0.0685
  827MOL0     O11541  10.953   3.225  -1.483  0.1274  0.7281  0.2867
  827MOL0     C11542  11.082   3.266  -1.519 -0.3508  0.0020  0.1635
  827MOL0     C11543  11.189   3.189  -1.470 -0.4437 -0.4108 -0.0305
  827MOL0     C11544  11.324   3.218  -1.500 -0.4894  0.7454 -0.3871
  827MOL0     C11545  11.351   3.333  -1.573  0.5000  0.5739  0.4303
  827MOL0     O11546  11.473   3.376  -1.608 -0.1000 -0.3994  0.2382
  827MOL0     C11547  11.597   3.300  -1.594  0.3523  1.5067  0.5931
  827MOL0     C11548  11.674   3.337  -1.471  1.1810 -0.0750 -0.0046
  827MOL0     C11549  11.825   3.304  -1.460 -0.1328  0.6876  0.8723
  827MOL0     C11550  11.846   3.152  -1.466  0.0752 -0.7362  0.2073
  827MOL0     C11551  12.000   3.115  -1.489  0.2176  0.1261 -0.1970
  827MOL0     C11552  12.073   3.100  -1.352  0.1582 -0.6637  0.4084
  827MOL0     C11553  12.190   3.005  -1.358 -0.4457  0.2923  0.4075
  827MOL0     C11554  12.279   3.027  -1.235  0.6392 -0.4619  0.1005
  827MOL0    Cl11555  12.213   2.927  -1.104  0.0858  0.0663  0.1501
  827MOL0     C11556  11.242   3.407  -1.617 -0.8093  0.7704 -0.3713
  827MOL0     C11557  11.110   3.379  -1.600 -0.1196  0.9720  0.5424
  827MOL0     O11558  10.915   3.164  -1.703  0.0764 -0.1913 -0.1369
  827MOL0     C11559  10.695   3.008  -1.632 -0.3795 -0.7794  0.0317
  827MOL0     C11560  10.560   2.962  -1.610  0.2416 -0.2026 -0.6532
  827MOL0     N11561   9.832   2.741  -1.387 -0.0037  0.0513  0.3118
  827MOL0     N11562   9.823   2.623  -1.332 -0.4737 -0.5926  0.8212
  827MOL0     C11563  10.100   2.002  -0.115 -0.3678 -0.1374  0.3645
  827MOL0     C11564  10.068   2.011   0.021 -0.0828 -0.4339  0.0675
  827MOL0     C11565   9.764   2.150   0.369  0.9657  0.4665  0.0183
  827MOL0     C11566   9.784   2.055   0.472 -0.0913  0.1740  0.5979
  827MOL0     C11567   9.700   2.048   0.590 -0.0712 -0.6158  0.5402
  827MOL0     C11568   9.589   2.134   0.605  0.5145  0.1586 -0.0800
  827MOL0     O11569   9.524   2.142   0.732  0.1127  0.4683  0.2431
  827MOL0     C11570   9.377   2.164   0.738  0.3380  0.9195  0.8724
  827MOL0     C11571   9.310   2.144   0.876 -0.1032  0.1665  0.2051
  827MOL0     C11572   9.319   2.004   0.939 -0.7741 -0.3172  1.0745
  827MOL0     C11573   9.179   1.945   0.966  0.6134  0.2184  0.1889
  827MOL0     C11574   9.119   1.912   0.837 -0.2050 -0.4971  0.1071
  827MOL0     C11575   9.080   1.881   0.729  0.7525 -0.3770 -0.0232
  827MOL0     C11576   9.558   2.218   0.501  0.4283  0.1227  0.1028
  827MOL0     C11577   9.645   2.227   0.387 -0.3416  0.0596  0.1488
  827MOL0     H11578   9.764   2.165  -0.008  0.4891  1.3111 -0.7529
  827MOL0     H11579   9.800   2.130  -0.245  1.1144 -0.6913 -2.5964
  827MOL0     H11580   9.852   2.007  -0.451 -1.1737  2.9002 -0.8214
  827MOL0     H11581   9.925   2.171  -0.415 -2.3380  0.7341 -1.2538
  827MOL0     H11582  10.104   2.132  -0.578  1.1143 -2.3082 -3.2223
  827MOL0     H11583  10.028   1.990  -0.624  2.7736  0.5763 -0.1171
  827MOL0     H11584   9.836   2.114  -0.706  0.9938 -0.2625 -0.0185
  827MOL0     H11585   9.887   2.257  -0.615 -2.3333 -2.4479  2.0979
  827MOL0     H11586  10.097   2.270  -0.749 -1.3367  2.1248  1.4478
  827MOL0     H11587  10.045   2.140  -0.849 -2.2152  0.7525 -2.4058
  827MOL0     H11588   9.874   2.281  -0.953  1.1420  0.5258 -1.9610
  827MOL0     H11589   9.901   2.411  -0.830  2.3396  0.5497  2.1444
  827MOL0     H11590  10.151   2.396  -0.936 -1.6607 -0.0655  1.7570
  827MOL0     H11591  10.071   2.324  -1.070 -0.0596 -0.1470 -0.3621
  827MOL0     H11592  10.006   2.596  -0.955 -1.4292  0.6359  0.3754
  827MOL0     H11593  10.100   2.550  -1.090  0.6679 -2.3908  0.6393
  827MOL0     H11594   9.788   2.509  -1.056 -1.8494  0.7095 -2.0238
  827MOL0     H11595   9.873   2.414  -1.175  1.0133  0.0787  0.1984
  827MOL0     H11596   9.937   2.811  -1.089 -1.4773 -2.3587  1.7998
  827MOL0     H11597   9.859   3.007  -1.406 -0.4045  0.4356 -0.3412
  827MOL0     H11598   9.838   3.017  -1.224  0.3759 -2.9696  0.8437
  827MOL0     H11599  10.084   2.991  -1.203  1.2304  0.7771 -0.6720
  827MOL0     H11600  10.035   3.132  -1.307 -2.9488 -0.1376 -1.1556
  827MOL0     H11601  10.085   2.993  -1.507  0.0777  4.1614  1.0988
  827MOL0     H11602  10.153   2.863  -1.391 -1.7946 -1.0932  0.5293
  827MOL0     H11603  10.316   3.016  -1.308  0.5477 -0.5204 -0.9690
  827MOL0     H11604  10.267   3.143  -1.424  1.3533  0.1385 -1.0320
  827MOL0     H11605  10.469   3.176  -1.364 -2.0544 -0.2966 -1.3966
  827MOL0     H11606  10.611   3.330  -1.310  0.4179  1.1375  0.6380
  827MOL0     H11607  10.780   3.266  -1.307  0.3524  0.5477 -0.9435
  827MOL0     H11608  10.723   3.380  -1.434 -0.5209  0.6289  1.9544
  827MOL0     H11609  11.162   3.093  -1.427 -0.0702 -1.5393 -2.2006
  827MOL0     H11610  11.405   3.161  -1.455 -1.3912 -0.1734  0.1132
  827MOL0     H11611  11.586   3.191  -1.602  2.0871  1.3819 -0.6751
  827MOL0     H11612  11.666   3.319  -1.677  0.5191 -2.4949 -0.4135
  827MOL0     H11613  11.670   3.441  -1.438  2.6529 -0.1099  0.3590
  827MOL0     H11614  11.618   3.288  -1.390 -1.1648 -2.5001 -2.8251
  827MOL0     H11615  11.859   3.333  -1.360  1.5792 -2.9223  1.5387
  827MOL0     H11616  11.878   3.352  -1.543  0.5277 -0.9939  0.2791
  827MOL0     H11617  11.805   3.118  -1.370 -1.4600  0.7929  0.1343
  827MOL0     H11618  11.787   3.099  -1.540 -0.3507  0.0163 -0.0014
  827MOL0     H11619  12.058   3.177  -1.558  2.4821  1.4436  2.6922
  827MOL0     H11620  11.992   3.013  -1.529  0.9495  0.5676 -1.5516
  827MOL0     H11621  12.116   3.196  -1.324  0.5285 -0.6965 -0.0252
  827MOL0     H11622  12.008   3.055  -1.276 -0.1153  1.8448  1.7627
  827MOL0     H11623  12.256   3.034  -1.439  1.2228 -1.5754  1.0098
  827MOL0     H11624  12.161   2.903  -1.383 -0.4699  0.6262 -0.9829
  827MOL0     H11625  12.281   3.128  -1.193 -2.0298 -0.1412 -0.3161
  827MOL0     H11626  12.381   2.995  -1.258 -0.5138 -2.5710 -2.5958
  827MOL0     H11627  11.285   3.477  -1.688  2.1533 -0.7148 -0.2055
  827MOL0     H11628  11.040   3.444  -1.650 -0.3324  0.6999  0.4801
  827MOL0     H11629  10.753   2.969  -1.715 -1.5123  1.3107 -1.8421
  827MOL0     H11630  10.530   2.873  -1.665  2.9999 -1.2615 -0.6269
  827MOL0     H11631  10.197   1.958  -0.136  1.4962  3.6287  0.1645
  827MOL0     H11632  10.138   1.964   0.089 -1.0723 -0.5737  1.0248
  827MOL0     H11633   9.857   1.974   0.477 -0.2413 -0.1316 -1.3926
  827MOL0     H11634   9.734   1.980   0.667 -1.0146 -2.4145 -0.5597
  827MOL0     H11635   9.366   2.268   0.707  1.0161  0.5293 -0.8540
  827MOL0     H11636   9.323   2.107   0.661  3.8268  1.0001 -1.9383
  827MOL0     H11637   9.211   2.187   0.860 -1.6977 -3.5975 -1.1694
  827MOL0     H11638   9.372   2.207   0.941  3.6285 -1.5179 -1.4385
  827MOL0     H11639   9.376   2.026   1.030  0.6355 -0.0891  0.1788
  827MOL0     H11640   9.385   1.946   0.874 -1.7880  1.6971 -1.9664
  827MOL0     H11641   9.114   2.022   1.008 -2.7265 -1.7486 -0.9714
  827MOL0     H11642   9.188   1.845   1.011 -0.3687  0.7326  1.5855
  827MOL0     H11643   9.057   1.863   0.626 -1.2395 -1.8154  0.6150
  827MOL0     H11644   9.476   2.288   0.511  0.0507  0.1852 -2.5659
  827MOL0     H11645   9.630   2.308   0.315  1.0595 -0.1725 -0.4346
  828MOL0     O11646   7.771  10.543   8.557  0.6916  0.4316 -1.1159
  828MOL0     C11647   7.818  10.650   8.515  0.3562  0.5858 -0.6694
  828MOL0     O11648   7.740  10.743   8.446  0.0422  0.5105  0.1329
  828MOL0     C11649   7.612  10.725   8.402 -0.3810 -0.0741 -0.3968
  828MOL0     C11650   7.542  10.608   8.386 -0.2551  0.5223 -0.5648
  828MOL0     C11651   7.415  10.603   8.342 -0.5401 -0.1647  0.4681
  828MOL0     C11652   7.340  10.712   8.332  0.2660  0.3714  0.4532
  828MOL0     O11653   7.210  10.699   8.301 -0.0117  0.6029  0.1382
  828MOL0     C11654   7.113  10.760   8.390 -0.5196  0.0701  0.4414
  828MOL0     C11655   6.975  10.709   8.356 -0.3489 -0.6758 -0.2466
  828MOL0     C11656   6.934  10.780   8.219  0.3303  0.4939 -0.8439
  828MOL0     C11657   6.790  10.724   8.180 -0.2184  0.6291  0.6879
  828MOL0     C11658   6.757  10.753   8.024 -0.2859  0.3195  0.8212
  828MOL0     C11659   6.617  10.706   7.978  0.2002  0.7476 -0.3914
  828MOL0     C11660   6.602  10.725   7.827  0.0425 -0.5540 -0.2432
  828MOL0     C11661   6.473  10.663   7.774  0.0269 -0.2018 -0.2104
  828MOL0     N11662   6.349  10.732   7.814  0.5277 -0.8408 -0.0167
  828MOL0     C11663   6.305  10.848   7.747 -0.5778  0.2722  0.0840
  828MOL0     C11664   6.171  10.849   7.783 -0.9533 -0.2988  0.0136
  828MOL0     C11665   6.067  10.941   7.734  0.4170  0.3231 -0.0542
  828MOL0     C11666   6.054  10.959   7.587  0.4591 -0.0854 -0.1550
  828MOL0     C11667   5.929  11.031   7.547 -0.5489  0.1217 -0.3774
  828MOL0     C11668   5.927  11.066   7.394  0.2172  0.3423 -0.3743
  828MOL0     O11669   5.965  10.957   7.316  0.0136  0.5480 -0.3958
  828MOL0     C11670   6.077  10.976   7.243  0.1812 -0.5134 -0.3115
  828MOL0     C11671   6.086  11.076   7.142  0.0135 -0.0302 -0.3656
  828MOL0     C11672   6.202  11.096   7.067 -0.2791  0.7368 -0.4155
  828MOL0     C11673   6.183  11.194   6.961  0.1186 -0.0422  0.4270
  828MOL0     C11674   6.317  11.016   7.088 -0.3477 -0.3795 -0.5369
  828MOL0     C11675   6.441  11.041   7.009  0.3959 -0.3348 -0.3393
  828MOL0     O11676   6.552  10.979   7.064  0.0500  0.6581 -0.6969
  828MOL0     C11677   6.659  10.967   6.986  0.2805 -0.1463 -0.4619
  828MOL0     C11678   6.651  10.884   6.869  0.2735 -0.0245  0.5549
  828MOL0     C11679   6.749  10.865   6.778 -0.0167 -0.0576 -0.7486
  828MOL0     C11680   6.860  10.942   6.796 -0.0427  0.6433  0.3712
  828MOL0     O11681   6.965  10.912   6.712  0.4841 -0.1469  0.6586
  828MOL0     C11682   7.109  10.927   6.760  0.3732 -0.0182  0.7259
  828MOL0     C11683   7.215  10.854   6.678  0.3518  1.2227  0.6071
  828MOL0     C11684   7.346  10.910   6.679 -0.2810 -0.3628 -0.5880
  828MOL0     C11685   7.423  10.864   6.565 -0.4501  0.0752  0.1256
  828MOL0     C11686   7.565  10.925   6.587  0.0938 -0.6191  0.6337
  828MOL0     C11687   7.654  10.910   6.460 -1.1968 -0.4217  0.3402
  828MOL0     C11688   7.692  10.766   6.445 -0.1545  0.3023 -0.3591
  828MOL0     C11689   7.787  10.735   6.333  0.0553  0.1802  0.4460
  828MOL0    Cl11690   7.936  10.822   6.369 -0.0802  0.1070 -0.0446
  828MOL0     C11691   6.878  11.029   6.906  0.5412  0.0058 -0.6581
  828MOL0     C11692   6.773  11.046   6.998  0.0081  0.8256 -0.2110
  828MOL0     O11693   6.438  11.101   6.898  0.0082 -0.0719 -0.1685
  828MOL0     C11694   6.318  10.920   7.187  0.0961  0.3871 -0.2631
  828MOL0     C11695   6.198  10.904   7.266  0.4101 -0.2394  0.2776
  828MOL0     N11696   6.146  10.762   7.883 -0.2366 -0.0877 -0.6459
  828MOL0     N11697   6.250  10.679   7.892 -0.1285  0.9271  0.5470
  828MOL0     C11698   7.398  10.837   8.347 -1.0588 -0.1549 -0.0917
  828MOL0     C11699   7.536  10.843   8.375  0.0042 -0.5209 -1.1650
  828MOL0     C11700   7.963  10.668   8.530 -0.2352 -1.2595 -0.8235
  828MOL0     C11701   8.010  10.798   8.492 -0.1429 -0.4388 -0.5273
  828MOL0     C11702   8.145  10.815   8.495  0.4406  0.4874  0.2789
  828MOL0     C11703   8.237  10.709   8.502  0.2012 -0.1071  0.9181
  828MOL0     O11704   8.366  10.741   8.465  0.1127  0.0221  0.7305
  828MOL0     C11705   8.475  10.641   8.485  0.0427  0.1134  0.3384
  828MOL0     C11706   8.612  10.706   8.476 -1.1078 -0.0017 -0.4750
  828MOL0     C11707   8.635  10.839   8.545 -1.2414 -0.3273  0.3812
  828MOL0     C11708   8.660  10.831   8.694 -0.2168  0.3529 -0.9575
  828MOL0     C11709   8.783  10.751   8.717 -0.0607 -0.1883  0.6767
  828MOL0     C11710   8.874  10.675   8.712  0.2223 -0.1393  0.3755
  828MOL0     C11711   8.185  10.576   8.537  0.2105 -0.1686  0.2817
  828MOL0     C11712   8.048  10.560   8.548 -0.8679  0.8298  0.3804
  828MOL0     H11713   7.592  10.512   8.383 -1.8328 -0.3168 -2.5693
  828MOL0     H11714   7.367  10.507   8.322 -1.9199  0.8535 -1.4777
  828MOL0     H11715   7.129  10.732   8.495 -1.5461  0.7659  0.7893
  828MOL0     H11716   7.126  10.869   8.389  4.6627 -0.2535 -2.2784
  828MOL0     H11717   6.966  10.600   8.362 -1.9000 -0.5498  0.3468
  828MOL0     H11718   6.914  10.747   8.438  1.9332  0.6055  0.9612
  828MOL0     H11719   6.942  10.889   8.219  2.7392  0.3835 -0.9138
  828MOL0     H11720   7.001  10.732   8.148  2.8085 -0.8091  2.1131
  828MOL0     H11721   6.778  10.615   8.185 -3.0992  0.8759  0.6307
  828MOL0     H11722   6.715  10.769   8.246 -1.6926 -1.4183  0.5060
  828MOL0     H11723   6.759  10.862   8.016 -2.1655  0.2629 -1.1548
  828MOL0     H11724   6.841  10.717   7.963  0.3262  0.7705  1.3787
  828MOL0     H11725   6.602  10.602   8.010  0.8232  0.7294 -0.1379
  828MOL0     H11726   6.547  10.774   8.026 -0.1411  1.2411 -1.5550
  828MOL0     H11727   6.616  10.831   7.803  2.1359 -0.4376  1.2313
  828MOL0     H11728   6.682  10.681   7.766  2.1122  1.7625  0.6384
  828MOL0     H11729   6.477  10.557   7.803  0.9199 -0.6913 -1.9526
  828MOL0     H11730   6.478  10.659   7.664  2.7186 -0.7133 -0.1283
  828MOL0     H11731   6.353  10.915   7.676 -1.6312 -1.0355 -1.9650
  828MOL0     H11732   5.970  10.912   7.775 -2.0545  3.5847 -2.9531
  828MOL0     H11733   6.089  11.038   7.780 -0.5575  0.2503  0.5979
  828MOL0     H11734   6.069  10.860   7.543  0.2032 -0.5776  0.8242
  828MOL0     H11735   6.140  11.013   7.546 -1.4097  2.6280 -0.7081
  828MOL0     H11736   5.914  11.124   7.604 -1.4334 -0.4043  0.2655
  828MOL0     H11737   5.844  10.964   7.562  0.4290 -1.4222 -1.4693
  828MOL0     H11738   5.992  11.150   7.370 -1.3645  2.2760  1.6234
  828MOL0     H11739   5.823  11.094   7.376  0.5351  0.3093 -2.4733
  828MOL0     H11740   5.999  11.136   7.117  0.9282  1.6179  0.2962
  828MOL0     H11741   6.262  11.269   6.970 -1.5681  1.7669  0.7560
  828MOL0     H11742   6.187  11.136   6.868  1.5201 -1.5265  1.3558
  828MOL0     H11743   6.081  11.233   6.969 -0.2405 -1.0452  0.8188
  828MOL0     H11744   6.562  10.821   6.860  0.5425 -0.5199  1.2254
  828MOL0     H11745   6.734  10.790   6.701 -1.0932  0.7103 -1.3170
  828MOL0     H11746   7.133  11.034   6.762  0.5078 -0.0575  2.4302
  828MOL0     H11747   7.116  10.902   6.866 -2.4701  0.6831  1.1602
  828MOL0     H11748   7.229  10.749   6.705  1.2880  1.3551  0.6704
  828MOL0     H11749   7.181  10.862   6.575  1.0371  1.6837  0.4145
  828MOL0     H11750   7.398  10.887   6.772  0.2351 -3.0149 -1.4597
  828MOL0     H11751   7.321  11.017   6.674 -0.1323 -0.1844  1.7057
  828MOL0     H11752   7.434  10.755   6.562  2.1367  0.2172  1.1487
  828MOL0     H11753   7.374  10.898   6.474  0.5884  3.4100  0.6875
  828MOL0     H11754   7.604  10.863   6.667 -2.2339 -0.3676  2.0331
  828MOL0     H11755   7.559  11.030   6.619 -3.0140  0.0789 -1.6802
  828MOL0     H11756   7.598  10.946   6.373  0.5756 -2.8298 -1.9469
  828MOL0     H11757   7.746  10.968   6.473 -2.2697  1.3186  0.5829
  828MOL0     H11758   7.599  10.715   6.418 -0.9018  2.0876 -1.2912
  828MOL0     H11759   7.729  10.736   6.544  1.7394  2.3128 -0.3779
  828MOL0     H11760   7.742  10.767   6.239 -0.8078  1.6242  1.3139
  828MOL0     H11761   7.791  10.626   6.341 -3.2988  0.0737  2.4874
  828MOL0     H11762   6.975  11.071   6.932 -0.4479  0.9454  1.7720
  828MOL0     H11763   6.784  11.099   7.091  1.0606  1.3240 -0.6040
  828MOL0     H11764   6.410  10.865   7.204  0.7756 -0.2462 -4.7020
  828MOL0     H11765   6.186  10.830   7.345 -2.0661  0.9253  1.1045
  828MOL0     H11766   7.335  10.923   8.328 -0.5549  0.3776  0.5831
  828MOL0     H11767   7.588  10.936   8.395  1.8536 -1.2463 -2.3632
  828MOL0     H11768   7.947  10.881   8.463  1.7701  0.6860 -1.7149
  828MOL0     H11769   8.190  10.913   8.479  0.2738  0.7543  1.4002
  828MOL0     H11770   8.470  10.599   8.586  2.4602 -2.4689 -0.4929
  828MOL0     H11771   8.467  10.567   8.405  0.0660  1.0953 -0.5892
  828MOL0     H11772   8.632  10.733   8.372 -4.1135  1.1012 -0.8500
  828MOL0     H11773   8.683  10.630   8.511 -0.9431 -0.6997 -2.2233
  828MOL0     H11774   8.548  10.904   8.529 -1.2773 -0.2252  0.9638
  828MOL0     H11775   8.718  10.886   8.492 -0.6942 -1.6665  0.0216
  828MOL0     H11776   8.571  10.796   8.747 -1.2493  2.5780 -1.0799
  828MOL0     H11777   8.684  10.930   8.733 -3.3303  1.3735 -1.3097
  828MOL0     H11778   8.958  10.610   8.694 -2.0363 -3.3894  0.6687
  828MOL0     H11779   8.244  10.485   8.539 -0.6653 -1.0137 -3.8336
  828MOL0     H11780   8.001  10.462   8.551 -1.0962  0.8476 -1.4803
  829MOL0     O11781   8.475  10.829   9.648  0.6193  0.1830 -0.6473
  829MOL0     C11782   8.511  10.913   9.568  0.1511  0.3259  0.5024
  829MOL0     O11783   8.593  11.018   9.589 -0.0218  0.0954  0.8330
  829MOL0     C11784   8.643  11.058   9.713  0.4476  0.1374  0.2887
  829MOL0     C11785   8.605  11.028   9.839  0.1740  0.0342 -0.0513
  829MOL0     C11786   8.665  11.086   9.954 -0.2972 -0.1009  0.4347
  829MOL0     C11787   8.770  11.173   9.938  0.1521  0.7177  0.1437
  829MOL0     O11788   8.838  11.216  10.049  0.0568 -0.5085  1.0217
  829MOL0     C11789   8.797  11.350  10.087 -0.4744 -0.0300  0.7730
  829MOL0     C11790   8.871  11.369  10.219 -0.5081  0.7641 -0.3741
  829MOL0     C11791   8.924  11.514  10.240 -0.1906  0.6391  0.1329
  829MOL0     C11792   9.065  11.522  10.188  0.8483 -0.3289 -0.2259
  829MOL0     C11793   9.108  11.671  10.155 -0.4324  0.1645 -0.1047
  829MOL0     C11794   9.121  11.746  10.294  0.1329 -0.2231 -0.3449
  829MOL0     C11795   9.097  11.894  10.288  0.4913 -0.4873  0.7616
  829MOL0     C11796   9.122  11.961  10.423 -0.2915  0.9624 -0.2482
  829MOL0     N11797   9.271  11.965  10.446  0.5578  0.1045 -0.0825
  829MOL0     C11798   9.349  11.896  10.534 -0.6364 -0.1884  0.2838
  829MOL0     C11799   9.463  11.976  10.543 -0.1899 -0.1008 -0.6309
  829MOL0     C11800   9.572  11.952  10.647  0.0979  0.2624 -0.4455
  829MOL0     C11801   9.515  12.000  10.784 -0.4644 -0.0161  0.4364
  829MOL0     C11802   9.445  11.886  10.849 -0.2540  0.0258  0.2666
  829MOL0     C11803   9.413  11.935  10.981  0.9454 -0.0653 -0.0921
  829MOL0     O11804   9.323  12.043  10.969  0.3582  0.0064 -1.0380
  829MOL0     C11805   9.315  12.125  11.083  0.4959  0.0789  0.6207
  829MOL0     C11806   9.291  12.066  11.201 -0.8218  1.1576 -0.0610
  829MOL0     C11807   9.284  12.149  11.317 -0.6289  0.0769  0.1467
  829MOL0     C11808   9.240  12.071  11.433  0.0273  0.1337 -0.5863
  829MOL0     C11809   9.309  12.286  11.309  0.4618 -1.2042  0.4371
  829MOL0     C11810   9.313  12.386  11.421 -0.1367  0.8040  0.2803
  829MOL0     O11811   9.335  12.336  11.543 -0.0700 -0.3624 -0.0111
  829MOL0     C11812   9.372  12.406  11.653  0.1871 -0.8021 -0.4412
  829MOL0     C11813   9.328  12.378  11.785 -0.6950  0.0665 -1.3539
  829MOL0     C11814   9.375  12.449  11.894 -0.1878 -1.6336 -0.3205
  829MOL0     C11815   9.465  12.562  11.869  0.6623 -0.0509  0.0767
  829MOL0     O11816   9.504  12.617  11.986  0.8889  0.0196  0.0086
  829MOL0     C11817   9.627  12.687  11.995  0.7360  0.7765  0.5891
  829MOL0     C11818   9.693  12.699  12.134 -0.7104  0.4531  0.2756
  829MOL0     C11819   9.615  12.804  12.216  0.5547  0.1858  0.1977
  829MOL0     C11820   9.649  12.794  12.362 -0.7165 -0.8190 -1.2971
  829MOL0     C11821   9.583  12.909  12.451  0.4384 -0.2980 -0.4395
  829MOL0     C11822   9.648  12.908  12.587 -0.1950 -0.3149 -0.4605
  829MOL0     C11823   9.611  13.040  12.658  0.4387  0.5656  0.4438
  829MOL0     C11824   9.677  13.034  12.796 -1.1783 -0.4029 -0.3090
  829MOL0    Cl11825   9.640  13.183  12.871  0.0175  0.3311  0.0719
  829MOL0     C11826   9.515  12.597  11.748 -0.1934  0.0519  0.3013
  829MOL0     C11827   9.461  12.515  11.641 -0.0321  0.2928 -0.0077
  829MOL0     O11828   9.316  12.503  11.397  0.5326  0.4176  0.2989
  829MOL0     C11829   9.329  12.343  11.182 -0.1623 -0.5162 -0.3379
  829MOL0     C11830   9.342  12.264  11.070  0.4473  0.2307 -0.1721
  829MOL0     N11831   9.453  12.075  10.451  0.7446 -0.6550  0.0945
  829MOL0     N11832   9.343  12.062  10.395  0.4652  0.4402  0.1966
  829MOL0     C11833   8.814  11.208   9.810  0.4546  0.1306  0.2839
  829MOL0     C11834   8.747  11.150   9.704  1.2669  0.7865  0.0407
  829MOL0     C11835   8.457  10.899   9.439 -0.0192  0.2520  0.4407
  829MOL0     C11836   8.386  10.787   9.400  0.4747  1.0094 -0.2944
  829MOL0     C11837   8.328  10.779   9.272 -0.1773  0.3950 -0.5438
  829MOL0     C11838   8.358  10.878   9.169 -0.5570 -0.0058  0.0685
  829MOL0     O11839   8.318  10.876   9.040 -0.1019 -0.0057 -0.0147
  829MOL0     C11840   8.240  10.762   8.987 -0.5634  0.3167  0.4978
  829MOL0     C11841   8.156  10.812   8.874  0.0253 -0.3352 -0.2108
  829MOL0     C11842   8.052  10.919   8.897  0.0927 -0.3026 -0.5679
  829MOL0     C11843   7.978  10.913   9.031 -0.2495 -0.1095  0.5721
  829MOL0     C11844   7.888  10.798   9.039 -0.0019  0.5161  0.5183
  829MOL0     C11845   7.842  10.691   9.053  0.6343 -0.7345  0.7201
  829MOL0     C11846   8.426  10.990   9.215  0.2777 -0.9374 -0.9850
  829MOL0     C11847   8.476  11.007   9.342 -0.2632  0.3668  0.0858
  829MOL0     H11848   8.511  10.979   9.862 -0.3677  0.5841 -1.0473
  829MOL0     H11849   8.639  11.069  10.058 -0.4584 -0.2941  0.3645
  829MOL0     H11850   8.829  11.427  10.016 -0.5014  1.0373  1.8729
  829MOL0     H11851   8.690  11.358  10.104 -0.6292  0.3892 -0.3279
  829MOL0     H11852   8.816  11.337  10.308  0.3852  0.4906  0.0871
  829MOL0     H11853   8.961  11.308  10.211  0.5227  2.2280 -0.2103
  829MOL0     H11854   8.862  11.584  10.183  0.1607  0.8555  0.0154
  829MOL0     H11855   8.920  11.538  10.347  2.3665 -1.3898  0.7849
  829MOL0     H11856   9.128  11.480  10.266  0.6910  0.7676  0.5217
  829MOL0     H11857   9.081  11.460  10.100  2.2847 -1.2592  0.6662
  829MOL0     H11858   9.209  11.673  10.114 -0.2720  0.7631  0.3025
  829MOL0     H11859   9.030  11.718  10.094 -0.9116 -0.4309  0.0385
  829MOL0     H11860   9.057  11.702  10.371 -0.0027  1.3299  0.4566
  829MOL0     H11861   9.220  11.723  10.335  0.5151 -1.9973 -2.0900
  829MOL0     H11862   9.146  11.947  10.206  0.6704  1.3058  1.9567
  829MOL0     H11863   8.988  11.898  10.275  0.6314  0.6227 -0.1809
  829MOL0     H11864   9.066  11.909  10.502  2.0359 -2.4784 -0.6092
  829MOL0     H11865   9.095  12.066  10.417  1.5697  1.6843  2.3955
  829MOL0     H11866   9.320  11.803  10.582  0.9531 -1.1092 -0.4467
  829MOL0     H11867   9.583  11.844  10.643 -0.5947  0.0940  1.4080
  829MOL0     H11868   9.672  11.990  10.624 -0.7033  2.0236 -1.2673
  829MOL0     H11869   9.449  12.087  10.782 -1.5748 -0.8539 -0.5126
  829MOL0     H11870   9.611  12.023  10.831  0.6483 -0.3885 -1.5452
  829MOL0     H11871   9.516  11.802  10.856  1.7866  1.4524 -1.8853
  829MOL0     H11872   9.354  11.856  10.798 -1.4423  0.9797  1.7443
  829MOL0     H11873   9.509  11.956  11.028  0.7944  1.2230 -0.3112
  829MOL0     H11874   9.363  11.850  11.027 -1.4380  0.9428 -0.6150
  829MOL0     H11875   9.278  11.958  11.209  0.5780  1.1053  2.1950
  829MOL0     H11876   9.235  11.962  11.434 -2.9381  0.1727 -1.3996
  829MOL0     H11877   9.294  12.098  11.525  0.9453 -0.0441 -1.0650
  829MOL0     H11878   9.137  12.108  11.439  0.6526  2.1932 -1.6370
  829MOL0     H11879   9.270  12.288  11.801  2.5115 -2.2253 -1.9115
  829MOL0     H11880   9.353  12.433  11.999 -0.1956  1.0212  0.1664
  829MOL0     H11881   9.697  12.626  11.937  0.1988  0.3749  0.3574
  829MOL0     H11882   9.615  12.780  11.939 -0.8390  0.7791  0.8944
  829MOL0     H11883   9.693  12.607  12.193  2.3429  0.7604  0.9059
  829MOL0     H11884   9.800  12.720  12.133 -0.4710 -0.7260 -0.5107
  829MOL0     H11885   9.508  12.800  12.191  0.7450  0.3729 -0.6628
  829MOL0     H11886   9.650  12.901  12.181 -0.2313  0.6834  0.7429
  829MOL0     H11887   9.638  12.689  12.388  2.1797 -0.9138 -0.1678
  829MOL0     H11888   9.757  12.807  12.356 -0.4018 -0.8711  2.1714
  829MOL0     H11889   9.476  12.894  12.467  0.6068 -1.5414 -0.3926
  829MOL0     H11890   9.590  13.002  12.395  0.8585 -0.9409 -1.4845
  829MOL0     H11891   9.604  12.828  12.646 -1.1559 -0.1669 -0.9677
  829MOL0     H11892   9.756  12.898  12.571 -0.5656 -1.9746 -2.4189
  829MOL0     H11893   9.504  13.061  12.670  0.1156 -0.1596 -0.9703
  829MOL0     H11894   9.653  13.123  12.601  1.7419 -0.3071  0.0900
  829MOL0     H11895   9.786  13.029  12.790 -0.8332 -2.0176  3.9739
  829MOL0     H11896   9.651  12.938  12.842 -1.4841 -1.0536 -1.7934
  829MOL0     H11897   9.581  12.680  11.726  0.3676  0.2486  2.5212
  829MOL0     H11898   9.497  12.530  11.539 -0.9749 -1.8752 -0.7282
  829MOL0     H11899   9.330  12.451  11.171 -2.4153 -0.5011 -0.7866
  829MOL0     H11900   9.357  12.300  10.969  0.7849  0.4674 -0.0374
  829MOL0     H11901   8.889  11.283   9.784 -0.6503  1.4984  0.9509
  829MOL0     H11902   8.782  11.180   9.606  0.6557  0.4937 -0.2706
  829MOL0     H11903   8.356  10.710   9.470 -0.7620  1.7973  0.0689
  829MOL0     H11904   8.263  10.695   9.248  1.1676 -0.0189 -3.1061
  829MOL0     H11905   8.318  10.694   8.952  1.9595  2.4577  1.6132
  829MOL0     H11906   8.176  10.720   9.064 -1.0821  1.4958  0.7359
  829MOL0     H11907   8.106  10.723   8.836  0.0990  0.1842 -1.5609
  829MOL0     H11908   8.218  10.850   8.792 -2.2721  0.0241 -1.8662
  829MOL0     H11909   7.984  10.933   8.812  2.7043  1.4892 -2.4892
  829MOL0     H11910   8.103  11.015   8.893 -1.1584  0.4712  0.8178
  829MOL0     H11911   7.921  11.006   9.021 -0.7883 -0.3566  1.2458
  829MOL0     H11912   8.036  10.916   9.123  0.7178  0.0266 -0.0370
  829MOL0     H11913   7.770  10.614   9.073 -2.9548  1.9475 -0.8435
  829MOL0     H11914   8.459  11.068   9.147  0.6403 -0.2723 -0.0671
  829MOL0     H11915   8.534  11.098   9.355 -0.6773  0.6485 -0.0586
  830MOL0     O11916   4.785  10.688   7.199 -0.4431 -0.0621 -0.0710
  830MOL0     C11917   4.908  10.652   7.225 -0.3995 -0.3983  0.5276
  830MOL0     O11918   5.020  10.731   7.247  0.3440  0.1916 -0.3621
  830MOL0     C11919   5.000  10.861   7.232  1.2613 -0.0189  0.0131
  830MOL0     C11920   5.067  10.939   7.145 -0.3649  0.3220 -0.1807
  830MOL0     C11921   5.052  11.078   7.136  0.4564  0.0278  0.0619
  830MOL0     C11922   4.954  11.145   7.197  0.2088 -0.6244  0.8257
  830MOL0     O11923   4.946  11.285   7.201  0.2738 -0.2419 -0.3518
  830MOL0     C11924   4.997  11.358   7.092  0.5833  0.2517  0.7795
  830MOL0     C11925   4.939  11.494   7.106 -1.0590  0.7684 -0.7137
  830MOL0     C11926   4.972  11.590   6.994 -0.0220  0.7571  0.4954
  830MOL0     C11927   4.858  11.693   6.979  0.3182 -1.1305  0.4098
  830MOL0     C11928   4.839  11.763   7.112 -0.9779 -1.0140 -0.5451
  830MOL0     C11929   4.745  11.887   7.089 -1.3179 -0.0470  0.0656
  830MOL0     C11930   4.703  11.961   7.219  0.6457  0.1129  0.3751
  830MOL0     C11931   4.788  12.077   7.262  0.1401  0.7041 -0.2302
  830MOL0     N11932   4.736  12.147   7.380 -0.3032  0.5256 -0.2538
  830MOL0     C11933   4.631  12.228   7.382 -0.2384 -0.2003 -0.0197
  830MOL0     C11934   4.624  12.264   7.509 -0.4108  0.3721  0.0410
  830MOL0     C11935   4.546  12.370   7.578  0.1476  0.1756 -0.5922
  830MOL0     C11936   4.398  12.366   7.550 -0.0735  0.1262 -0.0968
  830MOL0     C11937   4.324  12.493   7.612 -0.6056 -0.1204  0.2096
  830MOL0     C11938   4.188  12.512   7.546  0.5665 -0.3411 -0.0341
  830MOL0     O11939   4.081  12.471   7.632 -0.1446 -0.6759  0.8100
  830MOL0     C11940   3.956  12.491   7.604 -0.6586  0.5507  0.2885
  830MOL0     C11941   3.908  12.531   7.479  0.3540  0.3647 -0.6090
  830MOL0     C11942   3.772  12.548   7.452  0.6494  0.9086  0.4125
  830MOL0     C11943   3.730  12.585   7.308  0.1070 -0.2525 -0.0319
  830MOL0     C11944   3.677  12.510   7.550  0.5426 -0.8121  0.2794
  830MOL0     C11945   3.529  12.532   7.539 -0.1664  0.0717  0.9938
  830MOL0     O11946   3.444  12.468   7.631  0.5545  0.5860  0.1197
  830MOL0     C11947   3.309  12.469   7.620  0.2411  0.0927 -0.9434
  830MOL0     C11948   3.218  12.517   7.515  0.5462  0.0383  0.6936
  830MOL0     C11949   3.078  12.508   7.528  0.0480 -0.0579 -1.5646
  830MOL0     C11950   3.034  12.450   7.644 -0.8908  0.2738  0.3387
  830MOL0     O11951   2.900  12.446   7.653 -0.4167  0.1811  0.0763
  830MOL0     C11952   2.857  12.521   7.772  0.2026 -0.1944  0.2426
  830MOL0     C11953   2.794  12.651   7.699 -0.4957  0.0283  0.0127
  830MOL0     C11954   2.692  12.712   7.790  0.8987  0.3661 -1.0973
  830MOL0     C11955   2.570  12.629   7.799  1.5024 -0.0663  0.6045
  830MOL0     C11956   2.438  12.703   7.823  0.6735 -0.1070  0.1924
  830MOL0     C11957   2.381  12.783   7.700  0.2316 -0.0329 -0.0770
  830MOL0     C11958   2.348  12.932   7.726  0.2247  0.2342  0.3528
  830MOL0     C11959   2.298  13.006   7.598  0.0094  0.3881 -0.2417
  830MOL0    Cl11960   2.349  13.188   7.580 -0.0276 -0.0635  0.2883
  830MOL0     C11961   3.114  12.401   7.749 -0.6173  0.6768  0.3486
  830MOL0     C11962   3.251  12.421   7.736  0.1748 -0.6597  0.6060
  830MOL0     O11963   3.490  12.630   7.471  0.2145  0.1120  1.2020
  830MOL0     C11964   3.726  12.460   7.673  0.5350  0.4548  0.4193
  830MOL0     C11965   3.864  12.448   7.701 -0.4072  0.3089 -0.3869
  830MOL0     N11966   4.721  12.200   7.583 -0.2457 -0.1048 -0.0431
  830MOL0     N11967   4.792  12.135   7.503 -0.0962 -0.1029 -0.0056
  830MOL0     C11968   4.871  11.067   7.283  0.2436  0.1070  0.5343
  830MOL0     C11969   4.901  10.934   7.310  0.2520 -0.0606  0.0467
  830MOL0     C11970   4.936  10.506   7.240 -0.6570  0.5774 -0.1773
  830MOL0     C11971   4.832  10.410   7.284 -0.1634 -0.8382 -0.7956
  830MOL0     C11972   4.865  10.276   7.313  0.0839  0.3231 -1.0237
  830MOL0     C11973   4.989  10.232   7.275  0.1568  0.2072  0.2360
  830MOL0     O11974   5.008  10.099   7.310  0.1040  0.6527  0.3942
  830MOL0     C11975   5.132  10.032   7.264 -0.8650  0.1351  0.4879
  830MOL0     C11976   5.109   9.875   7.240  0.1726  0.0803 -0.2967
  830MOL0     C11977   5.116   9.786   7.363  0.2709 -0.2692 -0.1315
  830MOL0     C11978   5.080   9.642   7.338 -0.5107  0.5106  0.1275
  830MOL0     C11979   5.108   9.564   7.460 -0.4698 -0.0887 -0.7321
  830MOL0     C11980   5.134   9.515   7.570 -0.1831 -1.6968  0.1936
  830MOL0     C11981   5.087  10.317   7.220  0.2552  0.6965 -0.7504
  830MOL0     C11982   5.062  10.452   7.212  0.6068 -0.7795 -0.0959
  830MOL0     H11983   5.152  10.904   7.086 -0.6394  0.5452 -0.7167
  830MOL0     H11984   5.130  11.126   7.078 -0.1525  3.1086  1.6077
  830MOL0     H11985   5.106  11.350   7.093  0.4562 -3.4702 -0.4653
  830MOL0     H11986   4.964  11.315   6.996  2.0095  1.5719 -0.3551
  830MOL0     H11987   4.834  11.464   7.100 -1.0646  0.6999 -0.3246
  830MOL0     H11988   4.972  11.531   7.203  0.6851 -1.6222 -0.2909
  830MOL0     H11989   5.067  11.639   7.014  0.2499  0.9239 -1.0610
  830MOL0     H11990   4.982  11.532   6.901 -0.9804 -0.8405  1.3393
  830MOL0     H11991   4.881  11.768   6.902  0.9837 -0.8126  0.9044
  830MOL0     H11992   4.762  11.645   6.956 -1.6726 -0.2905  5.7176
  830MOL0     H11993   4.791  11.698   7.187 -1.7696 -0.2607 -0.3767
  830MOL0     H11994   4.935  11.793   7.154 -1.2051 -2.4258  1.1032
  830MOL0     H11995   4.796  11.959   7.026  1.2074 -0.3912  1.5803
  830MOL0     H11996   4.657  11.847   7.038  0.4273 -2.0180 -1.5805
  830MOL0     H11997   4.603  12.005   7.212  0.0656 -1.4549 -3.3088
  830MOL0     H11998   4.698  11.891   7.303 -0.6395  1.1580  1.2140
  830MOL0     H11999   4.806  12.146   7.179  1.7448  0.8254  0.1851
  830MOL0     H12000   4.882  12.029   7.291 -0.6323 -0.6942  0.0541
  830MOL0     H12001   4.572  12.273   7.303 -0.8485 -3.0346 -1.2754
  830MOL0     H12002   4.554  12.348   7.685  0.6929  1.1994 -0.4092
  830MOL0     H12003   4.590  12.469   7.562 -1.1645  0.9373  0.3095
  830MOL0     H12004   4.346  12.280   7.593 -0.5442  0.1434 -0.6128
  830MOL0     H12005   4.388  12.371   7.441  0.8488 -2.8906 -0.4137
  830MOL0     H12006   4.393  12.578   7.616  0.1212 -0.6492 -0.7914
  830MOL0     H12007   4.310  12.480   7.720  1.2585  2.1963  0.8039
  830MOL0     H12008   4.193  12.460   7.450 -1.4357 -1.6087  0.4993
  830MOL0     H12009   4.165  12.616   7.521  1.8895 -0.2149 -0.8033
  830MOL0     H12010   3.980  12.545   7.399 -0.7587 -3.2126 -2.4648
  830MOL0     H12011   3.786  12.527   7.233 -4.1951 -0.3388 -3.6026
  830MOL0     H12012   3.629  12.552   7.281 -0.7104  2.7295 -1.0303
  830MOL0     H12013   3.745  12.692   7.288  0.3488 -0.4598 -1.0372
  830MOL0     H12014   3.271  12.574   7.440  1.4411  0.3245  1.5219
  830MOL0     H12015   3.012  12.551   7.454  2.0721  2.7671 -1.9230
  830MOL0     H12016   2.778  12.467   7.824 -0.0274 -1.5326 -1.4050
  830MOL0     H12017   2.934  12.547   7.845 -1.3399  1.5355  1.3416
  830MOL0     H12018   2.876  12.723   7.691 -0.5310  0.1313  0.5497
  830MOL0     H12019   2.760  12.637   7.597  0.2736  2.7154 -0.6901
  830MOL0     H12020   2.674  12.815   7.758  1.6043  0.8451  0.0037
  830MOL0     H12021   2.722  12.742   7.890 -2.0448 -0.7643  0.2425
  830MOL0     H12022   2.556  12.569   7.709  0.8420  1.9588 -0.7187
  830MOL0     H12023   2.581  12.565   7.887 -3.3696  1.2784  2.5526
  830MOL0     H12024   2.437  12.769   7.910 -2.6399  1.2798 -0.7632
  830MOL0     H12025   2.360  12.634   7.854  1.5432 -0.5865  1.3966
  830MOL0     H12026   2.466  12.784   7.631  0.1725 -1.6783 -0.2114
  830MOL0     H12027   2.293  12.728   7.666  1.3501 -2.1255  0.2825
  830MOL0     H12028   2.435  12.990   7.760 -0.2759  2.0029 -1.1951
  830MOL0     H12029   2.277  12.955   7.806 -0.7664 -0.2289 -0.3731
  830MOL0     H12030   2.188  13.005   7.594 -0.0813  2.5109  0.4270
  830MOL0     H12031   2.327  12.945   7.512 -0.4433 -0.1555 -0.0228
  830MOL0     H12032   3.071  12.351   7.836 -2.5554 -2.5001 -2.1935
  830MOL0     H12033   3.323  12.390   7.811  4.7281  2.6448 -1.8854
  830MOL0     H12034   3.652  12.430   7.746 -3.9211  2.0692 -2.9668
  830MOL0     H12035   3.908  12.419   7.796  0.5354  2.1797 -0.1909
  830MOL0     H12036   4.798  11.119   7.343 -2.3682 -1.2919 -1.2539
  830MOL0     H12037   4.850  10.883   7.391  2.0228  0.3287  1.4640
  830MOL0     H12038   4.736  10.454   7.309 -0.4475 -3.4613  4.0656
  830MOL0     H12039   4.789  10.207   7.348 -1.6061  1.8312 -1.5450
  830MOL0     H12040   5.159  10.080   7.169 -1.4590 -1.7000 -0.6539
  830MOL0     H12041   5.215  10.041   7.334  1.8103 -0.8814 -2.3413
  830MOL0     H12042   5.188   9.838   7.173 -0.9544  2.6883 -3.2943
  830MOL0     H12043   5.029   9.855   7.168  0.1593  1.2535 -0.6280
  830MOL0     H12044   5.049   9.830   7.438 -0.6678  1.4164 -1.8788
  830MOL0     H12045   5.218   9.773   7.402 -0.0676  1.1682  1.3735
  830MOL0     H12046   5.121   9.591   7.251 -2.7080 -1.4028  0.1146
  830MOL0     H12047   4.971   9.641   7.329 -0.4117 -1.9437 -1.7971
  830MOL0     H12048   5.177   9.480   7.662  0.9760  3.0753  1.7564
  830MOL0     H12049   5.184  10.282   7.188  0.8733 -0.3726  2.0575
  830MOL0     H12050   5.128  10.520   7.159  0.8644  0.1414  1.3403
  831MOL0     O12051   6.826   6.088   0.610 -0.2426  0.0003 -1.0098
  831MOL0     C12052   6.784   5.973   0.611  0.2643 -0.1794 -0.3115
  831MOL0     O12053   6.666   5.932   0.542  1.2188  0.7637 -0.6303
  831MOL0     C12054   6.576   6.022   0.495 -0.1363 -0.3276  0.3054
  831MOL0     C12055   6.461   5.963   0.445 -0.1444  0.0367  0.2265
  831MOL0     C12056   6.366   6.030   0.370  0.1037 -0.4272 -0.5954
  831MOL0     C12057   6.388   6.163   0.340 -0.0663  1.0578  0.0456
  831MOL0     O12058   6.292   6.232   0.265 -0.2776  0.2616 -0.8273
  831MOL0     C12059   6.239   6.360   0.327 -0.5393  1.0098 -0.0866
  831MOL0     C12060   6.089   6.370   0.302 -0.6957 -0.0651  0.7391
  831MOL0     C12061   6.027   6.483   0.385  1.3144 -0.6519 -0.7314
  831MOL0     C12062   6.101   6.615   0.390 -0.4271  0.1841 -0.3647
  831MOL0     C12063   6.019   6.742   0.371 -0.0411  0.6000  0.2100
  831MOL0     C12064   6.113   6.864   0.376 -0.3456  0.1213  0.1439
  831MOL0     C12065   6.046   7.002   0.381 -0.1027  0.2159 -0.1316
  831MOL0     C12066   5.921   7.001   0.291 -0.2414 -0.2457 -0.4581
  831MOL0     N12067   5.957   6.979   0.151 -0.2934  0.3097 -0.4577
  831MOL0     C12068   6.022   7.065   0.066  0.9254 -0.7445 -0.1480
  831MOL0     C12069   6.007   7.032  -0.060  0.6865 -1.1004 -0.0669
  831MOL0     C12070   6.067   7.113  -0.168 -0.1520  0.3640  0.6350
  831MOL0     C12071   6.021   7.067  -0.299  1.1588  0.7898  0.0094
  831MOL0     C12072   6.034   7.171  -0.404 -0.6150 -0.5403 -0.1701
  831MOL0     C12073   6.005   7.127  -0.545  0.2007 -1.0405  0.0476
  831MOL0     O12074   6.000   7.249  -0.623  0.2640 -0.0486  0.5077
  831MOL0     C12075   5.870   7.284  -0.663  0.3540 -0.3941  0.0831
  831MOL0     C12076   5.863   7.339  -0.786 -0.1750  0.1239 -0.0136
  831MOL0     C12077   5.736   7.382  -0.844  0.2528  0.2147 -0.7405
  831MOL0     C12078   5.738   7.450  -0.970  0.1929  0.4518 -0.3386
  831MOL0     C12079   5.618   7.347  -0.775  0.7665  0.1668 -0.3600
  831MOL0     C12080   5.486   7.379  -0.830  0.5265 -0.4067  0.2470
  831MOL0     O12081   5.385   7.413  -0.736 -0.5604  0.5044  0.7996
  831MOL0     C12082   5.263   7.449  -0.781  0.8604 -0.9644 -0.1724
  831MOL0     C12083   5.159   7.360  -0.762  0.2136  0.0248 -0.7207
  831MOL0     C12084   5.034   7.383  -0.822  0.0075  0.3332  0.6736
  831MOL0     C12085   5.018   7.500  -0.896  1.5696 -0.1653  0.4897
  831MOL0     O12086   4.903   7.525  -0.971  0.9310 -0.3953  0.0081
  831MOL0     C12087   4.817   7.419  -1.012 -0.5716 -1.1355 -0.7274
  831MOL0     C12088   4.730   7.453  -1.135  0.1774  0.2357  0.5190
  831MOL0     C12089   4.628   7.569  -1.100 -0.5350  0.4706 -0.4985
  831MOL0     C12090   4.482   7.531  -1.134  0.0923  1.0175 -0.3361
  831MOL0     C12091   4.406   7.656  -1.167  0.0182 -0.0800  0.7954
  831MOL0     C12092   4.262   7.628  -1.206 -0.0521 -0.2290 -0.4179
  831MOL0     C12093   4.178   7.760  -1.247 -0.3862  0.0154  0.3260
  831MOL0     C12094   4.138   7.842  -1.124  0.1968  0.4440  0.1168
  831MOL0    Cl12095   3.989   7.756  -1.064  0.1242 -0.0548 -0.2719
  831MOL0     C12096   5.118   7.600  -0.914  0.0137  0.0644 -0.8172
  831MOL0     C12097   5.240   7.568  -0.853  0.2462 -0.4338 -0.0014
  831MOL0     O12098   5.469   7.365  -0.948  0.9688  0.9158 -0.7262
  831MOL0     C12099   5.623   7.301  -0.639 -0.6479  0.7399  0.6864
  831MOL0     C12100   5.750   7.266  -0.587 -0.3022 -1.4631  0.2453
  831MOL0     N12101   5.915   6.927  -0.049 -0.1487  0.1655 -0.3220
  831MOL0     N12102   5.888   6.897   0.075 -0.1691 -0.2113  0.3690
  831MOL0     C12103   6.507   6.222   0.384  0.0293 -0.6133 -0.2554
  831MOL0     C12104   6.597   6.155   0.464  0.2118  0.1567  0.3932
  831MOL0     C12105   6.867   5.855   0.661  0.0208 -0.6646  0.4840
  831MOL0     C12106   6.821   5.717   0.645 -0.3713  0.3944 -0.8813
  831MOL0     C12107   6.916   5.618   0.682  0.6405  0.3650  0.3659
  831MOL0     C12108   7.045   5.646   0.735 -1.1932 -0.1156 -0.1076
  831MOL0     O12109   7.119   5.533   0.753 -0.3923  0.1836  0.0692
  831MOL0     C12110   7.268   5.540   0.728  0.6147  0.2903 -0.2078
  831MOL0     C12111   7.312   5.414   0.669 -0.5554 -0.8064  0.3460
  831MOL0     C12112   7.310   5.300   0.774  0.1867  0.4086 -0.8753
  831MOL0     C12113   7.373   5.168   0.720 -0.3448  0.8320 -0.7644
  831MOL0     C12114   7.514   5.188   0.696 -0.0895  0.3463  0.4618
  831MOL0     C12115   7.632   5.216   0.668 -0.1128  0.3585 -1.3849
  831MOL0     C12116   7.085   5.780   0.745 -0.1401  0.3014  0.0411
  831MOL0     C12117   6.996   5.882   0.710 -1.1898  0.2723 -0.5822
  831MOL0     H12118   6.451   5.855   0.454  0.2357 -0.1063 -0.8857
  831MOL0     H12119   6.278   5.975   0.338 -0.5614  0.3337 -0.1075
  831MOL0     H12120   6.247   6.362   0.436 -0.8992  1.3570 -0.0619
  831MOL0     H12121   6.294   6.448   0.293 -1.3314  2.0646  1.2277
  831MOL0     H12122   6.075   6.382   0.194  2.7961  2.7012  0.3835
  831MOL0     H12123   6.033   6.279   0.327 -2.3060  0.3004 -1.2705
  831MOL0     H12124   5.933   6.515   0.340  1.8209  1.3145 -0.4687
  831MOL0     H12125   6.003   6.451   0.487 -0.6753  1.6246 -0.3900
  831MOL0     H12126   6.152   6.625   0.485 -0.1549 -1.1052 -0.3530
  831MOL0     H12127   6.169   6.618   0.305 -0.2755  0.3502 -0.2366
  831MOL0     H12128   5.960   6.736   0.279  0.4103 -1.2968  0.0059
  831MOL0     H12129   5.949   6.750   0.454 -0.0035  3.5262  0.0775
  831MOL0     H12130   6.170   6.857   0.469 -0.5377  1.9233  0.4337
  831MOL0     H12131   6.181   6.866   0.290  1.6361  1.8475  1.6357
  831MOL0     H12132   6.010   7.019   0.483 -1.1988  0.4825 -0.5518
  831MOL0     H12133   6.126   7.071   0.351  0.7931 -1.0382 -0.7006
  831MOL0     H12134   5.877   7.101   0.293 -1.5036 -0.7613 -0.9770
  831MOL0     H12135   5.851   6.927   0.331  1.0543  0.0699  2.6542
  831MOL0     H12136   6.095   7.144   0.082 -0.3043  0.8184 -1.9555
  831MOL0     H12137   6.040   7.218  -0.153 -2.4891  0.1626 -1.5028
  831MOL0     H12138   6.175   7.107  -0.182 -0.2913  1.6352 -1.3713
  831MOL0     H12139   5.914   7.045  -0.290  0.9192  1.2928 -1.4188
  831MOL0     H12140   6.081   6.977  -0.315  6.0396  3.5860  0.6868
  831MOL0     H12141   6.140   7.197  -0.400 -0.1568 -2.3982  0.5318
  831MOL0     H12142   5.970   7.255  -0.377  0.8036  0.0858  1.4003
  831MOL0     H12143   5.913   7.069  -0.545  0.2571 -1.1549 -1.1249
  831MOL0     H12144   6.082   7.058  -0.581  0.9616  0.3678 -1.1726
  831MOL0     H12145   5.951   7.362  -0.846  0.2671  1.6018  1.1427
  831MOL0     H12146   5.842   7.470  -1.000 -0.0765 -0.4284 -1.9664
  831MOL0     H12147   5.695   7.407  -1.060  1.1454 -0.9316 -0.1731
  831MOL0     H12148   5.683   7.542  -0.950 -0.0712  0.1356  0.4480
  831MOL0     H12149   5.166   7.263  -0.715 -1.1865 -0.9398 -2.3884
  831MOL0     H12150   4.960   7.303  -0.827  0.1239  0.2954 -1.1427
  831MOL0     H12151   4.878   7.330  -1.029  1.6118 -0.5947  3.0940
  831MOL0     H12152   4.754   7.392  -0.927 -0.0338 -0.7056 -0.1848
  831MOL0     H12153   4.788   7.482  -1.224 -1.1886 -0.7619 -0.7457
  831MOL0     H12154   4.686   7.356  -1.157 -1.6641  1.5084 -1.9525
  831MOL0     H12155   4.659   7.661  -1.151  3.3045  0.2133  1.0432
  831MOL0     H12156   4.635   7.599  -0.995 -0.7322  1.9810 -0.8920
  831MOL0     H12157   4.480   7.458  -1.216 -1.2246  0.2416  0.3446
  831MOL0     H12158   4.444   7.470  -1.052  0.0116 -1.3453 -2.0240
  831MOL0     H12159   4.454   7.699  -1.255  1.3324 -0.1926  1.4431
  831MOL0     H12160   4.409   7.733  -1.089 -0.5678  0.4476  0.3084
  831MOL0     H12161   4.271   7.566  -1.296  1.5324 -2.3758  1.1121
  831MOL0     H12162   4.205   7.562  -1.140 -0.7179  0.1127 -0.6424
  831MOL0     H12163   4.090   7.735  -1.307 -2.6975  3.7588  1.7445
  831MOL0     H12164   4.246   7.821  -1.306 -1.5819  0.3631 -0.7230
  831MOL0     H12165   4.122   7.948  -1.144 -1.2025  0.6116  1.8887
  831MOL0     H12166   4.219   7.834  -1.051  1.5370 -0.5690 -1.4177
  831MOL0     H12167   5.101   7.672  -0.993  1.6803 -1.3209 -2.5411
  831MOL0     H12168   5.326   7.633  -0.869  1.2149 -1.4491  0.8633
  831MOL0     H12169   5.529   7.272  -0.593 -1.4569  1.6003 -0.3748
  831MOL0     H12170   5.766   7.223  -0.489 -0.2028 -2.0380 -0.0196
  831MOL0     H12171   6.531   6.325   0.359  1.2690 -0.5354  1.1330
  831MOL0     H12172   6.687   6.215   0.477  0.9676 -0.4971 -1.4888
  831MOL0     H12173   6.722   5.682   0.620  0.1556 -2.4409  0.6194
  831MOL0     H12174   6.894   5.513   0.666  1.9315  0.0277  0.6999
  831MOL0     H12175   7.290   5.620   0.657 -1.2962 -0.8113 -2.1688
  831MOL0     H12176   7.315   5.562   0.824 -0.1940 -0.7315  0.4472
  831MOL0     H12177   7.414   5.431   0.634 -0.8249 -1.2508 -0.6779
  831MOL0     H12178   7.252   5.385   0.582 -2.0963  1.6089  0.5154
  831MOL0     H12179   7.211   5.285   0.820  0.3864  1.5477  0.0045
  831MOL0     H12180   7.378   5.327   0.855  0.6507 -0.1197 -1.0848
  831MOL0     H12181   7.325   5.153   0.623  1.8353 -0.7911 -1.6630
  831MOL0     H12182   7.359   5.085   0.789 -0.6339  0.7957 -0.8650
  831MOL0     H12183   7.732   5.242   0.640 -0.5409  4.4137  0.1905
  831MOL0     H12184   7.186   5.803   0.776  0.9080 -3.8457  0.2947
  831MOL0     H12185   7.041   5.979   0.731 -0.7578  0.3579 -1.8254
  832MOL0     O12186   5.543   9.495   7.209 -0.1172 -0.1459 -0.2972
  832MOL0     C12187   5.491   9.596   7.256 -0.4483 -0.0515 -0.5945
  832MOL0     O12188   5.449   9.707   7.181  0.5441 -0.1156  0.6246
  832MOL0     C12189   5.486   9.727   7.049  0.4028 -0.3622 -0.9392
  832MOL0     C12190   5.400   9.718   6.941  0.5453 -0.2869  0.2424
  832MOL0     C12191   5.434   9.760   6.811  0.0676  0.4153  0.5888
  832MOL0     C12192   5.560   9.807   6.784 -0.0367 -0.6301  0.6798
  832MOL0     O12193   5.594   9.849   6.660  0.9532  0.6489  0.2244
  832MOL0     C12194   5.714   9.812   6.603  0.0551  0.2209  1.0970
  832MOL0     C12195   5.698   9.743   6.468  0.7267 -0.5154 -0.0206
  832MOL0     C12196   5.843   9.750   6.420  0.0828 -0.5468  0.8870
  832MOL0     C12197   5.875   9.651   6.301  0.1718  0.4673 -0.4513
  832MOL0     C12198   6.019   9.652   6.255  0.0756  1.0336  0.7035
  832MOL0     C12199   6.055   9.544   6.147  0.0050 -0.3092  1.5780
  832MOL0     C12200   5.969   9.419   6.131 -0.0165  0.0213 -0.6042
  832MOL0     C12201   6.042   9.334   6.025  0.0063 -0.1213 -0.2108
  832MOL0     N12202   5.982   9.200   6.023 -0.1819 -0.0096  0.3297
  832MOL0     C12203   5.957   9.110   6.119  0.3187  0.3175 -0.2717
  832MOL0     C12204   5.915   8.996   6.055  0.3970  0.0039  0.4854
  832MOL0     C12205   5.885   8.871   6.128  0.7218 -0.6686  0.1394
  832MOL0     C12206   5.921   8.747   6.046  0.4342  1.0189 -1.5671
  832MOL0     C12207   5.859   8.612   6.111  0.7953  0.4805  0.0741
  832MOL0     C12208   5.917   8.476   6.054  0.1639 -0.9180 -0.1733
  832MOL0     O12209   5.874   8.368   6.135 -0.2988  0.5420 -0.2874
  832MOL0     C12210   5.814   8.258   6.077  0.2147  0.5430 -0.4531
  832MOL0     C12211   5.836   8.214   5.951 -0.2648 -0.5912  0.5555
  832MOL0     C12212   5.762   8.106   5.901 -0.0270 -0.4645 -0.7673
  832MOL0     C12213   5.783   8.074   5.756 -0.0100 -0.1010  0.3006
  832MOL0     C12214   5.666   8.042   5.987  0.3016 -0.0642  0.3113
  832MOL0     C12215   5.583   7.931   5.942 -0.3766  0.5724 -1.1015
  832MOL0     O12216   5.628   7.848   5.849  0.5377 -0.7432  0.5436
  832MOL0     C12217   5.547   7.763   5.781 -0.0374 -0.0035 -0.8358
  832MOL0     C12218   5.407   7.777   5.762 -0.0744 -0.1467 -1.3435
  832MOL0     C12219   5.328   7.676   5.689  0.1106 -0.5770 -0.8724
  832MOL0     C12220   5.382   7.571   5.626  0.4689 -0.2991  0.3631
  832MOL0     O12221   5.285   7.491   5.561 -0.2234 -0.2376  0.5808
  832MOL0     C12222   5.341   7.414   5.460 -0.6993 -1.3627  0.9122
  832MOL0     C12223   5.224   7.356   5.377  0.0716  0.7763  0.1695
  832MOL0     C12224   5.290   7.283   5.263  0.4647  0.4641  0.0678
  832MOL0     C12225   5.180   7.204   5.183  0.2432 -0.4347  0.1037
  832MOL0     C12226   5.242   7.124   5.070 -0.2464  0.5139  0.6235
  832MOL0     C12227   5.260   7.205   4.938  0.4343  0.3945  0.0879
  832MOL0     C12228   5.365   7.138   4.842  1.6920  0.0514 -0.2192
  832MOL0     C12229   5.362   7.189   4.696  0.2537 -0.1837 -0.3104
  832MOL0    Cl12230   5.468   7.094   4.587 -0.1408 -0.0933  0.1117
  832MOL0     C12231   5.516   7.553   5.650  0.1767 -0.2795 -0.2160
  832MOL0     C12232   5.601   7.646   5.719  0.0063 -0.4391 -1.0203
  832MOL0     O12233   5.491   7.909   6.017  0.2538  0.1144 -0.1752
  832MOL0     C12234   5.651   8.089   6.118  0.3112  0.2195  0.0466
  832MOL0     C12235   5.727   8.188   6.164 -0.3494 -0.4272  0.6817
  832MOL0     N12236   5.898   9.027   5.918  0.8739 -0.9277 -0.6650
  832MOL0     N12237   5.936   9.154   5.902 -0.1290 -0.4099 -0.0198
  832MOL0     C12238   5.656   9.804   6.889  0.0916 -0.4564 -0.7875
  832MOL0     C12239   5.617   9.770   7.025  0.3293 -0.4480  0.3682
  832MOL0     C12240   5.484   9.601   7.406  1.0939 -0.0126  0.6882
  832MOL0     C12241   5.471   9.728   7.464 -0.0097 -0.6889  0.2070
  832MOL0     C12242   5.469   9.743   7.602 -0.6158  0.2154  0.0290
  832MOL0     C12243   5.469   9.623   7.685  0.0115 -0.3372  0.0414
  832MOL0     O12244   5.461   9.649   7.814  0.1681  0.1090  0.2272
  832MOL0     C12245   5.324   9.647   7.855 -0.2306  0.0203 -0.9509
  832MOL0     C12246   5.318   9.727   7.981 -0.5563 -0.2089 -0.1321
  832MOL0     C12247   5.390   9.670   8.110 -0.0856 -0.1467  0.2894
  832MOL0     C12248   5.294   9.583   8.193  0.0649 -0.0603 -0.6009
  832MOL0     C12249   5.357   9.527   8.312  0.1688  0.0859 -0.6251
  832MOL0     C12250   5.407   9.482   8.420 -0.1279 -0.1436 -0.3241
  832MOL0     C12251   5.473   9.493   7.622 -1.0919  0.5073  0.0876
  832MOL0     C12252   5.489   9.486   7.482 -0.1557 -0.1856  0.2246
  832MOL0     H12253   5.301   9.676   6.956  0.9051 -0.5761  2.1607
  832MOL0     H12254   5.371   9.751   6.723  0.0364  0.4200  0.6111
  832MOL0     H12255   5.774   9.904   6.596  0.0131  0.1759 -0.1458
  832MOL0     H12256   5.764   9.734   6.660  1.0821 -0.1799 -0.2981
  832MOL0     H12257   5.652   9.644   6.474  1.1017 -0.7650 -1.1234
  832MOL0     H12258   5.637   9.806   6.403 -1.5067 -2.2857  0.2432
  832MOL0     H12259   5.861   9.855   6.397 -0.0610 -0.9129 -1.0653
  832MOL0     H12260   5.912   9.716   6.498 -0.5168  0.0463  1.6954
  832MOL0     H12261   5.841   9.548   6.315  0.5887  0.0249 -2.4078
  832MOL0     H12262   5.819   9.693   6.217 -0.2738  1.5118  0.3389
  832MOL0     H12263   6.052   9.747   6.212 -0.1131  0.4761 -0.7251
  832MOL0     H12264   6.089   9.636   6.338 -0.4408 -0.8354  0.8325
  832MOL0     H12265   6.064   9.591   6.049 -3.9560 -0.8719  0.8052
  832MOL0     H12266   6.156   9.513   6.175  0.1671  2.1824  4.1983
  832MOL0     H12267   5.964   9.368   6.227 -0.1760  2.5182  0.7965
  832MOL0     H12268   5.874   9.447   6.086  1.6518  0.1588 -4.4422
  832MOL0     H12269   6.146   9.324   6.059 -0.1948 -0.4047  0.3362
  832MOL0     H12270   6.048   9.378   5.925 -2.7405 -2.3500 -1.4853
  832MOL0     H12271   5.983   9.121   6.224 -0.4856 -0.5714  0.0353
  832MOL0     H12272   5.948   8.866   6.217  0.3788  2.4601  0.6733
  832MOL0     H12273   5.779   8.875   6.156  0.5509  0.7865 -0.6170
  832MOL0     H12274   6.029   8.726   6.044  0.3373 -0.0270  1.0438
  832MOL0     H12275   5.882   8.764   5.945 -1.0079 -3.8595 -2.1207
  832MOL0     H12276   5.753   8.609   6.083  1.0095 -1.3184 -0.7208
  832MOL0     H12277   5.857   8.610   6.220  0.8935 -0.4534  0.0628
  832MOL0     H12278   6.025   8.489   6.056  0.2768 -1.0387 -2.6783
  832MOL0     H12279   5.893   8.467   5.948  0.4288 -0.2144 -0.2940
  832MOL0     H12280   5.908   8.264   5.887  1.8925 -3.2047  0.7573
  832MOL0     H12281   5.858   8.143   5.717  1.0130 -1.6201 -0.4920
  832MOL0     H12282   5.824   7.974   5.744 -1.1881 -0.5157 -0.5220
  832MOL0     H12283   5.693   8.090   5.696  1.6248  3.4004 -1.5298
  832MOL0     H12284   5.369   7.867   5.809 -0.3209 -0.8103 -0.2256
  832MOL0     H12285   5.223   7.695   5.672 -0.1551 -1.7308 -0.5995
  832MOL0     H12286   5.407   7.474   5.398 -1.2460 -0.4583  1.1903
  832MOL0     H12287   5.411   7.338   5.496  2.7418  0.6722 -1.0329
  832MOL0     H12288   5.171   7.291   5.446 -0.3543  1.5885  0.6156
  832MOL0     H12289   5.153   7.430   5.338 -1.1510 -1.1247 -1.3934
  832MOL0     H12290   5.364   7.209   5.295 -0.6461 -0.7161  0.0195
  832MOL0     H12291   5.344   7.353   5.199  1.9788 -0.5416  0.1954
  832MOL0     H12292   5.131   7.133   5.250 -0.2772 -0.4408 -0.2809
  832MOL0     H12293   5.101   7.270   5.147 -0.1937  1.0054  3.3183
  832MOL0     H12294   5.168   7.046   5.050 -2.2029  2.1346  1.1924
  832MOL0     H12295   5.338   7.078   5.095  1.6207  1.8805 -3.2948
  832MOL0     H12296   5.163   7.225   4.893  0.9019  1.3942 -0.5083
  832MOL0     H12297   5.299   7.300   4.974  1.6045  0.2927 -0.8485
  832MOL0     H12298   5.358   7.029   4.838  2.3300 -0.3199  3.9966
  832MOL0     H12299   5.463   7.165   4.884  2.2210 -0.2379 -1.2261
  832MOL0     H12300   5.392   7.294   4.690 -0.0158  0.1300  2.3902
  832MOL0     H12301   5.259   7.178   4.661 -0.0778  0.6758  0.3302
  832MOL0     H12302   5.556   7.456   5.621  0.5438 -0.0088 -0.6292
  832MOL0     H12303   5.708   7.641   5.733  0.4131 -2.5498 -3.9315
  832MOL0     H12304   5.577   8.045   6.184  1.1265 -1.5662 -0.1550
  832MOL0     H12305   5.711   8.216   6.267 -0.7283 -2.9723  1.3919
  832MOL0     H12306   5.756   9.845   6.875 -0.1084 -0.1645 -1.3814
  832MOL0     H12307   5.677   9.791   7.113  1.5123 -0.2456 -0.4575
  832MOL0     H12308   5.462   9.818   7.406 -2.3845 -1.0193 -0.0469
  832MOL0     H12309   5.455   9.844   7.639 -3.7915 -0.5293  1.2276
  832MOL0     H12310   5.247   9.689   7.791 -2.4388  1.6361  2.4688
  832MOL0     H12311   5.290   9.545   7.878 -0.7109  0.5049  0.6169
  832MOL0     H12312   5.210   9.738   7.994 -0.6593  0.8918 -1.6938
  832MOL0     H12313   5.368   9.821   7.958  1.6396 -1.5837 -1.2890
  832MOL0     H12314   5.423   9.758   8.168 -0.5477 -0.2231  0.6817
  832MOL0     H12315   5.474   9.608   8.078 -1.3341  0.6987 -5.8067
  832MOL0     H12316   5.253   9.506   8.127 -2.4900  0.2080  0.5820
  832MOL0     H12317   5.209   9.643   8.226  0.7609  1.0480 -0.7640
  832MOL0     H12318   5.441   9.450   8.517 -1.1925 -1.2463 -0.3001
  832MOL0     H12319   5.480   9.397   7.671  0.2160 -0.3861 -1.6858
  832MOL0     H12320   5.489   9.387   7.437  0.4791 -0.9822  1.9112
  833MOL0     O12321   7.055   5.975   4.354  0.6941 -0.1586 -0.0076
  833MOL0     C12322   7.081   5.960   4.474 -0.8531  1.2158 -0.2701
  833MOL0     O12323   7.199   6.005   4.534 -0.0774  0.6039  0.5130
  833MOL0     C12324   7.264   6.116   4.486  0.8429 -0.3840 -0.5208
  833MOL0     C12325   7.406   6.131   4.498  0.0790 -0.1479  0.4791
  833MOL0     C12326   7.466   6.245   4.465 -0.4324 -0.2345  1.2246
  833MOL0     C12327   7.397   6.360   4.419  0.6662  0.0442 -0.4657
  833MOL0     O12328   7.465   6.463   4.368 -0.1095  0.0875  1.0201
  833MOL0     C12329   7.411   6.583   4.335 -0.2140  0.4633  0.1238
  833MOL0     C12330   7.535   6.679   4.301  0.5502 -0.0709  0.8980
  833MOL0     C12331   7.495   6.827   4.316 -0.3531  0.6233  0.5169
  833MOL0     C12332   7.390   6.865   4.217  1.1976  0.0604 -0.3829
  833MOL0     C12333   7.369   7.016   4.204 -1.3873  0.2267  0.4991
  833MOL0     C12334   7.235   7.040   4.124 -0.5106 -0.3238  0.0429
  833MOL0     C12335   7.179   7.180   4.141  0.5855  0.1938 -0.6656
  833MOL0     C12336   7.043   7.189   4.072 -1.0238  0.0476  0.2763
  833MOL0     N12337   6.979   7.315   4.108  0.7307 -0.5804  0.6547
  833MOL0     C12338   7.002   7.429   4.036 -0.4497  0.1345 -0.0583
  833MOL0     C12339   6.925   7.521   4.106  0.0476 -0.4156  0.1341
  833MOL0     C12340   6.927   7.674   4.080 -1.2583  0.2674  0.3278
  833MOL0     C12341   7.072   7.731   4.105  0.6625 -0.3516  0.0662
  833MOL0     C12342   7.068   7.872   4.149 -0.4676  0.1412  0.0685
  833MOL0     C12343   7.203   7.949   4.152  0.5262  0.5674  0.0067
  833MOL0     O12344   7.182   8.062   4.245  0.3767 -0.5198 -0.0015
  833MOL0     C12345   7.098   8.163   4.207  0.3201 -0.5378 -0.7114
  833MOL0     C12346   7.150   8.282   4.159 -0.5710  0.7932  0.1744
  833MOL0     C12347   7.065   8.384   4.112 -0.6397  0.3891 -0.8995
  833MOL0     C12348   7.140   8.508   4.059 -0.8039  0.0016 -0.4749
  833MOL0     C12349   6.925   8.375   4.119 -0.4101 -0.8775 -0.7265
  833MOL0     C12350   6.833   8.489   4.070 -0.1278  0.5246 -0.2530
  833MOL0     O12351   6.869   8.577   3.977  0.2613  0.8298 -0.0397
  833MOL0     C12352   6.775   8.634   3.888 -0.8537  1.1638  0.1088
  833MOL0     C12353   6.757   8.571   3.769  2.0270  0.2407  0.3647
  833MOL0     C12354   6.668   8.628   3.674  0.5734  0.8539 -0.0558
  833MOL0     C12355   6.583   8.732   3.710  0.0222  0.6372  0.0596
  833MOL0     O12356   6.478   8.771   3.635 -0.0888  0.1514 -0.1896
  833MOL0     C12357   6.511   8.783   3.495 -0.1551 -0.7083  0.0093
  833MOL0     C12358   6.401   8.848   3.401  0.1541 -0.4869  0.9734
  833MOL0     C12359   6.392   8.999   3.426 -0.3011 -0.2183 -0.2517
  833MOL0     C12360   6.247   9.047   3.410 -1.0499 -0.0778  0.1565
  833MOL0     C12361   6.225   9.203   3.434 -0.0336  1.3900  0.3379
  833MOL0     C12362   6.084   9.250   3.415 -0.1234 -0.6003 -0.0505
  833MOL0     C12363   6.084   9.412   3.418 -0.7819 -0.2754 -0.6026
  833MOL0     C12364   6.073   9.468   3.279  0.0906  0.0561  0.0799
  833MOL0    Cl12365   5.908   9.519   3.254 -0.0111  0.0456 -0.0556
  833MOL0     C12366   6.605   8.794   3.833  0.7535 -0.8342  0.4037
  833MOL0     C12367   6.705   8.748   3.912  0.4725 -0.6556 -0.8275
  833MOL0     O12368   6.722   8.488   4.123  0.2601 -0.1477  0.0974
  833MOL0     C12369   6.876   8.246   4.157 -0.4490  0.0372  0.2150
  833MOL0     C12370   6.956   8.145   4.194  0.7703  0.6267 -0.1189
  833MOL0     N12371   6.875   7.460   4.213  0.2913 -0.1480  0.1186
  833MOL0     N12372   6.902   7.336   4.217  0.0769  0.2566  0.4749
  833MOL0     C12373   7.257   6.351   4.395 -0.1043 -0.0610 -0.1475
  833MOL0     C12374   7.194   6.231   4.430  0.8744 -0.0676  0.4558
  833MOL0     C12375   7.000   5.853   4.537  0.2619 -0.1264 -0.9975
  833MOL0     C12376   7.027   5.805   4.666  0.6412 -0.1835  1.2583
  833MOL0     C12377   6.946   5.711   4.737  0.2220  0.6757  0.4667
  833MOL0     C12378   6.821   5.681   4.677 -0.1581 -0.2342 -0.7550
  833MOL0     O12379   6.735   5.606   4.755 -0.7019  0.4965 -0.7906
  833MOL0     C12380   6.609   5.564   4.705 -0.1847  0.0936 -0.1478
  833MOL0     C12381   6.525   5.508   4.819  0.1549  0.2646  0.7779
  833MOL0     C12382   6.385   5.483   4.766  0.7531  0.0571  0.9096
  833MOL0     C12383   6.311   5.406   4.860  0.6884  0.4954 -0.1358
  833MOL0     C12384   6.185   5.352   4.798 -0.1021  0.0063 -0.1639
  833MOL0     C12385   6.084   5.318   4.732  0.1079  0.8740 -0.5808
  833MOL0     C12386   6.797   5.723   4.552 -0.2586  0.6922 -0.1670
  833MOL0     C12387   6.884   5.813   4.485  0.7936  1.0598  0.2909
  833MOL0     H12388   7.460   6.052   4.549  2.6833  1.4556  0.3574
  833MOL0     H12389   7.573   6.248   4.483 -0.5582 -1.7453  2.3175
  833MOL0     H12390   7.346   6.575   4.248  1.5851  0.5027 -1.2882
  833MOL0     H12391   7.358   6.616   4.425  0.6621 -1.0976  1.2739
  833MOL0     H12392   7.618   6.657   4.369  0.4991 -0.4355  0.8457
  833MOL0     H12393   7.567   6.664   4.197 -1.7905  1.3751 -0.0985
  833MOL0     H12394   7.470   6.848   4.420 -0.2040 -0.4469  0.7795
  833MOL0     H12395   7.581   6.892   4.296 -2.8729  3.5153 -2.1191
  833MOL0     H12396   7.414   6.821   4.120  1.7122 -2.0680  0.6625
  833MOL0     H12397   7.297   6.817   4.246 -0.7669  2.7910 -1.6331
  833MOL0     H12398   7.372   7.058   4.305 -1.0410 -2.2737  1.5962
  833MOL0     H12399   7.446   7.057   4.138 -0.2073 -2.0110  0.3887
  833MOL0     H12400   7.245   7.019   4.017  0.6547  0.7253 -0.0794
  833MOL0     H12401   7.162   6.971   4.167  1.0424 -2.1499 -0.1543
  833MOL0     H12402   7.176   7.204   4.248  1.1574 -0.4143 -0.5021
  833MOL0     H12403   7.252   7.243   4.089  1.4912 -2.4596 -2.8649
  833MOL0     H12404   6.976   7.114   4.116 -0.1728  1.6376  4.7141
  833MOL0     H12405   7.054   7.178   3.964 -1.1531  0.0992  0.2568
  833MOL0     H12406   7.069   7.459   3.956 -0.8452  1.3732  0.0490
  833MOL0     H12407   6.895   7.692   3.977 -0.8374 -0.8308 -0.0142
  833MOL0     H12408   6.858   7.729   4.144  0.2300  1.2025  1.1866
  833MOL0     H12409   7.108   7.727   4.002 -0.7701  0.3820 -0.4938
  833MOL0     H12410   7.142   7.671   4.164  1.2011 -2.7875 -2.8436
  833MOL0     H12411   7.012   7.873   4.243 -3.3274 -0.8267 -1.5064
  833MOL0     H12412   7.019   7.929   4.070  2.7964  2.8473 -0.2453
  833MOL0     H12413   7.249   7.970   4.055 -0.0060 -2.1809 -0.9239
  833MOL0     H12414   7.275   7.881   4.199 -0.7761 -0.1999  0.9727
  833MOL0     H12415   7.257   8.301   4.157 -0.9892  3.5900  0.1179
  833MOL0     H12416   7.144   8.514   3.950  0.9614  0.4396 -0.4107
  833MOL0     H12417   7.081   8.597   4.086  1.0616  1.1875 -0.1148
  833MOL0     H12418   7.238   8.501   4.107  1.7230  2.1480 -4.7381
  833MOL0     H12419   6.815   8.483   3.742 -0.9889 -1.8639  0.2753
  833MOL0     H12420   6.656   8.588   3.573  0.8609 -1.0703  0.6281
  833MOL0     H12421   6.603   8.841   3.489  1.9847 -3.9270 -0.7075
  833MOL0     H12422   6.538   8.686   3.453  2.9397 -0.2909  0.8518
  833MOL0     H12423   6.437   8.833   3.298 -0.3060  1.5887  0.4721
  833MOL0     H12424   6.309   8.789   3.409 -0.1360 -0.3745 -1.0557
  833MOL0     H12425   6.456   9.049   3.353 -1.3993 -0.5362 -1.4784
  833MOL0     H12426   6.422   9.034   3.525 -0.7067  2.9135 -1.1321
  833MOL0     H12427   6.230   9.030   3.303 -0.6852 -0.6278  0.1811
  833MOL0     H12428   6.175   8.989   3.470  1.0198  0.0912  3.0138
  833MOL0     H12429   6.287   9.253   3.359 -0.2954  0.6505 -0.3849
  833MOL0     H12430   6.266   9.220   3.534  1.1225  1.8254 -0.1925
  833MOL0     H12431   6.040   9.208   3.324 -0.0034 -0.0347 -0.3714
  833MOL0     H12432   6.032   9.214   3.504  2.5892  1.6571  2.6514
  833MOL0     H12433   6.178   9.447   3.461 -0.9591 -1.6340  1.0034
  833MOL0     H12434   6.009   9.452   3.486  1.3828  0.4471  1.5210
  833MOL0     H12435   6.116   9.399   3.206  1.1173  1.9473 -1.2065
  833MOL0     H12436   6.133   9.557   3.257  0.3887 -0.0012  0.6496
  833MOL0     H12437   6.542   8.876   3.868  1.3568 -1.3335  2.9157
  833MOL0     H12438   6.729   8.808   3.999  1.9925 -3.5337  0.8846
  833MOL0     H12439   6.770   8.224   4.150 -0.2077 -2.8904  3.1079
  833MOL0     H12440   6.902   8.062   4.238 -3.3989  3.8236  1.4787
  833MOL0     H12441   7.194   6.430   4.356 -1.8785 -0.9395  0.8194
  833MOL0     H12442   7.087   6.228   4.412  1.1540  1.0940 -1.7165
  833MOL0     H12443   7.121   5.834   4.713  0.1580 -1.4862  3.1330
  833MOL0     H12444   6.968   5.671   4.836 -2.7126 -0.5623  0.7395
  833MOL0     H12445   6.570   5.653   4.656  2.7206  1.2409 -0.6197
  833MOL0     H12446   6.631   5.497   4.621 -2.3426  0.4528 -1.0685
  833MOL0     H12447   6.513   5.573   4.906 -1.1504 -1.6800  2.1556
  833MOL0     H12448   6.562   5.409   4.846 -1.3612 -0.7305 -0.6026
  833MOL0     H12449   6.390   5.426   4.673 -0.8796 -0.9235  1.3686
  833MOL0     H12450   6.331   5.575   4.740 -0.7533 -0.9406  0.3358
  833MOL0     H12451   6.283   5.463   4.949  1.9679 -1.5547  1.6934
  833MOL0     H12452   6.375   5.325   4.897  1.3750  1.4133  0.7503
  833MOL0     H12453   6.000   5.295   4.671  1.9122 -1.8150 -2.2598
  833MOL0     H12454   6.700   5.707   4.507 -0.6772  0.1761  0.9118
  833MOL0     H12455   6.855   5.844   4.386  3.1306 -1.9474 -1.5272
  834MOL0     O12456   7.855   4.460   4.801 -0.0205  0.1017  0.3697
  834MOL0     C12457   7.800   4.483   4.695  0.7348 -0.7614  0.5338
  834MOL0     O12458   7.664   4.487   4.682 -0.1141 -0.2534 -0.7680
  834MOL0     C12459   7.580   4.413   4.773 -0.8953 -0.3427 -0.1100
  834MOL0     C12460   7.623   4.294   4.830  0.4112  0.5955  0.1891
  834MOL0     C12461   7.539   4.223   4.911  0.4907  0.1512  0.9925
  834MOL0     C12462   7.412   4.265   4.944 -0.1613  0.0493  0.4943
  834MOL0     O12463   7.321   4.197   5.023  0.3481 -0.3731  0.0379
  834MOL0     C12464   7.336   4.053   5.034 -0.3030 -0.1344 -0.5793
  834MOL0     C12465   7.202   3.984   5.045  0.3652  0.0460  0.2619
  834MOL0     C12466   7.114   4.018   5.176  0.1271  0.7935  0.6942
  834MOL0     C12467   6.996   3.927   5.175  0.3404 -0.3713  0.2354
  834MOL0     C12468   7.035   3.786   5.213  0.3019 -1.2151  0.1618
  834MOL0     C12469   6.911   3.695   5.216  0.3236  0.1007  0.5160
  834MOL0     C12470   6.940   3.539   5.213 -1.0847  0.4503  0.2732
  834MOL0     C12471   6.804   3.465   5.209  0.3105 -0.4998  0.0036
  834MOL0     N12472   6.819   3.323   5.236  0.9744 -0.5157  0.5946
  834MOL0     C12473   6.855   3.227   5.143 -0.2337 -0.7274 -0.4882
  834MOL0     C12474   6.844   3.111   5.213 -0.0541  0.5500  0.4318
  834MOL0     C12475   6.855   2.971   5.159 -0.2876 -0.3976 -0.6678
  834MOL0     C12476   6.996   2.910   5.177  0.2524 -0.0868  0.5157
  834MOL0     C12477   7.037   2.877   5.321 -0.2535  0.5285 -0.3481
  834MOL0     C12478   6.948   2.781   5.394  0.2860  0.5035 -0.2209
  834MOL0     O12479   6.970   2.645   5.347  0.4184 -0.8036  0.3207
  834MOL0     C12480   6.901   2.537   5.410 -0.0075 -0.4110  0.0125
  834MOL0     C12481   6.937   2.412   5.360  0.3840  0.1041  0.0085
  834MOL0     C12482   6.878   2.289   5.409  0.9840 -0.4407  0.2353
  834MOL0     C12483   6.920   2.158   5.347  0.0649 -0.1501 -0.3652
  834MOL0     C12484   6.773   2.304   5.513 -0.7219  0.5567 -0.6937
  834MOL0     C12485   6.693   2.182   5.571  0.1521 -0.5334 -0.6087
  834MOL0     O12486   6.749   2.055   5.559 -0.0745  0.0938 -0.4582
  834MOL0     C12487   6.667   1.946   5.589  0.4449 -0.3743  0.3418
  834MOL0     C12488   6.667   1.839   5.492 -0.5720  1.3295 -0.0030
  834MOL0     C12489   6.597   1.724   5.520 -1.0161  0.2605  0.1778
  834MOL0     C12490   6.550   1.696   5.649  0.6934  0.0503  0.9191
  834MOL0     O12491   6.479   1.575   5.657 -0.7786 -0.9404 -0.6222
  834MOL0     C12492   6.407   1.536   5.780 -0.0484  0.2032 -0.6895
  834MOL0     C12493   6.270   1.593   5.772  1.0561  0.5367  0.5758
  834MOL0     C12494   6.195   1.582   5.644  0.7000 -0.2695  0.5507
  834MOL0     C12495   6.098   1.461   5.650 -0.3740 -0.3198  0.7644
  834MOL0     C12496   5.997   1.482   5.537  0.4962  0.3079 -0.5724
  834MOL0     C12497   5.890   1.373   5.534 -1.1220  0.1465  0.7652
  834MOL0     C12498   5.828   1.329   5.673  0.6068 -0.2759 -0.9471
  834MOL0     C12499   5.703   1.243   5.643 -0.3843 -0.6299  0.4999
  834MOL0    Cl12500   5.569   1.338   5.573  0.2871 -0.3824  0.2805
  834MOL0     C12501   6.551   1.800   5.742  0.4816  0.0635  0.7022
  834MOL0     C12502   6.599   1.925   5.707 -0.6619  0.7727  0.1132
  834MOL0     O12503   6.588   2.213   5.628  0.2511  1.3484 -0.5062
  834MOL0     C12504   6.740   2.435   5.554  0.1745 -0.0445  0.8145
  834MOL0     C12505   6.787   2.548   5.491 -0.3239 -0.3052 -0.4255
  834MOL0     N12506   6.820   3.142   5.343  0.1901  0.0733  0.2076
  834MOL0     N12507   6.797   3.270   5.356 -0.3020  0.3791 -0.1982
  834MOL0     C12508   7.371   4.386   4.886  0.2666  1.2713 -1.3462
  834MOL0     C12509   7.455   4.465   4.801 -0.3551  0.7118  0.3784
  834MOL0     C12510   7.884   4.502   4.571  0.1978 -0.2496  0.1028
  834MOL0     C12511   7.824   4.552   4.460 -0.0997  0.6964  0.0817
  834MOL0     C12512   7.903   4.586   4.351  0.6486 -0.0524 -0.2523
  834MOL0     C12513   8.038   4.570   4.350 -0.4375  0.0424 -0.7618
  834MOL0     O12514   8.118   4.610   4.245 -0.0495 -0.5338  0.5812
  834MOL0     C12515   8.090   4.730   4.172 -0.1003 -0.3282 -0.0566
  834MOL0     C12516   8.215   4.775   4.097 -0.3124  0.6773  0.8219
  834MOL0     C12517   8.198   4.918   4.034  0.3059  0.1663 -0.0165
  834MOL0     C12518   8.273   4.953   3.908 -1.2692  0.5106  0.8486
  834MOL0     C12519   8.414   4.936   3.927  0.5187  0.1624 -0.0220
  834MOL0     C12520   8.530   4.940   3.961 -0.3597 -0.5020 -0.0139
  834MOL0     C12521   8.099   4.524   4.463  0.2820 -0.1334 -0.1445
  834MOL0     C12522   8.018   4.482   4.566  0.1365  0.2453 -0.6955
  834MOL0     H12523   7.719   4.261   4.792  0.2293  2.0528 -1.7053
  834MOL0     H12524   7.575   4.128   4.949 -0.7367 -0.9926 -0.5695
  834MOL0     H12525   7.393   4.008   4.953 -0.3919 -0.3493 -0.5228
  834MOL0     H12526   7.400   4.035   5.120 -0.1988  0.5264 -0.5105
  834MOL0     H12527   7.135   3.992   4.959  0.8976 -0.7299 -0.2352
  834MOL0     H12528   7.230   3.878   5.047 -1.3451 -0.4332  2.7431
  834MOL0     H12529   7.160   3.990   5.271 -1.5357 -2.6699  0.6280
  834MOL0     H12530   7.093   4.125   5.185  2.2617  1.6272 -2.4834
  834MOL0     H12531   6.930   3.980   5.243  3.0899  2.9063  0.6119
  834MOL0     H12532   6.957   3.930   5.072  1.0721  2.6228 -0.0462
  834MOL0     H12533   7.102   3.738   5.141 -0.6312  1.2876 -2.5542
  834MOL0     H12534   7.073   3.798   5.315  1.0474  0.1607 -0.2565
  834MOL0     H12535   6.842   3.718   5.298 -0.7850 -1.4523  0.0708
  834MOL0     H12536   6.849   3.714   5.128  0.0768 -0.1478  0.6331
  834MOL0     H12537   7.005   3.505   5.132 -2.5709 -0.1173 -0.7216
  834MOL0     H12538   6.993   3.522   5.307 -2.0627  1.8757  1.1360
  834MOL0     H12539   6.774   3.467   5.104  0.6144 -0.7619 -0.0904
  834MOL0     H12540   6.720   3.519   5.253  0.4940 -0.3274  0.1449
  834MOL0     H12541   6.860   3.236   5.035 -1.3916  1.0837 -0.4368
  834MOL0     H12542   6.776   2.914   5.209 -1.7152  3.6323  2.1904
  834MOL0     H12543   6.836   2.967   5.051 -2.4437 -0.0320 -0.3601
  834MOL0     H12544   7.067   2.987   5.147  2.1884 -1.3049  1.7426
  834MOL0     H12545   7.005   2.828   5.105  1.3957  0.2381  0.2683
  834MOL0     H12546   7.041   2.969   5.380 -0.5741 -0.5714  1.4888
  834MOL0     H12547   7.137   2.834   5.320 -0.9603 -1.2157  0.2851
  834MOL0     H12548   6.848   2.822   5.379 -0.9885 -1.1083  2.9768
  834MOL0     H12549   6.963   2.782   5.502 -2.3472 -0.6513  0.2152
  834MOL0     H12550   7.009   2.404   5.278 -1.3361  1.0119 -1.6668
  834MOL0     H12551   6.835   2.090   5.342 -0.8610  1.0693 -3.1176
  834MOL0     H12552   6.964   2.184   5.250 -1.0417  0.0862 -0.8079
  834MOL0     H12553   6.984   2.098   5.413 -1.5919 -1.2152  0.3418
  834MOL0     H12554   6.729   1.848   5.403 -1.2215  3.1712 -0.3172
  834MOL0     H12555   6.593   1.640   5.451 -3.2623  0.3339  0.1349
  834MOL0     H12556   6.407   1.427   5.789  5.3832  0.1155  2.5065
  834MOL0     H12557   6.457   1.560   5.874 -1.3099  2.7674 -0.6038
  834MOL0     H12558   6.235   1.556   5.869  2.4498  0.7880  1.2092
  834MOL0     H12559   6.290   1.698   5.797  1.5855  0.6304 -0.1999
  834MOL0     H12560   6.252   1.567   5.551 -3.0987 -1.0161 -1.8688
  834MOL0     H12561   6.136   1.674   5.639 -0.7262 -1.2048 -0.6858
  834MOL0     H12562   6.141   1.362   5.633 -2.4967 -1.0411 -0.7786
  834MOL0     H12563   6.056   1.450   5.751 -2.2607 -0.1877  0.0314
  834MOL0     H12564   6.052   1.488   5.443  2.8218  0.0068  0.7116
  834MOL0     H12565   5.935   1.572   5.539 -3.5961 -2.2549  0.4993
  834MOL0     H12566   5.818   1.397   5.456 -1.0198 -1.7884  0.0103
  834MOL0     H12567   5.938   1.279   5.504 -1.7342  0.7858 -2.5515
  834MOL0     H12568   5.816   1.419   5.735  1.6774  1.1183 -2.6541
  834MOL0     H12569   5.909   1.271   5.718  2.9509  3.4872  0.1968
  834MOL0     H12570   5.679   1.186   5.733  3.2718 -2.1310  0.7244
  834MOL0     H12571   5.735   1.167   5.572 -2.1631 -1.2724  0.3466
  834MOL0     H12572   6.500   1.792   5.837 -2.7007 -0.3550 -0.9030
  834MOL0     H12573   6.591   2.009   5.774 -0.8532  1.7629 -1.1235
  834MOL0     H12574   6.661   2.445   5.628  1.4813  2.6441  1.9649
  834MOL0     H12575   6.756   2.640   5.538  0.2284 -0.1085 -0.4349
  834MOL0     H12576   7.275   4.414   4.926  0.2938 -1.2787  0.7778
  834MOL0     H12577   7.421   4.561   4.764 -2.5676  0.9496  2.7421
  834MOL0     H12578   7.715   4.560   4.456 -0.5565 -2.6757  1.6478
  834MOL0     H12579   7.858   4.603   4.254 -0.4260 -0.2046  0.2059
  834MOL0     H12580   8.005   4.722   4.103  0.7535 -1.1717 -1.0409
  834MOL0     H12581   8.071   4.803   4.251 -1.0019 -0.1922 -0.3882
  834MOL0     H12582   8.235   4.693   4.027  0.6893  1.0986  0.5884
  834MOL0     H12583   8.302   4.775   4.164  0.3561  0.6855 -0.0219
  834MOL0     H12584   8.242   4.980   4.113  0.1196  0.4377 -0.1295
  834MOL0     H12585   8.093   4.946   4.026  0.3989  1.3491  2.1134
  834MOL0     H12586   8.256   5.056   3.874  0.3957  0.0261 -1.7003
  834MOL0     H12587   8.243   4.889   3.825  0.1311  0.0706  0.6644
  834MOL0     H12588   8.631   4.938   3.995 -0.7524 -0.7273  1.1863
  834MOL0     H12589   8.205   4.508   4.484  0.1621 -1.4966 -0.5192
  834MOL0     H12590   8.063   4.419   4.642  1.1816 -0.0937 -1.5664
  835MOL0     O12591   0.757   3.152   6.934  0.7405 -0.1092 -1.0922
  835MOL0     C12592   0.739   3.158   7.058  0.5312 -0.3542 -1.4128
  835MOL0     O12593   0.617   3.150   7.118 -0.0214 -0.3785 -0.1605
  835MOL0     C12594   0.502   3.132   7.041  0.5895 -1.2864 -0.7144
  835MOL0     C12595   0.492   3.061   6.927  0.3012 -0.4438 -0.2498
  835MOL0     C12596   0.371   3.052   6.856  0.6045 -0.0868 -0.7266
  835MOL0     C12597   0.250   3.101   6.897  0.0778 -0.3253 -0.7096
  835MOL0     O12598   0.129   3.090   6.827  0.4950 -0.8578 -0.0023
  835MOL0     C12599   0.121   2.990   6.732  0.2704  0.0708  1.1050
  835MOL0     C12600  -0.023   2.992   6.665 -0.1591 -0.0949 -0.1876
  835MOL0     C12601  -0.068   2.862   6.617  0.1461 -0.0996  0.2444
  835MOL0     C12602  -0.112   2.763   6.723  0.6330  0.0131 -0.2245
  835MOL0     C12603  -0.102   2.613   6.683 -0.1536  0.3252  0.2132
  835MOL0     C12604  -0.211   2.572   6.578 -0.6408  0.6150 -0.5061
  835MOL0     C12605  -0.209   2.431   6.547  0.0111 -0.0389 -0.5456
  835MOL0     C12606  -0.236   2.327   6.654  0.9598 -1.4993 -0.5112
  835MOL0     N12607  -0.357   2.363   6.734  0.6656  0.7047  1.2935
  835MOL0     C12608  -0.358   2.434   6.847 -0.3130 -0.7481 -0.3805
  835MOL0     C12609  -0.482   2.404   6.897 -0.6872  0.2413  0.1009
  835MOL0     C12610  -0.503   2.439   7.041  0.5381 -0.4290  0.9545
  835MOL0     C12611  -0.492   2.594   7.063 -0.6581  0.5261 -0.3938
  835MOL0     C12612  -0.553   2.639   7.200 -0.2243 -0.1744  0.8812
  835MOL0     C12613  -0.702   2.611   7.236 -0.2272  0.0384 -1.1512
  835MOL0     O12614  -0.768   2.675   7.114  0.0158  0.6921 -0.3090
  835MOL0     C12615  -0.905   2.678   7.113  0.7060 -0.2227 -0.2692
  835MOL0     C12616  -0.953   2.764   7.012 -0.7019  0.2653  0.3153
  835MOL0     C12617  -1.093   2.776   6.987 -0.7388  0.8177 -0.2658
  835MOL0     C12618  -1.127   2.875   6.867 -0.2990  0.0183  0.3847
  835MOL0     C12619  -1.181   2.707   7.075  0.6930 -0.4274  1.0494
  835MOL0     C12620  -1.332   2.706   7.055 -0.6118 -0.1826  1.1417
  835MOL0     O12621  -1.387   2.828   7.053  0.0871 -0.5994 -0.1313
  835MOL0     C12622  -1.517   2.813   7.005 -0.2072 -0.3893 -0.7342
  835MOL0     C12623  -1.542   2.813   6.866 -0.6935  0.0898  1.1645
  835MOL0     C12624  -1.673   2.785   6.810 -0.9746  0.1916  0.2087
  835MOL0     C12625  -1.787   2.768   6.895 -0.2252 -0.5093 -0.4453
  835MOL0     O12626  -1.904   2.735   6.833  0.2412  0.6167  1.0419
  835MOL0     C12627  -2.012   2.656   6.903  0.3518 -0.1074 -0.4036
  835MOL0     C12628  -2.108   2.761   6.958  0.3347  0.9246  0.5915
  835MOL0     C12629  -2.223   2.707   7.046 -0.2529 -0.2457  0.3210
  835MOL0     C12630  -2.331   2.660   6.949 -0.5502 -0.1833 -0.3671
  835MOL0     C12631  -2.469   2.609   6.997 -0.6000  0.2029  0.4706
  835MOL0     C12632  -2.563   2.715   7.053  0.7658 -0.2342  0.0842
  835MOL0     C12633  -2.634   2.792   6.940 -0.6053 -1.0184  0.3933
  835MOL0     C12634  -2.730   2.898   6.993  0.4242  0.2514  0.1492
  835MOL0    Cl12635  -2.815   2.979   6.858  0.1537  0.1467 -0.3674
  835MOL0     C12636  -1.768   2.781   7.038  0.6745 -0.0394 -0.5037
  835MOL0     C12637  -1.635   2.803   7.089 -0.3165 -1.9694  0.9571
  835MOL0     O12638  -1.386   2.591   7.042  0.3704  0.1808  0.9516
  835MOL0     C12639  -1.136   2.633   7.179 -0.7694  0.9753  0.0503
  835MOL0     C12640  -0.995   2.614   7.207  0.1839  0.4207  0.2862
  835MOL0     N12641  -0.554   2.325   6.817  0.2849 -0.5574 -0.2330
  835MOL0     N12642  -0.481   2.299   6.716  1.1053 -0.4476  0.5843
  835MOL0     C12643   0.258   3.180   7.019 -0.5048 -0.0181 -0.3084
  835MOL0     C12644   0.388   3.191   7.088  0.3661 -0.0757  0.2780
  835MOL0     C12645   0.865   3.171   7.136 -0.3931 -0.0029 -0.1661
  835MOL0     C12646   0.987   3.153   7.068  1.0062 -0.7138  0.3765
  835MOL0     C12647   1.103   3.144   7.138  0.3663  0.6543 -0.2498
  835MOL0     C12648   1.102   3.154   7.280 -0.1798 -0.4775 -0.4882
  835MOL0     O12649   1.221   3.149   7.350 -0.3882 -0.6286 -0.1916
  835MOL0     C12650   1.323   3.244   7.310 -0.8665 -0.2827 -0.0665
  835MOL0     C12651   1.471   3.213   7.354 -0.0542  0.5059  0.0069
  835MOL0     C12652   1.470   3.173   7.501 -0.7277  0.6686  0.2817
  835MOL0     C12653   1.606   3.154   7.562  0.6215 -0.0256 -0.0437
  835MOL0     C12654   1.672   3.046   7.480 -0.6610 -0.1376  0.3871
  835MOL0     C12655   1.715   2.957   7.412 -0.0093  0.6565  0.1968
  835MOL0     C12656   0.976   3.171   7.347  0.7336  0.8032  0.4377
  835MOL0     C12657   0.860   3.184   7.275 -0.5717 -0.3025  0.3583
  835MOL0     H12658   0.576   3.013   6.878 -1.0183 -1.5169 -1.5849
  835MOL0     H12659   0.363   2.998   6.762 -1.7030 -4.2285  1.5777
  835MOL0     H12660   0.203   2.982   6.660  0.1576  0.5272  0.9189
  835MOL0     H12661   0.134   2.895   6.784 -1.4487 -2.3185 -2.4365
  835MOL0     H12662  -0.090   3.009   6.750  1.0237 -0.4454  0.8606
  835MOL0     H12663  -0.032   3.074   6.594  0.6202  0.4103  0.2809
  835MOL0     H12664  -0.159   2.870   6.557 -2.1315 -2.4253  3.0993
  835MOL0     H12665   0.015   2.820   6.559  0.8785  1.3624  0.1829
  835MOL0     H12666  -0.055   2.796   6.811  1.4138  0.8413 -1.0244
  835MOL0     H12667  -0.218   2.788   6.733  0.8083  1.4821 -1.6050
  835MOL0     H12668  -0.007   2.586   6.636 -0.0404 -0.5975  0.9278
  835MOL0     H12669  -0.095   2.544   6.768  1.4313 -1.6468 -1.4129
  835MOL0     H12670  -0.306   2.600   6.625 -2.1520 -1.1975 -2.2879
  835MOL0     H12671  -0.191   2.618   6.480  1.2127  0.5094 -0.2156
  835MOL0     H12672  -0.287   2.432   6.471 -0.9904  3.3454  0.3618
  835MOL0     H12673  -0.110   2.401   6.511  1.1299 -0.1413  2.2888
  835MOL0     H12674  -0.153   2.325   6.726 -0.3626  0.6743  1.1779
  835MOL0     H12675  -0.239   2.235   6.595  5.6005 -0.5930 -2.6338
  835MOL0     H12676  -0.278   2.496   6.888 -2.9944  2.1787  0.8859
  835MOL0     H12677  -0.593   2.385   7.072 -0.1426 -1.6672 -2.6954
  835MOL0     H12678  -0.424   2.391   7.099  1.2715 -0.5790 -0.1399
  835MOL0     H12679  -0.541   2.649   6.982 -1.7297  0.3327  0.1196
  835MOL0     H12680  -0.383   2.609   7.067  0.2269 -4.1946 -1.2018
  835MOL0     H12681  -0.537   2.747   7.215  0.4503 -0.2448  0.7020
  835MOL0     H12682  -0.480   2.591   7.266 -0.1680  0.7356  1.5018
  835MOL0     H12683  -0.734   2.655   7.331 -1.1175  0.1500 -1.4876
  835MOL0     H12684  -0.715   2.503   7.234 -0.7065  0.0945 -1.2079
  835MOL0     H12685  -0.895   2.828   6.946 -1.2107 -0.0563 -0.4530
  835MOL0     H12686  -1.099   2.818   6.778  2.6843 -1.1545  1.9240
  835MOL0     H12687  -1.229   2.914   6.872 -0.0587  1.4273 -3.2261
  835MOL0     H12688  -1.055   2.957   6.877  1.9354 -1.8109  0.3281
  835MOL0     H12689  -1.470   2.828   6.785 -2.6383 -2.8505 -1.3464
  835MOL0     H12690  -1.706   2.782   6.706 -1.3243 -1.6235  0.3414
  835MOL0     H12691  -2.064   2.600   6.825  1.1755  0.8187 -1.6703
  835MOL0     H12692  -1.964   2.584   6.971  0.8544  1.6401  1.1905
  835MOL0     H12693  -2.053   2.833   7.020  1.6630  1.5343 -1.1987
  835MOL0     H12694  -2.143   2.811   6.867  0.0484  0.4714  0.4488
  835MOL0     H12695  -2.254   2.787   7.114  0.5688 -0.0835  0.5200
  835MOL0     H12696  -2.190   2.620   7.104 -1.2286  0.1311  1.4715
  835MOL0     H12697  -2.348   2.735   6.872 -2.1431 -1.9335 -1.8316
  835MOL0     H12698  -2.285   2.586   6.883  1.7358  0.2773  0.6050
  835MOL0     H12699  -2.448   2.535   7.075  0.0238 -0.8822 -0.6756
  835MOL0     H12700  -2.511   2.566   6.905 -0.2420 -0.0497  0.4225
  835MOL0     H12701  -2.638   2.658   7.110  1.6542 -1.7320 -0.1920
  835MOL0     H12702  -2.512   2.786   7.118  1.2613 -1.3277  0.9142
  835MOL0     H12703  -2.689   2.723   6.875 -1.5395 -0.3337  0.4379
  835MOL0     H12704  -2.554   2.841   6.884 -1.1056 -1.0312 -0.3484
  835MOL0     H12705  -2.671   2.961   7.061  1.2789  0.4027 -0.7095
  835MOL0     H12706  -2.806   2.843   7.049  1.1673  0.7013  1.6797
  835MOL0     H12707  -1.846   2.766   7.111 -1.6453 -0.1482 -2.8630
  835MOL0     H12708  -1.606   2.837   7.188 -0.9724  0.9714  0.2325
  835MOL0     H12709  -1.211   2.581   7.238 -0.0075 -2.5649 -1.8528
  835MOL0     H12710  -0.958   2.545   7.282 -0.0829  1.1490  1.1135
  835MOL0     H12711   0.173   3.224   7.072  0.0772 -1.6041  2.0730
  835MOL0     H12712   0.397   3.230   7.188 -1.0558  0.6023  0.1693
  835MOL0     H12713   0.991   3.152   6.960 -0.3572  2.3475  0.1773
  835MOL0     H12714   1.189   3.136   7.072  1.1676 -0.8309  0.9417
  835MOL0     H12715   1.328   3.259   7.201  3.2203  2.9783  0.3400
  835MOL0     H12716   1.301   3.347   7.337  0.8898  0.6226 -1.8046
  835MOL0     H12717   1.530   3.304   7.351  1.1778 -0.1688  1.8819
  835MOL0     H12718   1.509   3.131   7.293  0.9328  0.7126  0.3373
  835MOL0     H12719   1.419   3.076   7.510 -1.5518  1.0498 -0.2085
  835MOL0     H12720   1.423   3.252   7.561 -0.6265  0.6729  0.3551
  835MOL0     H12721   1.600   3.119   7.666 -4.6363 -0.3918 -0.2517
  835MOL0     H12722   1.661   3.248   7.546  0.9302 -0.2091 -0.0713
  835MOL0     H12723   1.744   2.876   7.347  2.3859  1.4474  0.1737
  835MOL0     H12724   0.970   3.186   7.454 -3.1307  0.3807  0.4081
  835MOL0     H12725   0.767   3.205   7.327 -0.0123 -0.8534  1.5985
  836MOL0     O12726   0.424   0.047   3.028 -0.7582  0.1626 -0.1475
  836MOL0     C12727   0.489  -0.052   3.057  0.5009  0.7629 -0.2252
  836MOL0     O12728   0.425  -0.171   3.100 -0.2549  0.1019  0.0109
  836MOL0     C12729   0.288  -0.176   3.098 -0.7972 -0.2458 -0.2510
  836MOL0     C12730   0.213  -0.169   3.219  1.1386 -0.1950  0.3619
  836MOL0     C12731   0.078  -0.173   3.212  0.5760  0.0524 -0.0492
  836MOL0     C12732   0.007  -0.184   3.087 -0.6307 -0.3848  0.0529
  836MOL0     O12733  -0.130  -0.180   3.090  0.3355  0.3352 -0.6620
  836MOL0     C12734  -0.182  -0.314   3.076 -0.2695 -0.1498 -0.7269
  836MOL0     C12735  -0.325  -0.310   3.121  1.0148  0.3473  0.2362
  836MOL0     C12736  -0.399  -0.438   3.110  0.0855  0.9628 -0.2127
  836MOL0     C12737  -0.375  -0.523   2.986 -0.4010  0.3383 -0.3904
  836MOL0     C12738  -0.456  -0.644   2.979 -0.2669 -0.6334  0.0188
  836MOL0     C12739  -0.396  -0.733   2.875 -0.2753 -0.0056 -0.1937
  836MOL0     C12740  -0.448  -0.878   2.900 -0.6003 -0.1489  0.4159
  836MOL0     C12741  -0.420  -0.974   2.791 -0.0828 -0.5494  0.3622
  836MOL0     N12742  -0.292  -1.052   2.821 -0.4425 -0.0685 -0.2466
  836MOL0     C12743  -0.185  -1.081   2.737  0.5318 -0.3547 -0.5535
  836MOL0     C12744  -0.127  -1.188   2.785  0.4994 -0.0974  0.3372
  836MOL0     C12745  -0.030  -1.276   2.705 -0.6639  0.3673  0.3036
  836MOL0     C12746   0.119  -1.256   2.739  1.1800  0.1165  0.7452
  836MOL0     C12747   0.222  -1.309   2.640 -0.4746 -0.1219  0.1548
  836MOL0     C12748   0.263  -1.215   2.528 -0.5903 -0.5322  0.0012
  836MOL0     O12749   0.347  -1.276   2.435  0.1606  0.1134 -0.6499
  836MOL0     C12750   0.351  -1.228   2.303  0.2429  0.0666  0.1930
  836MOL0     C12751   0.283  -1.119   2.250  0.5885 -0.4203  0.1905
  836MOL0     C12752   0.283  -1.095   2.114  0.2267  0.6102  0.7484
  836MOL0     C12753   0.202  -0.970   2.071  0.2475 -0.1695 -0.4899
  836MOL0     C12754   0.359  -1.181   2.030 -0.0857 -0.3036  0.1146
  836MOL0     C12755   0.374  -1.165   1.878 -0.1043 -0.5833 -0.1906
  836MOL0     O12756   0.309  -1.063   1.814  0.5568  0.1203  0.5769
  836MOL0     C12757   0.334  -1.018   1.686 -0.0422  0.6857 -0.5455
  836MOL0     C12758   0.227  -0.960   1.619  1.0579 -0.5930  0.2348
  836MOL0     C12759   0.245  -0.869   1.503  0.1694 -0.2229  0.1617
  836MOL0     C12760   0.380  -0.852   1.463 -1.4698  0.4475 -0.0904
  836MOL0     O12761   0.407  -0.768   1.350  0.8281 -0.7374 -0.7336
  836MOL0     C12762   0.363  -0.816   1.218 -0.5003 -0.1497 -1.2610
  836MOL0     C12763   0.220  -0.783   1.177 -0.8406 -0.0535 -0.2252
  836MOL0     C12764   0.109  -0.893   1.181 -0.9891 -0.0922  0.7753
  836MOL0     C12765   0.003  -0.869   1.078  0.7424 -0.0592 -0.7858
  836MOL0     C12766  -0.113  -0.973   1.081  0.9434  0.2209 -0.0883
  836MOL0     C12767  -0.072  -1.119   1.051 -0.9207 -0.4541  0.5814
  836MOL0     C12768  -0.197  -1.213   1.053 -1.2392  0.0595 -0.0118
  836MOL0     C12769  -0.244  -1.273   0.918  1.0574  0.1830  0.2606
  836MOL0    Cl12770  -0.396  -1.180   0.865 -0.2137 -0.0739 -0.3900
  836MOL0     C12771   0.487  -0.921   1.532 -0.3267 -0.2409 -1.1773
  836MOL0     C12772   0.461  -1.000   1.640  0.2730  0.2580 -0.8550
  836MOL0     O12773   0.444  -1.244   1.819 -0.1117  0.1177 -0.4488
  836MOL0     C12774   0.420  -1.297   2.080  0.1102 -0.4572  0.0175
  836MOL0     C12775   0.413  -1.318   2.213  1.3462  0.1529  0.0164
  836MOL0     N12776  -0.184  -1.219   2.908  0.4021 -0.8325 -0.1981
  836MOL0     N12777  -0.285  -1.136   2.934  0.0891 -0.1380 -0.4102
  836MOL0     C12778   0.085  -0.163   2.967  0.4987  0.6085  0.0772
  836MOL0     C12779   0.221  -0.175   2.977 -0.3533  0.2300  0.0517
  836MOL0     C12780   0.635  -0.046   3.058  0.3031  0.4539 -0.4839
  836MOL0     C12781   0.702  -0.155   3.115 -0.5337 -0.9500 -0.8127
  836MOL0     C12782   0.839  -0.150   3.114  0.0594  0.1132  0.4707
  836MOL0     C12783   0.916  -0.048   3.062 -0.3541 -0.5210  0.5671
  836MOL0     O12784   1.048  -0.039   3.068 -0.8190 -0.2134  0.4276
  836MOL0     C12785   1.129  -0.162   3.067 -0.1133  0.7515 -1.1949
  836MOL0     C12786   1.278  -0.127   3.064 -0.4721  0.2025 -0.1342
  836MOL0     C12787   1.335  -0.075   2.928 -0.0806  0.8422 -0.0831
  836MOL0     C12788   1.484  -0.076   2.920 -0.3658  0.2082  0.0810
  836MOL0     C12789   1.537  -0.018   2.788 -0.5146  0.4226 -0.5564
  836MOL0     C12790   1.563   0.014   2.676 -0.2622 -0.2744  0.3957
  836MOL0     C12791   0.845   0.071   3.022  0.1143  0.0121  0.2923
  836MOL0     C12792   0.703   0.067   3.019  0.3054 -0.8103  0.1305
  836MOL0     H12793   0.267  -0.182   3.312  2.0615 -0.8966 -0.2581
  836MOL0     H12794   0.015  -0.177   3.301  1.8086 -1.7919  0.8103
  836MOL0     H12795  -0.168  -0.352   2.974  3.3002  0.7781 -0.7084
  836MOL0     H12796  -0.138  -0.387   3.144  0.6108  1.3912  0.4050
  836MOL0     H12797  -0.327  -0.276   3.225 -1.0212 -1.8535  1.0252
  836MOL0     H12798  -0.381  -0.236   3.063  1.1544 -0.4127 -0.8894
  836MOL0     H12799  -0.374  -0.505   3.191 -0.2928 -0.6047 -1.3438
  836MOL0     H12800  -0.506  -0.421   3.128  0.1027 -0.8410  2.0078
  836MOL0     H12801  -0.395  -0.471   2.891 -2.6496  0.8608  0.3033
  836MOL0     H12802  -0.267  -0.541   2.981 -0.1320  1.7467 -0.1200
  836MOL0     H12803  -0.463  -0.692   3.077  3.4343 -1.4692  0.0204
  836MOL0     H12804  -0.551  -0.606   2.940  0.4252 -0.5378 -1.6727
  836MOL0     H12805  -0.413  -0.698   2.773  2.3398  2.4197  0.0747
  836MOL0     H12806  -0.289  -0.737   2.898 -0.8414 -2.0655  2.7074
  836MOL0     H12807  -0.414  -0.925   2.992  1.9077 -1.1798 -0.9537
  836MOL0     H12808  -0.558  -0.884   2.901 -0.6475  0.4780 -0.0660
  836MOL0     H12809  -0.419  -0.918   2.697  2.1981 -0.0084  0.6572
  836MOL0     H12810  -0.509  -1.038   2.798 -0.8366  0.6847  3.1822
  836MOL0     H12811  -0.165  -1.043   2.637 -1.7710  1.4737 -0.4114
  836MOL0     H12812  -0.060  -1.377   2.733  2.2656 -0.3043  1.3139
  836MOL0     H12813  -0.033  -1.259   2.597  2.4897  0.3392  0.1192
  836MOL0     H12814   0.133  -1.310   2.833  2.1323  1.2146  1.2667
  836MOL0     H12815   0.118  -1.147   2.749 -2.7264  0.1055  2.2961
  836MOL0     H12816   0.186  -1.405   2.600 -1.7349 -1.4743  4.1121
  836MOL0     H12817   0.312  -1.315   2.702 -1.0339  1.7444  1.2342
  836MOL0     H12818   0.310  -1.130   2.579 -1.5836 -1.3881  2.4852
  836MOL0     H12819   0.179  -1.182   2.467 -0.2288 -1.4393 -1.0365
  836MOL0     H12820   0.228  -1.049   2.312 -0.3416 -1.5777  0.7174
  836MOL0     H12821   0.255  -0.883   2.031 -0.5286  1.0436  1.0035
  836MOL0     H12822   0.128  -1.018   2.007  1.2497 -2.6731  0.1144
  836MOL0     H12823   0.153  -0.916   2.152  1.4520  0.2922 -0.0405
  836MOL0     H12824   0.126  -0.969   1.655  0.2927  4.0796 -0.1616
  836MOL0     H12825   0.169  -0.825   1.438  3.9692 -0.2008 -4.8399
  836MOL0     H12826   0.427  -0.766   1.145  3.4611 -1.4383  1.0431
  836MOL0     H12827   0.375  -0.924   1.206 -4.9975 -0.9760 -0.2356
  836MOL0     H12828   0.182  -0.687   1.211  0.0573  0.1217  0.2983
  836MOL0     H12829   0.229  -0.763   1.069  2.6900  0.5585  0.0635
  836MOL0     H12830   0.065  -0.902   1.281  0.9820  2.8782  2.0770
  836MOL0     H12831   0.156  -0.988   1.155  1.1704  0.4333  2.4591
  836MOL0     H12832  -0.051  -0.774   1.083 -0.3357 -0.6220 -1.2521
  836MOL0     H12833   0.049  -0.859   0.979 -1.2170  1.5650 -1.6185
  836MOL0     H12834  -0.190  -0.951   1.007 -0.8221 -0.1392  1.5492
  836MOL0     H12835  -0.172  -0.973   1.174  1.2784  0.8482  0.1253
  836MOL0     H12836  -0.013  -1.129   0.960  1.5120 -0.8367  2.0856
  836MOL0     H12837  -0.000  -1.150   1.128  0.2316 -0.6264 -0.5321
  836MOL0     H12838  -0.284  -1.158   1.089 -3.2475 -1.8598 -1.6303
  836MOL0     H12839  -0.183  -1.300   1.117 -0.8455  0.3992  0.3660
  836MOL0     H12840  -0.269  -1.379   0.920  1.8458 -0.1924 -3.4012
  836MOL0     H12841  -0.166  -1.260   0.842  2.4098 -0.7469  1.4419
  836MOL0     H12842   0.586  -0.903   1.492 -0.4153 -1.4828 -2.0405
  836MOL0     H12843   0.545  -1.027   1.703  0.4247 -0.1184 -1.2154
  836MOL0     H12844   0.466  -1.373   2.016 -1.6054 -1.6524  0.1299
  836MOL0     H12845   0.443  -1.413   2.257  2.2570  0.5040  0.1776
  836MOL0     H12846   0.036  -0.145   2.872  0.8748  2.2780  0.1693
  836MOL0     H12847   0.279  -0.177   2.886  1.1657 -2.7160  0.9515
  836MOL0     H12848   0.651  -0.239   3.161 -1.5627 -0.2081 -0.5758
  836MOL0     H12849   0.893  -0.233   3.158  2.4991  2.1213  1.4758
  836MOL0     H12850   1.110  -0.208   3.164  1.7591  0.3657 -0.9892
  836MOL0     H12851   1.099  -0.215   2.976  5.5874  1.8486 -4.2103
  836MOL0     H12852   1.331  -0.221   3.076 -0.3191  0.4557  1.4318
  836MOL0     H12853   1.308  -0.065   3.149  1.0400  0.6839 -0.9872
  836MOL0     H12854   1.297   0.026   2.909  0.6474  0.8950 -1.3646
  836MOL0     H12855   1.303  -0.135   2.842  0.4655  3.7366 -2.4906
  836MOL0     H12856   1.522  -0.178   2.927  2.6250  1.3214  1.9107
  836MOL0     H12857   1.523  -0.025   3.009  0.5568  0.6834 -0.5755
  836MOL0     H12858   1.558   0.031   2.570 -1.0203 -0.4683  0.3944
  836MOL0     H12859   0.905   0.158   2.998 -0.3371  0.6923  1.5279
  836MOL0     H12860   0.663   0.154   2.969  3.3708  1.3901  1.2025
  837MOL0     O12861   7.122   0.203   3.567  0.4408  0.0954 -0.3811
  837MOL0     C12862   7.201   0.225   3.476  0.2437 -0.6608  0.4856
  837MOL0     O12863   7.209   0.148   3.359 -0.3200 -0.4502 -0.0849
  837MOL0     C12864   7.144   0.028   3.345 -0.7231 -0.3937  0.2723
  837MOL0     C12865   7.022   0.018   3.276 -0.9183  0.9669 -0.6297
  837MOL0     C12866   6.944  -0.098   3.281 -0.1062 -0.5715 -0.0945
  837MOL0     C12867   6.994  -0.217   3.330 -0.8841  0.0034  0.2431
  837MOL0     O12868   6.926  -0.327   3.298  0.4406 -0.3585 -0.7372
  837MOL0     C12869   6.980  -0.450   3.356  0.5316 -0.6831 -0.1753
  837MOL0     C12870   6.893  -0.566   3.303  0.3768 -0.9538 -0.1240
  837MOL0     C12871   6.957  -0.704   3.329 -0.3188 -0.5528  0.7974
  837MOL0     C12872   6.873  -0.817   3.292  0.2836  0.1485 -0.4073
  837MOL0     C12873   6.965  -0.948   3.282 -0.1400  0.0551  0.5952
  837MOL0     C12874   6.894  -1.053   3.196  0.0033 -0.1064  0.3790
  837MOL0     C12875   6.987  -1.164   3.156 -0.5504  0.4837 -0.2988
  837MOL0     C12876   6.980  -1.208   3.003  0.6734  0.2211  0.4641
  837MOL0     N12877   7.044  -1.340   2.995 -0.5630  0.3277 -0.2488
  837MOL0     C12878   6.984  -1.453   3.042 -0.2513 -0.1361 -0.2424
  837MOL0     C12879   7.088  -1.537   3.056  0.6364  0.8737 -0.4812
  837MOL0     C12880   7.094  -1.688   3.099 -0.3378 -1.2496 -0.0701
  837MOL0     C12881   7.157  -1.765   2.971  0.3825  0.6463 -0.3238
  837MOL0     C12882   7.172  -1.915   3.029 -1.2268 -0.2995  0.4678
  837MOL0     C12883   7.307  -1.938   3.098  0.6278  0.6024  0.3173
  837MOL0     O12884   7.324  -2.073   3.113  0.6674  0.1357 -0.9522
  837MOL0     C12885   7.446  -2.124   3.144  0.5483  0.1706  0.4855
  837MOL0     C12886   7.457  -2.257   3.112 -0.7179  0.0057 -0.9884
  837MOL0     C12887   7.574  -2.332   3.144  0.0999  0.5793  1.1862
  837MOL0     C12888   7.572  -2.479   3.125 -0.1067  0.3869  0.7067
  837MOL0     C12889   7.683  -2.257   3.188  0.1867 -0.2402 -0.4553
  837MOL0     C12890   7.816  -2.325   3.221  0.4823 -0.7033 -0.1133
  837MOL0     O12891   7.861  -2.443   3.161 -0.4014  0.7368  0.5441
  837MOL0     C12892   7.997  -2.505   3.179  0.3962 -0.5106  0.3560
  837MOL0     C12893   8.007  -2.650   3.165  0.2984 -1.4604  0.3015
  837MOL0     C12894   8.130  -2.704   3.161 -0.6074  0.1094  0.3320
  837MOL0     C12895   8.253  -2.643   3.183  0.1896 -1.2394  0.5101
  837MOL0     O12896   8.365  -2.721   3.181 -0.1275 -0.0029  0.2734
  837MOL0     C12897   8.487  -2.651   3.183  0.3038 -0.2869  0.2364
  837MOL0     C12898   8.605  -2.750   3.153  0.2832 -1.2602 -0.2532
  837MOL0     C12899   8.614  -2.781   3.007 -0.6725  0.1891  0.3209
  837MOL0     C12900   8.513  -2.885   2.955  0.2474  0.9315 -0.3932
  837MOL0     C12901   8.538  -2.909   2.804  0.5362 -1.1399 -0.2282
  837MOL0     C12902   8.469  -3.029   2.750  0.2461 -1.1811  0.0211
  837MOL0     C12903   8.527  -3.162   2.785 -0.1705  0.2043 -0.7081
  837MOL0     C12904   8.519  -3.279   2.681  0.0608  0.0905 -0.1188
  837MOL0    Cl12905   8.560  -3.424   2.777 -0.2588  0.0202 -0.0477
  837MOL0     C12906   8.243  -2.506   3.209  0.1998 -0.2583  0.3805
  837MOL0     C12907   8.117  -2.437   3.200  0.1322  0.3851 -0.3325
  837MOL0     O12908   7.882  -2.274   3.306  0.0120  0.3600  0.8222
  837MOL0     C12909   7.676  -2.121   3.211 -0.2759 -0.3084 -0.5856
  837MOL0     C12910   7.559  -2.050   3.177 -0.0832 -0.1168 -0.2744
  837MOL0     N12911   7.206  -1.477   3.022  0.2163  0.3173 -0.1614
  837MOL0     N12912   7.179  -1.354   2.990  0.0682  0.5123 -0.3369
  837MOL0     C12913   7.122  -0.211   3.393 -0.6203  0.6083  0.1934
  837MOL0     C12914   7.195  -0.089   3.394 -0.2506  0.0885 -0.6299
  837MOL0     C12915   7.283   0.354   3.500  0.0041  0.2414  0.9729
  837MOL0     C12916   7.368   0.398   3.397 -0.0317  0.5137 -0.2837
  837MOL0     C12917   7.443   0.524   3.409  0.6255 -0.2414  0.3541
  837MOL0     C12918   7.435   0.588   3.536  0.7027 -0.0952  0.2813
  837MOL0     O12919   7.508   0.707   3.557  0.1890 -0.1557  0.4973
  837MOL0     C12920   7.477   0.813   3.463  0.0429 -0.0935  0.3210
  837MOL0     C12921   7.591   0.913   3.440 -0.0756  0.4356 -1.2260
  837MOL0     C12922   7.712   0.843   3.386  0.4743 -0.4545  0.2342
  837MOL0     C12923   7.798   0.949   3.313  0.3388 -0.2332  0.4686
  837MOL0     C12924   7.939   0.908   3.292  0.6559 -0.2582  0.0096
  837MOL0     C12925   8.052   0.863   3.287 -0.1654  0.0415 -0.9424
  837MOL0     C12926   7.362   0.530   3.643  0.3801  0.6519 -0.2966
  837MOL0     C12927   7.285   0.413   3.626 -1.2950  0.5268 -0.0804
  837MOL0     H12928   6.971   0.111   3.253 -2.0484  0.3253 -0.8009
  837MOL0     H12929   6.848  -0.104   3.229 -0.4107 -1.7674  0.5760
  837MOL0     H12930   7.083  -0.467   3.326  1.4734  2.2154  1.0653
  837MOL0     H12931   6.979  -0.453   3.466  1.0122 -2.6429 -0.1844
  837MOL0     H12932   6.795  -0.563   3.350  0.0169  1.0451 -0.8937
  837MOL0     H12933   6.874  -0.549   3.196  1.2060 -1.0219 -0.2923
  837MOL0     H12934   7.052  -0.691   3.277 -0.3413  1.0116  1.0956
  837MOL0     H12935   6.987  -0.727   3.432 -0.7745 -3.1912  0.4153
  837MOL0     H12936   6.795  -0.848   3.363  2.2775 -1.0948  1.3410
  837MOL0     H12937   6.833  -0.788   3.195 -1.2428 -0.9435 -0.1528
  837MOL0     H12938   7.059  -0.926   3.231 -0.3008 -0.6419 -0.0108
  837MOL0     H12939   6.989  -1.006   3.372  1.6452 -1.9886 -1.0806
  837MOL0     H12940   6.810  -1.097   3.252 -0.4785 -1.9428 -1.6251
  837MOL0     H12941   6.855  -1.010   3.103  0.6689 -2.0130 -0.8333
  837MOL0     H12942   7.093  -1.137   3.158 -1.1684  3.4422 -1.6993
  837MOL0     H12943   6.972  -1.251   3.221  2.3159  1.7925  2.3823
  837MOL0     H12944   7.028  -1.136   2.937  0.2278 -1.7016 -2.1122
  837MOL0     H12945   6.878  -1.213   2.964  0.3991  2.4329  0.7706
  837MOL0     H12946   6.881  -1.485   3.053  0.2978 -1.8194  0.2815
  837MOL0     H12947   7.165  -1.689   3.183  1.2162 -0.6880 -1.3224
  837MOL0     H12948   6.994  -1.727   3.120  0.3393 -3.5435 -0.8077
  837MOL0     H12949   7.255  -1.731   2.938  1.6577 -2.5424 -0.1926
  837MOL0     H12950   7.090  -1.761   2.885  0.0443 -2.6514 -0.3448
  837MOL0     H12951   7.174  -1.987   2.947 -1.3465 -2.4770  2.2599
  837MOL0     H12952   7.096  -1.958   3.094 -0.3796 -1.2432  0.8693
  837MOL0     H12953   7.316  -1.890   3.196 -0.8889  1.6892 -0.0281
  837MOL0     H12954   7.381  -1.889   3.034  0.0723  2.9707  1.3648
  837MOL0     H12955   7.373  -2.311   3.070 -2.7944  1.9351  0.4285
  837MOL0     H12956   7.620  -2.508   3.032 -1.2610  0.1698  0.1632
  837MOL0     H12957   7.628  -2.536   3.200 -1.8304  0.0346  1.8077
  837MOL0     H12958   7.469  -2.514   3.143 -0.0098  1.7972  5.5544
  837MOL0     H12959   7.907  -2.691   3.158  0.2358 -1.5225  1.4431
  837MOL0     H12960   8.132  -2.812   3.148 -2.4084 -0.4900  3.6350
  837MOL0     H12961   8.500  -2.575   3.106  2.2871  1.5171  2.2143
  837MOL0     H12962   8.495  -2.603   3.281 -0.3870 -0.9880  0.6408
  837MOL0     H12963   8.696  -2.693   3.173 -0.5956  1.2230 -2.6401
  837MOL0     H12964   8.606  -2.845   3.207  1.4829 -1.1466 -0.0557
  837MOL0     H12965   8.712  -2.827   2.987 -1.0456 -0.8850  0.9396
  837MOL0     H12966   8.618  -2.688   2.950  1.0077  0.0814  0.2139
  837MOL0     H12967   8.521  -2.982   3.006 -1.1634  0.0719 -1.7049
  837MOL0     H12968   8.412  -2.850   2.981  0.2085  1.7171 -1.5401
  837MOL0     H12969   8.646  -2.917   2.788  0.5466  1.2841 -2.0061
  837MOL0     H12970   8.507  -2.824   2.742  2.2939 -0.5968 -0.4317
  837MOL0     H12971   8.363  -3.022   2.777 -0.1964 -0.6732 -1.7156
  837MOL0     H12972   8.473  -3.013   2.642  0.7384  1.1600  0.3160
  837MOL0     H12973   8.462  -3.189   2.869  1.2960 -1.5191 -0.0698
  837MOL0     H12974   8.628  -3.149   2.822  0.8509  0.7396 -3.4276
  837MOL0     H12975   8.595  -3.260   2.604 -0.5219  0.0748 -0.7027
  837MOL0     H12976   8.415  -3.281   2.647 -0.3355  2.9319  0.7255
  837MOL0     H12977   8.328  -2.440   3.223 -1.7727  3.1646 -2.0393
  837MOL0     H12978   8.127  -2.331   3.220  2.3236  0.0955  0.4069
  837MOL0     H12979   7.762  -2.067   3.249 -1.0141  1.5120 -1.3765
  837MOL0     H12980   7.560  -1.943   3.196 -1.6182  0.0141 -0.7636
  837MOL0     H12981   7.151  -0.308   3.432 -0.0151  1.2908  1.4989
  837MOL0     H12982   7.290  -0.084   3.446  0.2337 -2.0725 -1.2262
  837MOL0     H12983   7.382   0.348   3.302  1.4369 -1.5298  0.9158
  837MOL0     H12984   7.508   0.559   3.330 -0.7637  1.2841 -0.1741
  837MOL0     H12985   7.436   0.772   3.370 -0.7246 -0.0016  0.6102
  837MOL0     H12986   7.412   0.884   3.515  0.9607  1.7223 -0.9027
  837MOL0     H12987   7.623   0.963   3.532  0.5149  0.2546 -1.3234
  837MOL0     H12988   7.566   0.995   3.372  2.4755  3.2329  0.9191
  837MOL0     H12989   7.679   0.770   3.312  1.2913 -2.5894  1.8760
  837MOL0     H12990   7.770   0.790   3.462 -0.7998 -1.3559  0.6043
  837MOL0     H12991   7.801   1.037   3.377  2.9993 -0.3859  0.6805
  837MOL0     H12992   7.767   0.967   3.210 -0.5458  1.8260  1.0480
  837MOL0     H12993   8.151   0.824   3.295 -0.5843 -0.6700  1.5848
  837MOL0     H12994   7.367   0.576   3.741  3.2348 -0.1710  0.0225
  837MOL0     H12995   7.240   0.366   3.713 -1.1649  1.1353  0.3179
  838MOL0     O12996   7.385   8.727   2.577  0.4620  0.0222  0.0765
  838MOL0     C12997   7.343   8.745   2.460  0.7685  0.1249  0.3448
  838MOL0     O12998   7.408   8.814   2.363  0.5190  0.2596 -0.3160
  838MOL0     C12999   7.534   8.859   2.389 -0.2936  0.4182 -0.6618
  838MOL0     C13000   7.539   8.995   2.409  0.5440 -0.7139  0.4710
  838MOL0     C13001   7.664   9.051   2.433 -0.2247 -0.9201 -0.3527
  838MOL0     C13002   7.774   8.974   2.458 -1.0053  0.2833 -0.0811
  838MOL0     O13003   7.890   9.048   2.486 -0.2739 -0.0049  0.2789
  838MOL0     C13004   8.010   9.005   2.432 -0.6892 -0.2202  0.7687
  838MOL0     C13005   8.036   9.065   2.291 -0.1131  1.0310 -0.5251
  838MOL0     C13006   8.050   9.219   2.303  0.2239  1.0064  0.2111
  838MOL0     C13007   8.072   9.277   2.164  0.4743  0.3017  1.0840
  838MOL0     C13008   8.144   9.412   2.166 -0.1558 -0.6452  0.3356
  838MOL0     C13009   8.176   9.482   2.033  0.7870  0.0596  0.2746
  838MOL0     C13010   8.162   9.630   2.030 -1.0729  0.7718  0.0156
  838MOL0     C13011   8.281   9.703   2.085  0.3963  0.9347  0.0077
  838MOL0     N13012   8.242   9.839   2.126 -0.2885  1.0087 -0.3816
  838MOL0     C13013   8.235   9.875   2.250  0.0403 -0.5951 -0.5734
  838MOL0     C13014   8.196  10.002   2.247 -0.6006 -0.4243  0.0269
  838MOL0     C13015   8.171  10.077   2.377  0.3065  0.7507  0.3196
  838MOL0     C13016   8.280  10.180   2.419 -0.2256  0.6827  1.1292
  838MOL0     C13017   8.238  10.251   2.541  0.7615 -0.7460 -0.0218
  838MOL0     C13018   8.300  10.211   2.666  0.7062 -0.5104 -0.0177
  838MOL0     O13019   8.432  10.166   2.663 -0.0999  0.7366 -0.4738
  838MOL0     C13020   8.541  10.250   2.655  0.2082 -0.1429  0.9268
  838MOL0     C13021   8.666  10.190   2.693 -0.6710 -0.1904  0.4171
  838MOL0     C13022   8.787  10.269   2.681  0.0709  0.3377  0.2950
  838MOL0     C13023   8.916  10.196   2.707  0.2226  0.2597 -0.0290
  838MOL0     C13024   8.781  10.401   2.639  0.8626  0.2973  0.6702
  838MOL0     C13025   8.899  10.497   2.639  0.8668  1.5274  0.5122
  838MOL0     O13026   8.894  10.588   2.539  0.4667 -0.6346  0.0087
  838MOL0     C13027   9.001  10.678   2.523 -0.3955 -0.1276  0.1057
  838MOL0     C13028   8.962  10.814   2.503  0.2051  0.5703 -0.1447
  838MOL0     C13029   9.064  10.909   2.477 -0.4092 -0.1367 -0.2758
  838MOL0     C13030   9.202  10.878   2.494 -0.1141 -0.4551  0.5135
  838MOL0     O13031   9.301  10.966   2.500  0.1699 -0.5576 -0.0711
  838MOL0     C13032   9.295  11.045   2.617  0.7115  0.1191 -0.4663
  838MOL0     C13033   9.438  11.044   2.669 -0.5872 -0.8946 -0.8064
  838MOL0     C13034   9.542  11.116   2.587  0.6858  0.5407  0.2094
  838MOL0     C13035   9.678  11.115   2.649  0.1150  0.8543 -0.9592
  838MOL0     C13036   9.785  11.211   2.600 -0.3200 -0.2497 -1.1707
  838MOL0     C13037   9.912  11.186   2.686  0.7533  0.2937  1.0052
  838MOL0     C13038  10.033  11.275   2.640  0.1907  0.0033  0.4477
  838MOL0     C13039   9.997  11.421   2.613  0.2559  0.3705 -0.2312
  838MOL0    Cl13040   9.942  11.503   2.764  0.0565 -0.1752  0.2591
  838MOL0     C13041   9.238  10.750   2.521 -0.3809 -0.8056 -0.2361
  838MOL0     C13042   9.140  10.652   2.531 -0.7505  0.7947 -0.0434
  838MOL0     O13043   8.989  10.489   2.729  0.0708  0.2166  0.0810
  838MOL0     C13044   8.653  10.459   2.605  0.3755  0.2812 -0.3966
  838MOL0     C13045   8.537  10.384   2.608  0.0972  0.3614 -0.1607
  838MOL0     N13046   8.191  10.044   2.114  0.0165  0.1255 -0.5274
  838MOL0     N13047   8.220   9.940   2.040  0.3466  0.3108 -0.0585
  838MOL0     C13048   7.767   8.831   2.443  0.0313 -0.6966  1.1835
  838MOL0     C13049   7.654   8.781   2.400  0.9824  1.5356 -0.5455
  838MOL0     C13050   7.208   8.684   2.425 -1.0891  0.3385 -1.1490
  838MOL0     C13051   7.141   8.714   2.316  0.3683 -1.1262 -0.2455
  838MOL0     C13052   7.013   8.661   2.281  0.1585  0.2056 -0.8409
  838MOL0     C13053   6.951   8.564   2.362  0.1378  0.0464  0.1775
  838MOL0     O13054   6.819   8.523   2.341  0.0423 -0.8841  0.5386
  838MOL0     C13055   6.765   8.394   2.405 -0.6745 -0.9290  0.9506
  838MOL0     C13056   6.614   8.363   2.380  0.0998  0.2629  0.9477
  838MOL0     C13057   6.517   8.464   2.445 -0.4064  0.4478  0.0061
  838MOL0     C13058   6.369   8.434   2.413 -1.0683  0.4383  0.0011
  838MOL0     C13059   6.287   8.536   2.458 -0.3844 -0.0948 -0.4571
  838MOL0     C13060   6.241   8.645   2.506 -0.5933  0.0901  0.3107
  838MOL0     C13061   7.021   8.516   2.470  0.1786  0.9779 -0.4131
  838MOL0     C13062   7.147   8.578   2.503  0.9133  0.4388 -0.6150
  838MOL0     H13063   7.450   9.055   2.394  1.9852  1.3603 -0.1605
  838MOL0     H13064   7.675   9.159   2.438 -2.8318 -0.6224  0.2474
  838MOL0     H13065   8.090   9.045   2.495 -1.8389  1.7482  1.0455
  838MOL0     H13066   8.007   8.897   2.416  1.8397 -0.0997 -1.2017
  838MOL0     H13067   8.125   9.022   2.243 -0.9411 -2.5475  0.8226
  838MOL0     H13068   7.952   9.049   2.223  0.8135  2.1398 -1.9838
  838MOL0     H13069   7.948   9.253   2.322  0.0851  1.0434 -0.5577
  838MOL0     H13070   8.120   9.250   2.382 -0.8053 -0.3808  1.7277
  838MOL0     H13071   8.135   9.211   2.104 -0.2934  0.7319 -0.2390
  838MOL0     H13072   7.976   9.299   2.117  1.4677  2.8947  0.0341
  838MOL0     H13073   8.077   9.485   2.212 -2.0095 -2.3649  0.5062
  838MOL0     H13074   8.241   9.400   2.215  1.7342  0.6381 -2.7806
  838MOL0     H13075   8.275   9.454   1.996  0.7636 -0.4390  0.5840
  838MOL0     H13076   8.108   9.448   1.954 -0.8050 -1.5499  2.2296
  838MOL0     H13077   8.162   9.645   1.922  2.0546 -1.6970 -0.4922
  838MOL0     H13078   8.075   9.660   2.088 -0.3474  1.6513  0.6828
  838MOL0     H13079   8.357   9.714   2.007 -1.2235  1.8215 -1.5104
  838MOL0     H13080   8.321   9.642   2.167 -2.0876  0.1540  0.7287
  838MOL0     H13081   8.250   9.824   2.344  0.3039  2.2797  1.0713
  838MOL0     H13082   8.074  10.125   2.360  0.1633  0.1323 -0.6746
  838MOL0     H13083   8.148  10.010   2.461  1.2036 -2.1291 -1.5888
  838MOL0     H13084   8.280  10.256   2.340 -0.9983 -0.2586  0.1857
  838MOL0     H13085   8.385  10.150   2.426 -0.6253 -1.6253 -1.1074
  838MOL0     H13086   8.130  10.246   2.553  0.7937  1.3274  1.5211
  838MOL0     H13087   8.256  10.357   2.520  3.5937 -1.4477 -1.8125
  838MOL0     H13088   8.240  10.140   2.724 -1.9524  0.2547 -1.6464
  838MOL0     H13089   8.299  10.305   2.721  0.0381 -1.2801  1.3372
  838MOL0     H13090   8.667  10.086   2.725  1.0389 -0.0397  0.9574
  838MOL0     H13091   8.884  10.095   2.735 -5.3823  0.7095 -3.2637
  838MOL0     H13092   8.986  10.187   2.624  0.4670  1.4653  0.0230
  838MOL0     H13093   8.969  10.243   2.790 -0.5894  0.5094  0.3643
  838MOL0     H13094   8.858  10.844   2.511  0.2618  0.3163  1.9686
  838MOL0     H13095   9.039  11.015   2.468  1.1369  0.4633  1.7958
  838MOL0     H13096   9.264  11.148   2.600  0.4076  0.2024  0.4933
  838MOL0     H13097   9.225  10.998   2.686 -0.5601 -1.3885 -2.6824
  838MOL0     H13098   9.430  11.098   2.764 -0.4850 -1.0077 -0.7324
  838MOL0     H13099   9.465  10.938   2.682 -0.9666 -0.8458  0.6044
  838MOL0     H13100   9.501  11.211   2.554 -0.0610  0.1951  0.1256
  838MOL0     H13101   9.556  11.062   2.492 -1.0673  0.1757  0.1218
  838MOL0     H13102   9.662  11.138   2.755  0.2005 -0.7363 -0.5766
  838MOL0     H13103   9.725  11.016   2.652 -1.3498  0.1104 -1.3941
  838MOL0     H13104   9.738  11.303   2.636 -2.4122 -1.1050 -1.5705
  838MOL0     H13105   9.809  11.210   2.493  1.1751 -0.2549 -0.8586
  838MOL0     H13106   9.882  11.205   2.790  0.7556 -1.0481  1.2762
  838MOL0     H13107   9.946  11.082   2.675  1.0403  0.4508  0.3918
  838MOL0     H13108  10.077  11.235   2.548 -0.7798 -0.3159  0.1110
  838MOL0     H13109  10.112  11.275   2.716 -1.2174  0.4104  1.9753
  838MOL0     H13110   9.918  11.423   2.538  1.0943 -1.3523 -1.2192
  838MOL0     H13111  10.087  11.475   2.583  1.8016 -1.6359  0.5373
  838MOL0     H13112   9.340  10.724   2.548  0.2905 -0.1102 -1.9663
  838MOL0     H13113   9.167  10.547   2.537  0.8923  0.7782 -4.3724
  838MOL0     H13114   8.643  10.562   2.573 -1.5662 -0.3654 -2.1688
  838MOL0     H13115   8.439  10.422   2.583 -0.2684 -0.2425  0.3141
  838MOL0     H13116   7.854   8.769   2.464 -0.6571 -0.9559  3.4953
  838MOL0     H13117   7.645   8.673   2.397 -0.2357  1.6487 -1.8058
  838MOL0     H13118   7.178   8.789   2.248  0.6172 -0.6192  0.4360
  838MOL0     H13119   6.970   8.687   2.185  0.6958  0.3664 -1.0405
  838MOL0     H13120   6.823   8.317   2.353 -2.5548 -0.9389 -1.2737
  838MOL0     H13121   6.789   8.394   2.512  1.2962  3.2602  0.6988
  838MOL0     H13122   6.590   8.259   2.404 -0.4134 -0.1241 -1.0744
  838MOL0     H13123   6.595   8.383   2.275 -0.4901  2.9085  1.4940
  838MOL0     H13124   6.546   8.557   2.395 -0.9239  0.6174  0.0139
  838MOL0     H13125   6.537   8.484   2.550  0.3245 -1.6266  0.3098
  838MOL0     H13126   6.338   8.345   2.469  1.3881 -0.9971 -0.7528
  838MOL0     H13127   6.363   8.420   2.304 -0.9482  1.3986 -0.1335
  838MOL0     H13128   6.198   8.737   2.541 -3.2848  0.7392 -3.9233
  838MOL0     H13129   6.991   8.438   2.538 -1.1363 -0.5800 -2.6689
  838MOL0     H13130   7.185   8.561   2.603 -1.3019  2.6694  0.7086
  839MOL0     O13131   6.968   6.999   1.294 -0.1124  0.3355  0.3118
  839MOL0     C13132   7.003   6.913   1.377 -0.4083 -0.1958 -0.0115
  839MOL0     O13133   7.108   6.824   1.362 -0.4569 -0.5774 -0.3384
  839MOL0     C13134   7.164   6.823   1.235 -0.2608 -1.0271 -0.3728
  839MOL0     C13135   7.231   6.933   1.179 -0.3429  0.5761  0.1890
  839MOL0     C13136   7.256   6.926   1.032 -0.1960  1.0368 -0.5983
  839MOL0     C13137   7.244   6.804   0.961  0.2519  0.5724 -0.1115
  839MOL0     O13138   7.270   6.800   0.830 -1.2371 -0.4310  0.1405
  839MOL0     C13139   7.179   6.715   0.751 -0.1707  0.2079  0.8045
  839MOL0     C13140   7.243   6.574   0.728  0.0487  0.3965  0.1855
  839MOL0     C13141   7.363   6.582   0.633 -0.4186 -0.1726 -0.3176
  839MOL0     C13142   7.463   6.473   0.652  0.5644 -0.2982 -0.5063
  839MOL0     C13143   7.407   6.334   0.674  0.2831 -0.1404  0.3481
  839MOL0     C13144   7.507   6.233   0.618  0.2820  0.0514 -0.0086
  839MOL0     C13145   7.450   6.087   0.665  0.9369 -0.5661 -0.2555
  839MOL0     C13146   7.570   5.980   0.651 -0.4124 -1.1635 -0.0084
  839MOL0     N13147   7.561   5.862   0.741  0.9141  0.2568 -0.7185
  839MOL0     C13148   7.619   5.863   0.864 -0.3409  0.0948  0.4189
  839MOL0     C13149   7.599   5.729   0.907 -0.5620 -0.3522 -0.2917
  839MOL0     C13150   7.647   5.655   1.034 -0.3561  0.0043  0.2117
  839MOL0     C13151   7.789   5.584   1.004 -0.3372  0.0395  0.5132
  839MOL0     C13152   7.768   5.449   0.942  0.4067 -0.5813  0.6195
  839MOL0     C13153   7.878   5.344   0.961  0.6766 -0.3256 -0.2473
  839MOL0     O13154   7.852   5.220   0.905 -0.0325 -0.5242 -0.8041
  839MOL0     C13155   7.891   5.106   0.976  0.6313  0.1802 -0.5878
  839MOL0     C13156   7.807   5.000   0.952 -0.1629  1.8513 -0.5399
  839MOL0     C13157   7.841   4.872   1.006  0.2945  1.0558 -0.2140
  839MOL0     C13158   7.773   4.746   0.965  0.1843  0.0574 -0.0667
  839MOL0     C13159   7.959   4.858   1.085 -0.5963  0.1666  0.2860
  839MOL0     C13160   8.014   4.721   1.136 -0.9489 -0.2757  0.2209
  839MOL0     O13161   8.145   4.718   1.158  0.2940  0.2253 -0.3154
  839MOL0     C13162   8.223   4.597   1.173  0.8569 -0.0657 -0.4536
  839MOL0     C13163   8.344   4.601   1.249  0.3529 -0.1415  0.1845
  839MOL0     C13164   8.434   4.494   1.241 -0.4067 -0.7117 -0.5177
  839MOL0     C13165   8.391   4.374   1.175  0.5355  0.7038 -0.5746
  839MOL0     O13166   8.469   4.262   1.169 -0.1350 -0.0867 -0.2836
  839MOL0     C13167   8.608   4.278   1.179 -0.7845 -0.4336 -0.5554
  839MOL0     C13168   8.685   4.151   1.161 -1.3168 -0.4530 -0.8347
  839MOL0     C13169   8.686   4.109   1.016  1.1590  0.1849  0.6541
  839MOL0     C13170   8.776   3.986   1.006  0.1656 -0.3640 -0.5061
  839MOL0     C13171   8.734   3.913   0.884 -0.1642 -1.0441  0.6276
  839MOL0     C13172   8.820   3.800   0.837  0.0758  0.7715 -0.0413
  839MOL0     C13173   8.969   3.848   0.797  0.1247  1.0985  0.3932
  839MOL0     C13174   9.036   3.735   0.719  0.3379 -0.2907  0.3027
  839MOL0    Cl13175   9.198   3.787   0.686  0.3627  0.0105  0.4557
  839MOL0     C13176   8.273   4.370   1.104 -0.2776  0.3583 -0.0055
  839MOL0     C13177   8.196   4.483   1.100  0.0629  0.1818  0.0655
  839MOL0     O13178   7.936   4.634   1.158  0.0037  0.5568  0.7983
  839MOL0     C13179   8.045   4.974   1.099 -0.0238  0.8249  0.5306
  839MOL0     C13180   8.008   5.099   1.049  0.1008  0.6443  0.1828
  839MOL0     N13181   7.537   5.663   0.805 -0.0681 -0.7082 -0.0459
  839MOL0     N13182   7.522   5.740   0.704  0.3169  0.0537  0.5917
  839MOL0     C13183   7.191   6.693   1.033 -0.2050 -0.0686  0.0514
  839MOL0     C13184   7.139   6.707   1.167 -0.0556 -0.8228  0.4623
  839MOL0     C13185   6.940   6.897   1.509  0.2462  0.4083  0.7685
  839MOL0     C13186   7.002   6.812   1.603 -0.5893  0.2795 -0.6468
  839MOL0     C13187   6.932   6.777   1.722 -1.0692  0.7771 -0.3301
  839MOL0     C13188   6.810   6.834   1.749  0.4067  0.7596 -0.1777
  839MOL0     O13189   6.751   6.797   1.858 -0.0364 -1.1084  0.5232
  839MOL0     C13190   6.633   6.719   1.847  0.5284  0.3855 -0.3211
  839MOL0     C13191   6.675   6.576   1.827  0.4224  0.2253  1.0903
  839MOL0     C13192   6.732   6.507   1.951  0.3942  1.2242  0.1685
  839MOL0     C13193   6.661   6.547   2.092  0.2596 -0.5603 -0.3132
  839MOL0     C13194   6.733   6.478   2.197  0.4445 -0.6757 -0.2844
  839MOL0     C13195   6.789   6.423   2.287 -0.7060  0.0985  0.8611
  839MOL0     C13196   6.750   6.919   1.654 -0.1827  0.3307  0.3031
  839MOL0     C13197   6.812   6.945   1.535  0.0392 -0.0245 -0.4027
  839MOL0     H13198   7.252   7.022   1.237  2.3140  0.0891  0.1262
  839MOL0     H13199   7.295   7.002   0.965 -1.0633  1.9928 -0.0415
  839MOL0     H13200   7.080   6.701   0.796 -0.8288 -1.0849 -0.9275
  839MOL0     H13201   7.168   6.770   0.658  2.0752 -1.8692 -0.8238
  839MOL0     H13202   7.287   6.537   0.821  3.1739  2.9003 -0.1165
  839MOL0     H13203   7.164   6.505   0.697  1.9590 -1.7387 -0.2252
  839MOL0     H13204   7.330   6.574   0.529 -0.7538 -0.6923 -0.1778
  839MOL0     H13205   7.410   6.680   0.645 -0.4878  0.1554 -2.4011
  839MOL0     H13206   7.510   6.478   0.553  0.0829  0.2477 -0.7078
  839MOL0     H13207   7.539   6.497   0.727  1.2822 -2.8096 -0.3257
  839MOL0     H13208   7.392   6.330   0.783 -0.9939  2.8262  0.3872
  839MOL0     H13209   7.315   6.325   0.617 -0.7209 -2.2052  2.1587
  839MOL0     H13210   7.512   6.239   0.509 -0.3773  2.6270  0.0301
  839MOL0     H13211   7.608   6.238   0.659 -0.1601  0.2914  1.0955
  839MOL0     H13212   7.436   6.091   0.773  0.8463 -2.7753 -0.1277
  839MOL0     H13213   7.354   6.060   0.619 -0.8720  2.3560  1.5579
  839MOL0     H13214   7.672   6.017   0.663 -0.7151  1.4440 -3.9422
  839MOL0     H13215   7.569   5.943   0.548 -1.6817 -0.1853 -0.3697
  839MOL0     H13216   7.665   5.947   0.914 -1.1675  2.8597 -3.0845
  839MOL0     H13217   7.658   5.714   1.125 -1.1790  0.0428  0.2925
  839MOL0     H13218   7.572   5.581   1.060  1.3420 -1.2957  1.6322
  839MOL0     H13219   7.836   5.569   1.101  0.7766 -1.1004 -0.1526
  839MOL0     H13220   7.847   5.647   0.937 -0.0025  0.0304  0.7934
  839MOL0     H13221   7.764   5.466   0.834 -0.9172  0.6179  0.8156
  839MOL0     H13222   7.672   5.408   0.976  0.4394 -2.0562 -0.9796
  839MOL0     H13223   7.894   5.332   1.068 -1.7450  0.8307  0.3244
  839MOL0     H13224   7.966   5.378   0.907  1.2356  1.6846  1.8016
  839MOL0     H13225   7.722   5.003   0.885  0.5055  0.3314 -1.5105
  839MOL0     H13226   7.686   4.770   0.904 -0.3653 -3.0114 -0.6502
  839MOL0     H13227   7.844   4.688   0.906 -0.1934 -0.8302  0.3287
  839MOL0     H13228   7.743   4.694   1.057 -2.0080  2.5420  0.7557
  839MOL0     H13229   8.376   4.686   1.308  6.0293 -0.8909 -1.2456
  839MOL0     H13230   8.506   4.496   1.322  0.3156 -2.5002 -1.0622
  839MOL0     H13231   8.640   4.357   1.111  0.7006 -1.2688 -0.8816
  839MOL0     H13232   8.622   4.321   1.278 -0.8104  0.0233 -0.7471
  839MOL0     H13233   8.791   4.166   1.186 -1.3294 -0.7490 -0.5956
  839MOL0     H13234   8.644   4.065   1.215 -0.2921 -2.8796 -3.6412
  839MOL0     H13235   8.720   4.183   0.943  0.0901  0.7758  0.7367
  839MOL0     H13236   8.583   4.083   0.990  0.9996  1.8965 -0.6320
  839MOL0     H13237   8.879   4.023   1.007  0.5298 -1.3504 -1.0230
  839MOL0     H13238   8.770   3.916   1.090  0.8138  0.8554  0.6003
  839MOL0     H13239   8.732   3.978   0.796  1.6447 -1.7808 -0.0058
  839MOL0     H13240   8.629   3.883   0.892 -0.2723 -0.3392  1.9024
  839MOL0     H13241   8.827   3.716   0.907 -0.9269 -0.6306 -1.5551
  839MOL0     H13242   8.776   3.755   0.747  0.8086 -0.3008  0.1159
  839MOL0     H13243   9.030   3.884   0.880  0.2355  1.9356 -0.0448
  839MOL0     H13244   8.961   3.937   0.733 -0.2691 -0.1629 -1.4003
  839MOL0     H13245   8.985   3.709   0.626 -0.5534  0.0976  0.6724
  839MOL0     H13246   9.036   3.650   0.788 -2.4740 -0.3042  0.3741
  839MOL0     H13247   8.229   4.282   1.059  0.0874 -1.5667  3.1282
  839MOL0     H13248   8.107   4.486   1.038  0.8489  2.1078 -1.0377
  839MOL0     H13249   8.142   4.973   1.149 -0.2668 -1.4370  1.0562
  839MOL0     H13250   8.071   5.188   1.051  0.8143  0.1601 -0.3179
  839MOL0     H13251   7.181   6.593   0.993  0.9281  1.2026 -3.8248
  839MOL0     H13252   7.083   6.627   1.213 -1.2334 -0.2014  0.1324
  839MOL0     H13253   7.104   6.775   1.601  0.1782  2.2728 -0.7229
  839MOL0     H13254   6.977   6.708   1.792  0.0537  0.0168 -1.7511
  839MOL0     H13255   6.576   6.735   1.939  2.6218  2.2683  0.7359
  839MOL0     H13256   6.569   6.772   1.777  1.2695  1.0360 -0.5214
  839MOL0     H13257   6.741   6.557   1.741 -3.9155 -1.4486 -2.2919
  839MOL0     H13258   6.581   6.527   1.800  1.1682 -1.0065  0.6274
  839MOL0     H13259   6.840   6.525   1.962  0.4249  1.0375  0.1816
  839MOL0     H13260   6.716   6.399   1.944 -2.0058  1.5909 -0.9965
  839MOL0     H13261   6.558   6.515   2.108  0.4075 -1.6465 -1.3959
  839MOL0     H13262   6.669   6.654   2.115  1.5646  0.0344 -3.1439
  839MOL0     H13263   6.850   6.378   2.363  1.9254  1.5876 -0.2607
  839MOL0     H13264   6.658   6.969   1.681 -1.2179 -1.8264  0.9540
  839MOL0     H13265   6.770   7.014   1.463 -0.4037 -0.2532 -0.3655
  840MOL0     O13266  11.044   7.807   0.620 -0.1640 -0.5933  0.6059
  840MOL0     C13267  11.046   7.923   0.571 -0.0419 -0.1907  0.2836
  840MOL0     O13268  10.936   7.995   0.538  0.7217 -0.7381  0.2060
  840MOL0     C13269  10.803   7.952   0.515  0.3343 -0.1325 -0.1503
  840MOL0     C13270  10.729   8.019   0.423 -0.9325 -0.5327  0.6454
  840MOL0     C13271  10.591   7.996   0.402  0.6734 -0.3668  0.2011
  840MOL0     C13272  10.528   7.896   0.474  0.2838  0.3558 -0.1695
  840MOL0     O13273  10.407   7.856   0.446 -0.1581  0.0251  0.4834
  840MOL0     C13274  10.324   7.794   0.551  0.1388 -0.2059 -0.9217
  840MOL0     C13275  10.184   7.777   0.487  0.2146 -0.6635  0.1813
  840MOL0     C13276  10.092   7.703   0.577  0.2539 -0.3401 -1.0423
  840MOL0     C13277   9.960   7.691   0.511 -0.3630  0.3350  0.3106
  840MOL0     C13278   9.856   7.675   0.609 -0.0254  0.9411  0.5359
  840MOL0     C13279   9.730   7.646   0.527  0.0314  0.1787 -0.1715
  840MOL0     C13280   9.617   7.674   0.615  0.0848 -0.4538 -0.2887
  840MOL0     C13281   9.492   7.679   0.527 -0.0864 -1.3415 -0.7661
  840MOL0     N13282   9.385   7.723   0.613 -0.1675 -0.1350  0.8945
  840MOL0     C13283   9.326   7.638   0.710 -0.3810  0.7185 -0.8202
  840MOL0     C13284   9.230   7.723   0.770  0.6562 -0.0950  0.2547
  840MOL0     C13285   9.118   7.694   0.868 -0.2572  0.5120 -0.3772
  840MOL0     C13286   8.987   7.635   0.807 -0.2964  0.3972 -0.6904
  840MOL0     C13287   9.006   7.529   0.699 -0.3005 -1.0382  0.8308
  840MOL0     C13288   9.029   7.584   0.561  0.1603  0.5094 -1.1666
  840MOL0     O13289   8.980   7.717   0.535  0.6941 -0.2025  0.0761
  840MOL0     C13290   9.023   7.782   0.427  0.2850  0.7385  1.1176
  840MOL0     C13291   9.092   7.720   0.312 -0.0630 -0.2330 -0.5020
  840MOL0     C13292   9.119   7.785   0.194 -0.4097 -0.6189 -0.1383
  840MOL0     C13293   9.199   7.711   0.088 -0.1428  0.3447 -0.2610
  840MOL0     C13294   9.065   7.913   0.170 -0.2141  0.2046  1.1180
  840MOL0     C13295   9.089   7.996   0.047  0.5911  0.6110 -0.1304
  840MOL0     O13296   9.009   8.107   0.034 -0.4810  0.1476 -0.4262
  840MOL0     C13297   9.089   8.217   0.015  0.4861  0.0840  1.2135
  840MOL0     C13298   9.115   8.297   0.118  0.0327  0.6623 -0.4911
  840MOL0     C13299   9.182   8.413   0.103  0.0994 -1.2526  1.2468
  840MOL0     C13300   9.221   8.455  -0.024  0.1319  1.4974  0.2064
  840MOL0     O13301   9.295   8.569  -0.054 -0.3263  1.0004  0.4694
  840MOL0     C13302   9.310   8.663   0.048 -0.7124 -0.5256 -0.6994
  840MOL0     C13303   9.386   8.791  -0.003 -0.7888 -1.0599  0.6040
  840MOL0     C13304   9.368   8.915   0.080 -0.0355 -1.1199 -0.5438
  840MOL0     C13305   9.475   8.913   0.190  0.4872  0.6529  0.3126
  840MOL0     C13306   9.464   9.022   0.297  0.1112 -0.6014  0.2170
  840MOL0     C13307   9.359   8.981   0.402  0.2505 -1.0435 -0.3575
  840MOL0     C13308   9.356   9.087   0.512  1.0315  0.7979  0.3669
  840MOL0     C13309   9.269   9.207   0.468 -0.2767  0.6170 -0.5790
  840MOL0    Cl13310   9.289   9.330   0.601 -0.2685  0.0640 -0.2409
  840MOL0     C13311   9.213   8.367  -0.130  0.1487  0.6735  0.0381
  840MOL0     C13312   9.138   8.248  -0.115  0.3562  0.2469  0.2252
  840MOL0     O13313   9.174   7.965  -0.039  0.6028 -0.2206 -0.8150
  840MOL0     C13314   8.990   7.967   0.273 -0.5399 -0.0787 -0.0367
  840MOL0     C13315   8.970   7.906   0.392 -0.5734 -0.1508 -0.6590
  840MOL0     N13316   9.231   7.844   0.716  0.2991 -0.0474 -0.5323
  840MOL0     N13317   9.321   7.851   0.618 -0.0308 -0.1233 -0.3854
  840MOL0     C13318  10.607   7.822   0.568  0.3864  0.1568  0.1090
  840MOL0     C13319  10.738   7.851   0.587 -0.1410  0.0732 -0.0605
  840MOL0     C13320  11.178   7.989   0.560 -0.5851 -0.3830  0.1555
  840MOL0     C13321  11.299   7.911   0.565 -0.3799  0.1238  0.1919
  840MOL0     C13322  11.424   7.973   0.543 -0.1714 -0.2882  0.0012
  840MOL0     C13323  11.437   8.096   0.495  1.1535 -1.0372  0.4643
  840MOL0     O13324  11.562   8.139   0.466  0.3364  0.5657 -0.1189
  840MOL0     C13325  11.593   8.281   0.463 -1.4406  0.3007 -1.0066
  840MOL0     C13326  11.742   8.306   0.493  0.0376 -0.0485 -0.3670
  840MOL0     C13327  11.774   8.456   0.535 -0.4768  0.7822  0.3775
  840MOL0     C13328  11.789   8.530   0.394  0.5647  1.5501 -0.7231
  840MOL0     C13329  11.837   8.668   0.397  0.5601  1.1204 -1.2593
  840MOL0     C13330  11.878   8.777   0.414 -0.7362 -0.3902 -0.8194
  840MOL0     C13331  11.319   8.176   0.488  0.6300 -0.0354  0.6715
  840MOL0     C13332  11.195   8.124   0.532  0.9963  0.7286 -0.4228
  840MOL0     H13333  10.778   8.102   0.373 -0.6262 -1.1687 -0.1204
  840MOL0     H13334  10.529   8.061   0.341  1.3636  0.0444 -0.0679
  840MOL0     H13335  10.352   7.691   0.575 -0.8253 -1.0389 -3.1236
  840MOL0     H13336  10.321   7.861   0.637 -3.2173 -0.4293 -0.7516
  840MOL0     H13337  10.136   7.869   0.453 -1.4568 -1.7181 -0.4805
  840MOL0     H13338  10.201   7.714   0.399  2.0320 -1.0447  0.7628
  840MOL0     H13339  10.137   7.606   0.599 -3.0152 -1.2324  3.0945
  840MOL0     H13340  10.087   7.751   0.675 -0.1866 -1.7147 -0.3587
  840MOL0     H13341   9.940   7.778   0.449  1.2167 -1.2196 -2.5748
  840MOL0     H13342   9.955   7.610   0.438  2.9897  0.8746 -0.6859
  840MOL0     H13343   9.881   7.579   0.656  2.9817  0.9730 -0.7980
  840MOL0     H13344   9.844   7.758   0.679  1.4878  0.2672  1.6469
  840MOL0     H13345   9.734   7.725   0.452 -4.4630  1.7650  0.9289
  840MOL0     H13346   9.719   7.548   0.479 -2.6716  1.0848 -1.6205
  840MOL0     H13347   9.606   7.598   0.693 -1.5553 -0.6111 -0.6374
  840MOL0     H13348   9.636   7.770   0.664 -4.0569  0.1245  0.5459
  840MOL0     H13349   9.480   7.575   0.493  0.8516 -2.2331  1.3923
  840MOL0     H13350   9.513   7.749   0.446  0.7590  0.8586  1.2287
  840MOL0     H13351   9.336   7.534   0.738  0.1092  0.7051 -1.0296
  840MOL0     H13352   9.152   7.627   0.948  0.5746  0.9680 -0.3323
  840MOL0     H13353   9.097   7.788   0.920  2.8457  1.6056 -0.9082
  840MOL0     H13354   8.951   7.725   0.756  0.3134  0.4596 -1.0304
  840MOL0     H13355   8.919   7.606   0.887  1.1542  0.4207  0.5970
  840MOL0     H13356   8.912   7.476   0.681 -0.2602 -0.7878 -0.1714
  840MOL0     H13357   9.084   7.458   0.729  2.2394  0.8096 -1.0068
  840MOL0     H13358   8.992   7.511   0.489 -2.5513 -0.3280  0.9082
  840MOL0     H13359   9.137   7.579   0.548  0.2485  2.5758 -1.6089
  840MOL0     H13360   9.103   7.612   0.311 -2.1459 -0.4877 -1.1559
  840MOL0     H13361   9.123   7.664   0.026 -0.2081 -1.7464  1.3113
  840MOL0     H13362   9.273   7.776   0.040  0.6232  0.2227  0.7315
  840MOL0     H13363   9.257   7.634   0.139 -2.5467 -0.6922  1.0976
  840MOL0     H13364   9.076   8.271   0.216  2.9506 -1.9377  0.1586
  840MOL0     H13365   9.214   8.477   0.184  4.1624  0.5197 -1.4550
  840MOL0     H13366   9.207   8.696   0.063 -0.4296 -0.8748  2.9819
  840MOL0     H13367   9.356   8.622   0.139  2.3825  0.1375 -1.8529
  840MOL0     H13368   9.493   8.779  -0.016 -0.5158 -0.1317  1.7581
  840MOL0     H13369   9.347   8.821  -0.100 -1.4488 -0.6862  0.9758
  840MOL0     H13370   9.268   8.922   0.123  0.3891  2.1012  0.1486
  840MOL0     H13371   9.383   9.003   0.018 -3.3329  0.5340  0.7675
  840MOL0     H13372   9.457   8.819   0.243 -3.7031 -1.4182 -3.9937
  840MOL0     H13373   9.571   8.909   0.138 -0.9698  1.0117 -2.5974
  840MOL0     H13374   9.420   9.115   0.260 -1.0886 -0.4940  1.8115
  840MOL0     H13375   9.557   9.046   0.349  1.2759 -0.9223 -1.6341
  840MOL0     H13376   9.264   8.968   0.350  1.3323  0.1020 -2.7981
  840MOL0     H13377   9.378   8.883   0.447  1.7252 -0.6523 -0.0459
  840MOL0     H13378   9.454   9.130   0.533  0.0616  3.0403  0.6182
  840MOL0     H13379   9.322   9.032   0.600 -1.9210  3.0930  0.8463
  840MOL0     H13380   9.163   9.182   0.462 -0.9460  1.5891  3.5103
  840MOL0     H13381   9.308   9.245   0.373  3.7649 -2.3514 -0.3587
  840MOL0     H13382   9.248   8.390  -0.230  1.6469 -1.7219 -0.0799
  840MOL0     H13383   9.115   8.180  -0.197  0.6525  1.5247 -0.9398
  840MOL0     H13384   8.939   8.062   0.260 -0.2507  0.1944  0.7928
  840MOL0     H13385   8.902   7.957   0.459 -0.1610  0.8657 -0.9899
  840MOL0     H13386  10.568   7.741   0.630 -0.6138  0.5552  0.0200
  840MOL0     H13387  10.794   7.793   0.661 -2.5989  0.5176  2.3022
  840MOL0     H13388  11.291   7.809   0.599  1.4900  0.1875  0.9348
  840MOL0     H13389  11.515   7.919   0.568  0.8042  2.0239  1.8426
  840MOL0     H13390  11.578   8.311   0.359  1.2279 -2.0670 -2.2277
  840MOL0     H13391  11.532   8.339   0.533  2.1076  1.0123  1.7969
  840MOL0     H13392  11.809   8.278   0.412  0.5521 -2.1654  0.7035
  840MOL0     H13393  11.767   8.247   0.582 -2.7852  0.4444  0.8766
  840MOL0     H13394  11.873   8.453   0.582 -0.4714 -1.8716  0.3323
  840MOL0     H13395  11.704   8.502   0.605 -3.0468  0.3273 -1.7366
  840MOL0     H13396  11.688   8.540   0.353 -0.4029  1.9823  1.5880
  840MOL0     H13397  11.860   8.478   0.330 -1.3639  0.4580 -2.0603
  840MOL0     H13398  11.877   8.881   0.437 -2.1038 -0.7596  1.1649
  840MOL0     H13399  11.319   8.278   0.452  1.0763  1.6440  4.8584
  840MOL0     H13400  11.110   8.191   0.539 -0.6393 -1.0073 -2.1963
  841MOL0     O13401   4.233  11.002   6.389 -0.2794  0.3633 -0.1946
  841MOL0     C13402   4.276  10.948   6.485 -0.6787  0.1241  0.6546
  841MOL0     O13403   4.331  11.003   6.594 -0.5575 -0.9391  0.3030
  841MOL0     C13404   4.340  11.138   6.599  0.2432 -0.1581 -0.3244
  841MOL0     C13405   4.461  11.197   6.633 -1.1168 -0.3957  0.8166
  841MOL0     C13406   4.467  11.339   6.661  0.5104 -0.5581 -0.0160
  841MOL0     C13407   4.352  11.422   6.674 -0.4525 -0.1570 -0.3875
  841MOL0     O13408   4.346  11.551   6.712  0.1505  0.4704 -0.1579
  841MOL0     C13409   4.425  11.586   6.833  0.4116 -0.7094  0.8894
  841MOL0     C13410   4.350  11.558   6.966 -0.0181 -0.7978 -0.0975
  841MOL0     C13411   4.283  11.680   7.038 -1.5374 -0.0472  0.1345
  841MOL0     C13412   4.385  11.773   7.105  0.0630  0.2532  0.1069
  841MOL0     C13413   4.309  11.852   7.204  0.9983 -0.6154  0.3332
  841MOL0     C13414   4.312  11.788   7.349  0.5717  0.2891  0.5598
  841MOL0     C13415   4.255  11.870   7.461 -0.1487  0.4637  0.0521
  841MOL0     C13416   4.309  12.016   7.472 -0.3162  0.6102 -0.6306
  841MOL0     N13417   4.218  12.095   7.390 -0.1366 -0.0487 -0.0262
  841MOL0     C13418   4.084  12.116   7.398 -0.4066 -0.1556 -0.5267
  841MOL0     C13419   4.053  12.197   7.298  0.3585  0.0463 -0.7704
  841MOL0     C13420   3.912  12.242   7.257 -0.4281  0.4741 -0.4348
  841MOL0     C13421   3.821  12.122   7.193 -0.5334  0.2714 -0.2281
  841MOL0     C13422   3.876  12.057   7.074  0.3513  0.2287 -0.6359
  841MOL0     C13423   3.765  11.994   6.994 -0.6710 -1.0057  0.5875
  841MOL0     O13424   3.685  11.904   7.070  0.4744  0.1052 -0.1817
  841MOL0     C13425   3.563  11.864   7.025 -0.3067 -0.3610  0.1942
  841MOL0     C13426   3.494  11.912   6.916 -0.2199 -0.8000 -0.3240
  841MOL0     C13427   3.367  11.867   6.867  0.1533  0.4817 -0.0058
  841MOL0     C13428   3.307  11.947   6.746 -0.4330 -0.3292  0.0700
  841MOL0     C13429   3.315  11.755   6.937  0.4994  0.6368 -0.5628
  841MOL0     C13430   3.186  11.694   6.901 -0.2237 -0.7690 -0.1202
  841MOL0     O13431   3.132  11.608   7.001  0.6388  0.2128  0.8626
  841MOL0     C13432   3.009  11.568   6.973  1.0258 -0.2294  0.7095
  841MOL0     C13433   2.975  11.491   6.864 -0.2282 -1.2847  1.0586
  841MOL0     C13434   2.845  11.460   6.829 -0.5643  1.6238 -0.2674
  841MOL0     C13435   2.740  11.512   6.898 -0.3887  0.6528 -0.3593
  841MOL0     O13436   2.617  11.472   6.860  0.0485  0.4376 -0.1455
  841MOL0     C13437   2.510  11.482   6.954 -0.1673  0.0054 -0.0875
  841MOL0     C13438   2.383  11.453   6.889  0.0505  0.3519 -0.0958
  841MOL0     C13439   2.272  11.490   6.988  0.2211 -0.0769  0.5144
  841MOL0     C13440   2.141  11.468   6.931  0.3275 -0.2652 -0.1076
  841MOL0     C13441   2.037  11.512   7.037  0.1891  0.3022  0.1289
  841MOL0     C13442   1.893  11.482   6.993 -0.1100 -0.0712  0.9848
  841MOL0     C13443   1.790  11.591   7.029  0.3724 -0.6880  0.1521
  841MOL0     C13444   1.742  11.618   7.177  0.9864  0.5357 -0.0291
  841MOL0    Cl13445   1.869  11.707   7.261 -0.2998  0.1142 -0.2976
  841MOL0     C13446   2.767  11.593   7.014  0.0616  0.6893 -0.1139
  841MOL0     C13447   2.897  11.618   7.043 -0.4750 -0.3205 -0.7374
  841MOL0     O13448   3.124  11.727   6.801  0.2303  0.3628  0.1934
  841MOL0     C13449   3.387  11.697   7.044 -0.3254 -0.2980  0.1213
  841MOL0     C13450   3.513  11.751   7.085 -0.4772  0.8589 -0.4188
  841MOL0     N13451   4.172  12.247   7.250 -0.1520 -0.0352 -0.3002
  841MOL0     N13452   4.269  12.174   7.288  0.1591 -0.3301 -0.1198
  841MOL0     C13453   4.237  11.363   6.618  0.0134  0.0241 -0.1904
  841MOL0     C13454   4.231  11.227   6.582  0.6850 -0.2843 -0.0934
  841MOL0     C13455   4.268  10.795   6.482  1.1985  0.5471 -0.8929
  841MOL0     C13456   4.219  10.725   6.376  1.0399  0.8689 -0.5906
  841MOL0     C13457   4.215  10.588   6.365 -0.4390  0.2866  0.0682
  841MOL0     C13458   4.251  10.504   6.464 -0.1924  0.6853 -0.7925
  841MOL0     O13459   4.236  10.365   6.463 -0.4598  0.2885  0.4865
  841MOL0     C13460   4.223  10.294   6.334  0.0721  0.2733 -0.3000
  841MOL0     C13461   4.247  10.150   6.358 -0.4357  1.1902  0.0632
  841MOL0     C13462   4.200  10.066   6.234  0.2073  1.4975  0.2961
  841MOL0     C13463   4.156   9.921   6.285  0.1434  0.7838  0.9027
  841MOL0     C13464   4.263   9.858   6.362 -0.3027 -0.0670 -0.2331
  841MOL0     C13465   4.343   9.791   6.428 -0.1380  0.2900  0.3049
  841MOL0     C13466   4.309  10.567   6.573  0.1628 -1.3493 -0.0567
  841MOL0     C13467   4.314  10.714   6.584  1.2380 -0.7885 -0.1936
  841MOL0     H13468   4.548  11.136   6.657 -0.0619  1.1076  0.9641
  841MOL0     H13469   4.566  11.380   6.675  0.9318 -1.8321  0.9457
  841MOL0     H13470   4.518  11.528   6.828  1.3022  0.7193  0.0670
  841MOL0     H13471   4.446  11.693   6.837 -1.6904 -0.2588  0.9956
  841MOL0     H13472   4.274  11.480   6.954 -2.1788  1.1869 -0.0186
  841MOL0     H13473   4.413  11.519   7.046 -0.7539  1.0436  1.4384
  841MOL0     H13474   4.218  11.738   6.971  1.3506  0.3811 -2.5565
  841MOL0     H13475   4.217  11.638   7.114 -0.3188  2.5771  2.8170
  841MOL0     H13476   4.468  11.720   7.152 -1.7344 -5.0178 -1.9986
  841MOL0     H13477   4.407  11.842   7.023 -3.6826  2.0091  0.3571
  841MOL0     H13478   4.362  11.947   7.207 -2.3563  1.4094  0.8329
  841MOL0     H13479   4.205  11.869   7.173  1.3375 -2.1493 -1.9608
  841MOL0     H13480   4.258  11.693   7.350  0.8082  0.1572  0.9418
  841MOL0     H13481   4.411  11.746   7.369  0.6037  0.6918  1.2995
  841MOL0     H13482   4.146  11.868   7.461 -0.1840 -0.6566  2.1662
  841MOL0     H13483   4.280  11.827   7.559  0.2680 -1.0834 -0.7184
  841MOL0     H13484   4.416  12.026   7.450  0.2815 -0.9450  1.1892
  841MOL0     H13485   4.308  12.039   7.579  0.6636 -2.9411  0.2972
  841MOL0     H13486   4.017  12.076   7.473 -1.0461  1.0501 -0.4425
  841MOL0     H13487   3.852  12.279   7.340 -1.1357  1.7543 -1.4827
  841MOL0     H13488   3.920  12.322   7.182 -0.0872  0.0656 -0.8474
  841MOL0     H13489   3.725  12.168   7.170 -0.1362  3.0397  2.7655
  841MOL0     H13490   3.800  12.056   7.278 -2.0082 -1.4671 -1.8796
  841MOL0     H13491   3.953  11.984   7.102  0.3085  0.4952  0.2076
  841MOL0     H13492   3.912  12.144   7.018  2.0615  0.3799  0.5900
  841MOL0     H13493   3.811  11.946   6.907  0.1317  1.5188 -0.4597
  841MOL0     H13494   3.696  12.069   6.954 -0.0540 -0.9842 -0.4675
  841MOL0     H13495   3.547  11.989   6.860  0.6696 -0.5305  0.8401
  841MOL0     H13496   3.322  11.896   6.651 -1.0002  1.7498 -1.2144
  841MOL0     H13497   3.198  11.955   6.752 -0.4286  1.1975 -1.2904
  841MOL0     H13498   3.364  12.040   6.742 -2.7641  1.1658 -0.2709
  841MOL0     H13499   3.042  11.441   6.795 -3.4438 -1.0236 -2.6288
  841MOL0     H13500   2.824  11.395   6.745  0.1734  0.2516  0.5692
  841MOL0     H13501   2.533  11.408   7.032 -3.4965 -0.9734  0.1070
  841MOL0     H13502   2.511  11.578   7.007 -0.9442 -0.7952  1.4344
  841MOL0     H13503   2.371  11.527   6.809 -1.7242  2.6488  2.1489
  841MOL0     H13504   2.380  11.358   6.835  0.8217  0.9667 -1.2609
  841MOL0     H13505   2.276  11.595   7.018 -0.6542  0.7420 -1.9900
  841MOL0     H13506   2.285  11.425   7.075  2.5853 -1.9001 -1.0452
  841MOL0     H13507   2.138  11.534   6.843  0.5053  0.2130  0.2425
  841MOL0     H13508   2.128  11.362   6.909 -0.6763 -0.1443 -0.1520
  841MOL0     H13509   2.042  11.616   7.068 -1.4878  0.2321  0.7307
  841MOL0     H13510   2.049  11.457   7.131 -1.5393 -1.6460 -0.7216
  841MOL0     H13511   1.875  11.461   6.887  0.7730 -1.0605  1.0192
  841MOL0     H13512   1.871  11.389   7.045  3.4211 -0.3113  2.3256
  841MOL0     H13513   1.699  11.575   6.970 -1.1049  0.2803  2.0789
  841MOL0     H13514   1.831  11.687   6.998 -1.0477 -0.7312 -2.1142
  841MOL0     H13515   1.714  11.530   7.235  1.2529 -0.5422 -1.4899
  841MOL0     H13516   1.656  11.684   7.170  2.3882  2.5002  0.3066
  841MOL0     H13517   2.693  11.641   7.078  0.1015  1.2354 -0.4743
  841MOL0     H13518   2.927  11.684   7.124 -0.0729 -0.4731 -0.7580
  841MOL0     H13519   3.337  11.624   7.106 -1.6507  1.4259  1.1503
  841MOL0     H13520   3.558  11.712   7.176 -2.0316  0.3894  0.1802
  841MOL0     H13521   4.144  11.420   6.618 -1.9886 -3.0139  0.0260
  841MOL0     H13522   4.133  11.194   6.549  0.2003  1.7395 -0.7787
  841MOL0     H13523   4.178  10.797   6.306  0.3925  0.8671 -0.2222
  841MOL0     H13524   4.171  10.543   6.276  1.6334  0.2165 -0.9933
  841MOL0     H13525   4.122  10.308   6.294  0.0011  1.2551  0.1965
  841MOL0     H13526   4.293  10.324   6.255 -3.3080  0.6091 -3.4616
  841MOL0     H13527   4.183  10.112   6.439 -0.0522 -0.7067 -0.4712
  841MOL0     H13528   4.353  10.132   6.377 -0.3625  0.7131 -0.7694
  841MOL0     H13529   4.269  10.066   6.149  3.5720  1.0192  2.7786
  841MOL0     H13530   4.116  10.116   6.186  0.6427  0.6309 -1.4642
  841MOL0     H13531   4.134   9.857   6.199 -1.0809 -1.1971  2.5963
  841MOL0     H13532   4.059   9.914   6.335 -0.5739 -2.4767 -0.6865
  841MOL0     H13533   4.401   9.739   6.501 -1.9792 -0.8529  1.0192
  841MOL0     H13534   4.341  10.494   6.648  1.6314 -0.2242  0.4622
  841MOL0     H13535   4.355  10.766   6.670 -1.0822  0.5741  0.1788
  842MOL0     O13536   3.103   7.762   8.282  0.5778 -0.3785 -0.0532
  842MOL0     C13537   3.073   7.870   8.332 -0.1945 -0.2882 -0.3748
  842MOL0     O13538   3.163   7.964   8.361  0.1487 -0.2916  0.0889
  842MOL0     C13539   3.291   7.929   8.332 -0.0119 -0.2322 -0.1023
  842MOL0     C13540   3.341   7.947   8.200 -0.3718  0.4587 -0.7853
  842MOL0     C13541   3.479   7.938   8.175  0.6550 -0.1555 -0.0519
  842MOL0     C13542   3.569   7.904   8.278 -0.1048 -0.0745  0.4240
  842MOL0     O13543   3.706   7.870   8.255  0.8184 -0.0238 -0.2167
  842MOL0     C13544   3.728   7.812   8.122  0.1133  0.1237  0.4335
  842MOL0     C13545   3.880   7.792   8.107 -0.5050  0.2774 -0.2769
  842MOL0     C13546   3.943   7.685   8.194 -0.2814  0.3903 -0.5098
  842MOL0     C13547   4.094   7.689   8.174  0.1620  0.1558  0.3258
  842MOL0     C13548   4.168   7.581   8.254 -0.9114 -0.8447  0.8308
  842MOL0     C13549   4.314   7.577   8.218  0.9234  0.8253 -0.2385
  842MOL0     C13550   4.390   7.507   8.328  0.8169 -0.1876  1.0703
  842MOL0     C13551   4.540   7.496   8.295  0.3513  1.0374 -0.2301
  842MOL0     N13552   4.615   7.385   8.363  0.1152  0.2078 -0.0813
  842MOL0     C13553   4.673   7.393   8.483 -0.2652 -0.2126  0.7358
  842MOL0     C13554   4.687   7.266   8.524  0.2838 -0.3496 -0.3253
  842MOL0     C13555   4.724   7.218   8.668 -0.8992 -0.5879  0.3471
  842MOL0     C13556   4.849   7.127   8.651 -0.5596  0.3052 -0.6038
  842MOL0     C13557   4.916   7.060   8.776 -0.0815  0.6165  1.5205
  842MOL0     C13558   4.946   7.158   8.892  0.3879 -0.4424 -1.1196
  842MOL0     O13559   4.997   7.078   8.996  0.0178  0.4244  0.7041
  842MOL0     C13560   5.132   7.064   9.003 -0.2393  0.2961  0.0188
  842MOL0     C13561   5.178   6.977   9.090  0.5196 -0.2338 -0.2585
  842MOL0     C13562   5.312   6.956   9.118  0.5810 -1.0694 -0.3597
  842MOL0     C13563   5.352   6.870   9.233 -0.3110 -0.1163 -0.1295
  842MOL0     C13564   5.409   7.022   9.041 -0.8453  0.0950  0.4807
  842MOL0     C13565   5.553   6.998   9.063  0.2307  0.5910  0.0487
  842MOL0     O13566   5.602   7.055   9.177 -0.3896  0.2106  0.4454
  842MOL0     C13567   5.721   7.003   9.219  0.4638  0.1769 -1.2465
  842MOL0     C13568   5.839   7.031   9.150  0.0660  0.7261  0.2729
  842MOL0     C13569   5.958   6.973   9.197  0.8753  0.2770 -1.3110
  842MOL0     C13570   5.960   6.884   9.298 -0.6092  0.5048 -0.0927
  842MOL0     O13571   6.070   6.808   9.334 -0.0503  0.1833  0.4294
  842MOL0     C13572   6.115   6.708   9.248  0.3445 -0.0475  0.2864
  842MOL0     C13573   6.084   6.572   9.305  0.1709  0.3643  0.2413
  842MOL0     C13574   6.116   6.448   9.219  0.2379  1.0325 -0.1246
  842MOL0     C13575   6.112   6.317   9.307 -0.7000 -0.0788 -0.4842
  842MOL0     C13576   6.197   6.207   9.247 -0.2963 -0.1141 -0.2317
  842MOL0     C13577   6.183   6.085   9.334 -0.1310  0.8997 -0.5691
  842MOL0     C13578   6.260   5.965   9.265 -0.1407 -0.0863 -0.1802
  842MOL0     C13579   6.404   5.952   9.275 -0.4574 -0.3228  0.5815
  842MOL0    Cl13580   6.456   5.786   9.314 -0.4714  0.1332 -0.2888
  842MOL0     C13581   5.843   6.851   9.369 -0.7294  0.3635 -0.1960
  842MOL0     C13582   5.725   6.913   9.329 -0.0541 -0.4682 -0.1025
  842MOL0     O13583   5.613   6.917   8.984  0.3368 -0.2368  0.1931
  842MOL0     C13584   5.364   7.104   8.936  0.1275  0.0253 -0.0436
  842MOL0     C13585   5.225   7.125   8.916  0.6178 -0.4357 -0.5732
  842MOL0     N13586   4.617   7.190   8.434 -0.0444 -0.6492 -0.4279
  842MOL0     N13587   4.579   7.256   8.332  0.1205  0.4252  0.9721
  842MOL0     C13588   3.522   7.886   8.402  0.4444 -0.3834 -0.3475
  842MOL0     C13589   3.382   7.906   8.433  0.5321  0.6075  0.3951
  842MOL0     C13590   2.932   7.907   8.333  0.0737 -0.1169 -0.0848
  842MOL0     C13591   2.828   7.847   8.252 -1.1479 -0.7074 -0.3734
  842MOL0     C13592   2.688   7.866   8.277  0.1675 -0.8764  0.3489
  842MOL0     C13593   2.655   7.954   8.379 -0.2899 -0.1065 -0.2229
  842MOL0     O13594   2.529   7.995   8.409  0.0595 -0.4302  0.4438
  842MOL0     C13595   2.414   7.938   8.343  0.2985 -0.0519  0.6013
  842MOL0     C13596   2.278   7.984   8.406 -0.9748 -0.4735 -0.8316
  842MOL0     C13597   2.266   7.914   8.537  0.3415 -0.8332  0.0082
  842MOL0     C13598   2.164   7.976   8.637 -0.6717 -0.1924 -0.1099
  842MOL0     C13599   2.024   7.963   8.595 -0.2347  0.6779 -0.5184
  842MOL0     C13600   1.911   7.968   8.545 -0.1092  0.5396  1.0390
  842MOL0     C13601   2.757   8.025   8.449 -0.6028  0.5104 -1.0357
  842MOL0     C13602   2.887   8.002   8.428  0.4720  0.3148  0.2230
  842MOL0     H13603   3.274   7.975   8.119 -0.6001 -0.9315 -1.0937
  842MOL0     H13604   3.508   7.956   8.072 -1.9282  0.2370 -0.7921
  842MOL0     H13605   3.662   7.725   8.114  1.6969 -1.2625  1.8312
  842MOL0     H13606   3.708   7.889   8.046  1.4656  1.6634  1.5747
  842MOL0     H13607   3.904   7.775   8.001 -0.2850  0.8591 -0.3241
  842MOL0     H13608   3.921   7.888   8.139 -3.1491 -0.3335  6.4767
  842MOL0     H13609   3.926   7.714   8.298  0.0790  0.6153 -0.5123
  842MOL0     H13610   3.907   7.582   8.187  1.4643 -0.7973  4.3632
  842MOL0     H13611   4.110   7.680   8.066 -1.6401 -0.6049  0.0878
  842MOL0     H13612   4.135   7.789   8.197  2.5033  0.0522 -2.7590
  842MOL0     H13613   4.157   7.603   8.360  3.8133  0.4397  1.2571
  842MOL0     H13614   4.124   7.484   8.227 -4.2435  0.9002 -0.5540
  842MOL0     H13615   4.324   7.529   8.120 -0.6219  0.5794 -0.2973
  842MOL0     H13616   4.352   7.680   8.209 -0.4417  1.3674  0.0016
  842MOL0     H13617   4.381   7.574   8.414 -1.8986  0.2195  0.5521
  842MOL0     H13618   4.339   7.415   8.359 -1.2656  0.7137  0.4795
  842MOL0     H13619   4.584   7.593   8.320  1.0881  0.7857 -0.5262
  842MOL0     H13620   4.548   7.489   8.186  1.1242 -0.1377 -0.1185
  842MOL0     H13621   4.704   7.487   8.527 -0.8452  0.4873 -0.3195
  842MOL0     H13622   4.749   7.301   8.735 -2.4093  1.2208 -1.1896
  842MOL0     H13623   4.643   7.168   8.720 -3.0832  0.4396 -1.8436
  842MOL0     H13624   4.927   7.178   8.594  0.4871  0.1078  0.5892
  842MOL0     H13625   4.812   7.038   8.599 -1.5037 -0.7572  1.7196
  842MOL0     H13626   5.004   7.005   8.740  0.6685  1.9416  1.2719
  842MOL0     H13627   4.848   6.984   8.815 -1.4431  0.6684 -0.5984
  842MOL0     H13628   4.850   7.195   8.927  0.7169  1.1061 -1.7719
  842MOL0     H13629   5.008   7.247   8.873 -1.2810  1.2979  1.0688
  842MOL0     H13630   5.102   6.939   9.158 -0.1096  1.8928  0.3057
  842MOL0     H13631   5.425   6.793   9.206  1.7341  1.9994 -0.9264
  842MOL0     H13632   5.396   6.920   9.320  1.1381  1.5126 -1.7401
  842MOL0     H13633   5.263   6.819   9.273  1.2967 -1.0259  2.6476
  842MOL0     H13634   5.827   7.099   9.066  1.6451  0.1259 -0.4667
  842MOL0     H13635   6.057   6.980   9.152  0.2503  2.1894 -2.5327
  842MOL0     H13636   6.065   6.722   9.151  0.1033  0.3034  0.4621
  842MOL0     H13637   6.224   6.709   9.236  0.2444 -1.0941 -0.9452
  842MOL0     H13638   6.126   6.549   9.404 -1.3068 -0.2513  0.7536
  842MOL0     H13639   5.977   6.582   9.325  0.0166  0.4462 -0.6145
  842MOL0     H13640   6.216   6.463   9.177 -0.6968  0.2774 -2.7971
  842MOL0     H13641   6.051   6.438   9.132  2.1840 -2.4035 -1.4056
  842MOL0     H13642   6.160   6.330   9.404  0.7792 -1.4402 -0.9935
  842MOL0     H13643   6.009   6.278   9.312 -0.7142 -0.1923 -1.5870
  842MOL0     H13644   6.295   6.256   9.245 -1.0896  1.5344  0.1421
  842MOL0     H13645   6.171   6.178   9.145  0.4909 -1.0863 -0.1784
  842MOL0     H13646   6.235   6.098   9.429 -1.6916 -0.6592  0.5371
  842MOL0     H13647   6.078   6.055   9.331  0.5704 -1.9968 -4.4414
  842MOL0     H13648   6.229   5.947   9.162  1.9946 -0.3489 -0.8266
  842MOL0     H13649   6.228   5.876   9.321  0.3570  0.0061  0.2593
  842MOL0     H13650   6.447   6.022   9.347 -0.1729  0.9301 -0.7894
  842MOL0     H13651   6.457   5.971   9.182 -2.6625  1.6188 -0.3581
  842MOL0     H13652   5.859   6.782   9.451  0.7695 -1.4323 -1.8699
  842MOL0     H13653   5.627   6.909   9.376 -0.5802  1.0048 -1.0199
  842MOL0     H13654   5.433   7.147   8.864 -0.2232 -2.0633 -1.7086
  842MOL0     H13655   5.194   7.181   8.828  2.3721 -0.6708 -1.3856
  842MOL0     H13656   3.588   7.859   8.483 -0.0008 -2.2793 -0.5582
  842MOL0     H13657   3.323   7.898   8.523 -1.6180  0.2845 -0.9686
  842MOL0     H13658   2.852   7.775   8.175 -3.0849 -2.2587  0.3866
  842MOL0     H13659   2.619   7.811   8.214  1.1446 -1.0163 -0.6128
  842MOL0     H13660   2.409   7.971   8.239  0.2834 -2.0625 -0.0882
  842MOL0     H13661   2.403   7.829   8.339 -1.4955 -0.0245  2.5288
  842MOL0     H13662   2.198   7.968   8.334 -1.8024  2.4808 -0.6689
  842MOL0     H13663   2.299   8.088   8.432  0.1200 -0.3838 -2.0122
  842MOL0     H13664   2.360   7.932   8.589 -0.9850  0.8863  1.9915
  842MOL0     H13665   2.252   7.806   8.530 -1.8012 -0.6202  0.1770
  842MOL0     H13666   2.188   8.080   8.661 -2.4602  0.7347 -2.0505
  842MOL0     H13667   2.187   7.915   8.726  0.0202 -0.2511 -0.3238
  842MOL0     H13668   1.816   7.958   8.497 -0.8174  1.2723  2.2438
  842MOL0     H13669   2.748   8.093   8.534  2.1564 -2.3445  1.8360
  842MOL0     H13670   2.965   8.046   8.489  2.5170 -1.2951 -1.0678
  843MOL0     O13671   1.711   9.967   6.237  0.5373  0.1621  0.0557
  843MOL0     C13672   1.782   9.927   6.335  0.8062 -0.0514  0.4362
  843MOL0     O13673   1.731   9.891   6.455  0.0417  0.0636 -0.3802
  843MOL0     C13674   1.592   9.909   6.485 -0.6079 -0.0165  1.0012
  843MOL0     C13675   1.523  10.030   6.464 -0.3315  0.7596  0.6974
  843MOL0     C13676   1.394  10.041   6.500  0.5882  0.5832 -0.0783
  843MOL0     C13677   1.322   9.938   6.570  0.2053  0.4306  0.0542
  843MOL0     O13678   1.201   9.973   6.625  0.8575 -0.2868 -0.2316
  843MOL0     C13679   1.111   9.869   6.668 -0.4400 -0.5461 -0.0179
  843MOL0     C13680   0.967   9.922   6.709  0.0482 -1.0089 -0.3594
  843MOL0     C13681   0.890   9.796   6.763  0.4996  0.2388 -0.3212
  843MOL0     C13682   0.747   9.834   6.813 -0.4473  0.3691 -0.3892
  843MOL0     C13683   0.676   9.732   6.905 -0.0779 -0.2535  0.8390
  843MOL0     C13684   0.617   9.603   6.838 -0.6822  0.1903 -0.2219
  843MOL0     C13685   0.576   9.504   6.942  0.1580 -0.7218  0.4803
  843MOL0     C13686   0.554   9.366   6.881 -0.0384  0.2496  0.0691
  843MOL0     N13687   0.692   9.307   6.873  0.0944  0.0647  0.4170
  843MOL0     C13688   0.769   9.283   6.768  0.5447 -0.0554 -0.6420
  843MOL0     C13689   0.889   9.239   6.809 -0.8477 -0.7505  0.0301
  843MOL0     C13690   1.002   9.182   6.717  0.4232  0.2748 -0.9426
  843MOL0     C13691   0.956   9.042   6.666  0.0280 -0.7297 -0.3473
  843MOL0     C13692   1.020   8.999   6.531 -0.1909 -0.0089 -0.6955
  843MOL0     C13693   1.175   9.003   6.533 -0.8558  0.1327 -0.4203
  843MOL0     O13694   1.210   8.976   6.399 -0.4170  0.1737  0.4763
  843MOL0     C13695   1.339   8.979   6.363  0.2900 -0.0218 -0.2127
  843MOL0     C13696   1.356   8.951   6.230  0.2081  0.1661  0.2069
  843MOL0     C13697   1.478   8.945   6.165  0.8670 -0.3524 -0.6133
  843MOL0     C13698   1.474   8.918   6.017  0.0249 -0.0921  0.1848
  843MOL0     C13699   1.596   8.975   6.240 -0.4616 -0.1360  0.6793
  843MOL0     C13700   1.729   8.979   6.176 -0.8816 -0.5359 -0.1443
  843MOL0     O13701   1.830   9.028   6.263 -0.0974  0.1096 -0.0247
  843MOL0     C13702   1.949   9.076   6.218 -0.9449 -0.2461  0.2213
  843MOL0     C13703   1.979   9.103   6.092 -0.6749 -0.6389  0.9438
  843MOL0     C13704   2.104   9.142   6.055  0.0377 -0.2613 -1.1798
  843MOL0     C13705   2.201   9.180   6.148 -0.6155 -0.1588 -0.1974
  843MOL0     O13706   2.319   9.233   6.107  1.1373  0.4812  0.1735
  843MOL0     C13707   2.396   9.312   6.196  0.3918  0.4710 -0.3723
  843MOL0     C13708   2.492   9.387   6.110 -0.5322 -0.7327  1.3821
  843MOL0     C13709   2.620   9.305   6.067 -0.0495  0.1613 -0.6580
  843MOL0     C13710   2.724   9.294   6.187 -0.0497  0.3510 -0.4571
  843MOL0     C13711   2.805   9.161   6.167 -0.7397  0.1673 -0.0333
  843MOL0     C13712   2.904   9.173   6.291  0.2147  0.4516  0.2170
  843MOL0     C13713   3.020   9.070   6.309  0.0784  0.7491  0.6480
  843MOL0     C13714   3.112   9.040   6.180  0.0784 -0.5116 -0.3575
  843MOL0    Cl13715   3.195   9.197   6.141 -0.0114 -0.3169 -0.1568
  843MOL0     C13716   2.169   9.161   6.284 -0.6278  0.2510 -0.2207
  843MOL0     C13717   2.050   9.106   6.316 -0.2143 -0.7832 -0.2605
  843MOL0     O13718   1.751   8.942   6.060 -0.2124 -0.0763  0.0502
  843MOL0     C13719   1.582   8.995   6.378 -0.0611 -0.4313  0.7238
  843MOL0     C13720   1.459   9.005   6.435  0.7525  0.5313 -0.4703
  843MOL0     N13721   0.891   9.218   6.943  0.2594  0.9876 -0.2017
  843MOL0     N13722   0.767   9.256   6.984  0.3361 -0.1403 -0.3272
  843MOL0     C13723   1.386   9.812   6.569  0.3551 -0.3764 -0.4002
  843MOL0     C13724   1.522   9.801   6.532 -0.1593  0.8300  0.5790
  843MOL0     C13725   1.924   9.938   6.316 -0.5650 -0.5325  0.2796
  843MOL0     C13726   2.017   9.924   6.426  1.1455  0.5068 -0.5219
  843MOL0     C13727   2.158   9.920   6.404  0.0454 -0.2405 -0.0810
  843MOL0     C13728   2.206   9.927   6.276 -0.0541  1.0843 -1.2595
  843MOL0     O13729   2.336   9.930   6.262 -0.9198  0.4401 -0.3440
  843MOL0     C13730   2.395  10.062   6.234  0.2676 -0.3517  1.2159
  843MOL0     C13731   2.435  10.138   6.355  1.1957 -0.0052 -0.6542
  843MOL0     C13732   2.573  10.095   6.402 -0.1676  0.0703  0.1002
  843MOL0     C13733   2.614  10.165   6.527 -0.7452  1.4537  0.2409
  843MOL0     C13734   2.718  10.078   6.583 -0.2705 -0.3558 -0.9891
  843MOL0     C13735   2.783   9.998   6.652  0.7235  0.1315 -0.0276
  843MOL0     C13736   2.111   9.930   6.174 -0.4136  0.0503 -0.8479
  843MOL0     C13737   1.975   9.943   6.190  0.3011  0.3421  0.2877
  843MOL0     H13738   1.571  10.124   6.440 -0.1628  0.7871  1.1335
  843MOL0     H13739   1.341  10.135   6.486 -1.3142 -0.2727  0.9410
  843MOL0     H13740   1.103   9.797   6.586 -1.7251 -0.7243  0.2471
  843MOL0     H13741   1.151   9.821   6.757  0.1013  2.4080  1.4489
  843MOL0     H13742   0.954  10.006   6.778 -1.3847  0.3111 -2.1418
  843MOL0     H13743   0.919   9.957   6.617 -1.9373 -0.0218  0.9812
  843MOL0     H13744   0.889   9.718   6.687  0.4761 -2.0047  1.8344
  843MOL0     H13745   0.948   9.757   6.847  1.4023 -2.8255 -2.2052
  843MOL0     H13746   0.749   9.926   6.874  3.7862  0.3971 -0.2757
  843MOL0     H13747   0.685   9.837   6.724  1.3388  1.5539 -1.6704
  843MOL0     H13748   0.738   9.694   6.986  1.4669  0.4261  0.0162
  843MOL0     H13749   0.592   9.787   6.950  1.7256  1.7461  1.9598
  843MOL0     H13750   0.540   9.630   6.765  1.1918 -2.1120 -3.2955
  843MOL0     H13751   0.696   9.551   6.782  0.4175 -1.9401  3.0359
  843MOL0     H13752   0.647   9.492   7.025 -1.5297  0.2791  2.1381
  843MOL0     H13753   0.486   9.552   6.982  0.8407  1.2825 -0.2587
  843MOL0     H13754   0.519   9.381   6.778  4.1083  0.9497 -1.4520
  843MOL0     H13755   0.484   9.312   6.945  0.8291 -1.4827 -0.3850
  843MOL0     H13756   0.738   9.292   6.664 -2.6550  2.3492  0.4006
  843MOL0     H13757   1.025   9.250   6.634  2.6593 -0.5029 -1.0382
  843MOL0     H13758   1.088   9.161   6.781  0.6608  0.5424 -1.1689
  843MOL0     H13759   0.848   9.043   6.646  0.0521 -2.5717 -0.8152
  843MOL0     H13760   0.974   8.960   6.736 -1.5496 -1.3235 -0.5805
  843MOL0     H13761   0.983   9.065   6.452  0.3308 -0.1953 -1.0988
  843MOL0     H13762   0.990   8.898   6.502  0.7444 -1.6011  3.2206
  843MOL0     H13763   1.209   8.926   6.603  4.8599  3.2024  0.7934
  843MOL0     H13764   1.213   9.097   6.573  0.5931 -0.7569  0.4085
  843MOL0     H13765   1.265   8.952   6.171 -0.0794 -2.4371  0.5025
  843MOL0     H13766   1.531   8.990   5.958 -1.1073 -0.8894 -2.0082
  843MOL0     H13767   1.514   8.817   6.002 -1.0370 -0.4573 -0.3383
  843MOL0     H13768   1.373   8.908   5.974  0.4489  0.1060 -0.8943
  843MOL0     H13769   1.901   9.117   6.018  0.2635  1.2612  0.2526
  843MOL0     H13770   2.114   9.159   5.948  0.0553 -0.0715 -1.1489
  843MOL0     H13771   2.327   9.375   6.254  0.2930  0.2180 -0.2136
  843MOL0     H13772   2.454   9.249   6.263  1.1262  0.0607 -1.3732
  843MOL0     H13773   2.441   9.418   6.018 -1.6132  0.8668  2.4669
  843MOL0     H13774   2.518   9.482   6.159 -1.6537  0.8086 -0.8301
  843MOL0     H13775   2.672   9.350   5.982  1.3463 -3.0407 -1.6909
  843MOL0     H13776   2.589   9.205   6.034  1.9850  0.4073 -3.7598
  843MOL0     H13777   2.790   9.381   6.196  2.2630 -1.4972  3.7272
  843MOL0     H13778   2.678   9.289   6.286  2.6926 -0.2404  0.8843
  843MOL0     H13779   2.854   9.173   6.070 -1.2408  1.9059 -0.1046
  843MOL0     H13780   2.732   9.080   6.173 -2.4889  1.6234 -0.6239
  843MOL0     H13781   2.948   9.273   6.305  1.5803 -0.4304  2.9440
  843MOL0     H13782   2.839   9.164   6.378  1.8896 -0.7341  1.4183
  843MOL0     H13783   2.972   8.975   6.334 -0.0311  1.1672  2.0953
  843MOL0     H13784   3.071   9.104   6.399  1.2652  2.9897 -0.7762
  843MOL0     H13785   3.055   9.003   6.094 -0.4921  2.6625 -1.4652
  843MOL0     H13786   3.193   8.968   6.196  1.1005  0.6612 -0.1429
  843MOL0     H13787   2.238   9.180   6.366 -1.4296  0.9799  0.3017
  843MOL0     H13788   2.025   9.086   6.420 -0.5457  1.4915  0.1365
  843MOL0     H13789   1.663   9.028   6.443 -1.5853  1.4116  1.8100
  843MOL0     H13790   1.455   9.024   6.542  2.2840 -1.7438  0.0701
  843MOL0     H13791   1.330   9.723   6.596  0.4725  0.5723  3.5466
  843MOL0     H13792   1.571   9.705   6.526 -2.5255 -0.3932 -0.8446
  843MOL0     H13793   1.982   9.936   6.528  1.7583  6.0232 -0.6107
  843MOL0     H13794   2.228   9.916   6.487 -0.0807 -0.3552  0.0206
  843MOL0     H13795   2.480  10.059   6.166 -0.6807 -0.3920  0.0035
  843MOL0     H13796   2.324  10.131   6.186  0.9194  1.2527  2.4703
  843MOL0     H13797   2.370  10.114   6.439  2.8509 -0.4225  0.5464
  843MOL0     H13798   2.422  10.247   6.344 -0.2762 -0.1347 -0.3332
  843MOL0     H13799   2.641  10.121   6.320 -0.8987  2.1327  0.1031
  843MOL0     H13800   2.568   9.988   6.423 -0.8302  0.0207 -0.2737
  843MOL0     H13801   2.532  10.193   6.595 -0.9141  1.0875  0.1887
  843MOL0     H13802   2.657  10.262   6.500 -0.5994  0.9942 -1.2586
  843MOL0     H13803   2.837   9.926   6.710  0.0026 -0.4070 -0.0059
  843MOL0     H13804   2.148   9.936   6.072  1.8907  3.0161  0.0464
  843MOL0     H13805   1.914   9.947   6.099 -1.0968 -2.4914  0.9795
  844MOL0     O13806   9.705   5.124   7.013  0.2742  0.1385 -0.3268
  844MOL0     C13807   9.654   5.227   6.970  0.6330  0.3796  0.4606
  844MOL0     O13808   9.718   5.344   6.951  0.1263 -0.0722 -0.9277
  844MOL0     C13809   9.856   5.337   6.930 -1.2538 -0.7080  0.6906
  844MOL0     C13810   9.933   5.240   6.854  0.0401  0.7052 -0.4797
  844MOL0     C13811  10.071   5.254   6.840 -0.2972 -1.0462 -0.4258
  844MOL0     C13812  10.144   5.359   6.889  0.8173 -0.6480  0.0167
  844MOL0     O13813  10.277   5.385   6.878  0.1377 -0.3210  0.9548
  844MOL0     C13814  10.365   5.272   6.865  0.1643  0.6870 -0.6883
  844MOL0     C13815  10.506   5.308   6.847  0.5145 -0.1397  1.3057
  844MOL0     C13816  10.594   5.182   6.811  0.2134  0.4191 -0.0515
  844MOL0     C13817  10.685   5.207   6.688  0.3466 -0.1328 -1.1109
  844MOL0     C13818  10.742   5.079   6.628 -0.7735 -0.8724 -0.2016
  844MOL0     C13819  10.865   5.124   6.540 -0.3975  0.3493 -0.1839
  844MOL0     C13820  10.973   5.017   6.503  0.4493  0.8596  0.5388
  844MOL0     C13821  11.040   4.948   6.624  0.3974 -0.2384 -0.8974
  844MOL0     N13822  11.173   4.889   6.600  0.2527  1.0589 -0.1844
  844MOL0     C13823  11.285   4.959   6.630  0.7173 -0.1438 -0.1253
  844MOL0     C13824  11.384   4.872   6.596  0.0641 -0.1657  0.3078
  844MOL0     C13825  11.531   4.887   6.598 -0.5733 -0.0751  0.6754
  844MOL0     C13826  11.592   4.851   6.730  0.1046  0.9400  0.4289
  844MOL0     C13827  11.734   4.862   6.733 -1.0445 -0.2290  0.1073
  844MOL0     C13828  11.810   4.747   6.669 -0.9691 -0.6646  0.0039
  844MOL0     O13829  11.942   4.752   6.730 -0.5012 -0.2587 -0.1130
  844MOL0     C13830  12.038   4.825   6.667 -0.5596 -0.0000  1.3416
  844MOL0     C13831  12.055   4.830   6.525 -0.4221 -0.6917 -0.4767
  844MOL0     C13832  12.172   4.882   6.470  0.1166  0.1662  0.6878
  844MOL0     C13833  12.189   4.870   6.322  0.3641 -1.2981 -0.3197
  844MOL0     C13834  12.267   4.945   6.555 -0.6377 -0.2847  1.0640
  844MOL0     C13835  12.384   5.021   6.500  0.0344  0.4500 -0.3813
  844MOL0     O13836  12.368   5.084   6.384 -1.1776 -1.0290  0.9410
  844MOL0     C13837  12.469   5.164   6.327 -0.6701 -0.1181 -0.4446
  844MOL0     C13838  12.432   5.268   6.239 -0.0170  0.6534 -0.4032
  844MOL0     C13839  12.536   5.345   6.179  0.1845 -0.1661  0.2256
  844MOL0     C13840  12.666   5.308   6.185 -0.6474 -0.2425  0.8646
  844MOL0     O13841  12.774   5.365   6.116 -0.1854  0.7393 -0.1151
  844MOL0     C13842  12.743   5.416   5.986  0.0434  0.1123  0.1788
  844MOL0     C13843  12.869   5.391   5.904 -0.3997  0.1702  0.4585
  844MOL0     C13844  12.874   5.487   5.785  1.0329  0.5830 -0.0400
  844MOL0     C13845  12.927   5.416   5.657  0.1836 -0.2914  0.6949
  844MOL0     C13846  12.975   5.524   5.558  0.1765  1.4739 -0.0734
  844MOL0     C13847  13.084   5.623   5.607  0.5326 -0.6586  0.6274
  844MOL0     C13848  13.206   5.564   5.678  0.3131  0.2199 -0.0872
  844MOL0     C13849  13.321   5.660   5.689 -0.9810  0.4078 -1.7138
  844MOL0    Cl13850  13.480   5.589   5.748  0.0485  0.4380 -0.3450
  844MOL0     C13851  12.697   5.191   6.259  0.0021  0.8841 -0.7418
  844MOL0     C13852  12.604   5.117   6.329  0.2929  0.7270 -0.4863
  844MOL0     O13853  12.489   5.020   6.576  0.8127 -0.4399 -0.4510
  844MOL0     C13854  12.245   4.939   6.694 -0.0012 -0.3268 -0.2042
  844MOL0     C13855  12.135   4.883   6.745  0.4471  0.5016 -0.2552
  844MOL0     N13856  11.336   4.749   6.544 -0.7859 -0.3693  0.4516
  844MOL0     N13857  11.211   4.766   6.552  0.6091 -0.5654 -0.0640
  844MOL0     C13858  10.066   5.452   6.965  1.1824 -0.2475 -0.5116
  844MOL0     C13859   9.925   5.452   6.983 -0.5149  1.1083 -0.2768
  844MOL0     C13860   9.504   5.216   6.958 -0.3297  0.3940 -0.0873
  844MOL0     C13861   9.439   5.112   7.013  0.0543  0.2719 -0.8512
  844MOL0     C13862   9.297   5.114   7.009  0.3964  0.4248 -0.8035
  844MOL0     C13863   9.220   5.211   6.949 -0.5649  0.5033  0.2497
  844MOL0     O13864   9.082   5.196   6.949 -0.0605 -0.4603 -0.4016
  844MOL0     C13865   9.004   5.313   6.916 -0.6107 -0.8840  0.0029
  844MOL0     C13866   8.856   5.286   6.896  0.3859 -0.0964 -0.0936
  844MOL0     C13867   8.790   5.209   7.012  0.7828 -0.2996 -0.8358
  844MOL0     C13868   8.647   5.183   6.973  0.0941  0.2528 -0.2349
  844MOL0     C13869   8.634   5.040   6.961  0.4855  0.0988 -1.7190
  844MOL0     C13870   8.629   4.920   6.947  0.2165 -1.0542  0.8613
  844MOL0     C13871   9.293   5.309   6.874 -0.5349 -0.3792 -0.6402
  844MOL0     C13872   9.434   5.307   6.881  0.2556 -0.4800  0.7168
  844MOL0     H13873   9.881   5.151   6.818  1.7810 -0.5696  0.0480
  844MOL0     H13874  10.124   5.178   6.782  1.2764  0.3375 -0.8624
  844MOL0     H13875  10.355   5.199   6.945  0.4012  1.5236  0.1235
  844MOL0     H13876  10.333   5.207   6.782 -0.4571 -3.3219  2.3990
  844MOL0     H13877  10.511   5.378   6.763  1.9998  2.5906  3.4732
  844MOL0     H13878  10.538   5.353   6.942  0.1798  2.3464  0.3130
  844MOL0     H13879  10.662   5.164   6.895  0.5031  2.6867  0.2806
  844MOL0     H13880  10.533   5.092   6.805  1.6341 -0.5189 -1.0213
  844MOL0     H13881  10.633   5.259   6.608  0.6100  2.6226  0.3857
  844MOL0     H13882  10.761   5.275   6.729  0.0967  0.5852 -1.8140
  844MOL0     H13883  10.778   5.010   6.705 -1.2323 -2.2109 -1.1404
  844MOL0     H13884  10.668   5.017   6.576 -1.6325 -2.1254  2.3485
  844MOL0     H13885  10.824   5.167   6.448 -0.5667 -0.7813 -0.6532
  844MOL0     H13886  10.920   5.205   6.590  3.4310 -1.4992 -1.0426
  844MOL0     H13887  10.930   4.942   6.435  0.3182  1.4186 -0.0062
  844MOL0     H13888  11.046   5.070   6.442  0.4095  0.1680 -0.1222
  844MOL0     H13889  10.968   4.874   6.659 -1.7275  1.6799 -0.9603
  844MOL0     H13890  11.045   5.022   6.704 -1.1118 -0.5296 -0.5025
  844MOL0     H13891  11.295   5.058   6.672  1.4806  0.5703 -1.9230
  844MOL0     H13892  11.578   4.822   6.524 -2.4405 -2.4346  1.4292
  844MOL0     H13893  11.566   4.986   6.569  0.8274 -0.8657 -0.4742
  844MOL0     H13894  11.558   4.748   6.748 -0.4796  0.9517 -0.5161
  844MOL0     H13895  11.545   4.922   6.798 -1.6663  3.2708 -2.9177
  844MOL0     H13896  11.758   4.868   6.839  0.8813  2.3278 -0.3645
  844MOL0     H13897  11.776   4.959   6.704  2.3106 -1.3793  0.6663
  844MOL0     H13898  11.810   4.750   6.559  0.9873  1.2549 -0.0181
  844MOL0     H13899  11.760   4.656   6.701 -0.5562  0.2720  3.7182
  844MOL0     H13900  11.992   4.782   6.450  0.2197 -2.2076 -0.0898
  844MOL0     H13901  12.135   4.948   6.268  1.5679 -0.3053 -0.1334
  844MOL0     H13902  12.294   4.871   6.290  0.3486  1.5525 -0.5431
  844MOL0     H13903  12.142   4.774   6.298 -0.1704 -0.4326 -3.0609
  844MOL0     H13904  12.325   5.285   6.230 -0.5124 -2.2184 -1.1027
  844MOL0     H13905  12.506   5.440   6.137  0.7773  0.4038  1.0619
  844MOL0     H13906  12.660   5.377   5.927 -0.5733  0.8642  0.5340
  844MOL0     H13907  12.719   5.521   6.001 -0.5666  0.0214 -0.1614
  844MOL0     H13908  12.958   5.411   5.963 -0.6881  2.9780  0.0483
  844MOL0     H13909  12.875   5.290   5.863 -1.2404  1.3764 -2.9896
  844MOL0     H13910  12.950   5.560   5.815  1.6220  0.3111 -0.8543
  844MOL0     H13911  12.777   5.534   5.765 -0.9133 -2.8047  0.6980
  844MOL0     H13912  13.005   5.342   5.677 -0.5115 -0.5618  2.6427
  844MOL0     H13913  12.852   5.356   5.604  1.2187  0.1938 -1.4044
  844MOL0     H13914  12.893   5.589   5.527 -0.9406  0.3770  0.4584
  844MOL0     H13915  13.003   5.463   5.472  2.7314  0.2092  1.5409
  844MOL0     H13916  13.115   5.680   5.518  0.5882 -2.0340 -0.2618
  844MOL0     H13917  13.036   5.695   5.674 -0.9335 -1.7111  0.7527
  844MOL0     H13918  13.240   5.479   5.617 -1.9728  1.4456 -3.4207
  844MOL0     H13919  13.174   5.529   5.776  1.7768  0.3698  0.4589
  844MOL0     H13920  13.297   5.736   5.765 -0.8364  0.7232 -1.9797
  844MOL0     H13921  13.324   5.713   5.593  1.7318  1.7992 -0.9709
  844MOL0     H13922  12.800   5.157   6.269  0.3477  2.5768  3.1571
  844MOL0     H13923  12.634   5.028   6.383 -1.5941  0.4307  0.1256
  844MOL0     H13924  12.310   4.987   6.766  1.4974 -1.6517 -0.5961
  844MOL0     H13925  12.131   4.857   6.850 -1.1809  3.0957  0.4400
  844MOL0     H13926  10.122   5.533   7.010 -1.9333  0.5549  2.3424
  844MOL0     H13927   9.871   5.529   7.037 -2.8033 -0.2746 -0.5012
  844MOL0     H13928   9.483   5.025   7.062  4.2231  1.4532 -2.1427
  844MOL0     H13929   9.245   5.042   7.072 -2.0653  1.9715 -0.9102
  844MOL0     H13930   9.021   5.399   6.981 -0.3377  0.5663 -1.8770
  844MOL0     H13931   9.052   5.350   6.825 -4.8765 -1.2027 -2.6877
  844MOL0     H13932   8.857   5.230   6.802  1.1439 -1.8353  0.9088
  844MOL0     H13933   8.814   5.386   6.878  0.0702 -0.4962 -1.7499
  844MOL0     H13934   8.806   5.279   7.095 -1.4343 -0.9617  0.2228
  844MOL0     H13935   8.841   5.116   7.040 -0.5314  0.0241  3.3863
  844MOL0     H13936   8.615   5.230   6.879 -0.6610 -0.1902 -0.2047
  844MOL0     H13937   8.587   5.232   7.050  3.3601  0.7765  2.2303
  844MOL0     H13938   8.634   4.815   6.923 -0.2073 -0.3372 -3.1422
  844MOL0     H13939   9.264   5.401   6.825  0.9990  1.8455  2.3376
  844MOL0     H13940   9.489   5.385   6.829 -0.4970 -0.1138  0.4556
  845MOL0     O13941   9.184   1.660   6.975 -0.3600 -0.2675 -0.5530
  845MOL0     C13942   9.172   1.546   7.012 -0.0058 -0.6522  1.1338
  845MOL0     O13943   9.268   1.465   7.051  0.4216  0.1436  0.1870
  845MOL0     C13944   9.400   1.503   7.069  0.2324 -0.1314 -0.1275
  845MOL0     C13945   9.463   1.581   6.979 -0.1924  0.0801 -0.0277
  845MOL0     C13946   9.591   1.627   6.990  0.0985  0.0030  0.5450
  845MOL0     C13947   9.657   1.582   7.106  1.3005  0.7022 -0.6432
  845MOL0     O13948   9.782   1.631   7.132 -0.6602  0.8492 -0.1926
  845MOL0     C13949   9.836   1.625   7.262  0.3651  0.0646  0.0601
  845MOL0     C13950   9.966   1.706   7.268 -0.8869  0.1969  0.2256
  845MOL0     C13951  10.073   1.632   7.195 -0.0916  0.1383  0.1207
  845MOL0     C13952  10.209   1.691   7.234  0.7255 -0.1559  0.0824
  845MOL0     C13953  10.302   1.609   7.142 -0.3839 -1.0981  0.4324
  845MOL0     C13954  10.446   1.661   7.149 -0.0193 -0.5195  0.0880
  845MOL0     C13955  10.511   1.634   7.005  0.8334  0.7036 -0.4019
  845MOL0     C13956  10.658   1.682   6.990  0.6271  1.1688 -0.0457
  845MOL0     N13957  10.677   1.826   7.000  1.0360  0.9558 -0.0075
  845MOL0     C13958  10.607   1.919   6.930  0.4757  0.3259  0.6940
  845MOL0     C13959  10.627   2.036   6.998 -0.1632  0.3991 -0.1009
  845MOL0     C13960  10.592   2.180   6.956  0.6249  0.4912  0.2225
  845MOL0     C13961  10.437   2.197   6.947 -0.2759 -0.4701  1.1135
  845MOL0     C13962  10.383   2.260   7.073  0.3085  0.2378 -0.6982
  845MOL0     C13963  10.235   2.277   7.055 -1.0020  0.2445  0.2012
  845MOL0     O13964  10.175   2.152   7.048  0.3588  0.6244  0.5980
  845MOL0     C13965  10.040   2.138   7.030 -0.4074  0.1054 -0.2226
  845MOL0     C13966   9.950   2.242   7.034 -0.2866  0.7058  1.0713
  845MOL0     C13967   9.812   2.222   7.024 -0.4889 -0.5490  0.0273
  845MOL0     C13968   9.726   2.338   7.040  0.5303 -1.0433 -0.3939
  845MOL0     C13969   9.762   2.087   7.000 -0.4283 -0.7481  0.1428
  845MOL0     C13970   9.623   2.048   6.971 -0.1069 -0.4347 -0.0731
  845MOL0     O13971   9.550   2.149   6.920  0.0954  0.4535 -0.1699
  845MOL0     C13972   9.414   2.144   6.910  0.1076 -0.8566 -0.1096
  845MOL0     C13973   9.324   2.034   6.933  0.6203  0.5883 -0.4022
  845MOL0     C13974   9.185   2.040   6.920 -0.1472  0.6425 -0.6028
  845MOL0     C13975   9.131   2.147   6.862 -0.8994 -1.3766  0.2412
  845MOL0     O13976   9.008   2.138   6.833 -0.0091 -0.4600 -0.4047
  845MOL0     C13977   8.933   2.258   6.809 -0.0670  0.5273  0.1920
  845MOL0     C13978   8.784   2.235   6.838  0.2484 -0.3650 -0.4343
  845MOL0     C13979   8.704   2.202   6.716 -0.1967  0.5521  0.3820
  845MOL0     C13980   8.557   2.174   6.737  0.4513  0.6338 -0.5270
  845MOL0     C13981   8.491   2.134   6.603  0.5955  0.2113 -0.0780
  845MOL0     C13982   8.346   2.073   6.619 -0.4267  0.7223  0.2715
  845MOL0     C13983   8.321   1.970   6.732 -0.3552  0.0002  0.4099
  845MOL0     C13984   8.409   1.847   6.723 -0.0657  0.3210 -0.0967
  845MOL0    Cl13985   8.376   1.698   6.627 -0.0950  0.5128 -0.8153
  845MOL0     C13986   9.216   2.259   6.837  0.0147  0.0092  0.2537
  845MOL0     C13987   9.346   2.260   6.862 -0.3453 -0.1800  1.1745
  845MOL0     O13988   9.585   1.929   6.984  0.6501 -0.0616  0.1041
  845MOL0     C13989   9.858   1.981   6.991 -0.0843  0.0289 -0.6597
  845MOL0     C13990   9.999   2.003   7.011  0.0028  0.5018 -0.4701
  845MOL0     N13991  10.713   2.017   7.108 -0.7416 -0.3940  0.7235
  845MOL0     N13992  10.737   1.890   7.109 -0.1795  0.8225  0.2426
  845MOL0     C13993   9.590   1.495   7.200  0.3591  0.7031 -0.2253
  845MOL0     C13994   9.462   1.455   7.184  0.0764  0.4044 -0.6352
  845MOL0     C13995   9.040   1.493   7.010  0.3827  0.3690 -0.5799
  845MOL0     C13996   8.925   1.566   6.991  0.0651 -0.6852 -0.2304
  845MOL0     C13997   8.792   1.511   7.005  0.4280  0.2894  0.6463
  845MOL0     C13998   8.772   1.381   7.032  0.6327  0.1890  0.1207
  845MOL0     O13999   8.640   1.338   7.026  0.0381 -0.1789  0.2356
  845MOL0     C14000   8.614   1.199   7.004  0.3948 -0.7378 -0.1140
  845MOL0     C14001   8.578   1.132   7.138 -0.3113 -0.3520 -0.8594
  845MOL0     C14002   8.422   1.126   7.151 -0.6499 -0.3485 -0.6737
  845MOL0     C14003   8.394   1.113   7.301 -0.7100  0.9359  0.8468
  845MOL0     C14004   8.260   1.070   7.340 -0.0377  0.1995 -1.1684
  845MOL0     C14005   8.143   1.040   7.342  0.1942 -0.3006  0.4426
  845MOL0     C14006   8.887   1.305   7.040 -0.8978  0.7296 -0.6745
  845MOL0     C14007   9.017   1.364   7.049  0.7322  0.4884 -0.2989
  845MOL0     H14008   9.406   1.608   6.891 -2.1947  4.1244  2.2296
  845MOL0     H14009   9.647   1.687   6.918 -0.5692 -2.2447 -2.0042
  845MOL0     H14010   9.770   1.666   7.340  0.1238 -1.7096  0.8175
  845MOL0     H14011   9.856   1.521   7.289  2.3395  0.4390  0.1434
  845MOL0     H14012   9.943   1.804   7.226  1.0876  0.6926  0.1643
  845MOL0     H14013  10.007   1.710   7.370  0.8950  1.3338 -0.4816
  845MOL0     H14014  10.065   1.525   7.216  0.9297  0.2063  0.9785
  845MOL0     H14015  10.055   1.639   7.087  1.9638 -3.9156 -0.6748
  845MOL0     H14016  10.221   1.793   7.195  1.9234 -1.4146 -3.1803
  845MOL0     H14017  10.234   1.681   7.340  1.5234 -0.6494 -0.1466
  845MOL0     H14018  10.318   1.508   7.182  4.2496 -0.4973  0.6356
  845MOL0     H14019  10.277   1.617   7.036  5.1963 -1.2368 -1.2384
  845MOL0     H14020  10.459   1.770   7.160  0.9200 -0.3735 -1.9430
  845MOL0     H14021  10.492   1.615   7.236  0.0846  2.6702  1.8960
  845MOL0     H14022  10.501   1.529   6.976  0.8611  0.5750  0.0455
  845MOL0     H14023  10.457   1.686   6.926  0.0331  1.4116  0.5946
  845MOL0     H14024  10.691   1.657   6.888  1.5848  2.5736 -0.1030
  845MOL0     H14025  10.721   1.621   7.056 -1.0195 -0.1104  0.4409
  845MOL0     H14026  10.560   1.902   6.834  0.0902 -0.1644  0.9595
  845MOL0     H14027  10.635   2.256   7.021  2.4970 -1.4465  1.3845
  845MOL0     H14028  10.630   2.208   6.857 -0.7292  3.1305  0.3755
  845MOL0     H14029  10.387   2.103   6.924  0.5752 -1.1257  1.8722
  845MOL0     H14030  10.417   2.268   6.866  1.3383 -1.2901 -0.0789
  845MOL0     H14031  10.420   2.361   7.088  0.6197  0.0906 -0.4764
  845MOL0     H14032  10.411   2.196   7.157  0.7818  1.3057 -0.0183
  845MOL0     H14033  10.222   2.330   6.961 -1.3598 -1.0463 -0.4953
  845MOL0     H14034  10.185   2.338   7.131 -0.5671 -2.6422  3.0468
  845MOL0     H14035   9.988   2.341   7.055  0.2498  0.3466  1.8343
  845MOL0     H14036   9.678   2.369   6.947  1.7942  3.0901  0.1013
  845MOL0     H14037   9.656   2.323   7.123  0.2008  2.2384  0.0594
  845MOL0     H14038   9.789   2.422   7.072  0.6661 -2.0372  2.1926
  845MOL0     H14039   9.363   1.937   6.962 -1.4764 -0.7991 -1.9830
  845MOL0     H14040   9.131   1.952   6.954  0.8966 -0.2579 -1.1992
  845MOL0     H14041   8.963   2.343   6.872 -0.8314  1.6515 -0.9210
  845MOL0     H14042   8.938   2.288   6.704 -1.2821  0.1269  0.0057
  845MOL0     H14043   8.784   2.161   6.918 -0.4895 -1.0159 -1.0204
  845MOL0     H14044   8.747   2.328   6.881  0.3982 -1.1209  1.4261
  845MOL0     H14045   8.745   2.119   6.658 -1.6095  1.0688 -1.4320
  845MOL0     H14046   8.708   2.288   6.649  2.3489  0.2042  0.0039
  845MOL0     H14047   8.544   2.106   6.822 -0.3187  0.2580 -0.9385
  845MOL0     H14048   8.505   2.267   6.760  1.7509  0.9099  1.5670
  845MOL0     H14049   8.552   2.061   6.549 -2.0855 -2.2983  0.0198
  845MOL0     H14050   8.490   2.222   6.537  0.1446  0.7258  0.6047
  845MOL0     H14051   8.262   2.142   6.608 -1.7206 -0.4219  2.2866
  845MOL0     H14052   8.340   2.012   6.528  2.9022  1.3701 -0.5111
  845MOL0     H14053   8.215   1.940   6.730 -0.6764  1.0231  1.1442
  845MOL0     H14054   8.347   2.016   6.827  1.5374  3.4486 -1.5732
  845MOL0     H14055   8.412   1.807   6.825 -2.3006 -0.6006 -0.3392
  845MOL0     H14056   8.505   1.879   6.684  0.6734 -1.4946  0.1411
  845MOL0     H14057   9.195   2.339   6.766  1.2838  0.4920  0.3918
  845MOL0     H14058   9.394   2.353   6.834 -3.1756  1.6549  2.0276
  845MOL0     H14059   9.830   1.888   6.944  0.5652 -0.1615 -0.6757
  845MOL0     H14060  10.068   1.921   6.996 -0.6898 -0.2031  0.0906
  845MOL0     H14061   9.629   1.456   7.294  0.5920  0.0872 -0.5729
  845MOL0     H14062   9.431   1.387   7.262  0.0128  1.1294 -0.0137
  845MOL0     H14063   8.941   1.668   6.959  0.3665 -1.6463 -3.4656
  845MOL0     H14064   8.710   1.583   6.998 -0.0986 -0.2844  0.8294
  845MOL0     H14065   8.530   1.189   6.935 -0.2303  1.1648  0.2916
  845MOL0     H14066   8.696   1.147   6.953  0.5029 -0.4559 -0.2295
  845MOL0     H14067   8.618   1.183   7.226 -0.3940  1.7520 -1.9745
  845MOL0     H14068   8.621   1.031   7.139 -0.6052 -0.7682 -5.6448
  845MOL0     H14069   8.386   1.039   7.096  0.5556 -1.8468  0.7932
  845MOL0     H14070   8.381   1.218   7.108 -2.4437 -1.8583 -2.3419
  845MOL0     H14071   8.414   1.207   7.353 -2.5883  3.1328 -2.0582
  845MOL0     H14072   8.463   1.035   7.336 -1.3068 -0.4089 -0.8611
  845MOL0     H14073   8.038   1.038   7.362  0.0519  3.1241  0.7526
  845MOL0     H14074   8.896   1.198   7.049  4.0718  0.9756 -0.1640
  845MOL0     H14075   9.098   1.292   7.047 -0.9998 -1.5422 -1.6363
  846MOL0     O14076   4.836   4.848   2.100 -0.4091 -0.4656  0.0699
  846MOL0     C14077   4.896   4.902   2.196  0.2439  0.5853 -0.2841
  846MOL0     O14078   4.857   5.003   2.272 -0.4040  0.5069 -0.4542
  846MOL0     C14079   4.761   5.089   2.221 -0.2251 -0.1229 -0.2537
  846MOL0     C14080   4.633   5.046   2.241 -1.2065 -0.6966 -0.0205
  846MOL0     C14081   4.524   5.121   2.208  0.3095 -0.0892  0.4888
  846MOL0     C14082   4.548   5.257   2.173 -0.2430  0.7763  0.4160
  846MOL0     O14083   4.436   5.330   2.144 -0.1743  0.7039 -0.5508
  846MOL0     C14084   4.411   5.367   2.001  0.4584 -0.4501  0.0706
  846MOL0     C14085   4.345   5.251   1.914  0.7362 -0.7526  0.6202
  846MOL0     C14086   4.220   5.206   1.975  0.0359  1.0735 -0.1477
  846MOL0     C14087   4.156   5.091   1.895 -1.2554  0.1488 -0.0527
  846MOL0     C14088   4.070   5.142   1.778 -0.3278  0.2267  0.6838
  846MOL0     C14089   3.956   5.229   1.825  0.1214 -0.4524 -0.0279
  846MOL0     C14090   3.846   5.232   1.712 -0.3279  0.3768 -0.0749
  846MOL0     C14091   3.894   5.273   1.572  0.6431  0.3203  0.3909
  846MOL0     N14092   3.944   5.416   1.579 -0.5134  0.7483 -0.1221
  846MOL0     C14093   4.065   5.475   1.610  0.0365  0.6309 -0.1046
  846MOL0     C14094   4.064   5.601   1.569 -0.7401  0.6282 -0.5460
  846MOL0     C14095   4.173   5.693   1.576 -0.1089 -0.1865  0.5488
  846MOL0     C14096   4.190   5.764   1.440 -0.3599  0.4560 -0.1493
  846MOL0     C14097   4.325   5.842   1.426 -0.1729 -0.5800  0.0229
  846MOL0     C14098   4.321   5.971   1.518 -0.5147 -0.3579 -0.2343
  846MOL0     O14099   4.235   6.067   1.454 -0.4412 -0.0475  1.0269
  846MOL0     C14100   4.286   6.146   1.352  0.0218 -0.6016 -0.2111
  846MOL0     C14101   4.414   6.128   1.293 -0.0209 -0.6415 -1.3632
  846MOL0     C14102   4.468   6.235   1.213 -0.8448 -0.1626 -0.3841
  846MOL0     C14103   4.614   6.232   1.187 -0.2846  0.5451 -0.5121
  846MOL0     C14104   4.384   6.348   1.178  0.2091 -0.4685 -0.2307
  846MOL0     C14105   4.408   6.458   1.094  0.0404  0.0426 -0.0174
  846MOL0     O14106   4.487   6.421   0.991  0.1872 -0.2924 -0.3614
  846MOL0     C14107   4.517   6.493   0.875 -0.4148  0.0849 -0.7920
  846MOL0     C14108   4.632   6.453   0.804 -0.0350 -0.0844 -0.0093
  846MOL0     C14109   4.662   6.516   0.686  0.1572 -1.1293  0.2511
  846MOL0     C14110   4.582   6.618   0.636  0.5852 -0.1028 -0.5935
  846MOL0     O14111   4.615   6.674   0.519  0.3879 -1.2400 -0.7372
  846MOL0     C14112   4.715   6.778   0.522  0.4284  1.2517 -0.1806
  846MOL0     C14113   4.662   6.911   0.581  0.3712 -0.3550  0.0240
  846MOL0     C14114   4.598   7.016   0.487 -0.1875  0.2164 -0.6378
  846MOL0     C14115   4.484   6.963   0.398 -0.6481 -0.2458 -1.3251
  846MOL0     C14116   4.443   7.091   0.318 -0.2938  0.4859  0.0793
  846MOL0     C14117   4.337   7.063   0.218  0.6124 -0.1128 -0.8940
  846MOL0     C14118   4.305   7.183   0.135 -0.5084 -0.6430 -0.2211
  846MOL0     C14119   4.274   7.306   0.217 -0.0256  0.4961  0.0549
  846MOL0    Cl14120   4.203   7.421   0.104 -0.3809  0.0892 -0.0539
  846MOL0     C14121   4.457   6.655   0.698 -0.2296  0.5826  0.4038
  846MOL0     C14122   4.426   6.582   0.813  0.2836 -0.3852  0.6386
  846MOL0     O14123   4.355   6.566   1.106 -0.6748 -0.5073 -0.4464
  846MOL0     C14124   4.253   6.348   1.214  0.2620  0.1991 -0.5677
  846MOL0     C14125   4.206   6.250   1.305  0.1090 -0.6507 -0.7880
  846MOL0     N14126   3.937   5.624   1.515 -0.9712  0.0879 -0.3420
  846MOL0     N14127   3.869   5.519   1.542  0.2048 -0.1686  1.3318
  846MOL0     C14128   4.680   5.309   2.167  1.3642 -0.1697 -0.4507
  846MOL0     C14129   4.790   5.225   2.180 -0.1818 -0.0200 -0.8131
  846MOL0     C14130   5.031   4.846   2.226 -0.1977 -0.7655 -0.1857
  846MOL0     C14131   5.106   4.882   2.345 -1.1020 -0.1671  1.4767
  846MOL0     C14132   5.232   4.829   2.373 -0.5530  0.9518  0.2508
  846MOL0     C14133   5.290   4.739   2.284 -0.4508  0.6557 -0.9643
  846MOL0     O14134   5.397   4.660   2.297  0.1720  0.4125  0.4127
  846MOL0     C14135   5.500   4.707   2.384 -0.5641 -0.3222 -0.7363
  846MOL0     C14136   5.627   4.687   2.305 -0.1087 -0.0015  1.0432
  846MOL0     C14137   5.658   4.541   2.293  0.4064 -0.2243  0.7175
  846MOL0     C14138   5.745   4.517   2.172  0.5772  0.9919  0.2085
  846MOL0     C14139   5.873   4.584   2.179 -0.3597  0.1777 -1.0781
  846MOL0     C14140   5.992   4.614   2.203  0.1008  0.2794 -0.0091
  846MOL0     C14141   5.214   4.696   2.180  0.3763 -0.9675 -0.0297
  846MOL0     C14142   5.089   4.745   2.153  0.3672 -0.2990  1.1007
  846MOL0     H14143   4.642   4.942   2.272  0.0289 -0.6431 -0.1321
  846MOL0     H14144   4.426   5.077   2.223  0.7030 -1.3431 -0.4382
  846MOL0     H14145   4.348   5.457   1.994  0.3689 -0.5539 -0.5051
  846MOL0     H14146   4.502   5.391   1.947  0.9894  0.6970  1.4200
  846MOL0     H14147   4.320   5.279   1.812  0.4524  0.7878  1.0882
  846MOL0     H14148   4.415   5.167   1.916  0.7773 -0.7157  2.3605
  846MOL0     H14149   4.251   5.162   2.070  2.7572 -2.0163 -2.2241
  846MOL0     H14150   4.160   5.295   1.994 -0.8623  0.2863  0.8620
  846MOL0     H14151   4.223   5.025   1.840 -0.3216 -0.3646  1.6223
  846MOL0     H14152   4.103   5.030   1.969  3.8993 -2.4557  2.0243
  846MOL0     H14153   4.128   5.196   1.703 -1.7705  1.3895  0.3500
  846MOL0     H14154   4.029   5.054   1.727 -0.9559  0.8700  0.0431
  846MOL0     H14155   3.905   5.183   1.910  0.3765 -1.2684 -0.3127
  846MOL0     H14156   3.979   5.334   1.843  1.4225 -1.1108  2.5961
  846MOL0     H14157   3.815   5.128   1.693  3.0951 -0.3468 -2.8137
  846MOL0     H14158   3.754   5.284   1.740 -0.8132 -1.3813  1.8774
  846MOL0     H14159   3.815   5.256   1.498  0.5643  1.2882  0.2370
  846MOL0     H14160   3.976   5.214   1.530 -0.6665  0.2153 -2.2602
  846MOL0     H14161   4.145   5.432   1.670 -0.0003 -0.3828 -0.7624
  846MOL0     H14162   4.161   5.770   1.652  2.9636  0.2387  0.7288
  846MOL0     H14163   4.269   5.641   1.586  0.2886 -0.2557 -2.5407
  846MOL0     H14164   4.114   5.838   1.415 -0.5635  0.3008  0.0031
  846MOL0     H14165   4.205   5.684   1.368  3.7580 -2.8706  3.7755
  846MOL0     H14166   4.346   5.871   1.323  2.2423 -0.0046  0.6168
  846MOL0     H14167   4.408   5.777   1.452  1.1543 -0.5580 -3.6297
  846MOL0     H14168   4.426   6.002   1.518 -1.6897  4.2330 -0.7115
  846MOL0     H14169   4.299   5.954   1.624 -3.0287  1.1538 -0.4232
  846MOL0     H14170   4.480   6.049   1.326 -2.3855 -2.4323 -0.6445
  846MOL0     H14171   4.686   6.253   1.267 -1.0540 -0.9874  0.6473
  846MOL0     H14172   4.628   6.126   1.164  1.5888  0.6580 -0.0215
  846MOL0     H14173   4.642   6.291   1.100  1.9746  2.7207  1.5312
  846MOL0     H14174   4.704   6.391   0.857  1.3395  2.1741  0.9269
  846MOL0     H14175   4.752   6.483   0.635  0.3278 -0.6231  0.2239
  846MOL0     H14176   4.792   6.737   0.589 -1.7275 -2.1663  0.4658
  846MOL0     H14177   4.765   6.791   0.426  1.6696  0.9017  0.3891
  846MOL0     H14178   4.582   6.891   0.653  1.1422 -0.3740  0.8904
  846MOL0     H14179   4.749   6.962   0.623  0.3112  0.4565 -0.7781
  846MOL0     H14180   4.668   7.064   0.417 -0.2703  0.6041 -0.4561
  846MOL0     H14181   4.560   7.096   0.551 -1.3271 -0.0596 -0.9446
  846MOL0     H14182   4.518   6.884   0.329 -0.9250 -2.6973  1.1828
  846MOL0     H14183   4.400   6.933   0.461  0.6626 -1.4255 -0.0583
  846MOL0     H14184   4.527   7.125   0.257 -0.6420  3.3930  1.0361
  846MOL0     H14185   4.418   7.172   0.387  0.1787  0.1381  0.6635
  846MOL0     H14186   4.361   6.982   0.148 -0.7392  1.1967 -3.0004
  846MOL0     H14187   4.254   7.035   0.283 -0.0437  1.7021 -0.8874
  846MOL0     H14188   4.212   7.147   0.090  0.3406 -2.9001 -0.2743
  846MOL0     H14189   4.372   7.197   0.049  1.5311 -1.5810  1.1429
  846MOL0     H14190   4.361   7.346   0.269 -1.2512  1.0500  1.7831
  846MOL0     H14191   4.192   7.289   0.289 -2.4572  2.2236 -2.1234
  846MOL0     H14192   4.386   6.721   0.651 -0.7541 -0.5309 -0.4175
  846MOL0     H14193   4.323   6.587   0.844 -0.7475  1.8326 -2.5974
  846MOL0     H14194   4.194   6.433   1.181 -0.1918  0.0701 -0.1060
  846MOL0     H14195   4.104   6.267   1.336 -0.0741  2.7279 -2.7688
  846MOL0     H14196   4.696   5.409   2.130  2.3682 -0.2572 -0.3034
  846MOL0     H14197   4.894   5.250   2.159 -0.9431  2.3331 -2.1483
  846MOL0     H14198   5.072   4.950   2.422  0.2884  0.3542  1.6612
  846MOL0     H14199   5.274   4.851   2.471 -1.9611 -1.8566  1.6066
  846MOL0     H14200   5.487   4.811   2.414 -3.1384 -1.4680  2.8383
  846MOL0     H14201   5.495   4.639   2.470  2.2536  0.6312  0.3103
  846MOL0     H14202   5.702   4.735   2.369 -0.6859  2.6495 -0.1396
  846MOL0     H14203   5.614   4.749   2.216 -2.9684 -2.3131 -0.3136
  846MOL0     H14204   5.564   4.487   2.281  0.7528 -0.3911 -1.6945
  846MOL0     H14205   5.708   4.501   2.382  0.9709 -3.6414 -0.9804
  846MOL0     H14206   5.683   4.545   2.086  0.0023 -0.8709 -0.0465
  846MOL0     H14207   5.763   4.409   2.168  1.6667  1.1839 -0.2840
  846MOL0     H14208   6.087   4.655   2.228 -0.0952  0.3114  0.7007
  846MOL0     H14209   5.252   4.619   2.114 -0.4115  0.0409 -1.6953
  846MOL0     H14210   5.035   4.705   2.068  0.5394 -0.7257  1.1901
  847MOL0     O14211   8.588  10.812   4.335 -0.5249  0.2088 -0.8665
  847MOL0     C14212   8.491  10.732   4.358  0.3267 -0.2967  0.4219
  847MOL0     O14213   8.477  10.607   4.310 -0.2859 -0.3713  0.0203
  847MOL0     C14214   8.584  10.549   4.247  0.4975 -0.3350  0.2332
  847MOL0     C14215   8.625  10.587   4.119 -0.3328 -0.3618 -0.2345
  847MOL0     C14216   8.724  10.518   4.050  0.2921 -0.3361 -0.4174
  847MOL0     C14217   8.777  10.402   4.105 -0.1147  0.7290 -0.6235
  847MOL0     O14218   8.873  10.324   4.043  0.0253 -0.2519 -0.0964
  847MOL0     C14219   8.896  10.338   3.898  0.6763 -0.0873 -0.1720
  847MOL0     C14220   9.027  10.266   3.845  0.3370 -0.1888  0.1128
  847MOL0     C14221   9.151  10.290   3.942  0.2373 -0.1758  0.4375
  847MOL0     C14222   9.266  10.200   3.891  0.5848 -0.6719 -0.3839
  847MOL0     C14223   9.392  10.226   3.983  0.1248  0.1223  0.3657
  847MOL0     C14224   9.525  10.176   3.917  0.5508 -0.1956  0.3688
  847MOL0     C14225   9.582  10.278   3.811 -0.8099 -0.0194  0.7941
  847MOL0     C14226   9.712  10.218   3.755 -0.4085 -0.0953  0.0342
  847MOL0     N14227   9.799  10.306   3.658 -0.1117  0.4559 -1.1976
  847MOL0     C14228   9.924  10.280   3.607  0.1562  0.3445  0.3113
  847MOL0     C14229   9.942  10.360   3.497  0.2751  0.2722 -0.0454
  847MOL0     C14230  10.071  10.360   3.427 -0.8390 -0.0305  2.0288
  847MOL0     C14231  10.107  10.214   3.401  0.3437  1.3909  0.1051
  847MOL0     C14232  10.185  10.203   3.264 -0.1725  0.3850 -0.1009
  847MOL0     C14233  10.233  10.050   3.240 -0.5726 -0.3101 -0.0786
  847MOL0     O14234  10.294  10.032   3.109  0.0787 -0.2166 -0.2462
  847MOL0     C14235  10.309   9.910   3.060  1.8119 -0.0680 -0.1363
  847MOL0     C14236  10.261   9.789   3.112 -0.6049  0.3499 -0.0467
  847MOL0     C14237  10.290   9.660   3.051 -0.5350  0.1957 -0.0590
  847MOL0     C14238  10.252   9.538   3.135  0.5253 -0.7910 -0.3806
  847MOL0     C14239  10.372   9.656   2.932 -0.2760 -0.0957 -0.0522
  847MOL0     C14240  10.412   9.532   2.863  0.8392  0.6906 -0.6367
  847MOL0     O14241  10.529   9.539   2.794 -0.5901 -0.6486 -0.3440
  847MOL0     C14242  10.593   9.434   2.733  0.1498 -0.0074  0.2236
  847MOL0     C14243  10.730   9.419   2.753  0.9342 -0.5399  0.8001
  847MOL0     C14244  10.796   9.321   2.680 -0.0781 -0.6788 -0.9940
  847MOL0     C14245  10.731   9.231   2.595  0.0367 -0.5439 -0.0238
  847MOL0     O14246  10.785   9.119   2.544 -0.0012 -0.2655 -0.6723
  847MOL0     C14247  10.919   9.095   2.563  0.2471 -0.2704 -0.9349
  847MOL0     C14248  10.935   8.947   2.521 -0.3786 -0.7156  0.9056
  847MOL0     C14249  10.905   8.934   2.375 -0.8329 -0.7330 -0.4822
  847MOL0     C14250  10.906   8.792   2.331  0.2926 -0.4669  0.6827
  847MOL0     C14251  11.025   8.712   2.364  0.0814  0.0628  0.6056
  847MOL0     C14252  11.028   8.571   2.292  0.0019  0.5487  1.3254
  847MOL0     C14253  11.168   8.507   2.289  0.1218  0.3745 -0.3253
  847MOL0     C14254  11.167   8.393   2.183 -0.2998 -0.1181  0.0344
  847MOL0    Cl14255  11.046   8.281   2.224 -0.4441  0.2818 -0.9701
  847MOL0     C14256  10.592   9.238   2.585 -0.4074 -0.1941 -0.3073
  847MOL0     C14257  10.528   9.344   2.653 -0.1719  0.4854 -0.2220
  847MOL0     O14258  10.349   9.429   2.881 -0.2865 -0.4821 -0.4493
  847MOL0     C14259  10.421   9.784   2.889 -0.2620 -0.2283  1.1545
  847MOL0     C14260  10.389   9.905   2.947  0.1941 -0.4158 -0.1843
  847MOL0     N14261   9.821  10.433   3.483 -0.5310 -0.1576  0.4159
  847MOL0     N14262   9.739  10.395   3.573  0.0202 -0.9141  0.4508
  847MOL0     C14263   8.731  10.355   4.232  0.6966 -0.7671  0.5100
  847MOL0     C14264   8.635  10.434   4.303  0.9099 -0.2648  0.8999
  847MOL0     C14265   8.369  10.777   4.427 -0.1332  0.0407  0.0478
  847MOL0     C14266   8.347  10.916   4.436  0.2614  0.0980 -0.5698
  847MOL0     C14267   8.237  10.967   4.497  0.8191  0.5523 -0.1310
  847MOL0     C14268   8.140  10.875   4.552 -0.3416  0.2976 -0.0117
  847MOL0     O14269   8.025  10.901   4.621 -0.1140 -0.8076 -1.2016
  847MOL0     C14270   7.944  11.018   4.607 -0.0921  0.2850 -0.1242
  847MOL0     C14271   7.993  11.133   4.696 -0.2943 -0.3526  0.0305
  847MOL0     C14272   7.999  11.089   4.846 -0.2431 -0.7720  0.0965
  847MOL0     C14273   8.107  11.148   4.936  0.2767 -0.4483 -0.1824
  847MOL0     C14274   8.241  11.133   4.880 -0.0910 -0.0192 -0.0127
  847MOL0     C14275   8.361  11.143   4.841 -0.0449 -0.1284 -0.7082
  847MOL0     C14276   8.159  10.737   4.545 -0.2066 -0.1488 -0.4937
  847MOL0     C14277   8.276  10.694   4.491 -0.5054  0.1697  0.3490
  847MOL0     H14278   8.584  10.680   4.081  3.0294  1.4291  0.0862
  847MOL0     H14279   8.755  10.553   3.952 -0.8336  1.4918 -0.1604
  847MOL0     H14280   8.808  10.301   3.844  0.0948  1.1188 -0.1004
  847MOL0     H14281   8.901  10.445   3.875 -0.1886  0.3925  1.7049
  847MOL0     H14282   9.002  10.159   3.844 -1.8404  0.0719 -4.9878
  847MOL0     H14283   9.049  10.301   3.743 -1.9297  1.1365  0.0111
  847MOL0     H14284   9.173  10.397   3.944 -3.2563  0.6662  1.2749
  847MOL0     H14285   9.123  10.268   4.046  3.7617 -1.3912  1.2649
  847MOL0     H14286   9.237  10.095   3.890 -1.8117 -0.1247  1.1796
  847MOL0     H14287   9.281  10.240   3.791 -2.0980  5.4055  1.1911
  847MOL0     H14288   9.399  10.332   4.007  0.0156  0.1117  0.4480
  847MOL0     H14289   9.373  10.173   4.077 -1.0488 -1.3387 -0.6314
  847MOL0     H14290   9.598  10.173   3.999  0.6378 -2.0783  0.2784
  847MOL0     H14291   9.515  10.075   3.876  0.8740  0.4327 -1.3030
  847MOL0     H14292   9.504  10.289   3.734  2.0867  3.3958 -2.0068
  847MOL0     H14293   9.606  10.380   3.844  2.7393  0.9665 -3.7796
  847MOL0     H14294   9.686  10.135   3.689 -1.7623  1.3772 -1.3565
  847MOL0     H14295   9.767  10.171   3.837  0.5519 -0.3133 -0.7047
  847MOL0     H14296   9.994  10.204   3.641  1.6867  0.6104 -2.0246
  847MOL0     H14297  10.076  10.424   3.338  0.2964 -4.8141 -1.7717
  847MOL0     H14298  10.149  10.397   3.495 -0.0394  0.1062  1.0519
  847MOL0     H14299  10.019  10.151   3.390 -1.5185  3.6473  1.2183
  847MOL0     H14300  10.165  10.175   3.485  0.8538  2.5084  0.2934
  847MOL0     H14301  10.271  10.271   3.257  1.5925 -1.8084 -0.7962
  847MOL0     H14302  10.117  10.211   3.179 -0.9059 -1.8047  0.2348
  847MOL0     H14303  10.149   9.984   3.264 -0.5712 -0.9004 -1.5459
  847MOL0     H14304  10.300  10.016   3.319 -1.0851  0.3546  0.6574
  847MOL0     H14305  10.204   9.778   3.203  2.7735 -1.0950  2.1157
  847MOL0     H14306  10.254   9.565   3.241  0.0037 -0.3504 -0.4770
  847MOL0     H14307  10.154   9.499   3.106 -1.9050  2.4110  2.6636
  847MOL0     H14308  10.328   9.459   3.131 -0.2116 -1.4706 -1.5675
  847MOL0     H14309  10.774   9.488   2.824 -2.7176  2.2732  0.6413
  847MOL0     H14310  10.900   9.308   2.709 -0.8806 -2.2808  1.4327
  847MOL0     H14311  10.979   9.150   2.490  1.9730 -1.5832 -0.5643
  847MOL0     H14312  10.951   9.098   2.668 -2.7036 -1.0121  0.0854
  847MOL0     H14313  11.042   8.924   2.533  0.6449  2.2380 -1.3319
  847MOL0     H14314  10.879   8.883   2.589  0.5493  0.6125  3.0350
  847MOL0     H14315  10.968   8.993   2.308  1.7563 -0.5274  1.9399
  847MOL0     H14316  10.804   8.974   2.365 -1.4175 -0.4319  4.2537
  847MOL0     H14317  10.813   8.744   2.360 -2.3421  1.1023 -4.1125
  847MOL0     H14318  10.896   8.797   2.222 -2.8762 -0.8549  0.8683
  847MOL0     H14319  11.037   8.701   2.472 -0.5887  2.1137  0.9275
  847MOL0     H14320  11.110   8.768   2.327 -1.8352  2.9926  0.3140
  847MOL0     H14321  10.951   8.510   2.340  2.2534 -1.8704  2.0692
  847MOL0     H14322  11.001   8.590   2.187  0.3300 -1.4440  0.8378
  847MOL0     H14323  11.192   8.464   2.386 -3.2180 -0.3468  0.3073
  847MOL0     H14324  11.241   8.578   2.250  1.8622 -1.0696  0.1806
  847MOL0     H14325  11.265   8.345   2.178  2.2394  4.6148 -0.9924
  847MOL0     H14326  11.148   8.426   2.080 -1.3494 -1.1563 -0.1375
  847MOL0     H14327  10.545   9.168   2.517  0.0901  0.1929 -1.0665
  847MOL0     H14328  10.421   9.356   2.636 -0.6018  2.2720  2.8849
  847MOL0     H14329  10.479   9.773   2.797 -1.1001 -2.2469  0.8325
  847MOL0     H14330  10.437   9.993   2.908  1.3822 -0.6924  0.6229
  847MOL0     H14331   8.766  10.265   4.283 -1.5309 -0.7573  2.1754
  847MOL0     H14332   8.596  10.391   4.395 -0.4392 -0.0940  0.4363
  847MOL0     H14333   8.426  10.977   4.394  0.7872  1.0281  1.6695
  847MOL0     H14334   8.237  11.075   4.507  2.3253  0.7354 -1.5319
  847MOL0     H14335   7.927  11.051   4.504 -1.3787  0.7773  0.2190
  847MOL0     H14336   7.839  10.994   4.628 -0.6169  1.1994 -1.5430
  847MOL0     H14337   7.919  11.213   4.683  0.0198  0.0894  0.9353
  847MOL0     H14338   8.089  11.173   4.665 -1.1347  0.1615 -2.0991
  847MOL0     H14339   8.016  10.983   4.864  0.2472 -0.6360  0.4539
  847MOL0     H14340   7.906  11.126   4.891  0.5978 -0.6195  1.7887
  847MOL0     H14341   8.104  11.093   5.031  1.0708 -2.1293 -1.0925
  847MOL0     H14342   8.083  11.251   4.964 -0.6879 -1.4059  2.8946
  847MOL0     H14343   8.462  11.156   4.807  0.1969  2.4313  0.7867
  847MOL0     H14344   8.093  10.660   4.583 -0.1954 -0.8938 -1.8800
  847MOL0     H14345   8.284  10.589   4.465 -0.5462  0.4994 -1.0800
  848MOL0     O14346  10.656   4.253   2.103 -0.5366 -0.1029  0.0472
  848MOL0     C14347  10.685   4.374   2.071 -1.1553  0.6633 -0.7317
  848MOL0     O14348  10.620   4.482   2.111 -0.1854 -0.6589  0.2130
  848MOL0     C14349  10.511   4.480   2.194 -0.0313  0.4927 -0.1583
  848MOL0     C14350  10.495   4.594   2.274 -1.2006  0.8844 -0.3749
  848MOL0     C14351  10.393   4.602   2.357 -0.1343  0.4839 -0.7318
  848MOL0     C14352  10.290   4.505   2.367 -0.0657 -0.1795 -0.0218
  848MOL0     O14353  10.166   4.510   2.446 -0.5145  0.2645 -0.1235
  848MOL0     C14354  10.183   4.503   2.594  0.0775 -0.5574  0.2635
  848MOL0     C14355  10.092   4.607   2.655 -0.9414  0.1691  0.0694
  848MOL0     C14356   9.942   4.576   2.624 -0.7905 -0.6353 -0.1200
  848MOL0     C14357   9.886   4.428   2.627 -0.1267 -0.9909 -0.3410
  848MOL0     C14358   9.732   4.436   2.622 -0.8630  0.0511 -0.1067
  848MOL0     C14359   9.687   4.512   2.506 -0.2346 -0.8934  0.6093
  848MOL0     C14360   9.539   4.503   2.497 -0.2773  0.3673  0.0475
  848MOL0     C14361   9.480   4.576   2.375  0.0179  0.3447 -0.6000
  848MOL0     N14362   9.533   4.712   2.366  0.5773 -0.3561  0.0378
  848MOL0     C14363   9.620   4.759   2.276 -0.0681 -0.0042  0.8327
  848MOL0     C14364   9.635   4.891   2.310 -0.4724 -0.9398 -0.5139
  848MOL0     C14365   9.728   4.986   2.230 -0.2177  0.3817 -0.0061
  848MOL0     C14366   9.872   4.932   2.197  0.2764  0.0552 -0.2803
  848MOL0     C14367   9.946   4.915   2.334 -0.0688  0.0655  0.2059
  848MOL0     C14368  10.097   4.905   2.306 -0.1019  0.1271 -0.1213
  848MOL0     O14369  10.153   5.023   2.252 -0.2104  0.4930 -1.0185
  848MOL0     C14370  10.287   5.037   2.226  0.8844  0.3272  0.1966
  848MOL0     C14371  10.349   5.165   2.210 -0.3061 -0.7196 -0.3794
  848MOL0     C14372  10.482   5.176   2.188 -0.1745 -0.8028  0.1270
  848MOL0     C14373  10.542   5.313   2.199  0.4835 -0.1964 -0.5904
  848MOL0     C14374  10.560   5.064   2.156 -0.4401 -0.9995  0.0183
  848MOL0     C14375  10.703   5.070   2.128 -0.8642 -0.1015  0.2746
  848MOL0     O14376  10.764   4.955   2.171  0.0037 -0.8447  0.1861
  848MOL0     C14377  10.896   4.944   2.147  0.5060  0.2474 -0.1456
  848MOL0     C14378  10.974   4.931   2.025 -0.6460  0.0039  0.2171
  848MOL0     C14379  11.111   4.910   2.023 -0.0655  1.3997 -0.2009
  848MOL0     C14380  11.179   4.891   2.141  0.5941 -0.3103 -0.4690
  848MOL0     O14381  11.315   4.854   2.125  0.8070  0.1253 -0.2264
  848MOL0     C14382  11.405   4.851   2.235  0.6845  0.7123 -0.0766
  848MOL0     C14383  11.547   4.825   2.201 -0.4759 -0.7918  0.2789
  848MOL0     C14384  11.600   4.903   2.079 -0.1294  0.9772 -0.2114
  848MOL0     C14385  11.751   4.891   2.070  0.3409 -0.2290 -0.2307
  848MOL0     C14386  11.792   4.760   2.006  0.1507  0.2755 -0.3865
  848MOL0     C14387  11.947   4.749   1.975 -0.0934  0.0659  0.1687
  848MOL0     C14388  11.976   4.603   1.966  0.8325  0.3277 -0.8471
  848MOL0     C14389  12.118   4.564   1.926 -0.1388  0.0727 -0.6444
  848MOL0    Cl14390  12.163   4.639   1.774  0.0616 -0.3183 -0.1199
  848MOL0     C14391  11.110   4.914   2.262 -0.9405 -0.8578  0.1525
  848MOL0     C14392  10.975   4.935   2.267  0.0804 -0.0788  0.3133
  848MOL0     O14393  10.754   5.160   2.061 -0.7546 -0.1023 -0.1782
  848MOL0     C14394  10.497   4.933   2.172 -0.0414 -0.2933 -0.1750
  848MOL0     C14395  10.360   4.925   2.202 -0.8409 -1.0507  0.7157
  848MOL0     N14396   9.560   4.923   2.418  0.1791  0.5999 -1.1074
  848MOL0     N14397   9.504   4.816   2.462 -0.6063  0.2203 -0.0401
  848MOL0     C14398  10.306   4.403   2.274  1.3109 -0.5155  0.1207
  848MOL0     C14399  10.412   4.388   2.193  0.0352  0.1424  0.0977
  848MOL0     C14400  10.815   4.397   1.994 -1.0263 -0.1455 -1.2443
  848MOL0     C14401  10.899   4.292   1.955  0.6874  0.1858 -0.4578
  848MOL0     C14402  11.031   4.318   1.914 -0.6057  0.1596 -0.6821
  848MOL0     C14403  11.080   4.449   1.910 -0.4523 -0.3469 -0.3549
  848MOL0     O14404  11.201   4.456   1.851 -0.3996 -0.3221 -0.2783
  848MOL0     C14405  11.276   4.582   1.865  0.0330 -0.2114 -0.3845
  848MOL0     C14406  11.418   4.577   1.806  0.3772 -0.0271  0.0124
  848MOL0     C14407  11.414   4.552   1.660 -0.3808  0.4055 -0.6857
  848MOL0     C14408  11.556   4.588   1.594  0.2608 -0.0666 -0.4272
  848MOL0     C14409  11.555   4.582   1.449 -0.1937 -0.1871 -0.2022
  848MOL0     C14410  11.585   4.587   1.331  0.2040  0.8200 -0.9374
  848MOL0     C14411  11.001   4.553   1.964  0.0159 -0.4082  0.9449
  848MOL0     C14412  10.863   4.534   1.993 -1.3078  0.9222 -0.5803
  848MOL0     H14413  10.576   4.666   2.280  0.1499 -0.6314  0.3624
  848MOL0     H14414  10.368   4.690   2.415 -0.4523 -0.8965  1.3333
  848MOL0     H14415  10.160   4.404   2.634  1.1599 -0.9943 -0.1428
  848MOL0     H14416  10.287   4.509   2.628 -0.1104 -1.0207  0.9365
  848MOL0     H14417  10.124   4.622   2.758  2.7317  3.1120 -1.2818
  848MOL0     H14418  10.114   4.696   2.596  0.9651 -1.1956 -1.4223
  848MOL0     H14419   9.884   4.643   2.688  0.7865  1.3669 -0.6762
  848MOL0     H14420   9.930   4.617   2.523 -1.7146  1.3773  0.7669
  848MOL0     H14421   9.916   4.386   2.531 -2.9422  1.2834 -2.3950
  848MOL0     H14422   9.926   4.372   2.712  0.5296 -0.5574 -0.3567
  848MOL0     H14423   9.683   4.342   2.595 -0.0003 -0.2422 -0.6738
  848MOL0     H14424   9.689   4.466   2.719  1.5400  0.7610  0.8287
  848MOL0     H14425   9.706   4.618   2.524  1.1778 -1.5373  3.5359
  848MOL0     H14426   9.749   4.473   2.425 -0.2998  1.5557 -0.7151
  848MOL0     H14427   9.506   4.399   2.491  2.6130 -0.8030  1.9873
  848MOL0     H14428   9.501   4.561   2.581 -0.9034  2.7749 -1.7825
  848MOL0     H14429   9.372   4.565   2.382  0.1998 -1.8962 -0.3323
  848MOL0     H14430   9.504   4.518   2.285  1.0464 -0.1550 -0.0254
  848MOL0     H14431   9.675   4.702   2.202 -1.5089  1.0252 -1.1362
  848MOL0     H14432   9.680   5.021   2.138 -1.5779 -0.4931  0.3469
  848MOL0     H14433   9.741   5.077   2.290  2.5431  0.5007 -0.6613
  848MOL0     H14434   9.927   5.010   2.143 -1.3890  1.7954  0.4073
  848MOL0     H14435   9.878   4.844   2.133  2.0749  0.1652 -0.3276
  848MOL0     H14436   9.899   4.827   2.380 -1.0936  0.8397  0.6739
  848MOL0     H14437   9.922   4.996   2.403  0.6128  0.8260 -0.4221
  848MOL0     H14438  10.103   4.823   2.234 -0.7929 -1.4279  1.5163
  848MOL0     H14439  10.147   4.866   2.395 -3.0955 -2.1387  0.7409
  848MOL0     H14440  10.283   5.250   2.223 -2.5014 -2.3579 -0.2037
  848MOL0     H14441  10.643   5.316   2.239  0.2053 -0.3493  0.1531
  848MOL0     H14442  10.538   5.355   2.098 -1.1948  3.2797  0.7600
  848MOL0     H14443  10.481   5.383   2.257  2.0309  0.2409  0.5629
  848MOL0     H14444  10.929   4.938   1.927 -1.8902  1.0771  0.8487
  848MOL0     H14445  11.161   4.889   1.929  1.5044 -0.5147  0.9903
  848MOL0     H14446  11.403   4.948   2.286 -0.7929  0.8355 -0.3162
  848MOL0     H14447  11.379   4.773   2.308 -0.7220  2.2248  1.1310
  848MOL0     H14448  11.615   4.835   2.286  0.9060 -2.1278 -0.6144
  848MOL0     H14449  11.561   4.719   2.178  0.7815 -0.7705  0.8673
  848MOL0     H14450  11.575   5.008   2.093  3.8646  1.8728  1.6007
  848MOL0     H14451  11.541   4.867   1.994  1.4633  0.1501 -1.0194
  848MOL0     H14452  11.799   4.974   2.017  0.1096  1.2833  1.7949
  848MOL0     H14453  11.798   4.897   2.169 -2.1799 -2.5848  1.2666
  848MOL0     H14454  11.748   4.752   1.906 -1.2702 -0.8748  0.2961
  848MOL0     H14455  11.759   4.678   2.070  1.8916  0.2486  0.5385
  848MOL0     H14456  11.965   4.797   1.879  0.6725 -1.3660 -0.4357
  848MOL0     H14457  12.008   4.785   2.058 -1.7216 -0.5441  1.7134
  848MOL0     H14458  11.899   4.559   1.901 -4.0607  0.2357  4.2699
  848MOL0     H14459  11.956   4.567   2.067 -2.2251  3.8159  0.0013
  848MOL0     H14460  12.131   4.455   1.919  1.6467  0.1846  0.3354
  848MOL0     H14461  12.174   4.603   2.011 -0.2874 -1.7241  0.3447
  848MOL0     H14462  11.172   4.916   2.351 -0.3488  0.4921 -0.2810
  848MOL0     H14463  10.927   4.948   2.364 -2.8240 -2.6586 -0.6320
  848MOL0     H14464  10.545   4.838   2.150 -0.4753 -0.7012  0.5820
  848MOL0     H14465  10.322   4.823   2.203 -2.0518 -0.6372  2.7883
  848MOL0     H14466  10.246   4.313   2.278  1.6382 -0.7092  0.9397
  848MOL0     H14467  10.422   4.303   2.126  1.8430  0.7869 -0.5280
  848MOL0     H14468  10.861   4.192   1.973  2.8258 -0.6038 -0.0627
  848MOL0     H14469  11.091   4.230   1.895 -1.5093 -0.7884  0.6545
  848MOL0     H14470  11.211   4.656   1.817 -1.3884 -0.7824  0.5697
  848MOL0     H14471  11.277   4.610   1.971 -0.3464 -1.6469  0.0328
  848MOL0     H14472  11.471   4.492   1.850  1.3969  1.1545  1.1282
  848MOL0     H14473  11.472   4.669   1.831 -0.7709  1.2860 -2.0147
  848MOL0     H14474  11.339   4.614   1.611 -0.7221 -0.0935 -0.8059
  848MOL0     H14475  11.397   4.444   1.655  0.5692  0.1496  0.8344
  848MOL0     H14476  11.633   4.530   1.645  0.2702  1.0273  0.8492
  848MOL0     H14477  11.566   4.694   1.621 -4.2009  0.1471  1.3223
  848MOL0     H14478  11.620   4.582   1.230  0.4020  1.4566 -0.9078
  848MOL0     H14479  11.040   4.651   1.989 -1.6639  0.3097  0.8815
  848MOL0     H14480  10.793   4.609   2.027  0.6537  1.8328  1.7561
  849MOL0     O14481   3.407   3.667  10.742  0.0117 -0.5732 -0.5368
  849MOL0     C14482   3.315   3.710  10.816 -1.3013 -0.2077  0.4085
  849MOL0     O14483   3.341   3.822  10.893  0.5390  0.3772  0.3758
  849MOL0     C14484   3.469   3.860  10.910  0.8658 -0.2187 -1.0120
  849MOL0     C14485   3.539   3.828  11.027 -0.5667  1.3163 -0.3208
  849MOL0     C14486   3.670   3.865  11.040 -0.4394  0.0012 -0.3552
  849MOL0     C14487   3.724   3.958  10.959 -0.8158 -0.0387  0.5148
  849MOL0     O14488   3.851   4.011  10.964 -0.0957  0.0986  1.0700
  849MOL0     C14489   3.957   3.929  11.001  0.3093  0.6846 -0.2641
  849MOL0     C14490   4.079   3.948  10.916  0.3377  0.0611  0.0486
  849MOL0     C14491   4.136   4.090  10.944  0.6329  0.2427 -0.4402
  849MOL0     C14492   4.273   4.121  10.887 -0.4711  0.4830  0.1190
  849MOL0     C14493   4.328   4.236  10.959 -0.1213 -0.1643 -1.5146
  849MOL0     C14494   4.461   4.272  10.885  0.3579  0.0659 -0.5443
  849MOL0     C14495   4.560   4.367  10.945  0.1967  0.9264  0.8042
  849MOL0     C14496   4.548   4.503  10.894  0.4116 -0.1645 -0.3203
  849MOL0     N14497   4.637   4.534  10.779  0.4572  0.1290 -0.3680
  849MOL0     C14498   4.743   4.619  10.779 -0.6754 -0.5450  0.2252
  849MOL0     C14499   4.788   4.611  10.653 -0.8597  0.6277 -0.5810
  849MOL0     C14500   4.911   4.686  10.591 -0.5617 -0.2850 -0.1955
  849MOL0     C14501   5.050   4.615  10.611 -0.5084  0.7230 -0.3293
  849MOL0     C14502   5.107   4.638  10.753  0.7508 -0.2391  0.6374
  849MOL0     C14503   5.224   4.550  10.779  0.1682 -0.0716  0.3764
  849MOL0     O14504   5.339   4.602  10.707 -0.5372 -0.3095 -0.0332
  849MOL0     C14505   5.457   4.550  10.765  0.1169 -0.0110  0.5052
  849MOL0     C14506   5.566   4.636  10.774 -0.6869 -0.5986 -0.4325
  849MOL0     C14507   5.684   4.608  10.828 -0.0265  0.8891  0.0053
  849MOL0     C14508   5.795   4.717  10.819 -0.3194  1.2125 -0.3429
  849MOL0     C14509   5.710   4.471  10.863  0.1432 -0.6320 -0.3666
  849MOL0     C14510   5.839   4.406  10.907 -0.0180 -0.3179  0.3380
  849MOL0     O14511   5.954   4.467  10.866  0.4429 -0.0001 -0.2894
  849MOL0     C14512   6.082   4.452  10.936  0.4106  0.1938  0.3983
  849MOL0     C14513   6.197   4.511  10.894  0.1725 -0.1220 -0.4934
  849MOL0     C14514   6.320   4.509  10.966  0.2597  0.7973  0.2094
  849MOL0     C14515   6.324   4.448  11.082 -0.1029  1.0735  0.1988
  849MOL0     O14516   6.450   4.431  11.143  0.4516  0.0207  0.0367
  849MOL0     C14517   6.506   4.297  11.136  0.1290 -0.3401 -0.6129
  849MOL0     C14518   6.525   4.257  11.287  0.0225  0.2768 -0.2995
  849MOL0     C14519   6.602   4.132  11.284 -1.2858  1.0780 -0.7190
  849MOL0     C14520   6.517   4.009  11.280 -0.0226  0.4946  1.4081
  849MOL0     C14521   6.577   3.880  11.360  0.1257 -0.5938 -0.2700
  849MOL0     C14522   6.697   3.822  11.280  0.6538  0.1244  0.5551
  849MOL0     C14523   6.764   3.694  11.346 -0.4476 -0.0129  0.0063
  849MOL0     C14524   6.906   3.686  11.283  0.5458  0.8586 -0.7821
  849MOL0    Cl14525   6.885   3.637  11.105  0.1864 -0.2370 -0.3736
  849MOL0     C14526   6.208   4.378  11.126  0.5370  0.2766  0.7757
  849MOL0     C14527   6.094   4.375  11.050 -0.1907 -0.1179 -0.5883
  849MOL0     O14528   5.836   4.303  10.970 -0.5229 -0.1002 -0.5793
  849MOL0     C14529   5.598   4.379  10.861  0.3064 -0.5663  0.3518
  849MOL0     C14530   5.472   4.419  10.810  0.6446  0.3854 -0.4992
  849MOL0     N14531   4.709   4.513  10.586 -0.0742  0.5829  0.0008
  849MOL0     N14532   4.611   4.471  10.665  0.0964  0.7563 -0.0507
  849MOL0     C14533   3.654   4.001  10.848  0.2554 -0.0826  0.4102
  849MOL0     C14534   3.522   3.957  10.824  0.2573 -0.2212  0.4221
  849MOL0     C14535   3.174   3.664  10.809 -0.7316 -0.6253 -0.0254
  849MOL0     C14536   3.136   3.573  10.715  1.1707  0.3565  0.7500
  849MOL0     C14537   2.995   3.528  10.723 -0.5016 -0.1685  0.9318
  849MOL0     C14538   2.905   3.571  10.821  0.5576 -0.8867 -0.5401
  849MOL0     O14539   2.775   3.523  10.833  0.0970 -0.3485  0.2233
  849MOL0     C14540   2.724   3.426  10.741 -0.6203 -0.4031  0.7897
  849MOL0     C14541   2.570   3.397  10.759  0.0131  0.0618 -0.2854
  849MOL0     C14542   2.486   3.513  10.805 -0.1033 -0.2529  0.0153
  849MOL0     C14543   2.338   3.465  10.810  0.4198  0.9861 -1.3905
  849MOL0     C14544   2.242   3.579  10.821  0.0574 -0.0911  0.4116
  849MOL0     C14545   2.162   3.672  10.829  0.4630  0.9644 -0.1157
  849MOL0     C14546   2.952   3.663  10.915 -0.6908 -0.5806  0.2493
  849MOL0     C14547   3.082   3.712  10.899 -0.4145  0.3156 -0.1349
  849MOL0     H14548   3.491   3.774  11.108 -0.1391 -1.1145 -1.5815
  849MOL0     H14549   3.723   3.838  11.130  1.8658 -0.5608 -1.7934
  849MOL0     H14550   3.980   3.955  11.105  2.4242  0.8408 -0.7124
  849MOL0     H14551   3.930   3.824  10.992 -3.3277  1.5019 -0.1828
  849MOL0     H14552   4.157   3.872  10.927  1.0917  0.4089 -2.3386
  849MOL0     H14553   4.045   3.932  10.813 -4.2761 -3.0079  1.7001
  849MOL0     H14554   4.062   4.160  10.904 -0.7240 -1.4918 -1.0591
  849MOL0     H14555   4.140   4.107  11.052 -0.9193  2.7022 -0.6883
  849MOL0     H14556   4.345   4.039  10.897  0.2715  0.9925 -0.7906
  849MOL0     H14557   4.262   4.143  10.780  2.4106  3.1064  0.2211
  849MOL0     H14558   4.262   4.323  10.955  0.8632  0.8315  1.4836
  849MOL0     H14559   4.352   4.223  11.065  0.4744  2.8361 -1.1771
  849MOL0     H14560   4.522   4.182  10.875 -1.2442 -0.9741 -1.4227
  849MOL0     H14561   4.449   4.304  10.781  0.5146  1.3032 -0.1971
  849MOL0     H14562   4.542   4.369  11.053 -3.0625 -0.9816  0.4253
  849MOL0     H14563   4.658   4.333  10.911 -1.2335 -2.0369 -0.7390
  849MOL0     H14564   4.572   4.566  10.979 -0.0554 -1.2431  0.6363
  849MOL0     H14565   4.448   4.543  10.872  0.2653 -1.0661 -1.4007
  849MOL0     H14566   4.785   4.698  10.840 -2.9394  1.5419 -0.7368
  849MOL0     H14567   4.900   4.705  10.483 -0.2163  0.7041 -0.0684
  849MOL0     H14568   4.914   4.775  10.654  0.9661 -0.5935  0.1902
  849MOL0     H14569   5.131   4.663  10.555 -0.6650  2.9432  1.2215
  849MOL0     H14570   5.029   4.509  10.596 -1.6298  0.8591  0.2055
  849MOL0     H14571   5.043   4.606  10.836  1.9504 -1.2275  1.2117
  849MOL0     H14572   5.138   4.741  10.769 -1.3400  0.4243  0.6933
  849MOL0     H14573   5.193   4.456  10.732  0.6486  0.3827 -0.9108
  849MOL0     H14574   5.242   4.533  10.885 -0.7628 -2.5859  0.1960
  849MOL0     H14575   5.542   4.734  10.733  1.9441  1.7415  3.0576
  849MOL0     H14576   5.860   4.695  10.735 -0.1304 -0.2729  0.1622
  849MOL0     H14577   5.739   4.810  10.801 -4.3464 -0.9737 -0.4088
  849MOL0     H14578   5.844   4.731  10.916 -0.6132  2.3191 -0.3397
  849MOL0     H14579   6.173   4.566  10.803 -0.9723  0.3969  0.1025
  849MOL0     H14580   6.412   4.546  10.921 -0.0972 -0.4594 -1.6615
  849MOL0     H14581   6.435   4.224  11.096  0.0088 -0.2026 -0.6484
  849MOL0     H14582   6.603   4.296  11.085 -1.4162 -1.4633 -3.7905
  849MOL0     H14583   6.591   4.333  11.330  0.4435  1.4431 -2.7916
  849MOL0     H14584   6.432   4.262  11.345 -0.2914 -2.0187 -0.5031
  849MOL0     H14585   6.663   4.128  11.375  0.9343  1.9066 -2.0974
  849MOL0     H14586   6.671   4.132  11.198 -0.9369  2.1387 -0.4536
  849MOL0     H14587   6.415   4.033  11.310 -0.1631 -1.2182  2.4726
  849MOL0     H14588   6.506   3.971  11.178 -2.3598 -1.5732  2.3288
  849MOL0     H14589   6.498   3.806  11.368  1.5226 -2.0307  0.8632
  849MOL0     H14590   6.604   3.897  11.465 -1.3011 -0.3156  0.0633
  849MOL0     H14591   6.659   3.796  11.181  1.1632  0.1474  0.3501
  849MOL0     H14592   6.766   3.904  11.258  0.7495  0.1894  1.0753
  849MOL0     H14593   6.708   3.608  11.309 -1.8980  1.0747 -0.4000
  849MOL0     H14594   6.759   3.695  11.455  0.6603 -0.9666  0.0883
  849MOL0     H14595   6.952   3.604  11.340 -2.7399 -1.9795 -1.8657
  849MOL0     H14596   6.963   3.777  11.305 -1.6763  1.9497  0.8445
  849MOL0     H14597   6.210   4.310  11.210  0.3767 -0.0203  0.5429
  849MOL0     H14598   6.013   4.323  11.101 -1.3374  0.3801 -1.8327
  849MOL0     H14599   5.627   4.287  10.909  2.6569  0.2490  0.5914
  849MOL0     H14600   5.396   4.342  10.801  1.7580 -0.6387 -1.6586
  849MOL0     H14601   3.703   4.073  10.784  0.0358  0.8225  1.2404
  849MOL0     H14602   3.469   3.993  10.736  1.3728  3.0578  0.9558
  849MOL0     H14603   3.205   3.546  10.636 -0.0036  0.8305 -0.4837
  849MOL0     H14604   2.960   3.455  10.652 -1.4671  1.7135 -0.6321
  849MOL0     H14605   2.738   3.451  10.635 -0.4266 -1.2709  0.5978
  849MOL0     H14606   2.782   3.334  10.752  2.2255  1.0917 -0.5695
  849MOL0     H14607   2.575   3.337  10.850 -0.7217  3.7562  2.4434
  849MOL0     H14608   2.538   3.340  10.671  0.1911 -1.6401  0.7250
  849MOL0     H14609   2.490   3.586  10.724 -1.1412 -0.5333 -0.3085
  849MOL0     H14610   2.512   3.560  10.900 -1.2477  0.0196  0.2104
  849MOL0     H14611   2.323   3.402  10.897  2.2004  1.9273 -0.3424
  849MOL0     H14612   2.308   3.409  10.720 -0.0629  1.1773 -1.3514
  849MOL0     H14613   2.103   3.759  10.849  0.5501  1.5215 -2.0344
  849MOL0     H14614   2.892   3.692  11.000  3.5124  1.2015  2.9730
  849MOL0     H14615   3.107   3.793  10.966  0.6067  1.1640 -1.4785
  850MOL0     O14616   1.876   0.941   4.892 -0.2083  1.0608  0.4607
  850MOL0     C14617   1.908   0.939   5.010  0.9240 -0.0391  0.1676
  850MOL0     O14618   1.824   0.903   5.113  0.2474 -0.4207 -0.4728
  850MOL0     C14619   1.684   0.908   5.084 -1.1113 -0.5441 -0.5501
  850MOL0     C14620   1.600   0.814   5.145 -0.2086  1.0020 -0.6961
  850MOL0     C14621   1.462   0.824   5.147  0.1519 -0.4805  0.4372
  850MOL0     C14622   1.406   0.942   5.097 -0.3053  0.2138 -0.4840
  850MOL0     O14623   1.277   0.959   5.067 -0.7057  0.3571 -0.0237
  850MOL0     C14624   1.175   0.893   5.146  0.8368 -0.5025  0.1426
  850MOL0     C14625   1.047   0.949   5.098  0.7211 -0.1252 -0.5017
  850MOL0     C14626   0.929   0.873   5.162 -0.4909  0.0196  0.0043
  850MOL0     C14627   0.806   0.894   5.078  0.4719  0.8576  0.1965
  850MOL0     C14628   0.670   0.864   5.148 -0.0429 -0.9329 -0.1560
  850MOL0     C14629   0.546   0.882   5.062 -0.6095 -1.0182  0.3609
  850MOL0     C14630   0.420   0.804   5.111 -0.1288 -0.9181 -0.5026
  850MOL0     C14631   0.370   0.836   5.261 -0.4030  1.3305  0.4866
  850MOL0     N14632   0.330   0.975   5.288 -0.7251 -0.1787  0.3366
  850MOL0     C14633   0.224   1.035   5.231  0.1998 -0.0451  0.4891
  850MOL0     C14634   0.220   1.158   5.295 -0.4742  0.3066 -0.1271
  850MOL0     C14635   0.110   1.258   5.282 -0.0091 -0.6365 -0.7352
  850MOL0     C14636   0.021   1.262   5.412 -0.0378 -0.2498  0.7211
  850MOL0     C14637  -0.100   1.162   5.397 -0.0206 -0.1194  1.4084
  850MOL0     C14638  -0.164   1.146   5.539 -0.0937 -0.0140  0.4660
  850MOL0     O14639  -0.249   1.022   5.550 -0.2228 -0.9995  0.3762
  850MOL0     C14640  -0.383   1.038   5.529 -0.2088 -0.0410 -0.2366
  850MOL0     C14641  -0.448   1.149   5.467 -0.0431  0.1464 -0.4035
  850MOL0     C14642  -0.577   1.152   5.423  0.5104 -0.1103 -0.4769
  850MOL0     C14643  -0.629   1.279   5.355  0.1611 -0.4445  0.4269
  850MOL0     C14644  -0.663   1.036   5.453 -0.2712 -0.6035  0.0260
  850MOL0     C14645  -0.812   1.032   5.435 -0.3616  1.1377  0.7915
  850MOL0     O14646  -0.875   0.918   5.477 -0.4584 -0.2706 -0.4437
  850MOL0     C14647  -1.014   0.910   5.464 -0.2641  0.1355 -0.5237
  850MOL0     C14648  -1.107   0.945   5.565 -0.6323  0.5524 -0.5066
  850MOL0     C14649  -1.241   0.919   5.553 -0.0875 -1.2304 -1.0014
  850MOL0     C14650  -1.289   0.851   5.443  0.9204  0.2508 -0.1235
  850MOL0     O14651  -1.427   0.842   5.432  0.0797  0.2314 -0.7622
  850MOL0     C14652  -1.461   0.699   5.411 -0.7171  0.1277 -0.2467
  850MOL0     C14653  -1.618   0.678   5.433 -0.0555  0.4671  0.1509
  850MOL0     C14654  -1.694   0.763   5.336 -0.1832 -0.2206 -0.0889
  850MOL0     C14655  -1.839   0.722   5.350  0.1551 -0.4656 -0.7492
  850MOL0     C14656  -1.939   0.782   5.246  0.4560 -0.2910 -0.7738
  850MOL0     C14657  -1.969   0.937   5.250 -0.5529  0.0003 -0.9427
  850MOL0     C14658  -2.058   0.987   5.375 -0.3561  0.2370 -0.4201
  850MOL0     C14659  -2.059   1.141   5.395 -0.6200 -0.2968  0.4028
  850MOL0    Cl14660  -1.894   1.211   5.426  0.0761  0.0649  0.0596
  850MOL0     C14661  -1.195   0.807   5.344  0.2272  0.1380 -0.6107
  850MOL0     C14662  -1.063   0.830   5.366  0.1304  0.5023  0.9197
  850MOL0     O14663  -0.874   1.129   5.383  0.3942 -0.3546 -0.5085
  850MOL0     C14664  -0.602   0.921   5.507 -0.5168 -0.7971  0.3474
  850MOL0     C14665  -0.465   0.924   5.554 -0.5070 -0.1697  0.0003
  850MOL0     N14666   0.318   1.163   5.388  0.4869 -0.0950  0.0075
  850MOL0     N14667   0.385   1.056   5.382 -0.3375 -0.4912  0.0000
  850MOL0     C14668   1.483   1.042   5.036 -0.6533  0.7290  0.1931
  850MOL0     C14669   1.624   1.028   5.029  0.0805  0.5768 -1.0738
  850MOL0     C14670   2.051   0.946   5.036  0.5275 -0.3063 -0.4049
  850MOL0     C14671   2.139   0.972   4.938  0.1153 -0.4176  0.1654
  850MOL0     C14672   2.280   0.965   4.973  0.1044 -0.1990 -0.7098
  850MOL0     C14673   2.336   0.967   5.099 -0.3952  0.4548 -0.4415
  850MOL0     O14674   2.474   0.979   5.109  0.1583 -1.1440 -0.4119
  850MOL0     C14675   2.522   1.008   5.245  0.0390  0.2626 -0.2508
  850MOL0     C14676   2.668   1.052   5.234 -0.6188  0.0254 -0.0964
  850MOL0     C14677   2.755   0.928   5.189  0.1847  0.4298  0.2171
  850MOL0     C14678   2.902   0.967   5.195  0.5610 -0.3757  0.0420
  850MOL0     C14679   2.952   0.996   5.333 -0.0615 -1.3399  0.4192
  850MOL0     C14680   2.986   1.030   5.445  0.2658 -0.8622  0.0043
  850MOL0     C14681   2.236   0.962   5.197 -0.5585 -0.5606 -0.0059
  850MOL0     C14682   2.100   0.940   5.165  0.3136 -0.4046 -0.7428
  850MOL0     H14683   1.655   0.735   5.195 -1.5026  1.5156  1.7373
  850MOL0     H14684   1.399   0.743   5.183  0.9722 -1.0552  0.6253
  850MOL0     H14685   1.172   0.786   5.123 -3.8971  0.0334 -3.1890
  850MOL0     H14686   1.200   0.918   5.249 -0.5760  1.6565  0.0250
  850MOL0     H14687   1.040   1.055   5.123 -1.7232 -0.3739  0.1737
  850MOL0     H14688   1.045   0.920   4.993 -0.5894 -1.4095 -0.1587
  850MOL0     H14689   0.952   0.766   5.167 -1.5124 -0.2016  0.2960
  850MOL0     H14690   0.910   0.909   5.263 -0.3836 -0.3801  0.1687
  850MOL0     H14691   0.795   0.996   5.042  0.2411  0.7196 -0.1319
  850MOL0     H14692   0.811   0.810   5.007  0.1142 -0.2914  1.4797
  850MOL0     H14693   0.677   0.759   5.177 -0.3629  0.0257  3.9740
  850MOL0     H14694   0.663   0.920   5.241  0.5273 -0.3487 -0.4583
  850MOL0     H14695   0.520   0.989   5.065 -2.0271 -1.3113 -0.4955
  850MOL0     H14696   0.576   0.855   4.960 -1.8638  1.6994 -0.8408
  850MOL0     H14697   0.343   0.825   5.036  0.1580  4.3078  0.2577
  850MOL0     H14698   0.450   0.699   5.117  0.0632 -0.7887  1.6538
  850MOL0     H14699   0.444   0.802   5.334  2.3492 -1.3437 -3.1530
  850MOL0     H14700   0.287   0.766   5.269 -0.6986  1.7127  0.8007
  850MOL0     H14701   0.164   0.987   5.154  2.2605 -1.1243 -0.5387
  850MOL0     H14702   0.137   1.361   5.257 -2.2279 -0.0370 -0.9273
  850MOL0     H14703   0.052   1.222   5.197 -0.6991 -0.3334 -0.4018
  850MOL0     H14704  -0.022   1.362   5.422  1.1782  0.5907 -1.6756
  850MOL0     H14705   0.077   1.238   5.503  1.1413  0.0379  0.0935
  850MOL0     H14706  -0.083   1.061   5.359  1.3383  1.5597 -3.1356
  850MOL0     H14707  -0.174   1.213   5.334  2.8094  0.6875 -1.6021
  850MOL0     H14708  -0.220   1.232   5.575 -3.4524 -2.1026  0.6339
  850MOL0     H14709  -0.079   1.137   5.608  0.8930  3.6943 -0.0570
  850MOL0     H14710  -0.391   1.238   5.442  1.0842  0.3736  2.5652
  850MOL0     H14711  -0.710   1.317   5.417  2.2806  2.8255  1.4917
  850MOL0     H14712  -0.553   1.358   5.356  0.6572 -0.9209  0.7060
  850MOL0     H14713  -0.668   1.266   5.254  2.0755  0.3441 -0.4781
  850MOL0     H14714  -1.079   1.014   5.644  0.2996  1.5049 -1.6325
  850MOL0     H14715  -1.306   0.964   5.628 -1.0479 -2.0224 -1.3314
  850MOL0     H14716  -1.428   0.672   5.310  0.4865  0.7231 -0.0287
  850MOL0     H14717  -1.405   0.636   5.481 -1.5194 -1.3852 -0.9167
  850MOL0     H14718  -1.641   0.571   5.427 -0.3986  0.1933  3.8685
  850MOL0     H14719  -1.640   0.698   5.539  0.3728 -0.9888  0.5431
  850MOL0     H14720  -1.661   0.743   5.233  1.7665 -1.2631  0.6860
  850MOL0     H14721  -1.694   0.871   5.352  1.2866 -0.5058  2.4215
  850MOL0     H14722  -1.841   0.613   5.339 -1.9125 -0.4149 -1.1845
  850MOL0     H14723  -1.869   0.750   5.451  1.3463  1.3626 -0.8558
  850MOL0     H14724  -2.029   0.720   5.255 -0.4160  1.1540  1.4049
  850MOL0     H14725  -1.898   0.765   5.147 -2.3878  1.0979 -2.3255
  850MOL0     H14726  -1.871   0.984   5.247 -0.5485  0.2428  1.1880
  850MOL0     H14727  -2.028   0.967   5.163  1.9267 -1.3797 -3.2591
  850MOL0     H14728  -2.005   0.943   5.461  2.2749  1.3187 -1.3982
  850MOL0     H14729  -2.161   0.949   5.378 -0.3388  0.1935 -0.3697
  850MOL0     H14730  -2.115   1.164   5.486  0.8979 -0.6327  1.4707
  850MOL0     H14731  -2.105   1.188   5.308 -1.2702 -1.1891  0.2506
  850MOL0     H14732  -1.229   0.749   5.259 -1.2292  0.9202 -0.5992
  850MOL0     H14733  -1.000   0.778   5.295 -1.1958 -1.5544  1.1610
  850MOL0     H14734  -0.664   0.834   5.527  0.4450 -1.8053 -0.8258
  850MOL0     H14735  -0.415   0.837   5.595 -0.3838 -0.7266 -1.3032
  850MOL0     H14736   1.431   1.129   4.997 -2.7919 -0.2899  0.6573
  850MOL0     H14737   1.689   1.111   5.004 -1.0202  1.9088  0.2599
  850MOL0     H14738   2.101   0.974   4.836 -0.7950  1.6872  0.5022
  850MOL0     H14739   2.346   0.970   4.886 -1.7859 -0.8273 -2.2458
  850MOL0     H14740   2.457   1.085   5.289 -0.1140 -0.2886  0.5075
  850MOL0     H14741   2.512   0.920   5.308 -0.0193  1.1642  1.0479
  850MOL0     H14742   2.703   1.094   5.329 -1.3115 -1.4030  0.8363
  850MOL0     H14743   2.674   1.132   5.160  0.7513 -1.6447 -1.9000
  850MOL0     H14744   2.737   0.896   5.087  0.9516  0.4545  0.0663
  850MOL0     H14745   2.734   0.839   5.249  0.4248  0.9490  1.1033
  850MOL0     H14746   2.916   1.062   5.141 -0.4697 -1.5929 -2.5264
  850MOL0     H14747   2.962   0.888   5.149 -1.6391 -1.0859 -1.7968
  850MOL0     H14748   3.041   1.065   5.530 -1.0739  2.7163 -0.4335
  850MOL0     H14749   2.251   0.960   5.304 -2.1564 -0.8842  0.2415
  850MOL0     H14750   2.031   0.928   5.248  0.8751  0.6317 -0.1056
  851MOL0     O14751   2.473   1.516  11.033 -0.9682  0.4266 -0.0816
  851MOL0     C14752   2.580   1.570  10.989 -0.5933  0.4737  0.4350
  851MOL0     O14753   2.680   1.497  10.925 -0.3366  0.5175 -0.2622
  851MOL0     C14754   2.656   1.380  10.858 -0.7753  0.8126  0.2050
  851MOL0     C14755   2.539   1.361  10.788 -0.5034 -0.1745 -0.5059
  851MOL0     C14756   2.532   1.253  10.698  0.4816  0.6683  0.6428
  851MOL0     C14757   2.624   1.152  10.683 -0.0003  0.3915 -0.2917
  851MOL0     O14758   2.604   1.052  10.595  0.2441 -0.2977  0.4152
  851MOL0     C14759   2.716   0.968  10.564  0.3166  0.4919  0.0282
  851MOL0     C14760   2.655   0.860  10.468  0.8534 -0.3448  0.5406
  851MOL0     C14761   2.775   0.775  10.419  0.1209  0.0658 -0.1224
  851MOL0     C14762   2.719   0.656  10.331  0.7321  0.0633 -0.7131
  851MOL0     C14763   2.830   0.592  10.250 -0.3751  0.0147 -0.2714
  851MOL0     C14764   2.775   0.499  10.143 -0.1718  0.3331  0.5076
  851MOL0     C14765   2.731   0.598  10.027 -0.3820  0.9902  0.6658
  851MOL0     C14766   2.852   0.629   9.937  0.1843 -0.5105 -0.2083
  851MOL0     N14767   2.876   0.515   9.844  0.3029  0.1367 -1.6383
  851MOL0     C14768   2.814   0.506   9.730 -0.1411  0.3533 -0.6379
  851MOL0     C14769   2.861   0.410   9.658  0.3117 -0.2973  0.4566
  851MOL0     C14770   2.824   0.339   9.523 -0.2094  0.1029 -0.8361
  851MOL0     C14771   2.676   0.323   9.499  0.3392  0.2061  0.3383
  851MOL0     C14772   2.625   0.285   9.364  0.3499 -0.3833 -0.6559
  851MOL0     C14773   2.478   0.236   9.369 -0.7828 -0.2716  0.4036
  851MOL0     O14774   2.443   0.237   9.233 -0.8267  0.3760  0.0887
  851MOL0     C14775   2.310   0.213   9.202 -0.4108  0.6132 -0.2910
  851MOL0     C14776   2.236   0.122   9.276  0.2643 -0.7932 -0.5651
  851MOL0     C14777   2.098   0.112   9.243 -0.5935 -0.5713  0.2515
  851MOL0     C14778   2.026   0.000   9.310  1.4161 -0.6792  0.2506
  851MOL0     C14779   2.036   0.198   9.136  0.4975  0.9971  0.4408
  851MOL0     C14780   1.889   0.186   9.095 -0.2101 -1.2311  0.6778
  851MOL0     O14781   1.843   0.291   9.026  0.3911  0.7943  0.2489
  851MOL0     C14782   1.738   0.273   8.948 -0.2135  0.5256 -0.2191
  851MOL0     C14783   1.750   0.278   8.811 -0.6136  0.4288 -0.0761
  851MOL0     C14784   1.639   0.252   8.728  0.3099  0.0445 -0.3190
  851MOL0     C14785   1.509   0.229   8.774 -0.7674  0.2334  0.0619
  851MOL0     O14786   1.413   0.183   8.693 -0.0915 -0.8680 -0.3925
  851MOL0     C14787   1.439   0.138   8.556  1.3521 -0.0421  0.2102
  851MOL0     C14788   1.338   0.033   8.516  0.2474 -0.2992 -0.0043
  851MOL0     C14789   1.366  -0.105   8.561  0.0912  1.5985  0.2233
  851MOL0     C14790   1.247  -0.198   8.593 -0.1329 -0.4562  0.8355
  851MOL0     C14791   1.185  -0.180   8.731  0.0310  0.2316 -0.3472
  851MOL0     C14792   1.057  -0.267   8.742  0.3342 -0.4136  0.6969
  851MOL0     C14793   0.993  -0.295   8.889  0.8056 -0.3799  0.7920
  851MOL0     C14794   0.963  -0.156   8.966  0.5141  0.8246 -0.4567
  851MOL0    Cl14795   0.848  -0.057   8.867  0.1105 -0.1706  0.0460
  851MOL0     C14796   1.503   0.215   8.907 -0.3148 -0.5500  0.0473
  851MOL0     C14797   1.611   0.238   8.997  0.2171 -0.8515  0.2393
  851MOL0     O14798   1.832   0.081   9.112 -0.3784  0.1963  0.4752
  851MOL0     C14799   2.116   0.296   9.075 -0.9035  0.0456  0.7513
  851MOL0     C14800   2.253   0.298   9.110 -0.9250 -0.4857  0.3286
  851MOL0     N14801   2.966   0.355   9.736 -0.0978 -0.2328  0.3873
  851MOL0     N14802   2.966   0.412   9.847  0.8959  0.0683 -0.2583
  851MOL0     C14803   2.739   1.176  10.760  0.1323 -0.0917 -0.5573
  851MOL0     C14804   2.760   1.293  10.831  1.1692 -0.1406 -0.1100
  851MOL0     C14805   2.594   1.711  11.018 -0.4706 -0.7248 -0.1291
  851MOL0     C14806   2.483   1.796  11.051 -0.4388 -0.8998  0.4302
  851MOL0     C14807   2.493   1.935  11.090 -0.1967  0.3726 -0.2965
  851MOL0     C14808   2.634   1.979  11.104 -0.2332 -0.0965  0.5884
  851MOL0     O14809   2.659   2.102  11.150  0.5512 -0.3488 -0.1969
  851MOL0     C14810   2.651   2.200  11.047  0.0298 -1.0076 -0.0165
  851MOL0     C14811   2.600   2.332  11.116  0.6193  0.5519  0.4550
  851MOL0     C14812   2.591   2.461  11.035  0.2508  0.0773  0.4687
  851MOL0     C14813   2.554   2.588  11.111 -0.0909 -0.2186 -0.3475
  851MOL0     C14814   2.514   2.703  11.029 -0.1595  0.6236 -0.4666
  851MOL0     C14815   2.478   2.803  10.970  0.3387  0.1524  0.2622
  851MOL0     C14816   2.738   1.891  11.090 -0.0522  0.0975 -0.1238
  851MOL0     C14817   2.721   1.754  11.040 -0.6626 -0.5211  0.1410
  851MOL0     H14818   2.457   1.431  10.801  1.6671  2.3511  0.2848
  851MOL0     H14819   2.437   1.256  10.645 -0.7814  1.5240  2.8471
  851MOL0     H14820   2.798   1.027  10.521  0.6385 -0.8335 -1.2400
  851MOL0     H14821   2.746   0.925  10.660 -0.8478 -1.1802 -0.3247
  851MOL0     H14822   2.587   0.801  10.529 -0.8806  1.7369  0.7567
  851MOL0     H14823   2.611   0.908  10.380  1.1628 -0.8308  0.1176
  851MOL0     H14824   2.843   0.843  10.368 -0.9069  0.8568 -0.4708
  851MOL0     H14825   2.840   0.734  10.497  4.7606  3.1945 -1.9524
  851MOL0     H14826   2.676   0.582  10.399  2.4127  0.2627  0.6336
  851MOL0     H14827   2.629   0.698  10.284 -1.0096 -1.3637  1.1370
  851MOL0     H14828   2.888   0.668  10.196 -2.1207  1.9376  0.4388
  851MOL0     H14829   2.892   0.539  10.322 -0.9552 -0.0828  0.1661
  851MOL0     H14830   2.854   0.429  10.117 -1.0849  0.1601 -2.1883
  851MOL0     H14831   2.683   0.454  10.183 -3.3525  3.5331 -2.4318
  851MOL0     H14832   2.648   0.554   9.972 -2.4121  3.5695  1.4222
  851MOL0     H14833   2.691   0.693  10.066 -0.4081  2.3982 -2.5183
  851MOL0     H14834   2.941   0.646   9.998 -1.2418  0.3258  1.7241
  851MOL0     H14835   2.812   0.718   9.888 -1.1486 -0.4124  0.9756
  851MOL0     H14836   2.738   0.577   9.698 -0.9492  0.0622  0.5476
  851MOL0     H14837   2.882   0.392   9.448  2.4747 -0.1329  0.9614
  851MOL0     H14838   2.855   0.234   9.532 -2.1040 -0.3685  1.0949
  851MOL0     H14839   2.629   0.415   9.534  1.2890  0.4823  0.9463
  851MOL0     H14840   2.642   0.249   9.572  4.9203 -1.9837  0.6262
  851MOL0     H14841   2.694   0.217   9.313  2.3955  0.9359  0.2412
  851MOL0     H14842   2.632   0.378   9.307  1.6990  0.3606  0.6719
  851MOL0     H14843   2.433   0.315   9.429  0.2298  1.1742 -0.6690
  851MOL0     H14844   2.455   0.150   9.432  2.0285  1.1989  3.7881
  851MOL0     H14845   2.267   0.046   9.348 -4.9762 -3.2540 -0.4541
  851MOL0     H14846   2.087  -0.050   9.386  0.6941  0.0774  1.3476
  851MOL0     H14847   1.945   0.047   9.365  0.5755  0.3642 -1.7676
  851MOL0     H14848   1.987  -0.072   9.238  1.1135 -0.5864  0.3237
  851MOL0     H14849   1.847   0.311   8.775 -0.5813  0.3333 -0.0750
  851MOL0     H14850   1.661   0.263   8.622  2.3303 -0.5619 -0.0015
  851MOL0     H14851   1.419   0.219   8.487 -1.4327  1.4233  2.5168
  851MOL0     H14852   1.535   0.092   8.534  1.0695 -0.5301 -0.0245
  851MOL0     H14853   1.239   0.064   8.551  0.8459 -1.5998  3.1029
  851MOL0     H14854   1.326   0.047   8.408  1.4820 -1.0159 -0.2513
  851MOL0     H14855   1.429  -0.109   8.650 -1.8130 -1.3448  1.5973
  851MOL0     H14856   1.420  -0.150   8.477  0.1445  0.7200  0.7210
  851MOL0     H14857   1.172  -0.185   8.514  1.1204 -1.0351 -0.5000
  851MOL0     H14858   1.282  -0.302   8.584  0.8831  0.0019 -1.1012
  851MOL0     H14859   1.171  -0.077   8.765  1.0712 -0.0130  0.8982
  851MOL0     H14860   1.252  -0.225   8.805  0.4235  2.2373  0.5817
  851MOL0     H14861   0.975  -0.215   8.691 -0.0477 -1.5548  0.1077
  851MOL0     H14862   1.081  -0.361   8.690  3.1125 -0.7413  2.3841
  851MOL0     H14863   1.065  -0.350   8.950  1.0754  0.8208  1.5893
  851MOL0     H14864   0.896  -0.343   8.872  0.4964  1.1983 -2.7085
  851MOL0     H14865   1.052  -0.093   8.970  0.5036  0.7929  0.8841
  851MOL0     H14866   0.930  -0.171   9.069 -0.4324 -2.2527 -1.0817
  851MOL0     H14867   1.410   0.181   8.952 -0.8581 -0.6781 -1.1168
  851MOL0     H14868   1.605   0.215   9.102 -0.0285  2.5244  1.0799
  851MOL0     H14869   2.085   0.354   8.989  1.3569 -1.3769 -1.1413
  851MOL0     H14870   2.326   0.369   9.073  0.1417 -2.1865 -1.0122
  851MOL0     H14871   2.824   1.109  10.764 -0.2538 -0.6583 -1.4608
  851MOL0     H14872   2.848   1.325  10.886 -0.2854  2.2389  1.0059
  851MOL0     H14873   2.385   1.750  11.042  0.0699 -1.9423 -0.0431
  851MOL0     H14874   2.406   1.998  11.099 -1.2936 -1.2485  1.0753
  851MOL0     H14875   2.751   2.220  11.006 -0.0625  0.2519  0.3299
  851MOL0     H14876   2.576   2.166  10.975 -0.6006  0.2331  0.0279
  851MOL0     H14877   2.652   2.357  11.210 -0.6910  1.7877  0.8876
  851MOL0     H14878   2.499   2.316  11.154  2.3980 -0.4411  5.6613
  851MOL0     H14879   2.525   2.441  10.949  1.3209  1.9084 -0.8486
  851MOL0     H14880   2.690   2.473  10.990  0.0798  1.5658  0.4547
  851MOL0     H14881   2.639   2.619  11.172 -0.3615  0.9766 -0.5424
  851MOL0     H14882   2.469   2.574  11.177 -0.9858  1.4892 -1.0701
  851MOL0     H14883   2.442   2.889  10.916 -3.5244 -2.1977 -1.3456
  851MOL0     H14884   2.832   1.942  11.109 -0.8675  1.1666  1.2669
  851MOL0     H14885   2.811   1.694  11.027 -0.7663 -0.8234  0.8131
  852MOL0     O14886   7.031   2.253   9.515  0.2885  0.0070 -0.2971
  852MOL0     C14887   7.143   2.205   9.506 -1.4453  0.3032 -0.0442
  852MOL0     O14888   7.187   2.104   9.416 -0.3410 -0.3633  0.2398
  852MOL0     C14889   7.089   2.029   9.354 -0.6676  0.2589  0.5287
  852MOL0     C14890   6.959   1.987   9.407 -0.1009  0.6373  0.5475
  852MOL0     C14891   6.880   1.898   9.343  0.4133 -0.7906 -0.3039
  852MOL0     C14892   6.920   1.848   9.215  0.1275  0.2652  0.0509
  852MOL0     O14893   6.838   1.779   9.127 -0.4070 -0.0636  0.8778
  852MOL0     C14894   6.711   1.723   9.169  0.1089  0.1854  1.0477
  852MOL0     C14895   6.675   1.604   9.069  0.5408  0.4000 -0.2642
  852MOL0     C14896   6.528   1.565   9.074  0.6652  0.4093  0.2521
  852MOL0     C14897   6.442   1.662   8.998  1.4693 -0.3174  1.3129
  852MOL0     C14898   6.293   1.621   8.983 -0.0793  0.1092  0.3244
  852MOL0     C14899   6.225   1.737   8.910 -0.5281 -0.0429 -0.2009
  852MOL0     C14900   6.083   1.704   8.888 -0.0534 -0.2924  0.1430
  852MOL0     C14901   5.995   1.715   9.013 -0.3767  0.8881 -0.5604
  852MOL0     N14902   5.997   1.856   9.054 -0.8233 -0.7215 -0.7962
  852MOL0     C14903   6.075   1.920   9.150 -0.1425  1.0788 -0.8916
  852MOL0     C14904   6.035   2.044   9.139 -0.0038 -0.6284 -0.2367
  852MOL0     C14905   6.082   2.166   9.222  0.1526 -0.3898 -0.3871
  852MOL0     C14906   6.160   2.268   9.135  0.5678  0.4738 -0.2538
  852MOL0     C14907   6.234   2.370   9.224  1.2817  0.5227  0.3521
  852MOL0     C14908   6.257   2.495   9.140  0.2304 -0.1542 -0.2452
  852MOL0     O14909   6.365   2.464   9.054 -0.2071 -0.1083  0.0823
  852MOL0     C14910   6.349   2.414   8.931 -0.0346 -0.0647 -0.7411
  852MOL0     C14911   6.468   2.391   8.877 -0.1541  0.9366  1.5828
  852MOL0     C14912   6.494   2.352   8.743  0.4166  0.0851  0.1638
  852MOL0     C14913   6.642   2.337   8.706 -0.0289 -0.2136 -0.4794
  852MOL0     C14914   6.384   2.345   8.652  0.0160  0.1197 -0.0252
  852MOL0     C14915   6.405   2.309   8.505  0.7277  0.3047  0.1593
  852MOL0     O14916   6.536   2.292   8.455 -0.6179  0.5912 -0.0375
  852MOL0     C14917   6.555   2.244   8.326  0.0552  0.4919  0.1614
  852MOL0     C14918   6.491   2.303   8.215  0.3439 -0.1879  0.2090
  852MOL0     C14919   6.510   2.261   8.086  0.0114  0.1684 -0.2608
  852MOL0     C14920   6.601   2.152   8.062 -0.1994 -0.0169  0.1562
  852MOL0     O14921   6.641   2.105   7.941  0.7142  0.9142  0.2333
  852MOL0     C14922   6.577   2.163   7.829  0.0853  0.7386  0.0039
  852MOL0     C14923   6.606   2.090   7.702  0.8124  0.2571  0.3334
  852MOL0     C14924   6.750   2.075   7.665  0.4409 -0.1248 -0.7634
  852MOL0     C14925   6.768   2.048   7.521  0.5189 -0.4378 -0.0021
  852MOL0     C14926   6.903   1.998   7.490 -1.0705  0.0712  0.2567
  852MOL0     C14927   7.030   2.082   7.522  0.3388 -0.8506  0.2434
  852MOL0     C14928   7.165   2.013   7.501  0.1895  0.1214  0.4066
  852MOL0     C14929   7.269   2.126   7.522  1.2729 -0.5050  0.2467
  852MOL0    Cl14930   7.442   2.051   7.530  0.2879  0.0337 -0.1412
  852MOL0     C14931   6.668   2.087   8.170  0.1982  0.4816 -0.6069
  852MOL0     C14932   6.641   2.133   8.303 -0.1220  0.4918  0.9154
  852MOL0     O14933   6.301   2.304   8.438  0.1303 -0.1037 -0.2100
  852MOL0     C14934   6.254   2.364   8.714 -0.5529  0.0615 -0.3981
  852MOL0     C14935   6.240   2.402   8.849  1.1574  0.4755  0.1693
  852MOL0     N14936   5.938   2.062   9.034 -1.1782 -0.6915 -0.0394
  852MOL0     N14937   5.918   1.950   8.984  0.0129 -0.3953 -0.1233
  852MOL0     C14938   7.043   1.887   9.177 -0.1783 -0.1903  0.2942
  852MOL0     C14939   7.125   1.976   9.235  0.6192 -0.6013  0.3845
  852MOL0     C14940   7.255   2.263   9.583 -1.0032  0.2314 -0.6902
  852MOL0     C14941   7.390   2.246   9.541  1.4049 -0.9569 -0.3596
  852MOL0     C14942   7.492   2.305   9.610 -0.3632 -0.0187 -0.4114
  852MOL0     C14943   7.468   2.385   9.719  0.2017 -0.7205  0.4504
  852MOL0     O14944   7.575   2.423   9.794  0.0571  0.2523 -0.6492
  852MOL0     C14945   7.564   2.384   9.934  0.1475  0.3413  0.2779
  852MOL0     C14946   7.701   2.364   9.996  0.5117  0.3914  0.6136
  852MOL0     C14947   7.784   2.487   9.994  0.0357  0.0214  0.0790
  852MOL0     C14948   7.727   2.606  10.084  0.2386 -0.0268  0.1051
  852MOL0     C14949   7.831   2.708  10.079  0.5542 -0.2923 -0.1729
  852MOL0     C14950   7.916   2.795  10.076  0.1652  0.4772 -0.2355
  852MOL0     C14951   7.341   2.396   9.763 -0.2222 -0.5074  0.4897
  852MOL0     C14952   7.237   2.331   9.703  0.2005  0.3208  0.0079
  852MOL0     H14953   6.932   2.026   9.504  0.5834  0.6066  0.7560
  852MOL0     H14954   6.777   1.884   9.375  0.5805  0.2271  0.7281
  852MOL0     H14955   6.709   1.689   9.273  0.3850  3.9486  2.4438
  852MOL0     H14956   6.630   1.796   9.165 -0.7331 -0.7647 -1.5607
  852MOL0     H14957   6.703   1.637   8.968 -0.9013  1.3293 -0.3958
  852MOL0     H14958   6.741   1.518   9.070  1.9390  1.4483  0.8784
  852MOL0     H14959   6.522   1.459   9.048  2.8965 -0.5975  3.2679
  852MOL0     H14960   6.488   1.573   9.176 -0.9690  0.7596 -0.3904
  852MOL0     H14961   6.453   1.763   9.038  2.6264  0.5738 -1.0201
  852MOL0     H14962   6.480   1.668   8.895  0.6631  0.2872  1.0371
  852MOL0     H14963   6.283   1.533   8.919 -0.3441  1.3190 -1.3960
  852MOL0     H14964   6.253   1.608   9.084  0.7916  0.5471  0.7343
  852MOL0     H14965   6.242   1.831   8.964  0.6906  0.3240 -1.1913
  852MOL0     H14966   6.278   1.750   8.816 -1.8552 -0.6255 -1.0602
  852MOL0     H14967   6.047   1.773   8.811  0.9498 -2.1921 -2.1319
  852MOL0     H14968   6.076   1.602   8.848 -3.9219  0.4095 -1.4282
  852MOL0     H14969   6.030   1.655   9.098  0.4995  0.3489 -1.2858
  852MOL0     H14970   5.895   1.685   8.979 -2.1621  1.6781  3.3853
  852MOL0     H14971   6.138   1.868   9.222 -2.3766  0.2904  0.6101
  852MOL0     H14972   5.995   2.217   9.265  1.8489  3.4550 -1.1320
  852MOL0     H14973   6.144   2.154   9.311 -2.3396 -0.1200  1.4920
  852MOL0     H14974   6.088   2.312   9.066  0.8205  1.2520 -0.0311
  852MOL0     H14975   6.237   2.227   9.068  1.6262 -0.4040  1.4274
  852MOL0     H14976   6.334   2.341   9.259  1.0185  0.4028  1.0143
  852MOL0     H14977   6.172   2.405   9.307  2.4180  2.8302  0.3240
  852MOL0     H14978   6.270   2.575   9.213 -2.3177  1.9842 -1.9160
  852MOL0     H14979   6.167   2.529   9.086 -0.4484  0.7060  1.3663
  852MOL0     H14980   6.555   2.405   8.942  1.5722  2.4359 -0.8608
  852MOL0     H14981   6.658   2.247   8.644 -2.3125 -0.6035 -0.5682
  852MOL0     H14982   6.684   2.415   8.641  0.5943 -1.2753 -1.4100
  852MOL0     H14983   6.714   2.326   8.788  1.4620  0.4809 -1.6504
  852MOL0     H14984   6.417   2.382   8.223 -0.2814 -0.9204  2.2877
  852MOL0     H14985   6.469   2.317   8.003  1.6106  0.8013 -0.6726
  852MOL0     H14986   6.468   2.165   7.844 -0.0640 -0.5040 -0.7376
  852MOL0     H14987   6.610   2.266   7.821 -1.4052  1.4130  1.8099
  852MOL0     H14988   6.573   1.986   7.701 -1.6911  0.9753 -1.5975
  852MOL0     H14989   6.563   2.148   7.620  3.7504 -0.3553 -1.8513
  852MOL0     H14990   6.807   2.003   7.724 -0.9211  0.5825  1.5806
  852MOL0     H14991   6.788   2.175   7.691 -0.1587 -0.6002  2.4612
  852MOL0     H14992   6.688   1.977   7.496  1.4669 -2.1588  1.5912
  852MOL0     H14993   6.760   2.146   7.473  0.3055  1.0232  2.8457
  852MOL0     H14994   6.900   1.982   7.382 -4.4945 -0.4792  0.3213
  852MOL0     H14995   6.906   1.896   7.531  1.5320 -0.1186 -0.1777
  852MOL0     H14996   7.027   2.172   7.460 -3.3114 -0.1977  1.1520
  852MOL0     H14997   7.017   2.121   7.623 -1.1633 -1.1486  0.1933
  852MOL0     H14998   7.165   1.950   7.412  0.1873 -2.5479  2.1960
  852MOL0     H14999   7.174   1.933   7.575  0.9481 -1.3703 -1.2547
  852MOL0     H15000   7.258   2.179   7.617 -2.4961  2.1772 -1.4706
  852MOL0     H15001   7.261   2.198   7.440  1.6796 -0.1425  0.5200
  852MOL0     H15002   6.728   1.998   8.157 -1.7284 -0.8403 -0.9089
  852MOL0     H15003   6.676   2.073   8.386  0.8707 -1.6857 -0.9658
  852MOL0     H15004   6.159   2.351   8.663 -1.1382 -3.3459  1.2728
  852MOL0     H15005   6.137   2.422   8.877  1.1403 -0.8132  1.0769
  852MOL0     H15006   7.074   1.842   9.083 -0.8642 -0.3794  0.1527
  852MOL0     H15007   7.225   1.986   9.194  0.1498 -0.7500 -0.8480
  852MOL0     H15008   7.402   2.170   9.464  1.5624 -0.7530 -0.5376
  852MOL0     H15009   7.596   2.296   9.581  0.0546  0.7879  0.7803
  852MOL0     H15010   7.500   2.444   9.999  1.9623  2.5394  0.1820
  852MOL0     H15011   7.521   2.283   9.929  1.8168 -0.3493 -2.9779
  852MOL0     H15012   7.753   2.282   9.946 -0.4069  0.5727 -0.6908
  852MOL0     H15013   7.691   2.341  10.103 -6.0758 -0.9487  0.1028
  852MOL0     H15014   7.780   2.535   9.896 -0.4727  0.6501  0.3987
  852MOL0     H15015   7.880   2.446  10.024  0.6150 -1.0456 -2.9152
  852MOL0     H15016   7.700   2.577  10.186  0.0741  1.4119  0.4923
  852MOL0     H15017   7.636   2.646  10.038 -0.3360  2.2031  2.8453
  852MOL0     H15018   7.994   2.869  10.076  2.2376 -1.5905 -1.6452
  852MOL0     H15019   7.325   2.461   9.848  0.8613  1.3694 -0.6705
  852MOL0     H15020   7.134   2.330   9.735 -0.2142  1.4602 -1.1806
  853MOL0     O15021   7.648   7.115   5.441  0.9211  0.6196  0.8503
  853MOL0     C15022   7.580   7.203   5.389  0.3395 -0.6605  0.0839
  853MOL0     O15023   7.451   7.242   5.422 -0.2256  0.0825  0.2894
  853MOL0     C15024   7.379   7.169   5.512 -0.0843  0.1219 -0.1819
  853MOL0     C15025   7.423   7.161   5.646  0.1836 -0.0131  0.6634
  853MOL0     C15026   7.359   7.080   5.739  0.1579 -0.5315 -0.1581
  853MOL0     C15027   7.243   7.015   5.701  0.7465  0.6363 -0.1047
  853MOL0     O15028   7.163   6.943   5.795  0.9949 -0.4765 -0.2360
  853MOL0     C15029   7.231   6.873   5.896  0.8070  0.8308  0.5263
  853MOL0     C15030   7.125   6.779   5.969  0.0988 -0.1846  0.8990
  853MOL0     C15031   7.039   6.694   5.878  0.7173 -0.0207 -0.2525
  853MOL0     C15032   7.117   6.599   5.783 -0.3765 -0.6576  0.3622
  853MOL0     C15033   7.027   6.526   5.691  0.0001  0.8857  0.2582
  853MOL0     C15034   6.986   6.620   5.569  0.3099  0.6935 -0.0870
  853MOL0     C15035   6.888   6.545   5.470 -0.2889  0.3642 -0.3297
  853MOL0     C15036   6.868   6.611   5.320  0.1956 -0.6210 -0.3561
  853MOL0     N15037   6.788   6.738   5.324  0.2380 -0.0612  0.2444
  853MOL0     C15038   6.811   6.839   5.240  0.5484  0.1667 -0.6174
  853MOL0     C15039   6.738   6.941   5.283 -1.0922 -0.1616 -1.1192
  853MOL0     C15040   6.714   7.081   5.219 -0.2348 -0.9202  1.0217
  853MOL0     C15041   6.647   7.054   5.081  0.1456 -0.4721 -0.6276
  853MOL0     C15042   6.576   7.180   5.039  0.5232  0.6118 -0.1564
  853MOL0     C15043   6.490   7.189   4.914 -0.8064  0.1884  0.1164
  853MOL0     O15044   6.573   7.185   4.800 -0.0045  0.3126  1.0162
  853MOL0     C15045   6.577   7.299   4.736 -0.3658 -0.3558 -0.0765
  853MOL0     C15046   6.694   7.382   4.725  0.6844 -0.3287 -0.0448
  853MOL0     C15047   6.688   7.506   4.649  0.1745  0.4251  0.5127
  853MOL0     C15048   6.815   7.583   4.643  0.5373 -0.0442  0.4110
  853MOL0     C15049   6.562   7.544   4.593 -0.2057  0.3410  0.8055
  853MOL0     C15050   6.549   7.681   4.521 -0.1174  0.5460  0.5205
  853MOL0     O15051   6.466   7.684   4.412  0.6933 -0.5887  0.4792
  853MOL0     C15052   6.478   7.793   4.327  0.0983 -0.8236  0.1663
  853MOL0     C15053   6.380   7.889   4.342  0.0260 -0.4889  1.0719
  853MOL0     C15054   6.392   8.012   4.266  0.3880  0.2353 -0.6992
  853MOL0     C15055   6.488   8.016   4.159 -0.5930 -0.1216  1.0595
  853MOL0     O15056   6.514   8.141   4.101  0.3620 -0.6993  1.0008
  853MOL0     C15057   6.450   8.147   3.973  0.3048 -0.0939 -0.1595
  853MOL0     C15058   6.439   8.285   3.927 -0.4282 -0.3346  0.3619
  853MOL0     C15059   6.390   8.287   3.777  0.2992 -0.5826  0.1445
  853MOL0     C15060   6.341   8.427   3.725 -0.7985  0.8649 -0.5787
  853MOL0     C15061   6.323   8.412   3.574  0.4058  0.3966 -0.3977
  853MOL0     C15062   6.206   8.513   3.541 -0.9639 -0.4401 -0.0586
  853MOL0     C15063   6.172   8.512   3.391 -0.3998 -1.2332 -0.4753
  853MOL0     C15064   6.051   8.592   3.357  0.2353 -0.0087  0.5685
  853MOL0    Cl15065   6.048   8.750   3.434  0.3117 -0.2452 -0.0503
  853MOL0     C15066   6.574   7.908   4.138  1.1567  1.2266 -0.2343
  853MOL0     C15067   6.572   7.799   4.222  0.8047  0.5923 -0.0649
  853MOL0     O15068   6.620   7.774   4.553  0.3870  0.1219  0.4197
  853MOL0     C15069   6.453   7.452   4.588  0.2380 -0.3766 -0.4615
  853MOL0     C15070   6.467   7.333   4.662 -0.0307 -0.0432  0.1772
  853MOL0     N15071   6.677   6.900   5.406  0.4310 -1.0220  0.7945
  853MOL0     N15072   6.712   6.778   5.434  0.0157  0.4701 -0.2369
  853MOL0     C15073   7.184   7.044   5.571  0.0214 -0.2267 -0.4818
  853MOL0     C15074   7.252   7.115   5.477  0.0191 -0.4399  0.7361
  853MOL0     C15075   7.650   7.277   5.288 -0.3255  0.3108 -0.0830
  853MOL0     C15076   7.618   7.408   5.269 -0.5071  0.2554  0.5069
  853MOL0     C15077   7.677   7.495   5.183 -0.3760 -0.3293 -0.2667
  853MOL0     C15078   7.778   7.449   5.094  0.1016  0.7252 -0.6183
  853MOL0     O15079   7.836   7.542   5.017  0.4864  0.3066  0.2978
  853MOL0     C15080   7.935   7.496   4.924  0.6527  0.6357 -0.1931
  853MOL0     C15081   7.961   7.613   4.824  0.0807 -0.7254  0.0213
  853MOL0     C15082   8.031   7.731   4.908  0.1475  0.0428 -0.0617
  853MOL0     C15083   8.089   7.834   4.808 -0.4468  0.1992 -0.7072
  853MOL0     C15084   8.088   7.960   4.872 -1.4673 -0.9842 -0.6246
  853MOL0     C15085   8.087   8.058   4.945  0.4075 -1.0475 -0.5145
  853MOL0     C15086   7.816   7.309   5.106 -0.5125 -0.6888  0.1372
  853MOL0     C15087   7.752   7.225   5.200  0.6023  0.1330  0.0735
  853MOL0     H15088   7.510   7.219   5.674 -0.1207  0.5160  0.5240
  853MOL0     H15089   7.389   7.078   5.843 -3.2630  0.9379  0.9991
  853MOL0     H15090   7.312   6.818   5.849  2.0605  0.6511  2.7790
  853MOL0     H15091   7.273   6.937   5.974  2.0264 -1.1250  1.5383
  853MOL0     H15092   7.176   6.718   6.044  2.0283  0.1753 -0.0567
  853MOL0     H15093   7.049   6.838   6.021 -1.6769 -2.3987  0.9825
  853MOL0     H15094   6.966   6.644   5.943 -0.0875 -0.3306 -1.3706
  853MOL0     H15095   6.985   6.767   5.818 -0.4516 -0.8436 -0.2542
  853MOL0     H15096   7.184   6.664   5.727 -0.4191  2.5112  3.5941
  853MOL0     H15097   7.181   6.527   5.835 -1.3086 -0.7129  1.4842
  853MOL0     H15098   7.091   6.445   5.655 -1.0008 -0.1071  0.6528
  853MOL0     H15099   6.937   6.489   5.742  0.1620 -3.3774 -2.0597
  853MOL0     H15100   6.929   6.696   5.622  0.2102  0.1472  0.6051
  853MOL0     H15101   7.081   6.653   5.525  1.1973 -0.4080  0.9473
  853MOL0     H15102   6.929   6.444   5.455 -0.8411 -0.2783  2.1024
  853MOL0     H15103   6.790   6.529   5.516 -1.7743 -0.3638 -3.4664
  853MOL0     H15104   6.816   6.541   5.253 -1.1973 -0.0765  0.1333
  853MOL0     H15105   6.963   6.635   5.272 -0.4474  1.6569 -0.5669
  853MOL0     H15106   6.869   6.842   5.148  2.1431 -1.7887  0.2524
  853MOL0     H15107   6.645   7.140   5.280  0.4113  2.4305 -1.2886
  853MOL0     H15108   6.807   7.139   5.218 -1.4454  1.0856 -0.1369
  853MOL0     H15109   6.563   6.989   5.108  0.8036 -1.3448 -0.6075
  853MOL0     H15110   6.721   7.006   5.015  2.1297  3.0859 -1.2189
  853MOL0     H15111   6.644   7.265   5.034  0.7793  0.6039  2.0756
  853MOL0     H15112   6.513   7.194   5.127  1.0402 -2.6342  0.9079
  853MOL0     H15113   6.425   7.276   4.926  0.0086  0.4413  3.6396
  853MOL0     H15114   6.418   7.106   4.914 -2.0530  1.2360  0.0070
  853MOL0     H15115   6.784   7.361   4.782  1.6532  0.4050 -1.2732
  853MOL0     H15116   6.827   7.631   4.545 -1.9370 -0.3138 -0.0738
  853MOL0     H15117   6.807   7.660   4.720 -0.8863 -0.0578  0.3044
  853MOL0     H15118   6.900   7.516   4.660  0.4676 -0.4835 -0.8031
  853MOL0     H15119   6.304   7.881   4.420 -1.7190  0.2894 -0.4695
  853MOL0     H15120   6.334   8.096   4.305  2.1669  1.1442  0.1107
  853MOL0     H15121   6.519   8.102   3.902 -2.9118  0.7889 -4.2815
  853MOL0     H15122   6.354   8.096   3.955  2.0848 -4.0934  0.6027
  853MOL0     H15123   6.363   8.331   3.991  1.2880  2.5723  0.4503
  853MOL0     H15124   6.534   8.337   3.938 -0.4745 -0.3033  0.6179
  853MOL0     H15125   6.316   8.208   3.759 -2.1282  1.8415 -1.4499
  853MOL0     H15126   6.470   8.261   3.708 -0.9539 -0.0466 -1.6025
  853MOL0     H15127   6.245   8.442   3.775  0.1508  2.9847  0.7149
  853MOL0     H15128   6.411   8.507   3.751  2.5106 -0.7929 -3.4045
  853MOL0     H15129   6.295   8.308   3.550  3.2615 -0.1091 -1.8693
  853MOL0     H15130   6.409   8.422   3.508  0.1135 -1.4337 -1.1406
  853MOL0     H15131   6.113   8.494   3.595 -2.0594  5.9722  1.1117
  853MOL0     H15132   6.233   8.611   3.581 -1.3922 -1.5053  3.0969
  853MOL0     H15133   6.148   8.411   3.357 -1.9493 -0.8680 -0.5437
  853MOL0     H15134   6.262   8.548   3.340 -0.0680 -2.3646 -0.7000
  853MOL0     H15135   5.967   8.532   3.394 -0.2101  0.0599 -0.2945
  853MOL0     H15136   6.034   8.589   3.249 -0.0925 -3.1360  0.6064
  853MOL0     H15137   6.663   7.906   4.076  0.7339 -1.8305 -0.9172
  853MOL0     H15138   6.646   7.720   4.215  1.1600  1.0034 -1.2357
  853MOL0     H15139   6.360   7.462   4.533 -0.0977  0.6163  0.2561
  853MOL0     H15140   6.385   7.261   4.660  1.7073 -2.1184  0.5505
  853MOL0     H15141   7.082   7.008   5.562 -1.4888  3.3333  0.5796
  853MOL0     H15142   7.213   7.121   5.376  0.8171 -1.5391  0.3456
  853MOL0     H15143   7.554   7.460   5.340 -2.5414  0.2360 -1.2025
  853MOL0     H15144   7.665   7.602   5.187  2.9022  0.0994  1.1656
  853MOL0     H15145   8.027   7.453   4.964  0.4496  0.0969 -0.2970
  853MOL0     H15146   7.887   7.411   4.875  0.2699 -0.2237  1.5854
  853MOL0     H15147   7.870   7.651   4.775  1.3702 -1.2917 -3.0846
  853MOL0     H15148   8.029   7.570   4.749 -0.8051 -2.6599  0.2756
  853MOL0     H15149   8.113   7.686   4.965  2.0301  0.7508 -2.0632
  853MOL0     H15150   7.959   7.771   4.979  0.8317  0.0045  0.6673
  853MOL0     H15151   8.016   7.836   4.726 -0.9093 -1.2168 -0.3639
  853MOL0     H15152   8.179   7.798   4.758 -0.1766  0.0565 -0.1186
  853MOL0     H15153   8.072   8.142   5.011  1.1402 -1.1287 -0.2412
  853MOL0     H15154   7.888   7.268   5.036  1.5847  1.5255  0.8494
  853MOL0     H15155   7.783   7.122   5.211 -0.4768 -0.4068 -1.7310
  854MOL0     O15156   9.068   3.184   6.881 -1.0316 -0.2042 -0.9068
  854MOL0     C15157   9.070   3.190   7.005  0.4984 -0.2041 -0.2289
  854MOL0     O15158   9.177   3.168   7.084 -0.0406 -0.4326  0.3538
  854MOL0     C15159   9.305   3.192   7.039  0.5568  0.5631  0.0839
  854MOL0     C15160   9.353   3.127   6.923 -0.4612  0.0193 -0.8667
  854MOL0     C15161   9.488   3.148   6.883  0.2888  1.0939  0.3504
  854MOL0     C15162   9.568   3.230   6.961 -0.2694 -0.3937 -0.9524
  854MOL0     O15163   9.695   3.255   6.924 -0.3735 -0.1203  0.9042
  854MOL0     C15164   9.768   3.142   6.875 -0.4659  0.2031  0.5580
  854MOL0     C15165   9.922   3.158   6.880  0.7545 -0.2316  0.0706
  854MOL0     C15166   9.963   3.174   7.022 -0.4585  0.6761  0.1946
  854MOL0     C15167  10.111   3.219   7.022  0.5309 -0.2287 -0.1901
  854MOL0     C15168  10.164   3.223   7.161  0.0089  0.1937  0.4908
  854MOL0     C15169  10.294   3.312   7.155  0.5100  0.7228 -0.4410
  854MOL0     C15170  10.410   3.274   7.244 -0.2486  0.4967 -1.0193
  854MOL0     C15171  10.446   3.128   7.265 -0.8735  0.2679 -0.1812
  854MOL0     N15172  10.574   3.107   7.332 -0.3128  0.7116 -1.0358
  854MOL0     C15173  10.607   3.155   7.443 -0.2454  0.9089 -0.5706
  854MOL0     C15174  10.734   3.120   7.464 -0.1970 -0.8667  0.6218
  854MOL0     C15175  10.819   3.168   7.578 -0.4216  0.7499 -0.0607
  854MOL0     C15176  10.957   3.193   7.527  0.1712 -0.4251 -0.5956
  854MOL0     C15177  11.044   3.228   7.649  0.1593 -0.2583  0.0152
  854MOL0     C15178  11.192   3.229   7.610  0.8403 -0.1709  0.1260
  854MOL0     O15179  11.228   3.306   7.494 -0.5572  0.3813 -0.0262
  854MOL0     C15180  11.361   3.317   7.468  0.7075 -0.0062  1.0358
  854MOL0     C15181  11.386   3.424   7.377  0.4904  0.7337  0.2145
  854MOL0     C15182  11.515   3.465   7.353 -0.3116  0.1935 -0.7114
  854MOL0     C15183  11.526   3.589   7.265  0.4676  0.9482 -0.6039
  854MOL0     C15184  11.627   3.402   7.424 -0.3539 -0.2609  0.8602
  854MOL0     C15185  11.768   3.454   7.402 -0.7783 -0.5013 -0.8910
  854MOL0     O15186  11.865   3.371   7.448  0.0011 -0.2054 -0.0781
  854MOL0     C15187  11.999   3.411   7.450  0.2720 -0.8321  0.5003
  854MOL0     C15188  12.078   3.401   7.562  0.5243  0.8185 -0.6115
  854MOL0     C15189  12.210   3.441   7.574 -0.0583  0.0211 -0.1728
  854MOL0     C15190  12.274   3.493   7.459 -0.1583  0.5820  0.0592
  854MOL0     O15191  12.416   3.525   7.468  0.8122 -0.0077 -0.5659
  854MOL0     C15192  12.492   3.585   7.360  0.3501 -0.7237 -0.3975
  854MOL0     C15193  12.597   3.673   7.422 -0.1895 -0.1103 -0.7070
  854MOL0     C15194  12.707   3.706   7.313 -0.3744  0.0884 -0.7074
  854MOL0     C15195  12.670   3.824   7.219 -0.2377 -0.5555  0.2160
  854MOL0     C15196  12.785   3.920   7.175  0.3634  0.3554 -0.5035
  854MOL0     C15197  12.735   4.058   7.137  0.5017 -0.0104 -0.6425
  854MOL0     C15198  12.818   4.129   7.034  0.5841 -0.8227 -0.4393
  854MOL0     C15199  12.947   4.181   7.101  0.5040 -0.2526  0.6266
  854MOL0    Cl15200  13.061   4.053   7.131  0.2462  0.2897 -0.0342
  854MOL0     C15201  12.211   3.484   7.337  0.5323  0.3183 -0.5718
  854MOL0     C15202  12.076   3.450   7.333 -0.8573 -0.0879 -1.4208
  854MOL0     O15203  11.784   3.570   7.366 -0.4302  0.4945  0.5940
  854MOL0     C15204  11.591   3.293   7.505 -0.6002  0.6849 -0.4289
  854MOL0     C15205  11.465   3.250   7.527  0.6548 -0.4171 -0.5892
  854MOL0     N15206  10.777   3.053   7.353  0.7787  0.6947  0.3545
  854MOL0     N15207  10.676   3.041   7.275 -0.3643 -1.3530  0.4597
  854MOL0     C15208   9.521   3.292   7.083  0.0192  0.5989  0.3368
  854MOL0     C15209   9.390   3.271   7.120  0.9372 -0.7980 -0.3167
  854MOL0     C15210   8.943   3.213   7.078 -0.6736  0.3572  0.6260
  854MOL0     C15211   8.933   3.255   7.210 -0.0171 -0.0672 -0.0148
  854MOL0     C15212   8.808   3.286   7.265 -0.4294 -0.3196  0.2924
  854MOL0     C15213   8.696   3.284   7.188 -0.0512 -0.6137 -0.9076
  854MOL0     O15214   8.561   3.284   7.245  0.0343  0.2370 -0.0361
  854MOL0     C15215   8.555   3.297   7.386  0.7762  0.0514 -0.1434
  854MOL0     C15216   8.405   3.308   7.432 -0.7129 -0.1532 -0.2124
  854MOL0     C15217   8.312   3.211   7.359 -1.0675 -0.1752 -1.4172
  854MOL0     C15218   8.349   3.064   7.364  0.5219  0.0226 -1.2277
  854MOL0     C15219   8.240   2.982   7.306 -0.7882  0.2039 -0.0878
  854MOL0     C15220   8.163   2.902   7.245 -0.0666 -0.4945 -0.2077
  854MOL0     C15221   8.704   3.248   7.064 -0.2173 -0.2938  1.1089
  854MOL0     C15222   8.822   3.214   7.007 -0.6425  0.0982 -0.2998
  854MOL0     H15223   9.294   3.063   6.859 -0.4242 -2.2619  1.2318
  854MOL0     H15224   9.529   3.105   6.792 -0.7870 -0.2328  0.4677
  854MOL0     H15225   9.746   3.052   6.933  0.6422 -0.4884 -0.0453
  854MOL0     H15226   9.734   3.122   6.772 -1.7142  1.8998  0.5928
  854MOL0     H15227   9.972   3.071   6.837  1.7340  1.3008 -2.0777
  854MOL0     H15228   9.943   3.243   6.815  2.0482 -1.2979 -0.9471
  854MOL0     H15229   9.906   3.251   7.075  0.9762  1.3522  0.8171
  854MOL0     H15230   9.951   3.079   7.073 -1.5277  0.5620 -0.2498
  854MOL0     H15231  10.163   3.145   6.960  1.0172 -0.4193  0.4448
  854MOL0     H15232  10.109   3.319   6.977 -0.7590  0.9545  2.3348
  854MOL0     H15233  10.086   3.256   7.230 -0.5861 -0.6455  0.2368
  854MOL0     H15234  10.198   3.124   7.195  1.7313 -0.3067 -2.3732
  854MOL0     H15235  10.331   3.315   7.052 -0.2654  2.4039 -0.6984
  854MOL0     H15236  10.269   3.416   7.177  1.3892  0.4436  2.3044
  854MOL0     H15237  10.500   3.329   7.214  1.3945 -1.6539 -0.3739
  854MOL0     H15238  10.373   3.309   7.341 -0.0936 -1.1353 -0.3308
  854MOL0     H15239  10.450   3.069   7.172 -2.4245 -1.3423  0.6968
  854MOL0     H15240  10.377   3.087   7.339  2.7359 -0.5401  3.0479
  854MOL0     H15241  10.538   3.213   7.504  0.1132  1.8021 -0.9996
  854MOL0     H15242  10.764   3.255   7.614 -2.0029  1.1847 -3.1549
  854MOL0     H15243  10.814   3.082   7.645  0.1193 -0.0096 -0.9679
  854MOL0     H15244  10.946   3.268   7.449 -1.3427 -1.6001 -1.5695
  854MOL0     H15245  11.006   3.104   7.485  0.9617 -0.9159  1.2420
  854MOL0     H15246  11.037   3.149   7.724 -0.1040 -0.7107 -0.4809
  854MOL0     H15247  11.004   3.317   7.698 -2.4474 -0.8794 -0.7956
  854MOL0     H15248  11.217   3.126   7.584 -1.7578 -0.5604 -1.1974
  854MOL0     H15249  11.247   3.276   7.692  0.7343  1.7904 -0.8673
  854MOL0     H15250  11.305   3.462   7.315 -0.7051 -2.1339 -0.1362
  854MOL0     H15251  11.579   3.564   7.172  1.9194  0.2604  0.3695
  854MOL0     H15252  11.425   3.625   7.241  0.4827  3.3322  2.3662
  854MOL0     H15253  11.571   3.671   7.321 -1.8403  2.5840 -0.9912
  854MOL0     H15254  12.021   3.354   7.641 -0.4984  0.2415 -1.6723
  854MOL0     H15255  12.267   3.432   7.666  0.1337  0.7070 -0.2192
  854MOL0     H15256  12.533   3.511   7.290  0.7412 -0.3172 -0.6019
  854MOL0     H15257  12.419   3.640   7.299 -0.5248 -2.0052 -0.5440
  854MOL0     H15258  12.553   3.760   7.471  1.9462  0.0456  1.0867
  854MOL0     H15259  12.638   3.624   7.511 -2.0043  2.4307  1.6685
  854MOL0     H15260  12.719   3.615   7.254 -0.4731 -1.2734  1.3033
  854MOL0     H15261  12.803   3.727   7.361 -0.1793 -0.2545 -0.9414
  854MOL0     H15262  12.620   3.781   7.131 -0.6442  0.7445 -0.2119
  854MOL0     H15263  12.600   3.878   7.282  1.9491 -0.0036  2.2971
  854MOL0     H15264  12.832   3.872   7.088  0.9163  0.8517 -0.4877
  854MOL0     H15265  12.870   3.911   7.243  0.8996 -1.2178 -1.3273
  854MOL0     H15266  12.634   4.058   7.094  0.4476 -2.2193 -0.6390
  854MOL0     H15267  12.728   4.122   7.225 -1.6972  2.1485 -2.2519
  854MOL0     H15268  12.766   4.217   6.996  1.2777  0.6153  1.7752
  854MOL0     H15269  12.822   4.072   6.941 -2.0470  0.6467 -1.5876
  854MOL0     H15270  12.916   4.251   7.179 -0.6045  1.5410 -1.3089
  854MOL0     H15271  13.003   4.245   7.032  0.7561  0.9613  1.9165
  854MOL0     H15272  12.249   3.502   7.237  0.0518  0.5965 -0.7105
  854MOL0     H15273  12.021   3.458   7.239 -0.6480  0.3054 -1.5110
  854MOL0     H15274  11.672   3.241   7.555 -1.3119  0.4669  0.5219
  854MOL0     H15275  11.448   3.163   7.590 -0.2557 -0.9989 -1.6063
  854MOL0     H15276   9.587   3.341   7.154 -1.8198 -1.1505  3.4566
  854MOL0     H15277   9.349   3.320   7.207 -0.8778 -2.3844 -0.2263
  854MOL0     H15278   9.014   3.260   7.282  0.4358  3.5068 -0.5793
  854MOL0     H15279   8.799   3.318   7.369  1.1038 -0.7358  0.5822
  854MOL0     H15280   8.601   3.206   7.425  1.7555 -0.3932 -2.2069
  854MOL0     H15281   8.606   3.390   7.412 -0.8335  1.2844 -1.1650
  854MOL0     H15282   8.375   3.411   7.410 -1.0198 -0.1716  0.1034
  854MOL0     H15283   8.401   3.303   7.541  3.9112  1.0957  0.2200
  854MOL0     H15284   8.298   3.253   7.258  0.3530 -0.6752 -1.8511
  854MOL0     H15285   8.217   3.216   7.413  0.8716  4.0891  2.1365
  854MOL0     H15286   8.376   3.040   7.467 -0.8443  2.0746 -0.3230
  854MOL0     H15287   8.433   3.038   7.298  0.1305 -0.2571 -1.6222
  854MOL0     H15288   8.105   2.834   7.187 -1.7201  0.3724  0.3632
  854MOL0     H15289   8.610   3.261   7.012  0.9360  1.6748 -0.6683
  854MOL0     H15290   8.813   3.185   6.902 -2.0982  0.0743 -0.1771
  855MOL0     O15291   5.324   2.379   3.590 -0.3655 -0.4061  0.9521
  855MOL0     C15292   5.339   2.255   3.607 -0.6268 -0.4772  0.9929
  855MOL0     O15293   5.464   2.197   3.621  0.0183 -0.8882  0.2796
  855MOL0     C15294   5.574   2.281   3.645  0.8292  0.1839  0.5205
  855MOL0     C15295   5.667   2.299   3.539  0.7536  0.4592  0.2819
  855MOL0     C15296   5.773   2.386   3.556 -0.5768  0.1562  0.2016
  855MOL0     C15297   5.809   2.432   3.684  0.7730 -0.7759  0.5678
  855MOL0     O15298   5.924   2.510   3.694  0.1797  0.0177  0.1949
  855MOL0     C15299   5.895   2.646   3.695 -0.0311 -0.2177 -1.0084
  855MOL0     C15300   5.989   2.728   3.763 -0.6539 -0.5185 -1.3923
  855MOL0     C15301   6.123   2.729   3.693  0.5237 -0.5848 -0.2440
  855MOL0     C15302   6.216   2.844   3.746  0.5236 -0.9413 -0.2402
  855MOL0     C15303   6.276   2.921   3.632 -0.8659  0.0625 -0.4524
  855MOL0     C15304   6.404   2.994   3.681  0.3803 -0.0894 -0.6818
  855MOL0     C15305   6.457   3.096   3.577 -0.1917 -0.3616 -0.1383
  855MOL0     C15306   6.613   3.096   3.570  0.0788  0.4355  0.2328
  855MOL0     N15307   6.661   3.224   3.506  0.4623 -0.4283  0.7242
  855MOL0     C15308   6.589   3.348   3.503  0.0880 -0.0511  0.4297
  855MOL0     C15309   6.684   3.443   3.482  0.1616  0.3146 -0.3691
  855MOL0     C15310   6.651   3.594   3.465  0.3920  1.1017 -0.4828
  855MOL0     C15311   6.558   3.653   3.571 -0.1784  0.7160  0.2688
  855MOL0     C15312   6.550   3.808   3.588 -0.0113  1.1046  0.9624
  855MOL0     C15313   6.511   3.875   3.454  0.4376  0.4610 -0.4924
  855MOL0     O15314   6.417   3.993   3.473  0.4766 -0.1720  0.4019
  855MOL0     C15315   6.280   3.974   3.490 -0.0133  1.3704 -0.7019
  855MOL0     C15316   6.207   4.080   3.544 -0.1720 -0.3424 -0.0144
  855MOL0     C15317   6.067   4.075   3.567 -0.4621 -0.2718 -0.6944
  855MOL0     C15318   5.991   4.189   3.629 -0.6208 -0.0845 -0.5429
  855MOL0     C15319   6.006   3.949   3.553  0.8536 -0.0676  0.2583
  855MOL0     C15320   5.863   3.915   3.573  0.3932  0.6918  0.6054
  855MOL0     O15321   5.778   4.016   3.584  0.1244 -0.3534 -0.1281
  855MOL0     C15322   5.648   3.992   3.580  0.8629 -0.1777 -0.1862
  855MOL0     C15323   5.573   3.898   3.650 -1.2064  0.3496  0.3508
  855MOL0     C15324   5.436   3.885   3.620  0.3803 -0.0312  0.0216
  855MOL0     C15325   5.376   3.959   3.517 -0.7922 -0.5961  0.2118
  855MOL0     O15326   5.250   3.944   3.458  0.5879  0.2739 -0.8503
  855MOL0     C15327   5.164   3.834   3.490 -0.1837 -0.9093 -0.2356
  855MOL0     C15328   5.080   3.863   3.611  0.5205 -0.1218  0.2396
  855MOL0     C15329   4.973   3.756   3.634 -0.4102 -0.7206  0.2626
  855MOL0     C15330   5.027   3.631   3.714  0.2542  0.1668 -0.0105
  855MOL0     C15331   5.006   3.642   3.863  0.0968 -0.0433 -0.1855
  855MOL0     C15332   4.977   3.501   3.932  0.0590 -0.7703  0.3766
  855MOL0     C15333   4.975   3.505   4.086 -0.1814 -0.2716  0.4303
  855MOL0     C15334   4.884   3.408   4.153  0.4169 -0.0589 -0.4633
  855MOL0    Cl15335   4.929   3.232   4.132  0.6259  0.2589  0.2094
  855MOL0     C15336   5.458   4.044   3.445  0.5225 -0.5335 -0.9906
  855MOL0     C15337   5.589   4.066   3.483  1.3012 -0.1472 -0.2593
  855MOL0     O15338   5.823   3.805   3.548 -0.0099  0.8804 -0.7041
  855MOL0     C15339   6.083   3.833   3.527 -1.0307  0.8874 -0.3922
  855MOL0     C15340   6.222   3.844   3.489  1.0482  0.0240  0.2195
  855MOL0     N15341   6.803   3.378   3.459 -0.0971 -0.4250 -0.3658
  855MOL0     N15342   6.792   3.251   3.481 -0.4263 -0.9845 -0.9803
  855MOL0     C15343   5.724   2.408   3.790 -0.0609  0.2920  0.2310
  855MOL0     C15344   5.603   2.340   3.769  0.2122 -0.5543  1.0214
  855MOL0     C15345   5.212   2.184   3.588 -0.0329 -0.0288 -0.3388
  855MOL0     C15346   5.089   2.255   3.546  0.1057  0.5328  0.3912
  855MOL0     C15347   4.975   2.179   3.546 -0.6464 -0.3864 -0.2563
  855MOL0     C15348   4.977   2.042   3.566 -0.4426  1.0958 -0.1613
  855MOL0     O15349   4.870   1.956   3.546  0.3179 -0.2481 -0.1761
  855MOL0     C15350   4.743   1.983   3.610 -0.0248  0.0462 -0.8839
  855MOL0     C15351   4.746   1.936   3.760 -0.2790  0.3357  0.3427
  855MOL0     C15352   4.614   1.861   3.794  0.0012 -0.5496 -0.1231
  855MOL0     C15353   4.497   1.958   3.820  0.4164 -0.2875  1.2026
  855MOL0     C15354   4.362   1.900   3.814 -1.1616  0.1068 -0.0874
  855MOL0     C15355   4.253   1.840   3.812  0.4181 -0.3658 -0.3354
  855MOL0     C15356   5.099   1.977   3.590  0.6739 -0.3907 -0.3277
  855MOL0     C15357   5.216   2.056   3.614  0.0131  0.9507  0.4549
  855MOL0     H15358   5.651   2.254   3.442  0.2644  0.9900  0.1107
  855MOL0     H15359   5.829   2.429   3.474  2.8286 -0.6508  1.8716
  855MOL0     H15360   5.882   2.696   3.599  2.8525  3.6895  0.3661
  855MOL0     H15361   5.800   2.655   3.749  1.0618 -1.1763  1.2401
  855MOL0     H15362   5.939   2.825   3.772 -0.4282 -0.5688  1.6275
  855MOL0     H15363   6.001   2.703   3.869  0.3119  2.0113 -0.8234
  855MOL0     H15364   6.172   2.632   3.707  1.5940 -0.1377 -0.7636
  855MOL0     H15365   6.117   2.735   3.584 -0.3234 -3.8645 -0.4922
  855MOL0     H15366   6.164   2.906   3.819  2.4395 -0.0193  0.3986
  855MOL0     H15367   6.294   2.803   3.811  1.4118  2.1279  0.7728
  855MOL0     H15368   6.301   2.861   3.544 -0.0324 -1.7837  1.0009
  855MOL0     H15369   6.200   2.992   3.597 -0.8271  2.4606  3.6820
  855MOL0     H15370   6.384   3.038   3.779 -3.5799 -2.0942 -0.3958
  855MOL0     H15371   6.480   2.917   3.697 -0.2518 -1.2477 -2.7631
  855MOL0     H15372   6.426   3.080   3.474  1.0042  1.6267 -0.8595
  855MOL0     H15373   6.408   3.192   3.595  3.5432  1.5929  0.6415
  855MOL0     H15374   6.637   3.002   3.517 -2.8829  0.0835 -0.6892
  855MOL0     H15375   6.667   3.092   3.664  1.9194  2.6314 -0.6411
  855MOL0     H15376   6.485   3.361   3.531  0.4456 -0.5261  2.1125
  855MOL0     H15377   6.741   3.655   3.453  1.9844 -0.9192  0.4512
  855MOL0     H15378   6.599   3.596   3.369 -0.3384  0.2202 -0.1243
  855MOL0     H15379   6.576   3.620   3.674 -4.3025  0.3038  1.0125
  855MOL0     H15380   6.455   3.616   3.570 -0.2772  0.9931 -1.2073
  855MOL0     H15381   6.644   3.845   3.631  1.1029  0.8979 -1.1693
  855MOL0     H15382   6.478   3.820   3.669  0.9328 -1.3953  2.2736
  855MOL0     H15383   6.471   3.797   3.389 -0.9983 -1.1260  2.1471
  855MOL0     H15384   6.606   3.902   3.408 -0.1000  0.9431 -1.3605
  855MOL0     H15385   6.263   4.172   3.553  1.5851 -1.3585 -0.1219
  855MOL0     H15386   5.900   4.212   3.574 -1.2643 -2.0157 -0.3451
  855MOL0     H15387   5.970   4.171   3.735  1.1602  0.5830 -0.0378
  855MOL0     H15388   6.044   4.285   3.625 -2.4045  0.8739 -2.6218
  855MOL0     H15389   5.626   3.842   3.726 -0.2220  0.9061  0.0842
  855MOL0     H15390   5.375   3.807   3.665  1.2327 -1.7354 -1.6240
  855MOL0     H15391   5.107   3.821   3.397  2.4733 -0.2899 -2.0582
  855MOL0     H15392   5.224   3.743   3.496  1.7442  0.3018 -0.3599
  855MOL0     H15393   5.149   3.854   3.695  2.9681  3.5305 -1.1405
  855MOL0     H15394   5.048   3.967   3.607  1.1423  0.0771  0.2254
  855MOL0     H15395   4.938   3.716   3.538 -0.8334  3.1741 -1.4025
  855MOL0     H15396   4.883   3.804   3.675  2.3946  2.9152  2.8105
  855MOL0     H15397   4.959   3.552   3.679 -0.9452 -0.5749  3.6146
  855MOL0     H15398   5.128   3.600   3.687  1.2704  3.3081 -0.2035
  855MOL0     H15399   4.922   3.708   3.889  2.0135  2.6759 -0.4434
  855MOL0     H15400   5.096   3.686   3.907  0.4171  1.6145 -2.3361
  855MOL0     H15401   4.875   3.470   3.907 -0.0571  0.6321 -1.0479
  855MOL0     H15402   5.050   3.422   3.912 -1.1317 -2.1568  1.2595
  855MOL0     H15403   4.940   3.602   4.122 -1.2561 -0.8607  1.0355
  855MOL0     H15404   5.076   3.492   4.126  0.2556 -1.9372 -1.0794
  855MOL0     H15405   4.779   3.424   4.127  0.6236  1.3797 -0.4560
  855MOL0     H15406   4.870   3.422   4.261  1.2623 -1.9968 -0.0452
  855MOL0     H15407   5.417   4.092   3.357 -2.2049 -2.2871 -0.7964
  855MOL0     H15408   5.645   4.134   3.420 -0.4856  0.2680 -1.4788
  855MOL0     H15409   6.031   3.740   3.510 -2.5226  1.5299  0.4908
  855MOL0     H15410   6.282   3.763   3.448  0.9334  0.0276  0.0433
  855MOL0     H15411   5.746   2.450   3.888  0.2202  0.0881  0.2550
  855MOL0     H15412   5.528   2.337   3.848  0.9830  0.8578  1.8514
  855MOL0     H15413   5.086   2.360   3.517 -0.9536  0.1205 -1.1019
  855MOL0     H15414   4.880   2.223   3.516 -0.2695 -0.8044 -2.1770
  855MOL0     H15415   4.723   2.091   3.611  1.5815  0.3803 -1.4615
  855MOL0     H15416   4.658   1.934   3.562 -1.1713  0.8313  0.2662
  855MOL0     H15417   4.743   2.027   3.822  1.6653  1.5688 -1.2358
  855MOL0     H15418   4.836   1.881   3.788 -0.0703  1.3308  1.7935
  855MOL0     H15419   4.629   1.789   3.875  1.2638  1.0382  1.1304
  855MOL0     H15420   4.583   1.807   3.704  0.1423  0.5271 -0.8397
  855MOL0     H15421   4.502   2.025   3.734  1.6437 -0.2357  1.2910
  855MOL0     H15422   4.506   2.018   3.910  2.3016  1.0119  0.2087
  855MOL0     H15423   4.167   1.777   3.800  1.5128 -1.8316 -0.6292
  855MOL0     H15424   5.111   1.871   3.610  0.5182 -0.4211 -0.4019
  855MOL0     H15425   5.312   2.017   3.645 -0.8245 -0.2747  1.6756
  856MOL0     O15426   8.690   6.846   5.116 -0.4827  0.2207 -0.4017
  856MOL0     C15427   8.664   6.966   5.115 -0.0053  0.3665 -0.4778
  856MOL0     O15428   8.543   7.026   5.124  0.0397  0.2962  0.0077
  856MOL0     C15429   8.433   6.946   5.128  0.7053  0.3398  0.1769
  856MOL0     C15430   8.365   6.915   5.009 -0.6604 -0.3018  0.2321
  856MOL0     C15431   8.275   6.807   5.000  0.1480 -0.1999  0.9378
  856MOL0     C15432   8.238   6.743   5.112 -0.3474 -0.2051 -0.2061
  856MOL0     O15433   8.163   6.632   5.088 -0.5496 -0.1075  0.3341
  856MOL0     C15434   8.101   6.559   5.195 -1.0764 -0.3934  0.0192
  856MOL0     C15435   7.996   6.466   5.132 -0.5498  0.5126  0.1924
  856MOL0     C15436   7.901   6.411   5.236 -0.0102 -0.5134 -1.6130
  856MOL0     C15437   7.807   6.309   5.168 -0.5362  0.2856 -0.2896
  856MOL0     C15438   7.865   6.163   5.178  0.4034 -0.3578 -0.3242
  856MOL0     C15439   7.788   6.046   5.126 -0.3146  1.0277 -0.1581
  856MOL0     C15440   7.628   6.077   5.145 -0.4356  0.4745 -0.7141
  856MOL0     C15441   7.567   6.082   5.290  0.2528  0.5887 -0.2533
  856MOL0     N15442   7.577   5.949   5.357 -0.1879 -0.2488  0.2260
  856MOL0     C15443   7.678   5.916   5.438 -0.2960 -0.8354  0.2765
  856MOL0     C15444   7.664   5.783   5.466  0.0293 -0.0747  0.6696
  856MOL0     C15445   7.763   5.675   5.522  1.0909  0.6749  0.6726
  856MOL0     C15446   7.871   5.640   5.406  0.3577  0.6922  0.4872
  856MOL0     C15447   7.978   5.752   5.389  0.0086 -0.0702  1.0978
  856MOL0     C15448   8.088   5.755   5.483 -0.6785 -0.7900  0.7972
  856MOL0     O15449   8.184   5.853   5.447 -0.4022  0.6478  0.2556
  856MOL0     C15450   8.165   5.975   5.492  0.1683 -0.7614  0.2535
  856MOL0     C15451   8.040   6.035   5.547 -1.4813 -0.1795  0.4701
  856MOL0     C15452   8.027   6.175   5.579 -0.1221  0.0872  0.0745
  856MOL0     C15453   7.888   6.225   5.612  0.5814 -0.1209 -0.0139
  856MOL0     C15454   8.148   6.256   5.563  0.0614  0.5681 -0.5288
  856MOL0     C15455   8.154   6.398   5.598 -0.2476 -0.2296  0.4881
  856MOL0     O15456   8.274   6.461   5.617  0.3595  0.1843 -1.0040
  856MOL0     C15457   8.262   6.564   5.702  0.0675  0.0895 -1.2234
  856MOL0     C15458   8.184   6.678   5.670  0.2621 -0.1359  0.0941
  856MOL0     C15459   8.160   6.787   5.758  0.9213  0.2435  0.9727
  856MOL0     C15460   8.226   6.778   5.886  0.3882  0.9371  0.4728
  856MOL0     O15461   8.214   6.876   5.979 -0.0648  0.1428 -0.5830
  856MOL0     C15462   8.321   6.931   6.056  0.3879 -0.3962  0.0781
  856MOL0     C15463   8.449   6.963   5.966 -0.9706 -0.3688  0.3391
  856MOL0     C15464   8.432   7.090   5.876  0.2516 -0.1620 -0.9548
  856MOL0     C15465   8.464   7.219   5.956 -0.9004  0.1349 -1.1373
  856MOL0     C15466   8.415   7.355   5.882  0.3355 -0.3366 -0.3018
  856MOL0     C15467   8.498   7.472   5.902  0.3863 -0.0916 -0.1896
  856MOL0     C15468   8.618   7.452   5.808  0.0544  0.8043 -0.8252
  856MOL0     C15469   8.740   7.552   5.836 -0.6070 -0.3015  0.7433
  856MOL0    Cl15470   8.709   7.701   5.752  0.5750  0.0003 -0.0427
  856MOL0     C15471   8.294   6.656   5.925 -0.3327  0.5346  0.3637
  856MOL0     C15472   8.315   6.555   5.828  0.9192 -0.0289 -0.9213
  856MOL0     O15473   8.046   6.452   5.596 -0.5899 -0.2917  0.4763
  856MOL0     C15474   8.262   6.200   5.506  0.0706 -0.4489  0.3667
  856MOL0     C15475   8.277   6.061   5.473  0.0131 -0.5768  0.4003
  856MOL0     N15476   7.541   5.747   5.409 -0.1599 -0.2722 -0.1560
  856MOL0     N15477   7.489   5.849   5.351 -0.1757  0.4168 -0.6712
  856MOL0     C15478   8.292   6.775   5.233  0.1098  0.4658 -0.3393
  856MOL0     C15479   8.396   6.868   5.239  0.8887  0.6304  0.0586
  856MOL0     C15480   8.786   7.054   5.121  0.4512  0.0140  0.4758
  856MOL0     C15481   8.912   7.001   5.103 -0.6949 -0.0350  0.4832
  856MOL0     C15482   9.026   7.085   5.103  0.6557 -0.4782 -0.1856
  856MOL0     C15483   9.015   7.225   5.128  0.8352  0.0788 -0.8451
  856MOL0     O15484   9.122   7.319   5.128  0.7022  0.1881 -0.7448
  856MOL0     C15485   9.251   7.272   5.169 -0.1812  0.0252 -0.1638
  856MOL0     C15486   9.360   7.370   5.186 -0.8625  0.2759 -0.0957
  856MOL0     C15487   9.378   7.469   5.077  0.2770 -1.1111  0.9332
  856MOL0     C15488   9.370   7.415   4.936 -0.9330 -0.0983 -0.0559
  856MOL0     C15489   9.426   7.520   4.840  0.2999  0.2613 -0.8928
  856MOL0     C15490   9.481   7.606   4.771  0.1082  0.2849  0.7144
  856MOL0     C15491   8.880   7.269   5.151 -0.0919 -0.7040  0.5739
  856MOL0     C15492   8.768   7.187   5.141 -0.0488  0.2258 -0.0743
  856MOL0     H15493   8.384   6.975   4.921  1.7161  0.6906  1.3279
  856MOL0     H15494   8.218   6.794   4.909 -0.1511  1.7677  0.7859
  856MOL0     H15495   8.177   6.505   5.252 -1.7683  0.2872  1.6530
  856MOL0     H15496   8.055   6.636   5.258  2.2065  0.9261  1.0383
  856MOL0     H15497   7.930   6.518   5.062 -0.5366 -1.5592 -1.4600
  856MOL0     H15498   8.035   6.372   5.091 -1.6901 -0.3854  1.0702
  856MOL0     H15499   7.949   6.361   5.321  0.2974 -2.4131 -2.8380
  856MOL0     H15500   7.839   6.497   5.263 -3.4929 -2.2050 -3.5897
  856MOL0     H15501   7.710   6.322   5.216  0.3226  1.4675  1.2090
  856MOL0     H15502   7.804   6.332   5.061  1.0987 -2.8878 -1.1572
  856MOL0     H15503   7.967   6.157   5.140  0.2148  2.9409 -1.6817
  856MOL0     H15504   7.866   6.142   5.285  3.5424 -2.6007 -0.6456
  856MOL0     H15505   7.804   6.032   5.019 -3.0823  2.5148 -0.8537
  856MOL0     H15506   7.811   5.959   5.188 -1.1369  0.8423 -0.1014
  856MOL0     H15507   7.604   6.159   5.077  0.0206  2.7196  1.7069
  856MOL0     H15508   7.577   5.987   5.109  1.3342 -1.0075  0.3498
  856MOL0     H15509   7.464   6.117   5.298  0.0596  0.1290 -0.6595
  856MOL0     H15510   7.623   6.154   5.350 -1.3615  0.2309  1.7980
  856MOL0     H15511   7.764   5.981   5.455 -1.7590  0.4561  3.4020
  856MOL0     H15512   7.809   5.715   5.613  2.3107  0.3348  0.2153
  856MOL0     H15513   7.698   5.592   5.553  0.1527  1.8695  2.0793
  856MOL0     H15514   7.832   5.630   5.305  0.2045 -0.0696  0.6161
  856MOL0     H15515   7.923   5.543   5.415 -0.5126  0.1507 -0.1776
  856MOL0     H15516   7.932   5.849   5.371 -1.2607 -1.1148 -1.9004
  856MOL0     H15517   8.036   5.720   5.302  1.3065  0.2130  1.8316
  856MOL0     H15518   8.138   5.658   5.483 -0.2590 -0.6980 -2.6314
  856MOL0     H15519   8.063   5.786   5.585 -1.1282 -0.3233  0.5553
  856MOL0     H15520   7.956   5.967   5.548  0.3017 -2.6314 -1.7145
  856MOL0     H15521   7.824   6.139   5.634  4.2315 -3.3063 -0.6561
  856MOL0     H15522   7.873   6.270   5.711 -0.1910 -1.5563  0.5496
  856MOL0     H15523   7.856   6.294   5.533  0.1857 -0.4047 -0.1043
  856MOL0     H15524   8.134   6.681   5.574  2.1946  1.4437 -0.9326
  856MOL0     H15525   8.102   6.871   5.724 -0.3553  0.0667  2.6005
  856MOL0     H15526   8.291   7.027   6.101 -0.5000 -0.8304  0.4412
  856MOL0     H15527   8.354   6.875   6.144 -1.1920  0.4944  1.2871
  856MOL0     H15528   8.527   6.988   6.039 -1.9243 -3.2694  2.5461
  856MOL0     H15529   8.483   6.876   5.910 -0.7613  0.1323 -0.3205
  856MOL0     H15530   8.333   7.087   5.830  0.0756 -0.7499 -0.5459
  856MOL0     H15531   8.497   7.079   5.789  0.0047 -0.0598 -1.1530
  856MOL0     H15532   8.421   7.214   6.056  0.0741 -1.5383 -0.7540
  856MOL0     H15533   8.573   7.225   5.965 -1.0066  1.2502 -0.3862
  856MOL0     H15534   8.314   7.380   5.917  1.4415  4.5400  0.1396
  856MOL0     H15535   8.403   7.334   5.776 -3.5621 -0.0377 -0.0897
  856MOL0     H15536   8.443   7.562   5.874  1.4784  1.0349  1.1644
  856MOL0     H15537   8.529   7.487   6.005  1.5006  1.6984 -0.7430
  856MOL0     H15538   8.581   7.461   5.706  0.5541  0.8221 -1.0081
  856MOL0     H15539   8.648   7.347   5.815  2.4637  1.4039 -1.2240
  856MOL0     H15540   8.837   7.511   5.807 -0.4089  0.2923  0.5440
  856MOL0     H15541   8.753   7.577   5.942  2.7082 -0.5322  0.4908
  856MOL0     H15542   8.305   6.638   6.031  0.8895 -0.8104  0.0391
  856MOL0     H15543   8.365   6.465   5.859 -1.8493 -0.9642  1.2482
  856MOL0     H15544   8.357   6.252   5.497  0.7998 -1.1891  2.9832
  856MOL0     H15545   8.364   6.026   5.420 -0.5873 -3.0973  0.9201
  856MOL0     H15546   8.258   6.716   5.318  0.1624  1.8433  0.6754
  856MOL0     H15547   8.452   6.871   5.332  4.2780 -2.5124 -1.6073
  856MOL0     H15548   8.921   6.897   5.073 -0.9654  0.3023 -0.8000
  856MOL0     H15549   9.123   7.036   5.102  1.0567  0.2887 -1.1790
  856MOL0     H15550   9.234   7.213   5.259  1.2473  0.0051  0.1114
  856MOL0     H15551   9.276   7.195   5.095 -1.2045 -3.3819  2.7436
  856MOL0     H15552   9.449   7.307   5.186  1.5010  3.3635  1.2941
  856MOL0     H15553   9.348   7.416   5.285  1.4016 -2.5027  1.6738
  856MOL0     H15554   9.473   7.523   5.079 -1.2424  1.8467 -0.1389
  856MOL0     H15555   9.300   7.546   5.082  0.2209 -0.6805 -3.1766
  856MOL0     H15556   9.268   7.385   4.910 -1.2758 -0.4568  1.5875
  856MOL0     H15557   9.421   7.320   4.920 -3.4628 -1.2666 -1.8975
  856MOL0     H15558   9.540   7.679   4.720  1.8108 -0.6625  1.2310
  856MOL0     H15559   8.857   7.372   5.176 -6.0079 -1.9372  1.5732
  856MOL0     H15560   8.672   7.235   5.158  0.2610  0.8632 -0.0782
  857MOL0     O15561   0.635   5.595   2.927 -0.2341  0.5516  0.4068
  857MOL0     C15562   0.702   5.515   2.860 -0.2728 -0.6812 -0.5727
  857MOL0     O15563   0.676   5.378   2.858  0.2255 -0.1672  0.9663
  857MOL0     C15564   0.585   5.326   2.945  0.2757 -0.1298 -0.2630
  857MOL0     C15565   0.625   5.216   3.025 -0.4960 -0.3369 -0.1867
  857MOL0     C15566   0.527   5.144   3.091 -0.2724 -0.1490 -0.5269
  857MOL0     C15567   0.393   5.172   3.058  0.1897  0.4018  0.4286
  857MOL0     O15568   0.285   5.098   3.106 -0.2872 -0.0598  0.5261
  857MOL0     C15569   0.279   5.104   3.247 -0.0128 -0.2610 -0.1854
  857MOL0     C15570   0.151   5.033   3.299 -0.2745  0.1033 -0.5062
  857MOL0     C15571   0.135   5.066   3.447  0.6420  0.1354 -0.0622
  857MOL0     C15572   0.067   4.966   3.543 -0.0972  0.0693 -0.2318
  857MOL0     C15573  -0.082   4.947   3.515  0.2298  0.5721 -0.6567
  857MOL0     C15574  -0.173   4.987   3.633  0.4353  0.5731  0.4548
  857MOL0     C15575  -0.326   4.977   3.596 -1.0275  0.0317 -0.3815
  857MOL0     C15576  -0.413   4.972   3.718 -0.4838  0.6378  0.4519
  857MOL0     N15577  -0.555   4.934   3.695  0.3182 -0.9346  0.2033
  857MOL0     C15578  -0.662   5.029   3.671  0.7469  0.7599  0.7896
  857MOL0     C15579  -0.765   4.945   3.633  0.7132  0.1347  0.0590
  857MOL0     C15580  -0.902   4.994   3.611 -0.0339 -0.4757  0.5721
  857MOL0     C15581  -0.974   5.047   3.733 -0.2965 -0.2351  0.7111
  857MOL0     C15582  -1.125   5.083   3.691 -1.3252 -1.0406  0.1390
  857MOL0     C15583  -1.208   4.971   3.623 -0.2397  0.8400 -0.2068
  857MOL0     O15584  -1.199   4.856   3.709  0.1206  0.6612  0.0032
  857MOL0     C15585  -1.291   4.757   3.688 -0.4816  0.1060  0.4929
  857MOL0     C15586  -1.383   4.729   3.586 -0.7170 -0.3571 -0.6196
  857MOL0     C15587  -1.472   4.617   3.589  0.0215  0.6530 -0.2447
  857MOL0     C15588  -1.561   4.600   3.468  0.6726 -0.9407 -0.0541
  857MOL0     C15589  -1.464   4.534   3.692 -0.5512  0.2520  0.5231
  857MOL0     C15590  -1.554   4.409   3.705 -0.4568 -0.0584 -0.0072
  857MOL0     O15591  -1.581   4.326   3.598  0.1945 -0.5059  0.3486
  857MOL0     C15592  -1.627   4.199   3.612  0.4245 -0.5809 -0.4371
  857MOL0     C15593  -1.553   4.091   3.630 -0.3935  0.4201 -0.7289
  857MOL0     C15594  -1.599   3.958   3.645 -0.2932 -0.9531  0.0392
  857MOL0     C15595  -1.731   3.921   3.640 -0.2287  0.1147  0.2346
  857MOL0     O15596  -1.770   3.789   3.658  0.0698  0.3278  0.8530
  857MOL0     C15597  -1.911   3.758   3.642 -0.0471 -0.2390 -0.2974
  857MOL0     C15598  -1.914   3.608   3.662  1.2918 -0.1144  0.3316
  857MOL0     C15599  -1.852   3.517   3.550  0.0887 -0.1827  0.3590
  857MOL0     C15600  -1.925   3.519   3.414  0.6631  0.3652 -0.1935
  857MOL0     C15601  -1.848   3.438   3.307  0.6719  0.1929 -0.9814
  857MOL0     C15602  -1.931   3.417   3.178  0.1196  0.0721 -1.0750
  857MOL0     C15603  -1.860   3.469   3.050  0.7457  1.0289  0.0101
  857MOL0     C15604  -1.964   3.460   2.934 -1.1507  0.3567 -0.7614
  857MOL0    Cl15605  -1.866   3.495   2.787 -0.5162 -0.2041 -0.0621
  857MOL0     C15606  -1.816   4.024   3.620 -1.0017 -0.4336  0.2380
  857MOL0     C15607  -1.766   4.159   3.608  0.6702 -0.3181  0.3814
  857MOL0     O15608  -1.596   4.402   3.820  0.4884 -0.2531 -0.4063
  857MOL0     C15609  -1.367   4.556   3.792  0.3786  0.1275  0.2384
  857MOL0     C15610  -1.275   4.661   3.791  0.7332 -0.1109  0.8446
  857MOL0     N15611  -0.722   4.814   3.644  0.8859  0.0872  1.0217
  857MOL0     N15612  -0.598   4.812   3.671  0.3903  0.1989 -0.1267
  857MOL0     C15613   0.355   5.279   2.977 -0.2997 -0.1942  0.4490
  857MOL0     C15614   0.451   5.363   2.927  0.2311  0.9103 -0.4770
  857MOL0     C15615   0.819   5.576   2.791 -1.0111 -0.8374  0.4423
  857MOL0     C15616   0.894   5.506   2.693 -0.3879 -0.3018 -0.0860
  857MOL0     C15617   1.019   5.544   2.649 -0.1216 -0.0824  0.2463
  857MOL0     C15618   1.076   5.663   2.698  0.4606  0.1405 -0.2484
  857MOL0     O15619   1.212   5.687   2.674  0.4783  0.0395 -0.0150
  857MOL0     C15620   1.278   5.612   2.573  0.0117 -0.9936 -0.2309
  857MOL0     C15621   1.427   5.650   2.543 -0.5018  0.3142  0.2881
  857MOL0     C15622   1.524   5.582   2.644 -0.5004  0.3616  0.5163
  857MOL0     C15623   1.676   5.614   2.626  0.3095 -0.2374 -0.2988
  857MOL0     C15624   1.710   5.758   2.611 -0.0353  0.5035 -0.3510
  857MOL0     C15625   1.737   5.871   2.592  0.1754 -0.0666  0.4955
  857MOL0     C15626   0.998   5.743   2.783 -0.0484 -0.3365  0.4381
  857MOL0     C15627   0.870   5.697   2.825  0.3434 -0.9439 -0.5855
  857MOL0     H15628   0.730   5.190   3.038 -0.5639 -0.1343  0.8346
  857MOL0     H15629   0.557   5.057   3.149  1.2507  0.6685 -0.0334
  857MOL0     H15630   0.364   5.054   3.293  0.3974 -0.4768 -1.1441
  857MOL0     H15631   0.269   5.206   3.284 -1.6201 -1.6865  3.9081
  857MOL0     H15632   0.062   5.060   3.241 -1.1086  2.4454  1.6583
  857MOL0     H15633   0.173   4.927   3.308  2.7583  0.8084  2.2313
  857MOL0     H15634   0.235   5.089   3.486  1.0362 -2.4451  0.5759
  857MOL0     H15635   0.077   5.159   3.445  1.3965  0.6054 -1.8262
  857MOL0     H15636   0.120   4.871   3.529  1.7196  0.7429  1.5758
  857MOL0     H15637   0.085   4.998   3.646  2.6243  2.8177 -1.4090
  857MOL0     H15638  -0.112   5.007   3.428 -1.6188  1.4777  0.5297
  857MOL0     H15639  -0.102   4.842   3.496 -0.7529  0.5730  0.2545
  857MOL0     H15640  -0.157   4.926   3.723  0.8398  0.2927  0.1946
  857MOL0     H15641  -0.156   5.093   3.654  3.0019  0.5115 -0.9684
  857MOL0     H15642  -0.370   5.058   3.536  2.0416  2.6753  0.6775
  857MOL0     H15643  -0.327   4.882   3.541  0.8019 -1.9371  2.6710
  857MOL0     H15644  -0.401   5.067   3.770  0.2523  1.5894 -1.3471
  857MOL0     H15645  -0.381   4.895   3.788  0.1897  2.7546  2.5754
  857MOL0     H15646  -0.669   5.137   3.670 -5.2020  0.6720 -0.5921
  857MOL0     H15647  -0.908   5.068   3.531  2.4568  0.0849  0.8101
  857MOL0     H15648  -0.959   4.908   3.574 -0.5687  0.0997  0.0421
  857MOL0     H15649  -0.926   5.133   3.779 -1.6523  0.4001  0.9953
  857MOL0     H15650  -0.982   4.969   3.809  1.1724  0.0722  1.2013
  857MOL0     H15651  -1.114   5.173   3.629 -2.7165 -0.6219  0.4606
  857MOL0     H15652  -1.187   5.111   3.777 -1.4518 -1.3552  0.1515
  857MOL0     H15653  -1.176   4.938   3.524 -0.8944  0.8792 -0.4398
  857MOL0     H15654  -1.313   4.999   3.612  0.0710  1.9462 -0.4294
  857MOL0     H15655  -1.383   4.783   3.492  1.9565 -1.3499 -1.2888
  857MOL0     H15656  -1.649   4.550   3.508  2.3914 -2.1159  2.4695
  857MOL0     H15657  -1.591   4.693   3.419  0.5385 -2.0105 -2.1297
  857MOL0     H15658  -1.529   4.542   3.381 -3.7472 -1.3594 -1.6663
  857MOL0     H15659  -1.447   4.108   3.650  0.0635 -1.1727 -1.5884
  857MOL0     H15660  -1.514   3.894   3.663  1.5725  0.4050 -3.0175
  857MOL0     H15661  -1.954   3.814   3.726 -1.9472  2.2822 -2.7655
  857MOL0     H15662  -1.956   3.790   3.548 -2.1946 -0.9256  0.4147
  857MOL0     H15663  -1.857   3.570   3.747 -0.1993 -1.0216  0.9603
  857MOL0     H15664  -2.016   3.572   3.677  0.6687  1.2379 -0.4879
  857MOL0     H15665  -1.853   3.412   3.580 -1.1249 -0.0596  0.8103
  857MOL0     H15666  -1.745   3.536   3.537  0.0372 -1.4788 -2.7782
  857MOL0     H15667  -2.020   3.474   3.442 -0.4246  1.8834 -1.2145
  857MOL0     H15668  -1.932   3.624   3.383 -0.1491  0.8399  1.4764
  857MOL0     H15669  -1.816   3.341   3.345 -0.6354  0.2018  0.2239
  857MOL0     H15670  -1.755   3.494   3.297  0.8938  0.7700  2.8170
  857MOL0     H15671  -1.957   3.311   3.174 -0.2340  0.0554  0.8099
  857MOL0     H15672  -2.025   3.473   3.187 -0.6465 -0.8964 -2.6780
  857MOL0     H15673  -1.778   3.397   3.037  1.0712  0.3703  4.3313
  857MOL0     H15674  -1.822   3.571   3.056  1.2169  1.1407 -3.1832
  857MOL0     H15675  -2.024   3.551   2.942  0.2870  1.1833  1.5047
  857MOL0     H15676  -2.018   3.366   2.925 -2.0076  0.9118 -1.6136
  857MOL0     H15677  -1.924   4.025   3.616 -1.3039  4.3141  2.1039
  857MOL0     H15678  -1.839   4.240   3.598  0.8984 -0.1364  0.1663
  857MOL0     H15679  -1.354   4.497   3.882  3.0114  4.4673  3.0524
  857MOL0     H15680  -1.207   4.680   3.874 -0.2483 -0.4013  1.7421
  857MOL0     H15681   0.249   5.292   2.958 -0.6467  0.0142  2.3062
  857MOL0     H15682   0.420   5.442   2.859 -1.3658 -0.3242 -1.2509
  857MOL0     H15683   0.865   5.402   2.685 -1.7267  0.1624 -1.9538
  857MOL0     H15684   1.068   5.477   2.578  0.1401 -0.8203  1.1115
  857MOL0     H15685   1.287   5.506   2.598 -3.1478 -0.7169  2.8412
  857MOL0     H15686   1.215   5.615   2.484 -1.2322  0.1772  0.6511
  857MOL0     H15687   1.436   5.759   2.536  2.5351  0.1247 -0.4005
  857MOL0     H15688   1.459   5.604   2.449  0.5512  1.7225 -0.0803
  857MOL0     H15689   1.506   5.474   2.651 -0.1024  0.0812 -1.8840
  857MOL0     H15690   1.506   5.620   2.745 -2.0713  1.2170 -0.0530
  857MOL0     H15691   1.726   5.565   2.542  2.7753  0.6582  0.5540
  857MOL0     H15692   1.728   5.565   2.709  0.3186  2.6689  1.5599
  857MOL0     H15693   1.731   5.976   2.571  0.0687 -0.6755 -3.2037
  857MOL0     H15694   1.032   5.844   2.807 -0.7301  0.2897 -1.1383
  857MOL0     H15695   0.811   5.765   2.885  0.2085 -0.9113 -0.7526
  858MOL0     O15696   1.876   6.158   0.778  0.3393  0.1785  0.6816
  858MOL0     C15697   1.877   6.276   0.803 -0.8134  0.0261 -0.3913
  858MOL0     O15698   1.939   6.323   0.909 -0.2868  0.2579  0.8142
  858MOL0     C15699   2.041   6.255   0.972  0.3738 -0.7307  0.5006
  858MOL0     C15700   2.076   6.308   1.097  0.1380  0.5463 -0.4494
  858MOL0     C15701   2.199   6.273   1.163 -0.0134  0.2108 -0.2297
  858MOL0     C15702   2.283   6.165   1.125  0.2431 -1.1008  0.2740
  858MOL0     O15703   2.390   6.124   1.200  0.2992  0.0864 -0.1670
  858MOL0     C15704   2.487   6.025   1.153 -0.7110 -0.3240 -0.2249
  858MOL0     C15705   2.615   6.062   1.232 -1.0647  0.3367  1.3110
  858MOL0     C15706   2.733   5.961   1.194  0.2444  0.4360 -1.0189
  858MOL0     C15707   2.725   5.832   1.270 -0.1919  0.0229  0.3181
  858MOL0     C15708   2.757   5.846   1.420  0.1752 -0.8419 -0.8765
  858MOL0     C15709   2.753   5.708   1.486  0.2732 -0.4959 -0.5345
  858MOL0     C15710   2.861   5.611   1.430 -0.6060 -0.0298 -0.0359
  858MOL0     C15711   3.008   5.660   1.423 -0.0946 -0.2473  0.1581
  858MOL0     N15712   3.076   5.704   1.550 -0.2032 -0.0308 -0.4072
  858MOL0     C15713   3.115   5.620   1.653 -0.1151 -0.1954  0.5222
  858MOL0     C15714   3.192   5.701   1.730 -0.2696 -0.4177 -0.6221
  858MOL0     C15715   3.263   5.640   1.853 -0.7606 -0.0694 -0.6999
  858MOL0     C15716   3.242   5.733   1.973  0.0328  1.4810  0.0518
  858MOL0     C15717   3.334   5.675   2.086  0.6746 -0.2599 -0.5300
  858MOL0     C15718   3.313   5.766   2.211  0.8632 -0.0686 -0.1197
  858MOL0     O15719   3.410   5.725   2.305 -0.3653  0.0099 -0.4012
  858MOL0     C15720   3.394   5.607   2.371 -0.8337  0.5435  0.4305
  858MOL0     C15721   3.505   5.530   2.406  0.8683 -0.1893  0.1815
  858MOL0     C15722   3.497   5.415   2.489 -0.3710 -0.9727  0.2071
  858MOL0     C15723   3.629   5.348   2.515  0.7652  0.3241 -0.4870
  858MOL0     C15724   3.374   5.379   2.538 -0.1080  0.6224 -0.7055
  858MOL0     C15725   3.346   5.254   2.620  0.8857  0.5279  0.9700
  858MOL0     O15726   3.420   5.147   2.599 -0.2971  0.0771 -0.0718
  858MOL0     C15727   3.421   5.032   2.679  0.4074  0.5879 -0.4550
  858MOL0     C15728   3.532   4.953   2.657 -0.3637  0.7435 -0.2684
  858MOL0     C15729   3.551   4.834   2.730  0.6603 -0.1110 -0.2073
  858MOL0     C15730   3.464   4.799   2.834 -0.2262  0.7639 -0.4238
  858MOL0     O15731   3.488   4.687   2.918 -0.4602 -0.2486 -0.2019
  858MOL0     C15732   3.377   4.642   3.001 -0.1352 -1.1290  0.8105
  858MOL0     C15733   3.369   4.493   2.996  1.4674 -0.3342  0.4528
  858MOL0     C15734   3.400   4.443   2.859 -1.2297  0.4068  0.3593
  858MOL0     C15735   3.381   4.292   2.855  0.6788  0.5393  0.3742
  858MOL0     C15736   3.415   4.232   2.722  0.4483  0.4985 -0.3088
  858MOL0     C15737   3.564   4.242   2.689  0.4699  0.2970 -0.1357
  858MOL0     C15738   3.593   4.136   2.578 -0.5522  0.2169  0.5528
  858MOL0     C15739   3.731   4.151   2.514  0.0759 -0.2392 -0.4291
  858MOL0    Cl15740   3.730   4.310   2.438  0.5847  0.4786  0.1648
  858MOL0     C15741   3.359   4.884   2.859  0.2023  0.3716  0.0795
  858MOL0     C15742   3.330   4.995   2.780 -0.1874  0.3514  0.5701
  858MOL0     O15743   3.265   5.274   2.707 -1.0796 -0.1015  0.7256
  858MOL0     C15744   3.264   5.449   2.492  0.2558  0.0344  0.5631
  858MOL0     C15745   3.273   5.555   2.414  0.1033 -0.1462 -0.0035
  858MOL0     N15746   3.205   5.824   1.666 -0.7611  0.2600  0.6524
  858MOL0     N15747   3.135   5.826   1.561  0.0159 -0.2352  0.5282
  858MOL0     C15748   2.246   6.111   0.998  0.2015 -0.4576  0.3369
  858MOL0     C15749   2.131   6.160   0.923 -0.8786  0.8651  0.4369
  858MOL0     C15750   1.789   6.365   0.736 -0.2186 -0.5222  0.5012
  858MOL0     C15751   1.678   6.328   0.658  0.5477 -0.0326  0.0072
  858MOL0     C15752   1.601   6.433   0.596  0.0349 -0.0056 -0.3625
  858MOL0     C15753   1.644   6.566   0.602 -0.4807  0.1593  0.8048
  858MOL0     O15754   1.567   6.649   0.519 -0.4154  0.7749 -0.2314
  858MOL0     C15755   1.608   6.783   0.486  0.5832  0.2034 -0.8771
  858MOL0     C15756   1.498   6.820   0.388 -0.2823 -0.6245  0.1133
  858MOL0     C15757   1.523   6.959   0.336 -0.9578 -0.5814  1.2119
  858MOL0     C15758   1.426   7.061   0.379  0.6267  0.5736 -0.4212
  858MOL0     C15759   1.420   7.075   0.529  0.6023  0.5422  0.9919
  858MOL0     C15760   1.433   7.116   0.649 -0.2050 -0.7855  0.7201
  858MOL0     C15761   1.761   6.602   0.681  0.1873 -0.3651 -0.8921
  858MOL0     C15762   1.827   6.498   0.745 -0.0418  0.5204  0.1828
  858MOL0     H15763   2.014   6.392   1.128 -1.1218  0.0639 -1.5964
  858MOL0     H15764   2.235   6.318   1.255  1.9138 -0.8535 -0.4095
  858MOL0     H15765   2.456   5.925   1.185 -1.8869  0.2750  0.5998
  858MOL0     H15766   2.501   6.044   1.047 -0.5561 -0.4248 -0.2218
  858MOL0     H15767   2.642   6.157   1.184 -2.7310 -0.5707 -1.6660
  858MOL0     H15768   2.600   6.091   1.336 -2.7208  1.0973  0.8992
  858MOL0     H15769   2.748   5.955   1.086 -2.0789  1.5470 -1.4639
  858MOL0     H15770   2.824   6.016   1.221 -1.8008  3.0993  0.9513
  858MOL0     H15771   2.631   5.776   1.261  0.3462 -0.5566 -3.7424
  858MOL0     H15772   2.794   5.765   1.218  1.5062  0.8823  1.3931
  858MOL0     H15773   2.855   5.893   1.431  0.6416 -1.3865 -2.5198
  858MOL0     H15774   2.682   5.909   1.468  0.7022 -0.2288 -0.8541
  858MOL0     H15775   2.776   5.708   1.593  1.7592 -0.2842 -0.8288
  858MOL0     H15776   2.650   5.677   1.468 -1.2217  1.9411  2.7433
  858MOL0     H15777   2.852   5.521   1.492 -1.9946 -0.1962 -0.4419
  858MOL0     H15778   2.837   5.593   1.325  3.3650  0.5640 -1.2052
  858MOL0     H15779   3.004   5.740   1.349 -2.2295 -1.4572 -1.1732
  858MOL0     H15780   3.063   5.574   1.384 -1.1699 -0.4927 -0.9081
  858MOL0     H15781   3.087   5.519   1.679  0.3672  0.0893  2.2202
  858MOL0     H15782   3.229   5.538   1.875  0.3708  0.0130  1.7745
  858MOL0     H15783   3.370   5.631   1.832 -0.8487 -1.5923 -0.5899
  858MOL0     H15784   3.134   5.727   1.990 -0.2456  3.5458 -0.6895
  858MOL0     H15785   3.271   5.834   1.943  3.5727  0.1619 -1.5179
  858MOL0     H15786   3.438   5.685   2.056  1.0820 -0.3488  0.7983
  858MOL0     H15787   3.312   5.569   2.101  0.8188 -0.1196  0.8152
  858MOL0     H15788   3.214   5.751   2.255  1.0775  0.8635  0.7166
  858MOL0     H15789   3.341   5.871   2.195 -2.1685  1.1829  1.9106
  858MOL0     H15790   3.595   5.583   2.379 -0.6160  2.1447 -0.4496
  858MOL0     H15791   3.619   5.307   2.616 -0.9507 -0.3627 -0.8975
  858MOL0     H15792   3.642   5.269   2.441 -1.0060  0.9396 -1.5178
  858MOL0     H15793   3.713   5.418   2.525  1.0602 -0.0544 -0.3053
  858MOL0     H15794   3.599   4.974   2.574  3.2727  0.4398  2.3573
  858MOL0     H15795   3.640   4.773   2.718  1.2592  0.6550  0.2634
  858MOL0     H15796   3.383   4.678   3.104  1.3910 -1.0768  0.7197
  858MOL0     H15797   3.280   4.681   2.968 -0.1678  0.6531  2.8325
  858MOL0     H15798   3.429   4.461   3.082  0.0070 -3.8088  0.3681
  858MOL0     H15799   3.269   4.460   3.024  1.8678 -1.3437  0.7517
  858MOL0     H15800   3.506   4.470   2.851 -1.1545  0.0471  0.1023
  858MOL0     H15801   3.353   4.491   2.773  0.2059 -2.1213 -2.0278
  858MOL0     H15802   3.448   4.250   2.931  0.4775 -3.3584 -1.3721
  858MOL0     H15803   3.273   4.293   2.871  0.5405  1.9452 -0.4850
  858MOL0     H15804   3.352   4.257   2.637  1.2555 -0.2896 -1.1629
  858MOL0     H15805   3.393   4.125   2.727  0.2005  0.2199 -4.2839
  858MOL0     H15806   3.595   4.344   2.664 -0.0138 -0.2438 -3.3586
  858MOL0     H15807   3.621   4.218   2.780  1.2031 -0.7880 -0.8473
  858MOL0     H15808   3.529   4.136   2.489  0.7683 -0.6838 -0.4386
  858MOL0     H15809   3.584   4.036   2.621  0.0562  0.5982  1.6025
  858MOL0     H15810   3.745   4.071   2.441  0.1758 -2.7758  2.1834
  858MOL0     H15811   3.814   4.142   2.585 -1.0775 -0.1763  0.9752
  858MOL0     H15812   3.301   4.875   2.950  0.9917 -1.3097  0.4547
  858MOL0     H15813   3.236   5.049   2.788 -0.0010  0.6834  0.5676
  858MOL0     H15814   3.166   5.421   2.531  1.5646 -1.4519  3.0607
  858MOL0     H15815   3.177   5.606   2.409  0.7953  1.0968 -1.0731
  858MOL0     H15816   2.299   6.021   0.970  1.4525 -0.1950  1.7647
  858MOL0     H15817   2.112   6.111   0.828  0.6848  1.9443 -0.4760
  858MOL0     H15818   1.666   6.222   0.639  2.7359 -0.5383  1.1031
  858MOL0     H15819   1.522   6.396   0.532  0.0745  0.6249 -0.7872
  858MOL0     H15820   1.599   6.847   0.574 -0.4952  1.9944 -2.2196
  858MOL0     H15821   1.710   6.780   0.447  0.3860  2.1884 -1.6774
  858MOL0     H15822   1.399   6.806   0.433  0.2777  1.0883  2.0151
  858MOL0     H15823   1.504   6.749   0.306 -0.2031 -0.9048  0.3590
  858MOL0     H15824   1.520   6.942   0.228 -1.4020  0.4785  1.0458
  858MOL0     H15825   1.626   6.994   0.353 -1.6081  2.4594 -0.3486
  858MOL0     H15826   1.331   7.029   0.337  0.2932  0.9741  0.0143
  858MOL0     H15827   1.456   7.160   0.343  1.5733  0.6469  0.5016
  858MOL0     H15828   1.440   7.165   0.744 -0.0722  2.0844 -0.6751
  858MOL0     H15829   1.812   6.697   0.696 -2.5852  1.2061 -0.8082
  858MOL0     H15830   1.915   6.532   0.800 -0.7935  1.9083  0.5723
  859MOL0     O15831   5.176   7.010   2.448  0.8047  0.8841 -0.5120
  859MOL0     C15832   5.078   6.932   2.429 -0.3131  0.5305 -0.6159
  859MOL0     O15833   5.086   6.817   2.363  0.2241 -0.2093  0.1212
  859MOL0     C15834   5.187   6.805   2.268  1.3627  0.0600 -0.6320
  859MOL0     C15835   5.192   6.886   2.159  0.2840  0.0250 -0.1704
  859MOL0     C15836   5.291   6.880   2.061 -0.0947  0.5939  0.5957
  859MOL0     C15837   5.384   6.775   2.067 -0.2248  0.0579 -0.0388
  859MOL0     O15838   5.478   6.764   1.971 -0.4497 -0.6237  0.4483
  859MOL0     C15839   5.494   6.635   1.921  0.0223  0.8370 -0.4268
  859MOL0     C15840   5.644   6.627   1.889  0.3337 -0.9948  0.3131
  859MOL0     C15841   5.688   6.707   1.761 -0.5130  0.0541  0.3924
  859MOL0     C15842   5.689   6.626   1.624  0.3806  0.1648 -0.4831
  859MOL0     C15843   5.696   6.722   1.500  0.9943 -0.6265 -1.5730
  859MOL0     C15844   5.701   6.646   1.371 -1.1384 -0.3443 -0.1078
  859MOL0     C15845   5.676   6.725   1.234 -0.0874 -0.1787  0.2115
  859MOL0     C15846   5.532   6.788   1.223 -0.2131  0.5995  0.1823
  859MOL0     N15847   5.530   6.865   1.101  0.4575 -0.5826  0.0378
  859MOL0     C15848   5.454   6.839   0.990  0.6026  0.0915 -0.4889
  859MOL0     C15849   5.450   6.951   0.929  0.7825 -0.3455 -0.5452
  859MOL0     C15850   5.363   6.970   0.805  0.9949 -0.0968  0.8279
  859MOL0     C15851   5.244   7.064   0.846 -0.2827 -0.5113  1.1942
  859MOL0     C15852   5.147   7.113   0.730 -0.6228 -0.1682 -0.1756
  859MOL0     C15853   5.031   7.198   0.783  0.4955  0.4431  0.0147
  859MOL0     O15854   4.954   7.223   0.662  0.3610 -0.2935  0.0397
  859MOL0     C15855   4.836   7.293   0.668  0.0680 -0.4249  0.0264
  859MOL0     C15856   4.780   7.365   0.779 -0.7172 -0.3376 -0.2815
  859MOL0     C15857   4.677   7.459   0.759  1.2067  0.7311 -0.2745
  859MOL0     C15858   4.635   7.539   0.884 -0.8406 -0.3600 -0.2940
  859MOL0     C15859   4.613   7.465   0.634 -0.3514  0.2303  0.3127
  859MOL0     C15860   4.499   7.556   0.594  0.7580  0.8625  0.7023
  859MOL0     O15861   4.454   7.531   0.466 -0.2350 -0.2191 -0.9870
  859MOL0     C15862   4.361   7.616   0.421  0.6356 -0.6931 -0.0563
  859MOL0     C15863   4.409   7.720   0.333 -0.1716 -0.4723 -0.0372
  859MOL0     C15864   4.314   7.800   0.274  0.3112 -0.7041 -0.8326
  859MOL0     C15865   4.179   7.778   0.304 -0.0986 -0.1808  0.3710
  859MOL0     O15866   4.094   7.863   0.244  0.2655 -0.8340 -0.5314
  859MOL0     C15867   3.980   7.809   0.191  0.7335  0.5382  0.4953
  859MOL0     C15868   3.927   7.883   0.064  0.7460 -0.3701 -0.6221
  859MOL0     C15869   3.868   8.017   0.099  0.7946  0.3806 -0.0042
  859MOL0     C15870   3.866   8.111  -0.024  0.0751 -0.1962 -0.0535
  859MOL0     C15871   3.806   8.253   0.014 -0.1543  0.6887 -0.1156
  859MOL0     C15872   3.886   8.327   0.120 -0.2156  0.5149 -0.7366
  859MOL0     C15873   3.878   8.478   0.104 -0.6404  0.1387 -0.6789
  859MOL0     C15874   4.011   8.554   0.129  0.8770 -0.5498  0.4380
  859MOL0    Cl15875   3.999   8.718   0.204  0.1026  0.1280 -0.1949
  859MOL0     C15876   4.137   7.678   0.388  0.8931  0.5447 -0.3932
  859MOL0     C15877   4.229   7.594   0.448  0.7737  0.0291  1.2696
  859MOL0     O15878   4.444   7.629   0.671  0.6277  0.6555 -0.2594
  859MOL0     C15879   4.671   7.399   0.525  1.1267 -0.6521  0.0898
  859MOL0     C15880   4.784   7.315   0.544  1.0637 -0.4651 -0.0741
  859MOL0     N15881   5.535   7.045   0.995 -0.1002  1.0631  0.2084
  859MOL0     N15882   5.585   6.992   1.098  0.3392 -0.1155 -0.1454
  859MOL0     C15883   5.378   6.680   2.177  0.9086  0.7619 -0.0122
  859MOL0     C15884   5.279   6.701   2.277 -0.0423 -0.5521  1.1133
  859MOL0     C15885   4.960   6.967   2.519  0.2591 -0.0567 -0.3706
  859MOL0     C15886   4.840   6.885   2.520  0.3507 -0.0928  0.4582
  859MOL0     C15887   4.726   6.934   2.590 -0.0027 -0.1938  0.9197
  859MOL0     C15888   4.726   7.048   2.672 -0.1452  1.7267  0.3065
  859MOL0     O15889   4.618   7.072   2.756 -0.6509  0.2543 -0.9551
  859MOL0     C15890   4.557   7.200   2.732 -0.4002  1.1309 -0.8897
  859MOL0     C15891   4.416   7.184   2.785  0.5361  0.2157  0.9101
  859MOL0     C15892   4.352   7.331   2.807 -0.1551  0.8435 -0.6935
  859MOL0     C15893   4.221   7.308   2.878 -0.5195  0.2026  0.5669
  859MOL0     C15894   4.135   7.227   2.790 -0.6202 -0.0936  0.6285
  859MOL0     C15895   4.106   7.139   2.708 -0.4822  0.3279 -0.8809
  859MOL0     C15896   4.845   7.126   2.659 -0.7884 -0.1138  0.0906
  859MOL0     C15897   4.957   7.085   2.586  0.2826 -0.0851 -0.9189
  859MOL0     H15898   5.113   6.959   2.151 -0.3127 -0.8409 -3.3282
  859MOL0     H15899   5.304   6.942   1.973 -1.2409 -0.4832 -0.3644
  859MOL0     H15900   5.459   6.557   1.989 -0.0415  2.4217  1.4270
  859MOL0     H15901   5.441   6.633   1.825  1.8816 -3.8090 -1.5928
  859MOL0     H15902   5.703   6.661   1.975 -0.7951 -1.5688  1.3509
  859MOL0     H15903   5.665   6.520   1.876 -0.6840 -1.2971  1.0773
  859MOL0     H15904   5.636   6.803   1.760 -0.1865  0.2323 -0.5395
  859MOL0     H15905   5.794   6.732   1.773 -0.9364  1.7251  0.9525
  859MOL0     H15906   5.780   6.565   1.631  0.2847  0.1751  3.4563
  859MOL0     H15907   5.607   6.554   1.626  1.5379 -1.2700  2.6504
  859MOL0     H15908   5.606   6.784   1.510  2.6204  1.5343  1.2104
  859MOL0     H15909   5.780   6.791   1.511  0.5817 -0.1604 -1.2900
  859MOL0     H15910   5.801   6.603   1.359  0.1767  2.5517 -0.6209
  859MOL0     H15911   5.634   6.560   1.362  0.8836 -2.1570  1.2306
  859MOL0     H15912   5.747   6.806   1.220 -1.8657  1.3219 -0.6278
  859MOL0     H15913   5.693   6.652   1.154  1.6734 -1.1615  1.4094
  859MOL0     H15914   5.530   6.861   1.304  4.6554 -0.0917  1.2756
  859MOL0     H15915   5.456   6.710   1.233  0.8151 -0.4157  0.2966
  859MOL0     H15916   5.403   6.746   0.963  0.2688 -0.0270  0.5263
  859MOL0     H15917   5.417   7.012   0.720 -0.1440  0.7839  0.5222
  859MOL0     H15918   5.318   6.876   0.772 -1.3868  1.2472  0.0150
  859MOL0     H15919   5.279   7.158   0.890 -0.6838  1.3827 -2.1941
  859MOL0     H15920   5.186   6.993   0.906 -1.6435 -2.7241 -2.3781
  859MOL0     H15921   5.096   7.022   0.697 -1.6433  0.1406  0.5083
  859MOL0     H15922   5.210   7.163   0.656  0.6492 -0.4636  0.6756
  859MOL0     H15923   5.066   7.298   0.810 -0.0047  0.1478  1.8927
  859MOL0     H15924   4.969   7.162   0.865 -2.1460  2.2884 -1.0313
  859MOL0     H15925   4.828   7.356   0.876  0.2969 -0.8787 -0.8183
  859MOL0     H15926   4.698   7.626   0.902  0.1450 -0.6240 -2.2533
  859MOL0     H15927   4.531   7.572   0.875 -0.5499 -0.0143 -3.2395
  859MOL0     H15928   4.654   7.489   0.980  2.3544  1.0988 -0.0632
  859MOL0     H15929   4.515   7.734   0.319  0.2421 -2.9657  0.0988
  859MOL0     H15930   4.352   7.877   0.208 -1.4442 -2.3659 -3.9786
  859MOL0     H15931   4.004   7.707   0.159 -0.2183  0.0881  1.1513
  859MOL0     H15932   3.904   7.808   0.270 -0.6156  1.2330 -0.7468
  859MOL0     H15933   4.011   7.889  -0.006  2.2456 -4.9650  0.4066
  859MOL0     H15934   3.849   7.820   0.020  3.6738 -3.6172 -1.6728
  859MOL0     H15935   3.941   8.055   0.172  2.3514 -1.1570 -0.6858
  859MOL0     H15936   3.769   8.012   0.146  2.6516 -1.6159  4.2708
  859MOL0     H15937   3.966   8.118  -0.066  0.3442 -1.6639  0.2950
  859MOL0     H15938   3.793   8.077  -0.097  1.2368 -0.0792 -1.3025
  859MOL0     H15939   3.703   8.237   0.047 -1.1635  1.2786 -2.7261
  859MOL0     H15940   3.797   8.311  -0.079  1.8892  0.2269 -0.6741
  859MOL0     H15941   3.853   8.306   0.222  2.5069  2.2331  0.6160
  859MOL0     H15942   3.990   8.295   0.114 -0.2466 -0.5813  2.5308
  859MOL0     H15943   3.814   8.525   0.179  1.7698  1.7607  0.4873
  859MOL0     H15944   3.843   8.505   0.004 -1.0894 -1.6913 -1.0479
  859MOL0     H15945   4.061   8.565   0.032  0.8020 -0.8480  0.3668
  859MOL0     H15946   4.081   8.496   0.190  0.6731  1.5163  2.8050
  859MOL0     H15947   4.029   7.670   0.399  0.9593 -1.3619 -0.7459
  859MOL0     H15948   4.202   7.520   0.523  0.7788 -1.8397 -0.4762
  859MOL0     H15949   4.648   7.398   0.419  2.0623 -3.2745 -0.1614
  859MOL0     H15950   4.819   7.269   0.452 -1.2404 -0.0643 -1.2405
  859MOL0     H15951   5.453   6.604   2.199 -1.2367 -1.6476 -0.6120
  859MOL0     H15952   5.275   6.635   2.363 -1.6800  0.4106  1.8250
  859MOL0     H15953   4.839   6.791   2.466 -1.6120 -0.9111  1.8028
  859MOL0     H15954   4.634   6.876   2.593 -0.8375  1.1364  2.0653
  859MOL0     H15955   4.603   7.272   2.800 -2.5002  0.1262  1.7784
  859MOL0     H15956   4.574   7.232   2.629 -0.1352  2.4964 -0.4413
  859MOL0     H15957   4.414   7.130   2.880 -1.3034  0.2258  0.9025
  859MOL0     H15958   4.361   7.128   2.709  0.6361 -1.5921  2.1138
  859MOL0     H15959   4.333   7.387   2.716  1.0470 -0.2514 -1.6538
  859MOL0     H15960   4.408   7.394   2.877  0.2175  1.8462 -1.8845
  859MOL0     H15961   4.177   7.400   2.917  1.1270 -0.2809  3.8999
  859MOL0     H15962   4.246   7.258   2.972  2.6677 -0.9943 -0.7559
  859MOL0     H15963   4.078   7.074   2.629  1.2745 -1.9717  0.2566
  859MOL0     H15964   4.851   7.226   2.702  0.9239  0.1886 -0.7542
  859MOL0     H15965   5.043   7.151   2.592 -0.2802  0.6300 -0.5079
  860MOL0     O15966   9.547   2.113   4.376  0.7941  0.2928  0.7914
  860MOL0     C15967   9.461   2.031   4.366 -0.0678 -0.0832 -0.0441
  860MOL0     O15968   9.358   2.040   4.276  0.2349 -0.5838  0.0538
  860MOL0     C15969   9.335   2.130   4.170 -0.1841 -0.1757 -1.0412
  860MOL0     C15970   9.411   2.247   4.145 -1.1378 -0.4373  0.6925
  860MOL0     C15971   9.364   2.334   4.036 -0.9147  0.3887 -0.2453
  860MOL0     C15972   9.249   2.300   3.955  0.0042  0.7856  0.4580
  860MOL0     O15973   9.221   2.392   3.854  0.6037 -0.0738 -0.6181
  860MOL0     C15974   9.109   2.367   3.761 -0.2840 -0.7966  0.0956
  860MOL0     C15975   9.089   2.497   3.677 -0.4756  0.4427 -0.2908
  860MOL0     C15976   9.228   2.536   3.611  0.0014  0.3001 -0.2152
  860MOL0     C15977   9.229   2.652   3.515  0.4414  1.6763  0.0503
  860MOL0     C15978   9.119   2.653   3.403  0.6151  0.9064  0.0021
  860MOL0     C15979   9.006   2.739   3.438  0.6245 -0.1976  0.2482
  860MOL0     C15980   8.914   2.788   3.322  0.7378  0.8574  0.3563
  860MOL0     C15981   8.834   2.676   3.271  0.1917  0.9301  0.1551
  860MOL0     N15982   8.738   2.719   3.165 -0.2979  0.6488 -0.1176
  860MOL0     C15983   8.726   2.668   3.037 -0.4657  0.0862 -0.5022
  860MOL0     C15984   8.611   2.724   2.987 -0.0413  0.5816 -1.0393
  860MOL0     C15985   8.529   2.679   2.873 -0.0961 -0.0960  0.1223
  860MOL0     C15986   8.430   2.562   2.895  0.7218  0.5644  0.1414
  860MOL0     C15987   8.330   2.515   2.782  0.3607  1.1576 -0.1611
  860MOL0     C15988   8.421   2.493   2.653 -0.2181 -0.9686 -0.2489
  860MOL0     O15989   8.365   2.404   2.558  0.0781 -0.3416  0.1574
  860MOL0     C15990   8.256   2.443   2.481  0.3575 -0.3323  0.0726
  860MOL0     C15991   8.203   2.347   2.399  0.3407  0.4845 -0.3503
  860MOL0     C15992   8.086   2.371   2.321  0.1938 -0.7966 -0.4224
  860MOL0     C15993   8.038   2.246   2.244  0.1227 -0.6047 -1.1115
  860MOL0     C15994   8.016   2.500   2.321  0.7118  0.9046  0.7437
  860MOL0     C15995   7.896   2.533   2.228 -0.5070  0.4615  1.0136
  860MOL0     O15996   7.842   2.654   2.226  0.1504 -0.0482 -0.5565
  860MOL0     C15997   7.717   2.679   2.174 -0.1767 -0.3617  0.2552
  860MOL0     C15998   7.618   2.591   2.135  0.4207 -0.1874 -0.2151
  860MOL0     C15999   7.498   2.636   2.082 -1.0660  0.1891  0.1311
  860MOL0     C16000   7.486   2.770   2.044  0.9265 -0.9227  0.6010
  860MOL0     O16001   7.368   2.811   1.985 -0.4445  0.9420  0.1699
  860MOL0     C16002   7.349   2.757   1.849 -0.4769 -0.7137 -0.3766
  860MOL0     C16003   7.323   2.870   1.738  0.1420  0.0585 -0.9503
  860MOL0     C16004   7.301   2.820   1.596 -0.3543 -0.9141 -0.0074
  860MOL0     C16005   7.289   2.935   1.495  0.1442  0.5984 -0.1422
  860MOL0     C16006   7.253   2.883   1.355 -0.5246  0.6406  0.2093
  860MOL0     C16007   7.368   2.800   1.291 -0.6407  0.4799  0.3939
  860MOL0     C16008   7.337   2.763   1.141 -0.2191 -0.0101 -0.4020
  860MOL0     C16009   7.471   2.769   1.065  1.0779 -0.1877 -0.0403
  860MOL0    Cl16010   7.452   2.920   0.969  0.4582 -0.1641 -0.0605
  860MOL0     C16011   7.584   2.863   2.083  0.7874 -0.2951  0.1728
  860MOL0     C16012   7.698   2.812   2.152  0.2701 -0.4773  0.6399
  860MOL0     O16013   7.865   2.439   2.149 -0.0667 -1.1255 -0.1714
  860MOL0     C16014   8.072   2.600   2.401 -1.2918  1.1182 -0.1313
  860MOL0     C16015   8.196   2.570   2.472 -0.3722  1.0543 -0.3496
  860MOL0     N16016   8.563   2.814   3.078 -0.2893 -0.1621 -0.1252
  860MOL0     N16017   8.636   2.804   3.190 -0.7749 -0.2034  0.4600
  860MOL0     C16018   9.183   2.169   3.979  0.0031 -0.1471 -0.8416
  860MOL0     C16019   9.225   2.100   4.093 -0.0207  0.8532  0.3115
  860MOL0     C16020   9.484   1.916   4.450 -0.4697  0.0377 -0.4125
  860MOL0     C16021   9.396   1.814   4.446  0.4354  0.4074  0.3135
  860MOL0     C16022   9.416   1.694   4.520  0.0016 -0.3955  0.5420
  860MOL0     C16023   9.531   1.683   4.599 -0.7306  0.6627  0.1171
  860MOL0     O16024   9.542   1.565   4.666  0.3243 -0.4733 -0.0803
  860MOL0     C16025   9.588   1.571   4.807 -0.2301  0.3398 -0.3448
  860MOL0     C16026   9.614   1.428   4.859 -0.4544 -0.3818 -0.1337
  860MOL0     C16027   9.500   1.368   4.935  0.1989  0.6403  0.1480
  860MOL0     C16028   9.366   1.341   4.846 -0.9385 -0.9934 -0.5073
  860MOL0     C16029   9.400   1.246   4.736  0.4654 -0.2433 -0.1422
  860MOL0     C16030   9.414   1.168   4.645  0.3280  0.5014 -0.2637
  860MOL0     C16031   9.625   1.788   4.607 -0.1034  0.8107  0.6071
  860MOL0     C16032   9.610   1.899   4.528  0.0402 -0.0229 -0.0646
  860MOL0     H16033   9.503   2.276   4.195 -0.9977  1.2658 -0.4750
  860MOL0     H16034   9.427   2.418   4.006  0.2065 -0.1396  0.5838
  860MOL0     H16035   9.124   2.273   3.707 -2.0003 -4.0027  4.5614
  860MOL0     H16036   9.013   2.356   3.812 -0.0719  0.9249  0.9297
  860MOL0     H16037   9.013   2.471   3.602 -0.3655 -2.8724  0.5949
  860MOL0     H16038   9.062   2.588   3.732 -1.3676 -0.4794  0.8624
  860MOL0     H16039   9.281   2.567   3.701 -0.4321  0.9426 -0.1757
  860MOL0     H16040   9.278   2.447   3.571  2.5691  0.2643  2.7145
  860MOL0     H16041   9.236   2.748   3.567 -1.1822  0.4126  2.8827
  860MOL0     H16042   9.324   2.635   3.462  0.6984 -1.4297  1.2765
  860MOL0     H16043   9.160   2.698   3.312  1.9740  0.8288  0.5407
  860MOL0     H16044   9.096   2.552   3.368  3.6812 -0.6083  1.8794
  860MOL0     H16045   8.947   2.686   3.513  3.5211 -1.3909  1.8419
  860MOL0     H16046   9.050   2.824   3.492 -0.1051  0.2292  0.1814
  860MOL0     H16047   8.845   2.858   3.370  1.4079  1.3689  0.5815
  860MOL0     H16048   8.958   2.841   3.238  1.4179 -2.6402 -1.6856
  860MOL0     H16049   8.780   2.626   3.352 -2.6758  1.9735 -0.9677
  860MOL0     H16050   8.908   2.612   3.222  0.2516  1.6158 -0.6866
  860MOL0     H16051   8.782   2.593   2.982 -0.5654  0.8144 -1.6212
  860MOL0     H16052   8.470   2.767   2.843  0.5469 -0.3454 -1.9891
  860MOL0     H16053   8.598   2.657   2.792  0.3542 -1.0275  0.7463
  860MOL0     H16054   8.368   2.599   2.977  2.2505  1.0710  1.1143
  860MOL0     H16055   8.486   2.480   2.941  0.1565 -0.9009 -1.6702
  860MOL0     H16056   8.264   2.601   2.769  1.6937  2.6351  2.1102
  860MOL0     H16057   8.285   2.428   2.829  2.4512  2.2122  4.3252
  860MOL0     H16058   8.523   2.459   2.675  0.3143 -0.6347 -1.9735
  860MOL0     H16059   8.436   2.585   2.595  2.8750 -1.4855 -0.4667
  860MOL0     H16060   8.252   2.251   2.406 -1.8813 -0.6563  1.0330
  860MOL0     H16061   8.018   2.261   2.138 -0.9900  2.1948 -0.5906
  860MOL0     H16062   8.117   2.170   2.246  1.3271  0.5903 -1.4764
  860MOL0     H16063   7.946   2.212   2.292 -0.0849  1.3235 -0.0013
  860MOL0     H16064   7.629   2.485   2.156  0.1153 -0.2384 -0.3020
  860MOL0     H16065   7.418   2.567   2.062  0.7795 -2.0255 -0.0664
  860MOL0     H16066   7.430   2.691   1.818 -1.1258 -1.0572 -1.3831
  860MOL0     H16067   7.260   2.693   1.859 -0.1465 -0.9626  1.3721
  860MOL0     H16068   7.232   2.922   1.770 -1.3398 -2.5073 -0.7044
  860MOL0     H16069   7.407   2.940   1.744 -0.1169  0.4817 -2.0190
  860MOL0     H16070   7.203   2.772   1.588 -1.2435  0.8673 -0.4186
  860MOL0     H16071   7.385   2.758   1.563  0.3196  0.4823 -1.0302
  860MOL0     H16072   7.217   3.013   1.522 -0.2449 -0.0443  0.7313
  860MOL0     H16073   7.388   2.979   1.480  1.4636 -2.3069 -0.7295
  860MOL0     H16074   7.230   2.970   1.293  3.0024  2.3316  1.0445
  860MOL0     H16075   7.160   2.826   1.355 -0.9058  1.2492  1.1185
  860MOL0     H16076   7.469   2.835   1.314  0.9375 -2.7926 -0.9068
  860MOL0     H16077   7.379   2.703   1.340 -0.5719  1.1678  1.8034
  860MOL0     H16078   7.264   2.833   1.100  0.7385  1.7429  0.7912
  860MOL0     H16079   7.302   2.659   1.150  1.5180 -0.6257 -0.2442
  860MOL0     H16080   7.485   2.683   1.000  3.3331  1.1013 -1.3924
  860MOL0     H16081   7.563   2.780   1.123  1.3944 -2.8522  0.0433
  860MOL0     H16082   7.575   2.966   2.052  1.6599  0.1538  1.3393
  860MOL0     H16083   7.777   2.881   2.178 -1.1305  0.2274  3.4387
  860MOL0     H16084   8.041   2.704   2.392 -0.0092  1.8510  2.7942
  860MOL0     H16085   8.255   2.641   2.530 -0.8157 -0.7988  2.5709
  860MOL0     H16086   9.095   2.125   3.933  0.5405 -0.2416 -1.8057
  860MOL0     H16087   9.181   2.005   4.122  0.6357  0.2700 -0.5662
  860MOL0     H16088   9.305   1.818   4.387  0.0801 -3.4283  0.3277
  860MOL0     H16089   9.346   1.611   4.514 -0.6743  0.2536 -0.8279
  860MOL0     H16090   9.686   1.619   4.812 -0.4558  1.0285 -1.7958
  860MOL0     H16091   9.512   1.630   4.861  1.0689  1.8779 -0.1187
  860MOL0     H16092   9.699   1.432   4.927  0.1542  1.2211 -0.9415
  860MOL0     H16093   9.629   1.355   4.779 -4.2633 -1.7664  0.1961
  860MOL0     H16094   9.475   1.433   5.019 -3.8215 -3.0434  2.2087
  860MOL0     H16095   9.533   1.272   4.977  1.4066  0.7206 -0.5632
  860MOL0     H16096   9.333   1.434   4.798  0.5960 -0.7428 -1.1343
  860MOL0     H16097   9.289   1.301   4.912  0.0872  1.3837  2.3436
  860MOL0     H16098   9.417   1.105   4.557  0.4997 -0.4377  0.3968
  860MOL0     H16099   9.714   1.772   4.666  0.2800 -0.7650 -0.3461
  860MOL0     H16100   9.686   1.976   4.523 -0.0952  0.2460  1.3576
  861MOL0     O16101   3.270   0.405   7.773 -0.0918 -0.6915  0.4148
  861MOL0     C16102   3.166   0.347   7.770 -0.8541  0.0805  0.0598
  861MOL0     O16103   3.146   0.217   7.768 -0.6625 -0.6332  0.2010
  861MOL0     C16104   3.248   0.124   7.803  0.1612  0.4563  0.1558
  861MOL0     C16105   3.383   0.144   7.840 -0.1381 -0.5491 -0.0280
  861MOL0     C16106   3.464   0.038   7.885  0.5243 -0.8214 -0.3114
  861MOL0     C16107   3.412  -0.086   7.888 -0.1334  0.1198  0.5243
  861MOL0     O16108   3.475  -0.195   7.945 -0.2027  0.5165 -0.7204
  861MOL0     C16109   3.582  -0.241   7.867 -0.3852 -0.3148 -0.0061
  861MOL0     C16110   3.636  -0.362   7.933  0.5668  0.1665 -0.0684
  861MOL0     C16111   3.769  -0.416   7.861 -0.0993 -0.3606 -0.9207
  861MOL0     C16112   3.801  -0.551   7.899  0.7586  0.0121  0.0970
  861MOL0     C16113   3.925  -0.589   7.823  0.2811  0.5164  1.2913
  861MOL0     C16114   4.047  -0.501   7.845  0.0288  0.7860 -0.0754
  861MOL0     C16115   4.183  -0.568   7.794 -0.0766  0.2411 -0.1931
  861MOL0     C16116   4.205  -0.544   7.647 -1.0066  0.3049  0.5855
  861MOL0     N16117   4.334  -0.606   7.610  0.1654 -0.5416 -1.2822
  861MOL0     C16118   4.370  -0.736   7.635 -0.6777  0.5382 -0.1804
  861MOL0     C16119   4.506  -0.736   7.615 -0.1792 -1.0719 -0.3856
  861MOL0     C16120   4.597  -0.857   7.624  0.1294  0.1247  0.0445
  861MOL0     C16121   4.573  -0.952   7.742  0.0765 -0.4846  0.2313
  861MOL0     C16122   4.650  -1.084   7.758 -1.1445  0.2911 -0.3827
  861MOL0     C16123   4.804  -1.073   7.731 -0.3852  0.5868  0.1508
  861MOL0     O16124   4.866  -1.202   7.697 -0.0458 -0.5730  0.2353
  861MOL0     C16125   5.000  -1.191   7.676  0.1314  1.0145 -0.1185
  861MOL0     C16126   5.082  -1.078   7.695 -0.5885  0.2146 -0.0397
  861MOL0     C16127   5.223  -1.078   7.668 -0.1091 -0.0029 -0.7660
  861MOL0     C16128   5.299  -0.954   7.691  0.1605 -1.0660 -0.1034
  861MOL0     C16129   5.288  -1.201   7.636 -0.1420  0.5205  0.8805
  861MOL0     C16130   5.433  -1.225   7.646 -0.1090 -0.0092  0.0809
  861MOL0     O16131   5.515  -1.125   7.703  0.7457  0.9361  0.0135
  861MOL0     C16132   5.643  -1.152   7.726  0.0911 -0.3083 -0.8879
  861MOL0     C16133   5.712  -1.279   7.743 -0.2394 -0.1974 -1.4350
  861MOL0     C16134   5.845  -1.289   7.777 -0.4462 -0.9480  0.0884
  861MOL0     C16135   5.922  -1.173   7.805  0.2634  0.0671 -0.2337
  861MOL0     O16136   6.059  -1.189   7.828 -0.5825 -0.1639 -0.3767
  861MOL0     C16137   6.125  -1.064   7.869 -0.0499 -0.0067 -0.4633
  861MOL0     C16138   6.265  -1.090   7.926  0.9052  0.8537  0.9893
  861MOL0     C16139   6.349  -1.157   7.825 -0.2826 -0.0048  0.0113
  861MOL0     C16140   6.489  -1.196   7.869  0.0009  1.1082  0.7290
  861MOL0     C16141   6.479  -1.337   7.938 -0.0946  0.3793 -0.6511
  861MOL0     C16142   6.607  -1.408   7.978 -0.3900 -0.0066  1.0413
  861MOL0     C16143   6.613  -1.557   7.937  0.0267  0.8417 -0.5227
  861MOL0     C16144   6.748  -1.618   7.972 -1.1689  0.0295 -0.0919
  861MOL0    Cl16145   6.880  -1.563   7.858 -0.3125  0.6076 -0.2428
  861MOL0     C16146   5.859  -1.048   7.790  0.2217  0.2659  0.1355
  861MOL0     C16147   5.723  -1.041   7.749 -0.6267  0.0551 -0.1636
  861MOL0     O16148   5.476  -1.313   7.570  0.6424  0.6854 -0.4346
  861MOL0     C16149   5.203  -1.309   7.600 -0.6159  0.0106 -1.1762
  861MOL0     C16150   5.068  -1.300   7.617  0.1518 -0.1840 -0.7921
  861MOL0     N16151   4.543  -0.610   7.573  0.2078 -0.5654 -0.0910
  861MOL0     N16152   4.439  -0.533   7.565 -0.1257  0.1330  0.8914
  861MOL0     C16153   3.283  -0.108   7.844  0.2895  0.5285 -0.5407
  861MOL0     C16154   3.205  -0.007   7.806  1.5619  0.1138 -0.0891
  861MOL0     C16155   3.044   0.430   7.747  0.4000  0.1402  0.5185
  861MOL0     C16156   2.914   0.374   7.741 -0.1252  0.3431  1.0662
  861MOL0     C16157   2.810   0.450   7.699 -0.8981 -0.0640  0.1059
  861MOL0     C16158   2.817   0.585   7.670  0.2471 -0.2857  0.1741
  861MOL0     O16159   2.702   0.642   7.630  0.3593 -0.2142 -0.0284
  861MOL0     C16160   2.667   0.773   7.669  0.0925  0.8688 -0.0064
  861MOL0     C16161   2.514   0.782   7.686  0.4222 -0.8658  0.3793
  861MOL0     C16162   2.436   0.782   7.550  1.0890  0.0568  0.4898
  861MOL0     C16163   2.312   0.869   7.561  0.5143 -0.3045  0.4008
  861MOL0     C16164   2.222   0.796   7.655  0.1524  0.5028 -0.1595
  861MOL0     C16165   2.158   0.729   7.735  0.4847 -0.0606  0.4621
  861MOL0     C16166   2.940   0.648   7.709  0.0611 -0.6830  0.7510
  861MOL0     C16167   3.057   0.571   7.735 -0.0184 -0.1370  0.2154
  861MOL0     H16168   3.426   0.244   7.844  3.7507 -2.0726  3.0083
  861MOL0     H16169   3.559   0.062   7.932  2.1198 -0.9573 -3.2547
  861MOL0     H16170   3.553  -0.261   7.764 -1.9278  0.7723  0.1852
  861MOL0     H16171   3.662  -0.167   7.877 -1.7513  1.2810 -0.4408
  861MOL0     H16172   3.663  -0.334   8.035  0.6686  0.2553 -0.1200
  861MOL0     H16173   3.565  -0.445   7.938  3.5756 -2.5635  0.7250
  861MOL0     H16174   3.759  -0.397   7.754 -0.3211 -0.5279 -0.9282
  861MOL0     H16175   3.846  -0.348   7.902 -0.4717  0.2054 -1.1447
  861MOL0     H16176   3.820  -0.555   8.006  2.1183  1.9920 -0.0179
  861MOL0     H16177   3.717  -0.612   7.866 -0.0930  1.7825 -1.2127
  861MOL0     H16178   3.933  -0.696   7.845 -4.3693 -0.5781 -1.1119
  861MOL0     H16179   3.908  -0.592   7.715  0.5344 -0.7851  1.2721
  861MOL0     H16180   4.037  -0.401   7.801 -1.2045  0.1811 -1.2439
  861MOL0     H16181   4.060  -0.492   7.953 -0.5184 -1.5313  0.2313
  861MOL0     H16182   4.267  -0.521   7.846 -1.1061  1.0866  0.7312
  861MOL0     H16183   4.189  -0.675   7.819  1.9001  0.7266  1.7658
  861MOL0     H16184   4.201  -0.439   7.617  0.7169  0.2182 -0.0886
  861MOL0     H16185   4.123  -0.583   7.587 -2.1782 -1.5422  3.1604
  861MOL0     H16186   4.314  -0.826   7.657  2.9686 -1.4347  2.0651
  861MOL0     H16187   4.602  -0.917   7.532  0.0704 -2.0574  1.3983
  861MOL0     H16188   4.698  -0.818   7.637  1.3704 -3.3009  1.8497
  861MOL0     H16189   4.468  -0.983   7.751 -0.3106 -0.2627 -2.5211
  861MOL0     H16190   4.574  -0.894   7.835 -0.2221  1.3162 -0.8313
  861MOL0     H16191   4.614  -1.156   7.684  1.0399 -2.3290  0.9369
  861MOL0     H16192   4.637  -1.112   7.862  3.8939  0.0249  0.4404
  861MOL0     H16193   4.855  -1.034   7.819  1.3505  0.6416 -0.8338
  861MOL0     H16194   4.826  -0.994   7.658 -1.6563 -0.0461 -0.9656
  861MOL0     H16195   5.049  -0.980   7.730 -0.4038  1.0783 -2.1263
  861MOL0     H16196   5.306  -0.916   7.793  1.6669  0.3714 -0.7065
  861MOL0     H16197   5.397  -0.952   7.644 -0.9661 -0.7673 -2.6363
  861MOL0     H16198   5.250  -0.889   7.618  0.4586  0.2776  0.8759
  861MOL0     H16199   5.665  -1.375   7.723 -1.9200  0.7296 -2.1299
  861MOL0     H16200   5.877  -1.392   7.796  1.2549 -0.4473  0.1574
  861MOL0     H16201   6.139  -1.001   7.780  1.9243  0.2089 -0.0402
  861MOL0     H16202   6.064  -1.012   7.943 -2.6831 -0.1220 -2.3781
  861MOL0     H16203   6.300  -0.991   7.957 -1.6999  1.5723  1.8355
  861MOL0     H16204   6.264  -1.153   8.016 -0.6374 -0.5165  0.0578
  861MOL0     H16205   6.364  -1.094   7.737  1.2186  1.1625  1.0508
  861MOL0     H16206   6.305  -1.254   7.798  0.8435 -0.5903  0.2362
  861MOL0     H16207   6.557  -1.203   7.783  0.3777  1.0705  1.0301
  861MOL0     H16208   6.546  -1.130   7.935  2.4186  0.9906 -1.0688
  861MOL0     H16209   6.423  -1.402   7.870  1.8292  0.3077 -2.2411
  861MOL0     H16210   6.418  -1.326   8.028  2.7644  0.1150  1.4586
  861MOL0     H16211   6.694  -1.355   7.938  0.2955 -0.7516  1.5130
  861MOL0     H16212   6.609  -1.407   8.087 -3.0092 -2.9820  1.2613
  861MOL0     H16213   6.586  -1.570   7.831 -1.4770  0.1406 -0.0867
  861MOL0     H16214   6.542  -1.618   7.993  1.8810 -1.7555 -0.7925
  861MOL0     H16215   6.735  -1.726   7.973  3.1911 -0.7280  3.0610
  861MOL0     H16216   6.787  -1.594   8.071  1.1409  2.2244 -1.4031
  861MOL0     H16217   5.918  -0.960   7.814 -1.0170  0.5517  2.3864
  861MOL0     H16218   5.679  -0.943   7.735 -2.0531 -0.3233  1.3732
  861MOL0     H16219   5.241  -1.404   7.563  0.8661  1.2916 -3.1700
  861MOL0     H16220   5.000  -1.381   7.595 -4.1469  2.7259  0.5317
  861MOL0     H16221   3.248  -0.211   7.849  1.1694  0.2676  1.2129
  861MOL0     H16222   3.099  -0.030   7.803  1.7047 -0.9926  1.7635
  861MOL0     H16223   2.893   0.271   7.770 -0.3048  0.2237  0.5191
  861MOL0     H16224   2.718   0.397   7.675  0.2199 -1.4945 -1.1665
  861MOL0     H16225   2.721   0.798   7.762  1.6864  2.2603 -1.2434
  861MOL0     H16226   2.698   0.849   7.596  0.9295  2.2741  1.7111
  861MOL0     H16227   2.492   0.874   7.740  0.2076 -0.9084  0.3638
  861MOL0     H16228   2.479   0.698   7.747  1.1807 -1.0117  0.6258
  861MOL0     H16229   2.402   0.681   7.525  2.6071 -0.8937  2.0477
  861MOL0     H16230   2.504   0.820   7.473 -0.2866 -0.5538 -1.0709
  861MOL0     H16231   2.266   0.886   7.464  0.8636 -0.7415  0.1557
  861MOL0     H16232   2.335   0.970   7.595 -0.8034  0.1970 -0.1475
  861MOL0     H16233   2.091   0.677   7.801 -2.7038  0.8052 -1.8364
  861MOL0     H16234   2.954   0.755   7.704  2.2036 -0.8689  1.6183
  861MOL0     H16235   3.146   0.629   7.757  0.4335 -1.5466  2.4223
  862MOL0     O16236   8.223   4.938   5.043 -0.7361 -0.4406 -0.1113
  862MOL0     C16237   8.225   4.988   4.934 -0.2434 -1.5179  0.6625
  862MOL0     O16238   8.105   5.014   4.861 -0.8134 -0.5274 -0.0963
  862MOL0     C16239   7.993   4.966   4.915  0.3826  0.5919  0.1191
  862MOL0     C16240   7.932   4.850   4.849 -0.3748  0.0857 -0.7790
  862MOL0     C16241   7.816   4.798   4.917 -0.4033 -0.5657 -0.0318
  862MOL0     C16242   7.770   4.856   5.041 -0.9894  0.8111  1.0268
  862MOL0     O16243   7.663   4.812   5.113  0.5056  0.1648  0.4349
  862MOL0     C16244   7.539   4.749   5.057  0.3681  0.5000 -0.5614
  862MOL0     C16245   7.462   4.679   5.169 -0.8809  0.5984 -0.1665
  862MOL0     C16246   7.541   4.571   5.242 -1.3709  0.3162 -0.6580
  862MOL0     C16247   7.480   4.535   5.377 -0.5824 -0.4062  0.5522
  862MOL0     C16248   7.332   4.494   5.384 -0.4755 -0.0922  0.7687
  862MOL0     C16249   7.308   4.360   5.318  0.6963  0.0299  0.2289
  862MOL0     C16250   7.353   4.239   5.388 -0.4525  0.1811  0.0472
  862MOL0     C16251   7.286   4.223   5.515  0.3492  0.7321 -0.2721
  862MOL0     N16252   7.351   4.113   5.579 -0.5587  0.6562  0.7286
  862MOL0     C16253   7.465   4.131   5.643 -0.8657  0.6092 -0.3005
  862MOL0     C16254   7.481   4.025   5.722  0.4528 -0.2432  0.7983
  862MOL0     C16255   7.578   4.007   5.836  0.0781  0.7014 -0.2523
  862MOL0     C16256   7.699   3.909   5.798 -0.3531  0.2426  0.4129
  862MOL0     C16257   7.804   3.897   5.908  0.1876 -0.2488 -0.2831
  862MOL0     C16258   7.876   3.767   5.893 -0.0480  0.5141  0.4570
  862MOL0     O16259   7.973   3.753   5.991 -0.7140  1.0290 -0.7991
  862MOL0     C16260   8.104   3.789   5.946  0.1013  0.4310  0.3557
  862MOL0     C16261   8.138   3.883   5.847 -0.6046 -0.3031 -0.6215
  862MOL0     C16262   8.266   3.923   5.816 -0.3175 -0.0940 -0.4406
  862MOL0     C16263   8.278   4.031   5.711 -0.5035  0.2932 -1.1728
  862MOL0     C16264   8.368   3.875   5.903 -0.8133  0.6226  0.7982
  862MOL0     C16265   8.513   3.912   5.887 -0.4083  0.7611  0.3329
  862MOL0     O16266   8.552   3.963   5.767  0.5256  0.4291 -0.5768
  862MOL0     C16267   8.648   4.051   5.739 -1.6111  0.0591 -0.3384
  862MOL0     C16268   8.712   4.142   5.825  0.2626 -0.2253  0.5996
  862MOL0     C16269   8.802   4.250   5.783  0.0197  0.4032  1.0563
  862MOL0     C16270   8.829   4.256   5.655  0.1731  0.3235 -0.2868
  862MOL0     O16271   8.933   4.339   5.610 -0.3441 -0.4108 -0.5144
  862MOL0     C16272   8.998   4.309   5.491 -0.0018  0.1049  0.8728
  862MOL0     C16273   9.125   4.392   5.479 -0.1107  0.2162  0.2142
  862MOL0     C16274   9.197   4.340   5.343  0.7384  0.0694  0.3667
  862MOL0     C16275   9.347   4.330   5.342 -0.0447  0.0723 -0.5582
  862MOL0     C16276   9.394   4.283   5.208 -1.1011 -0.3430 -0.6647
  862MOL0     C16277   9.545   4.275   5.218 -0.0870 -0.3707 -0.4101
  862MOL0     C16278   9.595   4.220   5.087  0.0161  0.3585  0.0330
  862MOL0     C16279   9.609   4.332   4.981  1.1705  0.0632 -0.1403
  862MOL0    Cl16280   9.581   4.253   4.811  0.5882 -0.2304  0.0476
  862MOL0     C16281   8.763   4.171   5.564 -0.4979 -0.8890 -0.0574
  862MOL0     C16282   8.675   4.073   5.608 -0.0265  0.3994  0.2100
  862MOL0     O16283   8.597   3.888   5.975  0.0488  0.1250 -0.2183
  862MOL0     C16284   8.335   3.786   6.004 -0.1479  0.1981  1.0584
  862MOL0     C16285   8.214   3.741   6.026 -0.3944  0.6634  0.2376
  862MOL0     N16286   7.374   3.941   5.710 -0.1847  0.3096  0.1657
  862MOL0     N16287   7.292   3.996   5.621  0.4713  0.2316  0.4326
  862MOL0     C16288   7.826   4.970   5.094  0.5795 -0.6007  0.1815
  862MOL0     C16289   7.937   5.032   5.030  0.6064 -0.1664  0.1480
  862MOL0     C16290   8.351   5.045   4.882  0.1729 -0.3593  0.3100
  862MOL0     C16291   8.471   5.042   4.957 -1.5467 -0.3099 -0.3297
  862MOL0     C16292   8.601   5.084   4.909  0.8651  1.3701  0.6954
  862MOL0     C16293   8.598   5.136   4.778  0.0652 -1.1861  0.4288
  862MOL0     O16294   8.715   5.188   4.719 -0.2061 -0.6593  0.2691
  862MOL0     C16295   8.819   5.091   4.696  0.5454  0.4589 -0.5035
  862MOL0     C16296   8.957   5.137   4.730 -0.8723  1.0536  0.3890
  862MOL0     C16297   8.983   5.121   4.878  0.7129 -1.0471  0.4798
  862MOL0     C16298   9.127   5.168   4.921 -0.3627 -0.2982 -0.1034
  862MOL0     C16299   9.179   5.099   5.038 -1.4057 -0.4936  1.0252
  862MOL0     C16300   9.238   5.056   5.134 -0.4025 -0.1621  0.0594
  862MOL0     C16301   8.480   5.146   4.700  0.0873  0.0276  0.6622
  862MOL0     C16302   8.358   5.101   4.751  0.2640  0.4619 -0.2647
  862MOL0     H16303   7.970   4.812   4.755  3.0271  1.7096 -0.2045
  862MOL0     H16304   7.762   4.717   4.869  1.5186 -0.8174 -1.9385
  862MOL0     H16305   7.475   4.820   5.003 -0.6032 -0.2098 -0.3763
  862MOL0     H16306   7.571   4.675   4.982  1.5328  0.6717 -0.2462
  862MOL0     H16307   7.424   4.745   5.247 -1.1298  1.7815 -1.2568
  862MOL0     H16308   7.386   4.610   5.133 -1.0244 -0.5302  2.0954
  862MOL0     H16309   7.555   4.481   5.181  3.3817 -0.1780  0.7398
  862MOL0     H16310   7.639   4.613   5.269 -1.0844 -0.6966 -0.0714
  862MOL0     H16311   7.541   4.452   5.413 -0.5269 -1.4156 -1.7125
  862MOL0     H16312   7.503   4.619   5.444  0.2903 -0.5348  0.4183
  862MOL0     H16313   7.303   4.498   5.490  0.3958  1.7855  0.9824
  862MOL0     H16314   7.265   4.566   5.335 -2.0827 -2.8015 -1.2541
  862MOL0     H16315   7.199   4.360   5.328  0.7034  1.0211  0.3629
  862MOL0     H16316   7.324   4.357   5.209 -2.2218 -1.0810 -0.2628
  862MOL0     H16317   7.337   4.149   5.329  5.0676 -1.0974 -0.0690
  862MOL0     H16318   7.462   4.240   5.403  0.1052 -0.4724 -3.3395
  862MOL0     H16319   7.177   4.213   5.503  0.6718 -1.6689 -1.8618
  862MOL0     H16320   7.303   4.312   5.576 -0.0194  2.4791 -2.5743
  862MOL0     H16321   7.516   4.226   5.636 -0.4934  0.4553  0.2920
  862MOL0     H16322   7.606   4.110   5.860  0.0019  1.3390 -2.6993
  862MOL0     H16323   7.530   3.963   5.924  0.7402  0.5769  0.0573
  862MOL0     H16324   7.743   3.947   5.705 -0.8204 -1.1174 -0.3978
  862MOL0     H16325   7.663   3.813   5.761  3.3936 -0.6277 -1.4811
  862MOL0     H16326   7.756   3.896   6.006  2.3955  5.3706  1.2580
  862MOL0     H16327   7.875   3.981   5.899  1.7940 -1.6588 -1.5076
  862MOL0     H16328   7.911   3.759   5.790 -1.3659  1.1950 -0.0615
  862MOL0     H16329   7.808   3.683   5.909 -1.0370  1.8004  3.7551
  862MOL0     H16330   8.060   3.931   5.790  1.0830  3.0033 -0.3737
  862MOL0     H16331   8.184   4.047   5.658 -0.3036  1.6737 -1.1525
  862MOL0     H16332   8.312   4.122   5.762  2.0058 -0.4689 -1.3735
  862MOL0     H16333   8.345   4.002   5.630 -0.2496 -2.5153 -0.0879
  862MOL0     H16334   8.687   4.141   5.930  2.5076 -1.6097  1.1711
  862MOL0     H16335   8.831   4.325   5.856  1.4095  0.3874  0.5351
  862MOL0     H16336   9.017   4.202   5.481 -0.0351  0.2523 -1.0722
  862MOL0     H16337   8.928   4.345   5.415 -1.1709 -1.4935  1.1278
  862MOL0     H16338   9.097   4.498   5.484  0.5629  0.4149 -0.0411
  862MOL0     H16339   9.191   4.362   5.561  0.1667  0.3075  0.0263
  862MOL0     H16340   9.175   4.423   5.275 -0.1354  1.9852  2.7922
  862MOL0     H16341   9.141   4.248   5.327 -2.2082  2.2785 -3.8094
  862MOL0     H16342   9.380   4.433   5.360 -0.4891 -0.0895  1.4144
  862MOL0     H16343   9.401   4.284   5.425  1.3286  0.7029 -1.0638
  862MOL0     H16344   9.364   4.352   5.128 -1.4770 -0.0672 -0.2922
  862MOL0     H16345   9.355   4.182   5.191  3.2638 -2.0680 -1.5102
  862MOL0     H16346   9.579   4.374   5.249  2.0797 -1.3944  0.6833
  862MOL0     H16347   9.568   4.203   5.297 -1.4094 -0.3893 -0.0226
  862MOL0     H16348   9.527   4.146   5.044 -0.4635  2.6512 -3.5855
  862MOL0     H16349   9.694   4.175   5.097 -0.7396 -1.5582 -0.7078
  862MOL0     H16350   9.703   4.387   4.985  0.8559  0.7791 -1.6836
  862MOL0     H16351   9.532   4.407   4.998  1.5395  1.3050 -3.3550
  862MOL0     H16352   8.785   4.176   5.458 -0.0784 -3.2039 -0.1338
  862MOL0     H16353   8.632   3.996   5.546 -0.2522  0.7364 -0.0582
  862MOL0     H16354   8.413   3.740   6.064  0.9210 -1.9572 -1.7282
  862MOL0     H16355   8.203   3.657   6.093  1.2873 -0.4736 -0.8369
  862MOL0     H16356   7.782   5.013   5.183  0.8245 -1.7108  0.8644
  862MOL0     H16357   7.978   5.131   5.050  3.0446 -1.3894  1.5531
  862MOL0     H16358   8.464   5.015   5.062 -4.9961  0.3223 -0.2646
  862MOL0     H16359   8.691   5.066   4.967  0.6754 -4.2115 -0.2407
  862MOL0     H16360   8.801   4.992   4.739  0.2729  0.1501 -1.3037
  862MOL0     H16361   8.807   5.089   4.587 -1.9790 -0.0078 -0.2805
  862MOL0     H16362   8.964   5.243   4.705 -3.4839  0.7909 -1.9441
  862MOL0     H16363   9.019   5.066   4.674 -0.2094  1.3846  0.6843
  862MOL0     H16364   8.973   5.018   4.913 -2.0938 -0.2322  2.4317
  862MOL0     H16365   8.915   5.185   4.936  2.6968  0.7682  0.9522
  862MOL0     H16366   9.138   5.277   4.927 -3.3446  0.0133  2.3737
  862MOL0     H16367   9.195   5.149   4.837 -2.0554  1.3667 -1.9752
  862MOL0     H16368   9.302   5.031   5.217  0.1852  0.1954 -0.2785
  862MOL0     H16369   8.481   5.185   4.599  3.2475  3.2842  1.7400
  862MOL0     H16370   8.276   5.098   4.681  0.6794  0.1370 -0.7431
  863MOL0     O16371   7.118  11.130   9.082 -0.1873 -0.0242  0.7336
  863MOL0     C16372   7.065  11.018   9.120  0.5988 -0.5727  0.0204
  863MOL0     O16373   6.950  10.973   9.067 -0.1750  0.0620 -0.8696
  863MOL0     C16374   6.875  11.043   8.983  0.5249  0.0638 -0.5626
  863MOL0     C16375   6.804  10.953   8.892 -0.2599 -0.7191 -1.1521
  863MOL0     C16376   6.696  11.002   8.819  0.1012 -0.4043  0.4311
  863MOL0     C16377   6.653  11.134   8.831  0.1830  0.8448  0.1190
  863MOL0     O16378   6.544  11.167   8.755  0.0382  0.1073 -0.3703
  863MOL0     C16379   6.555  11.280   8.672  0.3044 -0.4484  0.0185
  863MOL0     C16380   6.475  11.260   8.540 -0.7281 -0.8609 -0.1866
  863MOL0     C16381   6.329  11.314   8.535 -0.3926  1.2706 -0.0586
  863MOL0     C16382   6.248  11.230   8.431  0.4478  0.3604  0.2122
  863MOL0     C16383   6.102  11.270   8.442 -0.1795 -0.5994  0.4211
  863MOL0     C16384   6.000  11.190   8.348 -0.5489 -0.2656 -1.1182
  863MOL0     C16385   5.977  11.047   8.406  0.2927  0.4897  0.0368
  863MOL0     C16386   5.901  11.033   8.543  0.3196 -1.4029  0.4748
  863MOL0     N16387   5.779  11.114   8.546  0.0117 -1.1236  0.6111
  863MOL0     C16388   5.665  11.092   8.479  0.3321  0.5047 -0.0098
  863MOL0     C16389   5.580  11.189   8.508 -0.3230  0.1438  0.2454
  863MOL0     C16390   5.429  11.218   8.483 -0.8712  0.2912 -0.3566
  863MOL0     C16391   5.380  11.373   8.476 -0.2697 -0.1762 -0.1710
  863MOL0     C16392   5.357  11.456   8.598 -0.6152  0.2578 -1.0320
  863MOL0     C16393   5.230  11.416   8.659 -1.0663  1.2298 -0.2487
  863MOL0     O16394   5.127  11.453   8.569  0.4650 -0.3323 -0.6628
  863MOL0     C16395   4.996  11.413   8.600 -0.2508  0.1038 -0.4173
  863MOL0     C16396   4.891  11.428   8.506  0.1774  0.7181  0.5746
  863MOL0     C16397   4.763  11.373   8.522  0.6398 -0.3658 -0.2153
  863MOL0     C16398   4.666  11.392   8.405 -0.4868 -0.1293 -0.8716
  863MOL0     C16399   4.731  11.307   8.644 -0.2790  1.2039  0.9180
  863MOL0     C16400   4.599  11.256   8.669 -0.5330 -0.0633  0.1904
  863MOL0     O16401   4.552  11.268   8.797 -0.7777 -0.1010  0.0295
  863MOL0     C16402   4.432  11.214   8.822 -0.7733 -0.1583 -0.2190
  863MOL0     C16403   4.349  11.308   8.888 -0.0041 -0.5410 -0.0176
  863MOL0     C16404   4.229  11.272   8.932  0.9214  0.4298  0.5341
  863MOL0     C16405   4.185  11.141   8.915  0.9603  0.1692  0.1705
  863MOL0     O16406   4.065  11.080   8.960 -0.9138  0.0417 -0.7758
  863MOL0     C16407   3.938  11.142   8.988  0.5472 -0.1922 -0.3333
  863MOL0     C16408   3.862  11.173   8.857  0.0901 -0.1493  0.5362
  863MOL0     C16409   3.728  11.220   8.900 -0.2741  0.7390 -0.4079
  863MOL0     C16410   3.663  11.311   8.801 -0.7616  0.2897 -0.8896
  863MOL0     C16411   3.639  11.251   8.657  0.1104 -0.0852 -0.3063
  863MOL0     C16412   3.506  11.170   8.670 -0.8125 -0.1941 -0.5975
  863MOL0     C16413   3.380  11.262   8.673  0.0560 -0.2814 -0.3803
  863MOL0     C16414   3.250  11.198   8.630 -0.3774  0.4019 -0.3270
  863MOL0    Cl16415   3.126  11.316   8.608 -0.3615 -0.0918  0.3936
  863MOL0     C16416   4.268  11.047   8.855 -0.1390 -0.3286  0.4619
  863MOL0     C16417   4.385  11.085   8.797  0.8984  0.1984  0.0700
  863MOL0     O16418   4.543  11.197   8.577 -0.6874  0.0459  0.6830
  863MOL0     C16419   4.828  11.295   8.741 -0.1325  1.5197  0.8362
  863MOL0     C16420   4.955  11.343   8.719 -0.7805  0.7494  0.5444
  863MOL0     N16421   5.653  11.279   8.591 -0.2077 -0.1194  0.0160
  863MOL0     N16422   5.777  11.236   8.607  0.2126  0.7688 -0.6077
  863MOL0     C16423   6.735  11.221   8.898  0.5024 -0.5894 -0.2560
  863MOL0     C16424   6.843  11.183   8.980  0.4379  0.4114 -0.0571
  863MOL0     C16425   7.096  10.960   9.252  0.3699 -0.6080  0.0538
  863MOL0     C16426   7.191  11.009   9.344 -0.1741 -0.5264 -1.4434
  863MOL0     C16427   7.207  10.951   9.469 -0.8841  0.5818  0.8142
  863MOL0     C16428   7.151  10.829   9.506  0.9551 -0.1290  0.3378
  863MOL0     O16429   7.162  10.778   9.634 -0.3239  0.2879 -0.8057
  863MOL0     C16430   7.169  10.628   9.630 -0.5092  0.4085 -1.5078
  863MOL0     C16431   7.201  10.583   9.776 -0.0453  0.5313  0.4890
  863MOL0     C16432   7.277  10.453   9.786 -0.0052 -0.1278 -0.3883
  863MOL0     C16433   7.320  10.428   9.937  0.1752 -0.2223 -0.2344
  863MOL0     C16434   7.432  10.505   9.984  0.7116  0.0808  0.0312
  863MOL0     C16435   7.543  10.554  10.010 -0.2999  0.4494 -0.6396
  863MOL0     C16436   7.066  10.767   9.405 -0.7038 -0.3504 -0.3162
  863MOL0     C16437   7.039  10.836   9.282  0.3640 -0.0382 -0.5094
  863MOL0     H16438   6.835  10.849   8.893 -1.2155 -1.0269 -1.9662
  863MOL0     H16439   6.637  10.930   8.763 -3.5176  1.5415  1.3716
  863MOL0     H16440   6.515  11.368   8.724  2.8107  0.6175  0.3079
  863MOL0     H16441   6.657  11.311   8.646  0.1126  0.0972 -0.0937
  863MOL0     H16442   6.529  11.318   8.464  1.8441 -1.6771  0.8795
  863MOL0     H16443   6.478  11.156   8.506 -1.2060 -1.3241  1.1463
  863MOL0     H16444   6.294  11.298   8.637 -1.4319 -0.1992 -0.6264
  863MOL0     H16445   6.323  11.419   8.504  0.7697  1.5476  0.5697
  863MOL0     H16446   6.289  11.253   8.332  3.2119  3.1994  1.8335
  863MOL0     H16447   6.244  11.124   8.456  0.3400  0.6441  1.4225
  863MOL0     H16448   6.072  11.257   8.547  0.6626 -2.4715  0.4576
  863MOL0     H16449   6.099  11.379   8.430  3.9764 -0.1488  1.5094
  863MOL0     H16450   5.906  11.246   8.340 -0.4495  0.1195  0.0950
  863MOL0     H16451   6.047  11.185   8.250  0.9164  1.7773 -0.5909
  863MOL0     H16452   5.897  11.017   8.337 -2.8611  2.4600  2.5242
  863MOL0     H16453   6.069  10.988   8.403  2.1093  3.1818 -0.9065
  863MOL0     H16454   5.964  11.060   8.628 -0.2901 -3.1686  1.5490
  863MOL0     H16455   5.873  10.928   8.558 -1.3455 -1.3455 -1.7663
  863MOL0     H16456   5.635  11.008   8.418 -2.8417 -0.3279  2.3986
  863MOL0     H16457   5.393  11.178   8.388 -0.5211  2.1218 -1.3248
  863MOL0     H16458   5.370  11.172   8.562 -2.1598  2.9987  0.3757
  863MOL0     H16459   5.286  11.367   8.421  0.5154  0.8486 -1.7134
  863MOL0     H16460   5.452  11.422   8.410 -0.5974 -0.4006 -0.6959
  863MOL0     H16461   5.350  11.563   8.576  0.1272  0.8968  1.5610
  863MOL0     H16462   5.450  11.443   8.654 -0.6196 -1.2503 -1.3566
  863MOL0     H16463   5.216  11.462   8.757 -2.8297  1.9113 -0.7915
  863MOL0     H16464   5.226  11.309   8.684  3.4334  0.8128 -0.4778
  863MOL0     H16465   4.909  11.472   8.409  0.4725 -0.5901  0.0193
  863MOL0     H16466   4.709  11.452   8.324 -1.7002  2.1033  0.0911
  863MOL0     H16467   4.633  11.292   8.373  1.2761 -1.0563  0.0290
  863MOL0     H16468   4.572  11.445   8.418 -1.6571 -1.4891 -3.0438
  863MOL0     H16469   4.390  11.407   8.904  1.1129 -0.9385 -0.2924
  863MOL0     H16470   4.172  11.348   8.986 -0.0989 -1.0250  1.5706
  863MOL0     H16471   3.878  11.064   9.035 -1.7371  0.0172 -2.6760
  863MOL0     H16472   3.958  11.229   9.051  0.7722 -0.5719  0.1256
  863MOL0     H16473   3.914  11.244   8.792 -2.7617 -0.3135 -2.2140
  863MOL0     H16474   3.846  11.083   8.797  0.4686  1.3376 -1.9350
  863MOL0     H16475   3.734  11.270   8.997 -1.3147  1.0557 -0.4896
  863MOL0     H16476   3.651  11.147   8.925  0.3199  0.1575 -0.2679
  863MOL0     H16477   3.575  11.357   8.846  0.1217  2.2094 -0.9901
  863MOL0     H16478   3.740  11.389   8.791  1.2630 -1.2749  1.4471
  863MOL0     H16479   3.727  11.187   8.640 -0.5550 -1.6922  1.8471
  863MOL0     H16480   3.631  11.324   8.576  0.8380  1.0018  0.5771
  863MOL0     H16481   3.487  11.108   8.582 -2.3275 -1.9198  0.8611
  863MOL0     H16482   3.513  11.097   8.751  3.5636 -0.2853 -0.8432
  863MOL0     H16483   3.400  11.341   8.600  2.6238 -2.2967 -2.0345
  863MOL0     H16484   3.371  11.303   8.774 -0.9473 -1.2646 -0.0448
  863MOL0     H16485   3.218  11.143   8.719 -3.3792  0.4740 -1.2316
  863MOL0     H16486   3.266  11.131   8.545 -0.8639 -0.0678 -0.0540
  863MOL0     H16487   4.242  10.941   8.851  1.8948 -0.8369 -1.2221
  863MOL0     H16488   4.458  11.017   8.753  2.2082  1.6568 -0.1042
  863MOL0     H16489   4.795  11.232   8.822 -1.5858 -1.5732 -1.9273
  863MOL0     H16490   5.027  11.334   8.800 -0.6797  0.8105  0.4624
  863MOL0     H16491   6.714  11.328   8.900  1.9781 -0.2955  0.8261
  863MOL0     H16492   6.899  11.256   9.038  1.9564 -1.2576  0.6762
  863MOL0     H16493   7.232  11.106   9.319  0.1305 -0.9254 -2.5188
  863MOL0     H16494   7.267  10.998   9.546 -1.3147  0.1348  1.4319
  863MOL0     H16495   7.083  10.568   9.599 -2.2124  1.3684  0.9567
  863MOL0     H16496   7.255  10.610   9.566  1.2272  0.0419  0.7863
  863MOL0     H16497   7.103  10.560   9.819  0.4978 -2.5522  0.2963
  863MOL0     H16498   7.254  10.661   9.830  0.1213 -0.3453  1.6272
  863MOL0     H16499   7.362  10.460   9.718  2.8377  1.5066  2.9683
  863MOL0     H16500   7.207  10.373   9.760  2.3493 -3.1271  1.7735
  863MOL0     H16501   7.332  10.321   9.959 -0.9924 -0.4170 -0.4730
  863MOL0     H16502   7.232  10.451   9.996  2.1063  0.7823  2.4103
  863MOL0     H16503   7.643  10.584  10.034 -0.6820  0.1877  1.5046
  863MOL0     H16504   7.009  10.676   9.426 -2.2660  0.5696 -0.3960
  863MOL0     H16505   6.967  10.784   9.220 -1.0360  1.3404 -0.1163
  864MOL0     O16506   2.628   3.486   4.170  0.0166 -0.7602  0.1019
  864MOL0     C16507   2.739   3.475   4.123  0.7765  1.0984  0.0390
  864MOL0     O16508   2.770   3.402   4.016 -0.1785  0.0304 -0.0572
  864MOL0     C16509   2.659   3.347   3.962  0.2024 -0.3556  0.0470
  864MOL0     C16510   2.595   3.233   4.013  0.1486 -0.9765 -0.2320
  864MOL0     C16511   2.477   3.190   3.960 -0.7712  0.7846  0.7950
  864MOL0     C16512   2.426   3.248   3.846 -0.0269 -0.1016  0.4345
  864MOL0     O16513   2.312   3.204   3.786 -0.6930 -0.3742  0.2389
  864MOL0     C16514   2.268   3.068   3.799 -0.6399  0.6723  0.1354
  864MOL0     C16515   2.155   3.052   3.705 -1.0611 -0.7044 -0.0954
  864MOL0     C16516   2.120   2.901   3.707 -0.0964 -1.2701  1.1144
  864MOL0     C16517   2.015   2.868   3.597 -0.6153  0.5060  0.5581
  864MOL0     C16518   2.002   2.722   3.572 -0.2456 -0.8731 -0.3940
  864MOL0     C16519   2.105   2.647   3.480  0.8142  0.5785  0.3614
  864MOL0     C16520   2.154   2.732   3.347 -0.0570  0.2749 -0.3877
  864MOL0     C16521   2.226   2.635   3.250 -0.4704 -0.0043  0.4114
  864MOL0     N16522   2.325   2.706   3.159 -0.2080  0.4310 -0.2838
  864MOL0     C16523   2.354   2.840   3.143  0.2787  0.0810  0.3741
  864MOL0     C16524   2.461   2.840   3.059  0.4445  0.0865 -0.4942
  864MOL0     C16525   2.549   2.951   3.003  0.3241  0.2074 -0.4748
  864MOL0     C16526   2.482   3.060   2.918 -1.0284  0.2675  0.0339
  864MOL0     C16527   2.589   3.093   2.814  0.0780  0.0288  0.3516
  864MOL0     C16528   2.714   3.157   2.877 -0.2356  0.2645 -0.1871
  864MOL0     O16529   2.779   3.222   2.767 -0.5356  0.2781 -0.0728
  864MOL0     C16530   2.890   3.301   2.801  1.0300 -0.6054 -0.9301
  864MOL0     C16531   2.976   3.275   2.913  0.2328 -0.5681 -0.3330
  864MOL0     C16532   3.082   3.362   2.938  1.1808  0.5250  0.2186
  864MOL0     C16533   3.163   3.333   3.065 -0.2272  0.3445  0.0186
  864MOL0     C16534   3.115   3.467   2.838 -0.0833  0.0925 -0.2653
  864MOL0     C16535   3.229   3.563   2.847  0.4698 -1.0233 -0.4870
  864MOL0     O16536   3.251   3.630   2.734 -0.4946 -0.3752 -0.6212
  864MOL0     C16537   3.376   3.693   2.715  0.1390 -0.4893  1.0581
  864MOL0     C16538   3.399   3.808   2.792 -0.0858 -0.3814 -0.1267
  864MOL0     C16539   3.529   3.854   2.791  0.7582 -1.0323 -0.3326
  864MOL0     C16540   3.627   3.798   2.707  0.3392 -0.1371 -0.4542
  864MOL0     O16541   3.749   3.863   2.700  0.1473  0.7853 -0.4046
  864MOL0     C16542   3.850   3.804   2.791  0.0847  0.2360 -0.2934
  864MOL0     C16543   3.850   3.868   2.929  0.4858 -0.4002  0.0313
  864MOL0     C16544   3.910   4.009   2.933  0.0027  0.2200  0.0806
  864MOL0     C16545   3.888   4.073   3.073 -0.1993  0.0947  0.3653
  864MOL0     C16546   3.748   4.150   3.083  0.6694 -0.3983 -0.1265
  864MOL0     C16547   3.736   4.219   3.220 -0.5499  0.3623 -0.1755
  864MOL0     C16548   3.602   4.286   3.226 -0.0425 -0.2573 -0.3366
  864MOL0     C16549   3.564   4.366   3.346 -0.4106  0.1283  0.7726
  864MOL0    Cl16550   3.663   4.512   3.325 -0.4492 -0.2105 -0.5119
  864MOL0     C16551   3.601   3.682   2.630 -0.0995  0.2843 -1.5606
  864MOL0     C16552   3.474   3.637   2.627  1.1920 -0.4686 -0.2014
  864MOL0     O16553   3.303   3.569   2.947  0.7196 -0.1219 -0.2093
  864MOL0     C16554   3.029   3.485   2.727 -0.0898  0.5116 -0.0267
  864MOL0     C16555   2.925   3.400   2.710 -0.2735  0.5709 -0.1507
  864MOL0     N16556   2.503   2.699   3.048 -0.1103 -0.6729 -0.2683
  864MOL0     N16557   2.418   2.622   3.107 -0.6973  0.1704  0.1449
  864MOL0     C16558   2.492   3.356   3.786  0.0769 -0.6309  0.0920
  864MOL0     C16559   2.607   3.413   3.850  0.3403  0.0515  0.0797
  864MOL0     C16560   2.855   3.542   4.178 -0.5374 -0.5489 -0.3503
  864MOL0     C16561   2.868   3.541   4.318  0.6327  0.7816  0.4272
  864MOL0     C16562   2.960   3.628   4.371  0.4638 -0.1036 -0.0149
  864MOL0     C16563   3.042   3.705   4.289 -0.1520  0.5203 -0.7873
  864MOL0     O16564   3.132   3.782   4.358  0.1013  0.1795  1.1074
  864MOL0     C16565   3.261   3.726   4.339  0.1193 -0.6695  0.1342
  864MOL0     C16566   3.301   3.661   4.469  0.0574  0.0999 -0.9569
  864MOL0     C16567   3.439   3.587   4.468 -0.1984 -0.5455  0.5816
  864MOL0     C16568   3.509   3.602   4.603  0.4353  0.9649  0.3451
  864MOL0     C16569   3.659   3.585   4.593  0.2435 -0.0599 -0.6190
  864MOL0     C16570   3.770   3.555   4.576 -0.1837 -0.2352 -0.6161
  864MOL0     C16571   3.036   3.697   4.152 -0.5528  0.1359 -0.5118
  864MOL0     C16572   2.938   3.619   4.095  0.0373 -0.5849  0.0106
  864MOL0     H16573   2.634   3.179   4.099 -2.0824 -3.6650 -0.7751
  864MOL0     H16574   2.413   3.128   4.021 -3.2587  1.9632 -0.4488
  864MOL0     H16575   2.351   3.002   3.773 -0.3776  1.6176 -1.5344
  864MOL0     H16576   2.235   3.058   3.903  0.8606 -3.5460  0.3904
  864MOL0     H16577   2.065   3.108   3.733 -0.5467  0.2829 -0.3716
  864MOL0     H16578   2.172   3.082   3.601 -3.1218 -3.5409 -1.3796
  864MOL0     H16579   2.206   2.841   3.674  1.0478  0.5875  0.5728
  864MOL0     H16580   2.097   2.858   3.805  1.0503 -0.4229  1.7841
  864MOL0     H16581   1.918   2.907   3.628 -1.3581 -1.7330  1.2381
  864MOL0     H16582   2.034   2.914   3.500  1.0653 -2.7980 -0.8203
  864MOL0     H16583   2.004   2.677   3.672 -1.1456  1.1856  0.6186
  864MOL0     H16584   1.907   2.692   3.527 -0.4712 -3.7133  1.6551
  864MOL0     H16585   2.193   2.616   3.536  0.0094  0.0860  1.3766
  864MOL0     H16586   2.064   2.554   3.438 -0.1892  1.7853 -1.5013
  864MOL0     H16587   2.072   2.780   3.294 -0.2184  0.9557  0.4562
  864MOL0     H16588   2.221   2.816   3.365  0.4564  0.6876 -3.6335
  864MOL0     H16589   2.153   2.583   3.188 -0.3601  0.2905  0.0252
  864MOL0     H16590   2.292   2.563   3.299 -1.8123  1.6951  5.2527
  864MOL0     H16591   2.299   2.931   3.166 -0.0953  0.9557 -3.2997
  864MOL0     H16592   2.605   3.001   3.082  1.1139 -0.7959 -0.3645
  864MOL0     H16593   2.632   2.903   2.950  2.9438  1.3553  2.3232
  864MOL0     H16594   2.460   3.141   2.988  0.4858  2.4826 -1.8952
  864MOL0     H16595   2.389   3.026   2.871 -0.3404 -0.0224 -1.1507
  864MOL0     H16596   2.546   3.157   2.736 -1.9259 -0.6567  0.8226
  864MOL0     H16597   2.604   2.998   2.761 -1.3832  0.0781 -0.1998
  864MOL0     H16598   2.783   3.082   2.917 -0.4950  0.3094  0.3570
  864MOL0     H16599   2.689   3.220   2.963  1.2293  1.7442 -0.7899
  864MOL0     H16600   2.943   3.210   2.993 -1.8958 -1.7129 -2.0325
  864MOL0     H16601   3.185   3.426   3.118  0.2797  0.6399 -0.6924
  864MOL0     H16602   3.107   3.273   3.137  0.5569  1.2435  1.4328
  864MOL0     H16603   3.252   3.271   3.050 -0.4163  0.6204 -2.5809
  864MOL0     H16604   3.324   3.841   2.863 -0.2447 -1.5838  0.2954
  864MOL0     H16605   3.541   3.949   2.843 -0.9413 -1.8263  1.6434
  864MOL0     H16606   3.817   3.700   2.803 -3.4127  1.2663 -0.0177
  864MOL0     H16607   3.951   3.811   2.749  1.1512 -0.4697  1.9623
  864MOL0     H16608   3.744   3.864   2.958  0.9682 -0.7173  1.8490
  864MOL0     H16609   3.903   3.795   2.990 -2.0954 -2.0358  0.5029
  864MOL0     H16610   3.866   4.081   2.863  0.0205  0.5231  0.3840
  864MOL0     H16611   4.017   3.992   2.920 -0.1224 -0.7830  0.2528
  864MOL0     H16612   3.896   3.997   3.152  3.8688  0.5055  0.5604
  864MOL0     H16613   3.967   4.142   3.104 -0.5139  0.0381  1.3454
  864MOL0     H16614   3.676   4.067   3.078 -0.2933  0.4886 -2.5796
  864MOL0     H16615   3.722   4.219   3.003 -1.5017  1.1098  1.7473
  864MOL0     H16616   3.749   4.135   3.289 -1.5824  0.4944  0.2033
  864MOL0     H16617   3.813   4.295   3.230  0.1285 -0.3089 -0.1552
  864MOL0     H16618   3.521   4.212   3.223 -2.2838  2.0016  0.3500
  864MOL0     H16619   3.596   4.339   3.130  2.2033 -0.3772 -0.5946
  864MOL0     H16620   3.596   4.314   3.437  3.2892  1.4095  0.3719
  864MOL0     H16621   3.454   4.372   3.341 -0.5784  0.4296  3.4570
  864MOL0     H16622   3.676   3.631   2.570  1.3594  0.9911 -0.4257
  864MOL0     H16623   3.432   3.554   2.571  1.4997 -1.7372  1.3731
  864MOL0     H16624   3.045   3.559   2.648 -2.2818  1.9775  0.7988
  864MOL0     H16625   2.874   3.415   2.616  1.0473 -1.0978 -1.1833
  864MOL0     H16626   2.446   3.404   3.699  2.4021 -0.1469 -0.9445
  864MOL0     H16627   2.643   3.505   3.806  1.4470  0.5990  2.0228
  864MOL0     H16628   2.799   3.494   4.387 -0.6430  1.1312 -0.5832
  864MOL0     H16629   2.980   3.621   4.477 -0.8359 -0.6947  0.2124
  864MOL0     H16630   3.260   3.646   4.264  1.5851  1.1044 -1.9148
  864MOL0     H16631   3.331   3.803   4.308  0.9814 -1.7241 -0.6174
  864MOL0     H16632   3.221   3.588   4.485  0.0075  0.3814  0.1898
  864MOL0     H16633   3.285   3.736   4.547 -0.2997  1.4467 -2.2807
  864MOL0     H16634   3.495   3.640   4.391 -0.1397  1.9399  2.1918
  864MOL0     H16635   3.428   3.482   4.441 -1.4131  0.2287 -2.2798
  864MOL0     H16636   3.476   3.520   4.668  0.4072 -0.2181 -1.1122
  864MOL0     H16637   3.486   3.695   4.654  0.3128  2.4662 -2.2768
  864MOL0     H16638   3.874   3.548   4.550  1.0075  1.2148  3.0881
  864MOL0     H16639   3.103   3.764   4.099  0.4308  4.4074  5.1075
  864MOL0     H16640   2.925   3.609   3.988  1.5357 -1.2425 -0.1290
  865MOL0     O16641   9.172   6.532   7.731  0.0646 -0.6570 -0.0193
  865MOL0     C16642   9.220   6.428   7.751  0.2908 -0.6914 -0.3610
  865MOL0     O16643   9.157   6.306   7.760 -0.0439  0.5341  0.1884
  865MOL0     C16644   9.022   6.300   7.747  0.4237  0.3498 -0.0101
  865MOL0     C16645   8.944   6.324   7.864 -0.5731 -0.0726  0.5927
  865MOL0     C16646   8.807   6.308   7.859  1.3924  0.0075  0.3174
  865MOL0     C16647   8.738   6.273   7.748  0.0478 -0.2163  1.3339
  865MOL0     O16648   8.605   6.251   7.758  0.0769 -0.0209  0.8205
  865MOL0     C16649   8.561   6.114   7.789  0.7398  0.1252  0.3247
  865MOL0     C16650   8.427   6.130   7.860 -0.0702  0.0079 -0.1073
  865MOL0     C16651   8.373   5.992   7.893  0.3031 -1.1926 -1.1041
  865MOL0     C16652   8.330   5.981   8.046 -0.8930  0.2303 -0.0855
  865MOL0     C16653   8.454   5.958   8.125  0.4454  0.7462 -0.0582
  865MOL0     C16654   8.433   5.868   8.250  0.2538  0.0678 -0.3169
  865MOL0     C16655   8.483   5.915   8.386 -0.4676 -0.3947 -0.8793
  865MOL0     C16656   8.532   5.801   8.480  0.2301 -0.7551 -0.0598
  865MOL0     N16657   8.443   5.692   8.501  0.7749  0.0949 -0.8397
  865MOL0     C16658   8.329   5.698   8.579 -0.5387 -0.5640 -0.5999
  865MOL0     C16659   8.279   5.571   8.570  0.1557 -0.0385  0.1251
  865MOL0     C16660   8.143   5.515   8.599 -1.1546 -0.4146 -0.2678
  865MOL0     C16661   8.074   5.490   8.466  0.8047  0.6631  0.0530
  865MOL0     C16662   7.921   5.482   8.482  1.1098 -0.0963  0.5017
  865MOL0     C16663   7.861   5.369   8.569 -0.5462 -0.7100 -0.6073
  865MOL0     O16664   7.723   5.403   8.566 -0.6388  0.1304  0.5726
  865MOL0     C16665   7.647   5.330   8.653 -0.3683  0.0767  0.6986
  865MOL0     C16666   7.513   5.359   8.669  0.7073  0.6203 -0.1920
  865MOL0     C16667   7.435   5.294   8.762  1.0410 -0.1685  0.1445
  865MOL0     C16668   7.283   5.329   8.766 -0.2655  0.2887  0.4757
  865MOL0     C16669   7.490   5.187   8.844  0.4350 -0.6736 -0.1437
  865MOL0     C16670   7.402   5.110   8.941 -0.9849  0.1569 -0.4192
  865MOL0     O16671   7.274   5.139   8.963  0.7199 -0.9345  0.4977
  865MOL0     C16672   7.210   5.119   9.081  0.7947 -0.5421 -0.0153
  865MOL0     C16673   7.070   5.115   9.078 -0.0216 -0.3800  0.7289
  865MOL0     C16674   6.991   5.105   9.193  0.3710 -0.9980 -0.0066
  865MOL0     C16675   7.065   5.086   9.309 -0.4594  0.3518  0.2202
  865MOL0     O16676   6.989   5.074   9.424 -0.2601  0.2339  0.4929
  865MOL0     C16677   6.980   5.185   9.517  0.5010  0.1963 -0.7741
  865MOL0     C16678   6.939   5.321   9.465  0.6638 -0.2559 -0.0106
  865MOL0     C16679   6.780   5.324   9.429  0.1638  0.1523 -0.3279
  865MOL0     C16680   6.688   5.362   9.541  0.2289 -0.2487 -0.4855
  865MOL0     C16681   6.554   5.382   9.479 -0.6584  0.4146  0.3185
  865MOL0     C16682   6.437   5.376   9.583 -0.6622  1.0848  0.3958
  865MOL0     C16683   6.313   5.451   9.527  0.5899  0.7720  0.0612
  865MOL0     C16684   6.197   5.439   9.627 -0.4674  0.0015 -1.3156
  865MOL0    Cl16685   6.075   5.554   9.578 -0.3947 -0.2202 -0.0787
  865MOL0     C16686   7.205   5.083   9.323  0.5480  0.1097 -0.0144
  865MOL0     C16687   7.271   5.103   9.206 -0.5446 -1.5400 -0.0610
  865MOL0     O16688   7.460   5.016   8.996 -0.0416  0.5816  0.0510
  865MOL0     C16689   7.620   5.149   8.825 -0.4710 -0.3956  0.4645
  865MOL0     C16690   7.695   5.208   8.722  0.0706 -0.7247  0.0521
  865MOL0     N16691   8.368   5.491   8.504  0.0108  0.3379 -0.1355
  865MOL0     N16692   8.464   5.565   8.453  0.3640  0.4365  0.3990
  865MOL0     C16693   8.810   6.259   7.630  0.0024 -0.5760  0.9993
  865MOL0     C16694   8.953   6.254   7.634 -0.9222 -0.8605 -0.0347
  865MOL0     C16695   9.376   6.433   7.757 -0.3496 -0.3603 -0.2724
  865MOL0     C16696   9.454   6.320   7.716  0.0921 -0.1199  0.4059
  865MOL0     C16697   9.593   6.309   7.723 -0.5306  0.2222  0.3145
  865MOL0     C16698   9.663   6.423   7.764 -0.3499 -0.3108  0.3719
  865MOL0     O16699   9.803   6.431   7.753 -0.7453 -0.6444 -1.0484
  865MOL0     C16700   9.870   6.328   7.675  0.2660 -1.4730  0.4968
  865MOL0     C16701   9.824   6.334   7.527 -0.0110  0.2485 -0.0902
  865MOL0     C16702   9.887   6.448   7.443 -1.0104  0.0899  0.2532
  865MOL0     C16703   9.827   6.454   7.298 -0.3770  0.2797 -0.0972
  865MOL0     C16704   9.830   6.334   7.213 -0.0042  0.2616 -0.3403
  865MOL0     C16705   9.833   6.241   7.132  0.5265 -0.4168  0.1385
  865MOL0     C16706   9.594   6.537   7.789 -0.1075 -0.9489  0.5067
  865MOL0     C16707   9.455   6.540   7.792  0.2157  0.3901  0.9161
  865MOL0     H16708   8.991   6.363   7.954  2.6062  0.2327 -1.0642
  865MOL0     H16709   8.737   6.316   7.942  0.1712  0.9210 -0.7609
  865MOL0     H16710   8.555   6.058   7.695  2.1674  1.8764 -0.8697
  865MOL0     H16711   8.639   6.067   7.850  2.2218  1.1114 -0.7306
  865MOL0     H16712   8.436   6.196   7.946  0.3932 -0.1484 -0.0317
  865MOL0     H16713   8.358   6.185   7.796  1.3886  2.6112  0.4040
  865MOL0     H16714   8.279   5.975   7.838 -1.1484  2.1169  0.0758
  865MOL0     H16715   8.438   5.910   7.861  1.1319 -0.8303 -0.3898
  865MOL0     H16716   8.264   6.061   8.080 -1.7076 -0.2098 -0.5936
  865MOL0     H16717   8.269   5.890   8.053  1.3707 -1.5515 -1.6784
  865MOL0     H16718   8.527   5.916   8.055 -1.5002  1.0486 -2.3673
  865MOL0     H16719   8.495   6.053   8.159 -0.2462  0.1148  2.8445
  865MOL0     H16720   8.327   5.852   8.270  0.3166  0.2534  0.1887
  865MOL0     H16721   8.483   5.772   8.233  0.0355  0.4100 -3.5800
  865MOL0     H16722   8.560   5.992   8.377 -0.3607  0.0017  2.2400
  865MOL0     H16723   8.406   5.975   8.437 -0.5607 -0.3316 -1.0937
  865MOL0     H16724   8.556   5.841   8.579 -0.0328  0.6484 -0.5344
  865MOL0     H16725   8.624   5.769   8.430  0.0044 -1.2893 -0.1276
  865MOL0     H16726   8.266   5.780   8.610  0.4896 -0.4758  1.4490
  865MOL0     H16727   8.154   5.420   8.652 -1.3666 -0.1768  0.2014
  865MOL0     H16728   8.082   5.577   8.664 -0.9043 -1.8270  1.3754
  865MOL0     H16729   8.095   5.390   8.428 -1.8027  0.3115 -0.6021
  865MOL0     H16730   8.103   5.557   8.384  2.3627  0.0348  0.0605
  865MOL0     H16731   7.870   5.475   8.386  0.8162  0.6912  0.5909
  865MOL0     H16732   7.890   5.575   8.531  2.7475  1.2270 -0.8427
  865MOL0     H16733   7.917   5.379   8.663  1.4893  0.1347 -1.8569
  865MOL0     H16734   7.884   5.273   8.522  0.9248 -0.2233 -0.9252
  865MOL0     H16735   7.475   5.447   8.618  2.0793  1.5226  0.2689
  865MOL0     H16736   7.255   5.361   8.867 -2.5276  0.3348 -0.1226
  865MOL0     H16737   7.252   5.414   8.704 -2.7593 -0.5108  0.5232
  865MOL0     H16738   7.225   5.247   8.723  2.4278  0.2192 -3.6001
  865MOL0     H16739   7.009   5.120   8.989 -1.9497 -3.9167  1.6756
  865MOL0     H16740   6.885   5.088   9.173  0.3546  1.3162 -2.5067
  865MOL0     H16741   6.914   5.173   9.603  1.0172  2.2594 -0.0309
  865MOL0     H16742   7.079   5.207   9.559  0.5320 -4.0265  1.8712
  865MOL0     H16743   6.954   5.390   9.549 -0.6344 -2.3362  2.0687
  865MOL0     H16744   7.003   5.342   9.379 -0.8240 -0.3568 -1.1763
  865MOL0     H16745   6.745   5.227   9.391 -4.3613  0.9369  1.2513
  865MOL0     H16746   6.758   5.384   9.341 -1.1011  1.3497  0.7574
  865MOL0     H16747   6.687   5.280   9.612  1.9294  1.0450  1.1406
  865MOL0     H16748   6.709   5.457   9.592 -1.2539  0.4024 -1.0172
  865MOL0     H16749   6.535   5.309   9.399  2.9380  0.9196 -1.2037
  865MOL0     H16750   6.556   5.479   9.428  0.7161  0.4722  0.4564
  865MOL0     H16751   6.403   5.274   9.604 -2.3164  1.4901 -0.1639
  865MOL0     H16752   6.468   5.437   9.668  2.7908  2.2394 -1.4785
  865MOL0     H16753   6.285   5.423   9.425  1.2901 -2.8619  0.7151
  865MOL0     H16754   6.337   5.557   9.522  0.2590  1.0681  2.9882
  865MOL0     H16755   6.246   5.470   9.720 -0.3773 -1.6510 -0.7803
  865MOL0     H16756   6.164   5.335   9.636  0.5779 -0.4491 -2.4219
  865MOL0     H16757   7.245   5.103   9.422 -0.5060  0.6383  0.3291
  865MOL0     H16758   7.377   5.117   9.227 -0.8975 -2.2562  2.5336
  865MOL0     H16759   7.664   5.063   8.874 -1.1348 -0.7470  0.4577
  865MOL0     H16760   7.790   5.165   8.693 -1.6162 -3.8164 -1.4176
  865MOL0     H16761   8.756   6.217   7.546 -0.2515 -5.1910  3.1020
  865MOL0     H16762   9.008   6.230   7.543 -1.3292 -0.4433 -0.3920
  865MOL0     H16763   9.398   6.232   7.686 -2.7018  1.1843  1.4279
  865MOL0     H16764   9.640   6.215   7.696 -0.6140 -0.4031  2.2144
  865MOL0     H16765   9.980   6.335   7.675  0.2245 -0.6149 -0.3388
  865MOL0     H16766   9.847   6.225   7.704  0.1165 -1.3962  0.6462
  865MOL0     H16767   9.715   6.347   7.532  0.0686  0.5955  1.0391
  865MOL0     H16768   9.835   6.247   7.462  0.0398  1.1147 -1.2728
  865MOL0     H16769   9.996   6.443   7.438 -0.9996  1.1962 -1.2157
  865MOL0     H16770   9.868   6.547   7.486 -1.2561  0.0336  0.2779
  865MOL0     H16771   9.879   6.537   7.251  0.1724 -0.4504 -0.8127
  865MOL0     H16772   9.724   6.481   7.325 -0.2519 -1.2723  2.2331
  865MOL0     H16773   9.847   6.158   7.065  0.7963  0.6907 -1.2092
  865MOL0     H16774   9.652   6.623   7.822 -3.1022  1.1558  0.6939
  865MOL0     H16775   9.411   6.631   7.831  0.0694  0.6957  0.0619
  866MOL0     O16776   3.939   4.421   4.461 -0.7184 -0.0777  0.2249
  866MOL0     C16777   3.875   4.318   4.489 -0.4844  0.3184  0.3690
  866MOL0     O16778   3.920   4.215   4.566 -0.5831  0.1085 -0.3790
  866MOL0     C16779   4.031   4.230   4.638  0.0333  0.0581 -0.0397
  866MOL0     C16780   4.031   4.316   4.749  0.0559  0.3299  0.3771
  866MOL0     C16781   4.150   4.329   4.829  0.3961 -0.6362  0.2966
  866MOL0     C16782   4.259   4.249   4.801  0.0406  0.4536  0.0034
  866MOL0     O16783   4.371   4.270   4.882  0.3395  0.4106  0.3455
  866MOL0     C16784   4.493   4.204   4.845 -0.0832  1.2266 -0.3208
  866MOL0     C16785   4.602   4.239   4.955  0.4880  0.4848 -0.2817
  866MOL0     C16786   4.616   4.398   4.980 -0.0578 -0.4762 -0.1586
  866MOL0     C16787   4.739   4.450   4.903 -0.5485  0.5834  0.8735
  866MOL0     C16788   4.761   4.600   4.908  0.0062  0.0271 -0.1104
  866MOL0     C16789   4.902   4.641   4.871 -0.4337  0.3630  0.7017
  866MOL0     C16790   4.911   4.779   4.806  0.3374  0.5615  0.5904
  866MOL0     C16791   5.048   4.788   4.733 -0.7250  0.1379 -0.7995
  866MOL0     N16792   5.043   4.735   4.593  0.1233 -0.7514 -0.8274
  866MOL0     C16793   5.089   4.793   4.477 -0.6280 -0.3054 -0.1459
  866MOL0     C16794   5.048   4.723   4.378  0.1573  1.5061  0.5682
  866MOL0     C16795   5.090   4.742   4.236 -1.0651  0.7981  0.5944
  866MOL0     C16796   5.242   4.774   4.243  1.1105  1.1032  0.8903
  866MOL0     C16797   5.308   4.764   4.113  0.2183  0.5527  0.8928
  866MOL0     C16798   5.304   4.902   4.041  0.0393 -0.0395 -1.3230
  866MOL0     O16799   5.279   4.880   3.905  0.2469 -0.4532 -0.0776
  866MOL0     C16800   5.269   4.991   3.824  0.6357 -0.4361  0.2258
  866MOL0     C16801   5.238   4.972   3.697 -0.4174 -0.1167  0.0185
  866MOL0     C16802   5.239   5.078   3.601  0.6421  0.1366 -0.7711
  866MOL0     C16803   5.216   5.042   3.457 -0.3310  0.6989 -0.1692
  866MOL0     C16804   5.258   5.212   3.634 -0.6245 -0.1288 -0.2985
  866MOL0     C16805   5.272   5.329   3.534  1.1355 -1.1866 -0.4374
  866MOL0     O16806   5.229   5.318   3.402  0.1702 -0.2241 -0.1865
  866MOL0     C16807   5.217   5.429   3.324 -0.3935  1.1486 -0.3128
  866MOL0     C16808   5.316   5.499   3.258  0.1514 -0.1348 -0.5698
  866MOL0     C16809   5.287   5.612   3.169 -0.0733 -0.3067 -1.4835
  866MOL0     C16810   5.152   5.657   3.155 -0.5580 -0.2570  0.7687
  866MOL0     O16811   5.113   5.757   3.068  0.0273  0.3510  0.1818
  866MOL0     C16812   5.111   5.723   2.929  0.2768  0.5505  0.0705
  866MOL0     C16813   5.034   5.843   2.865  0.5818 -0.1473 -0.3143
  866MOL0     C16814   5.025   5.829   2.713  0.5784 -0.4172  0.0459
  866MOL0     C16815   4.983   5.956   2.644 -0.4823  0.4306  0.0346
  866MOL0     C16816   5.092   6.056   2.635 -0.4542  0.6463 -0.1233
  866MOL0     C16817   5.089   6.141   2.510 -1.0393 -0.7541 -0.1211
  866MOL0     C16818   5.233   6.172   2.469  1.6858 -0.8924 -0.8246
  866MOL0     C16819   5.281   6.283   2.572  0.0671 -0.0417  0.1682
  866MOL0    Cl16820   5.451   6.322   2.536  0.1894 -0.3529 -0.2443
  866MOL0     C16821   5.054   5.595   3.240  0.8883 -0.3780  0.4057
  866MOL0     C16822   5.085   5.482   3.318 -0.1202 -0.6594  0.5163
  866MOL0     O16823   5.295   5.441   3.584 -0.2617 -0.0563 -0.5757
  866MOL0     C16824   5.288   5.234   3.766 -0.2143  0.9815 -0.3171
  866MOL0     C16825   5.294   5.124   3.864  0.2387 -0.0018  0.6723
  866MOL0     N16826   4.962   4.624   4.427 -0.7286 -0.4295  0.0853
  866MOL0     N16827   4.963   4.634   4.552  0.2375 -0.2155 -0.0017
  866MOL0     C16828   4.247   4.155   4.690  0.0886 -0.7257 -0.6893
  866MOL0     C16829   4.138   4.143   4.610 -0.7388 -0.3032  1.0705
  866MOL0     C16830   3.757   4.295   4.409  0.2193 -0.4013  0.8489
  866MOL0     C16831   3.670   4.184   4.420  0.5146 -0.6945  0.4883
  866MOL0     C16832   3.542   4.185   4.369 -0.2310  0.3736 -0.5658
  866MOL0     C16833   3.502   4.291   4.287  0.4252 -0.1773  0.1855
  866MOL0     O16834   3.380   4.285   4.231 -0.3565  0.9101 -0.0298
  866MOL0     C16835   3.377   4.230   4.097 -0.7519 -0.0229  0.2622
  866MOL0     C16836   3.275   4.116   4.075 -0.2826 -0.4543 -0.2899
  866MOL0     C16837   3.128   4.168   4.043 -0.8854  0.0298 -0.1725
  866MOL0     C16838   3.104   4.269   3.929  0.8364 -0.2083 -0.6840
  866MOL0     C16839   2.957   4.288   3.903 -0.1340  0.6259 -0.0415
  866MOL0     C16840   2.832   4.291   3.885 -0.3980 -0.2581  0.3968
  866MOL0     C16841   3.591   4.399   4.265  0.3186 -0.1146  0.2620
  866MOL0     C16842   3.717   4.397   4.313 -0.4503  1.3982  0.3772
  866MOL0     H16843   3.937   4.367   4.768 -0.5652  0.0842 -1.8036
  866MOL0     H16844   4.153   4.389   4.919  0.4250 -1.1494  0.6465
  866MOL0     H16845   4.478   4.097   4.829  0.4171  1.2752 -1.1632
  866MOL0     H16846   4.525   4.240   4.746  0.4805 -0.4994 -0.8065
  866MOL0     H16847   4.557   4.190   5.042 -0.9103  1.4143 -0.4560
  866MOL0     H16848   4.698   4.196   4.927 -0.7125 -1.3032 -1.8215
  866MOL0     H16849   4.522   4.444   4.949 -1.6760 -0.8457  3.6392
  866MOL0     H16850   4.622   4.417   5.088  1.9735 -1.2266 -0.0945
  866MOL0     H16851   4.826   4.412   4.958 -0.2549  2.0826  1.4929
  866MOL0     H16852   4.737   4.416   4.799  0.3329  2.9118  0.0589
  866MOL0     H16853   4.686   4.645   4.843 -1.7792 -0.6185  1.4322
  866MOL0     H16854   4.748   4.631   5.011  1.5892 -0.4041  0.2514
  866MOL0     H16855   4.966   4.636   4.960  0.9327  1.7302 -0.1313
  866MOL0     H16856   4.942   4.559   4.811  0.0156  1.9494 -1.2960
  866MOL0     H16857   4.832   4.795   4.731  1.3104  0.4289 -0.4820
  866MOL0     H16858   4.897   4.856   4.882  1.6819  1.4737 -0.0380
  866MOL0     H16859   5.123   4.733   4.790 -0.5352  2.0676  0.9035
  866MOL0     H16860   5.072   4.894   4.733  1.3976 -0.2518  1.5743
  866MOL0     H16861   5.159   4.876   4.472 -0.3256 -0.5844 -0.6471
  866MOL0     H16862   5.079   4.644   4.189 -0.5490  0.4104  1.2548
  866MOL0     H16863   5.027   4.812   4.181 -2.0948  1.2632  2.2811
  866MOL0     H16864   5.277   4.683   4.292  0.9893  1.7326  2.1706
  866MOL0     H16865   5.260   4.869   4.294 -2.1934  2.1567  0.3034
  866MOL0     H16866   5.267   4.683   4.052 -0.2671  0.7325  0.9823
  866MOL0     H16867   5.415   4.746   4.128  0.6961  2.3084 -0.1571
  866MOL0     H16868   5.385   4.973   4.058 -0.8313  0.6649  0.1092
  866MOL0     H16869   5.216   4.956   4.079 -0.6521 -1.9647 -0.0500
  866MOL0     H16870   5.215   4.870   3.667  2.3237 -2.9403  5.8596
  866MOL0     H16871   5.138   5.108   3.418  0.5486  2.3535  0.7886
  866MOL0     H16872   5.305   5.054   3.394  0.1720 -0.6060  0.2689
  866MOL0     H16873   5.182   4.939   3.442 -2.2984  1.3524 -0.6171
  866MOL0     H16874   5.419   5.467   3.271  0.2822  1.0605  1.7659
  866MOL0     H16875   5.360   5.664   3.107 -1.6433  0.2330 -2.9362
  866MOL0     H16876   5.210   5.708   2.885  0.2892 -0.6037  0.4635
  866MOL0     H16877   5.067   5.625   2.907  3.1737 -0.9740  0.5535
  866MOL0     H16878   4.933   5.856   2.905  1.2000 -0.6911  1.5690
  866MOL0     H16879   5.102   5.923   2.895  0.3134 -0.3719  0.9536
  866MOL0     H16880   4.944   5.758   2.695 -1.0447  1.3731 -0.1127
  866MOL0     H16881   5.117   5.787   2.673 -0.2086 -1.2118 -0.9827
  866MOL0     H16882   4.961   5.930   2.540  0.1649 -0.5191  0.1218
  866MOL0     H16883   4.894   5.998   2.691  1.2181  3.8078  0.5001
  866MOL0     H16884   5.186   5.999   2.638 -0.8951 -0.4705 -3.3881
  866MOL0     H16885   5.088   6.125   2.719  3.1273  0.6893  0.1752
  866MOL0     H16886   5.042   6.080   2.431 -0.3911 -0.9473 -0.3687
  866MOL0     H16887   5.040   6.238   2.512  1.9170  0.9554 -2.4586
  866MOL0     H16888   5.244   6.227   2.375 -0.9191  1.3524  0.0668
  866MOL0     H16889   5.298   6.084   2.473  0.1412 -2.0264  0.4530
  866MOL0     H16890   5.270   6.244   2.674 -0.2851  0.6709  0.4058
  866MOL0     H16891   5.216   6.370   2.560  0.3662 -0.0565 -2.0072
  866MOL0     H16892   4.958   5.643   3.256 -0.8181 -3.5587  0.4105
  866MOL0     H16893   5.009   5.447   3.387 -1.4154 -0.8722 -0.9562
  866MOL0     H16894   5.328   5.328   3.802  2.1935  0.2977 -0.9900
  866MOL0     H16895   5.316   5.152   3.966  0.6934  0.4370  0.4592
  866MOL0     H16896   4.338   4.098   4.676  0.6449 -0.8639  2.6134
  866MOL0     H16897   4.140   4.083   4.519 -0.0785  0.0677  0.8318
  866MOL0     H16898   3.701   4.112   4.496  2.5916  0.3519  0.7058
  866MOL0     H16899   3.484   4.097   4.394  0.2442 -0.1762 -1.3581
  866MOL0     H16900   3.359   4.309   4.023 -1.6512  1.2757  1.8137
  866MOL0     H16901   3.473   4.187   4.065 -0.7046  1.6259 -2.1689
  866MOL0     H16902   3.277   4.074   4.175  1.2036 -1.4920 -0.7161
  866MOL0     H16903   3.294   4.042   3.996  1.5047  1.6211 -1.9432
  866MOL0     H16904   3.086   4.199   4.139  0.3319 -0.4058  0.5288
  866MOL0     H16905   3.071   4.080   4.014  0.5876 -0.6494 -1.1678
  866MOL0     H16906   3.143   4.231   3.834  0.9892  1.5680 -1.3684
  866MOL0     H16907   3.169   4.354   3.953  3.3244 -1.9892 -0.6783
  866MOL0     H16908   2.732   4.270   3.855 -1.3601  1.5902  2.0301
  866MOL0     H16909   3.558   4.476   4.195  0.2646 -0.1338  0.2661
  866MOL0     H16910   3.788   4.477   4.294 -1.0879  2.4648  2.1867
  867MOL0     O16911   0.991   2.060   8.662  1.0785  0.3493 -0.2468
  867MOL0     C16912   1.113   2.037   8.664  0.2849  0.2781  0.3458
  867MOL0     O16913   1.177   1.955   8.580 -0.3854  0.5999  0.4091
  867MOL0     C16914   1.102   1.860   8.502  0.5696 -0.5538 -1.1690
  867MOL0     C16915   1.153   1.830   8.380 -1.2210  0.0792  0.3410
  867MOL0     C16916   1.092   1.729   8.313  0.4967  0.7000 -0.0982
  867MOL0     C16917   0.982   1.648   8.359 -0.6784  0.1823 -0.0827
  867MOL0     O16918   0.926   1.562   8.271 -0.1931  0.5211  0.3171
  867MOL0     C16919   0.820   1.484   8.318  0.7273 -0.7132  0.4497
  867MOL0     C16920   0.789   1.384   8.212 -0.6032  0.2867 -0.3226
  867MOL0     C16921   0.679   1.288   8.246 -0.6433 -0.6321  0.1085
  867MOL0     C16922   0.641   1.210   8.114  0.3624 -0.0780 -0.7321
  867MOL0     C16923   0.758   1.126   8.065 -0.2472  0.3605 -0.1424
  867MOL0     C16924   0.720   1.034   7.948 -0.6839 -0.5366 -1.1208
  867MOL0     C16925   0.718   1.096   7.817 -0.3188 -0.3256 -0.4445
  867MOL0     C16926   0.625   1.025   7.722 -0.4242  1.1205 -0.7591
  867MOL0     N16927   0.485   1.008   7.771  0.5017 -0.5329 -0.4680
  867MOL0     C16928   0.415   1.093   7.857  0.5072 -0.0856 -0.2764
  867MOL0     C16929   0.297   1.026   7.893 -0.3783 -0.5469  0.6006
  867MOL0     C16930   0.185   1.078   7.973 -0.1225 -0.3594 -0.5320
  867MOL0     C16931   0.117   1.203   7.909 -0.0503 -0.5083  0.0117
  867MOL0     C16932  -0.030   1.236   7.943  0.4855 -0.0371  0.3424
  867MOL0     C16933  -0.052   1.247   8.093 -0.6752  0.3528  0.1401
  867MOL0     O16934  -0.190   1.213   8.109 -0.6047  0.5765 -0.2573
  867MOL0     C16935  -0.263   1.291   8.186 -0.3252  0.4789 -0.0296
  867MOL0     C16936  -0.216   1.363   8.300 -1.0317 -0.6139  0.7686
  867MOL0     C16937  -0.301   1.426   8.389  0.4345  0.1358 -0.1679
  867MOL0     C16938  -0.220   1.523   8.483  0.0901 -0.0132  0.3375
  867MOL0     C16939  -0.442   1.405   8.377  0.8125  0.7487  0.1395
  867MOL0     C16940  -0.550   1.464   8.464 -0.8168 -0.7643 -0.9549
  867MOL0     O16941  -0.677   1.444   8.422  0.3750 -0.2208  0.3320
  867MOL0     C16942  -0.780   1.523   8.470  0.3706  0.4290  0.5686
  867MOL0     C16943  -0.793   1.666   8.489  0.2198 -0.3428  0.0810
  867MOL0     C16944  -0.915   1.715   8.546  0.9188 -0.3661  0.8412
  867MOL0     C16945  -1.016   1.630   8.575 -0.0053 -0.2809  0.0203
  867MOL0     O16946  -1.124   1.657   8.645  0.5070  0.0590 -0.3437
  867MOL0     C16947  -1.180   1.782   8.625  0.3158  0.4464  0.5872
  867MOL0     C16948  -1.152   1.862   8.746 -1.2484  0.2366 -0.0843
  867MOL0     C16949  -1.270   1.946   8.782  0.2872 -1.6115  0.3058
  867MOL0     C16950  -1.217   2.048   8.897  0.0500  0.1533 -0.2040
  867MOL0     C16951  -1.338   2.138   8.935  0.6823 -0.1537 -0.0942
  867MOL0     C16952  -1.334   2.272   8.859  0.0191 -0.5100  0.1842
  867MOL0     C16953  -1.459   2.363   8.882  0.4090 -0.1726 -0.5109
  867MOL0     C16954  -1.481   2.459   8.771  0.4824 -0.7442  0.5228
  867MOL0    Cl16955  -1.580   2.377   8.650 -0.2675 -0.3360  0.7947
  867MOL0     C16956  -0.999   1.496   8.559 -0.8963  0.7827 -0.1884
  867MOL0     C16957  -0.884   1.440   8.504  1.0635 -0.6115  0.8472
  867MOL0     O16958  -0.523   1.522   8.578 -0.1634 -0.1990  0.3991
  867MOL0     C16959  -0.491   1.325   8.264 -0.7949  0.5466  0.2451
  867MOL0     C16960  -0.399   1.270   8.176  0.8167 -0.6636  0.2873
  867MOL0     N16961   0.299   0.906   7.828  0.8685  0.0612 -0.2536
  867MOL0     N16962   0.409   0.896   7.762 -0.2177  1.5655  0.5866
  867MOL0     C16963   0.944   1.667   8.493  1.7549 -0.1820  1.1695
  867MOL0     C16964   0.999   1.781   8.557 -0.5117 -0.1651 -0.8004
  867MOL0     C16965   1.187   2.108   8.762  0.2936 -1.0661  0.3178
  867MOL0     C16966   1.119   2.179   8.866 -0.3773  0.8705 -0.6364
  867MOL0     C16967   1.194   2.256   8.951 -0.6450 -0.2666 -0.7211
  867MOL0     C16968   1.332   2.265   8.945  0.1820  0.3010 -0.3592
  867MOL0     O16969   1.389   2.361   9.024 -0.2817 -0.0108  0.1732
  867MOL0     C16970   1.535   2.355   9.016  0.3407 -1.2101 -0.3549
  867MOL0     C16971   1.584   2.462   9.116  0.6372  0.0800  0.2640
  867MOL0     C16972   1.738   2.423   9.139  0.2155 -0.0769  0.3198
  867MOL0     C16973   1.788   2.475   9.268 -0.0754  0.5527 -0.2952
  867MOL0     C16974   1.770   2.387   9.380 -0.7941  0.2858 -0.2478
  867MOL0     C16975   1.726   2.308   9.463 -0.4903  0.4621  0.4110
  867MOL0     C16976   1.397   2.197   8.841 -0.9229 -0.8391  0.1925
  867MOL0     C16977   1.328   2.128   8.745 -0.3764  0.5541 -0.3658
  867MOL0     H16978   1.247   1.878   8.355  0.2461 -3.8778 -2.9260
  867MOL0     H16979   1.135   1.715   8.214  1.1750 -1.7330  0.4689
  867MOL0     H16980   0.844   1.420   8.404 -0.7232 -0.2921  1.2076
  867MOL0     H16981   0.735   1.552   8.327 -0.1097 -1.3686 -1.7926
  867MOL0     H16982   0.774   1.427   8.113  2.1889  1.8376 -0.1560
  867MOL0     H16983   0.878   1.321   8.208 -1.6709 -1.2272 -1.7118
  867MOL0     H16984   0.699   1.218   8.328 -1.9368 -1.8945 -0.6124
  867MOL0     H16985   0.585   1.338   8.274 -0.0661  1.0189 -0.7598
  867MOL0     H16986   0.550   1.149   8.123  0.8099 -0.6318  0.2510
  867MOL0     H16987   0.616   1.291   8.046  0.8176  2.2309  1.7015
  867MOL0     H16988   0.836   1.192   8.027  1.6743 -0.0538  2.8085
  867MOL0     H16989   0.797   1.081   8.156 -1.5624  2.4923  1.5617
  867MOL0     H16990   0.800   0.959   7.947 -0.9458 -0.8729  0.5509
  867MOL0     H16991   0.625   0.987   7.972 -0.8494  0.3408  0.0606
  867MOL0     H16992   0.686   1.200   7.830 -0.9832 -0.5282 -0.4146
  867MOL0     H16993   0.818   1.095   7.772 -1.1702 -3.2084 -2.5636
  867MOL0     H16994   0.670   0.926   7.714  1.6762  1.8079  1.2885
  867MOL0     H16995   0.632   1.071   7.623  2.4989 -1.9173 -2.1674
  867MOL0     H16996   0.434   1.197   7.882 -0.0297 -0.3899  1.5360
  867MOL0     H16997   0.114   0.998   7.991 -0.3889  0.2252  1.1277
  867MOL0     H16998   0.216   1.102   8.075  1.8608  0.0193 -1.1768
  867MOL0     H16999   0.119   1.192   7.800  1.2926 -0.1900 -0.0147
  867MOL0     H17000   0.184   1.289   7.918  1.4822 -1.7131  0.5958
  867MOL0     H17001  -0.081   1.149   7.902 -0.3967  1.2217 -1.3578
  867MOL0     H17002  -0.065   1.328   7.894  2.9147  2.3609  2.8047
  867MOL0     H17003  -0.031   1.350   8.124 -0.4979  0.2272  0.4366
  867MOL0     H17004   0.010   1.177   8.150 -1.0817 -2.1267 -2.2562
  867MOL0     H17005  -0.110   1.374   8.321 -0.3605 -0.9024 -2.1060
  867MOL0     H17006  -0.278   1.590   8.547  0.3802  0.6380 -0.0614
  867MOL0     H17007  -0.149   1.462   8.538  1.5661 -0.0751 -1.5111
  867MOL0     H17008  -0.169   1.591   8.413 -0.4473 -0.4555 -0.4975
  867MOL0     H17009  -0.710   1.733   8.469 -0.4048  0.5526  0.4388
  867MOL0     H17010  -0.935   1.822   8.549 -2.5446 -0.9058  1.0146
  867MOL0     H17011  -1.143   1.849   8.547 -1.5518  0.2038 -0.5675
  867MOL0     H17012  -1.287   1.777   8.604 -0.1089  0.7241  2.4987
  867MOL0     H17013  -1.132   1.799   8.834  0.3974  0.0153 -0.5973
  867MOL0     H17014  -1.068   1.930   8.733 -0.0929 -1.4095 -1.7568
  867MOL0     H17015  -1.359   1.889   8.810 -0.9934  0.3133  0.3699
  867MOL0     H17016  -1.306   2.005   8.697 -0.9145 -0.0044  1.8383
  867MOL0     H17017  -1.186   1.990   8.984  2.7354 -2.1018 -2.4556
  867MOL0     H17018  -1.129   2.105   8.866  0.9415 -0.8607  0.3669
  867MOL0     H17019  -1.349   2.151   9.043  0.2801  2.3149 -0.3744
  867MOL0     H17020  -1.432   2.091   8.905  1.9317 -2.3112 -0.8547
  867MOL0     H17021  -1.243   2.325   8.889 -0.2905  0.2215 -0.1476
  867MOL0     H17022  -1.333   2.250   8.752 -4.1181  1.1519 -0.3743
  867MOL0     H17023  -1.438   2.419   8.973 -0.7953 -1.4354  0.5872
  867MOL0     H17024  -1.543   2.297   8.906  0.5407 -0.4785 -0.8723
  867MOL0     H17025  -1.392   2.507   8.728  0.8207 -2.6900 -1.1121
  867MOL0     H17026  -1.536   2.543   8.815 -0.1194 -0.1154 -1.3423
  867MOL0     H17027  -1.089   1.442   8.585 -2.1751  0.9407 -3.7093
  867MOL0     H17028  -0.876   1.332   8.493 -0.8862 -0.6822 -0.3319
  867MOL0     H17029  -0.596   1.305   8.244 -0.4562 -0.2349 -0.8846
  867MOL0     H17030  -0.449   1.221   8.093 -1.3152  2.1602 -0.2758
  867MOL0     H17031   0.866   1.613   8.545  3.4927 -2.9742  1.1393
  867MOL0     H17032   0.976   1.818   8.656  0.4042  0.3367 -0.7614
  867MOL0     H17033   1.013   2.168   8.884 -0.5493  1.9439 -0.8906
  867MOL0     H17034   1.143   2.324   9.019 -1.5188 -1.0305 -0.5836
  867MOL0     H17035   1.572   2.257   9.049 -1.7461 -0.9030  3.4374
  867MOL0     H17036   1.565   2.377   8.914  0.4918 -1.0434 -0.2752
  867MOL0     H17037   1.528   2.450   9.208  2.5260  1.6722  1.7208
  867MOL0     H17038   1.562   2.559   9.070 -2.7966  0.0308  1.5087
  867MOL0     H17039   1.803   2.472   9.066  1.1206 -1.5065  0.1236
  867MOL0     H17040   1.752   2.315   9.131 -0.4116 -0.3167  1.9486
  867MOL0     H17041   1.736   2.570   9.283  1.1086  1.5008 -1.8490
  867MOL0     H17042   1.895   2.495   9.255 -0.0308  2.5319  2.2833
  867MOL0     H17043   1.683   2.252   9.544  2.3751 -1.6833  0.6330
  867MOL0     H17044   1.503   2.203   8.819 -1.1445 -0.5177 -0.8382
  867MOL0     H17045   1.373   2.087   8.656 -0.6867  0.1992 -0.3608
  868MOL0     O17046   1.810   9.254   6.665 -0.5304  0.4902 -0.0108
  868MOL0     C17047   1.819   9.378   6.615 -0.3101  0.3757 -0.8559
  868MOL0     O17048   1.727   9.478   6.617  0.3593  0.3342 -0.1257
  868MOL0     C17049   1.613   9.454   6.687  1.0190  0.0390  0.0357
  868MOL0     C17050   1.534   9.343   6.666  0.5079  0.0070 -0.2740
  868MOL0     C17051   1.412   9.319   6.743 -0.3363  0.7896  0.3290
  868MOL0     C17052   1.374   9.422   6.831  0.6413  0.4465 -0.0325
  868MOL0     O17053   1.266   9.395   6.907  0.1906 -0.3723 -0.0334
  868MOL0     C17054   1.204   9.494   6.992  0.6209 -0.0207 -0.0186
  868MOL0     C17055   1.091   9.425   7.077  0.2296 -0.1765  0.9850
  868MOL0     C17056   1.117   9.420   7.221  0.0899 -0.5891  0.0438
  868MOL0     C17057   0.991   9.377   7.287  0.8309 -0.0655 -0.1285
  868MOL0     C17058   0.890   9.482   7.329  0.6222  0.1092 -0.4987
  868MOL0     C17059   0.803   9.438   7.447 -0.3658  0.3585 -0.6041
  868MOL0     C17060   0.699   9.335   7.417  0.5305  0.5629  0.3570
  868MOL0     C17061   0.586   9.383   7.318 -0.2733  0.7773  0.8244
  868MOL0     N17062   0.504   9.274   7.260  0.1261  0.1992 -0.0552
  868MOL0     C17063   0.549   9.147   7.215 -0.3439 -0.8996  0.5432
  868MOL0     C17064   0.452   9.109   7.129  0.6742  0.4474 -0.1984
  868MOL0     C17065   0.462   8.972   7.062  0.0334 -0.1478 -0.6199
  868MOL0     C17066   0.491   8.853   7.157  0.6186  0.5677 -0.3310
  868MOL0     C17067   0.366   8.826   7.238 -0.5324 -0.0871 -0.7259
  868MOL0     C17068   0.376   8.714   7.336 -0.3486  0.3761 -0.0596
  868MOL0     O17069   0.408   8.587   7.275  0.3911  0.8350 -0.4097
  868MOL0     C17070   0.406   8.472   7.345  0.1469  0.5497  0.0990
  868MOL0     C17071   0.315   8.452   7.451 -0.2466  0.7956  0.3668
  868MOL0     C17072   0.296   8.324   7.502  0.9771 -0.2312  1.2804
  868MOL0     C17073   0.197   8.316   7.614 -0.2676 -0.2314 -0.7230
  868MOL0     C17074   0.360   8.212   7.451 -0.3118  0.4038 -0.3842
  868MOL0     C17075   0.335   8.075   7.497  1.3875 -0.8191 -1.3016
  868MOL0     O17076   0.437   7.991   7.459  0.1050  0.0533 -0.0639
  868MOL0     C17077   0.446   7.870   7.515 -0.6915 -0.1398 -0.2277
  868MOL0     C17078   0.481   7.767   7.427 -0.3216  0.6659 -0.5875
  868MOL0     C17079   0.474   7.637   7.474 -1.1942 -0.0561 -0.5236
  868MOL0     C17080   0.456   7.601   7.615  0.1576  0.2179  0.6001
  868MOL0     O17081   0.441   7.466   7.642 -0.1873 -0.1387 -0.2458
  868MOL0     C17082   0.527   7.375   7.583  1.0836  1.0075  1.2789
  868MOL0     C17083   0.525   7.251   7.668 -0.2891 -0.0381  0.2076
  868MOL0     C17084   0.396   7.172   7.649 -1.0012  0.1605  0.0373
  868MOL0     C17085   0.388   7.067   7.756  0.5878 -0.1114  0.4354
  868MOL0     C17086   0.258   6.981   7.729  0.0574  0.1140 -1.4314
  868MOL0     C17087   0.206   6.915   7.861  0.4911  0.2880 -0.1773
  868MOL0     C17088   0.087   6.813   7.844 -0.3119 -0.6581  0.2400
  868MOL0     C17089   0.126   6.670   7.841  1.0666 -0.1244 -0.2710
  868MOL0    Cl17090   0.265   6.647   7.739 -0.0700  0.1379 -0.1574
  868MOL0     C17091   0.444   7.706   7.702 -0.3760  0.2016 -0.7262
  868MOL0     C17092   0.439   7.840   7.648 -0.1744  0.3399  0.2177
  868MOL0     O17093   0.244   8.045   7.570  0.4808 -0.3014 -0.3980
  868MOL0     C17094   0.453   8.230   7.354 -0.6637  0.4168 -0.2357
  868MOL0     C17095   0.485   8.359   7.300  0.3371 -1.1742  0.6075
  868MOL0     N17096   0.348   9.204   7.132  0.2450  0.0203 -0.0932
  868MOL0     N17097   0.379   9.303   7.205 -0.0816 -0.4138  0.2735
  868MOL0     C17098   1.444   9.543   6.842  0.2929 -0.8596 -0.6477
  868MOL0     C17099   1.565   9.554   6.770  0.4845  0.0244 -0.0685
  868MOL0     C17100   1.951   9.434   6.575 -0.5457 -0.1261 -0.0162
  868MOL0     C17101   2.065   9.375   6.632 -0.5035  0.8925  0.0061
  868MOL0     C17102   2.193   9.408   6.595 -0.2485 -0.8075 -0.2904
  868MOL0     C17103   2.214   9.522   6.512 -0.0934 -0.6736 -0.6874
  868MOL0     O17104   2.327   9.561   6.468 -0.4813 -0.4536  0.2644
  868MOL0     C17105   2.436   9.566   6.556 -0.9711 -0.1275  0.0432
  868MOL0     C17106   2.564   9.544   6.466  0.1969 -0.0458 -0.6344
  868MOL0     C17107   2.597   9.674   6.392 -0.3489 -0.7674 -0.7212
  868MOL0     C17108   2.736   9.680   6.332  0.3823 -0.7401  1.1742
  868MOL0     C17109   2.745   9.795   6.233 -0.8790  0.8742  0.0608
  868MOL0     C17110   2.730   9.892   6.173  0.0810 -0.4932 -0.0111
  868MOL0     C17111   2.101   9.583   6.460 -0.5194  0.3855  0.4937
  868MOL0     C17112   1.967   9.552   6.497 -1.1708 -0.2133 -0.8995
  868MOL0     H17113   1.569   9.278   6.587  0.5016  0.1019 -0.3548
  868MOL0     H17114   1.347   9.234   6.729 -0.7980  0.6108  3.0887
  868MOL0     H17115   1.272   9.538   7.065 -0.3895 -1.1402  1.6583
  868MOL0     H17116   1.160   9.574   6.932  1.2191  0.1243 -0.2648
  868MOL0     H17117   1.002   9.479   7.043  2.3392  1.6006 -2.2671
  868MOL0     H17118   1.075   9.322   7.044 -2.7388 -0.2295  2.2609
  868MOL0     H17119   1.194   9.347   7.249 -0.0254 -1.2677 -1.3294
  868MOL0     H17120   1.141   9.520   7.258  1.8169 -1.5461  1.7090
  868MOL0     H17121   0.948   9.286   7.245 -3.4337  1.6587  0.0534
  868MOL0     H17122   1.023   9.331   7.381  1.0937 -1.6581 -0.9508
  868MOL0     H17123   0.941   9.567   7.375  2.0635 -2.4320  3.0281
  868MOL0     H17124   0.837   9.519   7.240 -0.5878 -2.6178 -1.0361
  868MOL0     H17125   0.867   9.407   7.530  2.9765  0.2486 -3.0008
  868MOL0     H17126   0.745   9.524   7.479 -0.4195 -0.7273  2.5276
  868MOL0     H17127   0.755   9.243   7.397  0.8182 -0.1775  3.9334
  868MOL0     H17128   0.640   9.316   7.506 -0.3717  0.1054 -0.3297
  868MOL0     H17129   0.634   9.434   7.234 -1.1799 -0.7524 -0.7162
  868MOL0     H17130   0.533   9.468   7.363  0.0388  0.0077  2.7334
  868MOL0     H17131   0.642   9.098   7.243 -0.3151  0.0845  2.3150
  868MOL0     H17132   0.377   8.964   6.995  1.6005  1.9872 -3.0251
  868MOL0     H17133   0.547   8.995   6.997  0.6561  0.0430  0.2391
  868MOL0     H17134   0.573   8.870   7.228  0.5274  0.1851 -0.1300
  868MOL0     H17135   0.514   8.768   7.092  0.5204 -1.2852  1.9249
  868MOL0     H17136   0.283   8.806   7.169 -3.3359  0.3611  2.2387
  868MOL0     H17137   0.347   8.914   7.300  0.0320 -1.9982  2.3254
  868MOL0     H17138   0.278   8.703   7.384 -0.7707  1.8561 -0.5488
  868MOL0     H17139   0.450   8.734   7.414  0.2933 -1.7601 -0.0438
  868MOL0     H17140   0.268   8.540   7.493  0.3638  1.6019 -0.6018
  868MOL0     H17141   0.100   8.287   7.572 -1.2836  0.6883  0.8414
  868MOL0     H17142   0.227   8.246   7.692 -2.3228  2.2467  2.5844
  868MOL0     H17143   0.203   8.413   7.666  3.1411 -0.1493 -1.0610
  868MOL0     H17144   0.509   7.782   7.324  4.0753 -0.4325  0.2346
  868MOL0     H17145   0.484   7.548   7.412  1.2048 -1.2540  1.3923
  868MOL0     H17146   0.480   7.357   7.485 -3.5944 -0.9337  3.5788
  868MOL0     H17147   0.628   7.413   7.571  0.9684  1.2366  1.0112
  868MOL0     H17148   0.603   7.189   7.624 -1.0202 -0.2138 -0.9048
  868MOL0     H17149   0.546   7.273   7.773  2.2668  0.4730 -0.3546
  868MOL0     H17150   0.395   7.127   7.550 -1.2413  0.2960 -0.0249
  868MOL0     H17151   0.314   7.240   7.674  1.1034  2.2821  1.6323
  868MOL0     H17152   0.472   7.002   7.732  0.6021  0.2831 -0.6661
  868MOL0     H17153   0.398   7.105   7.858  1.6864  3.5103 -0.8545
  868MOL0     H17154   0.292   6.900   7.664  2.3604 -0.5780  0.5160
  868MOL0     H17155   0.180   7.045   7.686  0.0047 -0.6398 -2.4961
  868MOL0     H17156   0.288   6.873   7.921  0.0395 -0.3613 -0.0001
  868MOL0     H17157   0.165   7.000   7.917 -0.6418 -0.8376  0.7741
  868MOL0     H17158   0.044   6.835   7.746  0.9340 -0.3769 -0.2667
  868MOL0     H17159   0.017   6.837   7.925  1.3041  2.3311  0.9118
  868MOL0     H17160   0.043   6.610   7.802  1.0262 -0.4473  0.3109
  868MOL0     H17161   0.152   6.637   7.942  2.7578  3.4953  0.6521
  868MOL0     H17162   0.451   7.663   7.801  2.5985 -1.4782 -1.5193
  868MOL0     H17163   0.425   7.927   7.711 -1.3853  0.5545 -0.3236
  868MOL0     H17164   0.518   8.157   7.307 -1.2003  0.9386 -1.8489
  868MOL0     H17165   0.542   8.369   7.208  1.6292  0.2131  1.5116
  868MOL0     H17166   1.412   9.627   6.902  2.4348 -0.9124  0.6944
  868MOL0     H17167   1.619   9.648   6.777  2.6943 -1.2473  1.4452
  868MOL0     H17168   2.049   9.282   6.686 -1.0402  0.8400 -0.2307
  868MOL0     H17169   2.266   9.336   6.630  1.7262  1.0118 -0.4859
  868MOL0     H17170   2.431   9.657   6.616  0.5437 -0.1738  0.2803
  868MOL0     H17171   2.436   9.484   6.628  2.1767  0.4177  0.8142
  868MOL0     H17172   2.553   9.451   6.409 -0.7793 -4.6725  5.9379
  868MOL0     H17173   2.651   9.515   6.525  0.5375 -2.5692 -2.2053
  868MOL0     H17174   2.586   9.757   6.462  4.7631  1.0891 -1.6405
  868MOL0     H17175   2.524   9.697   6.314 -1.4063  2.7928  1.1065
  868MOL0     H17176   2.767   9.593   6.274  1.3368  0.0425  0.4782
  868MOL0     H17177   2.811   9.695   6.410  1.2665  0.5126  0.1147
  868MOL0     H17178   2.709   9.978   6.113 -1.6164 -0.7384  0.1749
  868MOL0     H17179   2.099   9.654   6.378 -1.2332  0.0286  0.1968
  868MOL0     H17180   1.882   9.610   6.462 -1.7011  0.5408  1.4604
  869MOL0     O17181   2.645   1.547   8.420  0.1827 -0.4948 -0.0122
  869MOL0     C17182   2.657   1.435   8.375  0.0021 -0.0038  0.6435
  869MOL0     O17183   2.562   1.364   8.311 -0.0961  0.0414 -0.5492
  869MOL0     C17184   2.436   1.414   8.317  0.3184  0.6395  0.2972
  869MOL0     C17185   2.341   1.323   8.362 -0.5613  0.1673  0.2487
  869MOL0     C17186   2.209   1.365   8.351 -0.3416 -0.4792  0.1261
  869MOL0     C17187   2.164   1.491   8.306 -0.7412  0.8978  0.7639
  869MOL0     O17188   2.029   1.490   8.289  0.3181 -0.0814  0.5131
  869MOL0     C17189   1.962   1.601   8.345 -1.3744 -0.3148  0.2331
  869MOL0     C17190   1.953   1.603   8.494 -0.7129 -0.0819  0.2756
  869MOL0     C17191   1.875   1.483   8.539 -0.2123  0.7820 -0.2216
  869MOL0     C17192   1.870   1.463   8.689 -0.0588  0.0639 -0.1188
  869MOL0     C17193   1.778   1.356   8.744  0.5815 -0.2542 -0.3592
  869MOL0     C17194   1.741   1.243   8.644 -0.7692  0.0265  0.4592
  869MOL0     C17195   1.685   1.118   8.711  0.2932 -0.5709 -0.1958
  869MOL0     C17196   1.656   1.003   8.612  0.0778 -0.5441  0.5299
  869MOL0     N17197   1.586   1.024   8.484  0.4913  0.2018  0.7027
  869MOL0     C17198   1.456   1.015   8.476  0.3170  0.6812 -0.8548
  869MOL0     C17199   1.422   1.009   8.347  0.5731 -0.2317  0.1049
  869MOL0     C17200   1.288   0.989   8.276  0.1693  0.2838  0.0276
  869MOL0     C17201   1.199   1.117   8.271 -0.9540 -0.9792  0.9929
  869MOL0     C17202   1.276   1.223   8.190 -0.5052 -0.3050 -0.0980
  869MOL0     C17203   1.180   1.340   8.147  0.2716  0.1300 -0.6318
  869MOL0     O17204   1.110   1.301   8.032 -0.3714  0.3400 -0.2699
  869MOL0     C17205   1.158   1.315   7.910 -0.0575  0.6865  0.6236
  869MOL0     C17206   1.297   1.294   7.870  0.4102 -0.4547  0.4141
  869MOL0     C17207   1.333   1.325   7.741  0.3933  1.0024 -0.3717
  869MOL0     C17208   1.486   1.292   7.711  1.2964 -0.2287 -0.2608
  869MOL0     C17209   1.239   1.369   7.641 -0.0854  0.1067 -0.2144
  869MOL0     C17210   1.278   1.383   7.501  0.1708  0.0526  0.5632
  869MOL0     O17211   1.188   1.347   7.407 -0.3432  0.2376 -0.4629
  869MOL0     C17212   1.205   1.278   7.291 -0.2562  0.6482  0.1083
  869MOL0     C17213   1.093   1.268   7.207  0.2648 -0.0285 -0.6670
  869MOL0     C17214   1.087   1.201   7.085  0.1254 -0.4401 -0.6521
  869MOL0     C17215   1.208   1.136   7.041  0.1286  0.2998 -0.2033
  869MOL0     O17216   1.219   1.066   6.920 -0.4491  0.8067 -0.5456
  869MOL0     C17217   1.124   1.067   6.814  0.3341  0.1128 -0.7303
  869MOL0     C17218   1.173   0.998   6.690 -0.0361  0.2518 -0.0387
  869MOL0     C17219   1.053   0.937   6.627  0.0367 -1.0817 -0.4396
  869MOL0     C17220   1.077   0.911   6.481 -0.2092  1.1578  0.7237
  869MOL0     C17221   0.964   0.838   6.415  0.2013 -0.7685  0.1590
  869MOL0     C17222   0.980   0.689   6.415  0.9828  0.1175 -0.0870
  869MOL0     C17223   0.870   0.634   6.326  0.9869  0.9422 -0.0616
  869MOL0     C17224   0.856   0.485   6.339 -0.0322  0.0133  0.2004
  869MOL0    Cl17225   0.770   0.425   6.490 -0.0258 -0.3178  0.4770
  869MOL0     C17226   1.324   1.150   7.122  0.7224 -0.4340  0.1192
  869MOL0     C17227   1.325   1.215   7.250  0.6283 -0.2709  0.2754
  869MOL0     O17228   1.390   1.426   7.472 -0.4109  0.4802 -0.4792
  869MOL0     C17229   1.100   1.385   7.686  0.5536 -0.6182 -0.2796
  869MOL0     C17230   1.064   1.355   7.811 -0.4782  0.6082  0.1901
  869MOL0     N17231   1.541   1.015   8.278  0.0516 -0.1546  0.3624
  869MOL0     N17232   1.643   1.019   8.362  0.1567 -0.1001  0.7130
  869MOL0     C17233   2.258   1.574   8.258 -0.2097  0.2465  0.0234
  869MOL0     C17234   2.394   1.541   8.263  0.7029  0.0783 -0.2231
  869MOL0     C17235   2.790   1.372   8.375 -1.0436  0.2181 -0.2859
  869MOL0     C17236   2.814   1.235   8.347 -0.4137  0.6306  0.2627
  869MOL0     C17237   2.943   1.180   8.354  0.8016  0.3105  0.7502
  869MOL0     C17238   3.050   1.259   8.382  0.6986  0.3088 -0.0433
  869MOL0     O17239   3.171   1.207   8.408 -0.7704  0.3980  0.1446
  869MOL0     C17240   3.251   1.163   8.293 -0.2795  0.5852 -0.3365
  869MOL0     C17241   3.354   1.073   8.351 -0.1428  0.8583  0.2952
  869MOL0     C17242   3.486   1.080   8.278  0.0200  0.1300 -0.1793
  869MOL0     C17243   3.587   0.967   8.336 -0.1612  0.3530 -0.6458
  869MOL0     C17244   3.701   0.954   8.257 -0.0660 -0.1516  0.6019
  869MOL0     C17245   3.792   0.921   8.180 -0.3345 -0.1011 -0.5367
  869MOL0     C17246   3.023   1.392   8.418 -0.4389  0.2395 -0.2935
  869MOL0     C17247   2.904   1.451   8.409  0.0478  0.0097  0.8413
  869MOL0     H17248   2.374   1.226   8.398 -1.3601 -0.2362 -0.0807
  869MOL0     H17249   2.131   1.295   8.378  2.4188 -4.1310 -0.6506
  869MOL0     H17250   1.991   1.696   8.299 -1.2118 -0.1797  0.6130
  869MOL0     H17251   1.861   1.591   8.304 -1.1074  1.1615 -0.8798
  869MOL0     H17252   2.052   1.596   8.540 -0.9143 -0.0571  0.7156
  869MOL0     H17253   1.888   1.684   8.529 -2.1835 -1.2773  0.4574
  869MOL0     H17254   1.772   1.484   8.502 -1.0380 -2.6103  1.5777
  869MOL0     H17255   1.920   1.399   8.487  1.3030  1.8570 -0.7320
  869MOL0     H17256   1.969   1.427   8.720 -0.3680  1.1003  2.2671
  869MOL0     H17257   1.854   1.560   8.735  0.8292  0.6752 -1.0672
  869MOL0     H17258   1.808   1.321   8.843 -1.7596  2.1147  1.3330
  869MOL0     H17259   1.683   1.407   8.763  1.1141  0.3061  0.8408
  869MOL0     H17260   1.658   1.278   8.582 -1.7751 -0.6672  1.3795
  869MOL0     H17261   1.812   1.216   8.565 -2.7738 -1.8214 -0.8335
  869MOL0     H17262   1.760   1.091   8.786 -2.1474  0.5982  2.8947
  869MOL0     H17263   1.595   1.146   8.766  0.4842 -0.2095 -0.0687
  869MOL0     H17264   1.584   0.935   8.659  1.4172 -1.9749  0.5944
  869MOL0     H17265   1.751   0.953   8.593  0.8752  0.7246  1.0917
  869MOL0     H17266   1.386   1.008   8.559  0.1396  1.8106 -0.8993
  869MOL0     H17267   1.304   0.946   8.177 -1.7425  1.2503 -0.7439
  869MOL0     H17268   1.230   0.918   8.335 -0.7889 -2.2745 -3.6539
  869MOL0     H17269   1.167   1.150   8.370 -1.0086 -0.6852  0.8774
  869MOL0     H17270   1.116   1.093   8.204  0.5389 -0.1013 -1.3074
  869MOL0     H17271   1.300   1.167   8.099 -0.5819 -2.3806  1.0955
  869MOL0     H17272   1.365   1.250   8.248 -2.2199  0.4627  2.3025
  869MOL0     H17273   1.226   1.435   8.117 -0.4883  1.0198  0.9116
  869MOL0     H17274   1.116   1.388   8.221  1.2882  2.0280 -0.9146
  869MOL0     H17275   1.381   1.271   7.935  0.8531 -1.5338 -0.5111
  869MOL0     H17276   1.533   1.248   7.800 -0.5753 -1.5332  0.1470
  869MOL0     H17277   1.499   1.220   7.629  1.7215 -0.6340  0.1593
  869MOL0     H17278   1.539   1.382   7.679 -0.4378  2.2637  3.3109
  869MOL0     H17279   1.010   1.329   7.242  2.1488  1.4347  1.4969
  869MOL0     H17280   0.997   1.207   7.025 -1.8908 -1.2039  2.1097
  869MOL0     H17281   1.042   1.013   6.863 -0.6522  1.5387 -0.7701
  869MOL0     H17282   1.092   1.169   6.793  0.3052 -0.3761 -3.4156
  869MOL0     H17283   1.238   1.062   6.629  2.4821 -1.9344  0.1641
  869MOL0     H17284   1.236   0.914   6.722  0.2767  1.0018  1.4310
  869MOL0     H17285   0.967   1.001   6.648  2.1304  1.6481  0.2519
  869MOL0     H17286   1.036   0.843   6.680  0.1754  0.9853  3.6664
  869MOL0     H17287   1.093   1.003   6.426 -2.0443  0.8404 -0.4297
  869MOL0     H17288   1.171   0.858   6.465  1.5282  3.5395  2.3726
  869MOL0     H17289   0.955   0.858   6.308  4.7369 -0.9681 -0.4507
  869MOL0     H17290   0.873   0.873   6.465  1.0390  2.2893 -0.2514
  869MOL0     H17291   1.082   0.657   6.392  0.0257 -3.1800 -0.2525
  869MOL0     H17292   0.961   0.653   6.516  0.4623  1.5133  0.3376
  869MOL0     H17293   0.889   0.648   6.220  1.5763 -1.8325 -0.3902
  869MOL0     H17294   0.778   0.687   6.352  0.6070  0.2990 -0.0757
  869MOL0     H17295   0.960   0.451   6.332 -0.0333  0.2732 -1.7680
  869MOL0     H17296   0.803   0.450   6.250  1.7217  0.3143 -1.0117
  869MOL0     H17297   1.419   1.108   7.089  0.4030 -0.7018 -0.4757
  869MOL0     H17298   1.421   1.225   7.299  0.7790 -1.0732  0.1504
  869MOL0     H17299   1.036   1.415   7.604  1.6515 -2.2532 -1.8251
  869MOL0     H17300   0.960   1.365   7.841 -0.8639  0.0783 -0.9218
  869MOL0     H17301   2.228   1.675   8.231 -0.1841  0.2505  0.0101
  869MOL0     H17302   2.463   1.613   8.222  0.2179  0.5186 -0.2792
  869MOL0     H17303   2.730   1.173   8.320 -2.7569  3.5562  0.2822
  869MOL0     H17304   2.947   1.074   8.331 -0.4340  0.6789 -1.3896
  869MOL0     H17305   3.192   1.116   8.215  0.9602  0.6813 -1.3583
  869MOL0     H17306   3.300   1.248   8.244  2.9958 -1.8681 -1.7203
  869MOL0     H17307   3.307   0.974   8.359 -0.3110  0.4934 -3.3085
  869MOL0     H17308   3.369   1.113   8.451 -0.9995 -0.6394  1.0573
  869MOL0     H17309   3.527   1.177   8.309  0.2711 -0.4706  1.5232
  869MOL0     H17310   3.478   1.087   8.170  0.6585 -0.1499 -0.2534
  869MOL0     H17311   3.542   0.867   8.329  0.1299 -0.0273  1.9753
  869MOL0     H17312   3.623   0.976   8.439  2.2194  1.5518 -1.5002
  869MOL0     H17313   3.882   0.904   8.126 -0.2682  1.9975 -1.1583
  869MOL0     H17314   3.109   1.447   8.456 -1.2855 -0.8968  3.7005
  869MOL0     H17315   2.892   1.557   8.427 -0.9422 -0.0710  0.6759
  870MOL0     O17316   6.104   5.790   0.225  0.3438 -0.6854  0.9845
  870MOL0     C17317   6.048   5.892   0.177  1.2681  0.0511  0.8890
  870MOL0     O17318   6.067   5.949   0.051 -0.7208  0.4668  0.3933
  870MOL0     C17319   6.180   5.911  -0.025 -1.0403 -1.0358  0.1784
  870MOL0     C17320   6.166   5.831  -0.133  0.9033 -1.5329  0.0461
  870MOL0     C17321   6.268   5.802  -0.219 -0.3495  0.5622 -0.1912
  870MOL0     C17322   6.396   5.857  -0.208 -0.5970  0.0373  1.5227
  870MOL0     O17323   6.490   5.849  -0.311  0.4684 -0.1206  0.6763
  870MOL0     C17324   6.506   5.724  -0.377 -0.0311 -0.0247  0.7190
  870MOL0     C17325   6.615   5.737  -0.487  0.7072  0.6552  0.7109
  870MOL0     C17326   6.751   5.758  -0.424 -0.1507  0.0089 -0.9195
  870MOL0     C17327   6.819   5.635  -0.366  0.3568  1.0815  0.4214
  870MOL0     C17328   6.923   5.656  -0.259 -0.7823  0.1772 -0.7144
  870MOL0     C17329   6.952   5.517  -0.200  0.5434  0.4660 -0.5542
  870MOL0     C17330   7.018   5.510  -0.058  0.9609  0.0919  0.4994
  870MOL0     C17331   7.161   5.470  -0.072 -1.3570  0.0161  0.0392
  870MOL0     N17332   7.228   5.481   0.059  0.1361  0.7115 -0.0143
  870MOL0     C17333   7.263   5.597   0.120 -0.3405 -0.4558 -0.9313
  870MOL0     C17334   7.319   5.555   0.240  0.2459 -0.1146 -0.2827
  870MOL0     C17335   7.404   5.644   0.322 -0.0787 -0.0622  0.4685
  870MOL0     C17336   7.320   5.746   0.401 -0.3414  0.6636  0.0487
  870MOL0     C17337   7.299   5.872   0.314 -0.3657  0.0292 -1.2827
  870MOL0     C17338   7.194   5.970   0.356  0.5817  0.3863 -0.5886
  870MOL0     O17339   7.239   6.102   0.339 -0.5674 -0.6146 -0.0542
  870MOL0     C17340   7.154   6.219   0.341  0.1507  0.1423 -0.5897
  870MOL0     C17341   7.201   6.333   0.278 -0.9753  0.4158 -0.3945
  870MOL0     C17342   7.133   6.450   0.274  0.1376 -0.0220 -0.2342
  870MOL0     C17343   7.181   6.569   0.204  0.1474 -0.4021  0.5669
  870MOL0     C17344   7.016   6.466   0.359 -0.7452  0.0243 -0.1410
  870MOL0     C17345   6.954   6.602   0.384 -0.2913  0.1937  0.3096
  870MOL0     O17346   7.043   6.710   0.401  0.0862  0.0419  0.4192
  870MOL0     C17347   6.985   6.834   0.414 -0.3460  0.7376 -0.9085
  870MOL0     C17348   7.032   6.947   0.351 -0.7307  0.9992  0.0480
  870MOL0     C17349   6.964   7.069   0.350 -0.1249 -1.1828 -0.0924
  870MOL0     C17350   6.861   7.095   0.442  0.5284  0.6344  0.5152
  870MOL0     O17351   6.818   7.224   0.457 -0.0895  0.8227  0.5182
  870MOL0     C17352   6.681   7.237   0.459  0.8370 -0.0492  0.1273
  870MOL0     C17353   6.592   7.207   0.327 -0.3735  0.5570 -0.9798
  870MOL0     C17354   6.453   7.275   0.336 -0.1961  0.6097 -0.0799
  870MOL0     C17355   6.369   7.262   0.215 -0.4916  0.7098 -0.7164
  870MOL0     C17356   6.255   7.364   0.224  0.1375 -0.7408 -0.6501
  870MOL0     C17357   6.181   7.364   0.357 -0.1408 -0.8438 -0.5037
  870MOL0     C17358   6.058   7.457   0.364 -0.3116  0.5028  0.6916
  870MOL0     C17359   6.084   7.610   0.371  0.0175  0.1273 -0.1951
  870MOL0    Cl17360   5.942   7.710   0.364  0.1993  0.1683  0.2965
  870MOL0     C17361   6.815   6.991   0.515  0.6430  0.1776 -0.1450
  870MOL0     C17362   6.875   6.860   0.508  0.5751 -0.6021 -0.0973
  870MOL0     O17363   6.833   6.608   0.385  0.1890  0.5655 -0.5632
  870MOL0     C17364   6.975   6.353   0.437 -0.1489  0.7815  0.0419
  870MOL0     C17365   7.039   6.225   0.419  0.5875  0.0466  0.0684
  870MOL0     N17366   7.311   5.415   0.244  1.4405  0.0307 -0.2602
  870MOL0     N17367   7.253   5.370   0.137 -0.3617  0.0575  0.2307
  870MOL0     C17368   6.410   5.959  -0.115 -0.3746 -0.6921 -0.3503
  870MOL0     C17369   6.304   5.973  -0.011  0.6741  0.3417  0.9348
  870MOL0     C17370   5.939   5.953   0.245  0.4011 -0.5473 -0.6954
  870MOL0     C17371   5.899   5.882   0.366  0.5865 -0.3175  0.2215
  870MOL0     C17372   5.798   5.942   0.452  0.2997 -0.0662 -0.2551
  870MOL0     C17373   5.743   6.063   0.412 -0.1566  1.2857  0.2602
  870MOL0     O17374   5.638   6.123   0.484  1.0224 -0.5851  0.4306
  870MOL0     C17375   5.525   6.033   0.526 -0.2366 -0.9439  0.1213
  870MOL0     C17376   5.425   6.110   0.604  0.3912 -0.3703 -0.4039
  870MOL0     C17377   5.450   6.101   0.762 -0.6730 -0.3080 -0.3606
  870MOL0     C17378   5.334   6.166   0.845  0.1162 -0.2637  0.2914
  870MOL0     C17379   5.221   6.073   0.828 -0.0003 -0.0456 -0.7911
  870MOL0     C17380   5.114   6.024   0.814 -0.3447 -0.1335  0.7131
  870MOL0     C17381   5.779   6.124   0.298 -0.5854 -0.0833  0.1410
  870MOL0     C17382   5.870   6.072   0.213 -0.2308 -1.4904 -0.1987
  870MOL0     H17383   6.065   5.792  -0.142 -0.6591  1.5630  2.2406
  870MOL0     H17384   6.236   5.736  -0.299 -0.3499 -3.6141  2.9565
  870MOL0     H17385   6.522   5.638  -0.311 -1.3473 -1.2806 -0.5243
  870MOL0     H17386   6.412   5.707  -0.430  0.0875 -2.6374  1.2129
  870MOL0     H17387   6.611   5.650  -0.553 -2.0730  0.4414  1.0041
  870MOL0     H17388   6.576   5.819  -0.547 -3.3782 -1.0689  0.6634
  870MOL0     H17389   6.816   5.793  -0.506  1.4889 -1.6860 -0.4005
  870MOL0     H17390   6.746   5.830  -0.342  1.2081 -0.8200 -0.0568
  870MOL0     H17391   6.732   5.576  -0.337  1.4418 -1.0852 -0.5283
  870MOL0     H17392   6.872   5.583  -0.447 -1.5754 -2.4027  1.2042
  870MOL0     H17393   7.013   5.702  -0.299  1.0697 -3.9595 -1.8033
  870MOL0     H17394   6.872   5.726  -0.191  0.1898  1.1903 -0.9979
  870MOL0     H17395   6.863   5.455  -0.190  0.0090  1.2831 -0.1444
  870MOL0     H17396   7.016   5.469  -0.274 -0.6990 -1.7749 -0.2556
  870MOL0     H17397   7.000   5.603  -0.004 -1.3667 -0.3533  0.6251
  870MOL0     H17398   6.965   5.432  -0.003  0.0792  1.4069  1.5870
  870MOL0     H17399   7.226   5.526  -0.140 -1.2836 -1.6730 -1.3595
  870MOL0     H17400   7.174   5.372  -0.119  3.9474 -0.0528  1.0291
  870MOL0     H17401   7.257   5.692   0.068  0.7265 -0.8270 -1.7629
  870MOL0     H17402   7.465   5.576   0.383  0.6448 -1.7555 -2.0038
  870MOL0     H17403   7.469   5.710   0.264 -0.5576 -0.2687 -0.3093
  870MOL0     H17404   7.361   5.767   0.501  0.6425 -1.1766  0.0798
  870MOL0     H17405   7.230   5.695   0.437 -0.0503  0.2508  0.1962
  870MOL0     H17406   7.291   5.843   0.209  1.3099 -1.6323 -1.0030
  870MOL0     H17407   7.393   5.927   0.327 -0.9155  0.7141  0.1049
  870MOL0     H17408   7.162   5.948   0.459 -0.1537  1.5437 -0.5583
  870MOL0     H17409   7.105   5.957   0.294 -1.0203  1.8335  1.2731
  870MOL0     H17410   7.299   6.323   0.232 -0.1828  1.7097  0.9215
  870MOL0     H17411   7.101   6.643   0.189  1.2117  0.8024  0.6441
  870MOL0     H17412   7.258   6.612   0.269  0.8067 -0.2489 -0.2983
  870MOL0     H17413   7.225   6.542   0.108 -3.5550 -2.7574 -0.7066
  870MOL0     H17414   7.119   6.939   0.287 -0.1568 -0.4365  0.9573
  870MOL0     H17415   7.002   7.146   0.285 -0.7184 -1.2015 -0.4749
  870MOL0     H17416   6.638   7.178   0.541 -0.7450  2.7356  1.4564
  870MOL0     H17417   6.656   7.337   0.496 -1.5399 -1.2094  1.9420
  870MOL0     H17418   6.645   7.240   0.237  0.6124  1.9093  0.0501
  870MOL0     H17419   6.576   7.099   0.325 -1.6668  0.6235  1.5123
  870MOL0     H17420   6.464   7.383   0.349 -0.4892  1.0739 -3.0517
  870MOL0     H17421   6.410   7.244   0.432  0.9582  0.8978  0.5398
  870MOL0     H17422   6.423   7.279   0.122  2.1553 -5.1125 -0.6770
  870MOL0     H17423   6.332   7.159   0.206  1.0131  0.1618 -0.9652
  870MOL0     H17424   6.183   7.342   0.145 -2.7899 -1.9051  2.1118
  870MOL0     H17425   6.296   7.464   0.209  2.0025 -0.8269  2.7339
  870MOL0     H17426   6.135   7.265   0.353 -0.6691 -0.5978 -0.6413
  870MOL0     H17427   6.239   7.381   0.448 -0.2258 -0.6885 -0.4785
  870MOL0     H17428   6.020   7.429   0.463  0.3276  2.0514  1.3965
  870MOL0     H17429   5.987   7.423   0.288  2.0126 -1.1855 -0.8668
  870MOL0     H17430   6.159   7.646   0.300  0.1427  1.8844  0.7703
  870MOL0     H17431   6.136   7.617   0.467 -3.3333 -2.6024  2.0295
  870MOL0     H17432   6.734   7.001   0.587 -1.7426  0.6115 -2.7379
  870MOL0     H17433   6.825   6.784   0.567 -3.7799  0.8088 -1.6154
  870MOL0     H17434   6.894   6.367   0.507 -0.1845  1.1249 -0.0676
  870MOL0     H17435   7.004   6.139   0.476 -1.8997  1.1647  0.3688
  870MOL0     H17436   6.504   6.014  -0.120 -0.3511 -0.8417 -3.5051
  870MOL0     H17437   6.309   6.041   0.074 -1.4712  0.8913  0.6818
  870MOL0     H17438   5.942   5.789   0.404  0.8597 -0.3160 -0.0730
  870MOL0     H17439   5.761   5.906   0.547  3.3514 -0.8665  0.7636
  870MOL0     H17440   5.474   5.979   0.445 -0.1727 -0.4271 -0.2668
  870MOL0     H17441   5.561   5.954   0.593 -0.1032 -1.1698 -0.2143
  870MOL0     H17442   5.327   6.075   0.572 -0.5428 -1.9157  3.6671
  870MOL0     H17443   5.434   6.213   0.566 -0.2890 -1.5362 -4.1698
  870MOL0     H17444   5.539   6.162   0.784 -0.6714 -0.2534 -0.5196
  870MOL0     H17445   5.473   5.999   0.795 -1.8931 -0.1589  1.0388
  870MOL0     H17446   5.300   6.261   0.803 -3.1064 -1.8701 -1.1043
  870MOL0     H17447   5.368   6.184   0.947 -2.0877 -1.4941  1.3107
  870MOL0     H17448   5.015   5.984   0.804 -0.4431  0.3539 -0.3091
  870MOL0     H17449   5.724   6.214   0.277 -1.3208 -0.6962 -0.6153
  870MOL0     H17450   5.879   6.118   0.114  0.3510  1.2266  1.0113
  871MOL0     O17451  10.237   5.975   2.562 -0.5771 -0.7277 -0.1815
  871MOL0     C17452  10.330   6.002   2.640 -0.7107 -0.5127  0.1245
  871MOL0     O17453  10.327   6.080   2.742  0.6786  0.1730  0.0831
  871MOL0     C17454  10.202   6.150   2.756 -1.1370  0.4371 -0.2798
  871MOL0     C17455  10.189   6.274   2.696 -0.1677 -0.4618  0.3028
  871MOL0     C17456  10.063   6.341   2.703 -0.0871  0.4706  0.2908
  871MOL0     C17457   9.956   6.277   2.767 -0.7011 -0.3003 -0.1145
  871MOL0     O17458   9.838   6.342   2.780  0.5630 -0.3353 -0.4144
  871MOL0     C17459   9.811   6.459   2.701 -0.1909  1.0793  0.2647
  871MOL0     C17460   9.669   6.523   2.724 -0.6103 -0.5889 -0.3492
  871MOL0     C17461   9.558   6.434   2.674 -0.4201 -0.0608  0.1677
  871MOL0     C17462   9.425   6.475   2.739  0.6576  0.8238 -0.0435
  871MOL0     C17463   9.386   6.606   2.699 -0.0802  0.5750 -0.4764
  871MOL0     C17464   9.238   6.631   2.718 -0.0542 -0.1192  0.2077
  871MOL0     C17465   9.200   6.657   2.859 -0.5203  0.9449  0.0339
  871MOL0     C17466   9.076   6.740   2.872  1.1147 -1.0866 -0.2363
  871MOL0     N17467   9.014   6.724   3.001 -0.2415  0.6913  0.4655
  871MOL0     C17468   9.042   6.796   3.111 -0.3184  1.0671 -0.6285
  871MOL0     C17469   8.937   6.789   3.192  0.3238  0.2070  0.2213
  871MOL0     C17470   8.907   6.863   3.322  0.0005  0.1198  0.7519
  871MOL0     C17471   8.874   7.008   3.308  0.1835  0.1878  0.3745
  871MOL0     C17472   8.733   7.040   3.322  0.3535 -0.2922  0.9856
  871MOL0     C17473   8.712   7.199   3.327  0.4138 -0.9428  0.0951
  871MOL0     O17474   8.577   7.223   3.360 -0.1645 -0.1061  0.9314
  871MOL0     C17475   8.520   7.346   3.377  0.9249 -0.2776 -0.1419
  871MOL0     C17476   8.590   7.468   3.366 -0.9743  0.0249 -0.2601
  871MOL0     C17477   8.528   7.589   3.373 -1.2738 -0.0373 -0.3325
  871MOL0     C17478   8.615   7.719   3.369 -0.8357 -0.2538 -0.1671
  871MOL0     C17479   8.392   7.594   3.410 -0.4728  0.7936 -0.5329
  871MOL0     C17480   8.316   7.717   3.438 -0.1917  0.2252  0.2830
  871MOL0     O17481   8.190   7.719   3.395 -0.3902 -0.6809 -0.0555
  871MOL0     C17482   8.099   7.817   3.414  0.4799  0.0092 -0.0699
  871MOL0     C17483   7.968   7.766   3.392  0.0717  0.1096 -0.7079
  871MOL0     C17484   7.857   7.851   3.381  1.0267 -0.9061 -0.6872
  871MOL0     C17485   7.885   7.983   3.383  0.2953  0.2530  0.2660
  871MOL0     O17486   7.778   8.062   3.356 -0.0950  0.4612 -0.0373
  871MOL0     C17487   7.798   8.156   3.252 -0.2910 -0.8616  1.2283
  871MOL0     C17488   7.689   8.264   3.265  0.1716 -0.1683 -0.3271
  871MOL0     C17489   7.549   8.199   3.261  0.2142  0.1417  0.0523
  871MOL0     C17490   7.443   8.312   3.259 -0.3206  0.7260  0.0879
  871MOL0     C17491   7.303   8.257   3.254 -1.1791 -0.8392  0.5833
  871MOL0     C17492   7.200   8.371   3.256  0.5655  0.7929 -0.2915
  871MOL0     C17493   7.151   8.416   3.389 -0.3122  0.1664  0.2209
  871MOL0     C17494   7.061   8.537   3.367  0.4930 -0.8355 -0.2595
  871MOL0    Cl17495   6.885   8.499   3.362 -0.5585  0.1844  0.0077
  871MOL0     C17496   8.012   8.039   3.408  0.6118 -0.4935  0.5828
  871MOL0     C17497   8.122   7.954   3.423 -0.1443 -1.3275 -0.1388
  871MOL0     O17498   8.368   7.800   3.517  0.8315 -0.6458 -0.0191
  871MOL0     C17499   8.320   7.480   3.409  0.8100 -0.7045  0.0141
  871MOL0     C17500   8.388   7.351   3.394  0.8904  0.6684 -0.2835
  871MOL0     N17501   8.842   6.697   3.131  0.0138 -0.0547  0.1592
  871MOL0     N17502   8.888   6.677   3.013 -0.0432  0.1836 -0.2605
  871MOL0     C17503   9.974   6.147   2.820 -0.1991  0.1719 -0.0822
  871MOL0     C17504  10.090   6.084   2.815 -0.1892 -0.1838  0.7450
  871MOL0     C17505  10.473   5.965   2.602 -0.1542  1.0271 -0.1194
  871MOL0     C17506  10.495   5.924   2.466  0.7504  0.3086 -0.9399
  871MOL0     C17507  10.618   5.868   2.430  0.3175  0.6325 -0.0297
  871MOL0     C17508  10.721   5.860   2.521 -1.1659  0.4695  0.3185
  871MOL0     O17509  10.833   5.790   2.488 -0.1242 -0.2243 -0.0767
  871MOL0     C17510  10.871   5.684   2.568  1.0162  0.5628 -1.0236
  871MOL0     C17511  10.971   5.609   2.490  0.4542  0.4375 -0.8231
  871MOL0     C17512  10.911   5.550   2.353  0.1945  0.3297  0.0404
  871MOL0     C17513  10.998   5.437   2.279 -0.6366  0.9599  0.3217
  871MOL0     C17514  11.013   5.329   2.375 -0.0184  0.3166  0.3137
  871MOL0     C17515  11.030   5.234   2.446  0.0729 -0.4577 -0.0899
  871MOL0     C17516  10.695   5.902   2.652 -0.6140 -0.4950 -0.2708
  871MOL0     C17517  10.576   5.945   2.693  0.1481 -0.1487  0.3386
  871MOL0     H17518  10.274   6.316   2.644  0.9492 -0.7890  1.7949
  871MOL0     H17519  10.070   6.446   2.677 -0.7630  0.8189  1.4073
  871MOL0     H17520   9.886   6.536   2.719  1.0707 -0.1935  0.6138
  871MOL0     H17521   9.826   6.428   2.597  3.4925 -3.3683  1.7789
  871MOL0     H17522   9.662   6.552   2.829 -0.3196 -0.5474 -0.3385
  871MOL0     H17523   9.674   6.611   2.660  0.6437 -0.2184  0.2250
  871MOL0     H17524   9.546   6.424   2.566 -2.8164  1.4819  0.2161
  871MOL0     H17525   9.576   6.332   2.710 -0.0828  0.5495  1.8526
  871MOL0     H17526   9.356   6.397   2.707 -0.6527  0.9641  2.2271
  871MOL0     H17527   9.416   6.474   2.848 -0.9668 -1.2696 -0.1423
  871MOL0     H17528   9.440   6.676   2.763 -1.9735  3.8098 -2.1479
  871MOL0     H17529   9.413   6.628   2.595 -1.4286 -2.0434 -1.4762
  871MOL0     H17530   9.221   6.714   2.649  0.1312 -1.1069 -1.0484
  871MOL0     H17531   9.181   6.540   2.700 -0.2809  0.1378 -0.3908
  871MOL0     H17532   9.181   6.561   2.909  0.9920  0.9603  0.7077
  871MOL0     H17533   9.279   6.717   2.905  0.9758 -0.0379 -1.1558
  871MOL0     H17534   9.011   6.707   2.790  0.7658 -1.8598  0.3449
  871MOL0     H17535   9.083   6.848   2.854  0.4322 -0.8908  0.5874
  871MOL0     H17536   9.128   6.861   3.124 -0.4776  0.9480  1.3488
  871MOL0     H17537   8.826   6.804   3.364 -1.6384  2.0328  0.4481
  871MOL0     H17538   8.989   6.846   3.392 -0.4422 -0.1136  1.2196
  871MOL0     H17539   8.913   7.046   3.213 -0.4493  0.1273  0.0861
  871MOL0     H17540   8.932   7.055   3.388  0.2610 -1.5461  1.3937
  871MOL0     H17541   8.691   6.999   3.414 -1.8788 -1.3775 -0.4205
  871MOL0     H17542   8.679   7.007   3.232 -1.4294  1.1923  1.4406
  871MOL0     H17543   8.737   7.260   3.240 -0.5130  0.0077  0.4701
  871MOL0     H17544   8.775   7.231   3.411  2.8531  0.0802 -1.9948
  871MOL0     H17545   8.697   7.474   3.352 -1.0806  2.2179 -0.4416
  871MOL0     H17546   8.583   7.787   3.290  6.2238  2.6112 -1.3000
  871MOL0     H17547   8.621   7.770   3.465 -1.5379  0.5991 -0.5607
  871MOL0     H17548   8.720   7.693   3.352 -1.2330 -2.3275  0.2863
  871MOL0     H17549   7.951   7.659   3.396 -1.5320  0.3830  1.2977
  871MOL0     H17550   7.754   7.820   3.371  1.3335 -1.6562 -1.7515
  871MOL0     H17551   7.894   8.208   3.256  0.1729 -1.5115 -0.5289
  871MOL0     H17552   7.791   8.105   3.156 -1.9334 -0.7797  1.2753
  871MOL0     H17553   7.710   8.313   3.361 -2.5983  1.5349 -0.4753
  871MOL0     H17554   7.686   8.328   3.176  2.4906 -3.0802 -2.7185
  871MOL0     H17555   7.531   8.142   3.352  2.5701  2.9857  2.5148
  871MOL0     H17556   7.540   8.141   3.168 -2.3048  1.5595 -0.6978
  871MOL0     H17557   7.452   8.388   3.337  1.1576 -0.4309  1.0708
  871MOL0     H17558   7.463   8.372   3.170 -0.4922 -0.0216 -0.4663
  871MOL0     H17559   7.303   8.188   3.339 -0.0576 -1.2763  0.2466
  871MOL0     H17560   7.288   8.194   3.166 -0.4870  0.4433 -0.4752
  871MOL0     H17561   7.244   8.450   3.195  3.0782 -3.1323 -4.1700
  871MOL0     H17562   7.106   8.341   3.208  0.5428  0.0618  0.1918
  871MOL0     H17563   7.235   8.434   3.457 -1.4529  1.6343  1.3130
  871MOL0     H17564   7.094   8.339   3.441  0.5684 -2.6719 -2.6726
  871MOL0     H17565   7.089   8.595   3.278  0.5446  0.0842  0.3382
  871MOL0     H17566   7.075   8.597   3.457  1.3259 -0.3121 -0.7310
  871MOL0     H17567   8.047   8.141   3.406 -0.1374 -0.2323  0.4275
  871MOL0     H17568   8.218   8.000   3.445 -1.0590  0.4410  0.3935
  871MOL0     H17569   8.212   7.473   3.411  0.7635  0.1694  1.5913
  871MOL0     H17570   8.326   7.262   3.398  0.9041  0.6800  0.2188
  871MOL0     H17571   9.890   6.109   2.878  0.2069  0.7017  0.8674
  871MOL0     H17572  10.097   5.985   2.857  1.5457 -0.7707 -0.8021
  871MOL0     H17573  10.420   5.935   2.389  2.3557 -2.6945 -3.1483
  871MOL0     H17574  10.637   5.849   2.325  2.0660  1.8424  0.0252
  871MOL0     H17575  10.914   5.723   2.661 -2.8639  1.5288  0.5661
  871MOL0     H17576  10.788   5.617   2.594  0.6335 -0.1490 -3.7968
  871MOL0     H17577  11.005   5.522   2.547  1.2578  1.1474 -0.1944
  871MOL0     H17578  11.062   5.668   2.484 -0.0957  1.2125 -1.9084
  871MOL0     H17579  10.901   5.639   2.291 -0.4769  0.1893 -0.0696
  871MOL0     H17580  10.815   5.504   2.382  0.0156  0.0933 -0.8830
  871MOL0     H17581  11.100   5.471   2.260 -0.4318 -0.6818 -1.9108
  871MOL0     H17582  10.949   5.409   2.186  0.6244 -2.0473  0.4350
  871MOL0     H17583  11.016   5.141   2.496 -0.7121  0.0266  0.6182
  871MOL0     H17584  10.780   5.895   2.720  0.2809  3.0864 -0.7906
  871MOL0     H17585  10.566   5.967   2.799  5.9460 -2.3505  1.7061
  872MOL0     O17586   7.422   9.132   4.102  0.0753  0.4363 -0.3005
  872MOL0     C17587   7.458   9.240   4.151  0.9355 -0.6685 -0.4767
  872MOL0     O17588   7.372   9.351   4.171 -0.2841  0.2606  0.4195
  872MOL0     C17589   7.237   9.329   4.161  1.1419 -0.0609  0.3448
  872MOL0     C17590   7.159   9.414   4.083  0.4238 -0.3637 -0.5634
  872MOL0     C17591   7.028   9.408   4.071 -0.3434 -0.3767  0.0591
  872MOL0     C17592   6.954   9.329   4.160  0.6744 -0.2028  0.1393
  872MOL0     O17593   6.817   9.334   4.138  0.3592  0.8138 -0.1958
  872MOL0     C17594   6.735   9.267   4.233 -0.0931 -0.3374 -0.2060
  872MOL0     C17595   6.589   9.289   4.198 -0.3529 -0.0353 -0.0392
  872MOL0     C17596   6.533   9.201   4.086 -1.1689  0.6059 -0.0300
  872MOL0     C17597   6.390   9.232   4.040 -0.4165  0.5694 -0.1301
  872MOL0     C17598   6.339   9.117   3.953 -0.3636 -0.9128  0.5286
  872MOL0     C17599   6.195   9.109   3.928  0.3579 -0.1858 -0.3009
  872MOL0     C17600   6.171   8.973   3.860 -0.4883  0.1567  0.7146
  872MOL0     C17601   6.027   8.936   3.818 -0.2883  0.0835 -0.2822
  872MOL0     N17602   5.928   8.951   3.930  0.4131 -0.4929 -0.4916
  872MOL0     C17603   5.911   8.850   4.027 -0.0933  0.1598  0.8100
  872MOL0     C17604   5.788   8.878   4.082  0.3917  0.5403  0.4575
  872MOL0     C17605   5.694   8.800   4.171  0.3477  0.0495 -0.7355
  872MOL0     C17606   5.624   8.688   4.095 -1.2433 -0.3545  0.5915
  872MOL0     C17607   5.479   8.673   4.119 -0.4509 -0.2012 -1.0792
  872MOL0     C17608   5.402   8.786   4.052 -0.1354 -0.4125 -0.2874
  872MOL0     O17609   5.383   8.784   3.910 -1.6229  0.0275  0.1091
  872MOL0     C17610   5.282   8.709   3.851  0.5389  0.7773 -0.0504
  872MOL0     C17611   5.198   8.619   3.925 -0.8530 -0.4597  0.5294
  872MOL0     C17612   5.083   8.566   3.871  0.2430  0.3559  0.5352
  872MOL0     C17613   4.999   8.468   3.950 -0.7413 -0.6690 -0.2770
  872MOL0     C17614   5.067   8.578   3.724 -0.0760 -0.0669  0.2157
  872MOL0     C17615   4.958   8.517   3.646 -0.2487 -0.0299 -0.4678
  872MOL0     O17616   4.985   8.506   3.519 -0.2722  0.5617  0.0326
  872MOL0     C17617   4.911   8.428   3.431  0.8333 -0.0329 -0.2763
  872MOL0     C17618   4.881   8.296   3.451  0.7416  0.0845 -0.6821
  872MOL0     C17619   4.789   8.223   3.375 -0.9754  0.1108  0.0333
  872MOL0     C17620   4.731   8.291   3.267 -0.2030 -0.0973  1.0001
  872MOL0     O17621   4.649   8.220   3.183 -0.2893 -0.6895 -0.0760
  872MOL0     C17622   4.694   8.203   3.045 -0.5029  0.9403  0.2794
  872MOL0     C17623   4.595   8.241   2.933  0.5708 -0.9199  0.2036
  872MOL0     C17624   4.624   8.196   2.788  0.0107  0.0348 -0.4314
  872MOL0     C17625   4.523   8.239   2.682 -0.0236  0.1925  0.6153
  872MOL0     C17626   4.384   8.156   2.697  1.2355  0.0834 -0.1306
  872MOL0     C17627   4.303   8.110   2.576 -0.4118  0.4815 -0.1393
  872MOL0     C17628   4.382   8.005   2.502  0.0814  1.4218  0.8145
  872MOL0     C17629   4.301   7.962   2.375  0.0983 -0.0606 -1.0481
  872MOL0    Cl17630   4.351   7.817   2.303 -0.6501 -0.1719  0.1584
  872MOL0     C17631   4.771   8.426   3.240  0.1291 -0.1652 -0.0533
  872MOL0     C17632   4.871   8.488   3.316  1.1070 -0.2708  0.2342
  872MOL0     O17633   4.853   8.484   3.706  0.2988 -0.9491  0.3129
  872MOL0     C17634   5.157   8.661   3.654 -0.2080 -0.6295 -0.5562
  872MOL0     C17635   5.264   8.724   3.713  0.1950 -0.1300 -0.8777
  872MOL0     N17636   5.745   8.994   4.030  0.6036  0.1874  0.6821
  872MOL0     N17637   5.828   9.046   3.947 -0.1011  0.0174 -0.2405
  872MOL0     C17638   7.017   9.239   4.240 -0.3313  0.0370  0.2764
  872MOL0     C17639   7.159   9.233   4.239  0.4363  0.0967 -0.2762
  872MOL0     C17640   7.599   9.247   4.197  0.1179  0.6271  0.4830
  872MOL0     C17641   7.699   9.176   4.132 -0.0836  0.0751 -0.2977
  872MOL0     C17642   7.836   9.186   4.174 -0.1126 -0.0847  0.6855
  872MOL0     C17643   7.862   9.262   4.290  0.3106  0.3586 -0.0468
  872MOL0     O17644   7.986   9.267   4.345 -0.4471 -0.6422  0.7702
  872MOL0     C17645   8.096   9.212   4.272  0.4645  0.3942 -0.5471
  872MOL0     C17646   8.225   9.250   4.330  0.2661 -0.7170 -0.2750
  872MOL0     C17647   8.336   9.165   4.273  0.4337 -0.6742 -0.8203
  872MOL0     C17648   8.476   9.210   4.323  0.8055 -0.8441  0.7985
  872MOL0     C17649   8.513   9.342   4.264  1.0984 -0.3366 -0.1890
  872MOL0     C17650   8.556   9.455   4.232 -0.1228  0.7208  0.1478
  872MOL0     C17651   7.766   9.339   4.355  0.5947 -0.6383 -0.3743
  872MOL0     C17652   7.629   9.330   4.313 -0.2546 -0.4569  0.5748
  872MOL0     H17653   7.222   9.476   4.021  2.0322  0.3526  1.6460
  872MOL0     H17654   6.979   9.471   3.998  3.0029 -1.1066 -3.0980
  872MOL0     H17655   6.762   9.161   4.230 -0.1004 -0.3259 -1.0239
  872MOL0     H17656   6.748   9.311   4.332  0.4253 -0.0505 -0.3959
  872MOL0     H17657   6.533   9.264   4.288 -1.6124  2.7036  0.0269
  872MOL0     H17658   6.556   9.392   4.180 -5.5012 -0.7265  3.2784
  872MOL0     H17659   6.600   9.216   4.001 -0.1260 -0.6990  0.5285
  872MOL0     H17660   6.552   9.106   4.137  1.3395  1.5278  0.9008
  872MOL0     H17661   6.325   9.238   4.128  1.5317  1.4571  1.3256
  872MOL0     H17662   6.385   9.322   3.978 -1.2455 -1.1223 -2.6637
  872MOL0     H17663   6.387   9.127   3.856 -2.2138  1.0333 -0.2680
  872MOL0     H17664   6.379   9.029   4.005 -0.7569 -0.2686  1.9750
  872MOL0     H17665   6.152   9.127   4.027  0.7392  3.0144 -0.6004
  872MOL0     H17666   6.154   9.184   3.860 -0.5296  2.1292  2.6015
  872MOL0     H17667   6.241   8.969   3.775  4.4240  1.8539  4.2141
  872MOL0     H17668   6.196   8.896   3.934 -3.5134 -0.5252  1.1399
  872MOL0     H17669   6.033   8.830   3.790 -2.4027  0.4352 -2.3713
  872MOL0     H17670   5.993   8.995   3.732  0.9979  1.2078 -0.0566
  872MOL0     H17671   5.976   8.765   4.046 -0.9320 -0.7464 -0.2370
  872MOL0     H17672   5.761   8.743   4.237  1.4591 -1.0453 -2.7247
  872MOL0     H17673   5.631   8.861   4.237 -0.0847 -3.1975  2.1596
  872MOL0     H17674   5.672   8.594   4.122 -0.7713 -0.9755 -2.1974
  872MOL0     H17675   5.636   8.703   3.988 -3.0328  0.1781  0.4335
  872MOL0     H17676   5.449   8.666   4.224  0.6717  0.9246 -0.6481
  872MOL0     H17677   5.445   8.574   4.088 -0.4371 -1.1417  1.6768
  872MOL0     H17678   5.441   8.886   4.076 -1.2578 -0.5495  2.5080
  872MOL0     H17679   5.306   8.789   4.105 -1.3044  0.8702 -2.3362
  872MOL0     H17680   5.217   8.604   4.031  2.6220 -1.4151 -0.0939
  872MOL0     H17681   4.968   8.371   3.910 -3.8155  0.8888 -2.0504
  872MOL0     H17682   5.049   8.438   4.042 -1.1521 -0.8050 -0.0979
  872MOL0     H17683   4.912   8.525   3.982 -1.8742 -3.7304  2.7213
  872MOL0     H17684   4.928   8.243   3.533 -0.3387 -0.2163 -0.2393
  872MOL0     H17685   4.753   8.122   3.392  0.9582 -0.1352  3.6674
  872MOL0     H17686   4.794   8.246   3.028  0.4967 -1.9140 -1.9002
  872MOL0     H17687   4.702   8.095   3.032 -1.8816  1.0219 -1.5254
  872MOL0     H17688   4.493   8.213   2.962  0.4107 -1.5495 -0.8735
  872MOL0     H17689   4.593   8.350   2.941 -0.2642 -1.0589  2.5469
  872MOL0     H17690   4.640   8.088   2.781  0.9308  0.2522 -2.5891
  872MOL0     H17691   4.713   8.249   2.755 -0.5302 -1.1319 -4.2493
  872MOL0     H17692   4.495   8.345   2.681  1.3008  0.5843  1.4860
  872MOL0     H17693   4.564   8.200   2.588  1.1002 -1.3074  1.6804
  872MOL0     H17694   4.318   8.218   2.759 -0.5444 -1.5985 -0.2515
  872MOL0     H17695   4.408   8.066   2.754  2.8956 -0.5576 -1.7638
  872MOL0     H17696   4.213   8.058   2.610  0.7411  0.4341  3.1960
  872MOL0     H17697   4.277   8.189   2.505 -0.0350  3.0868  2.4497
  872MOL0     H17698   4.415   7.919   2.561  0.3776 -0.2767 -1.6673
  872MOL0     H17699   4.480   8.044   2.471  0.6793 -1.5883 -1.6279
  872MOL0     H17700   4.306   8.037   2.295  1.4656 -1.6325 -2.5141
  872MOL0     H17701   4.195   7.956   2.401  0.4717  0.1090  0.6721
  872MOL0     H17702   4.732   8.470   3.149 -2.4978 -1.8435  0.1564
  872MOL0     H17703   4.907   8.589   3.296  1.9694 -0.2622  1.6749
  872MOL0     H17704   5.137   8.672   3.547 -1.8339  1.8032 -0.0854
  872MOL0     H17705   5.328   8.787   3.650  2.6653  0.6639  2.1515
  872MOL0     H17706   6.964   9.164   4.298 -2.7693 -0.7278 -2.6804
  872MOL0     H17707   7.207   9.153   4.293 -0.7852 -1.7268 -1.7840
  872MOL0     H17708   7.675   9.106   4.053  0.3445  0.4548 -0.7714
  872MOL0     H17709   7.913   9.127   4.126 -1.2964 -1.8748  0.8716
  872MOL0     H17710   8.081   9.104   4.280  0.8650  0.4528  1.7848
  872MOL0     H17711   8.102   9.241   4.167  0.8550  0.2409 -0.5708
  872MOL0     H17712   8.217   9.218   4.434 -0.5923 -2.8605 -0.9539
  872MOL0     H17713   8.237   9.358   4.313 -0.7627 -0.4245  0.7105
  872MOL0     H17714   8.327   9.173   4.164  0.5880 -0.9941 -0.8567
  872MOL0     H17715   8.331   9.059   4.296  2.3335 -0.4816  0.6851
  872MOL0     H17716   8.549   9.129   4.307 -2.8958 -4.6685  1.4511
  872MOL0     H17717   8.467   9.226   4.431  2.7430 -1.4105  1.0970
  872MOL0     H17718   8.591   9.555   4.219 -2.6048  1.5006 -1.3262
  872MOL0     H17719   7.809   9.398   4.435 -0.4352  0.6506 -0.7322
  872MOL0     H17720   7.552   9.396   4.353 -0.2781  0.4262 -0.8471
  873MOL0     O17721   1.036  11.099   3.379  0.4511 -0.3088 -0.1995
  873MOL0     C17722   1.036  11.056   3.496 -0.1060  0.2919  0.4641
  873MOL0     O17723   0.938  11.054   3.586  0.1107 -0.8876 -0.9685
  873MOL0     C17724   0.812  11.116   3.566 -0.3250 -0.6742 -0.4576
  873MOL0     C17725   0.783  11.208   3.462  0.5840 -0.0785  1.6208
  873MOL0     C17726   0.657  11.257   3.443 -0.0124 -1.1390 -0.2477
  873MOL0     C17727   0.546  11.213   3.517 -0.5854  1.1385 -0.3142
  873MOL0     O17728   0.421  11.251   3.494 -0.2314 -0.1620  0.7051
  873MOL0     C17729   0.393  11.390   3.523 -1.1969 -0.3823 -0.9171
  873MOL0     C17730   0.290  11.412   3.634  0.0951  0.7006  0.9692
  873MOL0     C17731   0.153  11.357   3.576 -0.6421  0.2772  0.6735
  873MOL0     C17732   0.039  11.394   3.676 -1.3714  0.3853  0.6506
  873MOL0     C17733  -0.097  11.367   3.633  0.6031  0.3061 -0.4574
  873MOL0     C17734  -0.128  11.216   3.642  1.2467 -1.1390 -0.7211
  873MOL0     C17735  -0.272  11.181   3.613 -0.0984  0.0007  0.4297
  873MOL0     C17736  -0.291  11.033   3.578  0.1268  0.0443 -0.3433
  873MOL0     N17737  -0.433  11.011   3.553  0.4970 -0.1060  0.1955
  873MOL0     C17738  -0.534  11.025   3.642 -0.6460  0.8438 -1.0901
  873MOL0     C17739  -0.648  11.014   3.570 -0.3001 -0.3857  0.9103
  873MOL0     C17740  -0.775  11.049   3.638  0.3374  0.5612 -0.6450
  873MOL0     C17741  -0.887  11.059   3.535  0.1137 -0.6956 -0.1294
  873MOL0     C17742  -1.013  11.111   3.601  1.4765 -0.4739 -0.0027
  873MOL0     C17743  -1.116  11.144   3.489  1.1033  0.2177 -0.1746
  873MOL0     O17744  -1.237  11.207   3.547  0.2439  0.3959  0.3119
  873MOL0     C17745  -1.356  11.145   3.536  0.7982  0.0996  0.6192
  873MOL0     C17746  -1.438  11.169   3.643  0.2881  0.5050 -0.0340
  873MOL0     C17747  -1.580  11.160   3.633 -0.2034  0.5155 -0.3909
  873MOL0     C17748  -1.647  11.203   3.765  0.5119 -0.3051  0.5724
  873MOL0     C17749  -1.633  11.065   3.537 -1.2920  0.0270  0.8004
  873MOL0     C17750  -1.766  11.005   3.555 -0.6803  0.0576  0.7442
  873MOL0     O17751  -1.797  10.890   3.485 -0.7495  0.2599 -0.8598
  873MOL0     C17752  -1.923  10.833   3.501  0.1786  0.0179 -0.2065
  873MOL0     C17753  -1.934  10.697   3.531 -0.3755  0.1695 -0.1710
  873MOL0     C17754  -2.057  10.643   3.547  0.4889  0.1395 -0.6133
  873MOL0     C17755  -2.179  10.707   3.507 -0.3017  0.3368  0.0612
  873MOL0     O17756  -2.294  10.627   3.517  0.6041 -0.2729  0.5233
  873MOL0     C17757  -2.404  10.644   3.420 -0.5703  0.0505  0.6117
  873MOL0     C17758  -2.500  10.521   3.428 -0.6262 -0.1335 -0.5757
  873MOL0     C17759  -2.591  10.520   3.549  0.6121 -0.0303  0.1322
  873MOL0     C17760  -2.722  10.443   3.529  0.7981 -0.0336  0.5227
  873MOL0     C17761  -2.817  10.491   3.639  0.0375  0.2960 -0.8684
  873MOL0     C17762  -2.944  10.407   3.646 -0.2394  0.4016  0.4968
  873MOL0     C17763  -3.021  10.435   3.779 -0.0946  0.6713  0.6369
  873MOL0     C17764  -3.096  10.568   3.781  0.5764  0.4511  0.2416
  873MOL0    Cl17765  -3.163  10.610   3.947 -0.4539 -0.0571 -0.0171
  873MOL0     C17766  -2.168  10.844   3.462  0.2253  0.8818 -0.3705
  873MOL0     C17767  -2.038  10.904   3.461 -0.1257  0.1937 -0.2441
  873MOL0     O17768  -1.845  11.061   3.624  0.2454 -0.3886  0.5073
  873MOL0     C17769  -1.543  11.039   3.429 -1.2857 -0.3940 -0.4256
  873MOL0     C17770  -1.405  11.065   3.426  0.2696 -0.5834 -0.5060
  873MOL0     N17771  -0.619  10.986   3.438  0.4496 -0.1501  0.1962
  873MOL0     N17772  -0.491  10.990   3.431  0.8022  0.3369  0.0737
  873MOL0     C17773   0.575  11.121   3.626 -0.6744  0.9104  0.6562
  873MOL0     C17774   0.704  11.089   3.653 -0.8073 -0.7491 -0.1957
  873MOL0     C17775   1.157  10.998   3.544  0.8096  0.3688  0.4638
  873MOL0     C17776   1.169  10.956   3.677  0.0730 -0.8364 -0.1253
  873MOL0     C17777   1.292  10.895   3.722  0.9687  0.8118 -0.4521
  873MOL0     C17778   1.398  10.882   3.627 -0.8541 -1.3118 -0.6255
  873MOL0     O17779   1.518  10.823   3.647 -0.1281  0.1436 -0.1338
  873MOL0     C17780   1.556  10.762   3.779  0.8910 -0.7450  0.6133
  873MOL0     C17781   1.477  10.631   3.789 -0.3511  0.0201  0.1237
  873MOL0     C17782   1.503  10.557   3.923 -0.1656 -0.6556  0.4433
  873MOL0     C17783   1.379  10.473   3.965  0.5858 -0.9376  0.0667
  873MOL0     C17784   1.328  10.386   3.864  0.7358  1.0030 -0.2507
  873MOL0     C17785   1.322  10.304   3.776  0.6225 -0.3701 -0.1453
  873MOL0     C17786   1.387  10.944   3.503 -0.4442 -0.5106  0.3069
  873MOL0     C17787   1.271  11.005   3.463 -0.9981  0.8463  0.4839
  873MOL0     H17788   0.861  11.258   3.406  1.2821  0.1649  2.7704
  873MOL0     H17789   0.655  11.322   3.357  1.9013 -1.1988 -0.3740
  873MOL0     H17790   0.485  11.444   3.547  0.4532 -1.7853 -3.5627
  873MOL0     H17791   0.350  11.434   3.432  1.3003  1.7654 -1.1775
  873MOL0     H17792   0.307  11.370   3.734  2.5255 -0.8474 -0.0089
  873MOL0     H17793   0.293  11.521   3.642 -2.0606  0.8551  0.4242
  873MOL0     H17794   0.129  11.404   3.480 -0.2216  2.9429  1.7641
  873MOL0     H17795   0.148  11.249   3.561 -1.4068  0.4857 -0.8215
  873MOL0     H17796   0.056  11.336   3.767 -0.3535 -0.9133 -0.3415
  873MOL0     H17797   0.044  11.501   3.698 -0.4674  0.8606 -1.5696
  873MOL0     H17798  -0.170  11.419   3.696 -0.5724  1.6946 -2.8409
  873MOL0     H17799  -0.113  11.412   3.535 -1.4705  1.3948  0.3332
  873MOL0     H17800  -0.069  11.160   3.568 -0.4390 -0.1357 -2.9318
  873MOL0     H17801  -0.100  11.188   3.744  1.7513 -0.4192 -0.6597
  873MOL0     H17802  -0.351  11.215   3.681 -1.7478 -0.9389 -0.9224
  873MOL0     H17803  -0.297  11.235   3.521  4.5324  1.7210 -0.0857
  873MOL0     H17804  -0.266  10.974   3.667 -0.3257  0.0271 -0.2252
  873MOL0     H17805  -0.219  10.996   3.505 -0.7422  0.4091 -1.4084
  873MOL0     H17806  -0.519  11.055   3.745  0.1053  2.2665 -1.5935
  873MOL0     H17807  -0.792  10.968   3.709  2.8212  1.3751  1.0178
  873MOL0     H17808  -0.753  11.151   3.673  1.5051  0.9122 -2.2459
  873MOL0     H17809  -0.892  10.957   3.496 -0.5646 -1.1563  1.1156
  873MOL0     H17810  -0.853  11.113   3.446 -0.3539  1.0699  0.7138
  873MOL0     H17811  -0.988  11.200   3.659 -0.7829  2.7904 -3.5209
  873MOL0     H17812  -1.059  11.032   3.660  1.3928 -1.2101 -1.0244
  873MOL0     H17813  -1.139  11.055   3.430  0.8737  0.8647 -1.0824
  873MOL0     H17814  -1.070  11.217   3.421 -1.0202  2.3943  0.6176
  873MOL0     H17815  -1.391  11.220   3.727  0.5961 -0.4727  0.3965
  873MOL0     H17816  -1.592  11.269   3.832 -3.5873 -0.1886  4.3155
  873MOL0     H17817  -1.743  11.251   3.744  0.4358 -0.5757  0.2931
  873MOL0     H17818  -1.673  11.118   3.828  1.7249  0.8214  2.6908
  873MOL0     H17819  -1.851  10.631   3.555 -1.3930 -1.4347 -0.8692
  873MOL0     H17820  -2.070  10.543   3.587  1.8814  0.5234  0.9436
  873MOL0     H17821  -2.452  10.741   3.434 -0.8616  0.2200 -1.2302
  873MOL0     H17822  -2.365  10.639   3.318  0.5146  0.4274  0.9902
  873MOL0     H17823  -2.561  10.522   3.337 -2.1039  2.2411  0.3379
  873MOL0     H17824  -2.436  10.432   3.429 -1.3343 -0.6422 -0.1892
  873MOL0     H17825  -2.604  10.625   3.575 -0.0979  0.4543 -1.9882
  873MOL0     H17826  -2.536  10.467   3.628  0.8104  1.9055  1.3545
  873MOL0     H17827  -2.761  10.469   3.430  2.2062  1.0254  0.2076
  873MOL0     H17828  -2.701  10.336   3.534 -0.4900 -0.6253 -3.3377
  873MOL0     H17829  -2.834  10.597   3.619  1.9055  1.2936  2.1798
  873MOL0     H17830  -2.769  10.478   3.737 -1.6064 -0.0808 -0.0818
  873MOL0     H17831  -3.001  10.431   3.555  0.2376  0.6194  0.2531
  873MOL0     H17832  -2.925  10.300   3.651 -2.8526 -0.2522 -1.3508
  873MOL0     H17833  -2.954  10.433   3.866 -2.4239 -1.5526  2.5140
  873MOL0     H17834  -3.082  10.349   3.805  1.3705 -0.0108  2.0031
  873MOL0     H17835  -3.177  10.566   3.707  1.8088  1.4452 -1.1863
  873MOL0     H17836  -3.031  10.648   3.745 -0.0062  1.1227  0.6455
  873MOL0     H17837  -2.260  10.896   3.440 -1.6546 -2.5213 -1.2867
  873MOL0     H17838  -2.031  11.005   3.424 -0.5011  0.4246  0.2962
  873MOL0     H17839  -1.584  10.989   3.342 -1.6873  0.3891 -0.6931
  873MOL0     H17840  -1.334  11.036   3.350 -1.1103  2.2655 -3.0946
  873MOL0     H17841   0.495  11.073   3.682  2.5590 -3.5088  2.0335
  873MOL0     H17842   0.735  11.031   3.740  3.1442  2.3022  0.6836
  873MOL0     H17843   1.088  10.947   3.748 -1.9812  0.9783 -2.0617
  873MOL0     H17844   1.306  10.865   3.825  1.0272  2.6212  0.0880
  873MOL0     H17845   1.662  10.736   3.786  1.5112  0.4815 -2.4969
  873MOL0     H17846   1.537  10.835   3.858  0.8697  2.3424 -2.0177
  873MOL0     H17847   1.495  10.569   3.700 -0.7042 -0.1625  0.1783
  873MOL0     H17848   1.372  10.661   3.787 -0.0709  1.0340 -0.0449
  873MOL0     H17849   1.524  10.631   4.001  0.0767 -1.0709  0.7761
  873MOL0     H17850   1.588  10.490   3.914 -0.4291 -1.0203  0.6404
  873MOL0     H17851   1.287  10.527   3.988  2.0944  2.0664 -0.3561
  873MOL0     H17852   1.397  10.424   4.061 -1.7367 -3.2472 -0.5834
  873MOL0     H17853   1.306  10.231   3.700  0.5996  1.7758 -2.3196
  873MOL0     H17854   1.472  10.953   3.436 -1.6169  3.2633 -0.9436
  873MOL0     H17855   1.282  11.057   3.369  2.5570 -1.1360 -0.3733
  874MOL0     O17856   2.990   1.663   2.009 -0.2206 -0.9685  0.0915
  874MOL0     C17857   3.005   1.693   1.892 -0.2947 -0.9179 -0.9641
  874MOL0     O17858   2.902   1.706   1.807 -0.7905 -0.8507 -0.0893
  874MOL0     C17859   2.775   1.659   1.827  0.2129 -0.6376  0.5687
  874MOL0     C17860   2.714   1.632   1.710 -0.1217  0.1532  0.9410
  874MOL0     C17861   2.584   1.575   1.714  1.0341 -0.2025  0.1266
  874MOL0     C17862   2.516   1.542   1.833 -0.1565  1.0759 -0.0468
  874MOL0     O17863   2.396   1.488   1.830 -0.4896 -0.2242 -0.2536
  874MOL0     C17864   2.387   1.360   1.879  0.4427  0.5993 -0.1125
  874MOL0     C17865   2.326   1.361   2.020  1.1929  0.6921  0.0040
  874MOL0     C17866   2.175   1.364   2.013 -0.0838  0.1042  0.3948
  874MOL0     C17867   2.102   1.227   1.990 -0.7717  0.9404  0.7099
  874MOL0     C17868   1.960   1.239   2.041  0.9775 -0.2711 -0.4358
  874MOL0     C17869   1.872   1.112   2.040 -0.4009  0.4229  0.3582
  874MOL0     C17870   1.750   1.154   2.122 -0.7674 -0.3377  0.1083
  874MOL0     C17871   1.629   1.065   2.102 -0.0372  0.1405  0.0010
  874MOL0     N17872   1.518   1.104   2.203  0.0343 -0.2419 -0.0668
  874MOL0     C17873   1.517   1.107   2.337  0.1964  0.9966  0.5210
  874MOL0     C17874   1.405   1.176   2.367  0.0041  0.3962 -0.9195
  874MOL0     C17875   1.344   1.189   2.503  1.0386  0.8915 -0.4047
  874MOL0     C17876   1.216   1.100   2.524 -0.4540 -0.4770 -0.0092
  874MOL0     C17877   1.096   1.168   2.454 -0.5587 -1.0389  0.4889
  874MOL0     C17878   0.964   1.088   2.474  0.3033  0.2449 -0.7487
  874MOL0     O17879   0.851   1.142   2.402  0.1125 -0.2806  0.2711
  874MOL0     C17880   0.825   1.083   2.283 -0.0231 -0.3986  0.2387
  874MOL0     C17881   0.689   1.071   2.244 -0.1554 -0.2930 -0.9157
  874MOL0     C17882   0.645   1.019   2.121  0.4670 -0.3024 -0.5297
  874MOL0     C17883   0.494   0.987   2.108 -0.6754 -0.5764 -0.3509
  874MOL0     C17884   0.750   0.984   2.027  0.0147  0.1882  0.3133
  874MOL0     C17885   0.715   0.925   1.890 -0.7605  0.5972 -0.9354
  874MOL0     O17886   0.598   0.859   1.863  0.3207  0.3144 -0.0148
  874MOL0     C17887   0.570   0.803   1.739 -0.7246 -0.5346  0.1247
  874MOL0     C17888   0.625   0.838   1.618 -0.2421  0.1107  0.3854
  874MOL0     C17889   0.579   0.773   1.506 -1.2764 -0.8958  0.8711
  874MOL0     C17890   0.484   0.663   1.513  0.1208  0.3807  0.3661
  874MOL0     O17891   0.440   0.590   1.405 -1.3415 -0.4718 -0.0977
  874MOL0     C17892   0.493   0.612   1.269 -0.4643  0.4308 -0.3336
  874MOL0     C17893   0.509   0.476   1.197  0.8744  0.2981 -0.7574
  874MOL0     C17894   0.392   0.456   1.094 -1.1203 -0.1422  0.7960
  874MOL0     C17895   0.244   0.457   1.145 -0.4162 -0.0537  0.5796
  874MOL0     C17896   0.149   0.413   1.033  0.3622  0.0175  0.0410
  874MOL0     C17897   0.155   0.509   0.922 -0.2843 -0.3714  0.1022
  874MOL0     C17898   0.058   0.465   0.815  0.2299 -0.3484  0.1728
  874MOL0     C17899   0.052   0.566   0.702 -0.0940  0.3601 -0.1492
  874MOL0    Cl17900  -0.108   0.556   0.645 -0.0261  0.0536 -0.5984
  874MOL0     C17901   0.439   0.629   1.636  0.1169 -1.0666 -0.9321
  874MOL0     C17902   0.477   0.698   1.748 -0.7521 -0.0771 -0.9542
  874MOL0     O17903   0.820   0.930   1.814 -0.1844 -0.4625  0.2068
  874MOL0     C17904   0.885   1.009   2.058 -0.8691 -0.0638 -0.1418
  874MOL0     C17905   0.923   1.047   2.187 -0.4903 -0.1321  0.0214
  874MOL0     N17906   1.350   1.230   2.259  0.8071 -0.1916  0.0501
  874MOL0     N17907   1.429   1.193   2.162  0.6101  0.4155  0.7208
  874MOL0     C17908   2.585   1.577   1.951 -1.1467 -0.0764  0.0680
  874MOL0     C17909   2.715   1.638   1.951 -0.2028  0.3796 -0.2155
  874MOL0     C17910   3.139   1.741   1.841  0.3120  0.7164  0.2933
  874MOL0     C17911   3.255   1.734   1.915  1.0623  0.0920  0.2553
  874MOL0     C17912   3.381   1.801   1.887  0.1518  0.0766 -0.3790
  874MOL0     C17913   3.386   1.870   1.762 -0.3549 -0.4197  0.4586
  874MOL0     O17914   3.499   1.930   1.722 -0.0010  0.6805  0.0884
  874MOL0     C17915   3.596   1.971   1.811  0.2215  0.5556  0.2836
  874MOL0     C17916   3.670   2.090   1.761 -0.7514  0.0315  0.4336
  874MOL0     C17917   3.763   2.045   1.642  0.6520  0.4462  0.1292
  874MOL0     C17918   3.691   2.082   1.508  0.7571  0.0212 -0.1936
  874MOL0     C17919   3.777   2.046   1.394  0.1772 -0.5867  0.4762
  874MOL0     C17920   3.850   2.021   1.297 -0.2090  1.0101  0.0192
  874MOL0     C17921   3.267   1.868   1.680  1.1575  0.6108 -0.0845
  874MOL0     C17922   3.145   1.810   1.721  0.2592  0.1295  1.6123
  874MOL0     H17923   2.759   1.672   1.621 -0.3214 -1.8182 -0.1156
  874MOL0     H17924   2.519   1.554   1.630 -1.2105 -1.3019  2.0317
  874MOL0     H17925   2.321   1.299   1.816 -1.6973  2.5832  0.0964
  874MOL0     H17926   2.485   1.314   1.894 -0.2564 -0.8339  0.2383
  874MOL0     H17927   2.354   1.265   2.066  0.5008  1.4686  2.2041
  874MOL0     H17928   2.364   1.449   2.073 -0.4400  1.1689  0.4377
  874MOL0     H17929   2.148   1.416   2.105 -0.9056 -0.0034  0.2223
  874MOL0     H17930   2.135   1.426   1.933 -2.6285 -2.8181 -0.8106
  874MOL0     H17931   2.099   1.197   1.885  1.1107  3.0533 -0.0207
  874MOL0     H17932   2.153   1.149   2.047 -1.5799  0.9446  1.4688
  874MOL0     H17933   1.960   1.270   2.146  1.8898 -1.3504 -0.1002
  874MOL0     H17934   1.922   1.321   1.978  4.8315  0.9034 -1.4772
  874MOL0     H17935   1.849   1.089   1.936  2.2575 -0.8262 -0.0390
  874MOL0     H17936   1.911   1.022   2.088 -0.8514  1.0407  1.9503
  874MOL0     H17937   1.767   1.170   2.229  0.4455  4.6376 -0.5979
  874MOL0     H17938   1.727   1.252   2.080  1.7845  0.4205  0.3213
  874MOL0     H17939   1.655   0.960   2.119 -0.0105 -0.5423 -3.5940
  874MOL0     H17940   1.594   1.065   1.999  1.9788  0.4743 -0.7174
  874MOL0     H17941   1.583   1.051   2.403 -0.4555  0.2848  0.5824
  874MOL0     H17942   1.410   1.162   2.586 -1.5394 -0.5446  1.3175
  874MOL0     H17943   1.312   1.293   2.518  0.4465  0.8466 -1.2954
  874MOL0     H17944   1.178   1.085   2.626 -0.9476 -0.2905 -0.1581
  874MOL0     H17945   1.239   1.005   2.476  1.5684  0.8778 -1.9246
  874MOL0     H17946   1.101   1.185   2.346 -0.7573  1.4510  0.8183
  874MOL0     H17947   1.084   1.264   2.505 -2.8922 -0.2007 -1.4221
  874MOL0     H17948   0.940   1.072   2.580  1.8342 -2.0476 -0.6889
  874MOL0     H17949   0.983   0.984   2.449 -1.4714  0.1006 -1.6844
  874MOL0     H17950   0.630   1.100   2.331  1.3027 -0.8633  0.3189
  874MOL0     H17951   0.481   0.882   2.133 -1.1997 -0.3232  0.5047
  874MOL0     H17952   0.434   1.050   2.176 -1.0864 -0.1439 -1.0947
  874MOL0     H17953   0.451   1.012   2.010 -3.2190  0.4830  0.9153
  874MOL0     H17954   0.706   0.908   1.606  0.2358 -0.1679  1.7498
  874MOL0     H17955   0.618   0.814   1.414  1.4620 -3.9268  0.4870
  874MOL0     H17956   0.422   0.680   1.221  0.0063  1.6957  0.6944
  874MOL0     H17957   0.588   0.666   1.265  1.1692 -2.3453 -1.3694
  874MOL0     H17958   0.601   0.461   1.139  1.1152 -2.2365  0.1756
  874MOL0     H17959   0.506   0.391   1.266  0.3293  1.3066  0.5009
  874MOL0     H17960   0.402   0.354   1.056  1.4560  0.0842  0.7157
  874MOL0     H17961   0.410   0.513   1.003  2.4647  0.9402  2.0048
  874MOL0     H17962   0.217   0.390   1.228 -1.5300  1.4593  1.4790
  874MOL0     H17963   0.225   0.558   1.182  0.1645 -0.0739  0.9504
  874MOL0     H17964   0.048   0.410   1.075  0.3071 -1.1792 -0.1320
  874MOL0     H17965   0.171   0.312   0.998 -0.2349  0.0958 -0.5944
  874MOL0     H17966   0.135   0.610   0.959  0.8908 -0.3848  0.8156
  874MOL0     H17967   0.252   0.503   0.871 -0.3066  1.6062 -0.2565
  874MOL0     H17968  -0.037   0.434   0.859 -0.2082 -2.0883 -1.8135
  874MOL0     H17969   0.090   0.375   0.762  0.5068  0.4773 -1.1218
  874MOL0     H17970   0.126   0.533   0.629  1.3049 -2.5070  2.3265
  874MOL0     H17971   0.073   0.669   0.733 -2.0212  1.5453 -2.4773
  874MOL0     H17972   0.377   0.541   1.653  1.9624 -1.6859  5.0365
  874MOL0     H17973   0.428   0.665   1.839  0.1521  2.7796  0.6880
  874MOL0     H17974   0.966   0.995   1.986  0.2715  1.8810  0.6776
  874MOL0     H17975   1.029   1.054   2.212 -0.2506  0.6137 -1.1367
  874MOL0     H17976   2.551   1.540   2.048 -0.7930 -0.5906 -0.0010
  874MOL0     H17977   2.757   1.658   2.050  0.4482  2.2297 -0.8266
  874MOL0     H17978   3.250   1.694   2.015  2.2168  0.9092  0.6618
  874MOL0     H17979   3.469   1.785   1.947  0.3895 -1.8679 -1.1564
  874MOL0     H17980   3.550   1.995   1.907  1.5372  2.1573  0.5653
  874MOL0     H17981   3.666   1.890   1.834  0.5701  1.1269  1.2888
  874MOL0     H17982   3.734   2.128   1.841  0.2782 -0.4042 -0.1588
  874MOL0     H17983   3.608   2.174   1.729  0.1312 -0.3303 -2.5590
  874MOL0     H17984   3.796   1.941   1.652  1.5065  0.7172  0.2000
  874MOL0     H17985   3.853   2.106   1.654  0.7476  0.5982 -1.2729
  874MOL0     H17986   3.677   2.190   1.520 -1.0247  0.1710 -2.8089
  874MOL0     H17987   3.591   2.040   1.497  0.0813  1.7873 -1.4103
  874MOL0     H17988   3.940   2.024   1.238  0.0753  1.8989  0.4773
  874MOL0     H17989   3.278   1.909   1.580 -1.4551 -1.7550 -1.5016
  874MOL0     H17990   3.066   1.804   1.648  1.1337 -0.3552  0.6847
  875MOL0     O17991   9.334   8.660   1.878 -0.3355 -0.3240  0.4617
  875MOL0     C17992   9.414   8.714   1.807  0.1049 -0.2474  0.4510
  875MOL0     O17993   9.540   8.673   1.776 -0.1467 -0.0053 -0.3288
  875MOL0     C17994   9.578   8.557   1.845 -0.2273  0.1853 -0.4656
  875MOL0     C17995   9.653   8.468   1.763  0.1565 -0.0593 -0.4061
  875MOL0     C17996   9.705   8.349   1.816  0.1267 -0.6242 -0.7213
  875MOL0     C17997   9.686   8.317   1.954  1.1239 -0.3069  0.1043
  875MOL0     O17998   9.726   8.202   2.018  0.5910 -0.0346 -0.2667
  875MOL0     C17999   9.860   8.172   1.987 -0.2770  0.2649  0.4263
  875MOL0     C18000   9.890   8.040   2.040 -0.5275 -0.2820 -0.3980
  875MOL0     C18001   9.899   8.020   2.188  0.4995  0.6370 -0.9300
  875MOL0     C18002   9.766   8.020   2.275 -0.1231 -0.1071 -0.0090
  875MOL0     C18003   9.811   7.999   2.413  0.4899 -0.4121 -0.1953
  875MOL0     C18004   9.691   8.017   2.502 -0.0735  0.3077 -1.0828
  875MOL0     C18005   9.701   8.011   2.652 -0.2964  1.0050  0.4558
  875MOL0     C18006   9.568   8.025   2.718  0.3535 -0.3009 -0.0435
  875MOL0     N18007   9.582   8.024   2.861  0.3762 -0.2802 -0.1596
  875MOL0     C18008   9.561   7.909   2.938  0.1521 -0.2742 -0.0727
  875MOL0     C18009   9.608   7.954   3.054  0.0468  0.1584  0.2465
  875MOL0     C18010   9.627   7.859   3.177  0.2265  0.4491 -0.5432
  875MOL0     C18011   9.531   7.893   3.289 -0.2977 -0.3384  0.5012
  875MOL0     C18012   9.478   7.786   3.373  0.7782  0.1713 -0.5740
  875MOL0     C18013   9.398   7.844   3.486  0.2535  0.9218 -0.7470
  875MOL0     O18014   9.355   7.728   3.563 -0.8264  0.5585  0.5382
  875MOL0     C18015   9.316   7.733   3.693  0.2884  0.1874 -0.3542
  875MOL0     C18016   9.308   7.610   3.771 -0.0858 -0.4662  0.0627
  875MOL0     C18017   9.285   7.618   3.914  0.0977 -0.3406  0.5315
  875MOL0     C18018   9.292   7.478   3.973 -0.3156 -0.1287  0.3793
  875MOL0     C18019   9.280   7.741   3.977  0.8257  0.7354 -0.2187
  875MOL0     C18020   9.269   7.761   4.121 -1.1073  0.3235 -0.2140
  875MOL0     O18021   9.262   7.883   4.187 -0.6935 -1.0267  0.9755
  875MOL0     C18022   9.191   7.896   4.307  0.4654  0.6073  0.7108
  875MOL0     C18023   9.053   7.928   4.300 -0.3390 -0.2344 -0.0960
  875MOL0     C18024   8.971   7.910   4.409  0.7360 -0.8253 -0.3095
  875MOL0     C18025   9.024   7.869   4.535 -0.3162  0.7956 -0.3930
  875MOL0     O18026   8.942   7.858   4.642  0.6192 -1.0798 -0.3370
  875MOL0     C18027   8.991   7.782   4.755 -0.1073 -0.6157  1.2746
  875MOL0     C18028   8.880   7.766   4.844 -0.1205 -0.6777 -0.1008
  875MOL0     C18029   8.908   7.674   4.965  0.0692 -0.1385 -0.7176
  875MOL0     C18030   9.017   7.733   5.065 -0.5935 -0.2788 -0.5292
  875MOL0     C18031   9.009   7.673   5.205 -0.0827  0.9938 -0.9803
  875MOL0     C18032   9.116   7.716   5.307 -0.5728  0.0864  1.0915
  875MOL0     C18033   9.141   7.626   5.432 -0.4285 -0.3211  0.0617
  875MOL0     C18034   9.249   7.684   5.522  0.3134 -0.2169  0.2266
  875MOL0    Cl18035   9.425   7.641   5.466  0.2373 -0.4383 -0.1153
  875MOL0     C18036   9.165   7.840   4.539 -0.3823  0.6670  0.1325
  875MOL0     C18037   9.244   7.847   4.419 -0.2661  0.0086 -0.8590
  875MOL0     O18038   9.278   7.658   4.186  1.1025  0.6921  0.4412
  875MOL0     C18039   9.275   7.855   3.894  0.8032 -0.4870  1.2705
  875MOL0     C18040   9.301   7.855   3.754  0.0608  0.0728 -0.0098
  875MOL0     N18041   9.647   8.080   3.051  0.0137  0.4175 -0.6487
  875MOL0     N18042   9.632   8.125   2.936 -0.1548  0.9629  0.5341
  875MOL0     C18043   9.611   8.412   2.031  0.2976 -0.0174  0.1539
  875MOL0     C18044   9.559   8.533   1.980  0.2320  0.3215  0.2310
  875MOL0     C18045   9.381   8.838   1.736  0.1186 -0.1599  0.3079
  875MOL0     C18046   9.255   8.897   1.755  0.2175 -0.2469  0.0586
  875MOL0     C18047   9.236   9.022   1.701  0.1136  0.5471  0.4913
  875MOL0     C18048   9.325   9.088   1.612  0.0160  0.0696 -0.5752
  875MOL0     O18049   9.280   9.208   1.564  0.7045  0.5407  1.2164
  875MOL0     C18050   9.377   9.288   1.497  0.4751 -0.1691  0.4276
  875MOL0     C18051   9.307   9.421   1.456  0.1744 -1.5159  0.2064
  875MOL0     C18052   9.182   9.415   1.358 -0.3929  0.4020  0.4931
  875MOL0     C18053   9.166   9.546   1.292 -0.3166  0.1734  0.1513
  875MOL0     C18054   9.267   9.541   1.180  0.1317 -0.1329  0.1127
  875MOL0     C18055   9.357   9.562   1.100  0.4114 -0.3679  0.2969
  875MOL0     C18056   9.451   9.031   1.596  0.6769  0.5626  0.1360
  875MOL0     C18057   9.476   8.908   1.656 -0.0737  0.3644  0.0207
  875MOL0     H18058   9.674   8.494   1.660 -1.3067 -1.2598 -1.0369
  875MOL0     H18059   9.749   8.276   1.749  0.2895 -1.1781 -0.0329
  875MOL0     H18060   9.884   8.174   1.880 -1.2357  0.7968  0.2110
  875MOL0     H18061   9.921   8.253   2.029 -1.4562  2.1533 -1.2943
  875MOL0     H18062   9.816   7.974   1.993  1.7201 -2.6347 -0.8364
  875MOL0     H18063   9.983   8.014   1.989  0.0506  0.9768 -0.0269
  875MOL0     H18064   9.940   7.919   2.196  3.2268  1.8141  2.7918
  875MOL0     H18065   9.971   8.093   2.228  3.2829 -0.6610 -3.2629
  875MOL0     H18066   9.716   8.117   2.267  2.1880  1.1286 -0.6199
  875MOL0     H18067   9.705   7.931   2.257  1.2851 -1.5520  1.9228
  875MOL0     H18068   9.855   7.900   2.429  1.2230 -0.2656 -1.1890
  875MOL0     H18069   9.879   8.081   2.440 -0.1968  0.6541 -1.5787
  875MOL0     H18070   9.648   8.114   2.475  0.6132  0.8143 -0.4069
  875MOL0     H18071   9.620   7.935   2.485  1.0620 -2.0663  3.6830
  875MOL0     H18072   9.747   7.915   2.675 -1.2112 -0.1066 -1.9780
  875MOL0     H18073   9.773   8.088   2.682  2.6093 -1.4613  0.3558
  875MOL0     H18074   9.505   7.942   2.683 -4.7863  3.5490 -1.0431
  875MOL0     H18075   9.521   8.120   2.692 -1.8032 -1.8787 -2.3046
  875MOL0     H18076   9.537   7.806   2.913 -1.6394  0.0838  0.0629
  875MOL0     H18077   9.603   7.757   3.145 -2.2262 -0.2358  2.8912
  875MOL0     H18078   9.721   7.857   3.232 -0.1544  0.1837  0.1037
  875MOL0     H18079   9.443   7.940   3.243 -0.1673 -0.9276 -0.3850
  875MOL0     H18080   9.575   7.964   3.359 -1.0790 -0.9805  1.6812
  875MOL0     H18081   9.559   7.727   3.416 -0.1714 -0.6322  0.1675
  875MOL0     H18082   9.418   7.706   3.328  2.7024 -2.4907  1.2888
  875MOL0     H18083   9.320   7.906   3.441 -0.4888  1.8105  1.6364
  875MOL0     H18084   9.467   7.907   3.542  0.1090  0.9086 -0.5551
  875MOL0     H18085   9.325   7.515   3.722  3.1481 -0.2352  0.5092
  875MOL0     H18086   9.376   7.464   4.042 -0.2836 -1.8866  0.0246
  875MOL0     H18087   9.210   7.450   4.040 -0.6848  1.0574  0.4464
  875MOL0     H18088   9.304   7.404   3.894  0.9341 -1.2191  1.5393
  875MOL0     H18089   9.004   7.953   4.207  0.7276 -0.0726 -0.6411
  875MOL0     H18090   8.866   7.934   4.396  1.0537  2.5780  1.9848
  875MOL0     H18091   9.018   7.681   4.724  0.4946  0.3906 -1.9444
  875MOL0     H18092   9.074   7.838   4.799 -0.2171 -1.1056  2.1176
  875MOL0     H18093   8.849   7.869   4.866 -0.7719 -1.1071  1.0785
  875MOL0     H18094   8.790   7.723   4.800 -0.8961  0.5553  0.2250
  875MOL0     H18095   8.940   7.571   4.948  0.4230 -0.4308  1.4582
  875MOL0     H18096   8.810   7.669   5.012 -0.1021  0.1407 -1.0366
  875MOL0     H18097   9.118   7.709   5.030  0.8826 -1.1967  3.7012
  875MOL0     H18098   9.002   7.840   5.083 -2.3378 -0.1754 -2.3126
  875MOL0     H18099   9.010   7.564   5.197 -1.8516  0.9968 -1.9014
  875MOL0     H18100   8.912   7.689   5.254  1.1648  2.0273  1.3130
  875MOL0     H18101   9.209   7.724   5.249 -0.4426 -2.9819  0.7279
  875MOL0     H18102   9.085   7.818   5.331 -1.2574  0.2196 -0.2278
  875MOL0     H18103   9.180   7.533   5.390 -4.3001 -1.1446 -2.1767
  875MOL0     H18104   9.051   7.603   5.490  0.5486  0.4211  1.9830
  875MOL0     H18105   9.231   7.651   5.625  2.0623  2.5558  1.5242
  875MOL0     H18106   9.228   7.791   5.520  0.8387 -0.1295 -1.1964
  875MOL0     H18107   9.211   7.802   4.630 -0.5997 -1.2397 -0.5208
  875MOL0     H18108   9.352   7.834   4.410 -0.4058 -1.9514 -0.2008
  875MOL0     H18109   9.259   7.948   3.948  0.6830  0.6223 -0.5876
  875MOL0     H18110   9.300   7.952   3.705  0.5778  0.6143  1.0091
  875MOL0     H18111   9.599   8.381   2.135 -1.8301 -0.8580 -0.2845
  875MOL0     H18112   9.524   8.613   2.046  0.5698 -0.2530  1.1256
  875MOL0     H18113   9.188   8.849   1.827  1.6327  2.1762  3.2346
  875MOL0     H18114   9.138   9.067   1.715 -1.9511 -2.0414 -3.6230
  875MOL0     H18115   9.444   9.316   1.579 -0.9077  0.7680  1.2913
  875MOL0     H18116   9.423   9.228   1.419  1.9487  0.1749  0.9948
  875MOL0     H18117   9.374   9.503   1.431 -3.2535  1.6241  0.4282
  875MOL0     H18118   9.270   9.466   1.548 -2.0019  0.7718 -1.6493
  875MOL0     H18119   9.100   9.420   1.429  0.7400  2.2286  1.7435
  875MOL0     H18120   9.170   9.331   1.288  1.7279 -0.0434  0.5999
  875MOL0     H18121   9.181   9.625   1.366 -0.3584  0.9989 -0.7133
  875MOL0     H18122   9.067   9.571   1.254 -0.3646 -0.0294  0.1405
  875MOL0     H18123   9.430   9.579   1.023 -0.8113  0.0434 -0.8156
  875MOL0     H18124   9.535   9.073   1.542  1.2990  0.3964  0.9538
  875MOL0     H18125   9.580   8.877   1.650 -0.2299 -0.1615  0.0250
  876MOL0     O18126   1.456   8.240  10.961  0.0650  0.2731 -0.2056
  876MOL0     C18127   1.451   8.300  11.077 -0.2586  0.5705 -0.2669
  876MOL0     O18128   1.555   8.357  11.138 -0.4608  0.0899 -0.3959
  876MOL0     C18129   1.666   8.362  11.062  0.2848 -0.5190  0.2423
  876MOL0     C18130   1.751   8.256  11.029  0.1270 -0.2282 -0.9629
  876MOL0     C18131   1.867   8.284  10.944 -0.4869  0.5794 -0.1833
  876MOL0     C18132   1.885   8.407  10.886  0.2393  0.2764  0.6402
  876MOL0     O18133   1.989   8.432  10.802 -0.5040  0.0230 -0.4483
  876MOL0     C18134   2.067   8.324  10.744 -0.5496 -0.0564 -0.1516
  876MOL0     C18135   2.025   8.292  10.597  0.4459  0.7262 -0.3749
  876MOL0     C18136   1.872   8.279  10.580 -0.0566  0.5073  0.3368
  876MOL0     C18137   1.831   8.242  10.439 -0.7268 -0.5556  1.3223
  876MOL0     C18138   1.686   8.187  10.421  0.0867  0.4974 -1.3325
  876MOL0     C18139   1.586   8.283  10.474  0.2520  0.3106  1.0812
  876MOL0     C18140   1.437   8.233  10.471  0.3178  0.3176 -0.3297
  876MOL0     C18141   1.338   8.339  10.529  0.3435 -1.1973 -0.1670
  876MOL0     N18142   1.203   8.288  10.542  0.2635 -0.8348 -0.9018
  876MOL0     C18143   1.109   8.293  10.444  0.4341  0.2079 -0.0652
  876MOL0     C18144   0.993   8.241  10.498 -0.0871 -0.2152 -0.5020
  876MOL0     C18145   0.864   8.224  10.420 -0.1872  0.1888 -0.5567
  876MOL0     C18146   0.867   8.076  10.374 -0.4003  0.2869  0.4521
  876MOL0     C18147   0.969   8.039  10.262 -0.0202  0.0277 -0.6647
  876MOL0     C18148   0.934   8.099  10.129  0.5300  0.1972  0.4840
  876MOL0     O18149   1.035   8.086  10.032  0.0581 -0.0888  0.2350
  876MOL0     C18150   1.109   8.191   9.985  0.7017  0.1972 -0.5083
  876MOL0     C18151   1.082   8.328  10.011 -0.1820 -0.9483 -0.2824
  876MOL0     C18152   1.156   8.423   9.943 -0.1326  0.4704  0.9072
  876MOL0     C18153   1.139   8.564   9.988 -0.3718 -0.4069  0.6099
  876MOL0     C18154   1.242   8.391   9.837 -0.8454 -0.3132 -0.0842
  876MOL0     C18155   1.317   8.487   9.748  0.3937  0.5837 -0.0776
  876MOL0     O18156   1.351   8.606   9.803 -0.8060 -0.4642  0.1864
  876MOL0     C18157   1.400   8.707   9.728  0.7341  0.1104 -0.2490
  876MOL0     C18158   1.443   8.809   9.814  0.0176  0.0378 -0.7529
  876MOL0     C18159   1.492   8.928   9.761  0.0266  0.0307 -0.5139
  876MOL0     C18160   1.491   8.950   9.626  1.0688 -0.4108  1.2923
  876MOL0     O18161   1.507   9.075   9.564 -0.0950  0.1651 -0.2431
  876MOL0     C18162   1.506   9.198   9.641 -0.3577  0.7707  0.0340
  876MOL0     C18163   1.427   9.306   9.560  0.2264  0.1827 -0.6984
  876MOL0     C18164   1.299   9.264   9.478 -0.4433 -0.1039 -0.0257
  876MOL0     C18165   1.279   9.366   9.371  0.6218  0.8385  0.7414
  876MOL0     C18166   1.131   9.400   9.319  1.0980  0.4938 -0.5544
  876MOL0     C18167   1.072   9.291   9.233 -0.6302  0.1913 -0.0555
  876MOL0     C18168   0.924   9.252   9.252 -0.2786  0.0642  0.6627
  876MOL0     C18169   0.864   9.184   9.138  0.0888 -0.0583  0.7475
  876MOL0    Cl18170   0.814   9.302   9.016  0.0715  0.0981  0.2616
  876MOL0     C18171   1.440   8.854   9.538 -0.2301  0.4870  0.5237
  876MOL0     C18172   1.390   8.732   9.586  0.1348  0.7042  0.9155
  876MOL0     O18173   1.354   8.440   9.639  0.4677  0.2183 -0.7795
  876MOL0     C18174   1.281   8.251   9.831 -0.0187  0.4893  0.2336
  876MOL0     C18175   1.209   8.152   9.896  0.1653 -0.3622 -0.3577
  876MOL0     N18176   1.016   8.219  10.637 -0.0416 -0.7962  0.1424
  876MOL0     N18177   1.143   8.240  10.660 -0.3597 -1.3076  0.6308
  876MOL0     C18178   1.795   8.505  10.914  0.4157  0.2482 -0.8859
  876MOL0     C18179   1.693   8.488  11.007  0.0370  0.1082 -0.9383
  876MOL0     C18180   1.322   8.327  11.141  0.4018 -0.1495 -0.3036
  876MOL0     C18181   1.315   8.419  11.243 -0.0320  0.6333 -0.1799
  876MOL0     C18182   1.197   8.465  11.300  0.4922 -0.9023 -0.3103
  876MOL0     C18183   1.071   8.421  11.258 -0.4986 -0.0071 -0.2177
  876MOL0     O18184   0.949   8.462  11.302 -0.1715 -0.9770  0.2809
  876MOL0     C18185   0.929   8.529  11.432 -0.4362  0.5950  0.0388
  876MOL0     C18186   0.800   8.471  11.487 -0.1621 -0.0899 -0.5957
  876MOL0     C18187   0.675   8.523  11.411 -0.5476  0.9479  0.2224
  876MOL0     C18188   0.546   8.463  11.467 -0.2500  0.0204  0.2466
  876MOL0     C18189   0.409   8.498  11.412  0.0338 -0.3490  0.2653
  876MOL0     C18190   0.294   8.505  11.383 -0.1144 -0.2840 -0.3159
  876MOL0     C18191   1.075   8.324  11.155 -0.3643 -0.1091  0.5130
  876MOL0     C18192   1.199   8.277  11.093 -0.7572  0.1039  0.0329
  876MOL0     H18193   1.730   8.163  11.081 -0.7047  1.4207  1.8550
  876MOL0     H18194   1.916   8.191  10.918  1.1967  1.6369 -0.9404
  876MOL0     H18195   2.168   8.365  10.743 -0.9490  0.9556 -0.6178
  876MOL0     H18196   2.077   8.237  10.808 -0.2845  2.2196  3.1643
  876MOL0     H18197   2.049   8.365  10.519 -1.4806  1.5602 -0.2393
  876MOL0     H18198   2.086   8.204  10.573  0.1111  0.0263  1.2063
  876MOL0     H18199   1.818   8.210  10.645 -1.8043  1.3621 -0.1521
  876MOL0     H18200   1.833   8.380  10.598  1.6317  0.9158  2.0531
  876MOL0     H18201   1.835   8.332  10.376 -2.4198 -1.6691 -0.5019
  876MOL0     H18202   1.902   8.167  10.404  1.9802  1.8167  1.3840
  876MOL0     H18203   1.658   8.160  10.319 -0.6949 -1.0538 -0.7489
  876MOL0     H18204   1.681   8.088  10.467 -0.3213  0.8053 -0.6994
  876MOL0     H18205   1.617   8.303  10.578  1.6635 -2.1590  1.2050
  876MOL0     H18206   1.604   8.378  10.421  1.8578 -1.2229 -1.3265
  876MOL0     H18207   1.414   8.210  10.367  0.0120 -0.8404 -0.0159
  876MOL0     H18208   1.436   8.143  10.532  1.0769 -0.6687 -1.7304
  876MOL0     H18209   1.344   8.420  10.455  1.5045 -0.9422  0.1750
  876MOL0     H18210   1.374   8.376  10.626 -4.8031 -0.3394  1.6905
  876MOL0     H18211   1.134   8.304  10.339  0.5629 -2.9079 -0.4769
  876MOL0     H18212   0.792   8.227  10.502  0.7106 -1.9715  0.3919
  876MOL0     H18213   0.845   8.306  10.350 -1.9350  0.9651  0.7405
  876MOL0     H18214   0.766   8.051  10.342  0.4126 -0.4548 -1.7674
  876MOL0     H18215   0.896   8.011  10.457  3.0771  0.9273 -0.0922
  876MOL0     H18216   0.968   7.930  10.254 -0.3316  0.1566 -4.7794
  876MOL0     H18217   1.068   8.077  10.288 -0.8808  2.2061 -0.3377
  876MOL0     H18218   0.920   8.205  10.153 -0.4722  1.0085 -3.1398
  876MOL0     H18219   0.838   8.062  10.091  0.2975 -0.7320  1.8820
  876MOL0     H18220   1.008   8.357  10.085  0.7169  0.8418 -0.0382
  876MOL0     H18221   1.096   8.631   9.914 -1.5295 -2.5291 -0.7220
  876MOL0     H18222   1.069   8.568  10.072  1.0831  1.3576  1.8207
  876MOL0     H18223   1.234   8.606  10.023 -0.7703 -0.0748  1.3178
  876MOL0     H18224   1.442   8.781   9.918 -2.0967 -0.6898 -0.9312
  876MOL0     H18225   1.537   8.984   9.842  1.3688 -1.7450  0.0565
  876MOL0     H18226   1.446   9.191   9.732 -2.0856  1.2830 -1.0348
  876MOL0     H18227   1.608   9.222   9.672 -0.5837 -0.7308  2.1152
  876MOL0     H18228   1.389   9.372   9.639 -1.9797 -2.7870  0.9669
  876MOL0     H18229   1.491   9.357   9.487  0.7228  0.7877  0.1377
  876MOL0     H18230   1.215   9.255   9.547  0.0305 -4.1565  0.2811
  876MOL0     H18231   1.317   9.176   9.415  1.8307  2.1901 -2.8702
  876MOL0     H18232   1.319   9.458   9.415  0.6065  0.6772  1.1024
  876MOL0     H18233   1.344   9.342   9.287 -0.2179 -2.0783  0.8241
  876MOL0     H18234   1.132   9.495   9.265  0.6053  0.5714 -0.4340
  876MOL0     H18235   1.069   9.416   9.407 -0.6157 -4.0194 -0.6616
  876MOL0     H18236   1.071   9.327   9.129 -2.9748 -1.4561 -0.6967
  876MOL0     H18237   1.130   9.199   9.234  0.6149  0.9443 -0.5235
  876MOL0     H18238   0.864   9.341   9.275  4.1265  3.8013 -0.7837
  876MOL0     H18239   0.919   9.192   9.343  4.5961 -2.4992 -0.4669
  876MOL0     H18240   0.778   9.128   9.176 -0.9683  1.4111  0.6050
  876MOL0     H18241   0.934   9.114   9.091 -0.1922  0.5179 -0.5912
  876MOL0     H18242   1.447   8.871   9.431  2.6747 -1.2326  0.3290
  876MOL0     H18243   1.357   8.653   9.519  0.1689  1.2399  0.2635
  876MOL0     H18244   1.346   8.218   9.750  0.4819  0.4974  0.6341
  876MOL0     H18245   1.213   8.044   9.888 -1.9723 -0.3738 -2.2064
  876MOL0     H18246   1.827   8.602  10.877  0.2316 -0.4911 -3.1337
  876MOL0     H18247   1.617   8.562  11.031  0.8113  1.3442 -2.1566
  876MOL0     H18248   1.410   8.461  11.273  1.2852 -0.2759 -2.8376
  876MOL0     H18249   1.201   8.532  11.385 -2.3819 -1.2385  0.1909
  876MOL0     H18250   1.014   8.509  11.497  0.0380  0.1639 -0.7020
  876MOL0     H18251   0.922   8.638  11.432  2.8729  0.9101  0.2089
  876MOL0     H18252   0.787   8.484  11.595 -2.2654  1.9524 -1.0049
  876MOL0     H18253   0.814   8.363  11.474  0.2939 -0.0360 -0.5363
  876MOL0     H18254   0.683   8.484  11.310 -0.8221 -0.0861  0.5930
  876MOL0     H18255   0.679   8.632  11.425  0.6333  0.7073  2.2332
  876MOL0     H18256   0.554   8.473  11.575  4.2850 -1.4106  0.2395
  876MOL0     H18257   0.538   8.356  11.445 -0.0959  0.7854 -4.8573
  876MOL0     H18258   0.189   8.500  11.360 -0.4049 -4.0123  1.0714
  876MOL0     H18259   0.981   8.276  11.129  1.7075 -5.0523  0.9874
  876MOL0     H18260   1.197   8.210  11.008 -1.6540  1.6334 -1.1890
  877MOL0     O18261   9.680  11.227   5.742  0.5499 -1.2625  0.2427
  877MOL0     C18262   9.764  11.286   5.810  0.2394 -0.7980  0.3483
  877MOL0     O18263   9.737  11.362   5.916 -0.7568  0.2631  0.7672
  877MOL0     C18264   9.612  11.382   5.947  0.3021  0.5431 -0.1060
  877MOL0     C18265   9.536  11.491   5.907 -0.7298  0.0641 -0.4399
  877MOL0     C18266   9.403  11.504   5.946 -0.1473 -0.1604 -0.5347
  877MOL0     C18267   9.332  11.394   6.009 -0.1970 -0.2312  0.9202
  877MOL0     O18268   9.208  11.404   6.069  0.4867 -0.9239 -0.4561
  877MOL0     C18269   9.132  11.521   6.051 -0.7891  0.2970  0.4839
  877MOL0     C18270   8.989  11.493   6.096  0.8917  0.1295  0.3717
  877MOL0     C18271   8.910  11.391   6.007  0.2475 -0.8116 -0.3593
  877MOL0     C18272   8.757  11.441   6.003  0.1208 -0.1728  0.0892
  877MOL0     C18273   8.674  11.319   5.948  0.0515  0.6524 -0.4800
  877MOL0     C18274   8.529  11.365   5.935  0.8168 -0.1177 -0.2426
  877MOL0     C18275   8.435  11.250   5.896  0.0393 -0.5858  0.6652
  877MOL0     C18276   8.293  11.290   5.851  0.6556  0.0949  0.3167
  877MOL0     N18277   8.220  11.336   5.972 -0.2853 -0.0661  0.6185
  877MOL0     C18278   8.162  11.265   6.067  0.6737  0.8398 -0.3565
  877MOL0     C18279   8.086  11.341   6.154 -0.1051 -0.4691 -0.7598
  877MOL0     C18280   8.013  11.295   6.272 -0.4818  0.1228  0.1225
  877MOL0     C18281   7.854  11.315   6.276  0.2921 -0.1928  0.2055
  877MOL0     C18282   7.783  11.238   6.159  0.5371 -0.0292 -0.3325
  877MOL0     C18283   7.632  11.267   6.148  0.8861  0.5286 -0.3319
  877MOL0     O18284   7.561  11.227   6.265  0.1888 -0.6869 -0.1716
  877MOL0     C18285   7.434  11.252   6.279 -0.4301 -0.5718  0.2092
  877MOL0     C18286   7.342  11.280   6.183  0.0550 -0.5337 -1.3378
  877MOL0     C18287   7.206  11.313   6.218  0.2925 -1.0597 -0.2592
  877MOL0     C18288   7.111  11.350   6.110 -0.0265  0.8250 -0.8782
  877MOL0     C18289   7.167  11.316   6.350  0.4174  1.1979  0.0839
  877MOL0     C18290   7.033  11.358   6.407  0.5117  0.2265 -0.2707
  877MOL0     O18291   7.033  11.349   6.542 -0.5631  0.1132 -0.1370
  877MOL0     C18292   6.922  11.382   6.612  0.1202  1.0186  0.0319
  877MOL0     C18293   6.831  11.280   6.652 -0.6677  0.1334 -0.1220
  877MOL0     C18294   6.732  11.300   6.740 -0.0545  0.0830 -0.5548
  877MOL0     C18295   6.710  11.433   6.784 -0.6707  0.0956  0.4030
  877MOL0     O18296   6.604  11.477   6.854 -0.3682  0.1213  0.1337
  877MOL0     C18297   6.625  11.457   6.995  0.2831  0.1517  0.0568
  877MOL0     C18298   6.507  11.398   7.067  0.3413  0.0163 -0.5719
  877MOL0     C18299   6.371  11.482   7.081 -0.4651  0.2428 -0.7467
  877MOL0     C18300   6.332  11.564   6.963  0.9183  0.1712 -0.2562
  877MOL0     C18301   6.209  11.644   6.980 -0.1619  0.7311 -0.7848
  877MOL0     C18302   6.074  11.575   7.000 -0.3607 -0.1394 -0.8135
  877MOL0     C18303   5.956  11.673   6.999  0.2572  0.9376 -0.1671
  877MOL0     C18304   5.816  11.613   7.022 -0.5379 -0.3476  0.2731
  877MOL0    Cl18305   5.752  11.598   7.188  0.6293 -0.3402 -0.5330
  877MOL0     C18306   6.793  11.543   6.730  0.3911 -0.2937 -0.1769
  877MOL0     C18307   6.905  11.509   6.652 -0.2215 -0.4167  0.2433
  877MOL0     O18308   6.933  11.381   6.335  0.0212 -0.0284  0.3070
  877MOL0     C18309   7.258  11.271   6.437 -0.5058 -0.7352 -0.5758
  877MOL0     C18310   7.393  11.251   6.412  0.2625  0.5644  0.0767
  877MOL0     N18311   8.125  11.466   6.113 -0.0739 -0.5174  0.0319
  877MOL0     N18312   8.192  11.460   6.007 -0.2355  0.7370 -0.2157
  877MOL0     C18313   9.402  11.276   6.036 -0.5457  0.3575 -0.4951
  877MOL0     C18314   9.541  11.275   6.007 -0.1251 -0.2276  0.2189
  877MOL0     C18315   9.898  11.262   5.775 -0.8673  0.6054 -0.3387
  877MOL0     C18316   9.941  11.216   5.647 -0.6687 -0.5096 -0.4065
  877MOL0     C18317  10.071  11.203   5.614  0.3250 -0.0017 -1.0320
  877MOL0     C18318  10.173  11.213   5.714 -1.3214  0.1906  0.5921
  877MOL0     O18319  10.306  11.175   5.688 -0.2753 -0.2791 -0.0806
  877MOL0     C18320  10.354  11.136   5.563  0.5276  0.1681  0.8212
  877MOL0     C18321  10.494  11.091   5.555  0.1911 -0.1215 -0.5337
  877MOL0     C18322  10.577  11.209   5.609 -0.3260  0.5596 -0.2028
  877MOL0     C18323  10.730  11.186   5.599  0.2229 -0.1286  0.0589
  877MOL0     C18324  10.774  11.058   5.648  0.6639  0.2861  0.1979
  877MOL0     C18325  10.785  10.942   5.688  0.0381  0.3148  0.1846
  877MOL0     C18326  10.137  11.247   5.845  0.4620 -0.4704 -0.1803
  877MOL0     C18327  10.001  11.289   5.873 -0.9421  0.8844 -0.7517
  877MOL0     H18328   9.579  11.569   5.844 -1.9457 -0.9337 -2.6195
  877MOL0     H18329   9.350  11.597   5.925 -1.4769 -1.3216 -2.6380
  877MOL0     H18330   9.179  11.593   6.119 -1.0536  1.3497 -0.4324
  877MOL0     H18331   9.142  11.548   5.946 -1.4499 -3.4467 -0.6997
  877MOL0     H18332   8.994  11.459   6.200  2.3222  1.0561  0.6445
  877MOL0     H18333   8.941  11.591   6.106 -0.1264 -0.5415  2.9599
  877MOL0     H18334   8.956  11.397   5.908  2.5717 -0.6523  0.6814
  877MOL0     H18335   8.915  11.292   6.054 -1.9769  0.6079  3.2430
  877MOL0     H18336   8.711  11.453   6.101 -3.1336  3.3039 -1.6111
  877MOL0     H18337   8.756  11.538   5.952  2.7430 -0.0827  0.0670
  877MOL0     H18338   8.720  11.300   5.851 -0.2450 -0.5792 -0.3903
  877MOL0     H18339   8.677  11.228   6.009  1.4230  0.5791 -0.6366
  877MOL0     H18340   8.500  11.403   6.033 -0.6581 -0.0376 -0.6937
  877MOL0     H18341   8.519  11.445   5.861 -3.6076 -0.9312 -0.8018
  877MOL0     H18342   8.484  11.205   5.809  1.6435 -0.9201  1.7013
  877MOL0     H18343   8.435  11.169   5.970 -0.9816  0.1627  1.5205
  877MOL0     H18344   8.255  11.194   5.815  2.8077 -0.0817 -1.7894
  877MOL0     H18345   8.301  11.363   5.770  2.0305  0.0559  0.3965
  877MOL0     H18346   8.151  11.157   6.071  0.9316  0.8332  0.3319
  877MOL0     H18347   8.057  11.197   6.290  1.6970  1.1734  0.9051
  877MOL0     H18348   8.051  11.356   6.356  1.8670 -1.2315  0.1274
  877MOL0     H18349   7.821  11.419   6.281 -0.5097 -0.4273 -0.0579
  877MOL0     H18350   7.822  11.260   6.366  0.2577  0.7142  0.7552
  877MOL0     H18351   7.802  11.134   6.188 -0.4793 -0.4796 -1.2152
  877MOL0     H18352   7.823  11.275   6.064  1.6852  2.3602  0.9847
  877MOL0     H18353   7.590  11.220   6.058 -0.2204  0.6600  0.1012
  877MOL0     H18354   7.615  11.374   6.132 -4.7904  0.2582  1.6702
  877MOL0     H18355   7.377  11.293   6.081  1.3262 -0.1151 -0.8648
  877MOL0     H18356   7.059  11.261   6.074  0.6884 -0.2023  0.5317
  877MOL0     H18357   7.042  11.429   6.139 -0.7208  0.2576 -0.9546
  877MOL0     H18358   7.172  11.390   6.029  0.3801  3.3249  0.5673
  877MOL0     H18359   6.860  11.181   6.621  0.3014  0.5777 -0.6863
  877MOL0     H18360   6.672  11.219   6.780 -1.2360  0.7047 -1.0315
  877MOL0     H18361   6.708  11.386   7.012  0.5573  0.0640 -1.5512
  877MOL0     H18362   6.637  11.557   7.037  4.9154  0.5828 -1.6877
  877MOL0     H18363   6.477  11.309   7.012  1.0076  0.2238 -1.3042
  877MOL0     H18364   6.533  11.370   7.169 -1.7408 -0.0270 -0.0096
  877MOL0     H18365   6.380  11.547   7.169 -1.0102 -1.2301  0.4231
  877MOL0     H18366   6.286  11.419   7.108 -3.6432  4.1330 -0.7767
  877MOL0     H18367   6.408  11.637   6.935 -1.7245  1.9946 -3.2394
  877MOL0     H18368   6.305  11.489   6.888  0.2750 -1.0153  1.1083
  877MOL0     H18369   6.202  11.711   6.893 -1.6891  0.0762 -1.2156
  877MOL0     H18370   6.230  11.703   7.070 -0.2559 -1.4082  0.7092
  877MOL0     H18371   6.058  11.505   6.918 -1.4814 -0.4779 -0.3284
  877MOL0     H18372   6.085  11.508   7.086  2.9075  3.0327  1.5761
  877MOL0     H18373   5.951  11.709   6.896  1.4994 -0.0329 -0.5863
  877MOL0     H18374   5.957  11.756   7.070  0.2549  2.1474 -1.5312
  877MOL0     H18375   5.827  11.517   6.969  0.4712  1.1220 -2.3734
  877MOL0     H18376   5.740  11.669   6.966 -1.7743 -3.9526 -2.0154
  877MOL0     H18377   6.792  11.649   6.754 -2.7019  0.2684 -2.2404
  877MOL0     H18378   6.988  11.577   6.637  1.6610 -2.2887  1.6665
  877MOL0     H18379   7.240  11.254   6.543  3.6240 -0.8057  0.2953
  877MOL0     H18380   7.465  11.217   6.485  1.4018  0.9849 -0.8280
  877MOL0     H18381   9.355  11.202   6.100 -0.4571  0.3421 -0.4479
  877MOL0     H18382   9.592  11.181   6.027  0.9949 -0.0652 -1.6159
  877MOL0     H18383   9.875  11.210   5.560 -0.2343 -0.7780 -0.7216
  877MOL0     H18384  10.086  11.170   5.512  0.0820 -0.6681 -0.8548
  877MOL0     H18385  10.283  11.060   5.526  0.6460 -0.6044  2.1286
  877MOL0     H18386  10.350  11.223   5.496 -2.9576  0.1968  0.8644
  877MOL0     H18387  10.516  11.066   5.451 -1.0067 -3.1171 -0.1633
  877MOL0     H18388  10.506  11.001   5.615 -1.3858  0.2924  0.4792
  877MOL0     H18389  10.549  11.229   5.713  1.7785  0.5805  0.3987
  877MOL0     H18390  10.547  11.296   5.549  1.1291  0.3378 -1.2913
  877MOL0     H18391  10.788  11.267   5.644  0.1447 -1.1598  2.1400
  877MOL0     H18392  10.750  11.190   5.492  1.1409  1.0321  0.2413
  877MOL0     H18393  10.808  10.849   5.736  0.7523  2.1802  3.7962
  877MOL0     H18394  10.216  11.258   5.918  0.3240  0.5260 -0.1737
  877MOL0     H18395   9.986  11.357   5.955 -1.7916 -1.1947  0.9060
  878MOL0     O18396   8.508   2.143   0.016  0.3712  0.1392 -0.4478
  878MOL0     C18397   8.628   2.165   0.006 -0.6552 -0.3691  0.2090
  878MOL0     O18398   8.713   2.073  -0.052  1.4634  0.2359 -1.3243
  878MOL0     C18399   8.670   1.959  -0.117 -0.4910 -0.7112 -0.6510
  878MOL0     C18400   8.562   1.958  -0.208 -0.4722 -0.0400 -0.2362
  878MOL0     C18401   8.518   1.840  -0.254 -0.0007 -0.1640 -0.2092
  878MOL0     C18402   8.578   1.716  -0.225 -0.1187  0.1229  0.4517
  878MOL0     O18403   8.520   1.602  -0.264  0.3899 -0.3732  0.4973
  878MOL0     C18404   8.407   1.566  -0.189 -0.0867  0.5248  0.0018
  878MOL0     C18405   8.345   1.427  -0.211 -0.3860 -0.6156 -0.0351
  878MOL0     C18406   8.324   1.397  -0.364 -0.1927  0.6161 -0.6715
  878MOL0     C18407   8.255   1.261  -0.379  0.0142 -0.4496 -1.0240
  878MOL0     C18408   8.195   1.225  -0.516  0.3257 -0.0751  0.0520
  878MOL0     C18409   8.128   1.089  -0.519  0.2040  0.0184  0.5879
  878MOL0     C18410   8.064   1.047  -0.658 -0.7056  0.0549 -0.6546
  878MOL0     C18411   7.988   0.915  -0.637  0.1894 -0.4396  0.0448
  878MOL0     N18412   7.933   0.877  -0.763  0.8768  0.2899 -0.0439
  878MOL0     C18413   7.968   0.905  -0.896 -0.8048 -0.3513 -0.3488
  878MOL0     C18414   7.875   0.850  -0.975  0.0696 -0.5325 -0.3469
  878MOL0     C18415   7.880   0.847  -1.128 -0.2456 -0.0024  0.6314
  878MOL0     C18416   7.990   0.756  -1.186  0.3501  0.4191 -0.5478
  878MOL0     C18417   7.983   0.606  -1.139 -0.5979 -0.2068 -0.0815
  878MOL0     C18418   8.069   0.497  -1.223  0.0118  0.0500  0.6564
  878MOL0     O18419   8.197   0.558  -1.228  0.3605  0.7786 -0.5464
  878MOL0     C18420   8.302   0.498  -1.297 -0.2524 -0.0009  0.2128
  878MOL0     C18421   8.424   0.492  -1.229 -0.7780  1.0303  0.2933
  878MOL0     C18422   8.533   0.437  -1.289  0.9925 -0.7542 -0.4709
  878MOL0     C18423   8.660   0.462  -1.216  0.5365 -0.1341 -0.0995
  878MOL0     C18424   8.526   0.369  -1.412 -1.0062 -0.5415 -0.6813
  878MOL0     C18425   8.635   0.298  -1.481 -0.0039  0.8970  0.7727
  878MOL0     O18426   8.631   0.285  -1.624  0.2181  0.7168  0.2059
  878MOL0     C18427   8.728   0.221  -1.699  0.2845  0.0517  0.4675
  878MOL0     C18428   8.860   0.183  -1.666  0.9032  0.4347  0.1917
  878MOL0     C18429   8.939   0.112  -1.759  0.3780 -0.7461 -0.0542
  878MOL0     C18430   8.895   0.089  -1.891  0.1497  0.0640 -0.5920
  878MOL0     O18431   8.967   0.009  -1.977 -0.1839 -0.8765  0.8018
  878MOL0     C18432   9.105  -0.006  -1.958 -1.1709  0.9818  0.8569
  878MOL0     C18433   9.174  -0.070  -2.083 -0.0077 -0.0863 -0.7058
  878MOL0     C18434   9.117  -0.205  -2.130  0.4960  0.3052  0.5475
  878MOL0     C18435   8.969  -0.210  -2.169 -0.8638  0.1392  0.6915
  878MOL0     C18436   8.938  -0.338  -2.248 -0.4581 -0.6244 -0.6713
  878MOL0     C18437   8.973  -0.325  -2.395  0.7135  0.1566  0.2573
  878MOL0     C18438   8.982  -0.459  -2.472 -0.1012  0.0324  0.0160
  878MOL0     C18439   9.037  -0.446  -2.616  0.5421  0.3363  0.5133
  878MOL0    Cl18440   8.943  -0.327  -2.721 -0.4066 -0.4929  0.1502
  878MOL0     C18441   8.768   0.129  -1.923 -0.4421  0.1502  0.2658
  878MOL0     C18442   8.688   0.194  -1.830  0.3344 -0.4199 -0.1874
  878MOL0     O18443   8.703   0.230  -1.401  0.8372 -0.4384  0.3867
  878MOL0     C18444   8.396   0.371  -1.476 -0.3162 -0.2374  0.1590
  878MOL0     C18445   8.291   0.440  -1.425  0.1104 -0.8456 -0.8631
  878MOL0     N18446   7.784   0.799  -0.894 -0.0820  0.9803 -0.1787
  878MOL0     N18447   7.818   0.803  -0.772 -0.2871  0.7905 -0.1748
  878MOL0     C18448   8.685   1.720  -0.141  0.5625  0.5717  0.5682
  878MOL0     C18449   8.734   1.836  -0.089 -0.1460  0.1063  0.1512
  878MOL0     C18450   8.682   2.287   0.054  0.5393 -0.1161 -0.8250
  878MOL0     C18451   8.607   2.404   0.089 -0.1376  0.4929 -0.3621
  878MOL0     C18452   8.663   2.526   0.131 -0.2414 -0.1743 -0.0046
  878MOL0     C18453   8.803   2.532   0.149 -0.0576  0.3304 -1.1887
  878MOL0     O18454   8.859   2.649   0.195 -0.1101  0.1929  0.0825
  878MOL0     C18455   9.007   2.656   0.209  0.2527 -0.3380  0.1627
  878MOL0     C18456   9.071   2.780   0.286 -0.4919 -0.1610  0.1189
  878MOL0     C18457   9.038   2.910   0.215  0.5561  0.0607  0.0486
  878MOL0     C18458   9.087   3.034   0.290  0.3078  0.9277  0.0846
  878MOL0     C18459   8.984   3.052   0.388 -1.3431  0.0617  0.1369
  878MOL0     C18460   8.911   3.072   0.480 -0.2582  0.1812  0.6110
  878MOL0     C18461   8.878   2.416   0.117 -0.2247 -0.0621 -0.6607
  878MOL0     C18462   8.821   2.299   0.074 -0.3897 -0.5165 -0.4648
  878MOL0     H18463   8.510   2.051  -0.227 -0.6249  0.0973  0.8075
  878MOL0     H18464   8.425   1.828  -0.309 -1.0136  1.5766  1.0107
  878MOL0     H18465   8.430   1.578  -0.083  0.8430  1.8138 -0.3266
  878MOL0     H18466   8.323   1.632  -0.215 -1.5369 -0.5997  1.5712
  878MOL0     H18467   8.416   1.355  -0.169  1.3229  1.4985  0.8904
  878MOL0     H18468   8.255   1.421  -0.149 -0.2196  1.1056  0.4088
  878MOL0     H18469   8.252   1.469  -0.405 -1.2753  1.4026  2.3458
  878MOL0     H18470   8.424   1.402  -0.408  0.9760  1.8021  1.8846
  878MOL0     H18471   8.330   1.189  -0.344  0.9220  1.2544  0.7147
  878MOL0     H18472   8.174   1.249  -0.306 -2.3352 -1.2826 -3.5901
  878MOL0     H18473   8.113   1.296  -0.530 -0.7982 -0.5875  3.2141
  878MOL0     H18474   8.269   1.233  -0.596 -0.5706  1.7965 -0.6337
  878MOL0     H18475   8.201   1.009  -0.501 -0.1659 -0.0867  1.6966
  878MOL0     H18476   8.054   1.075  -0.440  0.9674 -2.1059  1.0007
  878MOL0     H18477   7.996   1.123  -0.699 -0.6395  0.9955  0.8864
  878MOL0     H18478   8.142   1.026  -0.731  1.0440 -2.2026  1.6870
  878MOL0     H18479   7.915   0.908  -0.556 -0.7058  0.5008 -0.6606
  878MOL0     H18480   8.056   0.830  -0.622  1.6289  0.3605 -1.5728
  878MOL0     H18481   8.061   0.948  -0.932 -0.2453  0.4794  1.9142
  878MOL0     H18482   7.790   0.804  -1.173 -1.0448  1.7641  0.4805
  878MOL0     H18483   7.897   0.949  -1.164 -3.2080  0.8920  1.4899
  878MOL0     H18484   8.088   0.794  -1.156 -0.0690  1.1423 -0.0471
  878MOL0     H18485   7.975   0.766  -1.293  0.6154 -0.7950 -0.7205
  878MOL0     H18486   7.879   0.572  -1.144  0.5890 -4.0471 -2.0865
  878MOL0     H18487   7.999   0.603  -1.031  0.4975  1.1346 -0.1696
  878MOL0     H18488   8.023   0.469  -1.319  0.6995 -3.2283  1.1790
  878MOL0     H18489   8.064   0.409  -1.159 -2.8664 -2.3699 -2.4654
  878MOL0     H18490   8.435   0.544  -1.134 -1.8291  2.7741 -0.4943
  878MOL0     H18491   8.688   0.364  -1.176 -0.4183  0.5100  2.3162
  878MOL0     H18492   8.746   0.487  -1.280  2.5622 -2.1518  1.6466
  878MOL0     H18493   8.646   0.528  -1.129  0.8847 -0.9931  0.6302
  878MOL0     H18494   8.879   0.191  -1.559  2.3141 -1.2012  0.1156
  878MOL0     H18495   9.041   0.085  -1.733  0.9864 -2.9435 -3.9206
  878MOL0     H18496   9.155   0.086  -1.927 -2.5533  1.2687  2.3839
  878MOL0     H18497   9.120  -0.063  -1.866  1.8379  1.3194  0.6519
  878MOL0     H18498   9.157   0.003  -2.163 -3.3431 -0.7324 -0.7248
  878MOL0     H18499   9.281  -0.077  -2.062  0.2411  1.0985 -1.4561
  878MOL0     H18500   9.133  -0.270  -2.043 -1.5379 -0.0889  0.6665
  878MOL0     H18501   9.181  -0.250  -2.206 -1.1888 -1.4754  0.1086
  878MOL0     H18502   8.903  -0.209  -2.082  0.1927 -0.2023  1.5085
  878MOL0     H18503   8.933  -0.115  -2.210 -2.4971  0.2987  2.3729
  878MOL0     H18504   8.831  -0.360  -2.241 -0.5977  0.1027 -0.4595
  878MOL0     H18505   9.005  -0.412  -2.205  1.4635  0.4657 -1.6212
  878MOL0     H18506   8.905  -0.256  -2.446  2.1559  1.4097 -0.0457
  878MOL0     H18507   9.073  -0.281  -2.403 -0.0364  2.0691  0.7653
  878MOL0     H18508   8.888  -0.514  -2.474 -0.3685  0.2931  2.3730
  878MOL0     H18509   9.051  -0.525  -2.418 -1.3864 -1.4187 -0.0340
  878MOL0     H18510   9.049  -0.548  -2.652 -0.6293  0.2697  0.2616
  878MOL0     H18511   9.140  -0.409  -2.613  0.4319  0.5475  2.2072
  878MOL0     H18512   8.719   0.113  -2.019  1.6299  1.9673 -1.1834
  878MOL0     H18513   8.598   0.240  -1.870 -0.1129 -0.4934  0.6944
  878MOL0     H18514   8.385   0.323  -1.573 -3.2852  0.8364 -0.1407
  878MOL0     H18515   8.199   0.439  -1.484 -1.0367 -0.6239  0.8658
  878MOL0     H18516   8.736   1.625  -0.132  0.0123  0.0085 -1.6519
  878MOL0     H18517   8.813   1.843  -0.015  0.3996 -0.6078 -0.3594
  878MOL0     H18518   8.499   2.392   0.082 -0.1105  1.2485 -3.7974
  878MOL0     H18519   8.595   2.609   0.148 -1.9373 -0.5278 -4.0432
  878MOL0     H18520   9.030   2.566   0.266 -0.3521  0.2553  1.3937
  878MOL0     H18521   9.054   2.646   0.111 -1.2883  1.0661 -0.7703
  878MOL0     H18522   9.177   2.758   0.272 -0.8615 -1.0282 -1.4640
  878MOL0     H18523   9.058   2.784   0.395 -0.3256 -0.4473  0.1516
  878MOL0     H18524   8.931   2.926   0.196  0.6979  2.5017  0.9284
  878MOL0     H18525   9.097   2.908   0.123  1.5428 -3.6158  0.6402
  878MOL0     H18526   9.084   3.126   0.231 -2.1920  1.0726  0.3666
  878MOL0     H18527   9.187   3.015   0.331  0.8782 -0.0449 -1.6275
  878MOL0     H18528   8.834   3.091   0.552  0.1073 -0.9291  1.3154
  878MOL0     H18529   8.985   2.408   0.132 -0.2082  0.9758 -0.1806
  878MOL0     H18530   8.884   2.212   0.059  1.2167  0.0763  2.2467
  879MOL0     O18531   3.166   9.719  10.314 -0.0109 -0.2235 -0.6539
  879MOL0     C18532   3.171   9.667  10.202 -0.0021 -0.4506 -0.4285
  879MOL0     O18533   3.101   9.706  10.090 -0.0294 -0.4297 -0.3654
  879MOL0     C18534   3.000   9.798  10.095  0.3471  0.2647  0.3973
  879MOL0     C18535   2.920   9.836  10.205 -0.0921  0.2757  0.3512
  879MOL0     C18536   2.812   9.928  10.192  0.5766  0.2206 -0.4245
  879MOL0     C18537   2.777   9.966  10.063  0.0005  0.0675  0.5041
  879MOL0     O18538   2.677  10.052  10.045  0.3454  0.8770  0.3782
  879MOL0     C18539   2.573  10.023   9.948 -0.5176  0.1638  0.8281
  879MOL0     C18540   2.473  10.136   9.975 -0.3179 -1.1717 -0.1861
  879MOL0     C18541   2.379  10.111  10.093 -0.2395 -0.2735 -0.4284
  879MOL0     C18542   2.258  10.209  10.101  0.1169  0.5129 -0.5713
  879MOL0     C18543   2.154  10.169  10.210  0.0797  0.4066 -0.5220
  879MOL0     C18544   2.050  10.269  10.227 -0.3553  0.5510 -0.0863
  879MOL0     C18545   1.971  10.259  10.359 -0.1640  0.1464  0.1517
  879MOL0     C18546   1.904  10.126  10.397 -0.5575  0.1767 -0.6753
  879MOL0     N18547   1.819  10.159  10.512 -1.7181  0.4046  0.2961
  879MOL0     C18548   1.854  10.201  10.644 -0.5019  0.7048 -0.0285
  879MOL0     C18549   1.740  10.234  10.702 -0.0079 -0.3898 -1.1163
  879MOL0     C18550   1.731  10.275  10.845  0.5520 -0.8302 -0.6864
  879MOL0     C18551   1.589  10.327  10.891  0.2644 -0.2132  0.0432
  879MOL0     C18552   1.535  10.254  11.003  0.8069  1.3998 -1.0309
  879MOL0     C18553   1.435  10.342  11.082  0.0921  0.6356  0.4154
  879MOL0     O18554   1.516  10.428  11.155 -0.0631 -0.3553  0.1586
  879MOL0     C18555   1.471  10.553  11.178  0.5445 -0.0535 -0.5356
  879MOL0     C18556   1.548  10.664  11.133 -0.4811  0.1105  0.5604
  879MOL0     C18557   1.526  10.795  11.189 -0.0288  0.6228 -0.0563
  879MOL0     C18558   1.632  10.892  11.165  0.4275 -0.4469  0.3552
  879MOL0     C18559   1.404  10.827  11.260 -0.3034 -1.0091 -0.3579
  879MOL0     C18560   1.360  10.968  11.293 -0.7714  0.4347  0.0064
  879MOL0     O18561   1.244  10.978  11.356  0.1914  0.0894 -0.3797
  879MOL0     C18562   1.155  11.084  11.343  0.2657 -0.4326  0.0529
  879MOL0     C18563   1.057  11.081  11.441  0.0686  1.0507 -0.2823
  879MOL0     C18564   0.972  11.195  11.453 -0.1637  0.0288 -0.9038
  879MOL0     C18565   0.975  11.302  11.361  0.1549 -0.0190  0.9906
  879MOL0     O18566   0.905  11.414  11.386  0.3950  0.4455  0.4045
  879MOL0     C18567   0.950  11.537  11.327 -0.1451 -0.0932  0.4580
  879MOL0     C18568   0.869  11.639  11.410 -0.4491 -0.7533  0.2927
  879MOL0     C18569   0.912  11.783  11.376  0.1920 -0.1391  0.4180
  879MOL0     C18570   0.857  11.875  11.481 -0.6555  0.5716  0.0825
  879MOL0     C18571   0.870  12.016  11.441 -0.3318  0.2373 -0.5093
  879MOL0     C18572   1.010  12.080  11.435 -0.3233 -0.0436 -0.1324
  879MOL0     C18573   1.117  12.043  11.541  0.3950 -0.0371 -0.6552
  879MOL0     C18574   1.257  12.094  11.505  0.0014  0.0544  0.1343
  879MOL0    Cl18575   1.299  12.028  11.343  0.0860 -0.2139 -0.1203
  879MOL0     C18576   1.062  11.287  11.249  0.2725  0.6067  0.0068
  879MOL0     C18577   1.157  11.183  11.246  0.6122 -1.0512  0.1979
  879MOL0     O18578   1.432  11.059  11.256  0.9537  0.4043  0.0213
  879MOL0     C18579   1.318  10.719  11.289 -0.2040  0.0733  0.5391
  879MOL0     C18580   1.353  10.588  11.259 -0.5248  0.5228 -0.0203
  879MOL0     N18581   1.642  10.218  10.612  0.2754 -0.0924  1.3361
  879MOL0     N18582   1.688  10.163  10.501  0.2020 -0.4248 -0.3206
  879MOL0     C18583   2.846   9.914   9.952 -0.1609  0.4088 -0.1528
  879MOL0     C18584   2.954   9.831   9.971  0.1740 -0.7006  1.7963
  879MOL0     C18585   3.267   9.558  10.179  0.2571 -0.1291  0.3971
  879MOL0     C18586   3.342   9.499  10.286  0.3542 -0.6446  0.4872
  879MOL0     C18587   3.436   9.402  10.264  0.5703  0.3608 -0.0974
  879MOL0     C18588   3.474   9.360  10.132 -0.1354  0.3225 -0.3071
  879MOL0     O18589   3.559   9.261  10.105 -0.5859 -0.1489  0.6415
  879MOL0     C18590   3.580   9.162  10.203 -0.1119  0.4675 -0.1177
  879MOL0     C18591   3.710   9.184  10.288  0.5041 -0.4240 -0.7873
  879MOL0     C18592   3.724   9.114  10.420  1.7634  0.7701  0.0504
  879MOL0     C18593   3.676   9.176  10.545  0.2933 -0.5522  0.2540
  879MOL0     C18594   3.662   9.090  10.661 -1.6126  0.2232 -0.4185
  879MOL0     C18595   3.648   9.008  10.751 -0.8921 -1.4413 -0.2868
  879MOL0     C18596   3.401   9.426  10.032  0.0989 -0.1792  0.3581
  879MOL0     C18597   3.301   9.521  10.044 -0.1039 -0.0029 -0.8648
  879MOL0     H18598   2.950   9.803  10.304  2.1953  3.0227  0.6982
  879MOL0     H18599   2.765   9.973  10.278 -0.8240  1.5193 -1.8143
  879MOL0     H18600   2.624  10.036   9.853  1.2628 -3.5310  1.1056
  879MOL0     H18601   2.537   9.919   9.947  0.0966 -0.0564  0.7956
  879MOL0     H18602   2.525  10.232   9.984  0.2673 -1.4693 -0.3684
  879MOL0     H18603   2.415  10.146   9.883  1.7138  1.7802 -1.2905
  879MOL0     H18604   2.349  10.006  10.084 -0.4523 -0.0602 -3.1326
  879MOL0     H18605   2.433  10.130  10.186 -3.2111  1.6303  1.0549
  879MOL0     H18606   2.283  10.314  10.121 -2.2286  0.4043  4.6132
  879MOL0     H18607   2.210  10.197  10.004 -0.1206  0.3701 -0.4368
  879MOL0     H18608   2.105  10.075  10.183 -3.5439  2.1559 -0.6657
  879MOL0     H18609   2.191  10.150  10.311 -2.0377  2.3225  0.7102
  879MOL0     H18610   2.087  10.371  10.226 -0.7638  0.7000 -0.2673
  879MOL0     H18611   1.985  10.262  10.140  0.3120 -0.1581 -0.5390
  879MOL0     H18612   2.037  10.291  10.441 -1.3809  0.3938  1.0559
  879MOL0     H18613   1.893  10.335  10.354 -2.5122 -1.9941  1.9730
  879MOL0     H18614   1.975  10.052  10.434  0.8356  1.9896  0.4207
  879MOL0     H18615   1.845  10.086  10.313 -1.2853  0.9157 -0.5318
  879MOL0     H18616   1.958  10.207  10.674  0.2935  3.9265 -2.8111
  879MOL0     H18617   1.759  10.182  10.896  1.2327 -1.5002 -2.2407
  879MOL0     H18618   1.802  10.355  10.865 -1.6436  0.7524  1.3069
  879MOL0     H18619   1.513  10.339  10.813  0.2153  0.2922  0.1652
  879MOL0     H18620   1.600  10.428  10.933 -0.4790  0.0606 -0.4015
  879MOL0     H18621   1.613  10.221  11.072 -2.2466 -0.1607  1.9714
  879MOL0     H18622   1.493  10.160  10.967 -0.5066  1.0676  1.1768
  879MOL0     H18623   1.370  10.283  11.147  2.6493 -0.0053  2.6154
  879MOL0     H18624   1.370  10.386  11.006  1.8567  1.8528 -0.4477
  879MOL0     H18625   1.641  10.631  11.088 -2.2773  0.1195 -3.5140
  879MOL0     H18626   1.601  10.978  11.105  0.4320 -0.1470  0.7829
  879MOL0     H18627   1.649  10.927  11.267  1.8867 -2.2698  0.8069
  879MOL0     H18628   1.716  10.838  11.121  0.0781 -0.3275 -0.4821
  879MOL0     H18629   1.056  11.007  11.521  1.0663  0.2466 -0.9922
  879MOL0     H18630   0.910  11.231  11.535 -0.0806  0.7634 -1.1564
  879MOL0     H18631   1.059  11.543  11.335 -0.1441 -0.5606  0.8887
  879MOL0     H18632   0.928  11.542  11.220  0.6390 -0.1210  0.2880
  879MOL0     H18633   0.764  11.628  11.384 -0.4791 -2.9943  1.1005
  879MOL0     H18634   0.864  11.610  11.515 -3.0902 -0.6639  0.2492
  879MOL0     H18635   0.865  11.814  11.283 -2.8424 -2.0988  1.1737
  879MOL0     H18636   1.021  11.774  11.364  0.3942 -1.1765  2.4986
  879MOL0     H18637   0.749  11.856  11.488 -0.9827  0.8042 -2.8150
  879MOL0     H18638   0.896  11.847  11.579  1.4886 -0.4068 -0.9798
  879MOL0     H18639   0.810  12.075  11.511 -1.8027 -1.7617  0.0054
  879MOL0     H18640   0.821  12.020  11.343 -3.3719 -0.8122  0.8474
  879MOL0     H18641   1.051  12.052  11.338  1.8414  4.1555 -0.6668
  879MOL0     H18642   0.988  12.187  11.438  1.6839  0.4446 -1.1295
  879MOL0     H18643   1.121  11.935  11.559  2.5753  0.3911  2.1841
  879MOL0     H18644   1.089  12.085  11.638 -0.9963 -2.6924  0.1966
  879MOL0     H18645   1.330  12.053  11.576  0.2920  2.7546  1.5575
  879MOL0     H18646   1.262  12.203  11.511  0.6674 -0.0028  0.8627
  879MOL0     H18647   1.065  11.364  11.172  1.0179  0.6263  0.0501
  879MOL0     H18648   1.234  11.188  11.170 -0.5228 -0.2054 -0.9334
  879MOL0     H18649   1.218  10.730  11.329 -0.1012 -0.4637  0.9552
  879MOL0     H18650   1.295  10.509  11.306 -0.6361  0.7749  0.2677
  879MOL0     H18651   2.812   9.941   9.853 -2.6726  0.0410  0.5343
  879MOL0     H18652   3.012   9.793   9.887  1.3985  3.6983  0.3760
  879MOL0     H18653   3.319   9.523  10.389  2.5949 -1.0515  1.1290
  879MOL0     H18654   3.491   9.349  10.342  4.3367 -1.3474 -3.5354
  879MOL0     H18655   3.496   9.134  10.266  1.9319  0.5346  2.8708
  879MOL0     H18656   3.598   9.076  10.138 -0.4898  0.0103  0.3724
  879MOL0     H18657   3.705   9.292  10.308  0.3740 -0.5106 -0.3494
  879MOL0     H18658   3.796   9.166  10.222 -0.8257 -1.7202 -2.2372
  879MOL0     H18659   3.832   9.095  10.423  2.0909  1.7424 -2.6233
  879MOL0     H18660   3.680   9.015  10.405  2.0254  0.6268  0.2067
  879MOL0     H18661   3.574   9.214  10.536  1.2748  2.3909  0.3297
  879MOL0     H18662   3.727   9.267  10.580 -0.4298 -0.3496  0.7892
  879MOL0     H18663   3.637   8.934  10.828 -0.3733 -1.1354  0.0784
  879MOL0     H18664   3.424   9.387   9.934  1.7739 -2.2062  1.4870
  879MOL0     H18665   3.249   9.558   9.956  0.7565 -1.1741 -1.9042
  880MOL0     O18666   3.969   1.564   1.941  0.1583  0.4563 -0.0721
  880MOL0     C18667   3.859   1.570   1.885  0.6965  0.0421  0.4825
  880MOL0     O18668   3.816   1.656   1.778  1.1891  0.1137 -0.2213
  880MOL0     C18669   3.913   1.729   1.713  1.0178  0.1314 -0.5527
  880MOL0     C18670   3.994   1.816   1.776 -0.2787  0.4975  0.1294
  880MOL0     C18671   4.100   1.869   1.715 -0.2430 -0.2961 -0.7793
  880MOL0     C18672   4.137   1.847   1.585 -0.1007  0.2755  0.4122
  880MOL0     O18673   4.251   1.913   1.547  0.4431  0.3618 -0.0962
  880MOL0     C18674   4.322   1.871   1.429  0.0078  0.6943 -0.5185
  880MOL0     C18675   4.436   1.978   1.412  0.5386 -0.2150 -0.3606
  880MOL0     C18676   4.537   1.969   1.533  0.6038 -0.2990 -0.1399
  880MOL0     C18677   4.664   2.061   1.511 -0.0190  0.0475  0.5847
  880MOL0     C18678   4.750   2.055   1.636  0.1480  0.3802 -0.3441
  880MOL0     C18679   4.782   1.913   1.688 -0.2788  0.1330 -0.4906
  880MOL0     C18680   4.904   1.916   1.779  0.9803 -0.1750 -0.6381
  880MOL0     C18681   4.983   1.782   1.802  1.3171 -0.1945  0.8097
  880MOL0     N18682   5.021   1.714   1.680  0.0200 -0.5723 -0.1051
  880MOL0     C18683   5.103   1.758   1.575 -0.2145 -0.7982 -0.6184
  880MOL0     C18684   5.116   1.648   1.497 -0.1484  0.0563  1.1182
  880MOL0     C18685   5.224   1.629   1.398 -0.4052 -1.3486 -0.0037
  880MOL0     C18686   5.186   1.532   1.287  0.2417  0.8869  0.1370
  880MOL0     C18687   5.112   1.590   1.160 -0.8699  0.0356  0.5856
  880MOL0     C18688   4.961   1.593   1.183  0.5084  0.1397 -0.3561
  880MOL0     O18689   4.908   1.682   1.086 -0.5490 -1.1288 -0.4146
  880MOL0     C18690   4.776   1.710   1.080  1.3180  0.1355 -1.1258
  880MOL0     C18691   4.715   1.776   0.968 -0.4933 -0.2142  0.0803
  880MOL0     C18692   4.572   1.785   0.962  0.2188  0.0059  0.9269
  880MOL0     C18693   4.522   1.855   0.837  1.0743 -0.4361  0.1076
  880MOL0     C18694   4.484   1.750   1.071  0.1749  0.1374 -1.3700
  880MOL0     C18695   4.333   1.757   1.067  0.3591 -0.3914  0.1107
  880MOL0     O18696   4.269   1.798   0.949  0.4592 -0.3161  0.5080
  880MOL0     C18697   4.134   1.822   0.956 -0.2189 -0.3053  1.1403
  880MOL0     C18698   4.094   1.956   0.978 -0.2788 -0.5126  0.7333
  880MOL0     C18699   3.954   1.982   0.972 -0.2772 -0.4531  0.0500
  880MOL0     C18700   3.867   1.880   0.944  1.2442 -0.9763  0.2360
  880MOL0     O18701   3.731   1.907   0.924  0.4018  0.0168  0.5395
  880MOL0     C18702   3.650   1.845   1.026 -0.2889  0.2676  0.2335
  880MOL0     C18703   3.518   1.811   0.965  1.0065  1.0216 -0.2161
  880MOL0     C18704   3.473   1.687   1.040  0.4434 -0.0913 -0.3246
  880MOL0     C18705   3.339   1.632   0.998 -0.2999  0.2151 -0.8853
  880MOL0     C18706   3.207   1.709   1.009 -0.3896 -0.3368 -0.1385
  880MOL0     C18707   3.149   1.733   0.869  0.0519  0.1337  0.0335
  880MOL0     C18708   3.021   1.827   0.876 -0.1678 -0.7819  0.0305
  880MOL0     C18709   2.922   1.787   0.759  0.7619  0.1484 -0.1551
  880MOL0    Cl18710   2.991   1.822   0.596 -0.2559 -0.2326 -0.3511
  880MOL0     C18711   3.909   1.752   0.936  0.0802  0.2062 -0.5741
  880MOL0     C18712   4.040   1.726   0.948  0.4558 -0.6347 -0.1058
  880MOL0     O18713   4.271   1.720   1.165  0.6048 -0.9529 -0.0032
  880MOL0     C18714   4.550   1.693   1.181 -0.9720 -0.3718 -0.3767
  880MOL0     C18715   4.689   1.674   1.188  1.3165  0.5924  0.3133
  880MOL0     N18716   5.041   1.545   1.553  0.2893  0.4031  0.1929
  880MOL0     N18717   4.981   1.592   1.656 -0.2042  0.4666  0.8377
  880MOL0     C18718   4.053   1.766   1.519  0.2731  0.6532 -0.0205
  880MOL0     C18719   3.932   1.707   1.573 -0.2964  0.0431  0.2770
  880MOL0     C18720   3.750   1.479   1.939 -0.4047 -0.8505  0.3044
  880MOL0     C18721   3.628   1.478   1.882  0.3781  0.0797  0.8770
  880MOL0     C18722   3.526   1.394   1.931 -0.2197  0.1448 -0.1086
  880MOL0     C18723   3.537   1.323   2.052  0.9453 -1.0485  0.1764
  880MOL0     O18724   3.448   1.243   2.121 -0.7343  1.0768  0.8260
  880MOL0     C18725   3.311   1.241   2.070 -0.3815 -0.6461  0.0035
  880MOL0     C18726   3.243   1.375   2.102  0.5391  0.1286  0.4099
  880MOL0     C18727   3.236   1.388   2.255 -0.2434  0.4652 -0.4246
  880MOL0     C18728   3.162   1.519   2.293  0.5990 -0.8626 -0.5995
  880MOL0     C18729   3.094   1.504   2.426  0.4847 -0.1725  0.4443
  880MOL0     C18730   3.052   1.484   2.533  0.4148 -0.3335  0.3657
  880MOL0     C18731   3.664   1.341   2.114  0.2660  0.5319 -0.6359
  880MOL0     C18732   3.769   1.417   2.059  0.0372  0.3209 -0.8909
  880MOL0     H18733   3.983   1.834   1.882 -2.4471 -0.3401  0.0975
  880MOL0     H18734   4.160   1.943   1.768 -0.5174  0.3700 -1.3860
  880MOL0     H18735   4.357   1.770   1.453 -1.5611  0.9794  3.7744
  880MOL0     H18736   4.255   1.881   1.343 -3.2364  0.7265  1.8592
  880MOL0     H18737   4.478   1.944   1.317  1.8170 -0.9784  0.4505
  880MOL0     H18738   4.397   2.081   1.409  2.2898  0.5173  0.7901
  880MOL0     H18739   4.492   1.999   1.628  3.4829 -1.3554  1.6776
  880MOL0     H18740   4.570   1.865   1.538 -2.6901 -1.6099 -2.4628
  880MOL0     H18741   4.716   2.021   1.423 -0.3408  0.1171  0.3602
  880MOL0     H18742   4.628   2.163   1.489 -2.7401 -1.0879 -0.7723
  880MOL0     H18743   4.842   2.112   1.617  1.6082 -1.5218  0.6027
  880MOL0     H18744   4.697   2.100   1.720 -1.6691 -1.1907 -0.5801
  880MOL0     H18745   4.705   1.859   1.744 -2.0231 -0.0233 -2.8495
  880MOL0     H18746   4.804   1.848   1.602  0.4124  0.7831 -0.8218
  880MOL0     H18747   4.980   1.988   1.749 -1.1636  1.8237 -1.5654
  880MOL0     H18748   4.864   1.948   1.876 -0.6679  0.7013 -1.5594
  880MOL0     H18749   4.915   1.718   1.859  1.7013 -0.3308  1.1208
  880MOL0     H18750   5.071   1.794   1.865  0.4934 -0.0349  1.9693
  880MOL0     H18751   5.171   1.842   1.568  1.0205 -1.4348  2.1509
  880MOL0     H18752   5.251   1.728   1.361 -0.2581 -0.8974  1.2652
  880MOL0     H18753   5.317   1.596   1.445  0.8345  0.7783 -0.8220
  880MOL0     H18754   5.130   1.449   1.331  1.5021  0.4670  0.9987
  880MOL0     H18755   5.271   1.479   1.243 -0.9576 -0.9624 -0.0579
  880MOL0     H18756   5.138   1.536   1.068  0.2947  3.5165 -1.3156
  880MOL0     H18757   5.147   1.688   1.125  1.4557 -0.6496  0.8063
  880MOL0     H18758   4.945   1.622   1.288 -1.5253 -1.5656 -0.1309
  880MOL0     H18759   4.919   1.492   1.180  2.5510 -0.8928  2.0216
  880MOL0     H18760   4.774   1.810   0.883 -0.8847  2.7093  0.8565
  880MOL0     H18761   4.456   1.940   0.853  0.2928 -0.8705 -0.7569
  880MOL0     H18762   4.601   1.894   0.772 -0.8180 -1.4839 -3.0604
  880MOL0     H18763   4.467   1.777   0.784 -1.8002 -0.2568  2.5916
  880MOL0     H18764   4.155   2.045   0.994  2.5028 -1.9886 -0.9945
  880MOL0     H18765   3.916   2.084   0.982 -3.3383 -1.5513  0.4705
  880MOL0     H18766   3.703   1.755   1.058  0.2541  0.0013 -1.3245
  880MOL0     H18767   3.642   1.914   1.110 -3.2204  1.8460 -1.1882
  880MOL0     H18768   3.450   1.895   0.979 -1.8363 -0.9823 -1.0718
  880MOL0     H18769   3.530   1.784   0.860 -0.2426  0.4643 -0.2292
  880MOL0     H18770   3.471   1.711   1.147  0.6695  0.8390 -0.5192
  880MOL0     H18771   3.552   1.616   1.013  2.5295  1.5815  1.0538
  880MOL0     H18772   3.345   1.599   0.894  2.0897  1.5365 -1.2275
  880MOL0     H18773   3.334   1.539   1.056  1.4610  1.6492  1.8109
  880MOL0     H18774   3.224   1.801   1.066  2.1406  0.0522 -1.3979
  880MOL0     H18775   3.130   1.647   1.056 -1.1277 -0.7864 -1.8850
  880MOL0     H18776   3.229   1.780   0.811 -0.6317 -0.3659 -1.3576
  880MOL0     H18777   3.123   1.637   0.825  0.2604  0.1926 -0.2153
  880MOL0     H18778   3.054   1.931   0.878 -0.8678 -0.5215 -0.9805
  880MOL0     H18779   2.967   1.811   0.970  0.2188  3.7742  1.2548
  880MOL0     H18780   2.827   1.841   0.771  1.1081  0.2350  3.1803
  880MOL0     H18781   2.901   1.680   0.756 -3.3035  0.7953 -1.1754
  880MOL0     H18782   3.847   1.668   0.906  1.3595 -1.8525  2.0374
  880MOL0     H18783   4.072   1.623   0.947 -1.3249 -1.2214  0.1646
  880MOL0     H18784   4.479   1.663   1.258  0.5249 -2.7425  0.1931
  880MOL0     H18785   4.726   1.619   1.275 -0.6209 -1.3029  0.0324
  880MOL0     H18786   4.082   1.728   1.422 -0.9535 -1.3194  0.3500
  880MOL0     H18787   3.862   1.640   1.525  0.0343  0.1560 -0.3701
  880MOL0     H18788   3.598   1.539   1.798 -0.9949 -3.6670 -1.6342
  880MOL0     H18789   3.440   1.389   1.864  0.2715 -0.4272 -0.7142
  880MOL0     H18790   3.311   1.210   1.965  0.8170  1.1061 -0.5458
  880MOL0     H18791   3.263   1.155   2.118 -1.3819 -0.9836 -1.5473
  880MOL0     H18792   3.142   1.378   2.060  1.1987  1.7429 -1.1530
  880MOL0     H18793   3.302   1.453   2.054 -0.7643 -0.1850 -1.8341
  880MOL0     H18794   3.334   1.394   2.304 -0.1663 -1.7279 -0.2025
  880MOL0     H18795   3.178   1.299   2.282  0.0068 -0.3538 -2.4399
  880MOL0     H18796   3.087   1.540   2.217  0.3682 -2.3958 -0.8345
  880MOL0     H18797   3.233   1.601   2.284  0.9781 -1.3182 -1.8870
  880MOL0     H18798   2.998   1.471   2.624 -0.1040 -0.6194  0.0217
  880MOL0     H18799   3.690   1.294   2.208  0.8664  2.5731  0.2773
  880MOL0     H18800   3.868   1.416   2.104 -0.2986 -0.2166 -0.1389
  881MOL0     O18801   5.938   5.936   8.862  0.6769 -0.0158 -0.2642
  881MOL0     C18802   5.989   5.930   8.746 -0.2593 -0.7185 -0.0760
  881MOL0     O18803   6.100   5.997   8.705  0.5990 -0.1465  0.3196
  881MOL0     C18804   6.154   6.098   8.775  0.4315  0.5892 -0.2597
  881MOL0     C18805   6.084   6.220   8.783 -0.1998 -0.7619  1.1777
  881MOL0     C18806   6.131   6.332   8.854 -0.6900  0.0460 -0.3933
  881MOL0     C18807   6.258   6.312   8.910  0.2805 -0.4750 -0.1681
  881MOL0     O18808   6.314   6.434   8.959  0.5013 -0.2972 -0.3988
  881MOL0     C18809   6.455   6.445   8.985  0.5889  1.0277 -0.6230
  881MOL0     C18810   6.502   6.591   9.026 -0.2974  0.0461  0.6856
  881MOL0     C18811   6.428   6.707   8.958  0.9973  0.3439 -0.2216
  881MOL0     C18812   6.511   6.833   8.970 -0.3311  0.7386 -1.3541
  881MOL0     C18813   6.433   6.951   8.935  0.4456  0.9080 -0.0519
  881MOL0     C18814   6.508   7.086   8.928 -0.1485 -0.0713 -0.9439
  881MOL0     C18815   6.616   7.103   9.032  0.1435 -0.2705 -0.6264
  881MOL0     C18816   6.699   7.231   9.027  0.2963 -0.7068  0.4767
  881MOL0     N18817   6.800   7.224   9.127  0.0073 -0.1724 -0.4603
  881MOL0     C18818   6.911   7.157   9.109 -0.7918  0.8886 -0.5061
  881MOL0     C18819   6.988   7.197   9.220  0.2898 -0.1055  0.5736
  881MOL0     C18820   7.125   7.180   9.257 -0.4028  0.5241 -0.5674
  881MOL0     C18821   7.143   7.105   9.389  0.5330 -0.1853 -0.1886
  881MOL0     C18822   7.132   7.192   9.512  0.6125 -1.0101  0.3536
  881MOL0     C18823   7.230   7.306   9.529 -0.3770  0.0249  0.1733
  881MOL0     O18824   7.362   7.255   9.474  0.5509  0.5782 -0.0234
  881MOL0     C18825   7.445   7.171   9.536 -0.2137  0.0385 -0.4052
  881MOL0     C18826   7.417   7.115   9.664 -0.2765  0.0613 -0.5047
  881MOL0     C18827   7.490   7.006   9.707 -0.5956 -0.6444 -1.0274
  881MOL0     C18828   7.440   6.941   9.831  0.0213  1.0328  0.5926
  881MOL0     C18829   7.609   6.965   9.634  0.4190 -0.3373 -0.6243
  881MOL0     C18830   7.691   6.847   9.665  0.1681  0.8716 -0.2503
  881MOL0     O18831   7.789   6.823   9.581 -0.1524 -0.4658 -0.2931
  881MOL0     C18832   7.876   6.720   9.589 -1.1195  0.7725  0.3845
  881MOL0     C18833   7.839   6.592   9.620  0.2035  0.4870  0.1291
  881MOL0     C18834   7.932   6.492   9.612 -0.3477 -0.1369 -0.3699
  881MOL0     C18835   8.061   6.505   9.557 -1.1490  0.3231  0.2098
  881MOL0     O18836   8.139   6.391   9.576  0.2182 -0.5822  0.6896
  881MOL0     C18837   8.278   6.423   9.610  0.4042 -1.0752 -0.2384
  881MOL0     C18838   8.368   6.300   9.617 -0.6926  0.3170 -0.0915
  881MOL0     C18839   8.321   6.184   9.705  0.4076 -0.4992 -0.3491
  881MOL0     C18840   8.221   6.090   9.651  0.0976 -0.7637  0.5429
  881MOL0     C18841   8.164   5.993   9.760 -0.2851  0.8154  1.8282
  881MOL0     C18842   8.274   5.884   9.798  0.3556  0.1761 -0.1036
  881MOL0     C18843   8.256   5.840   9.941 -0.4401  0.6677  0.0169
  881MOL0     C18844   8.287   5.696   9.978  0.6738 -0.5604 -0.1789
  881MOL0    Cl18845   8.467   5.685  10.015 -0.1689 -0.3565  0.0702
  881MOL0     C18846   8.097   6.637   9.519 -0.8364 -0.5142  0.5121
  881MOL0     C18847   8.000   6.735   9.525 -0.6665 -0.1671  0.2566
  881MOL0     O18848   7.662   6.772   9.756 -0.2539  0.7067  0.1873
  881MOL0     C18849   7.640   7.039   9.511  0.0416  0.9716  0.3465
  881MOL0     C18850   7.548   7.137   9.464 -0.1078  0.4232  0.4072
  881MOL0     N18851   6.906   7.282   9.294 -0.5540 -0.0355 -0.0980
  881MOL0     N18852   6.799   7.288   9.245  0.0374 -0.6858  0.4057
  881MOL0     C18853   6.327   6.190   8.902 -0.9252  0.3107  0.4575
  881MOL0     C18854   6.277   6.085   8.836 -0.2295 -0.1761 -0.4037
  881MOL0     C18855   5.904   5.852   8.640  0.0491  0.2108 -0.5799
  881MOL0     C18856   5.941   5.875   8.509 -0.7760 -0.0653 -0.4311
  881MOL0     C18857   5.852   5.835   8.408 -0.5210 -0.4941 -0.6494
  881MOL0     C18858   5.729   5.772   8.437  0.2095  0.7950 -0.1384
  881MOL0     O18859   5.631   5.746   8.347  0.5913  0.1793 -0.0578
  881MOL0     C18860   5.512   5.822   8.346  0.3577 -0.3370 -0.7512
  881MOL0     C18861   5.402   5.728   8.311  1.3439  0.0005  0.5123
  881MOL0     C18862   5.273   5.805   8.279 -0.2776 -0.1262  0.1146
  881MOL0     C18863   5.170   5.702   8.274 -0.2695  1.0631  0.7181
  881MOL0     C18864   5.053   5.773   8.223 -0.3291 -0.4200 -0.1715
  881MOL0     C18865   4.950   5.824   8.185 -0.1607 -0.0948  0.4913
  881MOL0     C18866   5.699   5.745   8.569  0.2312  0.8552 -0.3278
  881MOL0     C18867   5.787   5.775   8.672  0.2799  0.7973 -0.0300
  881MOL0     H18868   5.987   6.232   8.735  0.0039  2.1899  1.3643
  881MOL0     H18869   6.078   6.426   8.859  1.2301  1.3510 -2.6238
  881MOL0     H18870   6.471   6.373   9.065 -1.1011  0.4618 -0.7514
  881MOL0     H18871   6.508   6.414   8.895 -1.1043 -2.4907 -0.5540
  881MOL0     H18872   6.474   6.617   9.129 -0.9921 -0.1084  0.5356
  881MOL0     H18873   6.611   6.593   9.014 -0.3659  2.4798 -0.0776
  881MOL0     H18874   6.411   6.676   8.855  0.8320  1.9744 -0.7173
  881MOL0     H18875   6.333   6.724   9.009  0.6563 -0.6038 -0.5299
  881MOL0     H18876   6.554   6.837   9.070 -1.9796 -2.6931 -0.3407
  881MOL0     H18877   6.591   6.819   8.897 -1.2336 -0.5419 -2.1487
  881MOL0     H18878   6.367   6.920   8.854  2.3446  0.0970 -1.3434
  881MOL0     H18879   6.361   6.978   9.014  0.6615  2.4906 -0.3540
  881MOL0     H18880   6.544   7.085   8.825 -0.1679 -2.4218 -0.9948
  881MOL0     H18881   6.437   7.167   8.946 -0.2532 -0.4395  0.4000
  881MOL0     H18882   6.579   7.092   9.135 -3.9766  5.1564 -1.0220
  881MOL0     H18883   6.683   7.019   9.011  1.8518  0.4682  1.5052
  881MOL0     H18884   6.622   7.307   9.045 -1.0789 -2.0692  0.5364
  881MOL0     H18885   6.749   7.237   8.930  1.9948 -0.7076  1.3194
  881MOL0     H18886   6.939   7.084   9.034 -1.3783 -0.6044  0.6773
  881MOL0     H18887   7.186   7.120   9.187 -0.2090 -2.5099  1.9847
  881MOL0     H18888   7.174   7.278   9.255  1.1980 -0.2422 -1.6209
  881MOL0     H18889   7.232   7.042   9.391  1.2034  0.3809 -3.8886
  881MOL0     H18890   7.061   7.032   9.393 -0.9812  1.4895  1.3000
  881MOL0     H18891   7.123   7.122   9.595 -0.8848 -3.1473 -1.4853
  881MOL0     H18892   7.034   7.240   9.506  0.9926 -0.3207 -0.6368
  881MOL0     H18893   7.244   7.327   9.636 -0.1573 -1.7090  0.5171
  881MOL0     H18894   7.193   7.393   9.475 -1.9021 -0.4911  0.3357
  881MOL0     H18895   7.327   7.143   9.717  0.5029 -3.4455  3.2213
  881MOL0     H18896   7.411   6.843   9.791  1.2271  0.7276  0.4405
  881MOL0     H18897   7.516   6.930   9.908  0.0888 -0.7440  0.3191
  881MOL0     H18898   7.350   6.989   9.871 -0.7112  4.1583 -4.0205
  881MOL0     H18899   7.738   6.560   9.644  1.1550 -1.7440  1.4089
  881MOL0     H18900   7.907   6.396   9.656 -2.7611 -0.3064 -1.9605
  881MOL0     H18901   8.323   6.492   9.537 -2.7016 -0.3351 -1.6283
  881MOL0     H18902   8.286   6.456   9.714  0.1652  0.3426 -0.6377
  881MOL0     H18903   8.387   6.281   9.511  1.3051  3.4991 -0.4280
  881MOL0     H18904   8.472   6.320   9.644  0.1983 -2.4972 -1.1117
  881MOL0     H18905   8.268   6.230   9.789  1.4904  2.5882 -1.2389
  881MOL0     H18906   8.416   6.145   9.742  2.4300  1.7074 -2.7977
  881MOL0     H18907   8.149   6.145   9.590  0.4994 -0.9992 -0.1649
  881MOL0     H18908   8.270   6.027   9.575 -2.3215 -1.9665 -0.1050
  881MOL0     H18909   8.071   5.951   9.722 -0.0943  3.2575 -1.8224
  881MOL0     H18910   8.136   6.052   9.847 -1.1408  4.4849 -0.7260
  881MOL0     H18911   8.277   5.797   9.732 -0.0796  0.7686 -0.9312
  881MOL0     H18912   8.370   5.936   9.785  1.7459 -2.7698 -3.0440
  881MOL0     H18913   8.152   5.854   9.974  0.2152 -1.3017  3.4163
  881MOL0     H18914   8.310   5.913  10.002  1.3155 -1.1275  0.7099
  881MOL0     H18915   8.246   5.628   9.902 -0.7320  2.2416 -2.1104
  881MOL0     H18916   8.238   5.679  10.074  1.1096  0.4464  0.2315
  881MOL0     H18917   8.196   6.639   9.475  0.5679 -1.6062  3.3643
  881MOL0     H18918   8.018   6.832   9.482  3.0532 -1.8308 -2.4797
  881MOL0     H18919   7.722   7.018   9.444 -1.7536  0.3788 -1.7574
  881MOL0     H18920   7.567   7.189   9.371  1.1235 -1.5972 -0.5565
  881MOL0     H18921   6.427   6.181   8.945 -1.7497 -2.5469  2.0768
  881MOL0     H18922   6.338   5.996   8.823  1.3278  0.9989 -1.5638
  881MOL0     H18923   6.027   5.936   8.483 -1.1689  0.9353  0.5521
  881MOL0     H18924   5.885   5.863   8.309  0.1090  2.8549  0.4022
  881MOL0     H18925   5.495   5.853   8.449 -0.6726 -4.1183  0.3740
  881MOL0     H18926   5.529   5.910   8.284  0.1183  0.6014  0.4794
  881MOL0     H18927   5.377   5.653   8.387  0.0612 -0.3652 -0.2431
  881MOL0     H18928   5.437   5.676   8.221  0.2398  1.5429 -0.8682
  881MOL0     H18929   5.290   5.854   8.182  2.8181  1.2859  1.2367
  881MOL0     H18930   5.265   5.885   8.353 -1.6714  0.7553 -0.9506
  881MOL0     H18931   5.146   5.661   8.372 -2.6098  1.4189  0.3665
  881MOL0     H18932   5.182   5.622   8.201  0.2372  1.3198  0.5211
  881MOL0     H18933   4.859   5.867   8.147  1.1516 -0.9654 -4.2799
  881MOL0     H18934   5.603   5.700   8.589  1.9591 -1.4303  4.1139
  881MOL0     H18935   5.776   5.762   8.779  4.1880 -0.2403  0.4093
  882MOL0     O18936   2.198   6.571   5.907 -0.2291  0.7832  0.0291
  882MOL0     C18937   2.178   6.458   5.863 -0.4032 -1.1579 -0.7291
  882MOL0     O18938   2.064   6.412   5.809  0.0015 -0.2139  0.1466
  882MOL0     C18939   1.963   6.502   5.798 -0.7452  0.1534 -0.2596
  882MOL0     C18940   1.959   6.614   5.711  0.3903 -0.4404 -0.1531
  882MOL0     C18941   1.848   6.699   5.709 -0.1193 -0.1624 -0.2355
  882MOL0     C18942   1.745   6.678   5.796 -0.1315  0.8522  0.4778
  882MOL0     O18943   1.639   6.759   5.819 -0.1012  0.2480 -0.1299
  882MOL0     C18944   1.566   6.813   5.704 -0.8097 -0.2078  0.2473
  882MOL0     C18945   1.450   6.895   5.761  0.0459 -0.7646  0.8473
  882MOL0     C18946   1.358   6.817   5.849 -0.1231  0.0365 -0.3752
  882MOL0     C18947   1.208   6.807   5.790 -0.1679 -0.1098  0.3078
  882MOL0     C18948   1.096   6.750   5.878  0.3745 -1.1407  0.2365
  882MOL0     C18949   1.121   6.598   5.900 -0.4506  0.4936  0.0529
  882MOL0     C18950   1.015   6.560   6.000  0.7715 -0.3399 -0.6909
  882MOL0     C18951   0.861   6.574   5.962 -0.2040  0.3968  0.2269
  882MOL0     N18952   0.759   6.516   6.052 -0.5162 -0.7973  0.7566
  882MOL0     C18953   0.685   6.406   6.028  0.9769 -0.7038  0.2386
  882MOL0     C18954   0.594   6.411   6.129 -0.4058 -0.0958 -0.1140
  882MOL0     C18955   0.489   6.307   6.150 -0.2046  0.0923 -0.6033
  882MOL0     C18956   0.354   6.382   6.146  0.1249  0.1528 -0.6408
  882MOL0     C18957   0.225   6.320   6.194  0.8300  0.0067  0.0734
  882MOL0     C18958   0.205   6.179   6.144 -0.6005 -0.2436  0.3465
  882MOL0     O18959   0.086   6.131   6.186 -0.2623  0.2316  0.3357
  882MOL0     C18960   0.048   5.992   6.162 -0.2079 -1.2476 -0.0117
  882MOL0     C18961  -0.075   5.957   6.213  1.1707  1.1420  0.1786
  882MOL0     C18962  -0.146   5.841   6.189  0.0631 -0.7162 -0.1832
  882MOL0     C18963  -0.283   5.822   6.259 -0.5355 -0.1299 -0.0556
  882MOL0     C18964  -0.081   5.748   6.098  0.6961  0.0668  1.1638
  882MOL0     C18965  -0.145   5.615   6.060  0.5975  0.9443  0.6033
  882MOL0     O18966  -0.206   5.541   6.161  0.4738  0.3715  0.8148
  882MOL0     C18967  -0.239   5.416   6.141 -0.6953 -0.2190 -0.1239
  882MOL0     C18968  -0.135   5.327   6.088  0.2929 -0.3391 -0.3252
  882MOL0     C18969  -0.171   5.197   6.049  0.3565  0.1707  0.6384
  882MOL0     C18970  -0.296   5.150   6.080  0.6508  0.4581  0.4655
  882MOL0     O18971  -0.325   5.017   6.076 -0.5622  0.2712  0.1676
  882MOL0     C18972  -0.263   4.927   5.982 -0.6850  0.7580  0.9021
  882MOL0     C18973  -0.327   4.791   6.025  0.4331 -1.1999  0.2461
  882MOL0     C18974  -0.250   4.677   5.956  0.1482 -0.1956 -0.5966
  882MOL0     C18975  -0.254   4.679   5.806  0.3021  0.3467  0.4976
  882MOL0     C18976  -0.158   4.573   5.754 -0.2939  0.3225 -0.1990
  882MOL0     C18977  -0.147   4.567   5.599 -0.3281  0.1037 -0.0347
  882MOL0     C18978  -0.282   4.536   5.535  0.3430 -0.2990  0.2984
  882MOL0     C18979  -0.376   4.649   5.489 -0.1745 -0.1546  0.5027
  882MOL0    Cl18980  -0.505   4.573   5.409  0.0982 -0.1428 -0.1449
  882MOL0     C18981  -0.392   5.240   6.143 -0.6498  0.3800  1.4743
  882MOL0     C18982  -0.370   5.373   6.174  0.3380 -0.3653 -0.5041
  882MOL0     O18983  -0.124   5.585   5.940  0.2484 -0.5794 -0.5583
  882MOL0     C18984   0.043   5.787   6.048  0.6040 -0.7887  0.3267
  882MOL0     C18985   0.110   5.904   6.074 -0.1950  0.3157 -0.6114
  882MOL0     N18986   0.621   6.516   6.213 -0.3576 -0.2072  0.0294
  882MOL0     N18987   0.722   6.581   6.165  0.5443  0.6439  0.6954
  882MOL0     C18988   1.736   6.558   5.870 -0.5781  0.5174  0.0626
  882MOL0     C18989   1.843   6.464   5.866  0.3147  0.1266  0.2902
  882MOL0     C18990   2.298   6.363   5.854  0.3623 -0.0734 -0.2211
  882MOL0     C18991   2.291   6.243   5.776  0.7768  0.7694  0.3461
  882MOL0     C18992   2.406   6.161   5.758  0.3802 -0.0389  0.2484
  882MOL0     C18993   2.529   6.199   5.813 -0.3044  0.3018 -0.2871
  882MOL0     O18994   2.626   6.112   5.777 -0.0735 -0.2395 -0.4797
  882MOL0     C18995   2.751   6.124   5.828  0.6670  0.7195 -0.5461
  882MOL0     C18996   2.767   6.021   5.942 -0.5347 -0.4880  0.3670
  882MOL0     C18997   2.894   6.043   6.026 -0.5777 -1.0364 -0.3092
  882MOL0     C18998   2.897   5.967   6.166  0.2631  0.1364  0.8535
  882MOL0     C18999   3.033   5.955   6.212  0.6363  0.7126 -0.5428
  882MOL0     C19000   3.133   5.932   6.269  0.7984  0.3143  0.1404
  882MOL0     C19001   2.538   6.323   5.876  0.2805 -0.7768  0.0733
  882MOL0     C19002   2.428   6.405   5.894 -0.0232 -0.1080 -0.5868
  882MOL0     H19003   2.036   6.610   5.634 -2.1348 -3.2906 -2.8153
  882MOL0     H19004   1.841   6.791   5.650  1.4570  0.2466  0.1798
  882MOL0     H19005   1.629   6.880   5.646 -0.6435 -0.6587 -0.0939
  882MOL0     H19006   1.520   6.738   5.638  0.7480 -0.6879 -0.3238
  882MOL0     H19007   1.504   6.971   5.819 -1.1507  1.1357 -0.4031
  882MOL0     H19008   1.392   6.939   5.680  2.1655 -1.0515 -0.9185
  882MOL0     H19009   1.398   6.717   5.870  2.9154  1.3913  0.7251
  882MOL0     H19010   1.363   6.864   5.948  2.5525  1.6931 -1.2330
  882MOL0     H19011   1.180   6.907   5.758  0.1942 -0.3380 -0.7709
  882MOL0     H19012   1.219   6.746   5.700 -0.5869 -0.7629  0.6933
  882MOL0     H19013   1.102   6.808   5.970  0.3022 -1.8252  0.6815
  882MOL0     H19014   0.999   6.756   5.827 -0.4716 -4.3183  1.2262
  882MOL0     H19015   1.117   6.537   5.810  1.3324 -0.7493  0.7741
  882MOL0     H19016   1.221   6.582   5.941  0.3159 -3.3421 -2.7621
  882MOL0     H19017   1.032   6.456   6.032 -1.0067 -0.7287 -0.8854
  882MOL0     H19018   1.019   6.618   6.093 -1.7174 -0.4072 -0.4611
  882MOL0     H19019   0.852   6.527   5.864  4.1561 -1.5603  0.5206
  882MOL0     H19020   0.830   6.678   5.948  0.8548  0.9562  1.7398
  882MOL0     H19021   0.700   6.330   5.952 -2.0363  0.3991 -1.6179
  882MOL0     H19022   0.484   6.226   6.077  0.4768  0.9482 -1.6251
  882MOL0     H19023   0.521   6.266   6.246  0.7581  3.1137  0.4876
  882MOL0     H19024   0.336   6.380   6.038  0.5354  0.1922 -0.7101
  882MOL0     H19025   0.358   6.484   6.186  1.4418 -1.1456  2.9125
  882MOL0     H19026   0.152   6.390   6.151  2.2894  4.3299  3.8687
  882MOL0     H19027   0.209   6.324   6.302  0.0036  1.2386 -0.0787
  882MOL0     H19028   0.288   6.128   6.195  0.2214  1.5204  0.8683
  882MOL0     H19029   0.229   6.174   6.038  3.6228  0.0459  1.0911
  882MOL0     H19030  -0.126   6.029   6.276 -0.1053 -0.2912  0.8712
  882MOL0     H19031  -0.265   5.775   6.356 -2.6011  0.7120  0.8124
  882MOL0     H19032  -0.329   5.921   6.269 -0.8240 -0.2815  0.1551
  882MOL0     H19033  -0.352   5.763   6.198  0.6139 -0.7478 -0.7836
  882MOL0     H19034  -0.037   5.359   6.054 -0.8594  1.4150 -2.1714
  882MOL0     H19035  -0.097   5.126   6.015  0.5171  1.8394 -3.0614
  882MOL0     H19036  -0.296   4.957   5.882 -0.0726  0.9264  0.7425
  882MOL0     H19037  -0.154   4.928   5.997 -0.0115  3.4248 -2.7694
  882MOL0     H19038  -0.327   4.775   6.133 -1.0874  0.3717  0.5285
  882MOL0     H19039  -0.433   4.793   5.998 -0.2418  2.6176  2.4378
  882MOL0     H19040  -0.273   4.578   5.997  0.0772 -0.4681 -1.2833
  882MOL0     H19041  -0.150   4.692   5.998 -1.3290  0.9380  2.8534
  882MOL0     H19042  -0.359   4.653   5.787  0.6012 -0.3257 -0.3197
  882MOL0     H19043  -0.224   4.779   5.777  0.8939 -0.5983 -2.4776
  882MOL0     H19044  -0.195   4.475   5.784  0.1157 -0.8685 -3.1653
  882MOL0     H19045  -0.059   4.588   5.798 -0.9703  0.2104  1.4111
  882MOL0     H19046  -0.111   4.663   5.561 -0.2838  1.8774  4.0034
  882MOL0     H19047  -0.070   4.501   5.558 -1.5764  0.3536 -3.0504
  882MOL0     H19048  -0.333   4.460   5.594  1.5930  0.1399  2.0177
  882MOL0     H19049  -0.251   4.488   5.442  1.9207  0.6252  0.3079
  882MOL0     H19050  -0.323   4.716   5.421 -0.1544 -0.1563  0.5170
  882MOL0     H19051  -0.413   4.703   5.576  0.1122 -1.2856  1.3464
  882MOL0     H19052  -0.487   5.191   6.163  0.0557 -1.8208 -0.1718
  882MOL0     H19053  -0.443   5.436   6.224  1.2531  1.0432 -0.8530
  882MOL0     H19054   0.084   5.715   5.978 -0.7137 -2.5535  1.2636
  882MOL0     H19055   0.193   5.942   6.016 -0.3132  1.0352 -0.3193
  882MOL0     H19056   1.634   6.553   5.908 -1.6240  1.3873 -2.3756
  882MOL0     H19057   1.835   6.378   5.931 -1.1487  1.1219  1.5019
  882MOL0     H19058   2.195   6.212   5.734  2.3559  0.1082 -3.1960
  882MOL0     H19059   2.392   6.063   5.713 -3.8510  0.3709  0.3204
  882MOL0     H19060   2.818   6.098   5.746 -0.2469 -0.6136 -0.8962
  882MOL0     H19061   2.772   6.222   5.871  1.8589  0.2039  0.1073
  882MOL0     H19062   2.761   5.922   5.896 -0.1151  0.4793 -1.9212
  882MOL0     H19063   2.683   6.039   6.009 -0.6976  1.8594 -0.3506
  882MOL0     H19064   2.894   6.151   6.039 -1.8733 -0.9006 -1.2598
  882MOL0     H19065   2.976   6.018   5.958  0.5151 -0.4756  0.7688
  882MOL0     H19066   2.864   5.863   6.161  1.7646 -0.3195 -0.3916
  882MOL0     H19067   2.834   6.024   6.235  0.2475 -0.0139  0.9650
  882MOL0     H19068   3.229   5.930   6.317  0.3352 -1.5746  1.1136
  882MOL0     H19069   2.634   6.372   5.884 -0.1622  0.0158  0.6764
  882MOL0     H19070   2.445   6.508   5.926 -0.7214  0.6916 -2.6069
  883MOL0     O19071   5.992  10.224   5.248  0.5282  0.0784  0.0042
  883MOL0     C19072   6.000  10.133   5.165 -0.0856  1.0367  0.2862
  883MOL0     O19073   5.957  10.153   5.031  0.4578  0.0277  0.1879
  883MOL0     C19074   5.906  10.278   4.989 -0.4835 -0.9724 -0.3127
  883MOL0     C19075   5.792  10.286   4.909  0.0952  0.4899  1.2019
  883MOL0     C19076   5.754  10.411   4.858 -0.6161 -0.7170 -0.7775
  883MOL0     C19077   5.824  10.531   4.889  0.5813 -0.2778  0.3967
  883MOL0     O19078   5.795  10.657   4.835  0.7585  0.4990  0.2221
  883MOL0     C19079   5.769  10.667   4.694 -0.0047 -0.8646  0.0297
  883MOL0     C19080   5.647  10.765   4.670  0.3915 -0.0290 -0.0660
  883MOL0     C19081   5.660  10.897   4.741  0.7092  0.3766  0.6176
  883MOL0     C19082   5.523  10.954   4.747 -0.2516 -0.7643 -0.9180
  883MOL0     C19083   5.513  11.094   4.808  0.4248  0.1770  0.0503
  883MOL0     C19084   5.537  11.207   4.702 -0.2636  0.3467 -0.2411
  883MOL0     C19085   5.414  11.242   4.624 -0.2316  0.4203  0.2149
  883MOL0     C19086   5.428  11.321   4.493 -0.2276 -0.1305 -0.1749
  883MOL0     N19087   5.470  11.249   4.371  0.3723 -0.3463  0.5291
  883MOL0     C19088   5.454  11.118   4.358  0.1201  0.1721  0.5628
  883MOL0     C19089   5.517  11.084   4.246  0.9698  0.2593  0.4822
  883MOL0     C19090   5.539  10.946   4.191 -0.2944 -0.4364 -0.4479
  883MOL0     C19091   5.687  10.901   4.203  0.6147  0.8750 -0.7748
  883MOL0     C19092   5.722  10.760   4.202 -0.3489  1.8972  0.3547
  883MOL0     C19093   5.863  10.727   4.240 -0.3275  0.3413 -0.2893
  883MOL0     O19094   5.881  10.588   4.229 -0.1570 -0.0951 -0.0999
  883MOL0     C19095   6.003  10.534   4.226 -0.7863 -0.0980  0.7786
  883MOL0     C19096   6.022  10.409   4.169  0.2213 -0.1031 -0.3718
  883MOL0     C19097   6.136  10.338   4.187 -0.0141 -0.3750  0.4722
  883MOL0     C19098   6.144  10.195   4.127  0.1897 -0.1536 -0.3287
  883MOL0     C19099   6.248  10.408   4.244  0.1900  0.6265  0.0232
  883MOL0     C19100   6.380  10.346   4.263  0.3426  0.6815  1.1016
  883MOL0     O19101   6.462  10.400   4.359  0.7624 -0.7412  0.0542
  883MOL0     C19102   6.595  10.372   4.372 -0.4547  0.8866 -0.3195
  883MOL0     C19103   6.678  10.299   4.283  0.3586  0.7848  0.8043
  883MOL0     C19104   6.812  10.293   4.314  0.2325  0.0082 -0.7903
  883MOL0     C19105   6.865  10.352   4.430  0.0325  0.7095  0.1822
  883MOL0     O19106   7.007  10.372   4.455  0.1248  0.0073 -0.5457
  883MOL0     C19107   7.084  10.259   4.426 -0.9511  0.3126  0.3701
  883MOL0     C19108   7.219  10.252   4.480 -1.1334  0.1050 -0.3335
  883MOL0     C19109   7.218  10.264   4.636 -0.1456 -0.0309 -0.4115
  883MOL0     C19110   7.360  10.222   4.697  0.9763  0.2418  0.2214
  883MOL0     C19111   7.367  10.215   4.853 -0.7563 -0.4406 -0.3112
  883MOL0     C19112   7.351  10.344   4.917 -0.1691  0.1687 -0.2417
  883MOL0     C19113   7.399  10.325   5.070  0.1388  0.0662  0.4518
  883MOL0     C19114   7.373  10.437   5.170 -0.2259  0.0160 -0.1072
  883MOL0    Cl19115   7.446  10.596   5.123  0.0727 -0.2703 -0.3125
  883MOL0     C19116   6.779  10.423   4.510  0.4897  0.3751 -0.2621
  883MOL0     C19117   6.643  10.431   4.488 -0.2347 -0.0651  0.2782
  883MOL0     O19118   6.409  10.242   4.208  0.2261  0.9085  0.5369
  883MOL0     C19119   6.233  10.537   4.299 -0.0897 -1.1713 -0.6257
  883MOL0     C19120   6.112  10.599   4.287 -0.4451 -0.0207 -0.1072
  883MOL0     N19121   5.568  11.200   4.189  0.1490 -0.6605 -0.8386
  883MOL0     N19122   5.545  11.297   4.262  0.3293  0.2459 -0.4033
  883MOL0     C19123   5.941  10.526   4.964  0.1670  0.6416  0.4861
  883MOL0     C19124   5.987  10.399   5.011 -0.3683 -0.1987 -0.0500
  883MOL0     C19125   6.070  10.007   5.202 -0.5971  0.8029  0.1201
  883MOL0     C19126   6.113   9.990   5.326  0.5874  0.9430 -0.2201
  883MOL0     C19127   6.154   9.860   5.366 -0.3497  0.2317 -0.2932
  883MOL0     C19128   6.153   9.751   5.279 -0.0144 -0.4977 -0.2044
  883MOL0     O19129   6.203   9.635   5.323  0.2733  0.5336 -0.1083
  883MOL0     C19130   6.205   9.512   5.237  0.5362  0.7121 -0.1410
  883MOL0     C19131   6.077   9.435   5.254  0.0970  0.4422  0.2022
  883MOL0     C19132   6.052   9.363   5.388  1.0895  0.7535 -0.6247
  883MOL0     C19133   5.927   9.277   5.378 -0.5192  0.1106  0.2402
  883MOL0     C19134   5.920   9.175   5.485  0.8790 -0.0574  1.0031
  883MOL0     C19135   5.905   9.096   5.577 -0.3701  0.1175  0.7398
  883MOL0     C19136   6.108   9.777   5.153 -0.5294 -0.0115  0.2836
  883MOL0     C19137   6.063   9.899   5.112 -0.3895 -0.5998 -0.2462
  883MOL0     H19138   5.728  10.205   4.874  0.9831 -0.1371  0.9863
  883MOL0     H19139   5.664  10.406   4.797 -1.9644  2.0291  0.7964
  883MOL0     H19140   5.858  10.694   4.636  0.4226  0.3029  1.1683
  883MOL0     H19141   5.731  10.577   4.646 -0.4401  0.2530 -1.8083
  883MOL0     H19142   5.646  10.786   4.562 -1.2587  2.4869  0.3558
  883MOL0     H19143   5.550  10.722   4.696 -1.4262  3.4648 -0.4578
  883MOL0     H19144   5.711  10.881   4.837  5.7124  0.2986 -1.7263
  883MOL0     H19145   5.733  10.959   4.688  1.5734 -1.8303 -0.9343
  883MOL0     H19146   5.473  10.946   4.650 -1.8286  1.4456 -0.3737
  883MOL0     H19147   5.465  10.890   4.814 -0.2716  0.3728  0.1922
  883MOL0     H19148   5.428  11.123   4.871 -0.4168  3.1745 -2.2388
  883MOL0     H19149   5.593  11.072   4.880 -0.9193 -1.7229  1.0383
  883MOL0     H19150   5.588  11.290   4.751  1.2107 -0.0693 -1.0041
  883MOL0     H19151   5.617  11.165   4.639  1.2931  1.8359  0.6636
  883MOL0     H19152   5.357  11.151   4.604  1.6377 -0.7410 -0.1128
  883MOL0     H19153   5.355  11.296   4.698  0.5378 -0.8712  1.8323
  883MOL0     H19154   5.507  11.396   4.501  1.1464 -1.5130 -0.3775
  883MOL0     H19155   5.331  11.367   4.472 -1.8607 -2.2234  2.1943
  883MOL0     H19156   5.420  11.041   4.427  0.9154  0.2258  1.0280
  883MOL0     H19157   5.471  10.876   4.241  0.8573 -0.1750  1.5557
  883MOL0     H19158   5.530  10.939   4.082  2.7055  0.4403 -0.8653
  883MOL0     H19159   5.720  10.937   4.301 -1.3796 -0.1516  0.3442
  883MOL0     H19160   5.746  10.952   4.127  1.7968  1.3811  0.4382
  883MOL0     H19161   5.699  10.712   4.106 -0.6234 -0.0235  1.3360
  883MOL0     H19162   5.661  10.716   4.281  0.9229 -1.6353 -0.4699
  883MOL0     H19163   5.891  10.757   4.341  1.3846 -0.1567 -0.5762
  883MOL0     H19164   5.926  10.776   4.165 -4.1096  1.3820 -3.0660
  883MOL0     H19165   5.944  10.358   4.113 -0.9793  2.1064 -0.8022
  883MOL0     H19166   6.183  10.118   4.195 -2.6496 -1.3480  0.0814
  883MOL0     H19167   6.045  10.154   4.105 -0.4156  0.2989  1.4034
  883MOL0     H19168   6.213  10.202   4.042 -0.2703  4.3187 -0.5683
  883MOL0     H19169   6.646  10.242   4.197 -1.0493 -1.4963  2.7257
  883MOL0     H19170   6.892  10.259   4.249 -0.4442  1.5100 -2.4960
  883MOL0     H19171   7.031  10.170   4.459  0.0865  0.8046  3.7555
  883MOL0     H19172   7.097  10.258   4.317 -1.3596 -1.8140  0.2965
  883MOL0     H19173   7.274  10.160   4.457  0.6242  1.5237 -2.0615
  883MOL0     H19174   7.271  10.336   4.433 -1.8156  0.7628  0.0593
  883MOL0     H19175   7.139  10.200   4.677  0.3609  0.9888  2.3172
  883MOL0     H19176   7.190  10.362   4.676 -0.5456 -1.2460  2.4773
  883MOL0     H19177   7.396  10.128   4.656  1.1327 -0.5576  2.0748
  883MOL0     H19178   7.441  10.289   4.667  1.3652 -0.3065  0.0451
  883MOL0     H19179   7.462  10.174   4.889 -0.1878  1.4333  0.4246
  883MOL0     H19180   7.287  10.149   4.887 -1.6596  1.1736  0.8185
  883MOL0     H19181   7.412  10.416   4.863 -0.0874 -0.4571 -1.0125
  883MOL0     H19182   7.248  10.379   4.916  0.3125  1.6476 -0.7242
  883MOL0     H19183   7.508  10.315   5.061  0.1330  1.3851 -2.1590
  883MOL0     H19184   7.357  10.227   5.092 -1.2736  0.5287 -0.1073
  883MOL0     H19185   7.420  10.407   5.264 -0.6117  2.3371  0.9002
  883MOL0     H19186   7.265  10.443   5.189 -0.6004  1.6784 -2.2299
  883MOL0     H19187   6.829  10.471   4.594  2.1795 -0.1531 -0.9428
  883MOL0     H19188   6.582  10.500   4.545 -0.6050 -0.1912  0.0359
  883MOL0     H19189   6.313  10.597   4.342 -0.5121 -0.8596 -0.2622
  883MOL0     H19190   6.097  10.698   4.329  0.6440  0.7990 -1.5474
  883MOL0     H19191   6.002  10.612   4.992  1.0519 -0.3603  1.7714
  883MOL0     H19192   6.085  10.395   5.057  0.0848 -0.1810 -0.9927
  883MOL0     H19193   6.117  10.074   5.395 -1.3283 -0.2730  1.4729
  883MOL0     H19194   6.201   9.835   5.460  1.1669 -2.7182 -1.7124
  883MOL0     H19195   6.237   9.542   5.136  1.0732 -0.2269 -0.2645
  883MOL0     H19196   6.287   9.449   5.273  0.2218 -1.0826 -2.3104
  883MOL0     H19197   6.084   9.365   5.171 -0.9983  2.9620 -2.1875
  883MOL0     H19198   5.997   9.509   5.244  2.9323  3.8617  0.5057
  883MOL0     H19199   6.043   9.443   5.462  1.2216 -0.0500  0.2692
  883MOL0     H19200   6.137   9.302   5.419 -0.5242 -1.6143 -0.6467
  883MOL0     H19201   5.932   9.224   5.282 -1.2115  0.3192  0.0812
  883MOL0     H19202   5.840   9.344   5.383 -0.5175  0.3348 -1.9062
  883MOL0     H19203   5.893   9.017   5.648 -3.6108 -0.1706  0.0424
  883MOL0     H19204   6.099   9.700   5.077 -1.4343  0.7452 -0.3997
  883MOL0     H19205   6.028   9.913   5.010 -1.0977 -0.7585 -0.0258
  884MOL0     O19206   4.416   8.069   9.748  0.1635  0.2484  0.3170
  884MOL0     C19207   4.518   8.017   9.701 -0.4507  0.0420 -0.2905
  884MOL0     O19208   4.555   8.018   9.568 -0.1371  0.6199 -0.0748
  884MOL0     C19209   4.491   8.103   9.483 -0.0318  0.4978 -0.3469
  884MOL0     C19210   4.527   8.241   9.480  0.2596  1.3709 -1.1218
  884MOL0     C19211   4.443   8.331   9.417  0.3145 -1.2698 -0.2238
  884MOL0     C19212   4.334   8.284   9.347  0.1095  0.1203  0.1592
  884MOL0     O19213   4.252   8.360   9.271  0.0453  0.6880  0.0027
  884MOL0     C19214   4.277   8.500   9.251  0.4283  0.1746  0.5269
  884MOL0     C19215   4.157   8.566   9.181  0.2865  0.6030  0.1207
  884MOL0     C19216   4.137   8.487   9.048  0.7761  0.3412  0.1625
  884MOL0     C19217   4.039   8.578   8.974 -1.1025 -0.2809 -0.0753
  884MOL0     C19218   3.980   8.518   8.847 -0.1333  0.6680 -0.2635
  884MOL0     C19219   3.867   8.587   8.769 -0.5014 -0.2249 -0.2257
  884MOL0     C19220   3.744   8.632   8.862 -0.9583 -0.2872 -0.0459
  884MOL0     C19221   3.659   8.518   8.923 -0.7564  0.3352 -0.1996
  884MOL0     N19222   3.544   8.579   8.995 -0.7132  0.2608  0.6022
  884MOL0     C19223   3.428   8.598   8.926  0.1138  0.8148  1.0627
  884MOL0     C19224   3.338   8.573   9.029  0.2910  0.3579 -0.3574
  884MOL0     C19225   3.184   8.572   9.008  0.0780  0.1499  0.3032
  884MOL0     C19226   3.120   8.685   9.072 -0.1976  0.3472 -0.1148
  884MOL0     C19227   2.975   8.677   9.071  0.1509  0.4926  0.4183
  884MOL0     C19228   2.911   8.711   8.938  0.1030 -0.9101 -0.0951
  884MOL0     O19229   2.927   8.849   8.903 -0.1547 -0.7538  0.2026
  884MOL0     C19230   2.848   8.890   8.796  0.3280 -0.2616 -0.3135
  884MOL0     C19231   2.773   8.810   8.715 -0.1664  0.3384  0.6202
  884MOL0     C19232   2.710   8.863   8.601  0.0876 -1.1638 -0.0273
  884MOL0     C19233   2.628   8.759   8.525  0.4527 -0.5453  0.1846
  884MOL0     C19234   2.742   8.998   8.558 -0.2897  1.0452 -0.3109
  884MOL0     C19235   2.684   9.062   8.448  0.9247 -0.4696 -0.3223
  884MOL0     O19236   2.643   9.197   8.458 -0.4083 -0.0390 -0.8175
  884MOL0     C19237   2.645   9.257   8.337  0.5924 -1.3776  0.2160
  884MOL0     C19238   2.532   9.264   8.249  0.3938  0.2248  0.2468
  884MOL0     C19239   2.540   9.309   8.116 -0.7492  0.3907  0.1886
  884MOL0     C19240   2.662   9.362   8.072 -0.2713 -0.3474 -0.3740
  884MOL0     O19241   2.674   9.408   7.943 -0.4800  0.5906 -0.2159
  884MOL0     C19242   2.771   9.342   7.850 -0.0283  1.3837 -0.0151
  884MOL0     C19243   2.807   9.453   7.746  0.7092 -1.1956  0.5197
  884MOL0     C19244   2.898   9.402   7.631  0.7237  0.1159 -0.2887
  884MOL0     C19245   2.917   9.505   7.519 -0.7982  0.7453  0.6154
  884MOL0     C19246   3.001   9.439   7.403  0.1364 -0.7061 -0.4661
  884MOL0     C19247   3.030   9.548   7.297 -0.3104 -0.2507  1.0211
  884MOL0     C19248   3.153   9.516   7.205  0.7702 -0.0284 -0.8810
  884MOL0     C19249   3.289   9.520   7.277  0.0419 -0.0440 -0.7112
  884MOL0    Cl19250   3.421   9.461   7.171  0.4924 -0.1662  0.0843
  884MOL0     C19251   2.776   9.349   8.149  0.0442 -0.4507 -0.6321
  884MOL0     C19252   2.760   9.301   8.280  0.4742 -0.3316 -0.8301
  884MOL0     O19253   2.674   8.992   8.345 -0.3409 -0.1554 -0.5717
  884MOL0     C19254   2.811   9.074   8.648 -0.4785 -0.5274 -0.4312
  884MOL0     C19255   2.861   9.027   8.771  0.9783 -0.3790 -0.3008
  884MOL0     N19256   3.396   8.558   9.155  0.2465  0.6841  0.6638
  884MOL0     N19257   3.524   8.574   9.129 -0.0004  0.2116  0.0086
  884MOL0     C19258   4.303   8.153   9.340  0.1066  0.0861  0.6351
  884MOL0     C19259   4.382   8.061   9.414 -0.2422  0.6417 -0.0011
  884MOL0     C19260   4.611   7.938   9.781 -0.1216 -0.2748 -0.0775
  884MOL0     C19261   4.577   7.927   9.916 -0.2208 -0.5602 -0.6705
  884MOL0     C19262   4.649   7.851  10.008 -0.2087  0.1974  0.8080
  884MOL0     C19263   4.766   7.787   9.948 -0.5586 -0.4491 -0.8330
  884MOL0     O19264   4.834   7.696  10.025  0.2285 -0.5874 -0.4509
  884MOL0     C19265   4.907   7.769  10.118 -0.0984 -0.1736 -0.1925
  884MOL0     C19266   5.055   7.731  10.114 -0.4142  0.0323  0.6355
  884MOL0     C19267   5.069   7.578  10.134  0.0130  0.5916  0.5676
  884MOL0     C19268   5.217   7.539  10.160 -0.0832  0.4423  0.1386
  884MOL0     C19269   5.308   7.563  10.047  0.3212 -0.3874  0.5500
  884MOL0     C19270   5.371   7.583   9.948  0.9376  0.2624  1.0784
  884MOL0     C19271   4.801   7.803   9.817  0.5986 -0.1124  0.2867
  884MOL0     C19272   4.725   7.873   9.727 -0.0732 -1.1190 -0.2010
  884MOL0     H19273   4.612   8.279   9.536  2.3239 -0.0118 -3.0827
  884MOL0     H19274   4.467   8.437   9.420  0.0343 -1.2209  0.4710
  884MOL0     H19275   4.287   8.554   9.346  2.9355 -0.0260  0.4397
  884MOL0     H19276   4.374   8.515   9.202 -0.3908 -1.0515 -1.6018
  884MOL0     H19277   4.061   8.558   9.232 -0.0361 -0.3328 -0.6072
  884MOL0     H19278   4.175   8.671   9.157  1.0867 -0.2209 -3.5585
  884MOL0     H19279   4.236   8.475   9.001 -0.4448 -2.6492 -1.9431
  884MOL0     H19280   4.093   8.388   9.062 -0.5902  0.8372 -0.4956
  884MOL0     H19281   3.963   8.617   9.042 -0.0200  2.2028 -0.1909
  884MOL0     H19282   4.086   8.669   8.938 -0.5143 -0.8459 -0.7662
  884MOL0     H19283   4.064   8.487   8.784  1.3099 -0.2270  2.0047
  884MOL0     H19284   3.941   8.423   8.883  0.2437  0.9258  0.8423
  884MOL0     H19285   3.902   8.678   8.719  0.6962 -1.7887 -2.4102
  884MOL0     H19286   3.837   8.519   8.688 -0.8434 -0.2347 -0.0899
  884MOL0     H19287   3.776   8.692   8.947 -0.7466 -0.6790  0.1534
  884MOL0     H19288   3.678   8.697   8.803 -3.2389 -0.5348  2.0788
  884MOL0     H19289   3.724   8.453   8.981  0.7431  0.1053 -2.0547
  884MOL0     H19290   3.616   8.451   8.848 -0.7579  0.4546 -0.3056
  884MOL0     H19291   3.406   8.615   8.821  0.2831  0.3573  0.9523
  884MOL0     H19292   3.164   8.567   8.901  1.7674 -1.0199  0.0151
  884MOL0     H19293   3.134   8.484   9.050  1.7322 -1.3072 -0.6399
  884MOL0     H19294   3.164   8.777   9.034  1.0758 -0.3746 -0.4553
  884MOL0     H19295   3.147   8.682   9.178 -1.5129 -0.0274  0.2386
  884MOL0     H19296   2.922   8.734   9.148 -1.5601  0.3385 -0.5746
  884MOL0     H19297   2.948   8.571   9.077  0.1554  0.2821 -2.2157
  884MOL0     H19298   2.805   8.685   8.933 -0.2756  0.6691 -4.0142
  884MOL0     H19299   2.970   8.646   8.872  2.9899 -0.6867  2.0696
  884MOL0     H19300   2.753   8.710   8.754 -0.3981  1.3581  3.3284
  884MOL0     H19301   2.688   8.693   8.463  2.5193  0.6536  0.8072
  884MOL0     H19302   2.567   8.703   8.596  1.1791  1.0150  2.1406
  884MOL0     H19303   2.569   8.806   8.446  0.3921 -0.7494  0.1085
  884MOL0     H19304   2.437   9.224   8.283  1.2620 -1.1199  1.1966
  884MOL0     H19305   2.454   9.315   8.050  0.4848  1.5682 -1.3673
  884MOL0     H19306   2.855   9.297   7.905 -2.5542 -0.2612  2.8707
  884MOL0     H19307   2.725   9.259   7.794  0.1230  0.4748  1.1597
  884MOL0     H19308   2.714   9.486   7.700  0.9552 -0.1240  0.7606
  884MOL0     H19309   2.842   9.549   7.787 -1.0654  1.6713 -3.8971
  884MOL0     H19310   2.854   9.312   7.587 -0.0541  0.2918  0.1019
  884MOL0     H19311   2.996   9.370   7.666  0.9248 -0.0177 -0.9523
  884MOL0     H19312   2.828   9.545   7.470  1.4079  1.5540 -3.1307
  884MOL0     H19313   2.979   9.588   7.555 -0.1210  0.3698  0.3287
  884MOL0     H19314   2.943   9.361   7.352 -3.2536  1.0043  0.4495
  884MOL0     H19315   3.093   9.394   7.440  3.1431  2.6876 -3.1908
  884MOL0     H19316   2.942   9.564   7.235 -2.3384  1.4868  4.0940
  884MOL0     H19317   3.042   9.645   7.346 -2.5376  1.1304 -0.9663
  884MOL0     H19318   3.159   9.583   7.118  0.7786 -0.7991 -1.4895
  884MOL0     H19319   3.128   9.420   7.160 -0.2195  0.1464 -0.7399
  884MOL0     H19320   3.268   9.448   7.357 -1.8807  1.3079  0.0847
  884MOL0     H19321   3.298   9.623   7.312 -2.8443 -0.2013  0.8069
  884MOL0     H19322   2.864   9.405   8.122  0.2581  1.0830  2.7693
  884MOL0     H19323   2.851   9.298   8.339 -0.0089 -1.2524 -0.0988
  884MOL0     H19324   2.826   9.179   8.629  3.1534  0.1758  4.2703
  884MOL0     H19325   2.914   9.091   8.841 -0.0933  1.3798 -1.0401
  884MOL0     H19326   4.225   8.106   9.279 -1.6053  2.2263  1.0382
  884MOL0     H19327   4.344   7.959   9.415 -3.5650  1.7365 -0.0303
  884MOL0     H19328   4.494   7.984   9.954 -1.8315 -2.4055 -1.2648
  884MOL0     H19329   4.617   7.830  10.109  0.6211 -0.8798  0.8725
  884MOL0     H19330   4.888   7.876  10.120 -3.0365 -0.5776 -1.0909
  884MOL0     H19331   4.863   7.736  10.212 -0.4975  1.6987  0.3072
  884MOL0     H19332   5.102   7.789  10.195  0.4431 -0.4541  0.4918
  884MOL0     H19333   5.083   7.763  10.013 -0.6249 -2.5628 -0.3239
  884MOL0     H19334   5.026   7.518  10.054 -2.2665  0.7406  1.5893
  884MOL0     H19335   5.015   7.556  10.227 -0.2882 -0.5220  0.1381
  884MOL0     H19336   5.234   7.432  10.169  0.8372  0.2125 -3.0073
  884MOL0     H19337   5.254   7.593  10.248  0.6231 -2.6411  1.8686
  884MOL0     H19338   5.430   7.597   9.860  0.6525 -0.2853  0.7977
  884MOL0     H19339   4.890   7.757   9.776 -0.7586 -0.3273 -2.7115
  884MOL0     H19340   4.755   7.893   9.625 -2.3427 -0.4667 -0.7984
  885MOL0     O19341   2.094   9.716   0.573  0.5373 -0.4457  0.6402
  885MOL0     C19342   2.120   9.608   0.518 -0.5908  0.5461  1.4243
  885MOL0     O19343   2.033   9.535   0.427  0.3124 -0.2557 -0.0921
  885MOL0     C19344   1.901   9.559   0.425 -0.1955  0.2961 -0.4514
  885MOL0     C19345   1.818   9.464   0.483  0.0928 -0.7072  0.7781
  885MOL0     C19346   1.674   9.492   0.483 -0.9636 -0.0025 -1.0330
  885MOL0     C19347   1.625   9.609   0.432  0.2831 -0.1659 -0.1551
  885MOL0     O19348   1.486   9.619   0.438 -0.2305  0.3326  0.1261
  885MOL0     C19349   1.424   9.747   0.402  0.0845 -0.2523 -0.1293
  885MOL0     C19350   1.283   9.762   0.468 -0.6379  0.3833 -0.4844
  885MOL0     C19351   1.210   9.886   0.413 -0.2354  0.6072  0.0782
  885MOL0     C19352   1.059   9.887   0.444 -0.4149 -0.2275  0.5041
  885MOL0     C19353   0.995   9.998   0.359 -0.7738 -0.9587 -0.3954
  885MOL0     C19354   0.847  10.008   0.344 -0.0157  0.0394 -0.4122
  885MOL0     C19355   0.779   9.967   0.466  0.3406  0.4915  0.9800
  885MOL0     C19356   0.699   9.829   0.457  0.0238 -0.4036 -0.3413
  885MOL0     N19357   0.575   9.842   0.377 -0.2280 -0.3955  0.6298
  885MOL0     C19358   0.455   9.865   0.441  0.5556  0.2276 -0.6809
  885MOL0     C19359   0.363   9.859   0.344  0.4647  0.5203 -0.3293
  885MOL0     C19360   0.221   9.905   0.369  0.4245  0.6114  0.3608
  885MOL0     C19361   0.229  10.056   0.379 -0.0865 -0.3994  0.6204
  885MOL0     C19362   0.241  10.114   0.232  0.3293 -0.7626 -0.2555
  885MOL0     C19363   0.225  10.262   0.228 -0.2510 -0.6451  0.0744
  885MOL0     O19364   0.316  10.329   0.330 -0.2513  0.6263  0.6069
  885MOL0     C19365   0.450  10.349   0.309 -0.4979  0.3676 -0.4552
  885MOL0     C19366   0.522  10.386   0.424 -0.1695 -0.2080 -0.4189
  885MOL0     C19367   0.664  10.397   0.424  0.0784 -0.1248 -1.1229
  885MOL0     C19368   0.734  10.415   0.558 -0.2827 -0.2851 -0.3579
  885MOL0     C19369   0.729  10.371   0.300 -0.5207 -0.5199 -0.1606
  885MOL0     C19370   0.882  10.373   0.286 -0.3108  0.8474  0.9245
  885MOL0     O19371   0.923  10.393   0.155 -0.1965 -0.4311  0.3369
  885MOL0     C19372   1.056  10.356   0.131  0.4538  0.4916 -0.0424
  885MOL0     C19373   1.164  10.438   0.168 -0.3167 -0.0660 -0.6413
  885MOL0     C19374   1.293  10.382   0.145  0.0654 -0.6776 -0.2057
  885MOL0     C19375   1.311  10.270   0.072  0.0578  0.2670  0.0554
  885MOL0     O19376   1.428  10.223   0.028  0.8580  0.5757  0.0773
  885MOL0     C19377   1.550  10.275   0.092  0.1884  0.6044 -0.0907
  885MOL0     C19378   1.673  10.177   0.064  0.1540  0.3592  0.5423
  885MOL0     C19379   1.712  10.196  -0.092 -0.2365 -0.4236  0.0798
  885MOL0     C19380   1.863  10.219  -0.105  0.9316 -0.8347  0.8951
  885MOL0     C19381   1.906  10.212  -0.252 -0.2980  1.3006  0.2947
  885MOL0     C19382   2.053  10.173  -0.279  0.1785  0.0726 -0.6497
  885MOL0     C19383   2.086  10.203  -0.427  0.4655 -0.2423  0.5165
  885MOL0     C19384   2.232  10.210  -0.461 -0.3826 -1.0943 -0.7403
  885MOL0    Cl19385   2.311  10.068  -0.414 -0.1399  0.3277  0.0436
  885MOL0     C19386   1.201  10.189   0.030 -0.4670  0.0601 -0.2651
  885MOL0     C19387   1.070  10.241   0.047  0.0524 -0.6080  0.5266
  885MOL0     O19388   0.952  10.368   0.381 -0.6070  0.3139  0.8436
  885MOL0     C19389   0.652  10.336   0.189  0.7305 -0.7327 -0.1269
  885MOL0     C19390   0.511  10.329   0.191  0.1071  0.1387  0.8939
  885MOL0     N19391   0.426   9.820   0.226 -0.3564 -0.3453  0.0507
  885MOL0     N19392   0.553   9.802   0.248 -0.3065 -0.0899 -0.0918
  885MOL0     C19393   1.713   9.708   0.375 -0.0124  0.4731  0.8525
  885MOL0     C19394   1.845   9.677   0.364 -0.0683  0.0961 -0.6677
  885MOL0     C19395   2.256   9.547   0.528 -0.4842  0.2093  0.1398
  885MOL0     C19396   2.285   9.426   0.474  0.3389  1.2837  0.7900
  885MOL0     C19397   2.423   9.381   0.476  0.1106  0.5781  0.5508
  885MOL0     C19398   2.525   9.451   0.548  0.5634 -0.0881 -0.2477
  885MOL0     O19399   2.651   9.414   0.552 -0.4270  0.8586 -0.5051
  885MOL0     C19400   2.684   9.277   0.517 -0.1414  0.3160  0.1102
  885MOL0     C19401   2.832   9.239   0.540  0.0897 -0.2158 -0.3729
  885MOL0     C19402   2.891   9.252   0.693 -0.0138  0.5574  0.8338
  885MOL0     C19403   3.039   9.232   0.703 -0.2870  0.2234 -0.4891
  885MOL0     C19404   3.074   9.104   0.645  0.2594  0.7771 -0.1904
  885MOL0     C19405   3.103   9.007   0.585 -0.3242  0.9543 -0.3435
  885MOL0     C19406   2.485   9.565   0.613 -0.7444 -0.2581  0.2391
  885MOL0     C19407   2.357   9.611   0.598  0.1342 -0.5477 -0.4428
  885MOL0     H19408   1.847   9.375   0.539 -1.6833 -1.9647 -0.1808
  885MOL0     H19409   1.604   9.419   0.524  1.6175 -1.8043  0.4928
  885MOL0     H19410   1.489   9.826   0.439 -0.7061 -1.0043  3.2293
  885MOL0     H19411   1.417   9.759   0.293 -1.5511  2.7660  0.1908
  885MOL0     H19412   1.231   9.671   0.438 -0.6934  1.0191 -2.5095
  885MOL0     H19413   1.299   9.763   0.576 -1.9455  0.2209 -0.2774
  885MOL0     H19414   1.239   9.981   0.458  2.2908 -0.3087  0.5480
  885MOL0     H19415   1.239   9.895   0.308  2.2157 -0.2852  0.6050
  885MOL0     H19416   1.006   9.794   0.419 -4.1237  1.2490  2.0360
  885MOL0     H19417   1.048   9.921   0.547 -0.7627 -0.5714  0.5845
  885MOL0     H19418   1.032  10.093   0.398 -0.9346 -0.2667 -1.8728
  885MOL0     H19419   1.026   9.971   0.258 -1.7437 -3.4117 -0.1153
  885MOL0     H19420   0.840  10.117   0.337 -0.3031  0.1076  0.7318
  885MOL0     H19421   0.800   9.956   0.260  0.8044 -2.1326  0.3915
  885MOL0     H19422   0.840   9.964   0.557 -0.2185 -0.9053  1.3422
  885MOL0     H19423   0.703  10.043   0.488 -0.2013  1.1050 -2.5151
  885MOL0     H19424   0.669   9.792   0.556  3.7414 -2.3203  0.2420
  885MOL0     H19425   0.765   9.755   0.412  2.2815  1.9465 -1.1341
  885MOL0     H19426   0.435   9.890   0.545 -4.3759 -0.1056 -1.3168
  885MOL0     H19427   0.162   9.876   0.281  0.6788 -3.4924  1.3316
  885MOL0     H19428   0.181   9.865   0.463  0.1319  1.0154  0.4117
  885MOL0     H19429   0.314  10.095   0.436 -0.3159 -0.1140  0.7715
  885MOL0     H19430   0.131  10.085   0.416  1.2228  2.0273  2.4942
  885MOL0     H19431   0.168  10.063   0.168 -1.9535 -2.1473  3.1616
  885MOL0     H19432   0.339  10.091   0.190  0.3264 -1.5715  0.1539
  885MOL0     H19433   0.125  10.291   0.261  0.1110 -3.5414  4.6305
  885MOL0     H19434   0.229  10.301   0.126 -0.9065  0.0519  0.3052
  885MOL0     H19435   0.465  10.387   0.517  0.4104 -3.0167  0.0521
  885MOL0     H19436   0.760  10.322   0.610  0.6788 -2.3840 -4.1735
  885MOL0     H19437   0.824  10.477   0.548  1.9024 -3.3453 -1.4453
  885MOL0     H19438   0.669  10.465   0.630  1.5380 -0.0765  1.2410
  885MOL0     H19439   1.150  10.532   0.220 -2.8905 -0.7091 -0.0318
  885MOL0     H19440   1.367  10.451   0.184 -0.2312 -0.4137 -0.0984
  885MOL0     H19441   1.575  10.378   0.066  1.5799  0.5529  0.9060
  885MOL0     H19442   1.529  10.273   0.199 -1.8741  2.3746 -0.4142
  885MOL0     H19443   1.763  10.192   0.125  2.4403  0.4371 -2.5605
  885MOL0     H19444   1.640  10.074   0.080 -3.4911  1.1727 -0.8334
  885MOL0     H19445   1.659  10.281  -0.134  0.5893  0.8959  1.5958
  885MOL0     H19446   1.670  10.111  -0.147 -0.8840 -2.4181  3.3719
  885MOL0     H19447   1.887  10.313  -0.055 -1.3302 -0.7772  1.9846
  885MOL0     H19448   1.913  10.145  -0.041 -0.9088 -3.1122 -0.1509
  885MOL0     H19449   1.883  10.309  -0.297 -0.3051  1.4951  0.7109
  885MOL0     H19450   1.852  10.133  -0.304  0.2048  0.8772  0.4118
  885MOL0     H19451   2.120  10.230  -0.213  1.8835 -1.6978 -0.7734
  885MOL0     H19452   2.070  10.069  -0.253 -0.6488  0.8720  3.9799
  885MOL0     H19453   2.039  10.298  -0.454  0.6276 -0.0603  0.8658
  885MOL0     H19454   2.048  10.122  -0.490  1.6554 -1.8617  1.7749
  885MOL0     H19455   2.280  10.302  -0.429 -0.7455 -1.2848  0.4176
  885MOL0     H19456   2.226  10.222  -0.569 -1.4459  2.7472 -0.3754
  885MOL0     H19457   1.225  10.098  -0.024  0.1559 -1.4287  2.3612
  885MOL0     H19458   0.975  10.198   0.017  0.3059 -1.9056  1.4732
  885MOL0     H19459   0.694  10.311   0.092  0.9636 -2.1239  0.3069
  885MOL0     H19460   0.456  10.298   0.103  1.6757 -1.7307  0.5074
  885MOL0     H19461   1.682   9.799   0.324 -0.7112 -0.1491  0.1324
  885MOL0     H19462   1.899   9.760   0.319  0.3979  0.3873  0.4029
  885MOL0     H19463   2.212   9.368   0.418 -0.0582  2.9841 -0.5235
  885MOL0     H19464   2.453   9.285   0.434  0.0939 -0.0294  1.8567
  885MOL0     H19465   2.625   9.202   0.572 -0.2163  0.8354  0.7498
  885MOL0     H19466   2.669   9.267   0.409  0.8252  0.0340 -0.0089
  885MOL0     H19467   2.891   9.319   0.495  3.5473 -1.1356  2.1087
  885MOL0     H19468   2.849   9.140   0.496 -2.7774 -1.0628  0.1839
  885MOL0     H19469   2.836   9.176   0.749 -0.9732 -0.7732 -1.7271
  885MOL0     H19470   2.869   9.351   0.734 -1.0470  0.7540 -0.1435
  885MOL0     H19471   3.066   9.247   0.808  0.6534  3.0971 -1.0763
  885MOL0     H19472   3.095   9.304   0.643 -1.6697  2.2328  0.5174
  885MOL0     H19473   3.140   8.931   0.520  1.8894  0.2265  1.6193
  885MOL0     H19474   2.556   9.620   0.674  1.9514 -1.8617 -1.2509
  885MOL0     H19475   2.339   9.697   0.662  0.1750 -2.1418  1.8375
  886MOL0     O19476   1.487   6.741   9.433  0.5263 -0.1130 -0.1741
  886MOL0     C19477   1.539   6.806   9.340 -0.0167  0.0378 -0.1692
  886MOL0     O19478   1.666   6.861   9.335 -0.1534  0.6079  0.1817
  886MOL0     C19479   1.762   6.841   9.433  0.7008  0.2235 -0.5536
  886MOL0     C19480   1.740   6.790   9.560  0.3501  0.6242 -0.2767
  886MOL0     C19481   1.839   6.797   9.662 -0.4928  0.4566  0.1294
  886MOL0     C19482   1.957   6.864   9.649 -0.2088 -0.3979  0.5777
  886MOL0     O19483   2.031   6.901   9.759 -0.3101  0.5036  0.1275
  886MOL0     C19484   2.017   7.042   9.778 -0.7850 -0.2653 -0.4845
  886MOL0     C19485   1.881   7.088   9.824  0.9268 -0.9234  0.6944
  886MOL0     C19486   1.855   7.237   9.820  0.4823 -0.5553 -0.1496
  886MOL0     C19487   1.974   7.310   9.879  0.1756  0.1540 -0.7544
  886MOL0     C19488   1.942   7.460   9.869  0.2589 -0.1697  0.1817
  886MOL0     C19489   2.033   7.558   9.958  0.3197 -0.3507  0.2242
  886MOL0     C19490   2.179   7.540   9.920  0.6667 -0.3583  0.0189
  886MOL0     C19491   2.204   7.586   9.774  0.0062 -0.9766  0.9705
  886MOL0     N19492   2.212   7.470   9.680 -0.6741  0.0939  0.0494
  886MOL0     C19493   2.138   7.443   9.567 -0.8828  0.1369 -0.3288
  886MOL0     C19494   2.208   7.338   9.515  0.7440  0.3506  0.1043
  886MOL0     C19495   2.191   7.290   9.370  0.0923 -0.7243  0.5993
  886MOL0     C19496   2.314   7.281   9.282 -0.6880  0.3449 -0.9541
  886MOL0     C19497   2.403   7.401   9.268 -0.6159  1.2931  0.9896
  886MOL0     C19498   2.515   7.377   9.162 -0.0192  0.3080  0.0710
  886MOL0     O19499   2.582   7.254   9.198 -1.0311  0.2983  0.4534
  886MOL0     C19500   2.705   7.224   9.136 -0.3860  0.2921 -0.6321
  886MOL0     C19501   2.746   7.291   9.023  0.5803 -0.0499 -0.6174
  886MOL0     C19502   2.871   7.273   8.964  0.5342 -0.1901 -0.2293
  886MOL0     C19503   2.893   7.342   8.832  0.4127 -0.0838  0.8857
  886MOL0     C19504   2.949   7.166   9.018 -0.2551  0.0563  0.0760
  886MOL0     C19505   3.087   7.140   8.981 -1.3985  0.1984  0.6394
  886MOL0     O19506   3.157   7.251   8.926 -0.0054 -0.1792  0.0114
  886MOL0     C19507   3.295   7.233   8.905 -0.4506 -0.8176 -0.9376
  886MOL0     C19508   3.326   7.194   8.785  0.0038 -0.1648  0.7470
  886MOL0     C19509   3.461   7.178   8.752  0.3116  0.3945 -0.1341
  886MOL0     C19510   3.566   7.200   8.842  0.1374 -0.7335  0.0376
  886MOL0     O19511   3.699   7.186   8.811 -0.0671 -0.6157  0.8726
  886MOL0     C19512   3.731   7.057   8.759 -0.7072  0.0823 -0.5446
  886MOL0     C19513   3.887   7.038   8.789  1.0765 -0.3965 -0.0225
  886MOL0     C19514   3.908   6.951   8.914 -0.1813 -0.3158 -0.0872
  886MOL0     C19515   3.903   7.035   9.047  0.4078  0.7473  1.1753
  886MOL0     C19516   4.035   7.112   9.072 -0.7822  0.9594  0.0910
  886MOL0     C19517   4.043   7.183   9.207 -0.1653 -0.1831 -0.6350
  886MOL0     C19518   4.163   7.142   9.283 -0.5873  0.8828 -0.2129
  886MOL0     C19519   4.177   7.217   9.417  0.9672 -0.1596 -0.0427
  886MOL0    Cl19520   4.033   7.222   9.520  0.0240  0.1854 -0.0770
  886MOL0     C19521   3.528   7.262   8.959  0.2992  0.0186 -0.5583
  886MOL0     C19522   3.399   7.280   8.995  0.6819  0.2013  1.0118
  886MOL0     O19523   3.132   7.026   8.990  0.2479 -0.2037 -0.3437
  886MOL0     C19524   2.909   7.102   9.137  0.1573  0.5975  0.7581
  886MOL0     C19525   2.790   7.129   9.194  1.1176 -0.6748  0.0561
  886MOL0     N19526   2.302   7.299   9.606 -0.0241  0.3263  0.0634
  886MOL0     N19527   2.307   7.379   9.707  0.0019  0.1072 -0.4622
  886MOL0     C19528   1.988   6.911   9.521  0.5972 -0.4379  0.0611
  886MOL0     C19529   1.887   6.896   9.415 -0.4119 -0.6867 -0.1756
  886MOL0     C19530   1.455   6.830   9.219 -0.7579 -0.0049  0.2674
  886MOL0     C19531   1.512   6.885   9.100 -0.3424 -0.5475 -0.5810
  886MOL0     C19532   1.426   6.908   8.991  0.0624 -0.7231  0.1797
  886MOL0     C19533   1.290   6.872   8.995 -0.0201 -0.2766  0.0440
  886MOL0     O19534   1.201   6.909   8.895 -0.6057  0.1624 -0.6997
  886MOL0     C19535   1.220   7.047   8.852  0.4009  0.8015 -0.7490
  886MOL0     C19536   1.207   7.140   8.974  0.4673  0.4475 -0.3059
  886MOL0     C19537   1.155   7.276   8.932  0.1608 -0.2875 -0.1082
  886MOL0     C19538   1.264   7.366   8.852 -0.4528  0.1449 -0.9122
  886MOL0     C19539   1.379   7.406   8.939  0.2164  0.8543  0.1991
  886MOL0     C19540   1.482   7.432   9.006 -0.8301  0.7112  0.6291
  886MOL0     C19541   1.240   6.808   9.106 -1.1282  0.4104  0.5113
  886MOL0     C19542   1.316   6.790   9.214 -0.3257 -0.2782 -0.4440
  886MOL0     H19543   1.647   6.740   9.589 -0.3295  2.3673  0.7217
  886MOL0     H19544   1.818   6.761   9.762 -0.6560 -2.5769 -0.8998
  886MOL0     H19545   2.090   7.069   9.855  0.1804 -1.8455 -0.7881
  886MOL0     H19546   2.050   7.099   9.691  2.0792 -1.0082  0.0313
  886MOL0     H19547   1.811   7.032   9.761  1.1231  1.2048 -1.5624
  886MOL0     H19548   1.869   7.052   9.926 -1.1099  0.5299  1.0439
  886MOL0     H19549   1.850   7.280   9.719  0.6104  0.9591  0.4649
  886MOL0     H19550   1.759   7.252   9.871 -0.1483 -0.5953 -1.2885
  886MOL0     H19551   1.994   7.280   9.983  0.0904 -2.3809 -1.3997
  886MOL0     H19552   2.058   7.281   9.815 -0.4970 -2.9207 -0.3867
  886MOL0     H19553   1.956   7.494   9.766 -0.2665  1.1519  0.5149
  886MOL0     H19554   1.840   7.474   9.905  0.1054 -0.1044 -0.2789
  886MOL0     H19555   1.997   7.660   9.948 -0.8554 -0.6464  1.2046
  886MOL0     H19556   2.018   7.524  10.061  0.2881  3.7727  1.7534
  886MOL0     H19557   2.238   7.593   9.995  0.0121 -1.5217  1.4172
  886MOL0     H19558   2.202   7.433   9.933 -2.1562 -0.8572  1.8246
  886MOL0     H19559   2.301   7.637   9.769 -0.8249  0.8236  2.0142
  886MOL0     H19560   2.127   7.654   9.737  1.3865 -0.2342 -0.6351
  886MOL0     H19561   2.060   7.504   9.522  0.5257  2.9227  0.7500
  886MOL0     H19562   2.138   7.195   9.375  1.0257 -1.2233  1.4666
  886MOL0     H19563   2.135   7.363   9.312 -0.2024 -1.2056  0.2737
  886MOL0     H19564   2.286   7.253   9.179  0.3154 -0.4947 -1.0294
  886MOL0     H19565   2.382   7.208   9.327  1.1208  3.2975  1.4668
  886MOL0     H19566   2.456   7.430   9.359 -0.6049  3.9288  0.2263
  886MOL0     H19567   2.344   7.490   9.243  1.4088  3.1310  2.3774
  886MOL0     H19568   2.584   7.462   9.159  1.5790 -0.9582 -2.0237
  886MOL0     H19569   2.476   7.363   9.061  1.4810  0.9947 -0.6368
  886MOL0     H19570   2.682   7.372   8.988 -2.3723 -2.1211 -0.4066
  886MOL0     H19571   2.929   7.273   8.755 -1.3239 -2.7755  2.3386
  886MOL0     H19572   2.816   7.408   8.792  0.5592 -0.4408  0.0000
  886MOL0     H19573   2.972   7.415   8.856 -2.2339  3.1609  0.5225
  886MOL0     H19574   3.246   7.173   8.714 -0.9045  3.6359  0.4168
  886MOL0     H19575   3.491   7.150   8.652  0.5611 -2.3765  0.6245
  886MOL0     H19576   3.665   6.973   8.784 -1.0227  0.8648  1.4318
  886MOL0     H19577   3.715   7.077   8.653 -0.8364 -2.4386 -1.0742
  886MOL0     H19578   3.916   6.983   8.698  0.2410  0.3905 -0.7900
  886MOL0     H19579   3.946   7.129   8.783 -0.3143  0.4844 -1.3455
  886MOL0     H19580   4.009   6.913   8.895  0.1263 -0.4654  1.6936
  886MOL0     H19581   3.832   6.873   8.919 -0.2901 -0.4909 -2.7020
  886MOL0     H19582   3.816   7.099   9.031 -2.8972 -3.4198  0.8057
  886MOL0     H19583   3.882   6.963   9.126 -1.2336  0.0947  0.1994
  886MOL0     H19584   4.064   7.185   8.995 -2.7788  3.0583  1.2179
  886MOL0     H19585   4.114   7.037   9.068  0.4456  2.2516 -1.5604
  886MOL0     H19586   4.051   7.291   9.192  2.8137 -0.4202 -1.2958
  886MOL0     H19587   3.947   7.166   9.258 -0.4856 -0.6528 -1.3713
  886MOL0     H19588   4.248   7.153   9.216  0.1697 -2.1606  0.0831
  886MOL0     H19589   4.148   7.037   9.308 -2.7117  1.5274  1.5737
  886MOL0     H19590   4.218   7.317   9.402  0.1003  0.0363 -1.3082
  886MOL0     H19591   4.255   7.172   9.479  2.6532  1.4390 -0.9103
  886MOL0     H19592   3.611   7.285   9.026  1.0708 -0.5944 -1.2735
  886MOL0     H19593   3.372   7.316   9.094 -0.5338 -1.1932  1.2278
  886MOL0     H19594   2.974   7.032   9.189  2.0804  2.5215  1.1133
  886MOL0     H19595   2.762   7.086   9.289  0.4099 -2.8814 -1.0828
  886MOL0     H19596   2.079   6.968   9.511  0.4238 -0.2289 -0.3792
  886MOL0     H19597   1.924   6.952   9.329 -0.9111 -0.0475  0.0169
  886MOL0     H19598   1.619   6.896   9.087 -0.3175 -0.5825 -0.4052
  886MOL0     H19599   1.461   6.944   8.895  2.0143 -2.5657  0.1310
  886MOL0     H19600   1.314   7.062   8.798  1.1578 -1.4717 -0.1991
  886MOL0     H19601   1.138   7.049   8.780  1.6892 -2.5262 -2.5542
  886MOL0     H19602   1.298   7.166   9.029  1.4505 -0.5849 -1.3897
  886MOL0     H19603   1.136   7.097   9.045  1.9740 -1.3145  0.2094
  886MOL0     H19604   1.114   7.336   9.014 -1.6535  0.9688 -1.8311
  886MOL0     H19605   1.067   7.262   8.869  0.4128 -0.4142 -0.4337
  886MOL0     H19606   1.219   7.458   8.815  1.1168  1.9598  1.3662
  886MOL0     H19607   1.298   7.315   8.761  3.6514 -0.3535  0.6772
  886MOL0     H19608   1.553   7.457   9.082 -0.4961 -0.8860  0.8817
  886MOL0     H19609   1.136   6.779   9.110 -1.9814  2.3158 -3.3835
  886MOL0     H19610   1.266   6.746   9.299 -0.6157 -2.1861 -1.5609
  887MOL0     O19611   1.373   7.998   7.674  0.1482  0.2801  0.5563
  887MOL0     C19612   1.302   8.052   7.759 -0.0522  0.3657 -0.0609
  887MOL0     O19613   1.250   8.180   7.753 -0.0144  0.2867 -0.0160
  887MOL0     C19614   1.263   8.241   7.630 -0.2499  0.1978  0.5083
  887MOL0     C19615   1.388   8.300   7.596 -0.4512  0.0491  0.5893
  887MOL0     C19616   1.406   8.369   7.474  0.0953 -0.6696  0.1474
  887MOL0     C19617   1.289   8.389   7.400 -0.4817 -0.5788 -0.0481
  887MOL0     O19618   1.276   8.460   7.283 -0.0821  0.2472 -0.7005
  887MOL0     C19619   1.385   8.465   7.196 -0.7102  0.1505 -0.4232
  887MOL0     C19620   1.333   8.506   7.063 -0.9863  0.1633 -0.0831
  887MOL0     C19621   1.215   8.426   7.020  0.8554  0.1264  0.6964
  887MOL0     C19622   1.159   8.468   6.878 -0.6441  0.6698 -0.1838
  887MOL0     C19623   1.015   8.423   6.858  0.8150 -0.0949  0.3781
  887MOL0     C19624   0.994   8.284   6.780  0.8713 -0.4443  0.0770
  887MOL0     C19625   0.853   8.228   6.747  0.2636 -0.1860 -0.9107
  887MOL0     C19626   0.758   8.316   6.647  0.7390  1.0583 -0.7937
  887MOL0     N19627   0.658   8.231   6.581  0.6660  0.3232 -0.0266
  887MOL0     C19628   0.556   8.162   6.642 -0.1629  1.2840  0.3524
  887MOL0     C19629   0.462   8.129   6.549 -0.8597 -0.1675  0.2910
  887MOL0     C19630   0.336   8.055   6.577  0.7894  0.2732  0.1812
  887MOL0     C19631   0.229   8.097   6.476 -0.8400  0.8624  0.5587
  887MOL0     C19632   0.087   8.055   6.514 -0.5061 -0.5413  0.3407
  887MOL0     C19633   0.027   8.168   6.601  0.3386 -0.5583 -0.2588
  887MOL0     O19634  -0.113   8.149   6.596  0.0790  0.2350 -0.1022
  887MOL0     C19635  -0.198   8.228   6.666  1.2465  0.6766  1.7399
  887MOL0     C19636  -0.170   8.345   6.731  0.0408 -0.5442  0.0551
  887MOL0     C19637  -0.267   8.435   6.779  0.1384  0.2033  0.3458
  887MOL0     C19638  -0.213   8.564   6.841 -0.7302 -0.1007  0.4190
  887MOL0     C19639  -0.403   8.396   6.759 -0.6774 -0.2729 -0.7162
  887MOL0     C19640  -0.513   8.493   6.777  0.2808 -0.0972  0.7803
  887MOL0     O19641  -0.630   8.459   6.817  0.3756  0.0727 -0.4682
  887MOL0     C19642  -0.734   8.547   6.811  0.1349 -0.2541 -0.7085
  887MOL0     C19643  -0.732   8.671   6.881 -0.0856 -0.1582  0.3949
  887MOL0     C19644  -0.842   8.753   6.868  0.2398 -1.5018  0.1067
  887MOL0     C19645  -0.951   8.721   6.788 -0.3560 -0.6814  0.5648
  887MOL0     O19646  -1.060   8.807   6.800 -0.4930  0.3157  1.0118
  887MOL0     C19647  -1.158   8.813   6.697 -0.0922 -0.5297  0.5105
  887MOL0     C19648  -1.195   8.961   6.687 -0.1566 -0.4730  0.2528
  887MOL0     C19649  -1.256   9.011   6.825 -0.3419 -0.8113  0.5671
  887MOL0     C19650  -1.285   9.160   6.821  1.0044 -0.0771 -0.6996
  887MOL0     C19651  -1.343   9.230   6.960  0.6351 -0.1749  0.6602
  887MOL0     C19652  -1.287   9.366   6.969 -0.0124 -0.1156  1.2562
  887MOL0     C19653  -1.349   9.474   6.883  0.2356 -1.3892 -1.4105
  887MOL0     C19654  -1.256   9.599   6.890 -1.3861  0.1609 -0.2963
  887MOL0    Cl19655  -1.350   9.722   6.801 -0.6613 -0.1718 -0.2449
  887MOL0     C19656  -0.956   8.603   6.717  0.1991 -0.7222 -0.0096
  887MOL0     C19657  -0.845   8.522   6.736 -0.2283 -0.0108 -0.1898
  887MOL0     O19658  -0.484   8.603   6.746  0.2028 -0.2341 -0.4794
  887MOL0     C19659  -0.432   8.265   6.711 -0.4049  0.1143 -0.7417
  887MOL0     C19660  -0.334   8.188   6.652 -0.3887  0.2415 -0.4317
  887MOL0     N19661   0.510   8.182   6.430 -1.2352 -0.1118 -0.2454
  887MOL0     N19662   0.631   8.233   6.447 -0.3014 -0.1430 -0.2109
  887MOL0     C19663   1.167   8.341   7.434  0.1204 -0.3518 -0.4661
  887MOL0     C19664   1.153   8.264   7.544  0.3246  0.1311  0.1789
  887MOL0     C19665   1.281   7.979   7.892 -0.0536 -0.0229 -0.1093
  887MOL0     C19666   1.365   7.871   7.916  0.3305 -0.7903  0.3519
  887MOL0     C19667   1.336   7.798   8.030  0.0964  0.0052 -0.1596
  887MOL0     C19668   1.218   7.825   8.109 -0.7842  0.3710 -0.8904
  887MOL0     O19669   1.193   7.735   8.205 -0.4734  0.3163 -0.8577
  887MOL0     C19670   1.058   7.719   8.247  0.3710 -0.3961  1.3217
  887MOL0     C19671   1.031   7.619   8.360  0.2058  0.0549  0.1226
  887MOL0     C19672   1.081   7.672   8.497  0.7691  0.3433  0.6148
  887MOL0     C19673   1.211   7.600   8.545  0.2524  0.0090  0.7692
  887MOL0     C19674   1.276   7.693   8.636 -0.2575  0.1474  0.9198
  887MOL0     C19675   1.313   7.760   8.729 -0.4162 -0.5061 -0.0309
  887MOL0     C19676   1.139   7.935   8.069 -0.2944 -0.0857 -0.2382
  887MOL0     C19677   1.167   8.014   7.961  0.8153 -0.4884  0.4053
  887MOL0     H19678   1.463   8.295   7.675 -0.4847  1.2506  0.7246
  887MOL0     H19679   1.500   8.411   7.439 -0.5354  0.9338  0.2951
  887MOL0     H19680   1.445   8.544   7.242 -1.9975 -1.2316  4.1241
  887MOL0     H19681   1.443   8.372   7.198  1.1422  1.2607  1.0756
  887MOL0     H19682   1.303   8.611   7.071 -2.1726 -0.1518 -0.1404
  887MOL0     H19683   1.414   8.499   6.990 -0.2416 -0.6515  0.7926
  887MOL0     H19684   1.234   8.319   7.006  1.2965  0.4762 -1.7696
  887MOL0     H19685   1.136   8.427   7.096  1.7418  0.2768  1.6340
  887MOL0     H19686   1.161   8.578   6.879  0.8726  0.6935  1.8278
  887MOL0     H19687   1.220   8.417   6.804  0.5321 -0.0975  1.2608
  887MOL0     H19688   0.943   8.422   6.941 -2.2708 -3.3577 -2.0197
  887MOL0     H19689   0.970   8.493   6.788 -2.3882 -1.1207  1.2357
  887MOL0     H19690   1.045   8.287   6.683  4.1928  1.5108  1.6979
  887MOL0     H19691   1.050   8.205   6.830 -0.5594 -1.3372  0.3168
  887MOL0     H19692   0.859   8.125   6.712 -1.7040  0.0551 -2.1214
  887MOL0     H19693   0.796   8.215   6.840  2.0479 -0.9101  0.1297
  887MOL0     H19694   0.823   8.369   6.576  2.4384  0.2805  0.1174
  887MOL0     H19695   0.705   8.398   6.695  4.2245  5.0625 -3.0747
  887MOL0     H19696   0.542   8.155   6.750  0.6219  3.1368  0.6213
  887MOL0     H19697   0.351   7.946   6.583  2.1439  0.5239  3.3828
  887MOL0     H19698   0.297   8.090   6.673 -0.6500 -1.1029  0.1377
  887MOL0     H19699   0.266   8.042   6.390  3.2056  1.3392  1.7727
  887MOL0     H19700   0.226   8.204   6.450  1.1362  0.0959 -3.6611
  887MOL0     H19701   0.093   7.961   6.570 -2.2646 -0.9008 -0.0238
  887MOL0     H19702   0.022   8.053   6.426  0.7077 -2.3041 -0.5618
  887MOL0     H19703   0.045   8.269   6.564 -3.5886  0.7885  1.0034
  887MOL0     H19704   0.070   8.170   6.702  1.8673 -1.4584 -0.8525
  887MOL0     H19705  -0.065   8.370   6.744  0.0225 -1.3652  2.0494
  887MOL0     H19706  -0.254   8.577   6.942 -1.5476  0.0504  0.0747
  887MOL0     H19707  -0.105   8.559   6.858 -0.9398 -0.8831  1.6572
  887MOL0     H19708  -0.239   8.652   6.781  3.2372 -0.9773 -3.0163
  887MOL0     H19709  -0.644   8.700   6.938  1.7349 -0.4031 -2.0639
  887MOL0     H19710  -0.833   8.847   6.921  3.4802 -0.9253 -1.2635
  887MOL0     H19711  -1.142   8.762   6.601 -2.4468  0.1392 -0.3036
  887MOL0     H19712  -1.244   8.761   6.739  1.0035 -3.6663 -0.8344
  887MOL0     H19713  -1.123   9.037   6.654 -0.6920  0.3639  0.9673
  887MOL0     H19714  -1.276   8.960   6.613  0.4646 -1.6484 -0.4480
  887MOL0     H19715  -1.181   8.991   6.901  0.3876 -1.5816 -0.3338
  887MOL0     H19716  -1.353   8.964   6.846  0.1632 -0.8299  3.1439
  887MOL0     H19717  -1.192   9.210   6.794  0.8788 -0.6759 -2.3588
  887MOL0     H19718  -1.357   9.184   6.742  2.4304  0.4967 -1.8573
  887MOL0     H19719  -1.309   9.166   7.042  2.3374 -4.2815 -2.8340
  887MOL0     H19720  -1.452   9.230   6.949  0.8616 -1.0794 -3.4039
  887MOL0     H19721  -1.290   9.397   7.074  1.4594 -0.9532  1.5785
  887MOL0     H19722  -1.179   9.362   6.950  0.6749  0.6945  4.4704
  887MOL0     H19723  -1.451   9.499   6.914  0.9357 -0.5143  0.3618
  887MOL0     H19724  -1.355   9.441   6.779 -1.1913 -1.3069 -1.3730
  887MOL0     H19725  -1.157   9.578   6.850 -0.1747 -1.6365  3.2173
  887MOL0     H19726  -1.245   9.640   6.991 -2.6625  2.4057 -0.9901
  887MOL0     H19727  -1.031   8.562   6.650  0.5196  1.2838 -1.7203
  887MOL0     H19728  -0.839   8.432   6.676 -0.2123 -0.1604  0.0349
  887MOL0     H19729  -0.534   8.232   6.696 -0.1465 -2.0659  1.6808
  887MOL0     H19730  -0.363   8.093   6.607 -1.2405 -1.3120  3.0439
  887MOL0     H19731   1.091   8.357   7.359 -0.6066 -2.1726 -0.1747
  887MOL0     H19732   1.057   8.234   7.583 -0.3748  0.7559 -1.0209
  887MOL0     H19733   1.441   7.836   7.848 -2.5811 -1.2910 -2.9385
  887MOL0     H19734   1.389   7.708   8.061 -1.6909 -1.1580 -0.3716
  887MOL0     H19735   1.028   7.821   8.275  3.6917  1.3824 -0.9959
  887MOL0     H19736   1.004   7.683   8.159  2.6961  0.8213 -0.7062
  887MOL0     H19737   1.077   7.525   8.329 -0.9064 -0.2854 -0.5915
  887MOL0     H19738   0.927   7.585   8.364 -0.0918  0.5659 -1.8632
  887MOL0     H19739   1.004   7.651   8.571 -1.9351 -0.0929 -2.1179
  887MOL0     H19740   1.086   7.781   8.501 -1.7741  0.6008 -0.9397
  887MOL0     H19741   1.277   7.570   8.463  0.2066  1.2304  0.2520
  887MOL0     H19742   1.176   7.507   8.590  0.9863 -0.8181 -0.3404
  887MOL0     H19743   1.340   7.829   8.805 -0.6320 -0.9396  0.4467
  887MOL0     H19744   1.049   7.966   8.122 -0.5382  1.3287 -1.4266
  887MOL0     H19745   1.090   8.088   7.942  0.5737 -0.4114  1.5781
  888MOL0     O19746   8.646   7.588   4.612 -0.8650 -0.1903 -0.1626
  888MOL0     C19747   8.711   7.574   4.509  0.0555  0.5638 -0.2816
  888MOL0     O19748   8.667   7.600   4.384 -0.4467 -0.6850 -0.2576
  888MOL0     C19749   8.536   7.652   4.395 -0.9583 -0.7006 -0.1860
  888MOL0     C19750   8.420   7.577   4.421  0.2209  0.1240 -0.6134
  888MOL0     C19751   8.296   7.648   4.447  0.3088  0.4378  0.4376
  888MOL0     C19752   8.288   7.786   4.445 -0.0415 -0.4602 -0.1986
  888MOL0     O19753   8.159   7.835   4.483 -0.1629  0.2219  0.8910
  888MOL0     C19754   8.118   7.977   4.468 -0.1946  0.7036 -0.4865
  888MOL0     C19755   7.965   7.985   4.468  0.1296  0.1717 -0.6257
  888MOL0     C19756   7.900   7.923   4.349 -0.1283  0.1592  0.3760
  888MOL0     C19757   7.816   8.023   4.269  0.2976 -0.3133  0.1577
  888MOL0     C19758   7.756   7.949   4.148  0.1560  1.0902 -0.6680
  888MOL0     C19759   7.629   8.030   4.098 -0.6535 -0.1452 -0.1374
  888MOL0     C19760   7.552   7.963   3.984  0.1103 -0.1929  0.6392
  888MOL0     C19761   7.540   7.809   4.007  0.1353 -0.1584  0.2086
  888MOL0     N19762   7.444   7.739   3.926  0.5446  0.2837  0.0402
  888MOL0     C19763   7.483   7.686   3.804  0.4731 -0.3382 -0.0028
  888MOL0     C19764   7.399   7.582   3.779 -0.6794  0.6480  0.1159
  888MOL0     C19765   7.397   7.492   3.654  0.2620  0.2467  0.8661
  888MOL0     C19766   7.275   7.511   3.571 -0.2218  0.5989  0.0525
  888MOL0     C19767   7.143   7.448   3.625  0.7234  0.2363 -0.0936
  888MOL0     C19768   7.047   7.387   3.519 -0.0517 -0.1815 -0.1122
  888MOL0     O19769   6.911   7.381   3.570  0.4570  0.3074 -0.1755
  888MOL0     C19770   6.806   7.383   3.472 -0.0037  0.1888 -0.2151
  888MOL0     C19771   6.823   7.362   3.334 -0.0456 -0.6025  0.8155
  888MOL0     C19772   6.721   7.368   3.237 -1.1000  1.0392  0.0234
  888MOL0     C19773   6.763   7.310   3.104  0.1790 -0.7096  0.1912
  888MOL0     C19774   6.593   7.386   3.278  0.5822 -0.2202 -0.3616
  888MOL0     C19775   6.471   7.357   3.194  1.1198 -0.3949 -0.4975
  888MOL0     O19776   6.352   7.415   3.226 -0.0169 -0.3326  0.0922
  888MOL0     C19777   6.233   7.399   3.161 -1.1579  1.0661 -0.5437
  888MOL0     C19778   6.123   7.424   3.238  0.5848  0.2536  0.8836
  888MOL0     C19779   5.991   7.420   3.189 -0.0968  0.0311 -0.1022
  888MOL0     C19780   5.968   7.412   3.050  0.9915  0.7387  1.0331
  888MOL0     O19781   5.846   7.427   2.978  0.4980  0.3977 -0.4082
  888MOL0     C19782   5.712   7.410   3.043  0.1536  0.2665  0.3513
  888MOL0     C19783   5.612   7.445   2.934  0.6885  0.8775 -0.4332
  888MOL0     C19784   5.589   7.599   2.915 -0.0360 -0.5608  0.2072
  888MOL0     C19785   5.463   7.644   2.981  0.1760  0.6356 -0.0282
  888MOL0     C19786   5.419   7.783   2.951  0.0377 -0.2030  0.1948
  888MOL0     C19787   5.420   7.822   2.805 -0.2379  0.3165  0.3251
  888MOL0     C19788   5.342   7.949   2.777 -0.5890  1.2817 -0.2846
  888MOL0     C19789   5.372   7.992   2.636  0.9355 -0.2999 -0.2764
  888MOL0    Cl19790   5.304   7.880   2.519  0.1084 -0.0416  0.1310
  888MOL0     C19791   6.078   7.377   2.962  0.2212  0.1853 -0.4280
  888MOL0     C19792   6.209   7.374   3.024 -0.3059 -0.1353 -0.2242
  888MOL0     O19793   6.485   7.273   3.107  0.4443  0.0469 -0.0277
  888MOL0     C19794   6.579   7.420   3.418  0.8656  0.6695 -0.6019
  888MOL0     C19795   6.685   7.421   3.511 -0.0322 -0.1774  0.4308
  888MOL0     N19796   7.311   7.572   3.890  0.7019 -0.4733  0.7600
  888MOL0     N19797   7.342   7.664   3.970  0.1060 -0.0426 -0.2553
  888MOL0     C19798   8.401   7.854   4.414 -0.2977 -0.7038  0.3657
  888MOL0     C19799   8.522   7.790   4.383  0.9564  0.4867 -0.2599
  888MOL0     C19800   8.847   7.515   4.525 -0.1294 -0.0002 -0.0151
  888MOL0     C19801   8.958   7.546   4.441  0.4832  0.1202  0.2788
  888MOL0     C19802   9.086   7.496   4.455 -0.4392  0.0023 -0.6000
  888MOL0     C19803   9.117   7.410   4.565 -0.1511  0.1641  0.3824
  888MOL0     O19804   9.239   7.339   4.588  0.9597 -0.1868 -0.0457
  888MOL0     C19805   9.329   7.313   4.478  0.4546  0.6116 -0.6436
  888MOL0     C19806   9.434   7.423   4.470 -0.7136  0.1937  0.3176
  888MOL0     C19807   9.514   7.419   4.341 -0.2139  0.7445  0.5478
  888MOL0     C19808   9.616   7.540   4.341 -0.3094 -0.0310  0.9934
  888MOL0     C19809   9.689   7.531   4.217 -0.2918 -0.8949 -0.6429
  888MOL0     C19810   9.740   7.503   4.111  0.1358 -0.3174  0.4730
  888MOL0     C19811   9.014   7.375   4.646  0.3321  0.1417  0.0751
  888MOL0     C19812   8.877   7.432   4.632  0.3458 -0.6882  0.1565
  888MOL0     H19813   8.424   7.469   4.414  0.3236  0.1427 -0.8642
  888MOL0     H19814   8.208   7.591   4.476  0.5394  0.5973  1.4976
  888MOL0     H19815   8.161   8.046   4.542  2.9813  0.8726 -2.3499
  888MOL0     H19816   8.160   8.025   4.379  0.1427 -0.0140 -0.7203
  888MOL0     H19817   7.928   7.934   4.557  1.9067  2.2970  1.4609
  888MOL0     H19818   7.932   8.089   4.475 -3.2297 -0.6402 -2.2425
  888MOL0     H19819   7.970   7.875   4.280 -1.6248 -0.7564 -0.5900
  888MOL0     H19820   7.826   7.845   4.373 -0.3015 -0.1372 -1.0350
  888MOL0     H19821   7.733   8.047   4.337  1.6785  1.2609  1.3738
  888MOL0     H19822   7.875   8.102   4.222  0.3777 -0.8543 -0.6681
  888MOL0     H19823   7.832   7.937   4.070 -0.6153 -1.4411 -1.1110
  888MOL0     H19824   7.720   7.849   4.172  0.8244  1.0152  0.0737
  888MOL0     H19825   7.564   8.035   4.185 -0.8741 -0.3446 -0.2893
  888MOL0     H19826   7.650   8.133   4.070 -1.2633  0.0306  0.0580
  888MOL0     H19827   7.451   8.004   3.987 -1.2683 -3.3661  1.0961
  888MOL0     H19828   7.614   7.979   3.895  0.9287  0.9133  1.3716
  888MOL0     H19829   7.516   7.796   4.113 -3.5777 -3.0247 -0.7930
  888MOL0     H19830   7.640   7.769   3.988  0.6297 -0.2869  2.7182
  888MOL0     H19831   7.564   7.731   3.746 -1.0916  1.8528 -0.6328
  888MOL0     H19832   7.487   7.523   3.600 -0.5335  1.4550  0.1926
  888MOL0     H19833   7.413   7.388   3.686 -2.0730 -0.8469 -1.1876
  888MOL0     H19834   7.293   7.460   3.475  1.1365  0.6379  0.2709
  888MOL0     H19835   7.256   7.615   3.545 -1.5780 -0.3138 -3.1624
  888MOL0     H19836   7.089   7.523   3.683  0.4171 -0.6171  0.7682
  888MOL0     H19837   7.165   7.378   3.707 -1.1932  0.9771  1.1351
  888MOL0     H19838   7.071   7.285   3.490 -2.0682 -1.0046  0.9249
  888MOL0     H19839   7.062   7.453   3.433  0.5435 -1.9411 -1.4061
  888MOL0     H19840   6.922   7.339   3.294  0.0046 -0.0312  0.6045
  888MOL0     H19841   6.799   7.207   3.111 -1.9466 -2.0381 -4.4097
  888MOL0     H19842   6.686   7.304   3.027  1.6349 -0.4049 -1.3568
  888MOL0     H19843   6.842   7.370   3.058 -0.0368 -0.8791 -0.4016
  888MOL0     H19844   6.132   7.436   3.346 -4.3679  1.9587  1.3818
  888MOL0     H19845   5.896   7.422   3.242 -0.6245  0.2405 -1.0111
  888MOL0     H19846   5.697   7.308   3.080  1.0120 -0.2094 -0.5717
  888MOL0     H19847   5.699   7.472   3.132 -0.7708  0.9138 -0.2150
  888MOL0     H19848   5.648   7.405   2.839  0.1679  2.5927 -1.4085
  888MOL0     H19849   5.520   7.395   2.964  1.4093  1.0591  2.3136
  888MOL0     H19850   5.582   7.604   2.806 -2.8717  0.4819  0.3576
  888MOL0     H19851   5.680   7.648   2.951  0.4613 -0.1438 -1.5118
  888MOL0     H19852   5.380   7.581   2.949  1.4528 -1.3082  0.3414
  888MOL0     H19853   5.468   7.613   3.085 -4.0330 -1.8653 -0.3367
  888MOL0     H19854   5.480   7.853   3.009 -1.7337  0.7362  1.0170
  888MOL0     H19855   5.316   7.784   2.990 -0.1790 -3.2211 -0.1091
  888MOL0     H19856   5.524   7.849   2.788 -0.6108  1.3117 -0.4758
  888MOL0     H19857   5.380   7.743   2.741 -0.7592  1.1497 -0.3988
  888MOL0     H19858   5.372   8.022   2.853  0.8011  1.0901 -0.6224
  888MOL0     H19859   5.235   7.930   2.793 -0.6091  1.3450 -0.3416
  888MOL0     H19860   5.480   8.004   2.620  0.7033  0.8664 -1.1399
  888MOL0     H19861   5.335   8.094   2.620 -0.3137 -0.7341 -0.2737
  888MOL0     H19862   6.058   7.366   2.855 -1.9369  1.9553 -0.2821
  888MOL0     H19863   6.298   7.356   2.965  2.0458  0.4188  2.8874
  888MOL0     H19864   6.481   7.451   3.450 -0.4201 -1.0734 -2.5744
  888MOL0     H19865   6.681   7.467   3.609 -2.7973  1.2052 -0.2293
  888MOL0     H19866   8.412   7.962   4.414  0.1229 -0.7425  0.0167
  888MOL0     H19867   8.608   7.847   4.350  2.1186 -0.4740  0.9885
  888MOL0     H19868   8.939   7.608   4.354 -0.7519 -2.9265 -1.8050
  888MOL0     H19869   9.170   7.510   4.387  1.1424  0.2519  1.2860
  888MOL0     H19870   9.381   7.219   4.496  1.9783  0.7704 -3.5916
  888MOL0     H19871   9.274   7.311   4.383  0.7489 -1.1298 -0.8113
  888MOL0     H19872   9.507   7.401   4.548  1.5099 -0.2086 -1.7607
  888MOL0     H19873   9.395   7.525   4.483  0.7443  0.9014 -0.6229
  888MOL0     H19874   9.454   7.421   4.250 -0.9242 -2.9526  0.7615
  888MOL0     H19875   9.579   7.331   4.345  0.3248  1.0237 -1.3682
  888MOL0     H19876   9.688   7.520   4.421  1.4853 -2.4560 -1.0767
  888MOL0     H19877   9.562   7.635   4.348 -1.0053 -0.1973 -1.2960
  888MOL0     H19878   9.773   7.471   4.014  0.8092  2.3286 -0.2566
  888MOL0     H19879   9.033   7.305   4.727  1.7487 -0.7314 -0.9786
  888MOL0     H19880   8.795   7.401   4.695 -1.3371 -1.4242 -2.2483
  889MOL0     O19881   3.350   7.648   7.646  0.0283 -0.2507  0.4970
  889MOL0     C19882   3.434   7.576   7.588 -0.4146  0.5565  0.3545
  889MOL0     O19883   3.414   7.456   7.526 -0.1896  0.6913 -0.2228
  889MOL0     C19884   3.288   7.412   7.500 -0.5067 -0.0265 -0.9433
  889MOL0     C19885   3.206   7.380   7.608  0.0404 -0.4423 -0.1124
  889MOL0     C19886   3.087   7.315   7.579  0.6619 -0.3179 -0.5194
  889MOL0     C19887   3.041   7.295   7.451  1.1578  0.8263 -0.3716
  889MOL0     O19888   2.921   7.245   7.419 -0.2722 -0.0987  0.6256
  889MOL0     C19889   2.832   7.209   7.522 -0.1451 -0.2095 -0.1097
  889MOL0     C19890   2.746   7.323   7.576  0.7050 -0.8900 -0.1304
  889MOL0     C19891   2.737   7.437   7.470  0.2214  0.3692 -0.6970
  889MOL0     C19892   2.624   7.534   7.513 -0.0622 -0.2908 -0.0419
  889MOL0     C19893   2.588   7.635   7.395 -0.6064 -0.0829 -1.0181
  889MOL0     C19894   2.489   7.755   7.443 -0.6991  0.6572  0.1473
  889MOL0     C19895   2.361   7.701   7.512 -0.4729  0.1036  0.0803
  889MOL0     C19896   2.371   7.718   7.657 -1.4598 -0.8824  0.4612
  889MOL0     N19897   2.262   7.657   7.730 -0.0118  0.5343  0.2853
  889MOL0     C19898   2.128   7.691   7.713  0.0301 -0.8066 -0.7822
  889MOL0     C19899   2.060   7.589   7.765  0.9573 -0.5886  0.8876
  889MOL0     C19900   1.903   7.583   7.783  0.5580  0.5252  0.0839
  889MOL0     C19901   1.855   7.575   7.928  0.3756  0.5190 -0.2396
  889MOL0     C19902   1.700   7.538   7.930  0.9220  0.2038  1.0800
  889MOL0     C19903   1.663   7.504   8.082 -0.6313  0.6726  0.0507
  889MOL0     O19904   1.528   7.512   8.112 -0.3285  0.1110  0.0429
  889MOL0     C19905   1.447   7.419   8.058  1.1544  0.4110 -0.5356
  889MOL0     C19906   1.490   7.294   8.000  0.6106 -0.1156 -0.1110
  889MOL0     C19907   1.391   7.193   7.953 -0.0661 -1.0076 -0.0744
  889MOL0     C19908   1.454   7.067   7.898 -0.8207 -0.0675 -0.7074
  889MOL0     C19909   1.254   7.222   7.967  0.1189 -0.1714  0.5798
  889MOL0     C19910   1.158   7.121   7.912 -1.0344  1.0161 -0.5459
  889MOL0     O19911   1.191   7.048   7.794  0.6622 -0.3550  0.4119
  889MOL0     C19912   1.079   6.982   7.738 -0.2800 -0.4749 -0.1104
  889MOL0     C19913   1.036   6.856   7.780 -0.4897 -0.6013  0.0689
  889MOL0     C19914   0.920   6.791   7.740 -0.1509 -0.0152  0.0592
  889MOL0     C19915   0.838   6.860   7.648  0.3428 -1.4523  0.3510
  889MOL0     O19916   0.722   6.824   7.589  0.0645 -0.2745 -0.0082
  889MOL0     C19917   0.695   6.686   7.589 -0.4163  0.0057 -0.2930
  889MOL0     C19918   0.585   6.683   7.479 -0.0922 -0.9440 -0.8880
  889MOL0     C19919   0.542   6.541   7.457  0.5952  0.0966 -0.2678
  889MOL0     C19920   0.460   6.511   7.336 -0.3696 -0.1404  0.0771
  889MOL0     C19921   0.324   6.576   7.345 -0.3426  0.2363 -0.2623
  889MOL0     C19922   0.243   6.580   7.219 -1.0296 -0.6882  0.0018
  889MOL0     C19923   0.196   6.444   7.154 -0.5491 -0.0783 -0.2552
  889MOL0     C19924   0.296   6.399   7.057 -1.1968  0.0896 -0.2031
  889MOL0    Cl19925   0.231   6.254   6.981  0.4977 -0.0123 -0.0496
  889MOL0     C19926   0.872   6.985   7.593  0.2819  1.2780 -0.1123
  889MOL0     C19927   0.994   7.037   7.643  0.0919  0.3608 -0.1588
  889MOL0     O19928   1.058   7.120   7.971  0.4787 -0.2919  0.4095
  889MOL0     C19929   1.213   7.341   8.026 -0.8637 -0.0193 -0.4889
  889MOL0     C19930   1.313   7.430   8.076 -0.4127  0.0566 -0.0401
  889MOL0     N19931   2.148   7.505   7.829 -0.4430  0.1151 -0.1518
  889MOL0     N19932   2.271   7.540   7.796  0.4437  0.0444 -0.2337
  889MOL0     C19933   3.127   7.344   7.351  0.1552 -0.1501 -0.2787
  889MOL0     C19934   3.250   7.398   7.374 -0.2085  0.1614  0.2888
  889MOL0     C19935   3.574   7.613   7.626  0.6188 -0.0081  0.1983
  889MOL0     C19936   3.680   7.550   7.565 -0.4826 -0.9726  1.0216
  889MOL0     C19937   3.807   7.580   7.601  0.4649  0.9425  0.1645
  889MOL0     C19938   3.844   7.681   7.685  0.7110 -0.3513 -0.0603
  889MOL0     O19939   3.974   7.714   7.700 -0.6666  0.0590 -0.2396
  889MOL0     C19940   4.045   7.763   7.589 -0.7568 -0.2437  0.2104
  889MOL0     C19941   4.021   7.914   7.573  0.3674 -0.3649 -0.3284
  889MOL0     C19942   4.033   7.987   7.438  0.0263 -0.0063  0.5247
  889MOL0     C19943   4.173   8.032   7.392 -0.0452  0.2801 -0.0106
  889MOL0     C19944   4.242   7.914   7.347  0.3867  0.1091  0.3834
  889MOL0     C19945   4.319   7.830   7.307  0.0703 -0.2394 -0.5819
  889MOL0     C19946   3.737   7.757   7.747  0.5608 -0.0919 -0.1729
  889MOL0     C19947   3.601   7.727   7.711 -0.3204 -0.3400  0.1139
  889MOL0     H19948   3.234   7.407   7.710 -1.0575  0.5153 -0.0316
  889MOL0     H19949   3.036   7.274   7.666  1.2771 -1.8969 -0.8804
  889MOL0     H19950   2.760   7.143   7.473  0.1284 -1.3749  1.0004
  889MOL0     H19951   2.875   7.142   7.597  1.9863 -0.3045 -1.3123
  889MOL0     H19952   2.642   7.302   7.602  0.0589  3.1952  1.2381
  889MOL0     H19953   2.796   7.354   7.668  0.0790 -0.7394  0.1621
  889MOL0     H19954   2.831   7.494   7.464  0.5158 -0.0740 -0.3526
  889MOL0     H19955   2.719   7.391   7.373 -2.1944  1.2765 -0.7347
  889MOL0     H19956   2.533   7.486   7.551  0.1725 -0.3639  0.4351
  889MOL0     H19957   2.661   7.591   7.599  3.3069 -2.0167 -0.2009
  889MOL0     H19958   2.687   7.671   7.366  1.3386 -3.7499  0.4682
  889MOL0     H19959   2.543   7.589   7.307 -0.4636 -0.7709 -0.7347
  889MOL0     H19960   2.554   7.815   7.507  1.8939 -1.5836 -0.1841
  889MOL0     H19961   2.453   7.822   7.365  0.9664  0.4011 -0.8982
  889MOL0     H19962   2.291   7.767   7.460  1.9306  2.3721 -0.5111
  889MOL0     H19963   2.340   7.598   7.482  0.0145  0.0571 -0.1188
  889MOL0     H19964   2.363   7.826   7.671  0.9009 -0.0927 -3.2053
  889MOL0     H19965   2.467   7.676   7.687  0.8996  2.6089 -1.5369
  889MOL0     H19966   2.082   7.771   7.656 -0.4767 -1.3342 -1.1319
  889MOL0     H19967   1.845   7.661   7.733  3.5416  0.5804 -3.7110
  889MOL0     H19968   1.870   7.487   7.741 -1.6821  0.8408  0.9807
  889MOL0     H19969   1.879   7.674   7.969 -0.2931  0.0634  1.3290
  889MOL0     H19970   1.914   7.497   7.977  0.5483  0.1493 -1.0130
  889MOL0     H19971   1.662   7.464   7.859 -1.7114  1.4165  1.0908
  889MOL0     H19972   1.639   7.628   7.917 -0.5914 -1.1244 -2.2740
  889MOL0     H19973   1.722   7.578   8.137  4.3621 -1.1273 -2.2588
  889MOL0     H19974   1.710   7.411   8.116  0.5408  0.1748 -2.6733
  889MOL0     H19975   1.595   7.278   7.977  0.3427 -2.7357  0.2572
  889MOL0     H19976   1.559   7.072   7.929 -1.1152  1.3691  0.1291
  889MOL0     H19977   1.411   6.978   7.946  3.2403 -1.3399  1.0524
  889MOL0     H19978   1.452   7.071   7.789  0.8821 -0.0005 -0.7767
  889MOL0     H19979   1.095   6.814   7.861 -0.7928 -2.6441 -0.7181
  889MOL0     H19980   0.891   6.705   7.799 -0.6510 -0.0966 -0.2952
  889MOL0     H19981   0.783   6.627   7.559 -1.1203 -0.8015 -0.8161
  889MOL0     H19982   0.658   6.653   7.686  0.7155  1.2881  0.6098
  889MOL0     H19983   0.496   6.738   7.508  1.0571 -0.7534  2.9025
  889MOL0     H19984   0.632   6.710   7.384 -0.9777  1.0940 -0.7950
  889MOL0     H19985   0.495   6.496   7.546 -0.6857  2.2660  0.2171
  889MOL0     H19986   0.642   6.501   7.440  0.4527 -0.2553 -0.2861
  889MOL0     H19987   0.517   6.532   7.245 -0.1618 -0.0758  0.2224
  889MOL0     H19988   0.453   6.404   7.316 -1.3489  0.2422 -2.0384
  889MOL0     H19989   0.331   6.680   7.379 -1.1886  0.0995  0.3459
  889MOL0     H19990   0.257   6.519   7.410 -0.9236  1.7199  0.4793
  889MOL0     H19991   0.154   6.642   7.227 -1.1557 -0.2735 -3.2721
  889MOL0     H19992   0.304   6.645   7.156 -2.3196  0.6085  0.0290
  889MOL0     H19993   0.099   6.453   7.105  0.3600  3.2162 -1.7207
  889MOL0     H19994   0.187   6.373   7.237  2.9871 -0.7056 -0.2650
  889MOL0     H19995   0.378   6.363   7.120  1.0418  0.8140 -2.4877
  889MOL0     H19996   0.317   6.478   6.983 -1.6113  0.6091  0.2333
  889MOL0     H19997   0.800   7.024   7.522 -0.1518 -2.1052 -1.7221
  889MOL0     H19998   1.042   7.127   7.605  0.2782  0.5967  0.6206
  889MOL0     H19999   1.109   7.366   8.047 -1.4719 -1.1403 -1.9725
  889MOL0     H20000   1.284   7.524   8.123  0.1044  0.2004  0.0069
  889MOL0     H20001   3.118   7.330   7.244  5.4647  0.7511 -1.1251
  889MOL0     H20002   3.309   7.418   7.286 -2.6721 -3.4249 -2.4633
  889MOL0     H20003   3.662   7.470   7.494 -1.6336  0.3226 -0.2242
  889MOL0     H20004   3.891   7.538   7.547 -0.7017 -0.8813 -0.3026
  889MOL0     H20005   4.146   7.739   7.624 -2.0312 -3.5365  2.1077
  889MOL0     H20006   4.032   7.711   7.494 -1.7634  1.1512 -0.4584
  889MOL0     H20007   4.086   7.967   7.643  1.4220 -1.2313 -0.6144
  889MOL0     H20008   3.918   7.936   7.602  0.1635  2.5265 -2.6901
  889MOL0     H20009   3.973   8.077   7.454  1.1339  0.5311  1.8754
  889MOL0     H20010   3.986   7.938   7.352 -0.0170  2.4384 -0.9710
  889MOL0     H20011   4.208   8.072   7.487 -2.2172 -0.2929  1.0996
  889MOL0     H20012   4.160   8.115   7.322 -0.0530  0.0655 -0.2707
  889MOL0     H20013   4.385   7.756   7.266  1.9352  0.3932  1.1141
  889MOL0     H20014   3.752   7.832   7.825 -0.2528  0.4402 -0.5164
  889MOL0     H20015   3.521   7.786   7.754 -3.3770 -0.6092 -4.4868
  890MOL0     O20016  10.262   0.545   7.856  0.1692 -0.1123 -0.5323
  890MOL0     C20017  10.332   0.468   7.927 -1.3198  0.0658  0.0322
  890MOL0     O20018  10.284   0.400   8.040  0.3368  0.0096  0.5179
  890MOL0     C20019  10.153   0.430   8.070 -0.6064 -0.0228  0.2218
  890MOL0     C20020  10.139   0.501   8.187 -0.0121 -0.3747  0.0709
  890MOL0     C20021  10.006   0.545   8.212  0.1018  0.2716  0.3386
  890MOL0     C20022   9.893   0.501   8.145 -0.9778  0.3078 -0.7161
  890MOL0     O20023   9.762   0.525   8.183 -0.0574  0.2527 -0.0554
  890MOL0     C20024   9.738   0.632   8.284 -0.3618  0.3684  0.8049
  890MOL0     C20025   9.583   0.627   8.315 -0.5670 -0.6111 -0.1955
  890MOL0     C20026   9.546   0.753   8.390  0.3387 -0.9906 -0.3117
  890MOL0     C20027   9.460   0.838   8.292 -0.3092 -0.2654 -0.4239
  890MOL0     C20028   9.405   0.969   8.346 -0.2311  0.7265  0.0045
  890MOL0     C20029   9.311   0.945   8.470  0.2382 -0.1093 -0.0867
  890MOL0     C20030   9.218   1.069   8.495 -0.6836 -0.7012 -0.3939
  890MOL0     C20031   9.119   1.068   8.610  0.4257  0.1736  0.0150
  890MOL0     N20032   9.033   1.188   8.600  0.8829  0.5062  0.3359
  890MOL0     C20033   8.970   1.236   8.491  0.0386  0.3095  0.3746
  890MOL0     C20034   8.896   1.339   8.525  0.5432 -0.2852  0.0544
  890MOL0     C20035   8.824   1.435   8.436  1.0385 -0.1355  0.2998
  890MOL0     C20036   8.672   1.405   8.431 -0.0179 -0.2453 -0.2726
  890MOL0     C20037   8.604   1.516   8.354 -0.6689 -0.1676  0.5486
  890MOL0     C20038   8.466   1.478   8.298 -0.0071 -0.6534 -0.2609
  890MOL0     O20039   8.385   1.442   8.407 -0.5791 -0.3418 -0.1821
  890MOL0     C20040   8.281   1.358   8.378  0.3387 -0.1153 -0.3392
  890MOL0     C20041   8.215   1.358   8.246 -1.1750  0.0240 -0.4370
  890MOL0     C20042   8.123   1.261   8.216 -0.1114 -0.5939 -0.4640
  890MOL0     C20043   8.072   1.260   8.070  0.0294 -0.1997 -0.7712
  890MOL0     C20044   8.084   1.164   8.318 -1.1118 -0.5372  0.3518
  890MOL0     C20045   7.998   1.050   8.291 -0.4479  0.3428 -0.2841
  890MOL0     O20046   7.986   0.951   8.382 -0.0188  0.9155  0.3648
  890MOL0     C20047   7.906   0.842   8.362  0.2434 -0.2046  0.5624
  890MOL0     C20048   7.768   0.860   8.337  0.6272  0.0137 -0.9235
  890MOL0     C20049   7.696   0.760   8.283  0.1371  0.1976  1.3863
  890MOL0     C20050   7.756   0.630   8.254  0.2958  1.2997 -0.0468
  890MOL0     O20051   7.695   0.524   8.191  0.8006  1.0434 -0.1825
  890MOL0     C20052   7.563   0.501   8.236 -0.8883  0.1847  0.5591
  890MOL0     C20053   7.511   0.401   8.135  0.1317 -0.4699  0.3110
  890MOL0     C20054   7.385   0.323   8.185  0.0749 -0.3180 -0.5695
  890MOL0     C20055   7.365   0.192   8.106 -0.3918  0.1578 -0.1432
  890MOL0     C20056   7.242   0.127   8.166  0.7404  1.0217  0.3307
  890MOL0     C20057   7.261   0.072   8.299 -1.5328  1.3736 -0.5163
  890MOL0     C20058   7.386  -0.017   8.326  0.0922  0.6099  0.4631
  890MOL0     C20059   7.375  -0.151   8.272 -0.2030 -0.5989 -0.8056
  890MOL0    Cl20060   7.530  -0.239   8.279  0.0083 -0.1871 -0.4912
  890MOL0     C20061   7.886   0.603   8.295  0.3062 -0.0208  0.6573
  890MOL0     C20062   7.963   0.713   8.343 -0.5178 -0.3304  0.4609
  890MOL0     O20063   7.936   1.049   8.182  0.1372 -0.7005  0.3446
  890MOL0     C20064   8.140   1.173   8.451  0.4119 -0.8004 -0.5612
  890MOL0     C20065   8.234   1.271   8.479 -0.5594 -0.1229 -0.2520
  890MOL0     N20066   8.912   1.359   8.658 -0.0537 -0.7448 -0.0292
  890MOL0     N20067   8.998   1.271   8.703 -0.2715 -0.2662 -0.3096
  890MOL0     C20068   9.916   0.437   8.020 -0.1538  0.0930 -0.4098
  890MOL0     C20069  10.045   0.397   7.981 -0.3719  0.7492  0.2409
  890MOL0     C20070  10.469   0.424   7.868 -0.6378 -0.4120 -0.1664
  890MOL0     C20071  10.484   0.464   7.735 -0.3958  0.5472 -0.0566
  890MOL0     C20072  10.602   0.425   7.670 -0.0945  0.0761  0.0118
  890MOL0     C20073  10.700   0.339   7.726 -0.6093 -0.7335 -0.2908
  890MOL0     O20074  10.810   0.305   7.662 -0.1920 -0.2299  0.0735
  890MOL0     C20075  10.925   0.382   7.701 -0.3663  0.1576  0.6137
  890MOL0     C20076  11.003   0.419   7.575 -0.0505  0.3147  0.0553
  890MOL0     C20077  11.063   0.295   7.515  0.0545  1.4516  0.1621
  890MOL0     C20078  11.178   0.320   7.411  0.1330 -0.1195 -0.5647
  890MOL0     C20079  11.303   0.374   7.478 -0.1317  0.2940 -0.4526
  890MOL0     C20080  11.396   0.410   7.537 -0.2911 -0.4554  0.6691
  890MOL0     C20081  10.666   0.298   7.861  0.6959  0.6887 -1.1726
  890MOL0     C20082  10.552   0.338   7.927  0.2008  0.4682  0.6398
  890MOL0     H20083  10.218   0.555   8.237 -1.5784 -0.3993  2.7987
  890MOL0     H20084   9.990   0.603   8.303 -0.1648 -0.7725  0.9676
  890MOL0     H20085   9.779   0.618   8.384 -0.7458  0.8965  1.0411
  890MOL0     H20086   9.777   0.725   8.243 -0.5119  0.5023  0.9641
  890MOL0     H20087   9.527   0.609   8.223 -0.7344 -0.9206 -0.0328
  890MOL0     H20088   9.571   0.536   8.374 -1.3990 -0.0583  0.5142
  890MOL0     H20089   9.477   0.713   8.464  1.0362 -0.4418  0.6506
  890MOL0     H20090   9.633   0.814   8.418 -0.1257  0.3519 -1.6385
  890MOL0     H20091   9.521   0.862   8.205 -0.7967 -1.6330 -1.1727
  890MOL0     H20092   9.387   0.772   8.244  1.4543 -1.9254 -0.9726
  890MOL0     H20093   9.501   1.014   8.372  0.5249 -0.3935 -0.7510
  890MOL0     H20094   9.366   1.027   8.262 -1.0365 -0.0033 -0.1391
  890MOL0     H20095   9.245   0.862   8.447 -1.6807  1.1376  0.7001
  890MOL0     H20096   9.365   0.926   8.563 -2.7107 -1.7406  1.4158
  890MOL0     H20097   9.290   1.151   8.506  0.1955 -1.2559 -1.7160
  890MOL0     H20098   9.161   1.081   8.402  0.4557 -2.3762 -1.3458
  890MOL0     H20099   9.165   1.065   8.709 -0.1958 -0.4959  0.2968
  890MOL0     H20100   9.052   0.981   8.603 -2.5718  2.4401 -1.9847
  890MOL0     H20101   8.975   1.196   8.390  0.1581 -0.7531  0.7934
  890MOL0     H20102   8.839   1.540   8.464 -1.1876  0.9945 -2.2801
  890MOL0     H20103   8.864   1.426   8.334 -2.2148 -1.5637 -1.0060
  890MOL0     H20104   8.628   1.409   8.531 -1.3041 -0.3103 -0.8243
  890MOL0     H20105   8.653   1.314   8.374 -1.3698  0.3183 -0.7831
  890MOL0     H20106   8.666   1.544   8.269 -1.7087 -0.4492 -0.3219
  890MOL0     H20107   8.587   1.610   8.407 -2.8564  1.1043 -2.1365
  890MOL0     H20108   8.483   1.394   8.230  0.7385 -2.3152  1.8688
  890MOL0     H20109   8.410   1.554   8.241 -2.2714 -0.4737  2.0433
  890MOL0     H20110   8.235   1.428   8.166 -0.9182 -0.4417 -0.7876
  890MOL0     H20111   8.120   1.338   8.009  0.8331 -0.5868 -0.6492
  890MOL0     H20112   8.093   1.165   8.021 -3.0824 -0.4795 -1.7881
  890MOL0     H20113   7.964   1.275   8.073  0.1657  0.9428  2.0270
  890MOL0     H20114   7.732   0.960   8.358  0.4550 -0.1740 -0.3237
  890MOL0     H20115   7.593   0.786   8.263 -0.3443 -1.5497  1.3985
  890MOL0     H20116   7.562   0.462   8.338  0.8692  0.1520  0.5943
  890MOL0     H20117   7.502   0.591   8.225  1.8024  1.9801 -0.6999
  890MOL0     H20118   7.483   0.455   8.044 -0.3256  0.1657  0.8191
  890MOL0     H20119   7.584   0.322   8.115  0.2736 -0.6050  1.2913
  890MOL0     H20120   7.296   0.385   8.166 -0.6094 -1.6004 -1.6719
  890MOL0     H20121   7.406   0.294   8.288  1.9162  1.4815 -0.3680
  890MOL0     H20122   7.337   0.203   8.001 -1.5135 -3.3807 -0.3524
  890MOL0     H20123   7.454   0.129   8.101 -0.3110  0.3560 -1.4617
  890MOL0     H20124   7.207   0.051   8.096  0.2907  0.1431  1.4765
  890MOL0     H20125   7.162   0.201   8.176 -0.6109 -0.2039 -0.9883
  890MOL0     H20126   7.271   0.154   8.371 -0.5028  1.2403 -0.4922
  890MOL0     H20127   7.182   0.000   8.324 -0.2909 -0.1684 -0.8310
  890MOL0     H20128   7.403  -0.026   8.434  0.1672  4.8620  0.9762
  890MOL0     H20129   7.480   0.028   8.292 -1.7270  2.7122 -2.1884
  890MOL0     H20130   7.349  -0.150   8.165 -2.3040 -2.5223 -0.3889
  890MOL0     H20131   7.306  -0.210   8.333  1.2084 -2.6133 -1.0405
  890MOL0     H20132   7.922   0.501   8.298  1.5078  0.2295 -1.9201
  890MOL0     H20133   8.066   0.689   8.366 -0.7106 -3.0131 -1.1066
  890MOL0     H20134   8.112   1.104   8.530 -0.0154  1.2271  1.1491
  890MOL0     H20135   8.292   1.267   8.571  2.5295  0.3607 -2.0368
  890MOL0     H20136   9.833   0.407   7.957  1.1157  1.5373 -2.9353
  890MOL0     H20137  10.070   0.349   7.888  0.0573  1.1171  0.1624
  890MOL0     H20138  10.420   0.538   7.688  1.1869  1.0786 -1.4847
  890MOL0     H20139  10.614   0.469   7.572  1.2092 -0.1945  0.0323
  890MOL0     H20140  10.890   0.476   7.745 -0.6172  1.1055 -1.4824
  890MOL0     H20141  10.976   0.319   7.774  0.1095  0.1101  0.2414
  890MOL0     H20142  11.083   0.479   7.619  2.1598 -0.6273 -2.4455
  890MOL0     H20143  10.947   0.475   7.500  3.2740 -1.3548 -4.0603
  890MOL0     H20144  10.982   0.242   7.463 -0.3972  0.8895  1.3876
  890MOL0     H20145  11.105   0.227   7.590  0.1389  0.7710 -0.4921
  890MOL0     H20146  11.137   0.399   7.347  0.1609  0.3846  0.0170
  890MOL0     H20147  11.199   0.229   7.354  4.7157 -0.8956  1.8890
  890MOL0     H20148  11.485   0.448   7.584  0.9959 -1.4283 -0.8375
  890MOL0     H20149  10.748   0.252   7.915  0.0777 -1.0245 -1.6208
  890MOL0     H20150  10.537   0.302   8.028 -2.5900 -1.9404 -0.4758
  891MOL0     O20151   5.426   2.567   5.628  0.1063  0.0646  1.2301
  891MOL0     C20152   5.401   2.677   5.578  1.4583  0.1531 -0.1075
  891MOL0     O20153   5.453   2.792   5.621 -0.2783  0.0773 -1.2014
  891MOL0     C20154   5.536   2.776   5.733 -0.8079 -0.3198  0.5845
  891MOL0     C20155   5.670   2.764   5.717  0.7501  0.1104  0.1435
  891MOL0     C20156   5.752   2.742   5.829 -0.6203 -0.7894  0.7711
  891MOL0     C20157   5.700   2.725   5.956  0.3195 -0.1865 -0.0130
  891MOL0     O20158   5.795   2.718   6.055 -0.2995 -0.2859 -0.2301
  891MOL0     C20159   5.768   2.803   6.164  0.5875  1.2604 -0.7893
  891MOL0     C20160   5.888   2.807   6.259  0.5834 -0.7880  0.1679
  891MOL0     C20161   6.019   2.860   6.192 -1.1357 -0.3194  0.4858
  891MOL0     C20162   6.115   2.911   6.299 -0.2381  0.3848 -1.1878
  891MOL0     C20163   6.264   2.873   6.283  0.3150 -0.5851  0.6073
  891MOL0     C20164   6.343   2.932   6.162  0.6013  0.3666 -0.9653
  891MOL0     C20165   6.459   2.841   6.129  0.0450  0.8260  0.1797
  891MOL0     C20166   6.403   2.732   6.036 -0.3223 -0.0527 -0.5305
  891MOL0     N20167   6.500   2.625   6.014  0.0624  1.2733  0.4493
  891MOL0     C20168   6.590   2.572   6.098  0.1400  0.6407 -0.5094
  891MOL0     C20169   6.659   2.479   6.034 -0.4007 -0.2170  0.4857
  891MOL0     C20170   6.769   2.401   6.097  0.1140  0.8486 -0.0379
  891MOL0     C20171   6.767   2.256   6.066 -0.3937  1.1165  0.4398
  891MOL0     C20172   6.656   2.173   6.129  0.3056 -0.2428  0.3596
  891MOL0     C20173   6.665   2.026   6.097 -0.3779 -0.0432 -0.2932
  891MOL0     O20174   6.569   1.954   6.162 -0.8006  0.2812 -0.1341
  891MOL0     C20175   6.442   1.952   6.115  0.3368  0.0713  0.0857
  891MOL0     C20176   6.386   2.012   6.005  0.3300  0.4351 -0.6713
  891MOL0     C20177   6.252   1.999   5.961 -0.0902 -0.1697  0.0462
  891MOL0     C20178   6.215   2.083   5.846  1.3054  1.0514  0.2203
  891MOL0     C20179   6.161   1.909   6.031 -0.8395 -0.8498  0.1135
  891MOL0     C20180   6.022   1.880   5.985  0.0649  0.1656 -0.3178
  891MOL0     O20181   5.981   1.885   5.864 -0.3470  0.3171 -0.1856
  891MOL0     C20182   5.863   1.837   5.809 -0.0594 -0.3781  0.6756
  891MOL0     C20183   5.848   1.869   5.670  0.0580  0.1884 -0.1685
  891MOL0     C20184   5.737   1.821   5.592 -1.2050 -0.1924 -0.5889
  891MOL0     C20185   5.642   1.740   5.659  0.8945 -0.4794 -0.5668
  891MOL0     O20186   5.531   1.702   5.590  0.5210 -0.4879  0.5669
  891MOL0     C20187   5.414   1.726   5.665  0.9231 -0.5023 -1.1285
  891MOL0     C20188   5.279   1.694   5.584 -0.1624 -0.6142  0.5583
  891MOL0     C20189   5.261   1.535   5.562  0.3886 -0.5296 -0.0472
  891MOL0     C20190   5.166   1.465   5.657 -0.9351 -0.1692  0.9858
  891MOL0     C20191   5.036   1.411   5.598  0.3400  0.4414 -1.1066
  891MOL0     C20192   4.961   1.345   5.707  0.9092 -0.5662  0.1569
  891MOL0     C20193   4.835   1.265   5.642 -0.0335  0.6473 -0.1851
  891MOL0     C20194   4.741   1.197   5.734 -0.8082 -0.1018  0.8598
  891MOL0    Cl20195   4.811   1.039   5.798 -0.4458  0.3077  0.2474
  891MOL0     C20196   5.665   1.708   5.790  0.5547  0.1736 -0.3811
  891MOL0     C20197   5.772   1.755   5.868 -0.9930 -0.3908  0.1123
  891MOL0     O20198   5.949   1.865   6.085  0.3130 -0.4936  1.0984
  891MOL0     C20199   6.227   1.841   6.143 -0.2712 -1.0023  0.0990
  891MOL0     C20200   6.355   1.867   6.181 -0.3554  0.7900 -0.0402
  891MOL0     N20201   6.626   2.487   5.899 -0.1624  0.2479  0.3803
  891MOL0     N20202   6.535   2.577   5.890  0.3416  0.3462 -0.3414
  891MOL0     C20203   5.561   2.736   5.980 -0.9351  1.2062  0.0428
  891MOL0     C20204   5.484   2.759   5.867  0.2153  0.2163 -0.0756
  891MOL0     C20205   5.316   2.674   5.453  0.5624  0.1481  0.2367
  891MOL0     C20206   5.277   2.551   5.405 -0.6053  0.2792 -0.6291
  891MOL0     C20207   5.208   2.543   5.281 -0.2226 -0.3040 -0.4820
  891MOL0     C20208   5.182   2.660   5.216 -0.8129 -0.2897 -0.6238
  891MOL0     O20209   5.129   2.673   5.090 -0.1960  0.3759  0.4524
  891MOL0     C20210   5.048   2.566   5.027  0.4736 -0.1353 -1.2510
  891MOL0     C20211   4.895   2.577   5.069  0.6200  0.3646 -0.4507
  891MOL0     C20212   4.810   2.487   4.979 -0.1744  0.3965  0.8112
  891MOL0     C20213   4.862   2.334   4.983  0.4137  0.0470 -0.0298
  891MOL0     C20214   4.866   2.294   5.122  0.4393  0.3151  0.3156
  891MOL0     C20215   4.860   2.261   5.238  0.2279 -0.1060  0.3735
  891MOL0     C20216   5.212   2.779   5.277 -0.2310 -0.2363 -0.2236
  891MOL0     C20217   5.281   2.790   5.398 -0.3926 -0.5168  0.3339
  891MOL0     H20218   5.711   2.772   5.617  0.4502  1.2575  0.1058
  891MOL0     H20219   5.860   2.744   5.822 -0.5653  0.1736  1.7522
  891MOL0     H20220   5.734   2.904   6.142 -1.4758  1.2637  1.8713
  891MOL0     H20221   5.684   2.766   6.223 -0.4421  2.6586 -1.3123
  891MOL0     H20222   5.864   2.868   6.347 -0.3407  0.2857 -0.8030
  891MOL0     H20223   5.916   2.707   6.293  0.5431 -0.1565  2.2130
  891MOL0     H20224   6.077   2.788   6.134 -2.1713 -1.8124  1.2312
  891MOL0     H20225   5.992   2.939   6.121  2.4378  0.7009  0.0416
  891MOL0     H20226   6.107   3.019   6.310  2.0078  0.4273  1.3538
  891MOL0     H20227   6.094   2.867   6.397 -0.9794 -0.3595 -1.6728
  891MOL0     H20228   6.318   2.907   6.372  0.4547  2.8005 -0.6086
  891MOL0     H20229   6.261   2.764   6.278 -0.5440 -0.6147  1.4653
  891MOL0     H20230   6.266   2.947   6.085 -1.0817 -1.4723  0.2469
  891MOL0     H20231   6.393   3.024   6.191  1.3324 -0.6014  1.0011
  891MOL0     H20232   6.537   2.884   6.065  0.0712 -0.8394 -0.9904
  891MOL0     H20233   6.502   2.801   6.221 -1.7830 -0.5298  0.5000
  891MOL0     H20234   6.373   2.775   5.940 -2.3136 -2.3146 -1.0225
  891MOL0     H20235   6.316   2.686   6.085  1.0114 -0.7130  1.3009
  891MOL0     H20236   6.600   2.575   6.206  0.4777  1.8861 -0.5690
  891MOL0     H20237   6.862   2.445   6.062  0.3856  1.1745  1.0483
  891MOL0     H20238   6.773   2.423   6.205 -4.3211 -0.8719  0.7219
  891MOL0     H20239   6.857   2.201   6.096 -1.8301 -2.0999 -0.6754
  891MOL0     H20240   6.762   2.229   5.960  0.3190  0.7413  0.4989
  891MOL0     H20241   6.562   2.215   6.091 -0.5030 -3.0048 -0.9471
  891MOL0     H20242   6.671   2.183   6.237  0.9279  1.3588  0.1585
  891MOL0     H20243   6.755   1.975   6.134 -0.8238 -0.9165 -0.3933
  891MOL0     H20244   6.664   1.997   5.991 -2.3738 -1.7280  0.1318
  891MOL0     H20245   6.447   2.078   5.944 -0.0111 -1.3232 -3.0343
  891MOL0     H20246   6.110   2.114   5.844  1.6288  2.3935  1.9803
  891MOL0     H20247   6.254   2.184   5.859  0.6032  1.5895 -1.6220
  891MOL0     H20248   6.244   2.042   5.749 -1.2140 -1.7841  0.5227
  891MOL0     H20249   5.918   1.941   5.627  2.2665 -1.5474  0.3581
  891MOL0     H20250   5.713   1.841   5.488 -0.3270  0.7927 -0.6186
  891MOL0     H20251   5.409   1.667   5.758  0.1863  1.1070 -0.1085
  891MOL0     H20252   5.419   1.832   5.688  3.2782 -0.7039 -0.4533
  891MOL0     H20253   5.197   1.750   5.631 -0.8606  0.8850 -2.2345
  891MOL0     H20254   5.298   1.750   5.492 -0.4664 -2.6119 -0.7844
  891MOL0     H20255   5.356   1.481   5.568  1.2102  1.0139  1.8869
  891MOL0     H20256   5.225   1.520   5.460  3.7046 -3.0399 -1.0230
  891MOL0     H20257   5.225   1.392   5.712 -0.4280 -2.2827 -2.1045
  891MOL0     H20258   5.135   1.536   5.735 -0.3405  2.6269 -1.1456
  891MOL0     H20259   5.053   1.333   5.524 -0.4003  0.5344 -1.3877
  891MOL0     H20260   4.976   1.491   5.554 -1.7312  0.8613  2.1241
  891MOL0     H20261   5.035   1.291   5.767  1.6056  1.5458  1.3520
  891MOL0     H20262   4.919   1.420   5.776 -1.9205 -1.1249 -0.8532
  891MOL0     H20263   4.882   1.191   5.576 -0.6950 -0.6260  0.7201
  891MOL0     H20264   4.776   1.334   5.581  0.2026  0.7584 -0.2901
  891MOL0     H20265   4.643   1.174   5.690 -0.2638  0.0016 -0.4573
  891MOL0     H20266   4.706   1.265   5.813  3.6457  1.1040  2.0512
  891MOL0     H20267   5.606   1.636   5.847 -1.3563  2.0691  0.1846
  891MOL0     H20268   5.794   1.718   5.968  1.3565  1.5390  0.3934
  891MOL0     H20269   6.169   1.772   6.204  1.5362  0.6226  3.9843
  891MOL0     H20270   6.379   1.804   6.266  1.4571 -0.6663 -1.5458
  891MOL0     H20271   5.526   2.713   6.080  1.5126 -1.5030  0.4113
  891MOL0     H20272   5.376   2.754   5.882  0.3423 -0.4412  0.6328
  891MOL0     H20273   5.308   2.459   5.454  2.6959  1.4653 -0.2682
  891MOL0     H20274   5.169   2.449   5.245 -3.1994  0.4969  0.3250
  891MOL0     H20275   5.053   2.574   4.918 -0.1639  2.2806 -1.1760
  891MOL0     H20276   5.070   2.465   5.061 -2.2778 -0.0555  1.1697
  891MOL0     H20277   4.865   2.680   5.048  0.5928  1.5592  4.2867
  891MOL0     H20278   4.872   2.574   5.176 -1.3489  2.9847 -0.6833
  891MOL0     H20279   4.810   2.518   4.874 -3.4202  1.2431  0.9737
  891MOL0     H20280   4.709   2.490   5.020 -0.8361 -1.9438 -0.4704
  891MOL0     H20281   4.960   2.331   4.934  1.4109  2.0263  1.6795
  891MOL0     H20282   4.798   2.275   4.918  0.3466  0.0937 -0.0065
  891MOL0     H20283   4.855   2.236   5.342  1.8240  1.1769  0.7863
  891MOL0     H20284   5.200   2.879   5.238 -0.8861  0.2790  1.2417
  891MOL0     H20285   5.307   2.883   5.449  2.1294 -0.7675 -0.3285
  892MOL0     O20286   2.871   9.473   5.822 -0.0818 -0.3991 -0.4230
  892MOL0     C20287   2.904   9.587   5.870 -0.4256 -0.3783 -0.7280
  892MOL0     O20288   2.869   9.713   5.818  0.0931  0.6455  0.5678
  892MOL0     C20289   2.793   9.700   5.703 -0.2960 -0.1753 -1.0132
  892MOL0     C20290   2.657   9.663   5.715 -0.6766 -0.7362  0.5949
  892MOL0     C20291   2.575   9.670   5.605 -0.5577  0.3209 -0.4192
  892MOL0     C20292   2.616   9.721   5.488 -0.2422  0.3287  0.4542
  892MOL0     O20293   2.517   9.736   5.404  0.6262  0.0847 -1.0380
  892MOL0     C20294   2.534   9.788   5.266  0.1844  0.0328 -0.1982
  892MOL0     C20295   2.405   9.833   5.213  1.0254 -0.0383 -0.3147
  892MOL0     C20296   2.406   9.841   5.062 -0.5581 -0.1220  0.6345
  892MOL0     C20297   2.275   9.895   5.015 -0.5127 -0.0370  0.2206
  892MOL0     C20298   2.228   9.824   4.895  0.0111 -0.8692 -0.4063
  892MOL0     C20299   2.097   9.881   4.847  0.1934 -0.2932  0.3122
  892MOL0     C20300   2.036   9.805   4.727 -0.2852  0.4336 -0.1891
  892MOL0     C20301   1.933   9.898   4.649 -0.9341  0.8058  0.5056
  892MOL0     N20302   1.841   9.956   4.746 -0.2069 -0.3703  0.2258
  892MOL0     C20303   1.780  10.078   4.754  0.2172 -0.4797  0.3882
  892MOL0     C20304   1.703  10.083   4.864  0.3958  0.8817 -0.4707
  892MOL0     C20305   1.606  10.185   4.914  0.7967  0.4704  0.7620
  892MOL0     C20306   1.662  10.282   5.019 -0.3887  1.0702  0.4888
  892MOL0     C20307   1.584  10.407   5.034 -0.1968 -0.5132 -0.7200
  892MOL0     C20308   1.467  10.381   5.126 -0.0861 -0.9636  0.0606
  892MOL0     O20309   1.398  10.498   5.153 -0.0025  0.7358  0.1168
  892MOL0     C20310   1.265  10.494   5.179  0.7543 -1.1840 -0.5708
  892MOL0     C20311   1.212  10.627   5.193 -0.4635  0.9344 -0.3435
  892MOL0     C20312   1.077  10.641   5.216 -0.5788  0.6745  0.8397
  892MOL0     C20313   1.011  10.774   5.182  0.2338  0.4131 -0.8476
  892MOL0     C20314   0.999  10.532   5.238  0.2905 -0.3888 -1.1223
  892MOL0     C20315   0.848  10.534   5.250  0.0169  0.7393  0.7903
  892MOL0     O20316   0.796  10.642   5.316 -0.1863  1.2399 -0.0831
  892MOL0     C20317   0.660  10.643   5.350  0.0906  0.2074 -0.3173
  892MOL0     C20318   0.639  10.628   5.484  0.1914 -0.4798 -0.4624
  892MOL0     C20319   0.507  10.611   5.530  0.2269 -0.0418  0.6590
  892MOL0     C20320   0.402  10.625   5.439  0.3809 -0.0964 -0.0021
  892MOL0     O20321   0.268  10.640   5.474 -0.3144 -0.5965  0.9077
  892MOL0     C20322   0.242  10.729   5.582  0.8107 -0.3236  0.2452
  892MOL0     C20323   0.091  10.731   5.575 -0.2914  0.6489 -0.4471
  892MOL0     C20324   0.029  10.810   5.692  1.1101  0.5912  0.4009
  892MOL0     C20325  -0.124  10.822   5.689  0.1880  0.5672 -0.1334
  892MOL0     C20326  -0.182  10.689   5.755  0.6130 -0.4212 -0.3528
  892MOL0     C20327  -0.336  10.715   5.776 -1.3705  0.7682 -0.0027
  892MOL0     C20328  -0.404  10.600   5.856  0.1842  0.7298  0.1304
  892MOL0     C20329  -0.353  10.459   5.816 -0.3735 -0.8663  0.1804
  892MOL0    Cl20330  -0.368  10.406   5.646  0.5979 -0.2782  0.4992
  892MOL0     C20331   0.422  10.651   5.300  0.6655  0.6856  0.3510
  892MOL0     C20332   0.553  10.657   5.252  0.5875 -0.2557 -0.1467
  892MOL0     O20333   0.784  10.437   5.212  0.5017 -0.4381  0.4009
  892MOL0     C20334   1.060  10.403   5.243  0.4432  0.9663  0.1781
  892MOL0     C20335   1.189  10.378   5.193 -0.5421  0.2218  0.3689
  892MOL0     N20336   1.713   9.960   4.927 -0.3757 -0.4630 -0.7469
  892MOL0     N20337   1.785   9.888   4.849 -0.0594 -0.2411  0.1415
  892MOL0     C20338   2.750   9.754   5.472 -0.4773  0.7478  0.8945
  892MOL0     C20339   2.841   9.743   5.579 -0.3072  1.1043 -0.5343
  892MOL0     C20340   2.975   9.589   6.004 -1.6562  0.7884 -0.4060
  892MOL0     C20341   3.016   9.716   6.055  0.5934 -0.3171 -0.0545
  892MOL0     C20342   3.087   9.735   6.174 -0.6208  0.2909 -0.0791
  892MOL0     C20343   3.137   9.618   6.249 -0.2830 -0.5902  0.8703
  892MOL0     O20344   3.211   9.623   6.372  0.5565 -0.0001 -0.3433
  892MOL0     C20345   3.273   9.742   6.425 -0.6720  0.4187 -0.3955
  892MOL0     C20346   3.170   9.828   6.490 -0.2497  0.7444  0.1120
  892MOL0     C20347   3.221   9.911   6.603 -0.2823 -0.6908  0.3689
  892MOL0     C20348   3.287   9.844   6.725 -0.2487 -0.7926  0.2971
  892MOL0     C20349   3.213   9.727   6.787  0.4675  0.7763  0.1667
  892MOL0     C20350   3.146   9.634   6.815  0.6126 -0.2471 -0.1594
  892MOL0     C20351   3.099   9.498   6.196 -0.7746 -0.4996  0.4035
  892MOL0     C20352   3.041   9.478   6.071  0.6013 -0.4738 -0.1139
  892MOL0     H20353   2.625   9.624   5.811  2.4053 -0.1907  1.9408
  892MOL0     H20354   2.472   9.635   5.608 -0.0036 -1.3663  0.0346
  892MOL0     H20355   2.599   9.875   5.282 -2.1878  1.3476  3.5240
  892MOL0     H20356   2.587   9.724   5.194  0.3502  1.1305 -1.0881
  892MOL0     H20357   2.331   9.756   5.234 -1.6546  2.5633  0.5624
  892MOL0     H20358   2.370   9.925   5.260 -1.8937 -1.2051 -0.0343
  892MOL0     H20359   2.482   9.913   5.031  0.4360 -0.8315  1.3725
  892MOL0     H20360   2.430   9.743   5.020  0.8086  0.5367 -0.1621
  892MOL0     H20361   2.201   9.864   5.089  0.8814  0.5144  1.8938
  892MOL0     H20362   2.278  10.003   5.000 -1.5217 -0.2581 -1.9400
  892MOL0     H20363   2.301   9.835   4.813  1.5012 -0.6993  0.9033
  892MOL0     H20364   2.223   9.718   4.921  1.7809 -0.5800  1.3786
  892MOL0     H20365   2.033   9.873   4.936  0.6880  2.5148  1.0099
  892MOL0     H20366   2.107   9.988   4.832  2.7561 -0.1783  2.2334
  892MOL0     H20367   2.119   9.781   4.659 -2.4783 -1.6038 -2.3563
  892MOL0     H20368   1.996   9.707   4.753  1.4547 -0.3281 -0.2324
  892MOL0     H20369   1.874   9.843   4.574 -1.0567  1.3830  0.1771
  892MOL0     H20370   1.994   9.968   4.591 -1.0326 -0.4586 -1.1961
  892MOL0     H20371   1.791  10.154   4.676  0.7373 -0.6364  0.3090
  892MOL0     H20372   1.571  10.238   4.825 -0.5425 -0.3176  0.7925
  892MOL0     H20373   1.522  10.134   4.962 -0.3456  2.7066  1.3232
  892MOL0     H20374   1.767  10.301   4.992 -0.9752 -1.0733 -4.3007
  892MOL0     H20375   1.665  10.223   5.112  3.0484  1.5542  0.8477
  892MOL0     H20376   1.561  10.448   4.935 -0.1908  2.1227  0.2976
  892MOL0     H20377   1.635  10.485   5.092 -0.0387 -0.6594 -0.6622
  892MOL0     H20378   1.496  10.329   5.217 -2.2110 -0.0803  1.3260
  892MOL0     H20379   1.398  10.309   5.081 -0.5795 -1.3894  1.4532
  892MOL0     H20380   1.281  10.706   5.164 -0.4426  0.7148 -0.9128
  892MOL0     H20381   0.945  10.764   5.095 -2.5842  1.0243  1.0794
  892MOL0     H20382   0.940  10.821   5.250 -0.4075  1.1994 -2.0148
  892MOL0     H20383   1.085  10.851   5.161 -0.3533  1.3114  0.2816
  892MOL0     H20384   0.719  10.618   5.556  1.2049 -2.7241 -1.8078
  892MOL0     H20385   0.472  10.594   5.632 -1.5966 -2.8474 -0.3172
  892MOL0     H20386   0.275  10.703   5.683  0.1526 -1.2677  0.2394
  892MOL0     H20387   0.269  10.831   5.556 -0.7307 -0.6032 -3.0101
  892MOL0     H20388   0.069  10.783   5.481  0.6650  1.2267 -0.3686
  892MOL0     H20389   0.050  10.630   5.570 -1.6056  1.1003  0.4991
  892MOL0     H20390   0.074  10.910   5.699  0.8029  0.9497 -1.9306
  892MOL0     H20391   0.056  10.757   5.784 -0.9346 -0.4707  0.4293
  892MOL0     H20392  -0.158  10.901   5.757 -2.9034 -1.4707  0.9167
  892MOL0     H20393  -0.171  10.846   5.594  0.6555 -1.4431 -0.9171
  892MOL0     H20394  -0.132  10.669   5.850  0.4370  1.3914  0.1603
  892MOL0     H20395  -0.165  10.604   5.688 -0.0035  1.1011 -2.5736
  892MOL0     H20396  -0.351  10.802   5.841  2.1117  0.2526  1.7350
  892MOL0     H20397  -0.387  10.720   5.680 -1.2269 -0.1997 -0.1404
  892MOL0     H20398  -0.512  10.602   5.841 -0.2608 -2.0855  2.1346
  892MOL0     H20399  -0.383  10.609   5.963  4.2061 -0.7923 -0.3334
  892MOL0     H20400  -0.404  10.389   5.883 -0.0618 -1.1620  0.1100
  892MOL0     H20401  -0.248  10.449   5.846 -0.4773 -3.1907 -0.0001
  892MOL0     H20402   0.328  10.668   5.248 -1.3393  0.3698  3.5703
  892MOL0     H20403   0.566  10.686   5.148 -0.1966 -0.0440 -0.1870
  892MOL0     H20404   1.008  10.313   5.276  4.6855 -1.9070 -0.2470
  892MOL0     H20405   1.223  10.277   5.173 -1.3240  0.0417 -0.0871
  892MOL0     H20406   2.782   9.783   5.372  0.7006  0.6097  1.2171
  892MOL0     H20407   2.948   9.761   5.571 -0.0352  0.5590  1.3256
  892MOL0     H20408   3.001   9.810   6.002  0.3900 -0.5277 -0.3738
  892MOL0     H20409   3.129   9.831   6.199  3.2380 -0.8770 -1.3358
  892MOL0     H20410   3.349   9.718   6.499 -0.6349  1.1143 -0.1985
  892MOL0     H20411   3.320   9.800   6.345 -0.6160 -2.8432 -2.9430
  892MOL0     H20412   3.087   9.768   6.529  0.8688 -1.3289 -0.5343
  892MOL0     H20413   3.133   9.900   6.417  0.2990  0.1077 -0.8162
  892MOL0     H20414   3.147   9.984   6.637 -1.0111 -0.8968 -0.7158
  892MOL0     H20415   3.298   9.974   6.558 -2.3171  1.5181 -0.2573
  892MOL0     H20416   3.283   9.923   6.800  2.1141 -0.7190  0.4417
  892MOL0     H20417   3.393   9.821   6.713  0.3034  2.4328 -2.6581
  892MOL0     H20418   3.085   9.552   6.846  1.5230 -0.9522 -0.1924
  892MOL0     H20419   3.132   9.407   6.245  1.7702  0.9239  1.5390
  892MOL0     H20420   3.018   9.374   6.051 -1.6686 -0.6343  2.7053
  893MOL0     O20421   9.050   1.481   7.761 -0.1049  0.2868  0.9618
  893MOL0     C20422   9.106   1.590   7.735  0.0446 -0.1339  0.1430
  893MOL0     O20423   9.054   1.698   7.668  0.1073  0.3475  0.5532
  893MOL0     C20424   8.950   1.671   7.589  0.3074 -0.7554 -0.9696
  893MOL0     C20425   8.851   1.770   7.597 -0.3845 -0.4617  0.1674
  893MOL0     C20426   8.727   1.753   7.533 -0.7532  0.1822  0.6385
  893MOL0     C20427   8.697   1.637   7.467 -0.2579 -0.4955  0.1752
  893MOL0     O20428   8.573   1.619   7.432  0.4205 -0.7898 -0.6673
  893MOL0     C20429   8.544   1.697   7.322 -0.6129 -0.4416  0.1337
  893MOL0     C20430   8.398   1.657   7.274  0.5937  0.5369  1.0529
  893MOL0     C20431   8.398   1.659   7.117  0.0215 -0.0809 -0.5730
  893MOL0     C20432   8.255   1.614   7.078  1.0158  0.2770  0.7831
  893MOL0     C20433   8.213   1.649   6.941  0.6402  0.0834 -0.1009
  893MOL0     C20434   8.071   1.605   6.913 -0.7917  0.3650 -0.0442
  893MOL0     C20435   7.962   1.691   6.977  0.6744  0.0505 -0.0147
  893MOL0     C20436   7.866   1.724   6.859 -0.1819  0.4070 -0.1325
  893MOL0     N20437   7.748   1.806   6.903  0.5878 -0.2670  0.0681
  893MOL0     C20438   7.706   1.842   7.030 -0.5454 -0.1002 -0.2339
  893MOL0     C20439   7.577   1.883   7.012  0.6690  0.4778 -0.1710
  893MOL0     C20440   7.501   1.959   7.116  0.6543 -0.8634 -0.4877
  893MOL0     C20441   7.499   2.103   7.087 -0.2553  0.3102 -0.3034
  893MOL0     C20442   7.441   2.147   6.948 -0.1220  0.6112 -0.2551
  893MOL0     C20443   7.293   2.103   6.927 -0.8486  0.0350 -0.2609
  893MOL0     O20444   7.220   2.171   7.036  0.0525 -0.8511 -0.0628
  893MOL0     C20445   7.112   2.253   7.010 -1.3642 -0.1849  0.1693
  893MOL0     C20446   7.034   2.293   7.115 -0.1410  0.4159 -0.4883
  893MOL0     C20447   6.930   2.374   7.100 -0.8623 -0.0721  0.2053
  893MOL0     C20448   6.845   2.373   7.228  1.0316 -0.1197 -0.5792
  893MOL0     C20449   6.905   2.439   6.977  0.2998 -0.4776  0.2704
  893MOL0     C20450   6.798   2.541   6.960  0.0825  0.6199 -0.4833
  893MOL0     O20451   6.751   2.577   6.835 -0.5992  0.0821 -0.2734
  893MOL0     C20452   6.674   2.690   6.830 -0.4023 -0.4498  0.1205
  893MOL0     C20453   6.549   2.677   6.775  0.5408  0.2431  0.6059
  893MOL0     C20454   6.473   2.793   6.739 -1.1347  0.8697 -0.0066
  893MOL0     C20455   6.517   2.920   6.766 -0.3123  0.0935 -0.2969
  893MOL0     O20456   6.447   3.041   6.740 -0.1914 -0.3714 -0.2881
  893MOL0     C20457   6.333   3.051   6.660  0.6544  0.2551  0.1352
  893MOL0     C20458   6.212   3.012   6.746  0.4907  0.9099  0.2704
  893MOL0     C20459   6.087   3.036   6.663  0.0101  0.2695  0.8753
  893MOL0     C20460   5.975   3.089   6.748 -0.4772 -0.4608 -0.1466
  893MOL0     C20461   5.846   3.097   6.670  0.1552 -0.5214  0.7251
  893MOL0     C20462   5.739   3.171   6.758  0.2127 -0.2442 -0.3423
  893MOL0     C20463   5.615   3.216   6.679  0.2230  0.7355  0.5423
  893MOL0     C20464   5.549   3.333   6.756 -0.5429  0.7863 -0.5554
  893MOL0    Cl20465   5.463   3.267   6.907 -0.2624 -0.0349 -0.1065
  893MOL0     C20466   6.642   2.929   6.831  0.6617 -0.1739  0.4668
  893MOL0     C20467   6.725   2.812   6.853  0.0345 -0.4739 -0.1112
  893MOL0     O20468   6.769   2.597   7.064 -0.0648 -0.2406 -0.7742
  893MOL0     C20469   6.989   2.408   6.866 -0.1382 -0.1030 -0.2075
  893MOL0     C20470   7.090   2.310   6.880  1.0537  0.2299 -0.3598
  893MOL0     N20471   7.546   1.866   6.879 -0.0698 -0.3250 -0.3236
  893MOL0     N20472   7.644   1.812   6.817  0.3817  0.2645 -0.5071
  893MOL0     C20473   8.793   1.534   7.455  0.1795 -0.0260 -0.1360
  893MOL0     C20474   8.920   1.554   7.519  0.1412 -1.0712 -0.0110
  893MOL0     C20475   9.234   1.608   7.801  0.6907 -0.2952 -0.7132
  893MOL0     C20476   9.333   1.682   7.735 -0.1800 -0.1946  0.2211
  893MOL0     C20477   9.449   1.704   7.808 -0.0917 -0.3435 -0.1370
  893MOL0     C20478   9.476   1.653   7.935  0.1391 -0.4197  0.0453
  893MOL0     O20479   9.582   1.679   8.010  1.0499  0.0785 -0.4573
  893MOL0     C20480   9.673   1.774   7.965 -0.5248 -0.5171  0.4895
  893MOL0     C20481   9.771   1.786   8.086 -0.1159 -0.0323  0.3076
  893MOL0     C20482   9.888   1.884   8.059  0.9284  0.5372  0.3075
  893MOL0     C20483   9.969   1.862   7.927 -0.1119 -0.1043 -0.2084
  893MOL0     C20484  10.097   1.939   7.919  0.4310  0.1996 -0.7612
  893MOL0     C20485  10.202   1.999   7.940 -0.0137 -1.1441  0.2852
  893MOL0     C20486   9.374   1.573   7.993  0.1197  0.1719  0.5995
  893MOL0     C20487   9.254   1.543   7.925  1.1334  0.2498 -0.1786
  893MOL0     H20488   8.883   1.860   7.647 -2.7629  1.9307 -2.2741
  893MOL0     H20489   8.644   1.823   7.537 -1.4570 -0.7045  1.9673
  893MOL0     H20490   8.555   1.802   7.351  0.1599 -0.5214  0.1600
  893MOL0     H20491   8.619   1.674   7.246 -1.7549 -1.9076 -0.6088
  893MOL0     H20492   8.366   1.566   7.326  2.9889  0.9367  3.4540
  893MOL0     H20493   8.327   1.724   7.322  0.9571  0.6594  1.4210
  893MOL0     H20494   8.406   1.765   7.091 -3.2254  0.0981 -1.3133
  893MOL0     H20495   8.476   1.596   7.074 -1.4016 -2.7925  0.5219
  893MOL0     H20496   8.269   1.505   7.074  2.1148  0.4378 -0.2424
  893MOL0     H20497   8.188   1.647   7.158  1.2504  1.2521  0.5839
  893MOL0     H20498   8.219   1.755   6.912 -0.6470  0.5783  1.3448
  893MOL0     H20499   8.279   1.602   6.867 -0.9540  1.9120 -2.9117
  893MOL0     H20500   8.069   1.613   6.804 -0.0844  0.6087 -0.0454
  893MOL0     H20501   8.054   1.499   6.933  2.4377 -0.1172  0.7028
  893MOL0     H20502   7.926   1.635   7.064 -0.3949 -0.0840 -0.5231
  893MOL0     H20503   7.999   1.786   7.016  0.2067 -0.4428  1.7742
  893MOL0     H20504   7.824   1.634   6.814 -1.4524  1.6056 -1.4425
  893MOL0     H20505   7.919   1.781   6.782  1.0358 -1.0325 -0.4051
  893MOL0     H20506   7.759   1.839   7.125  2.4671  2.0866 -1.6626
  893MOL0     H20507   7.398   1.922   7.125  0.3442 -0.7633 -2.9491
  893MOL0     H20508   7.555   1.951   7.210  3.0578 -0.7373 -1.7703
  893MOL0     H20509   7.601   2.142   7.082  0.4708 -1.0306  2.2888
  893MOL0     H20510   7.444   2.145   7.171  0.1836 -1.5542  0.9759
  893MOL0     H20511   7.500   2.114   6.861  0.5051  1.8886 -0.3336
  893MOL0     H20512   7.439   2.255   6.934 -0.5688  0.3833 -2.4328
  893MOL0     H20513   7.284   1.995   6.936 -1.7612  0.1007 -0.2690
  893MOL0     H20514   7.268   2.122   6.822  4.0258  0.3207 -1.5959
  893MOL0     H20515   7.066   2.250   7.210  1.0078  2.1175 -0.0601
  893MOL0     H20516   6.741   2.397   7.204  0.7040 -0.3618  0.5331
  893MOL0     H20517   6.844   2.275   7.277  0.2149  0.0716 -0.1975
  893MOL0     H20518   6.891   2.447   7.294  1.7148 -1.0410  0.0116
  893MOL0     H20519   6.506   2.580   6.753 -1.5576  1.1989  0.2134
  893MOL0     H20520   6.382   2.769   6.685 -0.9866 -5.4209  1.8033
  893MOL0     H20521   6.304   3.154   6.633 -2.2052 -0.6759 -0.7247
  893MOL0     H20522   6.342   2.998   6.565  0.3099 -0.8945  0.7353
  893MOL0     H20523   6.211   2.910   6.786 -1.3052  0.8971  0.2884
  893MOL0     H20524   6.216   3.074   6.837 -1.3839  1.2228  0.1921
  893MOL0     H20525   6.069   2.940   6.614  1.7639  1.1980 -1.8382
  893MOL0     H20526   6.109   3.101   6.578 -1.2557 -0.2840  0.0875
  893MOL0     H20527   5.960   3.029   6.838 -3.3443 -1.4485 -1.1611
  893MOL0     H20528   6.010   3.188   6.778  2.4518 -1.2406 -0.6520
  893MOL0     H20529   5.824   2.991   6.660  3.3771 -1.4076  1.9279
  893MOL0     H20530   5.863   3.152   6.576 -1.5612  1.6428  1.5903
  893MOL0     H20531   5.697   3.108   6.837 -0.0793  2.9006  2.2213
  893MOL0     H20532   5.792   3.254   6.806  1.2781 -0.1749 -1.6007
  893MOL0     H20533   5.543   3.133   6.671 -0.7641  1.3525  2.4557
  893MOL0     H20534   5.642   3.246   6.577  0.3135 -0.5149  0.1763
  893MOL0     H20535   5.462   3.375   6.704 -1.8272  0.5176  1.3001
  893MOL0     H20536   5.608   3.423   6.775  1.1378 -0.0849 -1.4380
  893MOL0     H20537   6.673   3.032   6.848  0.8274 -0.4847  2.3291
  893MOL0     H20538   6.823   2.842   6.890 -1.4084 -0.1190  3.9583
  893MOL0     H20539   6.970   2.444   6.765  1.4215  0.1782 -0.4290
  893MOL0     H20540   7.141   2.287   6.786  3.5559  0.7694  0.7888
  893MOL0     H20541   8.761   1.435   7.423  0.2111  0.2557 -1.0785
  893MOL0     H20542   9.003   1.485   7.515 -0.7926 -2.1624 -2.1068
  893MOL0     H20543   9.316   1.725   7.637  2.2916  1.8540  0.5864
  893MOL0     H20544   9.523   1.770   7.764 -0.2712 -1.9679 -3.1105
  893MOL0     H20545   9.722   1.738   7.874  0.9737 -0.2089  1.1392
  893MOL0     H20546   9.627   1.871   7.945 -2.1944 -1.6107 -1.2581
  893MOL0     H20547   9.816   1.689   8.112 -0.8927 -1.2445 -2.4544
  893MOL0     H20548   9.716   1.828   8.171  0.0594  0.9925 -0.0686
  893MOL0     H20549   9.953   1.875   8.147  1.4614  1.2251 -0.0046
  893MOL0     H20550   9.843   1.983   8.063 -0.9116 -0.1753 -1.1620
  893MOL0     H20551   9.901   1.878   7.844 -2.4454  2.4568  1.9862
  893MOL0     H20552   9.986   1.754   7.934  1.2684  0.0486 -0.8714
  893MOL0     H20553  10.299   2.043   7.946 -0.6679  0.3223  0.7123
  893MOL0     H20554   9.397   1.541   8.094  1.8426 -2.1767 -0.4312
  893MOL0     H20555   9.178   1.475   7.960  1.1619  0.2877 -0.0412
  894MOL0     O20556   0.181   2.744   2.543  1.1009  0.1811  0.2337
  894MOL0     C20557   0.162   2.726   2.419 -0.1252 -0.1000  0.3262
  894MOL0     O20558   0.242   2.776   2.319 -0.0609  0.4729 -1.0877
  894MOL0     C20559   0.359   2.847   2.354 -0.0601 -0.5694  0.5333
  894MOL0     C20560   0.466   2.843   2.267 -0.3258  0.7854 -1.0201
  894MOL0     C20561   0.577   2.930   2.291  0.6662  0.7782  0.0391
  894MOL0     C20562   0.570   3.029   2.380  0.8090  0.0999 -0.6197
  894MOL0     O20563   0.691   3.106   2.398  0.3144  0.4704  0.2592
  894MOL0     C20564   0.703   3.208   2.300  0.1454 -0.1627 -0.0417
  894MOL0     C20565   0.824   3.304   2.305  0.2105 -0.3276 -0.3205
  894MOL0     C20566   0.948   3.232   2.346  0.7208 -0.6542 -0.2477
  894MOL0     C20567   1.073   3.331   2.331  0.6105  0.1550 -0.5753
  894MOL0     C20568   1.193   3.302   2.436 -0.1928 -0.2668  0.3378
  894MOL0     C20569   1.287   3.416   2.444  0.3920 -0.3374  0.3408
  894MOL0     C20570   1.360   3.410   2.573 -0.6141  0.4896 -0.4749
  894MOL0     C20571   1.474   3.310   2.558 -0.8110 -0.9448  0.3207
  894MOL0     N20572   1.529   3.267   2.684 -0.5218  1.0382  0.1301
  894MOL0     C20573   1.475   3.181   2.773  1.0631 -0.2921  0.5097
  894MOL0     C20574   1.563   3.178   2.877 -0.6331 -0.4464  0.4622
  894MOL0     C20575   1.538   3.101   3.001 -0.1191  0.1242 -0.3064
  894MOL0     C20576   1.489   2.957   2.984  0.3397  0.0495  0.1451
  894MOL0     C20577   1.470   2.884   3.118  0.2451 -0.1124 -0.2777
  894MOL0     C20578   1.416   2.745   3.099  0.3046 -0.0149 -0.7290
  894MOL0     O20579   1.304   2.746   3.016 -0.6070  0.4236 -0.6229
  894MOL0     C20580   1.230   2.621   3.001 -0.6658 -0.2227 -0.7138
  894MOL0     C20581   1.270   2.498   3.053  0.2540 -0.2975  0.8961
  894MOL0     C20582   1.194   2.381   3.037 -0.1833  0.2266 -0.2626
  894MOL0     C20583   1.256   2.268   3.119  0.4539  0.0335  0.2657
  894MOL0     C20584   1.083   2.379   2.950 -0.9023  0.5931 -0.5446
  894MOL0     C20585   0.999   2.259   2.927  0.4513  0.4611 -0.6112
  894MOL0     O20586   0.869   2.272   2.900 -0.1295  0.0891 -0.3606
  894MOL0     C20587   0.786   2.162   2.913  0.5758  0.0450 -0.1107
  894MOL0     C20588   0.736   2.112   3.040  0.4753  0.1024  0.7613
  894MOL0     C20589   0.627   2.020   3.027 -0.0267 -0.1677 -0.6016
  894MOL0     C20590   0.582   1.964   2.899  0.2107 -0.3897 -0.8650
  894MOL0     O20591   0.474   1.872   2.881 -0.1713 -0.1314 -0.0097
  894MOL0     C20592   0.402   1.839   3.007 -0.4995  0.4933  0.2884
  894MOL0     C20593   0.455   1.727   3.089  0.5083 -0.9464  0.2019
  894MOL0     C20594   0.479   1.611   2.996 -0.8488  0.3823 -0.2068
  894MOL0     C20595   0.349   1.533   2.978  0.2268 -0.1071  0.4702
  894MOL0     C20596   0.368   1.414   2.878  0.0528  0.6480 -0.3926
  894MOL0     C20597   0.248   1.322   2.886 -0.6106 -1.1206  0.3508
  894MOL0     C20598   0.137   1.359   2.789  0.2712  0.4941 -0.0549
  894MOL0     C20599   0.077   1.227   2.732 -0.2532  0.4167 -0.0859
  894MOL0    Cl20600  -0.058   1.282   2.623  0.4736 -0.1791  0.6288
  894MOL0     C20601   0.643   2.010   2.787 -0.0602 -0.3581  0.5846
  894MOL0     C20602   0.745   2.112   2.791  0.3641  0.5167  0.9958
  894MOL0     O20603   1.050   2.152   2.959  0.7459  0.7207  0.3193
  894MOL0     C20604   1.047   2.502   2.899  0.1890  0.3596  0.5559
  894MOL0     C20605   1.108   2.620   2.931 -0.4110  0.7513  0.8244
  894MOL0     N20606   1.666   3.266   2.848  0.1493 -0.0135 -0.3561
  894MOL0     N20607   1.643   3.322   2.736  0.1294  0.5275  0.1432
  894MOL0     C20608   0.451   3.057   2.450  0.7906 -0.1973  0.6128
  894MOL0     C20609   0.354   2.957   2.442 -0.4298 -0.0336 -0.2021
  894MOL0     C20610   0.022   2.678   2.385  0.0043  0.1804 -0.5618
  894MOL0     C20611  -0.047   2.598   2.486 -0.4405 -0.3013  0.7488
  894MOL0     C20612  -0.175   2.553   2.458  0.6892 -0.5542 -0.2891
  894MOL0     C20613  -0.240   2.568   2.329 -0.0591 -0.0132 -0.5479
  894MOL0     O20614  -0.361   2.511   2.315  0.7135 -0.1454 -0.0614
  894MOL0     C20615  -0.415   2.518   2.183  0.7503 -0.4620 -0.4780
  894MOL0     C20616  -0.548   2.443   2.187  0.1289 -0.2935 -0.8905
  894MOL0     C20617  -0.613   2.457   2.045  0.3457 -0.2271 -0.9746
  894MOL0     C20618  -0.757   2.394   2.043  0.0028 -0.3430 -0.4807
  894MOL0     C20619  -0.760   2.259   2.096  0.6708  0.4117  0.9392
  894MOL0     C20620  -0.774   2.149   2.139  0.1086 -0.1889  0.3286
  894MOL0     C20621  -0.165   2.637   2.238  0.6875 -0.5762  0.5603
  894MOL0     C20622  -0.039   2.693   2.257 -0.5435  0.4704 -0.4094
  894MOL0     H20623   0.461   2.770   2.186 -2.3075  1.8726 -1.9384
  894MOL0     H20624   0.663   2.914   2.228  0.3039  2.0810 -0.8275
  894MOL0     H20625   0.705   3.160   2.201  0.4822  3.9998 -2.2541
  894MOL0     H20626   0.615   3.272   2.291  1.7779  2.4792  1.4680
  894MOL0     H20627   0.842   3.362   2.214  0.8027  0.9192  0.5573
  894MOL0     H20628   0.803   3.386   2.375 -0.6177 -0.1637 -0.7354
  894MOL0     H20629   0.947   3.227   2.455  3.3796  1.3472 -0.0260
  894MOL0     H20630   0.965   3.142   2.287  3.0243  0.8918 -2.1947
  894MOL0     H20631   1.109   3.311   2.230  1.1301 -1.5693 -0.0877
  894MOL0     H20632   1.044   3.436   2.340  0.4239  0.0836 -0.3233
  894MOL0     H20633   1.140   3.294   2.531 -1.3715 -1.3352 -0.3723
  894MOL0     H20634   1.247   3.209   2.413  1.0311  0.1593  1.3591
  894MOL0     H20635   1.358   3.421   2.361  2.1906  3.8443  1.8735
  894MOL0     H20636   1.228   3.508   2.438 -1.1882 -1.3750 -1.4135
  894MOL0     H20637   1.395   3.512   2.593  1.2569 -0.2876  0.4626
  894MOL0     H20638   1.294   3.373   2.652 -1.2357 -0.2074 -1.2974
  894MOL0     H20639   1.557   3.348   2.498 -2.8401 -0.4712 -2.4345
  894MOL0     H20640   1.446   3.219   2.505 -3.7099 -0.4500  0.8139
  894MOL0     H20641   1.376   3.135   2.771  1.6776 -1.6146 -0.4003
  894MOL0     H20642   1.623   3.117   3.068 -0.4267  1.9464 -0.2839
  894MOL0     H20643   1.450   3.149   3.046 -1.0491  0.2800 -2.2221
  894MOL0     H20644   1.553   2.900   2.916  0.9429 -0.4148  1.0740
  894MOL0     H20645   1.388   2.958   2.940  1.3554  0.7668 -2.3171
  894MOL0     H20646   1.409   2.932   3.195  2.2630  1.1469  0.6236
  894MOL0     H20647   1.573   2.878   3.153  0.8059 -0.4400 -1.9130
  894MOL0     H20648   1.403   2.692   3.194 -0.7131 -1.7093 -1.7625
  894MOL0     H20649   1.487   2.679   3.048  1.1347  0.5907 -0.3786
  894MOL0     H20650   1.357   2.505   3.117  0.0237  2.3923  1.0239
  894MOL0     H20651   1.269   2.186   3.048  0.8070  1.0840 -0.9083
  894MOL0     H20652   1.349   2.284   3.174 -0.5181 -0.2082  2.0807
  894MOL0     H20653   1.184   2.229   3.192  0.5546 -0.6362  0.0159
  894MOL0     H20654   0.757   2.149   3.140  1.8763  2.5970 -0.3583
  894MOL0     H20655   0.567   1.984   3.110 -1.4384 -0.9748 -1.9203
  894MOL0     H20656   0.385   1.923   3.075 -2.0779  1.3132 -1.0341
  894MOL0     H20657   0.304   1.810   2.966  0.2594 -1.5736 -0.1914
  894MOL0     H20658   0.552   1.757   3.131 -0.0068 -0.4714  1.0689
  894MOL0     H20659   0.393   1.709   3.177 -0.2239 -0.0355 -0.1233
  894MOL0     H20660   0.570   1.563   3.033  0.6123  2.1210 -1.3722
  894MOL0     H20661   0.501   1.643   2.894 -0.3604 -2.1476 -0.9519
  894MOL0     H20662   0.311   1.506   3.077  0.8105 -0.3539  0.6302
  894MOL0     H20663   0.266   1.589   2.934 -1.7789 -1.2653  2.5395
  894MOL0     H20664   0.453   1.350   2.906 -1.1196 -0.6335  0.3391
  894MOL0     H20665   0.375   1.453   2.776  1.6247  0.0879 -0.5269
  894MOL0     H20666   0.284   1.221   2.864  3.9739  0.2070  0.9398
  894MOL0     H20667   0.198   1.326   2.983 -4.2233  1.6302 -1.3672
  894MOL0     H20668   0.179   1.410   2.702  3.7468 -2.1964 -0.2020
  894MOL0     H20669   0.054   1.414   2.833 -0.2340  0.5350 -1.0456
  894MOL0     H20670   0.033   1.158   2.805  0.8549  0.4004  0.5924
  894MOL0     H20671   0.152   1.170   2.676 -1.8181 -0.0622 -1.7960
  894MOL0     H20672   0.607   1.975   2.690  0.5116  0.3592  0.1002
  894MOL0     H20673   0.792   2.136   2.696 -0.7410 -1.5795 -0.1431
  894MOL0     H20674   0.956   2.508   2.841 -0.0088  0.5252  0.8794
  894MOL0     H20675   1.065   2.713   2.895 -1.3897 -0.5892 -1.7426
  894MOL0     H20676   0.445   3.142   2.516 -2.4381 -0.7542  1.2049
  894MOL0     H20677   0.262   2.985   2.492 -0.5005  1.9519 -1.3146
  894MOL0     H20678   0.008   2.563   2.573  3.2510 -0.7841 -1.5512
  894MOL0     H20679  -0.231   2.497   2.532  0.2169 -0.1241 -0.3211
  894MOL0     H20680  -0.427   2.618   2.140 -4.1252 -0.3426  0.6510
  894MOL0     H20681  -0.343   2.464   2.120  0.1287  0.7195 -2.2724
  894MOL0     H20682  -0.603   2.499   2.263 -2.0771 -1.8466 -1.2592
  894MOL0     H20683  -0.535   2.337   2.211 -1.8725 -0.2978  0.4018
  894MOL0     H20684  -0.558   2.409   1.964 -0.5136  0.6244 -2.0954
  894MOL0     H20685  -0.631   2.562   2.020 -3.1806 -0.2191  0.8306
  894MOL0     H20686  -0.805   2.390   1.945 -3.0489 -3.8733  0.9099
  894MOL0     H20687  -0.827   2.432   2.118 -1.5267 -3.2952 -0.2641
  894MOL0     H20688  -0.790   2.057   2.192 -2.1653 -0.4217 -0.6476
  894MOL0     H20689  -0.198   2.634   2.135  0.7490 -0.9130  0.5474
  894MOL0     H20690   0.017   2.731   2.172 -1.3144  1.2832 -0.5660
  895MOL0     O20691   9.136   2.297  11.315 -0.3015  0.6859 -0.3406
  895MOL0     C20692   9.095   2.275  11.199 -0.5281 -0.5291  0.2674
  895MOL0     O20693   9.078   2.371  11.106  0.3853  0.3292 -0.4267
  895MOL0     C20694   9.101   2.502  11.133  0.1422  0.5117  0.2863
  895MOL0     C20695   9.008   2.593  11.080  0.2616  0.0335 -0.2534
  895MOL0     C20696   9.029   2.729  11.095 -0.0108  0.5514 -0.3457
  895MOL0     C20697   9.141   2.785  11.157 -0.2282  0.4860 -0.2843
  895MOL0     O20698   9.159   2.916  11.187 -0.2479 -0.2858 -0.5207
  895MOL0     C20699   9.076   3.020  11.133  0.2232 -0.3989  0.4020
  895MOL0     C20700   9.150   3.148  11.179 -0.5092  0.8535  0.2290
  895MOL0     C20701   9.098   3.204  11.308  0.8797 -0.4095 -0.3565
  895MOL0     C20702   9.195   3.309  11.372 -0.7779 -0.2483  0.9659
  895MOL0     C20703   9.231   3.411  11.260 -0.1588 -0.8787 -0.0412
  895MOL0     C20704   9.293   3.528  11.331 -0.1215 -0.6880 -0.1717
  895MOL0     C20705   9.282   3.654  11.236 -0.4166  0.5627 -0.2043
  895MOL0     C20706   9.366   3.629  11.110  0.0936 -0.0163 -0.2667
  895MOL0     N20707   9.505   3.636  11.150  0.1693  0.2030  1.1129
  895MOL0     C20708   9.570   3.747  11.183 -1.1257  0.0823 -0.1157
  895MOL0     C20709   9.698   3.707  11.210 -0.2092 -0.7721  0.0641
  895MOL0     C20710   9.819   3.797  11.235 -0.3307 -0.6704  0.2182
  895MOL0     C20711   9.945   3.733  11.190 -0.7686  0.7674  0.5349
  895MOL0     C20712  10.067   3.814  11.228  0.1915  0.6727 -0.2220
  895MOL0     C20713  10.083   3.828  11.380 -0.1126  0.1620 -0.1076
  895MOL0     O20714  10.034   3.714  11.457 -0.2555  0.3174  1.2320
  895MOL0     C20715  10.100   3.593  11.460 -0.6930  0.2542  0.5400
  895MOL0     C20716  10.030   3.496  11.530  0.4207  0.0159 -1.1191
  895MOL0     C20717  10.096   3.368  11.565  0.4730 -0.8011 -1.1098
  895MOL0     C20718  10.022   3.288  11.674 -0.1297 -0.4508  0.2492
  895MOL0     C20719  10.213   3.337  11.494 -0.7085  0.4442 -0.1199
  895MOL0     C20720  10.259   3.201  11.489  0.0205 -0.5342  0.2011
  895MOL0     O20721  10.182   3.117  11.550 -0.2962  1.3265  0.1634
  895MOL0     C20722  10.202   2.982  11.541  0.1885 -0.0871 -0.2185
  895MOL0     C20723  10.324   2.920  11.568 -0.1965  0.1918 -0.1780
  895MOL0     C20724  10.326   2.780  11.580 -0.2399 -0.7275 -0.0504
  895MOL0     C20725  10.212   2.700  11.574 -0.0730 -0.4340  0.3673
  895MOL0     O20726  10.222   2.564  11.599  0.6253  0.9368  0.3116
  895MOL0     C20727  10.121   2.468  11.541 -0.1775  0.7235  0.9454
  895MOL0     C20728  10.193   2.409  11.422  1.5144 -0.4601  0.2261
  895MOL0     C20729  10.219   2.513  11.317  0.1015 -0.2273 -0.6603
  895MOL0     C20730  10.371   2.545  11.308 -0.5149  0.4029 -0.0997
  895MOL0     C20731  10.468   2.445  11.239  0.8519 -0.3990 -0.5332
  895MOL0     C20732  10.606   2.515  11.235  0.1444 -0.2975  0.9562
  895MOL0     C20733  10.717   2.426  11.163  0.1719  0.0300 -1.1097
  895MOL0     C20734  10.815   2.503  11.081  0.9289  0.9098  0.0431
  895MOL0    Cl20735  10.910   2.610  11.195 -0.0043  0.1993  0.4379
  895MOL0     C20736  10.090   2.762  11.550  0.5219 -0.5387 -0.5622
  895MOL0     C20737  10.088   2.899  11.537  0.0236 -0.5206 -0.0776
  895MOL0     O20738  10.367   3.176  11.431  0.4167  0.1465 -0.1445
  895MOL0     C20739  10.276   3.438  11.410 -0.2776  0.5687 -0.4665
  895MOL0     C20740  10.224   3.564  11.398 -0.3808  0.5685 -0.1220
  895MOL0     N20741   9.700   3.567  11.209 -0.2732 -0.3453  0.0537
  895MOL0     N20742   9.579   3.528  11.180  1.0889  0.5026  0.1520
  895MOL0     C20743   9.248   2.699  11.195  0.3746  0.0798  0.6664
  895MOL0     C20744   9.223   2.561  11.190  0.5224  0.1932  0.6399
  895MOL0     C20745   9.047   2.141  11.154  0.0348 -0.1890 -0.2041
  895MOL0     C20746   8.953   2.121  11.047 -0.3026  0.7383  0.3598
  895MOL0     C20747   8.915   1.992  11.001 -0.7478 -0.1705  0.5577
  895MOL0     C20748   8.976   1.879  11.059 -0.1254 -0.0985 -1.0758
  895MOL0     O20749   8.972   1.748  11.020  0.6106  0.1034  0.6637
  895MOL0     C20750   8.849   1.706  10.967 -0.0341  0.2556 -0.7713
  895MOL0     C20751   8.826   1.551  10.948 -0.2862 -0.7564 -0.2189
  895MOL0     C20752   8.891   1.501  10.823  0.1394  0.3678 -0.3832
  895MOL0     C20753   9.043   1.485  10.834  0.8939  1.2642 -0.2374
  895MOL0     C20754   9.100   1.615  10.808  0.3624  0.1718 -0.0404
  895MOL0     C20755   9.160   1.716  10.775 -0.6687 -0.0436  0.6642
  895MOL0     C20756   9.061   1.899  11.177 -0.0012  1.3502 -0.3583
  895MOL0     C20757   9.097   2.027  11.227  0.0366 -0.0497 -0.4542
  895MOL0     H20758   8.914   2.572  11.030 -0.4227  0.0661  0.9850
  895MOL0     H20759   8.944   2.793  11.072  1.7814  2.6491 -1.5806
  895MOL0     H20760   9.090   3.021  11.025  2.0769 -4.2029  0.4545
  895MOL0     H20761   8.971   3.031  11.161  0.2055  0.5534 -0.0031
  895MOL0     H20762   9.258   3.137  11.173 -0.3225  2.4483  0.4353
  895MOL0     H20763   9.116   3.221  11.105  0.3938 -0.7487 -1.8725
  895MOL0     H20764   9.011   3.259  11.269  0.0772 -0.5360  1.1576
  895MOL0     H20765   9.071   3.130  11.385  1.2741  0.7874  0.9884
  895MOL0     H20766   9.154   3.347  11.466  0.6801 -2.5788  2.6469
  895MOL0     H20767   9.292   3.270  11.405  0.8976  3.2200  0.5388
  895MOL0     H20768   9.302   3.365  11.191 -0.2611 -3.4298  1.4159
  895MOL0     H20769   9.142   3.439  11.204 -0.1252  0.4172  0.5148
  895MOL0     H20770   9.237   3.562  11.419 -2.0294 -1.9379 -0.8532
  895MOL0     H20771   9.393   3.515  11.374 -0.5667 -1.2315  0.7217
  895MOL0     H20772   9.177   3.673  11.209 -1.3685 -0.2444  2.5924
  895MOL0     H20773   9.318   3.744  11.286  3.3694 -0.1499 -1.3753
  895MOL0     H20774   9.351   3.714  11.042 -2.9107 -1.5272 -1.6741
  895MOL0     H20775   9.345   3.533  11.063 -1.2899 -1.6160  3.3254
  895MOL0     H20776   9.552   3.854  11.177  2.7347  0.7821 -3.4205
  895MOL0     H20777   9.806   3.890  11.179 -0.9639  0.2100  1.7467
  895MOL0     H20778   9.827   3.815  11.343  1.6653  0.4969 -0.0791
  895MOL0     H20779   9.952   3.717  11.082  1.9933 -2.9150  1.0495
  895MOL0     H20780   9.949   3.634  11.236 -2.1621  0.6368  0.4245
  895MOL0     H20781  10.035   3.912  11.189  2.5119  0.8489 -1.8430
  895MOL0     H20782  10.151   3.792  11.161  0.6999  3.1258 -0.4762
  895MOL0     H20783  10.021   3.909  11.420 -1.0390 -0.2659 -0.6535
  895MOL0     H20784  10.188   3.851  11.402  0.8380 -2.5690 -1.3444
  895MOL0     H20785   9.941   3.524  11.586  0.3069 -0.9162 -0.8241
  895MOL0     H20786   9.948   3.225  11.623 -2.2920  1.0582  1.3937
  895MOL0     H20787  10.086   3.224  11.736  3.2993  0.7610 -1.7128
  895MOL0     H20788   9.972   3.358  11.740  1.7208  0.7670  0.4467
  895MOL0     H20789  10.417   2.977  11.569  1.7295 -2.4933 -3.0287
  895MOL0     H20790  10.420   2.729  11.601  1.1158  2.3392  2.1053
  895MOL0     H20791  10.104   2.388  11.614  3.0643  1.9348  3.2556
  895MOL0     H20792  10.025   2.515  11.519  0.6957  2.2163  0.1867
  895MOL0     H20793  10.292   2.376  11.455  2.4694  1.0407 -1.0062
  895MOL0     H20794  10.144   2.316  11.390  1.5159 -0.1966 -0.5746
  895MOL0     H20795  10.162   2.603  11.343  1.8450  0.9060 -0.5991
  895MOL0     H20796  10.184   2.470  11.222 -2.0972 -0.2078  0.0923
  895MOL0     H20797  10.383   2.634  11.245 -0.4179  1.6515  1.6384
  895MOL0     H20798  10.407   2.566  11.408  1.8179  0.7822 -0.9566
  895MOL0     H20799  10.426   2.444  11.138  0.0702  0.4499 -0.2274
  895MOL0     H20800  10.470   2.349  11.291 -0.0635 -0.0511  0.1760
  895MOL0     H20801  10.607   2.617  11.196 -0.4699  0.8197  3.6466
  895MOL0     H20802  10.631   2.534  11.340  2.6316  1.7114  0.0874
  895MOL0     H20803  10.663   2.355  11.099  0.4002 -0.4603 -0.7608
  895MOL0     H20804  10.775   2.364  11.232 -0.5488  1.8675  1.2885
  895MOL0     H20805  10.762   2.559  11.004  0.1321  3.2585  2.1528
  895MOL0     H20806  10.880   2.424  11.042 -2.0267 -0.7045 -2.0051
  895MOL0     H20807   9.987   2.728  11.555  0.4008 -0.5819 -2.5255
  895MOL0     H20808   9.994   2.951  11.522  1.1005  1.3477 -0.7242
  895MOL0     H20809  10.368   3.411  11.359  0.1428 -2.8464  1.7712
  895MOL0     H20810  10.277   3.640  11.341 -1.1591  1.9311  0.9222
  895MOL0     H20811   9.335   2.745  11.240 -0.9367  3.8147 -0.2428
  895MOL0     H20812   9.304   2.506  11.236  1.6720  2.3357  1.2879
  895MOL0     H20813   8.909   2.206  10.995  1.0679  1.5874  0.5313
  895MOL0     H20814   8.855   1.981  10.912 -0.2109 -0.8175  0.2673
  895MOL0     H20815   8.777   1.737  11.043  0.7893  1.8391 -0.6068
  895MOL0     H20816   8.843   1.757  10.871 -0.5648  1.6247 -0.0317
  895MOL0     H20817   8.723   1.529  10.919 -0.4805  0.9752 -0.9726
  895MOL0     H20818   8.861   1.500  11.038 -1.5603  2.1945  2.0877
  895MOL0     H20819   8.865   1.555  10.732  0.8655 -1.2280 -1.5952
  895MOL0     H20820   8.861   1.397  10.810 -1.0069  0.5719  0.4449
  895MOL0     H20821   9.064   1.420  10.748 -0.8017  2.3486 -1.5453
  895MOL0     H20822   9.081   1.447  10.929  3.8926 -1.9245 -2.4175
  895MOL0     H20823   9.200   1.807  10.735 -0.9551 -0.9672 -1.9145
  895MOL0     H20824   9.110   1.806  11.206  0.0122  1.1532 -0.9927
  895MOL0     H20825   9.160   2.030  11.315 -0.8945  1.8819  0.1890
  896MOL0     O20826   1.244   9.737   3.315 -0.2817 -0.4049 -0.4152
  896MOL0     C20827   1.316   9.803   3.237  0.7759 -0.0068 -0.5187
  896MOL0     O20828   1.262   9.911   3.163 -0.0685 -0.1500  0.2927
  896MOL0     C20829   1.133   9.953   3.214 -0.6306 -0.5088 -0.1696
  896MOL0     C20830   1.110  10.058   3.312  0.0065  0.6190  0.4297
  896MOL0     C20831   0.985  10.122   3.336 -0.5331 -0.3778  0.9729
  896MOL0     C20832   0.870  10.088   3.260 -0.9465 -0.2438 -0.1415
  896MOL0     O20833   0.754  10.169   3.273  0.4778  0.3323  0.3316
  896MOL0     C20834   0.625  10.098   3.245 -0.6281  0.1105  0.3612
  896MOL0     C20835   0.513  10.152   3.330 -0.5870  0.4001  0.2808
  896MOL0     C20836   0.378  10.083   3.290  0.1620  0.6334  0.1607
  896MOL0     C20837   0.271  10.109   3.399 -0.1807 -0.0797 -0.4908
  896MOL0     C20838   0.130  10.076   3.347  0.0270  0.3286 -0.4566
  896MOL0     C20839   0.111   9.926   3.325 -0.4512  0.3486  0.0288
  896MOL0     C20840  -0.010   9.903   3.252  0.3863  0.4135 -0.2595
  896MOL0     C20841  -0.137   9.956   3.308 -0.1770 -0.4290 -0.3941
  896MOL0     N20842  -0.257   9.912   3.240 -0.3408  0.1501  0.2970
  896MOL0     C20843  -0.316   9.961   3.126  0.1378  0.8250 -0.0953
  896MOL0     C20844  -0.424   9.885   3.114  0.4468  0.2032  0.2599
  896MOL0     C20845  -0.519   9.898   2.999  0.7340 -0.2526  0.5072
  896MOL0     C20846  -0.636   9.994   3.032  0.0496 -0.9586 -0.5084
  896MOL0     C20847  -0.601  10.144   3.021 -0.4967 -0.3911 -0.7712
  896MOL0     C20848  -0.718  10.228   3.062  0.0350 -0.1928  0.2228
  896MOL0     O20849  -0.684  10.366   3.073  0.2616 -0.0566 -0.3289
  896MOL0     C20850  -0.785  10.456   3.102 -0.8055  1.2593 -0.7043
  896MOL0     C20851  -0.750  10.578   3.141  0.0907  0.1194 -0.0405
  896MOL0     C20852  -0.841  10.667   3.201 -0.0649 -0.6312  0.4031
  896MOL0     C20853  -0.770  10.793   3.231 -0.2575  0.0500  0.7253
  896MOL0     C20854  -0.980  10.635   3.213  0.2367  1.0973  0.3457
  896MOL0     C20855  -1.083  10.721   3.280  0.6694  0.2834 -0.0741
  896MOL0     O20856  -1.200  10.657   3.319  0.1635 -0.2534 -0.2794
  896MOL0     C20857  -1.271  10.701   3.431  0.1485  0.0175  1.4915
  896MOL0     C20858  -1.409  10.692   3.426  0.1075 -0.3508  0.1567
  896MOL0     C20859  -1.493  10.716   3.534  0.1402 -0.0352  0.2735
  896MOL0     C20860  -1.436  10.771   3.655  0.2084 -0.5079 -0.4940
  896MOL0     O20861  -1.514  10.817   3.761 -0.3182  0.9360  0.1014
  896MOL0     C20862  -1.653  10.778   3.779 -0.7281  0.0283  1.0249
  896MOL0     C20863  -1.657  10.642   3.854  1.0023 -0.4627  0.9673
  896MOL0     C20864  -1.599  10.650   3.997  0.9289  0.3424  0.1957
  896MOL0     C20865  -1.574  10.506   4.047 -0.6670 -0.3506 -1.1462
  896MOL0     C20866  -1.475  10.490   4.173  0.9405  0.5551 -0.1450
  896MOL0     C20867  -1.488  10.344   4.224  0.3933 -0.6566 -0.6136
  896MOL0     C20868  -1.628  10.282   4.275  0.4017 -1.3083  0.3247
  896MOL0     C20869  -1.673  10.355   4.404 -0.4816  0.8055 -0.4457
  896MOL0    Cl20870  -1.834  10.305   4.476 -0.0828  0.0794  0.6378
  896MOL0     C20871  -1.298  10.786   3.660 -0.7866  0.2116 -1.0657
  896MOL0     C20872  -1.222  10.765   3.546  0.5129  1.2536 -0.7325
  896MOL0     O20873  -1.057  10.836   3.311 -0.7898 -0.0104  0.0636
  896MOL0     C20874  -1.014  10.508   3.160 -0.0023  1.2286  0.0203
  896MOL0     C20875  -0.922  10.426   3.105  0.6390  0.2302 -0.2973
  896MOL0     N20876  -0.431   9.796   3.215 -0.1204 -0.1738 -0.1185
  896MOL0     N20877  -0.326   9.814   3.290  0.0738 -0.2389  0.1811
  896MOL0     C20878   0.896   9.993   3.166 -0.1770  0.1345  0.5783
  896MOL0     C20879   1.019   9.928   3.142  1.0114  0.6518  0.9394
  896MOL0     C20880   1.454   9.745   3.211  0.5690  0.2126  0.0130
  896MOL0     C20881   1.497   9.635   3.287 -0.3153  0.0562 -0.0879
  896MOL0     C20882   1.618   9.572   3.268 -0.0800 -0.3759 -0.1907
  896MOL0     C20883   1.698   9.614   3.172 -0.3146 -0.7888 -0.0717
  896MOL0     O20884   1.821   9.555   3.163  0.5426 -0.6347  0.7086
  896MOL0     C20885   1.923   9.630   3.103 -0.3080  0.0929  0.0839
  896MOL0     C20886   2.051   9.567   3.154 -0.2366 -0.6731 -0.2068
  896MOL0     C20887   2.166   9.640   3.088 -0.3628  0.6113 -0.4350
  896MOL0     C20888   2.308   9.599   3.140  0.9388  0.4707  1.0768
  896MOL0     C20889   2.344   9.665   3.273  0.4551 -0.6157  0.6390
  896MOL0     C20890   2.385   9.746   3.357 -0.0279  1.2851 -0.3617
  896MOL0     C20891   1.660   9.715   3.079  0.1603 -0.5619 -0.2219
  896MOL0     C20892   1.537   9.780   3.101  0.1682  0.0262 -0.0556
  896MOL0     H20893   1.193  10.099   3.368 -0.4113  2.6448 -0.3393
  896MOL0     H20894   0.984  10.206   3.405 -0.9052 -0.3306  0.9129
  896MOL0     H20895   0.613  10.080   3.137 -1.1813 -3.3400  0.8925
  896MOL0     H20896   0.631   9.990   3.263 -5.3983 -0.2119  1.3873
  896MOL0     H20897   0.541  10.143   3.435  0.4241  2.4288  0.2415
  896MOL0     H20898   0.506  10.258   3.302 -1.4055 -0.5713 -3.9013
  896MOL0     H20899   0.345  10.123   3.194 -0.4843  0.1205  0.1644
  896MOL0     H20900   0.393   9.976   3.274 -1.1030  0.5962 -0.9105
  896MOL0     H20901   0.298  10.068   3.497  1.6139  1.9060 -0.0802
  896MOL0     H20902   0.264  10.216   3.419 -0.3969 -0.3956  1.2596
  896MOL0     H20903   0.058  10.118   3.418  0.2444  2.0928 -1.2393
  896MOL0     H20904   0.109  10.123   3.251  1.3050 -0.6234 -1.2338
  896MOL0     H20905   0.192   9.875   3.271 -2.4472 -1.5135 -1.3756
  896MOL0     H20906   0.097   9.870   3.418 -1.5975 -0.3382 -0.5346
  896MOL0     H20907   0.017   9.938   3.152  2.1481  0.7696  0.2940
  896MOL0     H20908  -0.025   9.796   3.240 -3.9388  0.8509 -0.3416
  896MOL0     H20909  -0.121  10.064   3.301 -1.3646 -0.1834  0.4526
  896MOL0     H20910  -0.143   9.931   3.414 -0.6495  3.0424  0.5423
  896MOL0     H20911  -0.278  10.040   3.062 -0.0144  2.6589  1.9662
  896MOL0     H20912  -0.468   9.938   2.911  2.0234  0.0417  1.3590
  896MOL0     H20913  -0.558   9.799   2.972 -0.5291  0.7417 -1.5494
  896MOL0     H20914  -0.669   9.971   3.134  1.7359 -1.5551 -0.0760
  896MOL0     H20915  -0.720   9.972   2.965 -2.4880 -3.7770  3.1558
  896MOL0     H20916  -0.575  10.160   2.916 -0.8905 -5.7587 -1.9939
  896MOL0     H20917  -0.518  10.157   3.090  0.1362 -4.7438 -0.4134
  896MOL0     H20918  -0.760  10.186   3.154 -1.1857 -2.3268 -1.2388
  896MOL0     H20919  -0.793  10.216   2.983 -1.6909  3.5094  1.0270
  896MOL0     H20920  -0.646  10.605   3.131 -0.9376  4.5160 -0.8912
  896MOL0     H20921  -0.661  10.785   3.239 -0.2435 -2.7043 -0.9577
  896MOL0     H20922  -0.787  10.875   3.161 -1.7578  0.7053  1.8169
  896MOL0     H20923  -0.815  10.831   3.323 -0.8083 -1.9133  1.3175
  896MOL0     H20924  -1.461  10.657   3.339  0.2740  0.3909 -0.2507
  896MOL0     H20925  -1.601  10.703   3.527 -0.1358  1.4237  1.4198
  896MOL0     H20926  -1.706  10.855   3.836 -2.8664  0.9514 -1.9174
  896MOL0     H20927  -1.713  10.768   3.688  1.4245 -4.1291 -0.2032
  896MOL0     H20928  -1.759  10.602   3.856  0.8792 -0.2454 -0.3594
  896MOL0     H20929  -1.602  10.570   3.793  2.6968  0.1086  1.7715
  896MOL0     H20930  -1.684  10.701   4.042 -0.8524 -0.7193 -1.7661
  896MOL0     H20931  -1.505  10.706   4.003  1.1478  0.0876 -0.6606
  896MOL0     H20932  -1.667  10.458   4.079  0.9420 -1.7572  1.9010
  896MOL0     H20933  -1.529  10.443   3.969  1.8013  1.8696 -1.6674
  896MOL0     H20934  -1.507  10.558   4.253  0.5232  1.0483 -0.7141
  896MOL0     H20935  -1.372  10.506   4.140  0.5902  1.3188 -0.9357
  896MOL0     H20936  -1.449  10.275   4.147 -2.3870  1.8364 -4.6519
  896MOL0     H20937  -1.423  10.349   4.312  0.0494  1.6039 -0.4326
  896MOL0     H20938  -1.615  10.175   4.295 -0.9127 -1.2684  1.5255
  896MOL0     H20939  -1.706  10.286   4.198  1.9870  1.7802 -1.2881
  896MOL0     H20940  -1.672  10.465   4.401  2.4246  0.8820  0.2522
  896MOL0     H20941  -1.613  10.324   4.490 -1.0774 -0.1963 -0.3754
  896MOL0     H20942  -1.248  10.830   3.745  0.2960 -1.5330 -0.7298
  896MOL0     H20943  -1.119  10.798   3.534  0.7368  0.0003 -2.5396
  896MOL0     H20944  -1.118  10.480   3.166 -0.5002  2.6630 -1.3221
  896MOL0     H20945  -0.963  10.332   3.070 -2.2963  1.3576 -0.2377
  896MOL0     H20946   0.824   9.961   3.090 -1.8557  0.1720  2.0782
  896MOL0     H20947   1.024   9.849   3.068 -2.0572  2.9693 -2.0912
  896MOL0     H20948   1.429   9.601   3.364 -1.6849 -0.4287 -1.4549
  896MOL0     H20949   1.640   9.484   3.327 -2.5607 -0.7689  0.2461
  896MOL0     H20950   1.913   9.611   2.996 -0.9788  0.7696  0.0235
  896MOL0     H20951   1.914   9.737   3.125 -2.3123 -0.4738  2.4248
  896MOL0     H20952   2.064   9.459   3.144 -0.4119 -0.9074  1.7878
  896MOL0     H20953   2.065   9.585   3.261 -0.5973  1.7346 -0.4968
  896MOL0     H20954   2.143   9.746   3.074 -1.2151  0.4024 -0.7116
  896MOL0     H20955   2.162   9.600   2.986  0.5167 -2.5527  0.6599
  896MOL0     H20956   2.382   9.629   3.064  0.5371 -1.0929  0.0238
  896MOL0     H20957   2.315   9.492   3.157 -1.1280  0.8014  4.9520
  896MOL0     H20958   2.419   9.822   3.424  0.7982  0.5323  0.1007
  896MOL0     H20959   1.714   9.740   2.988 -0.1904  0.8118 -0.0845
  896MOL0     H20960   1.493   9.864   3.048 -1.5833 -1.3265 -0.8840
  897MOL0     O20961   6.709   7.479   5.134  0.1369  0.4716  0.4728
  897MOL0     C20962   6.749   7.547   5.047 -0.2351 -0.3895  1.2249
  897MOL0     O20963   6.691   7.663   5.000  0.1731  0.6513  0.3724
  897MOL0     C20964   6.561   7.674   5.021 -0.5056 -0.1136  1.0419
  897MOL0     C20965   6.514   7.759   5.120  0.7029 -0.5764  0.0992
  897MOL0     C20966   6.372   7.782   5.124  0.4208 -0.2866 -0.5712
  897MOL0     C20967   6.281   7.739   5.040  1.0941  0.7050 -0.6529
  897MOL0     O20968   6.148   7.757   5.062  0.4747 -0.9534  0.3213
  897MOL0     C20969   6.054   7.686   4.988 -0.3949 -0.4056 -0.4835
  897MOL0     C20970   5.914   7.709   5.061 -0.0260  0.5155  0.4883
  897MOL0     C20971   5.917   7.670   5.210 -0.5193  1.1069  0.1761
  897MOL0     C20972   5.788   7.677   5.280 -0.0575  0.0891 -1.0584
  897MOL0     C20973   5.730   7.827   5.286  0.7458  0.4594 -0.7901
  897MOL0     C20974   5.574   7.805   5.314  0.0737  0.3981 -0.3955
  897MOL0     C20975   5.500   7.939   5.339  0.0827 -0.3927 -0.3479
  897MOL0     C20976   5.532   7.998   5.473  0.8406  0.3444 -0.3095
  897MOL0     N20977   5.436   8.110   5.476 -0.4527 -1.2279  0.8531
  897MOL0     C20978   5.435   8.220   5.396  0.7391 -0.5184  0.6924
  897MOL0     C20979   5.333   8.293   5.431  0.7813  0.8081  0.1529
  897MOL0     C20980   5.287   8.423   5.371 -0.5028  0.0015 -0.5136
  897MOL0     C20981   5.301   8.427   5.211  0.0892 -1.4015  0.1372
  897MOL0     C20982   5.212   8.546   5.162  0.9363 -0.6625  0.2031
  897MOL0     C20983   5.062   8.519   5.163  0.1541  0.4758 -0.3949
  897MOL0     O20984   4.997   8.643   5.152  0.2568 -0.5714 -0.4658
  897MOL0     C20985   4.859   8.661   5.167 -0.3397 -0.5694  0.7116
  897MOL0     C20986   4.766   8.556   5.171 -0.1432  0.4460  0.7002
  897MOL0     C20987   4.628   8.572   5.149  0.3225 -0.1390  0.4751
  897MOL0     C20988   4.533   8.457   5.144 -0.8301 -0.7446 -0.2131
  897MOL0     C20989   4.580   8.710   5.134  0.5463  0.0338  0.1399
  897MOL0     C20990   4.432   8.741   5.136  0.2188 -0.3500  0.2069
  897MOL0     O20991   4.352   8.671   5.052 -0.3192 -0.1935 -0.2281
  897MOL0     C20992   4.213   8.682   5.039 -0.7092 -0.1586  0.6674
  897MOL0     C20993   4.129   8.771   5.104 -0.1870  0.2084  1.3281
  897MOL0     C20994   3.986   8.758   5.081 -0.4800  0.4470 -0.6294
  897MOL0     C20995   3.939   8.648   5.011 -0.0965 -0.2721 -0.1264
  897MOL0     O20996   3.807   8.632   4.984 -0.3815 -0.4901 -0.4416
  897MOL0     C20997   3.722   8.747   5.000  0.9266 -0.1486 -0.2328
  897MOL0     C20998   3.591   8.697   4.931  0.2224 -0.3547  0.1495
  897MOL0     C20999   3.462   8.787   4.945 -0.3070 -0.4017 -0.0110
  897MOL0     C21000   3.337   8.703   4.917 -0.5141  0.0223  0.7009
  897MOL0     C21001   3.334   8.631   4.772 -0.1857 -0.7110 -0.0382
  897MOL0     C21002   3.372   8.720   4.652  0.0251  0.2611 -1.0683
  897MOL0     C21003   3.362   8.637   4.521  0.2822  1.3009 -0.1954
  897MOL0     C21004   3.307   8.716   4.406 -0.5505  0.0821  0.6398
  897MOL0    Cl21005   3.344   8.633   4.241 -0.6256 -0.4514  0.4484
  897MOL0     C21006   4.025   8.573   4.930 -0.3326  0.0168 -0.5307
  897MOL0     C21007   4.160   8.594   4.945  0.0983  0.0620  0.5760
  897MOL0     O21008   4.397   8.840   5.201  0.0409 -0.6858  0.4270
  897MOL0     C21009   4.671   8.817   5.136  0.1655 -0.5777 -0.1774
  897MOL0     C21010   4.810   8.790   5.142 -0.6768  0.1309 -0.5384
  897MOL0     N21011   5.280   8.231   5.546 -0.5094  0.5244 -0.5665
  897MOL0     N21012   5.346   8.122   5.572 -0.0895  0.1591 -0.4687
  897MOL0     C21013   6.335   7.665   4.936  0.5779 -0.9396  0.6454
  897MOL0     C21014   6.471   7.626   4.930 -1.0152  0.4889  0.2619
  897MOL0     C21015   6.883   7.522   5.007 -0.4368  1.0048  0.5965
  897MOL0     C21016   6.938   7.393   5.032  0.4939 -1.0287  0.4599
  897MOL0     C21017   7.063   7.359   4.982  0.6965 -1.0990  1.2181
  897MOL0     C21018   7.149   7.442   4.910  0.3996 -0.4950  0.0921
  897MOL0     O21019   7.275   7.420   4.876 -0.0371  0.1069 -0.6938
  897MOL0     C21020   7.363   7.396   4.990  0.5243  0.4518 -0.0140
  897MOL0     C21021   7.440   7.270   4.962  0.4036  0.7069 -0.1040
  897MOL0     C21022   7.556   7.299   4.864  0.1636  0.0823 -0.6843
  897MOL0     C21023   7.635   7.168   4.837  0.6154 -0.7727  0.3395
  897MOL0     C21024   7.549   7.071   4.755 -0.3996  0.6167 -0.0670
  897MOL0     C21025   7.474   6.985   4.700 -0.3090  0.3923  0.2610
  897MOL0     C21026   7.093   7.561   4.884 -0.4893  0.4676  0.3310
  897MOL0     C21027   6.967   7.606   4.925  0.5158 -0.3388 -0.1247
  897MOL0     H21028   6.590   7.805   5.182  2.1253 -0.5010 -1.6368
  897MOL0     H21029   6.325   7.854   5.191  1.9214  1.5919 -1.4451
  897MOL0     H21030   6.045   7.730   4.888 -3.8671  0.4366  0.0574
  897MOL0     H21031   6.074   7.579   4.979 -0.6154 -0.3598 -1.7412
  897MOL0     H21032   5.868   7.808   5.045 -1.0685 -0.1877 -1.1605
  897MOL0     H21033   5.849   7.638   5.009  0.5879  0.2816  0.0299
  897MOL0     H21034   5.944   7.564   5.215 -0.7976  0.9497 -1.1494
  897MOL0     H21035   5.993   7.719   5.270  0.9628  0.5461 -1.1744
  897MOL0     H21036   5.728   7.605   5.224  0.2608 -0.1344 -1.1154
  897MOL0     H21037   5.793   7.627   5.377 -0.9455  1.9335 -0.0167
  897MOL0     H21038   5.773   7.890   5.364  2.9885  0.4807 -1.9519
  897MOL0     H21039   5.739   7.886   5.195  1.3838 -0.6790 -1.4854
  897MOL0     H21040   5.538   7.756   5.223 -4.1114  0.6748  0.9236
  897MOL0     H21041   5.550   7.735   5.395  0.4270 -0.4747 -1.0345
  897MOL0     H21042   5.524   8.007   5.257  0.5273 -0.4897 -0.2967
  897MOL0     H21043   5.393   7.912   5.337 -0.0640  0.1654 -0.0787
  897MOL0     H21044   5.638   8.025   5.482  1.5673 -0.7710 -4.0342
  897MOL0     H21045   5.503   7.918   5.541 -1.0941 -0.2827 -1.7887
  897MOL0     H21046   5.491   8.250   5.308 -2.7254  2.1889 -0.8538
  897MOL0     H21047   5.184   8.435   5.405  0.3245  0.5728  2.0493
  897MOL0     H21048   5.337   8.506   5.421  0.0655 -1.8696  2.2787
  897MOL0     H21049   5.265   8.339   5.156  1.1592  0.2283 -3.4951
  897MOL0     H21050   5.407   8.431   5.185  0.6079  0.4921  2.2709
  897MOL0     H21051   5.244   8.569   5.060 -5.3821  3.6959 -1.3998
  897MOL0     H21052   5.229   8.632   5.227 -0.8097 -1.5730  1.9885
  897MOL0     H21053   5.035   8.464   5.254  1.6863  0.4583  0.0935
  897MOL0     H21054   5.044   8.461   5.072  0.4656 -0.1365 -0.0711
  897MOL0     H21055   4.816   8.459   5.174  1.3941  0.9287 -3.1746
  897MOL0     H21056   4.586   8.361   5.145  2.1375  0.8041 -0.2529
  897MOL0     H21057   4.451   8.460   5.216 -0.4739  2.5980  0.1864
  897MOL0     H21058   4.501   8.463   5.039  1.6832  3.3290 -0.9360
  897MOL0     H21059   4.162   8.850   5.171 -3.1483 -0.5612  3.8889
  897MOL0     H21060   3.918   8.833   5.120 -2.6843 -2.0784  0.7038
  897MOL0     H21061   3.711   8.787   5.101 -3.4512  3.0810 -1.6706
  897MOL0     H21062   3.769   8.829   4.944  2.3144 -1.9206 -1.7716
  897MOL0     H21063   3.622   8.672   4.829 -2.0926 -0.9763 -0.4564
  897MOL0     H21064   3.571   8.596   4.967 -0.6307 -0.6501 -1.0792
  897MOL0     H21065   3.475   8.879   4.888 -1.7105  0.0050  0.2886
  897MOL0     H21066   3.456   8.811   5.052 -0.1199 -1.6853  0.3102
  897MOL0     H21067   3.328   8.632   5.000  2.7631  2.0097  3.0076
  897MOL0     H21068   3.257   8.777   4.932 -2.4780 -1.6539 -0.8694
  897MOL0     H21069   3.237   8.580   4.770 -0.5376 -0.2882  2.4343
  897MOL0     H21070   3.411   8.554   4.773 -2.2513 -2.8853 -0.0253
  897MOL0     H21071   3.300   8.803   4.655 -0.3832 -0.1153 -0.4625
  897MOL0     H21072   3.476   8.752   4.664  0.6605 -1.9654 -0.2469
  897MOL0     H21073   3.294   8.553   4.534 -2.2517  2.6079 -3.5201
  897MOL0     H21074   3.460   8.597   4.492 -0.0006 -1.0356  1.8071
  897MOL0     H21075   3.344   8.819   4.403  2.3740 -0.7768  2.7030
  897MOL0     H21076   3.198   8.722   4.414 -0.3982  2.1269  1.8884
  897MOL0     H21077   3.970   8.498   4.874 -2.3923  1.0528  0.0193
  897MOL0     H21078   4.219   8.522   4.889 -2.2273 -2.3485  1.0359
  897MOL0     H21079   4.634   8.919   5.136 -2.0053 -1.3035  0.5603
  897MOL0     H21080   4.875   8.876   5.156 -0.8364 -0.0592  1.6169
  897MOL0     H21081   6.275   7.621   4.858  1.4491 -1.1440  0.0778
  897MOL0     H21082   6.499   7.547   4.861  2.6036  0.4612  1.5775
  897MOL0     H21083   6.881   7.322   5.091 -0.7540 -1.6481 -1.4103
  897MOL0     H21084   7.102   7.258   4.993  0.9579 -1.3656 -1.4182
  897MOL0     H21085   7.432   7.481   5.001  2.0532 -0.7670  0.1764
  897MOL0     H21086   7.300   7.393   5.079  1.8507 -1.7762  0.9180
  897MOL0     H21087   7.375   7.196   4.914  1.5081  0.9761 -2.0933
  897MOL0     H21088   7.476   7.240   5.061  0.6453  1.2435 -0.0242
  897MOL0     H21089   7.631   7.374   4.892  1.0370 -0.2115 -2.1017
  897MOL0     H21090   7.511   7.332   4.769 -3.1955  0.4483  0.8858
  897MOL0     H21091   7.666   7.131   4.935  2.8768 -1.1609 -0.4634
  897MOL0     H21092   7.722   7.184   4.773 -0.7506 -2.4666 -2.1072
  897MOL0     H21093   7.419   6.919   4.636 -1.3045  1.3521  0.1031
  897MOL0     H21094   7.161   7.619   4.822  0.2760  1.3248  1.9092
  897MOL0     H21095   6.927   7.707   4.917  3.5192  1.1468  1.7800
  898MOL0     O21096   9.112   9.501   7.344 -0.0220 -0.5225 -0.0850
  898MOL0     C21097   9.048   9.596   7.291 -0.4508 -0.1670  0.0938
  898MOL0     O21098   8.913   9.587   7.266 -0.1256  0.1104  0.7746
  898MOL0     C21099   8.850   9.474   7.287  1.0107  0.0508  0.4673
  898MOL0     C21100   8.797   9.408   7.179  0.7772 -0.1449 -0.0544
  898MOL0     C21101   8.700   9.306   7.204 -0.0454 -0.2518 -0.8295
  898MOL0     C21102   8.663   9.280   7.339 -1.0028  0.7509 -0.7443
  898MOL0     O21103   8.556   9.192   7.372 -0.3593  0.4381  0.5445
  898MOL0     C21104   8.499   9.105   7.266  0.2871  0.6277  0.2627
  898MOL0     C21105   8.352   9.112   7.241 -0.2711 -0.7577  0.0485
  898MOL0     C21106   8.309   9.244   7.182  0.5949 -0.0486  0.0424
  898MOL0     C21107   8.149   9.268   7.177 -0.2725  0.0570  0.0788
  898MOL0     C21108   8.115   9.391   7.082 -0.1223 -0.4830  0.5662
  898MOL0     C21109   7.964   9.436   7.047  0.7336  0.3778 -0.6869
  898MOL0     C21110   7.872   9.433   7.173 -0.7582  0.2338 -0.1016
  898MOL0     C21111   7.725   9.447   7.136  0.2489 -0.9365  0.1004
  898MOL0     N21112   7.688   9.331   7.056  0.6131  0.4434  0.3295
  898MOL0     C21113   7.639   9.336   6.922 -0.6178  0.0074  0.0324
  898MOL0     C21114   7.619   9.207   6.884 -0.5384 -0.4465  0.0799
  898MOL0     C21115   7.597   9.145   6.742  0.5599 -0.3914 -0.3293
  898MOL0     C21116   7.625   9.241   6.619 -0.2027  0.1688  0.0258
  898MOL0     C21117   7.638   9.163   6.480 -0.0936  0.7288  0.0740
  898MOL0     C21118   7.517   9.073   6.442 -0.8207 -0.3085  0.1979
  898MOL0     O21119   7.412   9.167   6.430  0.5543 -0.2736  0.6213
  898MOL0     C21120   7.303   9.137   6.344 -0.4906  0.6834 -0.4468
  898MOL0     C21121   7.190   9.216   6.366  0.0081  0.5312 -0.7663
  898MOL0     C21122   7.071   9.194   6.297  0.5140 -0.4780  0.4712
  898MOL0     C21123   6.947   9.276   6.335  0.1906  0.3114 -0.4138
  898MOL0     C21124   7.062   9.093   6.189 -1.6767 -0.0162  0.0153
  898MOL0     C21125   6.937   9.049   6.119  0.2639 -0.0504 -0.2295
  898MOL0     O21126   6.954   8.944   6.046  0.0888 -0.2844  0.0593
  898MOL0     C21127   6.858   8.919   5.949 -0.0998 -0.5934 -0.0801
  898MOL0     C21128   6.828   9.003   5.834 -0.8348 -0.6523 -0.0490
  898MOL0     C21129   6.724   8.966   5.748 -0.1389 -0.4467 -0.1822
  898MOL0     C21130   6.649   8.852   5.768 -0.4176  0.5739  0.8269
  898MOL0     O21131   6.549   8.837   5.672 -0.2520 -0.0308 -0.7861
  898MOL0     C21132   6.555   8.708   5.604  0.5747  0.7408 -0.4917
  898MOL0     C21133   6.475   8.714   5.474  0.0518 -0.3689  0.2131
  898MOL0     C21134   6.474   8.585   5.380 -0.1240 -0.4289  0.3855
  898MOL0     C21135   6.406   8.627   5.256 -0.3307 -0.1617  0.1287
  898MOL0     C21136   6.388   8.512   5.158  0.5003  0.1604  0.0072
  898MOL0     C21137   6.272   8.545   5.067  0.2798 -0.4210  0.8069
  898MOL0     C21138   6.282   8.464   4.937 -0.1801 -0.3090 -0.1638
  898MOL0     C21139   6.154   8.501   4.838 -0.5526 -0.2223  0.0546
  898MOL0    Cl21140   6.005   8.551   4.913  0.0630  0.4001 -0.2938
  898MOL0     C21141   6.674   8.768   5.879  0.3379 -0.5678 -0.3907
  898MOL0     C21142   6.778   8.806   5.966 -0.3448  0.8321 -0.5972
  898MOL0     O21143   6.844   9.130   6.107 -0.1365 -0.1976  0.5150
  898MOL0     C21144   7.178   9.011   6.170  0.4149 -0.2789  0.9990
  898MOL0     C21145   7.295   9.033   6.245 -0.5145 -0.4274  0.1789
  898MOL0     N21146   7.634   9.130   6.990  0.2549 -0.1222  0.1365
  898MOL0     N21147   7.678   9.198   7.093 -0.5648  0.3709 -0.2695
  898MOL0     C21148   8.730   9.340   7.442  1.2066  0.3123 -0.4370
  898MOL0     C21149   8.818   9.438   7.412 -0.7681 -0.7619 -0.7320
  898MOL0     C21150   9.122   9.715   7.240 -0.0087 -0.6661 -0.0826
  898MOL0     C21151   9.243   9.754   7.300  0.5956 -0.2435  0.0936
  898MOL0     C21152   9.305   9.869   7.258 -0.0061  0.3245  0.6789
  898MOL0     C21153   9.258   9.953   7.168  0.7060  0.1000 -0.1485
  898MOL0     O21154   9.331  10.073   7.154  0.6776  0.1716 -0.3608
  898MOL0     C21155   9.284  10.179   7.075  0.6878  0.8946  0.2471
  898MOL0     C21156   9.346  10.317   7.114  0.8954  0.2438  0.5569
  898MOL0     C21157   9.314  10.428   7.003  0.3983 -0.8056 -0.4100
  898MOL0     C21158   9.230  10.542   7.063  0.3024  0.3122 -0.0491
  898MOL0     C21159   9.161  10.633   6.967  0.6617  0.4453 -0.0435
  898MOL0     C21160   9.086  10.718   6.911 -0.6054 -0.2288 -0.2962
  898MOL0     C21161   9.139   9.919   7.106  0.3621 -0.2715  0.3355
  898MOL0     C21162   9.067   9.803   7.148  0.7449 -0.0809  0.3744
  898MOL0     H21163   8.806   9.427   7.073  0.7187 -0.2543 -0.0797
  898MOL0     H21164   8.652   9.264   7.116 -1.9678 -2.6590  1.2173
  898MOL0     H21165   8.560   9.107   7.176  1.0536 -1.8940  0.6356
  898MOL0     H21166   8.536   9.006   7.296  0.9171  1.4527  2.3712
  898MOL0     H21167   8.315   9.036   7.172 -2.5648 -1.3340  1.7659
  898MOL0     H21168   8.307   9.096   7.340  0.2044  1.0755  0.6085
  898MOL0     H21169   8.346   9.319   7.252 -2.2335 -0.8527  2.5852
  898MOL0     H21170   8.350   9.259   7.081  1.1011 -2.4924 -0.1628
  898MOL0     H21171   8.103   9.177   7.135  0.0133 -0.0079 -0.0946
  898MOL0     H21172   8.108   9.281   7.278 -3.8582 -0.4838 -1.1612
  898MOL0     H21173   8.175   9.471   7.127 -0.5602  0.0582  0.1967
  898MOL0     H21174   8.156   9.365   6.984 -1.5249 -2.0147  0.3387
  898MOL0     H21175   7.962   9.534   6.998 -2.6777  0.4936 -0.5826
  898MOL0     H21176   7.930   9.361   6.975  4.7005  1.2539 -3.8570
  898MOL0     H21177   7.880   9.332   7.213 -1.2445  0.5620  0.8554
  898MOL0     H21178   7.908   9.499   7.253  1.4177 -2.2168  1.1170
  898MOL0     H21179   7.696   9.541   7.089 -1.6362 -1.0818  0.8949
  898MOL0     H21180   7.665   9.435   7.227 -0.3137  3.0950  0.4363
  898MOL0     H21181   7.634   9.427   6.862 -0.7652  0.1574  0.2698
  898MOL0     H21182   7.666   9.060   6.735  2.6745  1.2063  0.0702
  898MOL0     H21183   7.493   9.110   6.740 -1.2145  3.9806 -3.8366
  898MOL0     H21184   7.721   9.289   6.635  0.7324 -2.1365  1.9128
  898MOL0     H21185   7.541   9.311   6.609 -1.0278 -0.3975  2.2797
  898MOL0     H21186   7.722   9.095   6.497 -2.0446 -1.5604  1.2641
  898MOL0     H21187   7.661   9.215   6.387 -0.6419 -2.4743 -2.0288
  898MOL0     H21188   7.501   9.004   6.526  1.6933  0.2647  1.2627
  898MOL0     H21189   7.550   9.012   6.357  0.7774  0.4222  0.2472
  898MOL0     H21190   7.190   9.294   6.441  3.8474 -0.5556  0.6024
  898MOL0     H21191   6.959   9.333   6.428 -2.2669  2.1859 -1.1414
  898MOL0     H21192   6.930   9.357   6.263 -1.6547  0.0774 -0.2783
  898MOL0     H21193   6.860   9.211   6.348 -0.6505  1.9309  3.9534
  898MOL0     H21194   6.879   9.095   5.809 -2.9107  0.7733  0.6535
  898MOL0     H21195   6.714   9.031   5.661 -2.1927 -2.2278 -1.3886
  898MOL0     H21196   6.661   8.690   5.586  0.7227  0.7361  0.3265
  898MOL0     H21197   6.512   8.627   5.662 -0.7365  0.7480 -1.4126
  898MOL0     H21198   6.371   8.734   5.503  1.1548  2.0430  3.0158
  898MOL0     H21199   6.512   8.803   5.423  0.4165 -0.7083 -0.1186
  898MOL0     H21200   6.415   8.505   5.426 -3.3212  2.1969  1.2358
  898MOL0     H21201   6.577   8.559   5.355 -0.8704 -1.1815 -2.1565
  898MOL0     H21202   6.310   8.667   5.291  0.2035  1.0581  0.2694
  898MOL0     H21203   6.453   8.717   5.215  1.5210 -2.0669 -2.2247
  898MOL0     H21204   6.354   8.428   5.220 -1.2057  0.0090 -1.0763
  898MOL0     H21205   6.478   8.485   5.103  0.4094 -0.3992  0.1245
  898MOL0     H21206   6.175   8.525   5.112 -0.8416 -0.2238 -1.3878
  898MOL0     H21207   6.266   8.652   5.044 -1.5868 -0.9459 -1.5940
  898MOL0     H21208   6.269   8.358   4.957  1.4438 -0.3470  0.8762
  898MOL0     H21209   6.370   8.475   4.874 -2.5251  1.7096 -3.3843
  898MOL0     H21210   6.136   8.424   4.763  0.2083  2.8953 -3.6696
  898MOL0     H21211   6.188   8.590   4.784 -0.6753  0.8127  1.6119
  898MOL0     H21212   6.607   8.682   5.890 -0.0328 -0.6657 -2.8470
  898MOL0     H21213   6.798   8.740   6.050 -3.1014 -1.4701 -1.6105
  898MOL0     H21214   7.184   8.923   6.106  2.0916  0.1044  0.5727
  898MOL0     H21215   7.373   8.957   6.245 -1.1195 -1.0595 -0.4540
  898MOL0     H21216   8.706   9.314   7.544  0.0385 -0.4892 -0.9029
  898MOL0     H21217   8.863   9.487   7.498 -0.0026 -3.3779  0.4447
  898MOL0     H21218   9.291   9.694   7.377  1.5265  1.4500  0.8856
  898MOL0     H21219   9.386   9.898   7.323  0.8640  0.7159 -0.5354
  898MOL0     H21220   9.291  10.171   6.966  1.6213  0.1038  0.3512
  898MOL0     H21221   9.181  10.196   7.107  0.3397 -0.3475 -0.1517
  898MOL0     H21222   9.453  10.297   7.117  0.6415 -1.4137 -0.0118
  898MOL0     H21223   9.303  10.347   7.210 -1.9115  0.8147 -0.7737
  898MOL0     H21224   9.247  10.393   6.925 -2.9702  0.6564  1.5988
  898MOL0     H21225   9.405  10.471   6.960  1.5976 -1.5196  1.2647
  898MOL0     H21226   9.282  10.602   7.139 -0.3998 -2.6204  2.9927
  898MOL0     H21227   9.139  10.501   7.109  1.3153 -0.1680  1.5877
  898MOL0     H21228   9.020  10.794   6.872 -1.2532 -0.8242 -0.3887
  898MOL0     H21229   9.095   9.958   7.015  3.2468 -0.4029 -1.2267
  898MOL0     H21230   8.979   9.783   7.087  1.2525  0.2408 -0.4767
  899MOL0     O21231   3.538   5.268   4.769 -0.4541  0.1873  0.2191
  899MOL0     C21232   3.571   5.332   4.876  0.2431  1.6366  0.8629
  899MOL0     O21233   3.528   5.450   4.910  0.2777  0.0282  0.4764
  899MOL0     C21234   3.409   5.497   4.853 -0.7396 -0.3106 -0.8830
  899MOL0     C21235   3.295   5.495   4.942 -0.4751 -0.4618  0.2185
  899MOL0     C21236   3.165   5.535   4.898  0.2678  0.0351 -0.0086
  899MOL0     C21237   3.137   5.576   4.769 -0.5390  0.0650 -0.7247
  899MOL0     O21238   3.007   5.614   4.741  0.1750 -0.4395 -1.0973
  899MOL0     C21239   2.972   5.637   4.608 -0.8541  0.5554  0.3431
  899MOL0     C21240   2.825   5.625   4.593 -0.8005 -0.3535 -0.5096
  899MOL0     C21241   2.766   5.690   4.480 -0.0536 -0.3921 -0.0238
  899MOL0     C21242   2.612   5.710   4.504 -0.6279 -0.3636 -0.0691
  899MOL0     C21243   2.547   5.768   4.378  0.0465 -0.4807  0.0593
  899MOL0     C21244   2.395   5.770   4.394  0.8303  0.0165  0.1979
  899MOL0     C21245   2.337   5.631   4.358  1.2548  0.1397 -0.0795
  899MOL0     C21246   2.190   5.614   4.392  0.5793  0.6485  0.1209
  899MOL0     N21247   2.097   5.698   4.312 -0.2297  0.1524 -0.0578
  899MOL0     C21248   2.071   5.830   4.348 -1.2454 -0.6344 -0.1421
  899MOL0     C21249   1.972   5.859   4.263 -0.9922 -0.2321  0.1309
  899MOL0     C21250   1.899   5.987   4.243  0.6545 -0.4727 -0.8344
  899MOL0     C21251   1.766   5.994   4.332  0.7274 -0.5506  0.0052
  899MOL0     C21252   1.761   6.122   4.416  0.5162 -1.0938  0.3032
  899MOL0     C21253   1.652   6.107   4.526  1.0396  0.0713  0.4953
  899MOL0     O21254   1.523   6.060   4.474 -1.1338  0.2427  0.3790
  899MOL0     C21255   1.414   6.087   4.559 -0.1568 -0.5034  0.7298
  899MOL0     C21256   1.410   6.098   4.696  0.5156  0.3313 -0.7150
  899MOL0     C21257   1.290   6.116   4.768 -0.0469  0.8375  0.1045
  899MOL0     C21258   1.307   6.113   4.913  0.5423 -0.2907  0.8834
  899MOL0     C21259   1.164   6.124   4.709  0.1323 -0.0257  0.4041
  899MOL0     C21260   1.039   6.144   4.776  0.2437  0.2563 -0.8620
  899MOL0     O21261   0.954   6.218   4.689 -0.7600  0.5093  0.0541
  899MOL0     C21262   0.826   6.237   4.714  0.6975  0.5092  0.8797
  899MOL0     C21263   0.770   6.274   4.840 -0.1753  0.5341  0.5475
  899MOL0     C21264   0.644   6.318   4.855 -1.0121 -0.0370  0.8232
  899MOL0     C21265   0.552   6.305   4.752  0.4404  0.1471  0.5616
  899MOL0     O21266   0.417   6.322   4.761 -1.0382  1.2042 -0.0369
  899MOL0     C21267   0.361   6.280   4.886 -0.6297  0.3200 -0.7070
  899MOL0     C21268   0.218   6.237   4.877  0.1415  0.7122  0.3340
  899MOL0     C21269   0.198   6.123   4.765  0.5781  0.0078 -0.2452
  899MOL0     C21270   0.086   6.022   4.795  0.1939  0.4112 -0.3436
  899MOL0     C21271   0.010   5.951   4.675 -0.1535  0.2641  1.0209
  899MOL0     C21272  -0.121   5.873   4.728 -0.3114  0.6158 -0.1880
  899MOL0     C21273  -0.201   5.812   4.616  0.1610 -0.4321 -0.2391
  899MOL0     C21274  -0.321   5.738   4.678  0.7130  0.3099 -0.2718
  899MOL0    Cl21275  -0.437   5.848   4.765  0.2722  0.0849  0.2587
  899MOL0     C21276   0.602   6.272   4.624  1.3522  0.1902  0.2422
  899MOL0     C21277   0.741   6.235   4.609  0.5018  0.2890  1.0528
  899MOL0     O21278   1.015   6.114   4.900  0.6025  0.0457  0.5145
  899MOL0     C21279   1.170   6.133   4.570  0.7939  1.3206  0.2765
  899MOL0     C21280   1.286   6.113   4.493 -0.4013  0.9596  0.0022
  899MOL0     N21281   1.945   5.760   4.177 -0.8717  0.1828  0.6752
  899MOL0     N21282   2.017   5.661   4.207  0.0786  0.9531 -0.6124
  899MOL0     C21283   3.243   5.582   4.680 -1.2919  0.2421  0.2812
  899MOL0     C21284   3.378   5.546   4.722  0.9341  0.1313  0.2973
  899MOL0     C21285   3.666   5.266   4.970 -0.0298  0.1016  0.2938
  899MOL0     C21286   3.650   5.126   4.978  0.2276 -0.2486  0.2745
  899MOL0     C21287   3.711   5.049   5.078 -0.8800  0.5212 -0.5531
  899MOL0     C21288   3.815   5.113   5.154 -0.8619  0.2308 -0.1488
  899MOL0     O21289   3.878   5.058   5.266 -0.0809  0.5270  0.4274
  899MOL0     C21290   3.854   4.927   5.313 -0.7942  0.6218 -0.4283
  899MOL0     C21291   3.745   4.930   5.418  0.3633 -0.0450 -0.4717
  899MOL0     C21292   3.794   4.990   5.552  0.1655 -0.0152  0.2167
  899MOL0     C21293   3.694   4.974   5.668 -0.6054  0.3657  0.0267
  899MOL0     C21294   3.737   4.846   5.736  0.1223 -0.5904  0.3497
  899MOL0     C21295   3.764   4.754   5.807 -0.4047 -0.2798 -0.3094
  899MOL0     C21296   3.841   5.252   5.135  0.0142 -0.1565 -0.1737
  899MOL0     C21297   3.770   5.320   5.040 -0.0845  0.5684 -0.0798
  899MOL0     H21298   3.305   5.461   5.045 -1.4643 -1.1261  0.1137
  899MOL0     H21299   3.085   5.520   4.969  1.3335 -1.3824  0.9467
  899MOL0     H21300   3.005   5.736   4.578  2.6923 -1.0576 -1.7200
  899MOL0     H21301   3.016   5.565   4.539 -0.4653  0.7518  0.3879
  899MOL0     H21302   2.798   5.519   4.598 -0.2738 -0.4252  2.9949
  899MOL0     H21303   2.786   5.673   4.683 -0.5895  0.5619 -0.8914
  899MOL0     H21304   2.813   5.788   4.468  1.0904 -0.5518  2.5392
  899MOL0     H21305   2.780   5.623   4.395 -0.6650 -0.4143 -0.1124
  899MOL0     H21306   2.565   5.616   4.532  1.7102 -1.0550  1.8288
  899MOL0     H21307   2.595   5.783   4.583  0.2095  3.0639 -2.7836
  899MOL0     H21308   2.574   5.874   4.381  0.2865 -0.5488  0.2929
  899MOL0     H21309   2.567   5.707   4.290 -0.0066 -2.8415  1.5865
  899MOL0     H21310   2.368   5.807   4.493 -1.5280 -0.5913 -0.1600
  899MOL0     H21311   2.344   5.840   4.328 -0.6582 -1.3984 -0.2183
  899MOL0     H21312   2.349   5.614   4.251 -2.8971 -2.0174 -0.4063
  899MOL0     H21313   2.390   5.553   4.414 -0.1456 -1.4689 -0.9031
  899MOL0     H21314   2.174   5.625   4.499  0.4526 -2.2823  0.5013
  899MOL0     H21315   2.176   5.509   4.364 -2.2431  0.6150  1.3188
  899MOL0     H21316   2.125   5.883   4.426  1.0212 -2.6962 -0.1748
  899MOL0     H21317   1.961   6.061   4.293  0.6432 -0.9884 -0.0365
  899MOL0     H21318   1.886   6.016   4.138  1.2955  1.2644 -0.4532
  899MOL0     H21319   1.779   5.908   4.398  2.2835 -0.3405  0.0087
  899MOL0     H21320   1.676   5.970   4.275 -0.2361  0.9780  0.8483
  899MOL0     H21321   1.719   6.205   4.357 -1.3199 -2.1842  0.0210
  899MOL0     H21322   1.858   6.140   4.463 -0.3545 -1.8713  2.5121
  899MOL0     H21323   1.636   6.199   4.583 -1.5678 -1.6303  2.7832
  899MOL0     H21324   1.685   6.038   4.605  3.4201  1.8076  1.1412
  899MOL0     H21325   1.497   6.087   4.759  0.7439 -0.4466 -1.1562
  899MOL0     H21326   1.412   6.100   4.940  1.7336  1.6419 -2.2724
  899MOL0     H21327   1.275   6.213   4.943  0.9817  0.2320 -0.3282
  899MOL0     H21328   1.251   6.028   4.952 -0.7405 -1.4855 -3.1079
  899MOL0     H21329   0.832   6.264   4.928 -0.2024  0.2495  0.5353
  899MOL0     H21330   0.601   6.344   4.951  0.4727  1.6027  1.1014
  899MOL0     H21331   0.422   6.204   4.936  0.8822 -0.0252 -2.9509
  899MOL0     H21332   0.377   6.366   4.950  0.7274  0.0684 -0.6928
  899MOL0     H21333   0.188   6.212   4.979  1.1286 -1.0201  0.2377
  899MOL0     H21334   0.171   6.332   4.849 -1.8551 -0.1132  0.7672
  899MOL0     H21335   0.292   6.067   4.761  0.7239  0.3032 -1.5538
  899MOL0     H21336   0.197   6.176   4.669  2.6394  0.2537 -0.1737
  899MOL0     H21337   0.129   5.939   4.852  0.2092 -0.6132 -1.7833
  899MOL0     H21338   0.007   6.051   4.864  0.2348 -2.9027  1.3045
  899MOL0     H21339   0.074   5.873   4.634 -2.0520 -0.3178 -1.0246
  899MOL0     H21340  -0.002   6.008   4.583 -2.3818 -0.6477  0.6846
  899MOL0     H21341  -0.076   5.794   4.790 -0.7008  1.4776  1.2213
  899MOL0     H21342  -0.182   5.935   4.793  0.6517  0.0306  1.3387
  899MOL0     H21343  -0.142   5.738   4.561 -0.2474 -1.8327  1.1238
  899MOL0     H21344  -0.234   5.890   4.547  0.5076  2.8152  2.9913
  899MOL0     H21345  -0.287   5.672   4.758 -1.2040 -1.3040 -0.7074
  899MOL0     H21346  -0.375   5.678   4.604 -1.9015  2.5164 -0.3290
  899MOL0     H21347   0.538   6.310   4.546  0.8857  2.1998  1.5418
  899MOL0     H21348   0.780   6.223   4.508 -0.4776  1.3594  0.5229
  899MOL0     H21349   1.074   6.145   4.522  0.5532  1.5979  0.8195
  899MOL0     H21350   1.271   6.088   4.389  1.4144  0.9302 -0.2850
  899MOL0     H21351   3.241   5.633   4.584  0.4656  2.8676  1.5053
  899MOL0     H21352   3.458   5.553   4.649 -0.1012  0.4613 -0.8419
  899MOL0     H21353   3.575   5.074   4.919  1.4020 -0.5767 -0.9744
  899MOL0     H21354   3.679   4.946   5.089 -0.7784  0.6522  1.3676
  899MOL0     H21355   3.821   4.861   5.232 -1.7527  0.2003  0.2844
  899MOL0     H21356   3.944   4.888   5.361 -1.4171  2.2599  2.2570
  899MOL0     H21357   3.704   4.829   5.434 -0.9369  0.2924 -1.4792
  899MOL0     H21358   3.664   4.995   5.384 -2.3757 -1.3339  2.9076
  899MOL0     H21359   3.819   5.096   5.541  3.6291 -0.6023  0.9513
  899MOL0     H21360   3.889   4.940   5.576 -1.2181 -1.9455  2.0566
  899MOL0     H21361   3.597   4.966   5.616  0.5635  0.2136 -2.2778
  899MOL0     H21362   3.691   5.063   5.730 -1.7499  2.2571 -2.5649
  899MOL0     H21363   3.781   4.675   5.877 -2.0046 -1.4013 -1.1413
  899MOL0     H21364   3.906   5.313   5.198 -1.2680  2.8771 -1.5765
  899MOL0     H21365   3.779   5.427   5.024  1.0015  0.3544 -1.0118
  900MOL0     O21366   3.021   6.504  11.077 -0.2804 -0.1824 -0.0145
  900MOL0     C21367   3.049   6.600  11.000  0.1146  0.4317 -0.0593
  900MOL0     O21368   2.963   6.654  10.907 -0.0392  0.9202 -0.2591
  900MOL0     C21369   2.836   6.614  10.902 -0.6222 -0.5753  0.1200
  900MOL0     C21370   2.800   6.495  10.846  0.0163  0.7413 -0.3611
  900MOL0     C21371   2.666   6.451  10.830 -0.3968 -0.3692 -0.6569
  900MOL0     C21372   2.561   6.542  10.866  0.6019 -0.8404  0.2196
  900MOL0     O21373   2.432   6.495  10.862 -0.3506 -0.5839  0.2222
  900MOL0     C21374   2.335   6.593  10.816  0.1565 -0.2896  0.2974
  900MOL0     C21375   2.203   6.522  10.773 -0.4658  0.4987 -0.6422
  900MOL0     C21376   2.118   6.609  10.690 -0.0109 -0.2260  0.3777
  900MOL0     C21377   1.986   6.532  10.661 -0.0097  0.2212 -0.6132
  900MOL0     C21378   1.899   6.625  10.577  0.5596  0.5170 -0.1278
  900MOL0     C21379   1.757   6.562  10.546  0.1418  0.8530  0.5321
  900MOL0     C21380   1.675   6.529  10.672 -0.1208 -0.4566  0.8766
  900MOL0     C21381   1.535   6.481  10.636 -0.5318  0.1713  0.6054
  900MOL0     N21382   1.437   6.586  10.592 -0.2321 -0.2966  0.4873
  900MOL0     C21383   1.403   6.633  10.467 -0.1461 -0.3715 -0.8252
  900MOL0     C21384   1.321   6.739  10.487 -0.3846  0.8783 -0.3297
  900MOL0     C21385   1.246   6.837  10.398  0.4959 -0.5286 -0.0133
  900MOL0     C21386   1.355   6.927  10.335 -0.2579  0.8820  0.4544
  900MOL0     C21387   1.437   7.009  10.435 -0.5413  0.3796  0.2589
  900MOL0     C21388   1.577   6.950  10.488  0.6874 -0.0622  0.6493
  900MOL0     O21389   1.658   7.056  10.542 -0.1699  0.6067  0.1943
  900MOL0     C21390   1.789   7.039  10.524  0.2715 -0.6485  0.7068
  900MOL0     C21391   1.839   7.024  10.393  0.1848 -0.3738 -0.5871
  900MOL0     C21392   1.978   7.001  10.388 -0.5354 -0.1741  0.2868
  900MOL0     C21393   2.034   6.981  10.258  0.2834  0.1045 -0.6599
  900MOL0     C21394   2.056   6.986  10.504 -0.9747  0.3415  0.1964
  900MOL0     C21395   2.192   6.933  10.511  0.9546  0.3632  0.4596
  900MOL0     O21396   2.275   6.994  10.596 -0.2519 -0.3236 -0.3146
  900MOL0     C21397   2.407   6.979  10.557  0.6328  0.0026  0.2235
  900MOL0     C21398   2.444   7.034  10.438 -0.3067  0.8311  0.1311
  900MOL0     C21399   2.574   7.019  10.395 -0.2429 -0.2088 -0.3080
  900MOL0     C21400   2.662   6.941  10.467  0.4333 -0.2012 -0.1213
  900MOL0     O21401   2.779   6.918  10.401 -0.0327  0.1299  0.6615
  900MOL0     C21402   2.889   6.854  10.462 -0.1010  0.4714  0.5018
  900MOL0     C21403   2.964   6.965  10.542  0.0800  0.7189 -1.0524
  900MOL0     C21404   3.093   6.920  10.594  0.2461  0.9020  0.2938
  900MOL0     C21405   3.181   6.877  10.474 -0.0888  0.7081 -1.2208
  900MOL0     C21406   3.335   6.856  10.510  1.0655 -0.2687 -0.5768
  900MOL0     C21407   3.406   6.989  10.532  0.8803 -0.1056  0.6150
  900MOL0     C21408   3.436   7.060  10.398  0.4726 -0.0709 -0.2437
  900MOL0     C21409   3.476   7.208  10.399 -0.9333 -1.5966 -0.9965
  900MOL0    Cl21410   3.353   7.334  10.441 -0.4803 -0.4599  0.4270
  900MOL0     C21411   2.626   6.877  10.587 -0.8027 -0.4674  0.9248
  900MOL0     C21412   2.491   6.893  10.627  0.2366 -0.7994  0.4390
  900MOL0     O21413   2.219   6.834  10.442 -0.4386 -0.6336 -0.2768
  900MOL0     C21414   2.011   7.025  10.628  0.1928  0.2781  0.1708
  900MOL0     C21415   1.876   7.061  10.631  0.0792  0.4702 -0.5606
  900MOL0     N21416   1.326   6.758  10.624 -0.0141  0.3983 -0.2779
  900MOL0     N21417   1.388   6.669  10.689  0.2321  0.2659  1.0855
  900MOL0     C21418   2.604   6.671  10.909  0.7026  0.1863 -0.0318
  900MOL0     C21419   2.735   6.709  10.923 -1.1229  0.0161 -0.6839
  900MOL0     C21420   3.182   6.650  10.996  0.7012 -0.4964 -0.1633
  900MOL0     C21421   3.224   6.752  10.902 -0.2791 -0.3296  0.3075
  900MOL0     C21422   3.356   6.793  10.899  0.1561  0.3415 -0.7393
  900MOL0     C21423   3.451   6.749  10.994  0.3959  0.0141 -0.0978
  900MOL0     O21424   3.585   6.785  10.983  0.2631  0.1284  0.4824
  900MOL0     C21425   3.631   6.850  10.854 -0.4913 -0.1738  0.1544
  900MOL0     C21426   3.789   6.844  10.852  1.2343 -0.7463  0.2865
  900MOL0     C21427   3.837   6.923  10.969  0.1631 -0.0347 -0.6010
  900MOL0     C21428   3.975   6.982  10.944  0.0060  0.1908 -0.1309
  900MOL0     C21429   4.029   7.052  11.065 -0.1362 -0.2626 -0.1440
  900MOL0     C21430   4.069   7.104  11.162 -0.3776  0.6298 -0.3180
  900MOL0     C21431   3.407   6.658  11.088 -0.4750 -0.1641 -0.6274
  900MOL0     C21432   3.276   6.614  11.091  0.6602  0.5610 -1.1224
  900MOL0     H21433   2.876   6.417  10.838  0.7125  1.3507  0.1532
  900MOL0     H21434   2.631   6.355  10.795 -3.0998  0.3965 -0.3696
  900MOL0     H21435   2.308   6.656  10.901  0.3377  1.6354 -1.0080
  900MOL0     H21436   2.369   6.646  10.726 -1.4502  0.2227 -0.0614
  900MOL0     H21437   2.225   6.426  10.726  0.8623  0.5175 -0.1116
  900MOL0     H21438   2.158   6.509  10.872  0.2486  2.4408 -0.0183
  900MOL0     H21439   2.106   6.710  10.730 -1.6861  0.4338 -1.6189
  900MOL0     H21440   2.167   6.634  10.596 -2.5737  1.9409 -0.5082
  900MOL0     H21441   2.010   6.437  10.613  2.3117  1.1882 -1.4955
  900MOL0     H21442   1.932   6.508  10.754  1.9491  0.6651  0.6886
  900MOL0     H21443   1.896   6.725  10.622  1.7926  1.0453 -1.1408
  900MOL0     H21444   1.947   6.624  10.479  0.9582 -0.8612  0.0641
  900MOL0     H21445   1.700   6.630  10.483  2.0092  1.2058 -0.8669
  900MOL0     H21446   1.769   6.478  10.477  2.5551  1.8095 -0.3504
  900MOL0     H21447   1.719   6.460  10.746 -1.4450 -2.4120 -0.0749
  900MOL0     H21448   1.666   6.629  10.716  0.3804 -0.4689  1.0177
  900MOL0     H21449   1.488   6.439  10.726  1.7556 -1.7171  1.0160
  900MOL0     H21450   1.547   6.395  10.569  0.2443  0.9665 -0.2935
  900MOL0     H21451   1.437   6.599  10.370  0.0517 -0.9859 -0.5489
  900MOL0     H21452   1.191   6.786  10.318  3.5166  1.5480 -3.7346
  900MOL0     H21453   1.179   6.895  10.463  0.2218 -0.6028 -0.2280
  900MOL0     H21454   1.295   6.990  10.268 -0.1272  1.7503  1.1243
  900MOL0     H21455   1.419   6.866  10.271 -2.5978 -0.6518 -0.5564
  900MOL0     H21456   1.369   7.023  10.520 -1.5736 -0.9671 -0.2972
  900MOL0     H21457   1.458   7.113  10.409  0.9939  0.2543  0.9081
  900MOL0     H21458   1.623   6.891  10.408 -5.2600 -0.3287 -3.1783
  900MOL0     H21459   1.560   6.882  10.572 -1.4394  1.0397  1.1659
  900MOL0     H21460   1.772   7.012  10.309 -3.9911 -0.2397  2.4162
  900MOL0     H21461   2.081   6.882  10.249 -1.2693 -1.2018  3.4638
  900MOL0     H21462   1.957   6.982  10.180 -0.5091  2.0132  0.0847
  900MOL0     H21463   2.102   7.062  10.228 -1.0963  0.9770 -1.5815
  900MOL0     H21464   2.370   7.096  10.388 -0.6768  1.1716  1.0860
  900MOL0     H21465   2.610   7.061  10.301 -0.0067  2.6097  0.9227
  900MOL0     H21466   2.858   6.783  10.539 -2.2750 -0.0190 -0.7540
  900MOL0     H21467   2.945   6.801  10.384 -0.5717 -1.0014  1.1410
  900MOL0     H21468   2.987   7.045  10.471  0.3211 -0.2160 -2.0562
  900MOL0     H21469   2.906   7.004  10.626 -0.6111  0.4080 -1.3743
  900MOL0     H21470   3.074   6.839  10.665 -0.6897 -0.3855 -1.3558
  900MOL0     H21471   3.140   7.002  10.650 -2.7789  2.3535  0.9315
  900MOL0     H21472   3.142   6.782  10.435 -2.2808  0.6884  0.7771
  900MOL0     H21473   3.168   6.954  10.398  2.5244  0.5163 -1.9403
  900MOL0     H21474   3.381   6.800  10.428 -0.9097  0.1841 -2.0906
  900MOL0     H21475   3.342   6.796  10.601 -1.6305 -0.0782 -0.1720
  900MOL0     H21476   3.347   7.057  10.594 -0.1972 -0.7727  0.3427
  900MOL0     H21477   3.497   6.973  10.591  2.3175 -1.1229 -1.7469
  900MOL0     H21478   3.351   7.041  10.331  2.0757 -3.1965 -1.5935
  900MOL0     H21479   3.520   7.011  10.349  0.9770  1.8773 -1.4236
  900MOL0     H21480   3.521   7.243  10.306  0.5875  0.5376  0.4365
  900MOL0     H21481   3.555   7.213  10.475 -0.0026  3.5761 -1.9173
  900MOL0     H21482   2.685   6.810  10.650 -2.5417 -4.2806 -1.1759
  900MOL0     H21483   2.455   6.844  10.717 -1.7224 -2.5820 -1.2096
  900MOL0     H21484   2.069   7.043  10.717  0.7971 -1.2668  0.1053
  900MOL0     H21485   1.835   7.079  10.729  0.8276  0.8575 -0.3065
  900MOL0     H21486   2.526   6.738  10.944 -0.5052 -2.1873  2.1901
  900MOL0     H21487   2.757   6.812  10.952 -3.4066  0.0297  1.4021
  900MOL0     H21488   3.157   6.799  10.830 -1.2064 -1.5784  0.3167
  900MOL0     H21489   3.377   6.872  10.827  0.9520  2.4401  1.6309
  900MOL0     H21490   3.595   6.805  10.761  1.6581  3.2058 -2.5282
  900MOL0     H21491   3.599   6.953  10.837  1.2853  0.3861  0.0587
  900MOL0     H21492   3.831   6.878  10.757  2.8472 -3.9636 -0.3199
  900MOL0     H21493   3.828   6.742  10.862  0.1651 -2.2683 -6.3266
  900MOL0     H21494   3.842   6.860  11.058  1.9196  0.8838  0.0061
  900MOL0     H21495   3.764   6.996  11.006  0.0046  0.0347 -1.0414
  900MOL0     H21496   3.964   7.055  10.864  5.0124  3.0123  1.3405
  900MOL0     H21497   4.034   6.895  10.914  0.4456  0.5756 -0.3816
  900MOL0     H21498   4.100   7.163  11.246 -1.6672  4.3142 -2.2247
  900MOL0     H21499   3.476   6.617  11.161  0.2293  0.0380 -1.1683
  900MOL0     H21500   3.254   6.534  11.161 -4.4907  1.7513 -0.9395
  901MOL0     O21501   4.489   9.003   1.776 -0.5974  0.0223 -0.0649
  901MOL0     C21502   4.439   9.122   1.786 -0.9090  0.4032  0.7419
  901MOL0     O21503   4.310   9.159   1.810  0.9040 -0.4834 -0.0593
  901MOL0     C21504   4.228   9.051   1.845 -0.8429 -0.2701  0.7373
  901MOL0     C21505   4.146   8.993   1.741  0.4226 -0.1242 -0.4516
  901MOL0     C21506   4.052   8.899   1.777 -1.2583  0.0565  0.6989
  901MOL0     C21507   4.045   8.848   1.906 -0.0717  0.1120  0.3270
  901MOL0     O21508   3.939   8.760   1.937  0.0332 -0.6656 -0.8506
  901MOL0     C21509   3.845   8.719   1.828 -0.4675  0.9046 -0.1548
  901MOL0     C21510   3.777   8.605   1.896  0.5461  0.0320 -0.3529
  901MOL0     C21511   3.676   8.557   1.793  0.2910  0.5457  0.1784
  901MOL0     C21512   3.575   8.433   1.824 -1.0566 -0.9664 -0.3933
  901MOL0     C21513   3.505   8.385   1.709  0.2912 -0.0829  0.2556
  901MOL0     C21514   3.403   8.487   1.650 -0.6946  0.9214 -0.1618
  901MOL0     C21515   3.319   8.429   1.533 -0.5789 -0.7544  0.1191
  901MOL0     C21516   3.178   8.497   1.521 -0.3284  0.1165  0.8130
  901MOL0     N21517   3.178   8.632   1.480 -0.0639 -0.8623  0.4162
  901MOL0     C21518   3.171   8.678   1.356  0.5311 -0.1103 -0.0790
  901MOL0     C21519   3.175   8.804   1.370 -0.3359 -1.0401 -0.5252
  901MOL0     C21520   3.167   8.902   1.246 -0.0600  0.6636  0.4125
  901MOL0     C21521   3.298   8.972   1.219  0.3290 -0.6173 -0.4602
  901MOL0     C21522   3.296   9.044   1.084 -0.3289  0.4020  0.3367
  901MOL0     C21523   3.439   9.117   1.072 -0.0343  0.4622 -0.5629
  901MOL0     O21524   3.481   9.116   0.935 -0.2148  0.4064 -0.0773
  901MOL0     C21525   3.423   9.206   0.844  0.0359  0.1469 -0.6956
  901MOL0     C21526   3.442   9.183   0.712  0.9256 -0.4437  0.9486
  901MOL0     C21527   3.408   9.280   0.613  0.7568  0.2232  0.0428
  901MOL0     C21528   3.425   9.234   0.472 -0.1769 -0.4599  0.3871
  901MOL0     C21529   3.327   9.397   0.650  0.8274 -0.6318  0.1755
  901MOL0     C21530   3.253   9.492   0.555  0.3944  0.0671 -1.0647
  901MOL0     O21531   3.192   9.595   0.624 -0.4075 -0.6964 -0.0187
  901MOL0     C21532   3.095   9.681   0.574  0.4687 -0.8199  0.1379
  901MOL0     C21533   3.121   9.818   0.542 -0.5658  0.2759  0.1692
  901MOL0     C21534   3.016   9.899   0.484  0.2627 -0.9554 -0.4123
  901MOL0     C21535   2.887   9.852   0.468  0.6248 -0.1788 -1.1279
  901MOL0     O21536   2.784   9.928   0.416  0.2802 -1.3161  0.3196
  901MOL0     C21537   2.789  10.074   0.400 -0.6292  0.3865 -0.0115
  901MOL0     C21538   2.710  10.095   0.274 -0.0275  0.1229 -0.9317
  901MOL0     C21539   2.721  10.245   0.217 -0.0941  0.6548  0.2521
  901MOL0     C21540   2.625  10.262   0.096 -1.8009 -0.0637  0.3452
  901MOL0     C21541   2.640  10.404   0.018  0.2293  0.1171  0.6533
  901MOL0     C21542   2.595  10.392  -0.141 -0.9230 -0.3791 -0.1846
  901MOL0     C21543   2.620  10.521  -0.216 -1.4300 -0.8147 -0.0078
  901MOL0     C21544   2.527  10.646  -0.190  0.3853  0.5958 -0.2511
  901MOL0    Cl21545   2.601  10.796  -0.261  0.1752  0.5974 -0.2434
  901MOL0     C21546   2.861   9.720   0.511  0.1428 -1.2113  0.7940
  901MOL0     C21547   2.962   9.637   0.558  0.0560 -0.9093  0.3203
  901MOL0     O21548   3.249   9.462   0.437 -0.2197 -0.7236 -0.1318
  901MOL0     C21549   3.304   9.404   0.788  0.3696 -0.2032 -0.2932
  901MOL0     C21550   3.348   9.318   0.871  0.4642 -0.2413 -1.3170
  901MOL0     N21551   3.184   8.840   1.501  0.3839  0.1561  0.3835
  901MOL0     N21552   3.180   8.734   1.570 -0.2310  0.0745 -0.2489
  901MOL0     C21553   4.138   8.895   2.007  0.9359  0.4098 -0.2258
  901MOL0     C21554   4.227   8.991   1.971  0.6756 -0.2262 -0.1606
  901MOL0     C21555   4.540   9.227   1.754 -1.2981 -0.4558  0.3369
  901MOL0     C21556   4.526   9.356   1.812 -0.5547 -0.3381  1.0173
  901MOL0     C21557   4.621   9.460   1.781  0.8310 -0.2109  0.1157
  901MOL0     C21558   4.721   9.435   1.682 -0.1869  0.0104  1.3820
  901MOL0     O21559   4.822   9.520   1.650  1.2359 -0.4480  0.5347
  901MOL0     C21560   4.775   9.658   1.654 -0.9832  0.5538 -0.0641
  901MOL0     C21561   4.898   9.749   1.638  0.0190 -0.5046  0.0539
  901MOL0     C21562   5.013   9.724   1.733 -0.5526  0.3598 -0.1296
  901MOL0     C21563   4.959   9.734   1.882  0.5136 -0.0320 -0.5022
  901MOL0     C21564   4.874   9.844   1.917  0.5879  0.5809 -0.5055
  901MOL0     C21565   4.796   9.933   1.932  0.5943  0.2381  0.2425
  901MOL0     C21566   4.739   9.309   1.625  0.9128  0.2434  0.0991
  901MOL0     C21567   4.655   9.204   1.679 -0.1618 -0.2190  0.5055
  901MOL0     H21568   4.143   9.034   1.641  0.8533  3.3539  0.8268
  901MOL0     H21569   3.981   8.869   1.701 -2.3911  0.1441  1.7000
  901MOL0     H21570   3.777   8.796   1.792 -0.3702  0.6822 -0.8180
  901MOL0     H21571   3.901   8.676   1.744  0.2681  0.2671  0.6325
  901MOL0     H21572   3.843   8.522   1.921 -3.4872 -3.8577 -1.2448
  901MOL0     H21573   3.733   8.642   1.990  1.4947  0.4277 -0.0566
  901MOL0     H21574   3.610   8.641   1.770 -1.3096 -1.0064 -1.2913
  901MOL0     H21575   3.733   8.532   1.703  0.7892  0.1130  0.6110
  901MOL0     H21576   3.627   8.354   1.880  1.3864  3.2228  4.1104
  901MOL0     H21577   3.507   8.475   1.899  0.0372  0.2610 -0.0488
  901MOL0     H21578   3.584   8.365   1.636  3.3520  2.5224  2.5557
  901MOL0     H21579   3.460   8.288   1.735  0.1658 -0.1016 -0.0245
  901MOL0     H21580   3.335   8.515   1.731  1.0975  1.5832  1.1892
  901MOL0     H21581   3.452   8.577   1.614 -1.9706  2.0993  0.9475
  901MOL0     H21582   3.375   8.442   1.439  0.6687  1.1177  1.0519
  901MOL0     H21583   3.300   8.323   1.550  2.0946 -1.6944 -1.8581
  901MOL0     H21584   3.125   8.499   1.617 -1.6468  1.4987  0.0916
  901MOL0     H21585   3.109   8.441   1.457  1.2741 -0.7198 -0.2554
  901MOL0     H21586   3.160   8.620   1.265 -2.0977 -2.0721  1.3613
  901MOL0     H21587   3.137   8.851   1.153  0.5869  2.3252 -0.7505
  901MOL0     H21588   3.088   8.976   1.264  0.6524  1.7344 -0.6734
  901MOL0     H21589   3.368   8.889   1.216 -2.0866 -2.8228  0.1918
  901MOL0     H21590   3.311   9.046   1.299 -2.9778 -0.8102  0.4005
  901MOL0     H21591   3.207   9.108   1.080 -2.7589 -2.4919  2.9414
  901MOL0     H21592   3.276   8.970   1.005 -0.9884  1.3271 -0.3998
  901MOL0     H21593   3.514   9.060   1.127  2.8280  3.2478 -1.2393
  901MOL0     H21594   3.440   9.218   1.113 -3.4846 -0.0997  1.2618
  901MOL0     H21595   3.493   9.093   0.680 -0.5349 -1.3380  1.0300
  901MOL0     H21596   3.492   9.147   0.465  0.3955 -0.2180  2.1340
  901MOL0     H21597   3.329   9.223   0.422  0.6033  0.3752 -1.3904
  901MOL0     H21598   3.468   9.321   0.422 -1.5306 -0.2474 -0.4306
  901MOL0     H21599   3.224   9.842   0.566 -0.0155 -1.5688 -0.1532
  901MOL0     H21600   3.043  10.002   0.462 -0.3531 -0.9938 -1.4014
  901MOL0     H21601   2.733  10.120   0.482 -2.6526 -1.4855 -0.2652
  901MOL0     H21602   2.885  10.127   0.405  0.4231 -1.5352  2.2600
  901MOL0     H21603   2.734  10.029   0.190  0.3959  2.1635 -2.4969
  901MOL0     H21604   2.610  10.061   0.304  0.1069  1.5867  1.4894
  901MOL0     H21605   2.825  10.256   0.185 -0.1471 -0.0048 -0.1649
  901MOL0     H21606   2.696  10.319   0.294  0.0837  0.7790  0.1921
  901MOL0     H21607   2.646  10.181   0.026 -4.2267 -0.1850 -0.3398
  901MOL0     H21608   2.522  10.255   0.133 -1.0681 -1.0550  2.3739
  901MOL0     H21609   2.741  10.443   0.031  0.1837 -0.3589  2.7654
  901MOL0     H21610   2.595  10.485   0.076  0.0057  0.2632  0.2819
  901MOL0     H21611   2.641  10.306  -0.192 -1.0770 -1.6064  1.6587
  901MOL0     H21612   2.488  10.370  -0.147 -1.0645  0.2227  0.0180
  901MOL0     H21613   2.607  10.506  -0.324  0.5636  2.0446 -0.7740
  901MOL0     H21614   2.720  10.556  -0.189 -0.1581 -3.0310 -1.5468
  901MOL0     H21615   2.513  10.661  -0.082 -0.3788  1.1038 -0.4180
  901MOL0     H21616   2.426  10.634  -0.229  0.2253  1.2490 -0.0493
  901MOL0     H21617   2.763   9.675   0.519  0.0948 -1.0355  1.2069
  901MOL0     H21618   2.938   9.532   0.565  0.0909 -1.2880 -3.4933
  901MOL0     H21619   3.259   9.497   0.822 -0.6692 -0.7604 -0.0860
  901MOL0     H21620   3.310   9.335   0.970 -0.6794 -2.3006 -1.3500
  901MOL0     H21621   4.134   8.868   2.112 -0.0611  0.8921 -0.1323
  901MOL0     H21622   4.298   9.023   2.046  1.1102  0.7753 -0.9783
  901MOL0     H21623   4.451   9.380   1.887 -2.4776  2.6001 -1.6328
  901MOL0     H21624   4.592   9.551   1.833 -2.5488 -1.3016  0.3664
  901MOL0     H21625   4.706   9.666   1.569 -2.2699 -2.6339  0.5463
  901MOL0     H21626   4.722   9.687   1.745 -3.4686  0.4574 -1.3869
  901MOL0     H21627   4.858   9.851   1.629 -0.5024 -0.7520 -0.4871
  901MOL0     H21628   4.938   9.737   1.538  2.6782 -0.3601  1.0357
  901MOL0     H21629   5.087   9.804   1.725 -0.5298  0.8328  3.2648
  901MOL0     H21630   5.077   9.636   1.720 -0.4989 -0.0903  2.6516
  901MOL0     H21631   5.035   9.737   1.960 -1.3840  1.9526  1.3956
  901MOL0     H21632   4.891   9.649   1.896 -1.7521  1.3961 -2.1239
  901MOL0     H21633   4.731  10.014   1.959 -0.3661 -0.9956  1.7897
  901MOL0     H21634   4.823   9.284   1.561  0.5498 -2.1067  0.4504
  901MOL0     H21635   4.679   9.103   1.647 -1.2031 -0.5061  0.5819
  902MOL0     O21636   3.680   6.240  10.771 -0.3111  0.1085 -0.6360
  902MOL0     C21637   3.650   6.288  10.884  0.0046  0.6102  0.4747
  902MOL0     O21638   3.540   6.282  10.952 -0.0669 -0.3551  0.3037
  902MOL0     C21639   3.430   6.215  10.899  0.6362  0.2603  0.2485
  902MOL0     C21640   3.305   6.286  10.878 -1.3200 -0.4530 -0.4344
  902MOL0     C21641   3.199   6.225  10.817  0.6506  0.1981  0.3880
  902MOL0     C21642   3.207   6.090  10.769  0.0213 -0.2987 -0.0388
  902MOL0     O21643   3.098   6.029  10.712 -0.1536 -0.1138  0.3526
  902MOL0     C21644   2.964   6.076  10.723 -0.4674  0.3837 -0.7109
  902MOL0     C21645   2.882   5.957  10.663  0.0462 -0.3009  1.0768
  902MOL0     C21646   2.732   5.973  10.665 -0.1482  0.3046  0.2559
  902MOL0     C21647   2.661   5.859  10.580  0.1291 -0.6632 -1.1991
  902MOL0     C21648   2.509   5.892  10.571  0.7849 -0.2398  1.3132
  902MOL0     C21649   2.435   5.787  10.498 -0.5348  1.0407 -0.2045
  902MOL0     C21650   2.297   5.835  10.462 -0.5495  0.4898 -0.3633
  902MOL0     C21651   2.199   5.711  10.449  0.1340 -0.2232 -0.4486
  902MOL0     N21652   2.056   5.739  10.417 -0.2944 -0.0503 -0.3944
  902MOL0     C21653   1.958   5.744  10.509  0.9428  1.5298 -0.9572
  902MOL0     C21654   1.851   5.754  10.432 -0.2552  1.0017  0.3142
  902MOL0     C21655   1.708   5.743  10.473 -0.1350  1.2453  0.0975
  902MOL0     C21656   1.628   5.823  10.369  0.7939  0.2514  0.4085
  902MOL0     C21657   1.477   5.799  10.386  0.1068  0.2715 -0.5261
  902MOL0     C21658   1.406   5.862  10.269  0.2968  0.0954  0.5269
  902MOL0     O21659   1.264   5.869  10.321  0.6485 -0.4857 -0.4077
  902MOL0     C21660   1.175   5.921  10.235 -1.0131 -0.5700 -0.0600
  902MOL0     C21661   1.194   5.937  10.089 -0.3333 -0.0430  0.2735
  902MOL0     C21662   1.082   5.995  10.017 -0.2878  0.2776  0.2267
  902MOL0     C21663   1.098   6.006   9.868  1.1593  0.6204  0.1005
  902MOL0     C21664   0.972   6.041  10.090  0.3963  0.9715  0.4942
  902MOL0     C21665   0.867   6.124  10.031 -0.2097  0.2338 -0.6555
  902MOL0     O21666   0.909   6.234   9.955  0.2961  0.0035 -0.5313
  902MOL0     C21667   0.812   6.288   9.875 -0.5786  1.1061 -0.3128
  902MOL0     C21668   0.711   6.374   9.918 -0.1836  0.5540 -0.4031
  902MOL0     C21669   0.602   6.404   9.834 -0.7188  0.4228 -0.2163
  902MOL0     C21670   0.606   6.368   9.697 -0.4656 -0.8400 -0.2796
  902MOL0     O21671   0.508   6.414   9.613 -0.1602 -1.2052 -0.0666
  902MOL0     C21672   0.506   6.365   9.477  0.4605 -0.4935 -0.5177
  902MOL0     C21673   0.405   6.443   9.391 -0.9233  0.2122 -0.2066
  902MOL0     C21674   0.251   6.435   9.437 -0.8578  0.5826  0.2945
  902MOL0     C21675   0.196   6.526   9.543  0.2043  0.6403  0.3295
  902MOL0     C21676   0.043   6.531   9.517 -0.0481 -0.3887  0.1562
  902MOL0     C21677   0.007   6.624   9.397 -0.1127 -0.2581 -0.8365
  902MOL0     C21678  -0.141   6.675   9.401 -0.5139  0.8082 -0.3968
  902MOL0     C21679  -0.164   6.788   9.290  0.9133  0.1564 -0.4438
  902MOL0    Cl21680  -0.115   6.731   9.128 -0.6676  0.3830  0.2017
  902MOL0     C21681   0.712   6.284   9.656  0.0830  0.4343 -0.3217
  902MOL0     C21682   0.805   6.231   9.743  0.3948  0.2541  0.1259
  902MOL0     O21683   0.750   6.097  10.061 -0.0475 -0.2829  0.4545
  902MOL0     C21684   0.960   6.020  10.227  0.4102 -0.2392 -0.6306
  902MOL0     C21685   1.056   5.954  10.294  0.0186  0.5868 -0.1496
  902MOL0     N21686   1.892   5.756  10.297  0.8948  0.6810  0.3805
  902MOL0     N21687   2.015   5.757  10.295 -0.2631  0.0256  0.7280
  902MOL0     C21688   3.325   6.022  10.777 -0.1193 -1.0415 -0.8326
  902MOL0     C21689   3.429   6.082  10.850  0.4361  1.4690  0.3344
  902MOL0     C21690   3.756   6.365  10.950 -0.0376 -0.1558  1.0409
  902MOL0     C21691   3.723   6.439  11.068 -0.1137  0.4853 -0.5563
  902MOL0     C21692   3.815   6.510  11.133  0.4140  0.1881 -0.0822
  902MOL0     C21693   3.938   6.527  11.083  0.2826 -0.6741 -0.1164
  902MOL0     O21694   4.024   6.594  11.165  0.4917  0.7887  0.0435
  902MOL0     C21695   4.133   6.668  11.117 -0.0362  0.4033 -0.4114
  902MOL0     C21696   4.206   6.755  11.216  0.8214 -0.2422  1.0926
  902MOL0     C21697   4.219   6.695  11.356  0.0222  0.3695  0.1161
  902MOL0     C21698   4.090   6.670  11.443  0.2400 -0.5250  0.2598
  902MOL0     C21699   4.011   6.793  11.454 -0.2388  0.8609  0.2972
  902MOL0     C21700   3.940   6.888  11.450  0.0832 -0.8857 -0.6001
  902MOL0     C21701   3.972   6.475  10.961  0.0751  0.0974 -0.0495
  902MOL0     C21702   3.884   6.390  10.896  0.1036  0.0197  0.4573
  902MOL0     H21703   3.297   6.388  10.914 -1.2227 -0.2930 -0.8633
  902MOL0     H21704   3.109   6.284  10.808  0.1608 -0.8557 -3.3273
  902MOL0     H21705   2.946   6.091  10.830  2.5275 -0.2098 -0.0329
  902MOL0     H21706   2.943   6.171  10.673 -1.0298  0.5446 -0.1766
  902MOL0     H21707   2.916   5.954  10.559 -0.7428  0.7118  0.7719
  902MOL0     H21708   2.911   5.873  10.726  0.8086 -1.0495 -0.2175
  902MOL0     H21709   2.689   5.971  10.765 -2.0990  0.8809 -0.5282
  902MOL0     H21710   2.708   6.069  10.617 -2.8968 -0.5154 -0.1631
  902MOL0     H21711   2.701   5.866  10.478 -2.5401 -1.4075 -2.3802
  902MOL0     H21712   2.676   5.759  10.623 -2.5677 -2.7693 -4.6036
  902MOL0     H21713   2.455   5.914  10.664 -1.2548 -2.1625  0.6797
  902MOL0     H21714   2.487   5.979  10.508 -0.0777 -0.0585  1.8437
  902MOL0     H21715   2.480   5.764  10.401 -2.1926  0.7477 -0.9484
  902MOL0     H21716   2.437   5.693  10.554 -0.0461  1.2603  0.1589
  902MOL0     H21717   2.258   5.909  10.533 -4.7196 -1.4000 -0.3745
  902MOL0     H21718   2.305   5.884  10.365  1.5820  0.0358 -0.4582
  902MOL0     H21719   2.195   5.671  10.551 -0.6923  1.6806  0.3192
  902MOL0     H21720   2.238   5.635  10.381 -0.9407 -0.0686 -1.2697
  902MOL0     H21721   1.950   5.733  10.616 -2.8545  0.4180 -1.1980
  902MOL0     H21722   1.665   5.643  10.459 -0.9858  1.8832 -2.3126
  902MOL0     H21723   1.695   5.769  10.579  0.2183  0.1545  0.4298
  902MOL0     H21724   1.651   5.776  10.272  1.1777 -0.4399  0.8261
  902MOL0     H21725   1.663   5.927  10.360  2.3779 -0.2884 -0.0778
  902MOL0     H21726   1.438   5.835  10.481  0.7844  1.6795 -0.7666
  902MOL0     H21727   1.459   5.691  10.377  1.1368 -0.0814  1.2756
  902MOL0     H21728   1.421   5.792  10.186  0.7284  0.5201  0.2421
  902MOL0     H21729   1.452   5.957  10.240  0.3402 -0.8946 -3.0783
  902MOL0     H21730   1.286   5.910  10.037 -1.4631  2.1876 -3.1536
  902MOL0     H21731   1.173   5.943   9.819  1.6923  1.5724 -0.3220
  902MOL0     H21732   1.008   5.973   9.814  2.6267 -1.3049 -1.3200
  902MOL0     H21733   1.115   6.110   9.839 -1.5411  0.6968 -1.6306
  902MOL0     H21734   0.696   6.408  10.020  1.7463  0.1766  0.0549
  902MOL0     H21735   0.521   6.459   9.880 -1.1376  0.2851 -0.7734
  902MOL0     H21736   0.606   6.386   9.437  1.2042 -0.9900  0.9948
  902MOL0     H21737   0.488   6.257   9.478  2.0015 -0.7751 -0.7598
  902MOL0     H21738   0.434   6.548   9.393 -0.4148  0.0707 -0.1710
  902MOL0     H21739   0.405   6.400   9.290  3.3459  0.4017 -0.4463
  902MOL0     H21740   0.236   6.330   9.463 -1.4962 -0.2591 -3.0513
  902MOL0     H21741   0.195   6.452   9.345 -1.3707  3.7055  1.0668
  902MOL0     H21742   0.231   6.491   9.640  1.8649  2.1137  0.3166
  902MOL0     H21743   0.242   6.623   9.521  1.5362 -0.1174 -0.3566
  902MOL0     H21744  -0.003   6.565   9.610 -2.5190 -1.3624 -0.6436
  902MOL0     H21745   0.003   6.430   9.503 -3.4893  1.0615 -1.5465
  902MOL0     H21746   0.062   6.719   9.398 -1.0789  0.3531  1.5853
  902MOL0     H21747   0.020   6.562   9.308  2.2970 -0.9723 -0.0627
  902MOL0     H21748  -0.178   6.711   9.497  1.1282  0.0864  0.5405
  902MOL0     H21749  -0.200   6.588   9.369 -0.3556  1.1890 -1.8243
  902MOL0     H21750  -0.103   6.874   9.318  3.0845 -1.1164 -0.9751
  902MOL0     H21751  -0.268   6.820   9.279  1.0756 -0.0798 -3.4832
  902MOL0     H21752   0.715   6.256   9.551  0.7555 -0.3734 -0.0895
  902MOL0     H21753   0.884   6.165   9.710  1.3936  0.6628  1.6344
  902MOL0     H21754   0.871   6.050  10.281 -0.7905 -2.4155 -1.2817
  902MOL0     H21755   1.048   5.942  10.401  0.3087  0.2698 -0.1616
  902MOL0     H21756   3.321   5.921  10.738 -3.0561 -0.2228 -3.0064
  902MOL0     H21757   3.510   6.019  10.887  0.5962  0.9560 -0.8220
  902MOL0     H21758   3.622   6.425  11.104  0.5138 -1.1972  0.6618
  902MOL0     H21759   3.791   6.546  11.232 -1.2086  1.2895 -0.8330
  902MOL0     H21760   4.206   6.605  11.065 -0.2624  0.9183 -1.3901
  902MOL0     H21761   4.094   6.735  11.040  1.3068  0.5551 -0.9889
  902MOL0     H21762   4.143   6.844  11.233  0.0815 -1.1861  3.9273
  902MOL0     H21763   4.301   6.774  11.166  0.1575 -0.5805 -0.3464
  902MOL0     H21764   4.293   6.754  11.411  0.2750  1.5080 -1.3818
  902MOL0     H21765   4.260   6.595  11.339 -0.7667  0.1017 -0.2392
  902MOL0     H21766   4.118   6.628  11.540  1.1799  2.0751  1.1716
  902MOL0     H21767   4.025   6.590  11.405 -0.8747  0.0604  0.8700
  902MOL0     H21768   3.883   6.978  11.445  1.5109  0.2231  1.6895
  902MOL0     H21769   4.065   6.503  10.913  0.0819  2.2289  1.0992
  902MOL0     H21770   3.914   6.342  10.803  0.3883 -0.6744  0.8959
  903MOL0     O21771   4.367   9.473   9.531 -0.3589 -0.3153 -0.0408
  903MOL0     C21772   4.386   9.576   9.591  1.3706 -0.4140 -0.3840
  903MOL0     O21773   4.307   9.691   9.583 -0.1464 -0.3492 -0.8063
  903MOL0     C21774   4.191   9.692   9.512  0.0260  0.3606  0.0871
  903MOL0     C21775   4.170   9.620   9.388 -0.5377  0.1195 -0.8126
  903MOL0     C21776   4.058   9.624   9.306  0.9406  0.5489  0.2177
  903MOL0     C21777   3.957   9.714   9.342  0.8222 -0.4948  0.4565
  903MOL0     O21778   3.848   9.744   9.265  0.6617  0.5490 -0.0027
  903MOL0     C21779   3.798   9.642   9.182  0.7099  0.7266 -0.0859
  903MOL0     C21780   3.680   9.698   9.094 -0.2697 -0.6031  0.0484
  903MOL0     C21781   3.563   9.754   9.171  0.4999  0.4969 -0.2941
  903MOL0     C21782   3.446   9.785   9.075  0.0503 -0.3103  1.2903
  903MOL0     C21783   3.356   9.900   9.127  0.1552  1.0810  0.4391
  903MOL0     C21784   3.381  10.031   9.056  0.6366 -0.6652 -0.6084
  903MOL0     C21785   3.309  10.145   9.123 -0.6723  0.1184  0.4951
  903MOL0     C21786   3.360  10.279   9.090  0.1274 -0.8995  0.7050
  903MOL0     N21787   3.310  10.379   9.185  0.1708 -0.3175 -0.0160
  903MOL0     C21788   3.373  10.454   9.284  0.1477 -0.2337 -0.1608
  903MOL0     C21789   3.278  10.538   9.335 -0.3881  0.5201  0.3128
  903MOL0     C21790   3.304  10.645   9.441 -0.1769  0.1326  0.0257
  903MOL0     C21791   3.224  10.776   9.420 -0.5389 -0.1442 -1.1453
  903MOL0     C21792   3.223  10.875   9.539  0.8423  0.8264  0.1977
  903MOL0     C21793   3.147  11.001   9.499  0.6448  0.4690 -0.4303
  903MOL0     O21794   3.006  10.956   9.484 -0.5987  0.1844 -0.2343
  903MOL0     C21795   2.901  11.022   9.431  0.3909 -0.7304 -0.1243
  903MOL0     C21796   2.852  11.131   9.499  0.7429  0.1107  0.3805
  903MOL0     C21797   2.757  11.221   9.442  0.3035 -0.2846  0.2064
  903MOL0     C21798   2.717  11.346   9.515 -0.2095  0.8953 -0.5688
  903MOL0     C21799   2.694  11.178   9.318 -0.8305 -0.1439 -0.8191
  903MOL0     C21800   2.589  11.253   9.245 -0.1249 -0.0721  1.4729
  903MOL0     O21801   2.561  11.219   9.108 -0.7433  0.3461  0.1275
  903MOL0     C21802   2.450  11.266   9.052 -0.2827 -0.0049  0.3514
  903MOL0     C21803   2.319  11.256   9.106 -0.0948  0.6638 -0.1545
  903MOL0     C21804   2.206  11.296   9.035  0.0747  0.1204 -0.4147
  903MOL0     C21805   2.217  11.325   8.899 -0.4760 -0.1131 -0.7132
  903MOL0     O21806   2.119  11.324   8.804 -0.0729 -0.2573 -0.4586
  903MOL0     C21807   1.981  11.296   8.848 -0.4399  0.0571  0.2395
  903MOL0     C21808   1.891  11.291   8.725  0.0625 -0.6202 -0.0649
  903MOL0     C21809   1.736  11.286   8.761 -0.4744 -0.2668 -0.3638
  903MOL0     C21810   1.711  11.187   8.879  0.4098 -0.3841 -0.1145
  903MOL0     C21811   1.558  11.185   8.899  0.7513  0.1996 -0.4199
  903MOL0     C21812   1.516  11.154   9.047 -0.3681  0.9807 -0.6886
  903MOL0     C21813   1.368  11.106   9.068  1.0290 -0.0915  0.5836
  903MOL0     C21814   1.313  11.135   9.201  0.1961  0.0684 -0.2446
  903MOL0    Cl21815   1.385  11.029   9.338 -0.3156 -0.6895  0.0495
  903MOL0     C21816   2.346  11.351   8.852  0.9955 -0.7740  0.1111
  903MOL0     C21817   2.460  11.321   8.922 -0.2038  0.1306 -0.5582
  903MOL0     O21818   2.539  11.346   9.301 -0.4622  0.4609  0.0340
  903MOL0     C21819   2.739  11.060   9.255 -0.3373  0.0875 -0.0398
  903MOL0     C21820   2.848  10.981   9.314 -0.0947 -0.4645  0.4441
  903MOL0     N21821   3.162  10.511   9.272  1.0606  1.1236 -0.1161
  903MOL0     N21822   3.183  10.431   9.171  0.3364  0.3248  0.8911
  903MOL0     C21823   3.962   9.780   9.465 -1.1866  0.5421 -0.9689
  903MOL0     C21824   4.074   9.752   9.552  0.8010 -0.3027  0.1254
  903MOL0     C21825   4.497   9.571   9.679 -0.6489 -1.0440 -0.6842
  903MOL0     C21826   4.582   9.460   9.695  0.3736 -0.0677 -0.6239
  903MOL0     C21827   4.679   9.460   9.800 -0.3794 -0.1815  0.2623
  903MOL0     C21828   4.710   9.571   9.866 -0.2039 -0.6502  0.4543
  903MOL0     O21829   4.816   9.556   9.945 -0.2321 -0.7851  0.9908
  903MOL0     C21830   4.854   9.673  10.013  0.8904  0.2242  0.8540
  903MOL0     C21831   4.768   9.721  10.138 -0.1853 -0.2153  0.5807
  903MOL0     C21832   4.825   9.838  10.226 -0.0406 -0.7656  0.7977
  903MOL0     C21833   4.739   9.863  10.344 -0.3394 -0.6682 -0.0653
  903MOL0     C21834   4.727   9.767  10.447 -0.4425  0.2749  0.7893
  903MOL0     C21835   4.733   9.699  10.546 -0.1816 -0.7059 -0.4051
  903MOL0     C21836   4.633   9.679   9.848  0.3865  0.6788 -0.6793
  903MOL0     C21837   4.529   9.682   9.749 -0.0110 -0.2746 -0.1078
  903MOL0     H21838   4.254   9.560   9.352  0.5121 -1.4307  3.5540
  903MOL0     H21839   4.066   9.588   9.204 -0.8780  0.3193  0.1267
  903MOL0     H21840   3.872   9.596   9.116  0.6367 -0.9638  0.9384
  903MOL0     H21841   3.768   9.553   9.239  0.9180  0.2483 -0.7115
  903MOL0     H21842   3.743   9.772   9.044  3.4200 -3.0624  0.6817
  903MOL0     H21843   3.654   9.613   9.030 -0.0417  0.5426 -1.6190
  903MOL0     H21844   3.533   9.687   9.253  1.8828 -0.4899 -0.5708
  903MOL0     H21845   3.593   9.844   9.224  0.4899  2.6252 -3.6542
  903MOL0     H21846   3.493   9.816   8.981 -2.9878  0.5973 -0.0259
  903MOL0     H21847   3.384   9.697   9.057 -0.3114 -0.6408  3.8200
  903MOL0     H21848   3.252   9.870   9.116  1.4850 -3.9696 -0.8236
  903MOL0     H21849   3.377   9.919   9.233 -1.7751  0.2245  1.0211
  903MOL0     H21850   3.488  10.049   9.055  1.6268 -5.3562 -1.1338
  903MOL0     H21851   3.342  10.018   8.954  0.7601  0.6189 -0.8322
  903MOL0     H21852   3.200  10.136   9.118 -0.6189 -0.3498 -0.0342
  903MOL0     H21853   3.336  10.132   9.228  2.6832  1.0370 -0.1378
  903MOL0     H21854   3.331  10.302   8.987  2.0167 -2.8195 -0.3468
  903MOL0     H21855   3.469  10.267   9.088  0.0473 -1.5765 -0.4975
  903MOL0     H21856   3.478  10.438   9.306  0.8550  1.1416 -2.2818
  903MOL0     H21857   3.286  10.602   9.540 -0.5015  1.8432  0.7500
  903MOL0     H21858   3.411  10.666   9.435  0.0653 -1.2445 -0.8551
  903MOL0     H21859   3.124  10.745   9.388 -0.8963 -0.7271  0.4255
  903MOL0     H21860   3.261  10.824   9.329 -1.0863  0.4606 -1.0578
  903MOL0     H21861   3.325  10.893   9.577  1.9789 -0.2641 -2.1578
  903MOL0     H21862   3.161  10.828   9.616 -1.1473  1.3416 -1.0403
  903MOL0     H21863   3.192  11.041   9.408  0.1197  0.8393 -0.5278
  903MOL0     H21864   3.167  11.074   9.578  0.4089 -2.2729  2.3405
  903MOL0     H21865   2.889  11.159   9.597 -1.3271  2.9239  0.4723
  903MOL0     H21866   2.784  11.348   9.601 -1.0872 -1.8695  0.2742
  903MOL0     H21867   2.746  11.432   9.454  1.3071 -0.7178 -2.2679
  903MOL0     H21868   2.610  11.358   9.535 -0.5243  2.9262 -2.8972
  903MOL0     H21869   2.293  11.216   9.204  2.5287  2.9191  1.6370
  903MOL0     H21870   2.106  11.285   9.076 -0.2716  0.5674 -1.1198
  903MOL0     H21871   1.966  11.199   8.896 -3.1484  0.3633  0.1473
  903MOL0     H21872   1.947  11.359   8.931 -1.9021 -2.1079  1.3659
  903MOL0     H21873   1.916  11.376   8.660  0.6239 -0.5144  0.2877
  903MOL0     H21874   1.903  11.195   8.673 -1.1974 -0.3726 -0.8639
  903MOL0     H21875   1.683  11.246   8.674  2.1920 -0.9771 -1.7630
  903MOL0     H21876   1.692  11.386   8.772  0.8244  0.4830 -1.5435
  903MOL0     H21877   1.747  11.087   8.852  2.7877  0.7598 -1.4896
  903MOL0     H21878   1.750  11.222   8.975 -0.0965  0.7361 -0.3054
  903MOL0     H21879   1.520  11.109   8.830 -0.0387 -1.0237  1.2873
  903MOL0     H21880   1.517  11.284   8.879  1.2513  0.8792  1.7622
  903MOL0     H21881   1.579  11.079   9.096 -4.4119 -2.6542 -0.4165
  903MOL0     H21882   1.537  11.242   9.108  0.9061 -0.7321  1.5111
  903MOL0     H21883   1.356  11.000   9.043  0.5219  0.7639 -3.6034
  903MOL0     H21884   1.295  11.153   9.001  1.7281  0.3748  0.1395
  903MOL0     H21885   1.207  11.111   9.194  0.3576 -0.2269 -2.9232
  903MOL0     H21886   1.326  11.240   9.228 -0.6258  0.2923 -0.7036
  903MOL0     H21887   2.358  11.374   8.747  0.4095  3.6023  0.8333
  903MOL0     H21888   2.556  11.339   8.875 -0.3731 -0.1507 -1.0133
  903MOL0     H21889   2.685  11.025   9.167 -0.4912  2.2548 -0.8925
  903MOL0     H21890   2.891  10.887   9.282 -1.1083 -1.0404  0.7398
  903MOL0     H21891   3.875   9.837   9.495 -0.8003  1.4388 -1.5376
  903MOL0     H21892   4.065   9.814   9.641 -1.5781 -0.8060  0.3093
  903MOL0     H21893   4.557   9.369   9.640 -3.4174  0.1788  0.3654
  903MOL0     H21894   4.738   9.372   9.822 -3.8126 -2.3182  1.7046
  903MOL0     H21895   4.943   9.639  10.066  0.0983 -1.6218  1.0591
  903MOL0     H21896   4.867   9.754   9.940 -2.1960 -0.8094 -1.0425
  903MOL0     H21897   4.746   9.637  10.205  1.5551 -1.0491  0.1626
  903MOL0     H21898   4.669   9.756  10.107 -2.5647 -4.6253  2.2611
  903MOL0     H21899   4.830   9.928  10.164  0.7347 -1.2101  0.2050
  903MOL0     H21900   4.926   9.826  10.264 -0.1633  0.4393  1.5533
  903MOL0     H21901   4.637   9.889  10.315 -0.1351  1.0342  0.6386
  903MOL0     H21902   4.789   9.947  10.392  0.3021 -1.1870  0.2042
  903MOL0     H21903   4.732   9.632  10.630 -2.0365  0.1708  0.3266
  903MOL0     H21904   4.660   9.772   9.896 -0.0684  0.8635 -0.7825
  903MOL0     H21905   4.481   9.777   9.733  1.9042  0.2710 -3.5907
  904MOL0     O21906   6.371   2.257   7.420  0.5556 -0.4348 -0.4545
  904MOL0     C21907   6.377   2.309   7.303  0.0716  0.3306 -0.0591
  904MOL0     O21908   6.320   2.428   7.263  0.5889  0.7458  0.4369
  904MOL0     C21909   6.207   2.470   7.335  0.4514  0.3520  0.8680
  904MOL0     C21910   6.090   2.501   7.269 -0.3237  0.7682  0.1395
  904MOL0     C21911   5.978   2.534   7.329 -0.4361 -0.0210 -0.9253
  904MOL0     C21912   5.968   2.532   7.467 -0.8462 -0.6959 -0.3394
  904MOL0     O21913   5.862   2.570   7.540  0.5182 -0.0949 -0.4325
  904MOL0     C21914   5.772   2.670   7.496  0.0769  0.0536  0.1336
  904MOL0     C21915   5.636   2.619   7.448 -0.2462  0.0606 -0.3316
  904MOL0     C21916   5.539   2.729   7.379  0.0277  0.6117 -0.3741
  904MOL0     C21917   5.468   2.815   7.491 -0.9198  0.0911  0.2949
  904MOL0     C21918   5.329   2.853   7.428  0.1281  0.3046  0.3557
  904MOL0     C21919   5.249   2.934   7.531  0.4149 -0.1535 -0.3511
  904MOL0     C21920   5.128   2.982   7.459  0.7049  0.0865 -0.6906
  904MOL0     C21921   5.031   3.048   7.564  0.1344 -0.3305 -0.3080
  904MOL0     N21922   4.892   3.061   7.518  0.0673 -0.1702 -0.3727
  904MOL0     C21923   4.854   3.070   7.380 -0.1403  0.0821 -0.4709
  904MOL0     C21924   4.721   3.080   7.379  0.1117  0.7466 -1.2934
  904MOL0     C21925   4.635   3.077   7.260 -0.1637  0.6004  0.3999
  904MOL0     C21926   4.492   3.114   7.294  0.1151  0.1504 -0.6365
  904MOL0     C21927   4.401   2.998   7.335  0.6191  0.0821 -0.3612
  904MOL0     C21928   4.248   3.042   7.338  0.3840 -0.6584 -0.1001
  904MOL0     O21929   4.161   2.935   7.387 -0.2767  0.0090  0.2030
  904MOL0     C21930   4.030   2.967   7.442  0.1929 -0.3847  0.0145
  904MOL0     C21931   3.981   2.886   7.550 -0.0936 -0.4130 -0.9225
  904MOL0     C21932   3.855   2.897   7.601 -0.1665  0.0315 -0.3230
  904MOL0     C21933   3.803   2.794   7.696 -1.4349 -0.2782  0.7455
  904MOL0     C21934   3.770   2.993   7.544 -0.3172 -0.0982 -0.0717
  904MOL0     C21935   3.633   3.010   7.583 -0.9029  0.2755 -1.4197
  904MOL0     O21936   3.532   3.007   7.495 -1.2710 -0.3592  0.8458
  904MOL0     C21937   3.407   3.011   7.551 -0.5459 -0.6174  0.0252
  904MOL0     C21938   3.341   2.899   7.613  0.1659  0.8412 -0.1075
  904MOL0     C21939   3.210   2.915   7.661  0.1593 -0.3079 -1.1203
  904MOL0     C21940   3.136   3.019   7.625 -0.8245 -0.0662 -0.8278
  904MOL0     O21941   3.006   3.034   7.669  0.3619 -0.4844 -0.1065
  904MOL0     C21942   2.921   2.922   7.729 -0.3397 -0.9637  0.3179
  904MOL0     C21943   2.785   2.951   7.755  0.1090  0.8068 -0.1814
  904MOL0     C21944   2.761   3.042   7.876  0.0281  0.2642 -0.0395
  904MOL0     C21945   2.621   3.093   7.881  0.0977  0.3920 -0.9001
  904MOL0     C21946   2.610   3.184   8.000  0.3926 -0.8411 -0.7042
  904MOL0     C21947   2.471   3.241   8.005 -0.4338  0.0839  0.6012
  904MOL0     C21948   2.438   3.347   8.117 -0.1493 -0.0228 -0.6635
  904MOL0     C21949   2.305   3.320   8.186 -1.2723  0.6112 -0.0205
  904MOL0    Cl21950   2.254   3.452   8.267 -0.3846  0.1058  0.0330
  904MOL0     C21951   3.201   3.134   7.572  0.1610  0.8381  0.1034
  904MOL0     C21952   3.336   3.128   7.531  0.2607 -0.2221  0.8067
  904MOL0     O21953   3.620   3.013   7.705 -0.7739  0.4510 -0.3378
  904MOL0     C21954   3.818   3.079   7.448  0.3853  0.0332 -0.4625
  904MOL0     C21955   3.943   3.060   7.386 -0.2236  0.6328 -0.4009
  904MOL0     N21956   4.679   3.089   7.506 -0.0266  0.8138 -0.3014
  904MOL0     N21957   4.783   3.085   7.590 -0.1142 -0.6185 -0.0214
  904MOL0     C21958   6.087   2.509   7.540  0.3501  0.1595 -0.5695
  904MOL0     C21959   6.206   2.478   7.473  0.3859 -0.7138  0.0194
  904MOL0     C21960   6.471   2.239   7.201  0.6565  0.4035 -0.7204
  904MOL0     C21961   6.482   2.281   7.073  0.1666  1.0418  0.1056
  904MOL0     C21962   6.570   2.222   6.986  0.3294 -0.0323  0.2176
  904MOL0     C21963   6.651   2.118   7.020  0.1119 -0.0647 -0.1551
  904MOL0     O21964   6.725   2.058   6.917  0.1087 -0.5408  0.1111
  904MOL0     C21965   6.793   1.935   6.943  0.0646  0.5961  0.1014
  904MOL0     C21966   6.930   1.983   6.996  0.3197 -0.4262  0.0944
  904MOL0     C21967   7.008   1.886   7.100  0.2156  0.4987 -0.3878
  904MOL0     C21968   7.063   1.754   7.043 -0.6539  0.7674 -0.0314
  904MOL0     C21969   7.131   1.770   6.909 -0.0366 -0.0187  1.5636
  904MOL0     C21970   7.175   1.773   6.795  0.8457  0.2571  0.3640
  904MOL0     C21971   6.653   2.084   7.161  0.3297 -0.0734  0.1851
  904MOL0     C21972   6.562   2.140   7.249  1.2326  0.8164  0.3652
  904MOL0     H21973   6.090   2.492   7.161  0.7534 -1.6206  0.2816
  904MOL0     H21974   5.889   2.554   7.270 -0.8683  0.8804 -0.0282
  904MOL0     H21975   5.752   2.739   7.579  2.0954  1.5122 -0.5100
  904MOL0     H21976   5.822   2.732   7.420  0.6353 -0.1115  0.3552
  904MOL0     H21977   5.657   2.550   7.365 -0.6889  1.8340 -1.9932
  904MOL0     H21978   5.576   2.580   7.531 -1.5980 -0.3060 -1.4445
  904MOL0     H21979   5.577   2.789   7.296 -0.6364 -0.0195 -1.1717
  904MOL0     H21980   5.462   2.667   7.330 -0.5565  2.9734 -2.6744
  904MOL0     H21981   5.444   2.752   7.577  0.4548 -2.6073 -1.1792
  904MOL0     H21982   5.537   2.893   7.524 -1.0462 -0.1659  1.1870
  904MOL0     H21983   5.346   2.906   7.334  0.3050  1.7322  1.1550
  904MOL0     H21984   5.260   2.770   7.410 -3.0262  2.5724  1.1989
  904MOL0     H21985   5.228   2.866   7.614 -0.2479  2.3976  1.6831
  904MOL0     H21986   5.306   3.024   7.556  2.4645 -1.1561 -1.1044
  904MOL0     H21987   5.153   3.057   7.384  4.9694 -3.1090 -2.9234
  904MOL0     H21988   5.073   2.901   7.410 -2.0982 -0.4058  2.8804
  904MOL0     H21989   5.062   3.149   7.590 -0.4518 -0.5288  1.3271
  904MOL0     H21990   5.032   2.992   7.658 -0.1502  0.1333 -0.0245
  904MOL0     H21991   4.922   3.058   7.297 -2.7298  2.3354 -3.1311
  904MOL0     H21992   4.678   3.145   7.187 -0.8385 -0.7557 -1.3524
  904MOL0     H21993   4.640   2.973   7.226 -1.1675  0.5102  0.4835
  904MOL0     H21994   4.444   3.152   7.203  0.2873  0.7247 -0.4950
  904MOL0     H21995   4.482   3.200   7.361 -0.4384  0.1479 -0.7108
  904MOL0     H21996   4.433   2.964   7.434 -0.8514  0.3409  0.2290
  904MOL0     H21997   4.408   2.921   7.257 -1.6413 -1.3444  0.7391
  904MOL0     H21998   4.225   3.072   7.236  3.3792 -2.5566 -1.4771
  904MOL0     H21999   4.234   3.118   7.415 -1.1580 -4.4987  3.8106
  904MOL0     H22000   4.051   2.811   7.586  1.2430  1.0400 -0.4054
  904MOL0     H22001   3.873   2.709   7.693  1.5772  2.0133 -2.6854
  904MOL0     H22002   3.798   2.833   7.798  0.8351 -4.6222  2.7961
  904MOL0     H22003   3.707   2.752   7.666 -0.9424 -0.6747 -0.3468
  904MOL0     H22004   3.389   2.804   7.633  0.1030  0.3056 -2.2414
  904MOL0     H22005   3.169   2.832   7.718  0.8428 -0.6520 -1.1090
  904MOL0     H22006   2.931   2.842   7.655  0.5063 -1.2835  0.7613
  904MOL0     H22007   2.971   2.893   7.822 -2.2636  0.5018  1.8686
  904MOL0     H22008   2.748   3.000   7.664  0.0629 -0.2504 -0.7415
  904MOL0     H22009   2.729   2.860   7.777 -2.3598  2.6336  1.7186
  904MOL0     H22010   2.823   3.131   7.862  3.0667 -1.5586  0.9002
  904MOL0     H22011   2.794   3.000   7.971  1.2879  0.7454 -0.2495
  904MOL0     H22012   2.589   3.138   7.786 -2.5113  0.6532  0.0412
  904MOL0     H22013   2.546   3.014   7.893 -1.4211  1.6775 -1.5326
  904MOL0     H22014   2.679   3.269   7.999  1.2611 -1.4909  0.7770
  904MOL0     H22015   2.636   3.129   8.091 -1.6095 -2.1016 -0.8316
  904MOL0     H22016   2.457   3.290   7.908 -3.3342 -1.6125  0.0592
  904MOL0     H22017   2.402   3.157   8.010  2.3230 -2.3122  0.6411
  904MOL0     H22018   2.423   3.445   8.071  2.1155  1.0243  0.6572
  904MOL0     H22019   2.518   3.362   8.190 -0.5234  2.9509 -0.7694
  904MOL0     H22020   2.323   3.237   8.255 -0.5255 -1.1067 -2.1764
  904MOL0     H22021   2.230   3.282   8.117 -0.2251 -2.8426  0.5611
  904MOL0     H22022   3.136   3.219   7.556  1.5782  2.2380  1.4366
  904MOL0     H22023   3.395   3.204   7.480 -0.6462  0.1379  0.2547
  904MOL0     H22024   3.759   3.167   7.425  1.3886  0.6615 -0.6694
  904MOL0     H22025   3.979   3.122   7.305  2.5338 -1.7087 -1.1164
  904MOL0     H22026   6.087   2.493   7.648  2.4084 -0.4093 -0.6107
  904MOL0     H22027   6.294   2.443   7.527  1.0300 -0.0741 -0.5878
  904MOL0     H22028   6.420   2.364   7.041 -0.6902  0.0178 -0.9742
  904MOL0     H22029   6.568   2.252   6.882  0.3276 -2.2359 -0.4672
  904MOL0     H22030   6.731   1.877   7.013 -2.8678  1.3770 -1.6641
  904MOL0     H22031   6.797   1.876   6.851 -2.0186  0.5053  0.0217
  904MOL0     H22032   6.925   2.088   7.027  1.6261 -0.9150  2.1374
  904MOL0     H22033   6.997   1.990   6.910 -0.1419 -0.0372 -0.2407
  904MOL0     H22034   6.936   1.864   7.180  1.0498 -4.1676 -0.6666
  904MOL0     H22035   7.087   1.947   7.145  0.6890  2.3271 -3.3941
  904MOL0     H22036   6.976   1.691   7.022  0.2839 -0.9307  1.0068
  904MOL0     H22037   7.143   1.719   7.109  0.5275 -0.1760 -1.8684
  904MOL0     H22038   7.214   1.773   6.696 -1.1505 -2.8754 -0.5710
  904MOL0     H22039   6.722   2.012   7.203  2.2392  1.1932 -0.6908
  904MOL0     H22040   6.568   2.109   7.353  0.9492 -1.2831 -0.1813
  905MOL0     O22041   7.830   9.064   1.404  0.3838  0.1362 -0.0180
  905MOL0     C22042   7.733   9.069   1.322 -0.6936 -0.3956  0.2387
  905MOL0     O22043   7.705   9.174   1.235 -0.0804  0.3280 -0.3566
  905MOL0     C22044   7.784   9.288   1.239  0.6586  0.1046  0.5795
  905MOL0     C22045   7.827   9.325   1.110 -0.4141  0.2467  0.1873
  905MOL0     C22046   7.893   9.449   1.097  0.1420  0.4937  0.2960
  905MOL0     C22047   7.919   9.528   1.210  0.4368 -0.1031  0.1506
  905MOL0     O22048   7.975   9.652   1.188 -0.2290  0.5104  0.0614
  905MOL0     C22049   8.107   9.656   1.227 -0.5947 -0.6036 -1.1940
  905MOL0     C22050   8.157   9.796   1.225  0.0629  0.2377  0.8610
  905MOL0     C22051   8.151   9.848   1.080 -0.1155 -0.5595 -0.3942
  905MOL0     C22052   8.155  10.004   1.074 -0.6168  0.1797  0.4461
  905MOL0     C22053   8.197  10.059   0.935 -0.1687  0.9913 -0.4371
  905MOL0     C22054   8.182  10.212   0.922 -0.5738  0.2027 -0.2663
  905MOL0     C22055   8.071  10.293   0.989 -0.4536  0.0682 -0.1121
  905MOL0     C22056   7.946  10.275   0.904 -0.1551  0.0936 -1.2226
  905MOL0     N22057   7.825  10.323   0.970  0.5637 -0.0373  0.4392
  905MOL0     C22058   7.734  10.414   0.922 -0.1809  1.0914 -0.3589
  905MOL0     C22059   7.648  10.432   1.021 -0.7725 -0.2464 -0.0809
  905MOL0     C22060   7.539  10.535   1.017  0.1432 -0.7726  0.4833
  905MOL0     C22061   7.494  10.581   1.153 -0.3207 -0.0199 -0.3383
  905MOL0     C22062   7.352  10.628   1.163 -0.0769  0.1702  0.3231
  905MOL0     C22063   7.324  10.721   1.276  0.1746 -0.9172 -0.4671
  905MOL0     O22064   7.397  10.846   1.224  0.1153  0.5228  0.0523
  905MOL0     C22065   7.305  10.951   1.207 -0.0720 -0.0043  0.1498
  905MOL0     C22066   7.170  10.935   1.159 -0.8897 -0.6257  0.1852
  905MOL0     C22067   7.085  11.051   1.154 -0.5528  0.9226 -1.2504
  905MOL0     C22068   6.952  11.035   1.103  0.4974  0.8659  0.1307
  905MOL0     C22069   7.132  11.178   1.184 -0.7912 -0.5993 -0.8574
  905MOL0     C22070   7.063  11.315   1.189  0.1334  0.4729 -0.0236
  905MOL0     O22071   7.133  11.425   1.227  0.0226  0.0474 -0.2171
  905MOL0     C22072   7.061  11.546   1.215  0.0020  0.1228 -0.7140
  905MOL0     C22073   7.024  11.590   1.087 -1.0515 -0.1349 -0.0565
  905MOL0     C22074   6.959  11.710   1.071 -0.2460  0.4650  0.3831
  905MOL0     C22075   6.948  11.796   1.177  0.0898  0.4800  0.2177
  905MOL0     O22076   6.893  11.920   1.157  0.4939 -0.5663 -0.5756
  905MOL0     C22077   6.887  11.993   1.026 -0.1711 -0.4486 -0.3529
  905MOL0     C22078   6.846  12.131   1.075 -0.2008 -0.6408 -0.2862
  905MOL0     C22079   6.754  12.209   0.973  0.3297  0.2900  0.2237
  905MOL0     C22080   6.832  12.269   0.852  0.4340  0.1657 -0.0211
  905MOL0     C22081   6.735  12.316   0.740 -0.1494  0.1412 -0.0740
  905MOL0     C22082   6.807  12.391   0.629 -0.2908 -0.5361 -1.6023
  905MOL0     C22083   6.861  12.305   0.515  0.0753 -0.6001  0.1251
  905MOL0     C22084   6.770  12.255   0.416 -0.4466  0.4068 -0.5691
  905MOL0    Cl22085   6.715  12.404   0.330 -0.2815  0.1005 -0.0407
  905MOL0     C22086   6.985  11.746   1.303  0.5269  0.1406 -0.2326
  905MOL0     C22087   7.054  11.630   1.328  0.3966  0.7133  0.7267
  905MOL0     O22088   6.940  11.307   1.163 -0.4209 -0.0408  0.6619
  905MOL0     C22089   7.266  11.196   1.224 -0.3084  0.4264 -0.1775
  905MOL0     C22090   7.349  11.083   1.229 -0.4335  0.9631  0.2292
  905MOL0     N22091   7.681  10.340   1.118  0.5234  0.6551  0.1015
  905MOL0     N22092   7.784  10.269   1.087  0.2390 -0.4792  0.3358
  905MOL0     C22093   7.885   9.481   1.340  0.3732 -0.0984  0.5053
  905MOL0     C22094   7.821   9.366   1.351 -0.4535 -0.2156 -0.2376
  905MOL0     C22095   7.659   8.952   1.299 -0.3739 -0.4267 -0.1143
  905MOL0     C22096   7.577   8.943   1.187  0.4782  0.5111  1.1176
  905MOL0     C22097   7.499   8.832   1.158  0.5800 -0.9813  0.2687
  905MOL0     C22098   7.497   8.729   1.245 -0.7238  0.7121 -0.6397
  905MOL0     O22099   7.409   8.625   1.206  0.6186 -0.3513  0.4823
  905MOL0     C22100   7.426   8.494   1.258 -0.2936 -0.2684 -0.4268
  905MOL0     C22101   7.308   8.401   1.214  0.2384  0.7257 -0.4757
  905MOL0     C22102   7.332   8.251   1.212 -0.1071 -2.0010 -0.0868
  905MOL0     C22103   7.204   8.169   1.189  0.5225 -0.3099  1.1604
  905MOL0     C22104   7.147   8.191   1.057  0.0649  0.0485  1.0672
  905MOL0     C22105   7.108   8.207   0.946 -0.0395  0.4835  0.4767
  905MOL0     C22106   7.584   8.728   1.363  1.8674 -1.0033  0.0152
  905MOL0     C22107   7.658   8.841   1.382  0.0128  0.9876 -0.0353
  905MOL0     H22108   7.808   9.260   1.025  1.6627 -2.6921  1.7778
  905MOL0     H22109   7.920   9.489   1.000 -2.1617 -1.6389 -1.3560
  905MOL0     H22110   8.111   9.621   1.331 -0.4934  2.5073 -0.0375
  905MOL0     H22111   8.172   9.591   1.167 -2.0821 -1.9045 -1.4577
  905MOL0     H22112   8.090   9.861   1.282 -1.6806  0.6767 -1.5385
  905MOL0     H22113   8.261   9.795   1.260  0.6652 -1.6761 -0.8047
  905MOL0     H22114   8.226   9.796   1.020 -1.0567  0.8575 -2.9439
  905MOL0     H22115   8.055   9.827   1.030 -0.8306  0.3383  0.5629
  905MOL0     H22116   8.055  10.044   1.096 -0.2172  0.4165  1.9190
  905MOL0     H22117   8.225  10.049   1.145  1.7166 -2.4237 -0.0277
  905MOL0     H22118   8.300  10.024   0.915 -0.9482 -1.2814 -0.8345
  905MOL0     H22119   8.130  10.010   0.863  0.6677 -2.1602  0.7550
  905MOL0     H22120   8.272  10.266   0.952 -0.7511  0.0121  0.6485
  905MOL0     H22121   8.180  10.220   0.813 -3.0807  1.6786 -0.2078
  905MOL0     H22122   8.060  10.259   1.092  0.2076 -0.0739 -0.0839
  905MOL0     H22123   8.083  10.400   1.006 -2.8748  0.7179 -1.9074
  905MOL0     H22124   7.921  10.170   0.888 -5.2255  0.8610 -0.1033
  905MOL0     H22125   7.960  10.313   0.803  1.1369 -1.0681 -1.5124
  905MOL0     H22126   7.746  10.472   0.831  0.8254  1.3229 -0.0885
  905MOL0     H22127   7.580  10.631   0.984 -1.1700 -0.2455  0.3248
  905MOL0     H22128   7.459  10.505   0.949  0.6678 -1.1699  0.0320
  905MOL0     H22129   7.560  10.660   1.191 -1.7482 -0.3323  3.0905
  905MOL0     H22130   7.508  10.499   1.223 -1.5026 -0.3157 -0.4226
  905MOL0     H22131   7.289  10.539   1.155 -0.2798  0.4062 -0.9443
  905MOL0     H22132   7.337  10.692   1.075 -3.1053 -1.3799 -0.4225
  905MOL0     H22133   7.363  10.687   1.372 -0.2846  0.3394  0.1954
  905MOL0     H22134   7.215  10.722   1.290  0.2127  1.9417  0.3700
  905MOL0     H22135   7.146  10.831   1.139  0.9328 -0.7962 -1.4588
  905MOL0     H22136   6.929  10.931   1.081  1.0998 -0.1420  3.6243
  905MOL0     H22137   6.875  11.066   1.174  2.0258 -0.7047  2.6732
  905MOL0     H22138   6.960  11.098   1.014 -0.1221  1.3004  0.3747
  905MOL0     H22139   7.017  11.515   1.008  0.2433  0.8473 -1.1413
  905MOL0     H22140   6.936  11.743   0.971 -0.2759 -0.7938 -0.0409
  905MOL0     H22141   6.981  11.996   0.971 -0.9406  3.2688 -1.7549
  905MOL0     H22142   6.810  11.953   0.959 -0.1433 -0.8909 -0.1243
  905MOL0     H22143   6.788  12.135   1.167 -1.6960  6.9643 -0.9067
  905MOL0     H22144   6.935  12.187   1.106 -0.4504 -1.5648  2.3298
  905MOL0     H22145   6.686  12.282   1.017  2.3212  1.9929  0.6281
  905MOL0     H22146   6.681  12.142   0.926 -2.1313  0.8178  3.0118
  905MOL0     H22147   6.899  12.347   0.891  1.1949 -0.5660  0.1683
  905MOL0     H22148   6.904  12.195   0.815  1.8076  2.1470 -1.5096
  905MOL0     H22149   6.658  12.383   0.780 -0.0377  0.9640 -1.1894
  905MOL0     H22150   6.699  12.227   0.688 -0.3988 -0.0750  0.4666
  905MOL0     H22151   6.738  12.463   0.585  1.2209  2.6245  0.7723
  905MOL0     H22152   6.890  12.447   0.675 -0.8394  0.1423 -1.4351
  905MOL0     H22153   6.926  12.227   0.554  0.3550 -0.3409  0.1877
  905MOL0     H22154   6.919  12.376   0.455 -4.0122  1.9415 -1.2590
  905MOL0     H22155   6.685  12.194   0.450  0.6196 -1.1289 -0.5904
  905MOL0     H22156   6.837  12.189   0.362  0.5666  1.7061 -0.9554
  905MOL0     H22157   6.958  11.815   1.383  1.0086  0.5942 -0.4493
  905MOL0     H22158   7.076  11.590   1.426 -2.0625 -1.3585  0.5284
  905MOL0     H22159   7.307  11.291   1.257  0.0688 -0.4917  2.2146
  905MOL0     H22160   7.453  11.093   1.256  0.6837 -0.3329 -3.1024
  905MOL0     H22161   7.922   9.548   1.417 -0.9707  3.3379 -1.6193
  905MOL0     H22162   7.773   9.338   1.444  0.2723  0.7038  0.4225
  905MOL0     H22163   7.566   9.029   1.122  0.7819  0.2608  0.7356
  905MOL0     H22164   7.451   8.822   1.061 -0.0690 -1.1517  0.6054
  905MOL0     H22165   7.520   8.450   1.223 -0.3197 -1.0148  0.3990
  905MOL0     H22166   7.447   8.504   1.365 -3.0636  2.5385 -0.0000
  905MOL0     H22167   7.290   8.433   1.111 -1.2983  1.1190 -0.1110
  905MOL0     H22168   7.211   8.419   1.262 -0.1982  0.3575 -1.1970
  905MOL0     H22169   7.388   8.221   1.301  3.2394  1.1071 -0.9051
  905MOL0     H22170   7.401   8.242   1.127  3.3626  2.1635  1.9013
  905MOL0     H22171   7.132   8.208   1.262  3.0657  1.0179  3.0856
  905MOL0     H22172   7.219   8.060   1.190 -3.4409 -1.0236  0.2550
  905MOL0     H22173   7.062   8.218   0.850 -2.5058  1.3663  1.6914
  905MOL0     H22174   7.581   8.645   1.432 -0.5292 -1.4896 -0.5893
  905MOL0     H22175   7.710   8.845   1.477  1.7899 -1.5058 -0.7908
  906MOL0     O22176   2.812   1.213   0.305 -0.6183 -0.1427  0.1952
  906MOL0     C22177   2.699   1.200   0.347  0.0619  0.1336  0.3421
  906MOL0     O22178   2.614   1.092   0.318 -0.3830 -0.3533 -0.0602
  906MOL0     C22179   2.648   1.001   0.227 -0.3629  0.3556  0.1115
  906MOL0     C22180   2.528   0.946   0.167 -1.0235  1.0215  0.0162
  906MOL0     C22181   2.549   0.838   0.075 -0.6288 -0.7068  0.8324
  906MOL0     C22182   2.674   0.792   0.046 -0.0812  0.1354  1.0550
  906MOL0     O22183   2.708   0.685  -0.037 -0.2959 -0.5331 -0.2838
  906MOL0     C22184   2.607   0.604  -0.094 -0.0803 -0.2916  0.1544
  906MOL0     C22185   2.525   0.522   0.009  0.2809  0.3973  0.1400
  906MOL0     C22186   2.617   0.426   0.086 -0.4790 -0.5363 -0.3156
  906MOL0     C22187   2.541   0.354   0.197 -0.3617 -0.5979  0.5019
  906MOL0     C22188   2.640   0.242   0.253  0.2244  0.5360  0.3945
  906MOL0     C22189   2.732   0.282   0.366 -1.0206  0.8446  0.0104
  906MOL0     C22190   2.847   0.178   0.375 -0.4768  0.4316 -0.9887
  906MOL0     C22191   2.954   0.184   0.268  0.2574 -0.5991 -0.0260
  906MOL0     N22192   3.042   0.301   0.271 -0.9046 -0.2533  0.9596
  906MOL0     C22193   3.081   0.390   0.368 -0.3313  0.3837  0.2274
  906MOL0     C22194   3.139   0.497   0.303  1.1017  0.1360  0.5051
  906MOL0     C22195   3.186   0.632   0.361 -0.1652 -0.2566 -0.8698
  906MOL0     C22196   3.337   0.618   0.362  0.8014  0.2619  0.1428
  906MOL0     C22197   3.406   0.619   0.220 -0.1438  0.2114  0.1127
  906MOL0     C22198   3.552   0.635   0.257 -0.1141 -0.1289  0.3228
  906MOL0     O22199   3.638   0.607   0.145  0.3658  0.3056  0.0054
  906MOL0     C22200   3.747   0.694   0.125  0.5930  0.2184 -0.0594
  906MOL0     C22201   3.766   0.824   0.162  0.5893  0.2658 -0.2718
  906MOL0     C22202   3.864   0.916   0.119 -0.5837 -0.3751 -0.9806
  906MOL0     C22203   3.850   1.058   0.168 -0.2254  0.0617 -0.0817
  906MOL0     C22204   3.964   0.859   0.031  0.0212 -1.3012 -0.0585
  906MOL0     C22205   4.066   0.942  -0.032  1.0121 -0.6992  0.0135
  906MOL0     O22206   4.045   1.081  -0.036 -0.3857  0.2509  1.2137
  906MOL0     C22207   4.149   1.161  -0.065  0.6579  0.0779 -0.2313
  906MOL0     C22208   4.263   1.175   0.024  0.9691  0.2870 -0.5861
  906MOL0     C22209   4.368   1.258  -0.006 -0.6220 -0.2239 -0.5348
  906MOL0     C22210   4.356   1.346  -0.120 -1.1791 -0.7013  0.0280
  906MOL0     O22211   4.462   1.439  -0.121  0.7578  0.4689  0.9131
  906MOL0     C22212   4.501   1.487  -0.253  0.2450 -0.2063  1.0383
  906MOL0     C22213   4.634   1.571  -0.223 -0.1077  0.7267 -0.0000
  906MOL0     C22214   4.694   1.638  -0.341 -0.0433  0.0545 -0.0665
  906MOL0     C22215   4.765   1.767  -0.295  0.3763  0.0499  0.5307
  906MOL0     C22216   4.865   1.815  -0.402  0.5630 -0.4274 -0.2324
  906MOL0     C22217   4.940   1.959  -0.386 -0.2049  0.2531  0.0805
  906MOL0     C22218   5.013   1.979  -0.524 -0.8773  0.1808  0.2071
  906MOL0     C22219   5.082   2.120  -0.521  0.6565  0.2773  0.5435
  906MOL0    Cl22220   5.174   2.161  -0.381  0.0445 -0.0743 -0.0344
  906MOL0     C22221   4.240   1.344  -0.205 -0.0814 -0.2813  0.2058
  906MOL0     C22222   4.142   1.245  -0.183  0.3511  0.2573 -0.2131
  906MOL0     O22223   4.173   0.886  -0.052 -0.2069  0.3892  0.0757
  906MOL0     C22224   3.949   0.730  -0.012  0.0706 -0.3919  0.0239
  906MOL0     C22225   3.843   0.649   0.040 -1.0060  1.0696  0.2474
  906MOL0     N22226   3.131   0.466   0.169  0.4838 -0.8958  0.1742
  906MOL0     N22227   3.078   0.352   0.153 -0.2208  0.3901  0.6415
  906MOL0     C22228   2.793   0.859   0.090  0.5154  0.3533  0.4279
  906MOL0     C22229   2.779   0.958   0.191 -0.2791  0.5491  0.0264
  906MOL0     C22230   2.651   1.315   0.425  0.9169 -0.2360 -0.2549
  906MOL0     C22231   2.525   1.319   0.497 -0.2281  0.9095  0.3574
  906MOL0     C22232   2.490   1.433   0.579 -0.5139 -0.5617  0.1998
  906MOL0     C22233   2.575   1.541   0.586 -0.2013  0.9465  1.1456
  906MOL0     O22234   2.554   1.663   0.640 -0.3020  0.8280 -1.0888
  906MOL0     C22235   2.441   1.684   0.735  0.3152  0.3488 -0.4754
  906MOL0     C22236   2.476   1.809   0.821 -0.5194  0.0726 -0.0448
  906MOL0     C22237   2.568   1.778   0.944 -0.0049  0.0925 -0.4352
  906MOL0     C22238   2.514   1.711   1.068 -0.0776 -0.2543 -0.4837
  906MOL0     C22239   2.425   1.593   1.055  1.1054  0.1679 -0.3718
  906MOL0     C22240   2.343   1.505   1.043 -0.1799 -0.4876 -0.5020
  906MOL0     C22241   2.707   1.530   0.525  1.1129 -0.3584 -0.3187
  906MOL0     C22242   2.737   1.422   0.452  0.6460 -0.3999 -0.4302
  906MOL0     H22243   2.434   0.987   0.202 -0.0745  2.4530  1.0283
  906MOL0     H22244   2.459   0.783   0.049 -0.1331 -1.4760  0.7342
  906MOL0     H22245   2.544   0.660  -0.162 -1.8728 -0.6355  1.4637
  906MOL0     H22246   2.658   0.521  -0.143  0.7871  0.9943 -1.1977
  906MOL0     H22247   2.466   0.574   0.085  0.0154 -1.0005  0.9224
  906MOL0     H22248   2.454   0.460  -0.047  1.5094  0.4123 -1.5157
  906MOL0     H22249   2.661   0.350   0.021  1.0115  0.4259 -0.4598
  906MOL0     H22250   2.706   0.475   0.128  1.2231 -2.7650 -1.0913
  906MOL0     H22251   2.518   0.426   0.276 -2.3250 -2.1682  1.4320
  906MOL0     H22252   2.444   0.312   0.167 -0.8833  1.9246 -1.7945
  906MOL0     H22253   2.565   0.172   0.290 -0.8995  1.9726  0.9255
  906MOL0     H22254   2.687   0.186   0.172 -2.0555 -1.0983  0.1343
  906MOL0     H22255   2.781   0.379   0.355  1.2047 -0.2319 -0.0789
  906MOL0     H22256   2.687   0.283   0.466 -0.5979 -1.8292  0.2977
  906MOL0     H22257   2.898   0.188   0.471 -1.6183 -0.3636 -0.2784
  906MOL0     H22258   2.812   0.075   0.376  2.8391 -0.7900  0.0479
  906MOL0     H22259   2.906   0.180   0.170 -2.0437 -0.9727  1.0448
  906MOL0     H22260   3.025   0.103   0.286  3.8534  1.7238 -2.3480
  906MOL0     H22261   3.051   0.379   0.472  2.8252  0.5966  1.2502
  906MOL0     H22262   3.137   0.714   0.308 -0.4857 -0.2843 -0.6198
  906MOL0     H22263   3.157   0.650   0.465  2.3731  0.5902 -0.2236
  906MOL0     H22264   3.368   0.539   0.432  1.1463  0.2345 -0.0345
  906MOL0     H22265   3.361   0.713   0.411  1.0279  0.8402 -1.0718
  906MOL0     H22266   3.368   0.697   0.154  1.8272  0.6850 -0.5370
  906MOL0     H22267   3.398   0.523   0.168  0.8591  1.0605 -1.7288
  906MOL0     H22268   3.584   0.574   0.341 -1.7563  0.0490  1.1251
  906MOL0     H22269   3.564   0.733   0.304  4.0715 -0.2638 -0.1431
  906MOL0     H22270   3.691   0.873   0.223 -0.4327 -1.8057  0.2136
  906MOL0     H22271   3.767   1.078   0.238 -2.0285 -0.3430 -2.0013
  906MOL0     H22272   3.936   1.086   0.230 -0.7377 -1.3843  1.3790
  906MOL0     H22273   3.848   1.132   0.088  5.0251 -2.3266 -2.8729
  906MOL0     H22274   4.273   1.106   0.108  0.0957 -0.7382 -1.3006
  906MOL0     H22275   4.457   1.272   0.054 -1.5394 -1.3304  1.1716
  906MOL0     H22276   4.516   1.414  -0.334  0.5485  1.6368 -0.6481
  906MOL0     H22277   4.425   1.559  -0.286  1.0532  1.4494  2.6397
  906MOL0     H22278   4.613   1.652  -0.153 -1.3050  0.8617 -0.4789
  906MOL0     H22279   4.710   1.500  -0.188  0.3740 -0.8979 -3.7875
  906MOL0     H22280   4.617   1.646  -0.419 -0.0210 -3.2989 -0.5761
  906MOL0     H22281   4.763   1.569  -0.390 -1.5966  0.0032 -2.3892
  906MOL0     H22282   4.698   1.853  -0.287  0.0772 -0.2047  0.8114
  906MOL0     H22283   4.817   1.742  -0.202 -0.7901 -1.3276  0.8555
  906MOL0     H22284   4.806   1.815  -0.494 -0.1257  1.7784  0.1413
  906MOL0     H22285   4.943   1.741  -0.419 -1.7873 -3.4701  1.3962
  906MOL0     H22286   4.852   2.023  -0.377 -0.7572 -0.6311  1.1269
  906MOL0     H22287   5.002   1.959  -0.297  0.2704  0.8060 -0.2408
  906MOL0     H22288   4.949   1.959  -0.610 -0.9432 -3.2827  0.9299
  906MOL0     H22289   5.094   1.906  -0.529  2.7101  3.7376  1.2535
  906MOL0     H22290   5.006   2.198  -0.512  0.9169  0.6533 -0.4077
  906MOL0     H22291   5.136   2.124  -0.617  2.1234  0.3094  1.3431
  906MOL0     H22292   4.216   1.413  -0.285 -0.3040 -0.7661 -0.1419
  906MOL0     H22293   4.046   1.250  -0.234  0.6557 -0.3647 -0.8686
  906MOL0     H22294   4.020   0.690  -0.084  0.3603  3.1750 -1.9135
  906MOL0     H22295   3.839   0.548   0.001 -2.7812  0.3312  2.1632
  906MOL0     H22296   2.895   0.831   0.068  0.7595 -0.1715  2.1189
  906MOL0     H22297   2.871   1.008   0.218 -0.2131  0.8317 -0.7115
  906MOL0     H22298   2.448   1.245   0.477 -0.1111  1.0747 -0.8085
  906MOL0     H22299   2.390   1.440   0.620 -1.4469  1.4425 -2.1406
  906MOL0     H22300   2.349   1.695   0.677 -2.1771 -1.5162  2.7226
  906MOL0     H22301   2.422   1.594   0.795 -1.2026  0.0267 -1.3923
  906MOL0     H22302   2.383   1.865   0.837  0.2881  1.8796 -1.3871
  906MOL0     H22303   2.526   1.882   0.757 -3.9179  1.0311 -1.8406
  906MOL0     H22304   2.610   1.877   0.963  0.2942  0.0841 -1.0451
  906MOL0     H22305   2.651   1.717   0.906 -0.4200  0.6691 -2.3462
  906MOL0     H22306   2.468   1.792   1.125 -1.0048  0.1246 -1.7301
  906MOL0     H22307   2.605   1.683   1.122  1.6229  1.4617 -2.2905
  906MOL0     H22308   2.259   1.438   1.042 -1.5524  1.0947  0.7374
  906MOL0     H22309   2.771   1.618   0.530 -0.4546  1.2653 -4.2912
  906MOL0     H22310   2.831   1.426   0.399 -0.1744 -0.5581 -1.9688
  907MOL0     O22311   4.050   9.888   6.869  0.1712  0.2443  0.7404
  907MOL0     C22312   4.096   9.782   6.829  0.2123  0.4443  0.1515
  907MOL0     O22313   4.227   9.744   6.835 -0.2784  0.0014 -0.2814
  907MOL0     C22314   4.322   9.843   6.831 -0.4641  0.1210  0.2102
  907MOL0     C22315   4.317   9.961   6.751  0.1616 -0.8723 -1.1078
  907MOL0     C22316   4.415  10.055   6.766  0.4366 -0.6996 -0.7144
  907MOL0     C22317   4.533  10.033   6.842 -0.3575 -0.1101  0.4738
  907MOL0     O22318   4.630  10.122   6.831  0.1294 -0.4783 -0.3011
  907MOL0     C22319   4.677  10.190   6.945  0.6125  0.4174 -0.3365
  907MOL0     C22320   4.801  10.271   6.925 -0.5963 -1.1153  0.2592
  907MOL0     C22321   4.785  10.390   6.817  0.8938 -0.3899  0.2635
  907MOL0     C22322   4.889  10.508   6.839 -0.1401 -0.9670 -0.0291
  907MOL0     C22323   4.870  10.635   6.747 -0.3023  0.6950  0.1291
  907MOL0     C22324   4.739  10.713   6.751 -0.6300 -0.1442  0.3547
  907MOL0     C22325   4.757  10.863   6.705  0.6793  0.1818 -0.2645
  907MOL0     C22326   4.822  10.951   6.811  0.2418  0.0602  0.2299
  907MOL0     N22327   4.809  11.090   6.759  0.4653  0.1279  0.4906
  907MOL0     C22328   4.838  11.138   6.640 -0.7024  0.3716  0.0136
  907MOL0     C22329   4.834  11.271   6.645  0.1516  0.4250  0.6088
  907MOL0     C22330   4.849  11.378   6.536  0.7978 -0.4167  0.0326
  907MOL0     C22331   4.992  11.391   6.480  0.3806  0.1867 -0.0337
  907MOL0     C22332   4.993  11.459   6.341  0.4187 -0.9761 -0.3421
  907MOL0     C22333   5.140  11.476   6.297  0.3365 -0.2569 -0.6575
  907MOL0     O22334   5.140  11.548   6.172 -0.5417  0.1198  0.8674
  907MOL0     C22335   5.237  11.545   6.075 -0.4123 -1.0702 -0.1833
  907MOL0     C22336   5.320  11.437   6.048  0.3789  1.4246  0.5445
  907MOL0     C22337   5.423  11.442   5.954  0.6718  0.6390 -0.5069
  907MOL0     C22338   5.497  11.316   5.933 -0.2616 -0.2589  0.0039
  907MOL0     C22339   5.450  11.559   5.878 -0.1207 -0.0229 -0.4495
  907MOL0     C22340   5.549  11.579   5.771  0.6178 -0.1986  0.5329
  907MOL0     O22341   5.536  11.696   5.707  0.4102 -0.0216  0.2536
  907MOL0     C22342   5.633  11.757   5.626 -0.0252  1.3067  0.6968
  907MOL0     C22343   5.765  11.724   5.579 -0.3003  0.4436  1.1182
  907MOL0     C22344   5.850  11.814   5.522  0.1994 -0.7684 -0.3189
  907MOL0     C22345   5.804  11.950   5.500 -0.2082 -0.3203 -0.1678
  907MOL0     O22346   5.875  12.045   5.431 -0.0805 -0.4715  0.6340
  907MOL0     C22347   6.011  12.036   5.423 -0.3258 -1.0238  0.1666
  907MOL0     C22348   6.055  12.182   5.420  0.2077 -0.3635  0.1396
  907MOL0     C22349   6.209  12.201   5.425 -0.4670  0.0953 -0.0891
  907MOL0     C22350   6.264  12.324   5.360 -0.8471  0.0665  0.1351
  907MOL0     C22351   6.407  12.333   5.371 -0.8013  0.6644  0.5208
  907MOL0     C22352   6.473  12.467   5.333 -0.8984  0.0237 -0.2618
  907MOL0     C22353   6.629  12.460   5.341  0.3426 -0.4417  0.0460
  907MOL0     C22354   6.695  12.608   5.343  0.0810 -0.0476  0.0390
  907MOL0    Cl22355   6.669  12.712   5.480 -0.0455 -0.1321 -0.2012
  907MOL0     C22356   5.674  11.981   5.542 -0.1234  0.6952  0.4865
  907MOL0     C22357   5.595  11.891   5.611 -0.1409  0.4878  0.6770
  907MOL0     O22358   5.625  11.486   5.744  0.2758 -0.4842  0.0336
  907MOL0     C22359   5.368  11.670   5.913 -0.2465  0.2800 -0.2467
  907MOL0     C22360   5.257  11.658   6.000 -0.0704  0.1939  0.0267
  907MOL0     N22361   4.797  11.303   6.772 -0.2844 -0.4056  0.0804
  907MOL0     N22362   4.777  11.194   6.840  0.3323 -0.2835 -0.2644
  907MOL0     C22363   4.543   9.915   6.908  0.8086 -0.4118  0.0987
  907MOL0     C22364   4.434   9.823   6.912 -1.4152  0.5076  0.0867
  907MOL0     C22365   4.013   9.688   6.754  0.3728  0.5123  0.3749
  907MOL0     C22366   3.874   9.716   6.740 -0.5966  0.3470  0.0484
  907MOL0     C22367   3.782   9.636   6.673 -0.1784 -0.2276  0.4786
  907MOL0     C22368   3.828   9.514   6.618 -0.1046  0.9442 -0.4253
  907MOL0     O22369   3.750   9.426   6.555  0.6311 -0.7397  0.7779
  907MOL0     C22370   3.612   9.447   6.527  0.3305 -0.8063  0.0884
  907MOL0     C22371   3.556   9.338   6.439  0.0261 -0.4518  0.1306
  907MOL0     C22372   3.650   9.341   6.307  0.5946 -0.6048 -0.1646
  907MOL0     C22373   3.588   9.313   6.171  0.8422 -0.3227  0.2443
  907MOL0     C22374   3.490   9.419   6.142 -0.1154  0.8752  0.0466
  907MOL0     C22375   3.413   9.505   6.109  0.2413  0.4534  0.9179
  907MOL0     C22376   3.962   9.476   6.634  0.4067 -0.0027 -0.5084
  907MOL0     C22377   4.061   9.567   6.692  0.0698  0.2428  0.9076
  907MOL0     H22378   4.224   9.990   6.703  0.9011 -2.2000 -3.5334
  907MOL0     H22379   4.411  10.147   6.708  2.4612  0.0012  0.1780
  907MOL0     H22380   4.604  10.250   7.001 -1.1485 -2.8319  1.1409
  907MOL0     H22381   4.710  10.119   7.021  1.3416  3.5864  2.6096
  907MOL0     H22382   4.825  10.323   7.019  3.9203 -1.2473 -0.5949
  907MOL0     H22383   4.887  10.212   6.895 -1.1218 -1.8187  0.1155
  907MOL0     H22384   4.806  10.359   6.714 -0.1052  2.2572 -0.8288
  907MOL0     H22385   4.687  10.439   6.818 -0.1369 -2.3477  1.6633
  907MOL0     H22386   4.886  10.530   6.946 -0.4176 -1.4227  0.0606
  907MOL0     H22387   4.984  10.458   6.819  0.8628  1.1992 -1.0462
  907MOL0     H22388   4.948  10.700   6.787  1.4340 -1.2653  0.1257
  907MOL0     H22389   4.892  10.596   6.647  0.8095 -1.2051  1.0529
  907MOL0     H22390   4.660  10.667   6.691 -2.3263  2.2238  0.6572
  907MOL0     H22391   4.714  10.703   6.857 -2.5652 -2.8118 -0.2318
  907MOL0     H22392   4.818  10.858   6.615  0.4476 -1.4195 -0.3631
  907MOL0     H22393   4.655  10.897   6.681 -1.4647 -2.5785  3.8052
  907MOL0     H22394   4.930  10.940   6.821  0.6152  1.9598 -1.2047
  907MOL0     H22395   4.781  10.933   6.911  3.4276  0.7089  1.7719
  907MOL0     H22396   4.856  11.080   6.549 -2.3719 -1.4628  0.7813
  907MOL0     H22397   4.788  11.346   6.450 -0.3001  2.1430 -0.2270
  907MOL0     H22398   4.809  11.476   6.562 -2.4546 -1.7380  0.5593
  907MOL0     H22399   5.033  11.290   6.479 -0.3679 -0.2417  2.9597
  907MOL0     H22400   5.055  11.423   6.563 -1.7807 -0.8556  2.1207
  907MOL0     H22401   4.954  11.561   6.343  0.8615 -0.8185  0.7148
  907MOL0     H22402   4.935  11.396   6.273 -0.4117 -1.1474  0.5059
  907MOL0     H22403   5.190  11.379   6.284 -0.6734 -0.7441 -0.9519
  907MOL0     H22404   5.200  11.526   6.374  1.2607 -0.7387 -1.0498
  907MOL0     H22405   5.302  11.345   6.103  0.5565  0.6321 -0.6857
  907MOL0     H22406   5.487  11.295   5.826  2.8396  2.7489 -1.0347
  907MOL0     H22407   5.603  11.335   5.953 -0.0955  1.7875 -2.4277
  907MOL0     H22408   5.459  11.231   5.992 -1.8684 -0.4755 -1.2855
  907MOL0     H22409   5.798  11.621   5.594  0.5458  0.5112 -0.0798
  907MOL0     H22410   5.941  11.778   5.475  0.0781  0.1703 -1.3212
  907MOL0     H22411   6.053  11.986   5.511 -0.2944 -1.1432  0.0840
  907MOL0     H22412   6.043  11.987   5.331  0.0231 -0.0070 -0.2612
  907MOL0     H22413   6.015  12.223   5.327  1.6519 -0.7135 -0.6486
  907MOL0     H22414   6.004  12.238   5.500  0.9024 -0.6411  0.7865
  907MOL0     H22415   6.239  12.114   5.366 -0.2022 -0.2067  0.4770
  907MOL0     H22416   6.235  12.185   5.530 -0.2598 -0.1712 -0.1795
  907MOL0     H22417   6.239  12.325   5.253  0.2277  1.8606 -0.1376
  907MOL0     H22418   6.223  12.417   5.399 -1.8623  2.3051 -5.2958
  907MOL0     H22419   6.449  12.261   5.301 -1.4065  0.8024  0.0110
  907MOL0     H22420   6.435  12.302   5.473 -0.7014 -0.7470  0.0905
  907MOL0     H22421   6.438  12.502   5.235 -0.7226  0.9961  0.0116
  907MOL0     H22422   6.459  12.544   5.409  2.9032 -0.8397  1.5457
  907MOL0     H22423   6.662  12.402   5.254 -1.9250 -0.1178 -1.1006
  907MOL0     H22424   6.658  12.398   5.426 -1.2581  0.6806  1.4668
  907MOL0     H22425   6.660  12.664   5.256 -0.6817 -2.6187 -1.4339
  907MOL0     H22426   6.803  12.596   5.333  0.4634  2.1822  0.9185
  907MOL0     H22427   5.633  12.076   5.511 -0.5442  1.2320  2.5780
  907MOL0     H22428   5.501  11.922   5.655 -0.4790  0.2077  0.1662
  907MOL0     H22429   5.394  11.768   5.876  3.4746  0.5001  2.4223
  907MOL0     H22430   5.197  11.747   6.015  0.5919  0.3770  1.7052
  907MOL0     H22431   4.636   9.903   6.961 -0.5378 -0.0798  2.6972
  907MOL0     H22432   4.441   9.736   6.976 -2.8394 -0.2362 -0.7315
  907MOL0     H22433   3.827   9.792   6.800 -3.1399 -0.7915 -0.3721
  907MOL0     H22434   3.682   9.674   6.657  0.3505  1.6721  1.3927
  907MOL0     H22435   3.565   9.447   6.626 -0.7727 -0.1712 -0.4161
  907MOL0     H22436   3.599   9.548   6.487  2.1058 -1.0839 -1.3233
  907MOL0     H22437   3.455   9.370   6.410 -1.3219 -3.1662  1.4559
  907MOL0     H22438   3.554   9.236   6.479  0.5371 -1.7578 -2.8952
  907MOL0     H22439   3.732   9.269   6.314  0.2641 -0.8986  0.8734
  907MOL0     H22440   3.693   9.442   6.302 -0.3377  0.1762  3.9132
  907MOL0     H22441   3.537   9.217   6.161  1.3608 -0.7319  1.3265
  907MOL0     H22442   3.669   9.317   6.098  2.4414  4.6434  1.8447
  907MOL0     H22443   3.352   9.573   6.052 -0.0130  1.1322  1.9748
  907MOL0     H22444   3.997   9.382   6.593  0.8550  0.0445 -0.2505
  907MOL0     H22445   4.168   9.550   6.691  0.1712  0.7493  1.7149
  908MOL0     O22446   9.185   3.139   2.906 -0.2622 -0.6171 -0.2190
  908MOL0     C22447   9.189   3.038   2.969  0.6317  0.0224 -0.4204
  908MOL0     O22448   9.086   2.942   2.962 -0.6320  0.0055 -0.5823
  908MOL0     C22449   8.978   2.964   2.878 -0.5223  0.3788  0.6129
  908MOL0     C22450   8.862   3.021   2.934  0.0017  0.4304  0.0808
  908MOL0     C22451   8.743   3.024   2.849  0.2642 -0.0452 -0.6334
  908MOL0     C22452   8.751   2.979   2.722 -0.4170  0.6896  0.9344
  908MOL0     O22453   8.630   2.978   2.645  0.0901 -0.4779 -0.9476
  908MOL0     C22454   8.626   2.912   2.522  1.1398 -0.3072  0.4762
  908MOL0     C22455   8.492   2.881   2.468 -0.1011 -0.6226 -0.1362
  908MOL0     C22456   8.423   3.010   2.432 -0.5646  0.1338  0.5537
  908MOL0     C22457   8.291   2.964   2.365  0.3217 -0.3425  0.1647
  908MOL0     C22458   8.211   3.091   2.302 -0.7844  0.2070 -0.0756
  908MOL0     C22459   8.071   3.038   2.259 -0.2914  0.3013 -0.2140
  908MOL0     C22460   7.969   3.148   2.257 -0.0430 -0.6854  0.0620
  908MOL0     C22461   7.975   3.254   2.141 -0.7786  0.7515 -0.2363
  908MOL0     N22462   7.980   3.208   2.002 -0.2751 -0.0700 -0.2807
  908MOL0     C22463   7.880   3.211   1.914 -0.2333  0.6209  0.5596
  908MOL0     C22464   7.933   3.144   1.809  0.3925  0.7573  0.4008
  908MOL0     C22465   7.866   3.133   1.684  0.1456 -0.3114  0.5010
  908MOL0     C22466   7.736   3.055   1.687  0.3649  0.1747 -0.2840
  908MOL0     C22467   7.697   2.975   1.567 -0.2305 -0.7065  0.1834
  908MOL0     C22468   7.679   3.051   1.434 -0.1922  0.1669 -1.1998
  908MOL0     O22469   7.560   3.130   1.420  0.1230  0.0086 -0.3401
  908MOL0     C22470   7.553   3.237   1.336  1.0315 -0.4521  0.0097
  908MOL0     C22471   7.433   3.248   1.273 -0.5852 -0.4650 -0.4162
  908MOL0     C22472   7.401   3.366   1.204 -0.5121  0.2006  0.4572
  908MOL0     C22473   7.281   3.347   1.124  0.9863  0.7805  0.1456
  908MOL0     C22474   7.485   3.477   1.202  0.4156 -0.7314  0.6880
  908MOL0     C22475   7.464   3.606   1.141 -0.2887 -0.2227  0.7818
  908MOL0     O22476   7.572   3.694   1.124  0.2127 -0.2190 -0.3894
  908MOL0     C22477   7.559   3.786   1.027  1.3843 -0.0627 -0.1707
  908MOL0     C22478   7.589   3.737   0.895  0.9256  0.1652 -0.4039
  908MOL0     C22479   7.575   3.815   0.776  0.9771 -0.7697  0.3330
  908MOL0     C22480   7.526   3.953   0.801 -0.3881  0.5053  0.3787
  908MOL0     O22481   7.477   4.027   0.689  0.5234 -0.4424  0.1939
  908MOL0     C22482   7.427   3.956   0.572  0.3302 -0.2927 -0.3509
  908MOL0     C22483   7.374   4.055   0.472 -0.8529  0.0724 -0.2065
  908MOL0     C22484   7.263   4.141   0.539 -0.0258  0.4805 -0.7569
  908MOL0     C22485   7.238   4.283   0.487 -0.3940 -0.1130 -0.2618
  908MOL0     C22486   7.197   4.301   0.341  0.4518 -0.4547 -0.1844
  908MOL0     C22487   7.109   4.438   0.317 -0.5887 -0.2606  0.4606
  908MOL0     C22488   7.071   4.443   0.167  0.1282  0.3348 -0.9925
  908MOL0     C22489   6.937   4.523   0.131 -0.3420 -0.1812 -0.1381
  908MOL0    Cl22490   6.789   4.445   0.204  0.2679 -0.2523  0.4097
  908MOL0     C22491   7.499   3.994   0.936  0.0283 -1.0211 -0.5352
  908MOL0     C22492   7.516   3.916   1.053  0.6672  0.0177  0.4714
  908MOL0     O22493   7.346   3.641   1.120 -0.0595  0.6774  0.0863
  908MOL0     C22494   7.610   3.462   1.272  0.4829  1.2939 -0.1167
  908MOL0     C22495   7.636   3.339   1.341  0.2766  0.0089 -0.6338
  908MOL0     N22496   8.053   3.093   1.844 -0.7183 -0.1665  1.2582
  908MOL0     N22497   8.088   3.140   1.957  0.7453  0.1397 -0.4511
  908MOL0     C22498   8.874   2.942   2.663 -0.0403 -0.0797 -1.1425
  908MOL0     C22499   8.987   2.938   2.743  0.7731 -0.5510  0.4941
  908MOL0     C22500   9.301   3.022   3.068 -0.2098  0.6413 -0.1041
  908MOL0     C22501   9.426   3.056   3.028  0.4813  0.2642  0.2018
  908MOL0     C22502   9.535   3.031   3.113 -0.2106 -0.9391  0.0409
  908MOL0     C22503   9.516   2.973   3.241  0.4772 -0.2265 -0.1989
  908MOL0     O22504   9.617   2.946   3.336 -0.0507 -0.5274 -0.0784
  908MOL0     C22505   9.749   2.995   3.316  0.2651  0.7970  0.2411
  908MOL0     C22506   9.848   2.942   3.429 -0.4780 -0.1534 -0.0513
  908MOL0     C22507   9.913   2.816   3.378 -0.6292  0.3009  0.5671
  908MOL0     C22508  10.014   2.763   3.488 -0.4746  0.3347  0.9377
  908MOL0     C22509  10.043   2.624   3.488 -0.6895  0.2274  0.3035
  908MOL0     C22510  10.062   2.508   3.466  0.1407  0.9704  0.8039
  908MOL0     C22511   9.386   2.949   3.280  0.0328 -0.4430 -0.0853
  908MOL0     C22512   9.280   2.963   3.193  0.4206 -1.2703  0.3588
  908MOL0     H22513   8.854   3.049   3.038  1.2822 -0.9872  0.6095
  908MOL0     H22514   8.652   3.061   2.896  0.5892 -0.8349  0.6711
  908MOL0     H22515   8.694   2.962   2.452 -0.0268  0.7772  0.0912
  908MOL0     H22516   8.670   2.819   2.558  6.7750  1.6589 -0.2497
  908MOL0     H22517   8.512   2.817   2.381  3.1184  1.0524 -0.7860
  908MOL0     H22518   8.436   2.815   2.534  0.7606 -2.3735 -1.0670
  908MOL0     H22519   8.408   3.080   2.514  0.5299 -0.6291  1.4411
  908MOL0     H22520   8.485   3.068   2.363 -1.5327  2.4436  1.5469
  908MOL0     H22521   8.301   2.876   2.300  0.9318  0.0822 -0.3247
  908MOL0     H22522   8.227   2.918   2.441  0.0079 -4.7645 -2.3824
  908MOL0     H22523   8.201   3.164   2.382  3.5447 -1.2892  2.1073
  908MOL0     H22524   8.269   3.132   2.219  0.8431 -3.6836 -1.0825
  908MOL0     H22525   8.077   2.987   2.162  1.6538  0.6252 -0.3090
  908MOL0     H22526   8.045   2.965   2.336  1.7996  0.4050  0.6810
  908MOL0     H22527   7.870   3.107   2.239 -0.2023  0.8043 -3.1817
  908MOL0     H22528   7.976   3.199   2.354 -1.7991 -0.0868 -0.1099
  908MOL0     H22529   8.060   3.319   2.163 -1.6920  1.5438  1.1258
  908MOL0     H22530   7.887   3.317   2.152 -0.8738  0.3212  1.8357
  908MOL0     H22531   7.789   3.269   1.899 -0.7527 -0.6677 -1.5887
  908MOL0     H22532   7.863   3.229   1.633  1.7102 -0.6963 -0.3978
  908MOL0     H22533   7.936   3.072   1.626 -0.3374  0.4760 -0.9491
  908MOL0     H22534   7.651   3.115   1.723  0.2612 -0.6329  0.8963
  908MOL0     H22535   7.752   2.977   1.763  0.9733 -1.5946 -2.1323
  908MOL0     H22536   7.598   2.929   1.577 -1.7115  2.0904 -0.6073
  908MOL0     H22537   7.768   2.895   1.544  2.5307  2.0558 -1.7149
  908MOL0     H22538   7.678   2.980   1.351 -1.8165 -0.3485 -0.7720
  908MOL0     H22539   7.763   3.119   1.418 -2.3326  3.1828 -0.6247
  908MOL0     H22540   7.369   3.163   1.289  0.0367 -0.7826  0.4471
  908MOL0     H22541   7.200   3.389   1.185  0.2223 -1.3954  0.7077
  908MOL0     H22542   7.286   3.397   1.027 -1.2371 -0.3117 -0.5886
  908MOL0     H22543   7.238   3.247   1.123  1.4125  0.5566  1.6004
  908MOL0     H22544   7.617   3.632   0.889 -0.6327 -0.2346 -1.4247
  908MOL0     H22545   7.593   3.768   0.679 -2.2105  0.5256 -1.0138
  908MOL0     H22546   7.521   3.920   0.530  1.9067 -0.1679  2.7920
  908MOL0     H22547   7.355   3.882   0.608 -1.8226  1.7417 -0.2600
  908MOL0     H22548   7.457   4.115   0.433 -0.9868  0.7913  0.5836
  908MOL0     H22549   7.332   4.003   0.385  2.6244 -3.7664  0.1312
  908MOL0     H22550   7.274   4.152   0.647 -1.4866 -1.1061 -0.4061
  908MOL0     H22551   7.172   4.083   0.521 -0.2858  0.6038  0.1094
  908MOL0     H22552   7.168   4.341   0.548 -4.7958 -3.1379 -1.8775
  908MOL0     H22553   7.331   4.337   0.507 -0.8860  1.0032 -0.8863
  908MOL0     H22554   7.120   4.225   0.322 -2.1897  2.5848 -3.1080
  908MOL0     H22555   7.279   4.296   0.270  0.3925 -1.0049 -0.2229
  908MOL0     H22556   7.021   4.431   0.382  1.5564 -0.7842  3.5431
  908MOL0     H22557   7.171   4.524   0.344  0.4079 -1.1378  1.0367
  908MOL0     H22558   7.064   4.345   0.119  1.5014 -0.6660  0.7030
  908MOL0     H22559   7.157   4.494   0.123  1.1573 -0.6825 -0.2017
  908MOL0     H22560   6.930   4.515   0.022  2.2109 -1.0369 -0.3002
  908MOL0     H22561   6.952   4.628   0.159  1.8692  0.1833 -2.3327
  908MOL0     H22562   7.451   4.092   0.937 -0.6834 -1.2780 -2.8566
  908MOL0     H22563   7.500   3.945   1.156  1.5675 -0.2788  0.7071
  908MOL0     H22564   7.677   3.547   1.283  1.6718  0.1908  1.6292
  908MOL0     H22565   7.722   3.332   1.407 -0.7154  0.1745  0.7198
  908MOL0     H22566   8.886   2.926   2.556  1.1395 -2.2043 -0.7314
  908MOL0     H22567   9.078   2.912   2.690 -1.0629 -1.0157 -2.7260
  908MOL0     H22568   9.443   3.112   2.936  0.1315  1.0752  0.6233
  908MOL0     H22569   9.638   3.049   3.082 -0.0627 -3.3523 -1.0963
  908MOL0     H22570   9.798   2.959   3.225  4.2940  3.6406  1.0013
  908MOL0     H22571   9.743   3.105   3.320  0.7271  0.8699 -0.7902
  908MOL0     H22572   9.796   2.935   3.525 -0.3830  1.2237  0.1207
  908MOL0     H22573   9.918   3.024   3.447 -1.6922  0.8937 -0.0389
  908MOL0     H22574   9.973   2.829   3.287 -0.4452 -2.4176  0.2184
  908MOL0     H22575   9.836   2.741   3.360 -0.7432 -0.4104  3.4662
  908MOL0     H22576   9.981   2.781   3.591  1.5575 -1.2853  1.9549
  908MOL0     H22577  10.113   2.800   3.462 -0.6831 -0.4600 -1.1236
  908MOL0     H22578  10.076   2.403   3.451  0.9399  0.8335  2.2870
  908MOL0     H22579   9.368   2.901   3.375 -0.9349  0.2261  0.0865
  908MOL0     H22580   9.180   2.944   3.231 -0.1304  2.2098  0.9899
  909MOL0     O22581   4.504   6.603   7.733 -0.1323 -0.0989 -0.6511
  909MOL0     C22582   4.382   6.584   7.711 -1.1286 -0.1418 -0.2455
  909MOL0     O22583   4.313   6.467   7.730 -0.7224  0.3897  0.7923
  909MOL0     C22584   4.375   6.355   7.775 -0.3344 -0.3965  0.1237
  909MOL0     C22585   4.313   6.295   7.882  0.2866  0.4109  0.0456
  909MOL0     C22586   4.373   6.169   7.922 -0.0087 -0.4651 -1.0064
  909MOL0     C22587   4.460   6.096   7.849 -0.3858 -0.0124  0.1809
  909MOL0     O22588   4.501   5.971   7.901 -0.4136  1.3485  0.6406
  909MOL0     C22589   4.612   5.906   7.831 -0.1618 -0.2579  0.7064
  909MOL0     C22590   4.592   5.759   7.841  0.2445  0.3497  0.8130
  909MOL0     C22591   4.466   5.700   7.779  0.2101 -0.0350 -0.1522
  909MOL0     C22592   4.459   5.713   7.628 -0.3069 -0.4580  0.4354
  909MOL0     C22593   4.334   5.641   7.569  0.6510 -0.4062  0.8078
  909MOL0     C22594   4.315   5.491   7.619 -0.8503 -0.2744  0.1219
  909MOL0     C22595   4.200   5.419   7.549 -0.1939 -0.3440  0.2046
  909MOL0     C22596   4.180   5.270   7.597  0.2884  0.1803 -0.4058
  909MOL0     N22597   4.054   5.214   7.543 -0.5933  0.5966 -0.0591
  909MOL0     C22598   4.034   5.206   7.413 -0.4142 -0.0650  0.9673
  909MOL0     C22599   3.909   5.159   7.402 -0.7029  0.2872 -0.3378
  909MOL0     C22600   3.831   5.132   7.273 -0.7748  0.6691 -0.6863
  909MOL0     C22601   3.731   5.234   7.231 -0.3987  0.8897 -0.5210
  909MOL0     C22602   3.790   5.360   7.182  0.3254  0.6102  0.7699
  909MOL0     C22603   3.673   5.458   7.138  0.4187  0.5609 -0.7805
  909MOL0     O22604   3.613   5.513   7.254  0.3057  0.4254  0.2088
  909MOL0     C22605   3.518   5.612   7.256 -0.0616 -0.5688  0.1678
  909MOL0     C22606   3.485   5.686   7.145 -0.1668  0.4909 -0.3684
  909MOL0     C22607   3.386   5.787   7.165 -0.2574  0.4739 -0.4028
  909MOL0     C22608   3.369   5.870   7.030 -0.1033 -0.1556  0.5176
  909MOL0     C22609   3.312   5.804   7.279  0.8146 -0.2306 -0.5942
  909MOL0     C22610   3.186   5.886   7.293 -0.1663 -0.5314  0.2648
  909MOL0     O22611   3.131   5.903   7.415  0.0454  0.1401  0.7596
  909MOL0     C22612   3.022   5.982   7.434  0.1465 -0.9429 -0.2531
  909MOL0     C22613   3.045   6.113   7.487  0.3889  0.1848 -0.8732
  909MOL0     C22614   2.929   6.189   7.529 -0.7574  0.1101  0.7196
  909MOL0     C22615   2.807   6.135   7.519  0.0764  0.8940  0.1252
  909MOL0     O22616   2.689   6.196   7.548 -0.7149  0.7547  0.0707
  909MOL0     C22617   2.704   6.320   7.627  0.1218 -0.1080  0.4100
  909MOL0     C22618   2.572   6.365   7.677 -0.0668 -0.1890 -0.3512
  909MOL0     C22619   2.475   6.399   7.562 -0.1403  0.9793  0.4251
  909MOL0     C22620   2.328   6.388   7.600 -0.3457 -0.3267 -0.3741
  909MOL0     C22621   2.300   6.478   7.722 -0.7491 -0.3329 -0.2037
  909MOL0     C22622   2.151   6.507   7.724 -0.5683  0.1511  0.6416
  909MOL0     C22623   2.096   6.616   7.631  0.6806 -0.6679 -0.3541
  909MOL0     C22624   1.976   6.688   7.692 -0.3494 -0.7423 -0.0772
  909MOL0    Cl22625   2.030   6.776   7.827  0.0662  0.5216 -0.1184
  909MOL0     C22626   2.785   6.013   7.464 -0.2113  0.0354 -0.1149
  909MOL0     C22627   2.892   5.945   7.409 -0.5871 -0.2893  0.4970
  909MOL0     O22628   3.138   5.922   7.192  1.0564  0.5653  0.7268
  909MOL0     C22629   3.355   5.739   7.395 -0.4806  0.7854 -0.1496
  909MOL0     C22630   3.456   5.642   7.378  0.0410 -1.0179  0.8506
  909MOL0     N22631   3.856   5.135   7.530 -0.5032  1.2349  0.2190
  909MOL0     N22632   3.947   5.158   7.611  0.9762  0.0349  0.2162
  909MOL0     C22633   4.509   6.156   7.734 -0.0127  0.0022 -0.5080
  909MOL0     C22634   4.468   6.285   7.698 -0.2646  0.0424 -0.4356
  909MOL0     C22635   4.308   6.702   7.660 -0.0064  0.1217 -0.3903
  909MOL0     C22636   4.200   6.674   7.574 -0.3018 -0.0415 -0.1959
  909MOL0     C22637   4.120   6.783   7.547  0.3607  0.5766 -0.3238
  909MOL0     C22638   4.137   6.914   7.587 -0.0096 -0.3834  0.2478
  909MOL0     O22639   4.069   7.026   7.553  0.3674 -0.0253  0.1959
  909MOL0     C22640   3.936   7.008   7.505 -1.1270  0.1427 -0.5946
  909MOL0     C22641   3.854   7.137   7.522 -0.1695  0.0035  0.4427
  909MOL0     C22642   3.727   7.162   7.432 -0.1498  0.0405  0.9977
  909MOL0     C22643   3.635   7.043   7.453 -0.2795  0.4380  0.4487
  909MOL0     C22644   3.513   7.066   7.366  0.0443  1.7404  0.8704
  909MOL0     C22645   3.418   7.106   7.307 -0.1988 -0.2817 -0.0927
  909MOL0     C22646   4.252   6.936   7.662 -0.2206  0.2649 -0.5626
  909MOL0     C22647   4.342   6.836   7.696  0.0916  0.2111 -0.5273
  909MOL0     H22648   4.233   6.342   7.937 -0.3689  1.2053 -1.5254
  909MOL0     H22649   4.343   6.124   8.016 -1.8928  0.9504 -0.8966
  909MOL0     H22650   4.620   5.923   7.724  1.3026  2.3738  1.1541
  909MOL0     H22651   4.701   5.937   7.886  0.5757 -0.5012 -0.3440
  909MOL0     H22652   4.673   5.703   7.793 -2.1856 -0.5276 -2.5803
  909MOL0     H22653   4.595   5.742   7.949 -0.9707 -0.7906  0.6858
  909MOL0     H22654   4.456   5.593   7.797  1.1031  0.3226  3.2542
  909MOL0     H22655   4.387   5.748   7.838  1.0589  0.5535  0.5312
  909MOL0     H22656   4.445   5.819   7.604  1.2638 -0.4274 -0.4864
  909MOL0     H22657   4.550   5.676   7.579  0.6089  0.0572  1.7189
  909MOL0     H22658   4.248   5.706   7.589  2.7858  2.0500  2.6406
  909MOL0     H22659   4.349   5.648   7.461  0.4275 -2.5215  0.5910
  909MOL0     H22660   4.411   5.448   7.590 -0.3292 -1.5767  3.2870
  909MOL0     H22661   4.291   5.478   7.725  1.3781  1.0073  0.8455
  909MOL0     H22662   4.118   5.488   7.572 -0.6431 -0.3400 -1.3003
  909MOL0     H22663   4.212   5.418   7.441 -3.0669  1.6102 -0.2648
  909MOL0     H22664   4.195   5.252   7.704  4.2209  1.4015 -0.6032
  909MOL0     H22665   4.266   5.220   7.551  0.8575  1.0642 -0.3285
  909MOL0     H22666   4.104   5.227   7.333 -1.1703  0.5339  0.4379
  909MOL0     H22667   3.910   5.114   7.199 -0.4854  0.0539 -0.2376
  909MOL0     H22668   3.780   5.040   7.301 -2.2292  1.0786 -1.9104
  909MOL0     H22669   3.664   5.275   7.308  0.2889  1.7118 -0.3482
  909MOL0     H22670   3.668   5.187   7.155 -0.3841  2.6236 -1.6503
  909MOL0     H22671   3.853   5.339   7.095  2.1058  2.9403  1.3922
  909MOL0     H22672   3.858   5.402   7.257 -0.0449  0.2869  1.2884
  909MOL0     H22673   3.601   5.409   7.072 -3.1739  2.3095  1.5210
  909MOL0     H22674   3.717   5.547   7.093  1.2593  0.9522  0.7643
  909MOL0     H22675   3.521   5.676   7.044 -1.6835  1.6830 -1.0745
  909MOL0     H22676   3.348   5.977   7.040  1.1730  0.4251 -2.0180
  909MOL0     H22677   3.459   5.866   6.968 -1.2632  1.2116 -1.3599
  909MOL0     H22678   3.293   5.839   6.957  0.6174 -0.0907 -0.2841
  909MOL0     H22679   3.142   6.147   7.524 -0.2052  0.5868  0.3621
  909MOL0     H22680   2.950   6.285   7.575  2.2186  1.2346 -2.5148
  909MOL0     H22681   2.759   6.301   7.719  1.3340  0.5266 -0.1705
  909MOL0     H22682   2.754   6.401   7.572  0.7609  0.0397  1.2095
  909MOL0     H22683   2.531   6.287   7.742  2.0455  2.2831  4.5158
  909MOL0     H22684   2.581   6.446   7.750 -6.1150  0.5845  0.0432
  909MOL0     H22685   2.501   6.348   7.469 -1.9221 -1.5751  1.2059
  909MOL0     H22686   2.480   6.507   7.547 -2.4053  1.6018  3.1387
  909MOL0     H22687   2.259   6.432   7.526  1.9100  3.4425 -0.5150
  909MOL0     H22688   2.288   6.292   7.632 -1.6965 -0.0796 -1.2053
  909MOL0     H22689   2.369   6.564   7.721 -1.0335 -0.1017 -1.7490
  909MOL0     H22690   2.322   6.411   7.806  1.3369  0.1966 -0.2790
  909MOL0     H22691   2.098   6.419   7.686 -0.2424  1.0361 -2.0948
  909MOL0     H22692   2.111   6.514   7.825 -2.5929  0.5840 -0.1302
  909MOL0     H22693   2.071   6.579   7.532 -2.7748  3.8117 -1.5164
  909MOL0     H22694   2.173   6.693   7.616 -0.2610  0.1789 -0.9948
  909MOL0     H22695   1.895   6.616   7.711 -2.5090  1.9678  1.7754
  909MOL0     H22696   1.931   6.755   7.619 -0.3524 -0.7740 -0.1048
  909MOL0     H22697   2.682   5.986   7.442 -0.1097 -1.8039  1.4031
  909MOL0     H22698   2.885   5.851   7.354  1.0912 -0.0457 -0.2021
  909MOL0     H22699   3.303   5.738   7.490  0.8956 -1.6349  0.6572
  909MOL0     H22700   3.492   5.574   7.455  0.9791 -3.1379 -1.3058
  909MOL0     H22701   4.578   6.109   7.665  0.6358 -0.1586  0.2503
  909MOL0     H22702   4.516   6.338   7.616  2.0378  2.0618  2.0195
  909MOL0     H22703   4.200   6.571   7.542 -0.5392 -0.3951  0.9007
  909MOL0     H22704   4.034   6.770   7.481 -1.1281  1.3465  1.3663
  909MOL0     H22705   3.949   6.983   7.399  0.1751 -2.1320  0.0348
  909MOL0     H22706   3.872   6.937   7.557 -0.0170  0.1683  0.8761
  909MOL0     H22707   3.921   7.222   7.507  1.3884 -1.4720 -1.6101
  909MOL0     H22708   3.816   7.142   7.625  1.4654  2.6254  1.0110
  909MOL0     H22709   3.753   7.175   7.327  1.6549  1.0327  1.5335
  909MOL0     H22710   3.678   7.256   7.460 -0.0149  0.1267  0.9458
  909MOL0     H22711   3.613   7.020   7.558  1.6518 -0.1139  0.7711
  909MOL0     H22712   3.677   6.953   7.407 -0.7533  1.2785 -1.7066
  909MOL0     H22713   3.331   7.133   7.252  1.4248  1.0190 -2.1920
  909MOL0     H22714   4.272   7.038   7.695  3.8142 -0.3300 -0.7246
  909MOL0     H22715   4.434   6.846   7.753  1.4169 -0.1894 -2.4909
  910MOL0     O22716   8.998   3.370   4.469  0.1540  0.5567  0.4663
  910MOL0     C22717   9.078   3.386   4.557  0.4287  0.4229 -0.6482
  910MOL0     O22718   9.058   3.356   4.690  0.9773 -0.0159  0.7780
  910MOL0     C22719   8.942   3.302   4.723  0.7059 -0.8474 -0.0079
  910MOL0     C22720   8.814   3.366   4.719  0.9816  0.8308 -0.3370
  910MOL0     C22721   8.695   3.301   4.734  0.3447  0.3793  0.4578
  910MOL0     C22722   8.696   3.163   4.761  0.1945  0.2767 -0.0648
  910MOL0     O22723   8.573   3.114   4.779  0.7797  0.2548  0.7001
  910MOL0     C22724   8.565   3.000   4.868  0.7462 -0.9881 -0.4048
  910MOL0     C22725   8.549   2.870   4.802 -0.3097  0.2096  0.4499
  910MOL0     C22726   8.421   2.879   4.714 -0.1192  0.6132  0.2165
  910MOL0     C22727   8.445   2.918   4.561  0.5836 -0.2035  0.0814
  910MOL0     C22728   8.340   2.845   4.464 -0.4931 -0.9688 -1.1464
  910MOL0     C22729   8.197   2.881   4.499  0.5732  0.5604 -0.1081
  910MOL0     C22730   8.103   2.838   4.376  0.4451 -0.0864 -0.2558
  910MOL0     C22731   7.969   2.917   4.380 -0.4244 -0.3616  0.3194
  910MOL0     N22732   7.976   3.061   4.358  0.1010 -0.7700 -0.6655
  910MOL0     C22733   7.990   3.122   4.232 -0.4902  0.3765 -0.2680
  910MOL0     C22734   8.004   3.249   4.265 -0.1954  0.5125  0.1085
  910MOL0     C22735   8.026   3.360   4.163  0.0821  0.8159  0.4525
  910MOL0     C22736   8.174   3.407   4.137 -0.1041 -0.4438  0.6244
  910MOL0     C22737   8.174   3.490   4.005 -0.3141 -0.6015  0.4654
  910MOL0     C22738   8.301   3.566   3.971  0.2026 -0.2926 -0.4863
  910MOL0     O22739   8.400   3.491   3.903 -0.5041 -0.5549 -0.4747
  910MOL0     C22740   8.511   3.544   3.840  0.3371 -0.1712  0.1131
  910MOL0     C22741   8.598   3.466   3.761  0.0271  0.0333 -0.1559
  910MOL0     C22742   8.719   3.512   3.714  0.1159 -0.4838 -0.9071
  910MOL0     C22743   8.815   3.404   3.663 -0.1754 -0.0230  0.4063
  910MOL0     C22744   8.758   3.648   3.720 -0.2663  0.5646  0.4684
  910MOL0     C22745   8.892   3.700   3.687 -0.4465 -0.2365 -0.2748
  910MOL0     O22746   8.920   3.824   3.735  0.5143  0.3302 -0.2016
  910MOL0     C22747   9.016   3.899   3.682  0.2829 -1.0645 -0.8365
  910MOL0     C22748   9.035   3.918   3.547  0.4270  0.2153  0.1897
  910MOL0     C22749   9.118   4.023   3.495  0.7519  0.9170 -0.8978
  910MOL0     C22750   9.191   4.107   3.581  0.0651  0.4583  1.1185
  910MOL0     O22751   9.291   4.196   3.538  0.3373  0.0073  0.7177
  910MOL0     C22752   9.281   4.242   3.402  0.2815  0.3534 -0.3092
  910MOL0     C22753   9.400   4.322   3.363 -0.6916  0.1976  0.8011
  910MOL0     C22754   9.369   4.455   3.297  0.2880 -0.4558 -0.1843
  910MOL0     C22755   9.295   4.438   3.164 -0.0035 -0.5094  0.5942
  910MOL0     C22756   9.262   4.574   3.097 -0.2627  0.3442  0.2266
  910MOL0     C22757   9.174   4.567   2.960  0.1286  0.6897  0.1705
  910MOL0     C22758   9.257   4.479   2.856 -0.1479  0.9353  0.3754
  910MOL0     C22759   9.233   4.509   2.706  0.8408 -0.6007 -0.5081
  910MOL0    Cl22760   9.273   4.667   2.663  0.1097 -0.1776 -0.5808
  910MOL0     C22761   9.165   4.088   3.720  0.3911 -0.4254 -0.1810
  910MOL0     C22762   9.074   3.993   3.774 -0.2936  0.2948  0.0159
  910MOL0     O22763   8.966   3.630   3.619  0.1576 -0.3140 -0.5999
  910MOL0     C22764   8.659   3.728   3.784  0.6261 -1.0275  0.7592
  910MOL0     C22765   8.543   3.680   3.847  0.6284 -0.5774 -0.1292
  910MOL0     N22766   8.010   3.272   4.396  0.3563  0.4764 -0.6230
  910MOL0     N22767   8.001   3.157   4.456 -0.3056 -0.0972  0.8259
  910MOL0     C22768   8.820   3.094   4.768  0.1525 -0.1066 -1.0844
  910MOL0     C22769   8.941   3.166   4.746  0.3008  1.3470  0.8214
  910MOL0     C22770   9.209   3.440   4.528  1.1709 -0.4570  0.1950
  910MOL0     C22771   9.239   3.481   4.398 -0.3726 -0.4490 -0.6145
  910MOL0     C22772   9.373   3.516   4.360 -0.4512 -0.4237 -0.4674
  910MOL0     C22773   9.475   3.522   4.453  0.2466 -0.7255  0.3705
  910MOL0     O22774   9.588   3.586   4.415  0.1440 -0.2038  0.1813
  910MOL0     C22775   9.680   3.646   4.511  0.6617  0.1608  0.0865
  910MOL0     C22776   9.799   3.732   4.443  0.1319  0.5672 -0.0781
  910MOL0     C22777   9.884   3.640   4.352 -0.5947 -0.4021 -0.3721
  910MOL0     C22778   9.938   3.713   4.228  0.1570  0.4494 -0.3481
  910MOL0     C22779  10.013   3.840   4.273 -1.1116 -1.7210  0.3877
  910MOL0     C22780  10.083   3.940   4.291 -0.7348 -0.3579 -0.0813
  910MOL0     C22781   9.439   3.491   4.586  0.1980  0.2169 -1.2945
  910MOL0     C22782   9.315   3.444   4.620  0.8502  0.8836  0.4543
  910MOL0     H22783   8.810   3.474   4.708 -3.1116  0.9481  0.7146
  910MOL0     H22784   8.597   3.347   4.736  1.2936  2.5560  0.3321
  910MOL0     H22785   8.650   2.996   4.937  1.6586  1.6868 -1.2276
  910MOL0     H22786   8.477   3.019   4.930  2.5979  3.9324  1.2442
  910MOL0     H22787   8.645   2.843   4.756  0.3387 -0.5547  2.1623
  910MOL0     H22788   8.527   2.792   4.876 -3.0212  1.4730  1.0944
  910MOL0     H22789   8.366   2.787   4.736 -2.6191  2.0438  0.3161
  910MOL0     H22790   8.347   2.948   4.758  0.1825  1.1974 -0.1774
  910MOL0     H22791   8.436   3.026   4.547 -0.6171 -0.3715 -0.5115
  910MOL0     H22792   8.543   2.881   4.527  1.5288  2.6931 -0.6456
  910MOL0     H22793   8.356   2.879   4.361 -4.4932  0.9541 -1.3126
  910MOL0     H22794   8.349   2.736   4.462  1.1623 -0.8679 -0.8514
  910MOL0     H22795   8.153   2.833   4.587 -1.4099 -2.1504 -2.3996
  910MOL0     H22796   8.191   2.985   4.532 -0.2883  0.3509  0.4450
  910MOL0     H22797   8.156   2.862   4.283 -0.7041  0.8591 -0.6924
  910MOL0     H22798   8.085   2.731   4.369 -2.9703  0.3568  0.1169
  910MOL0     H22799   7.933   2.884   4.478 -3.1199 -2.2442 -1.1695
  910MOL0     H22800   7.898   2.873   4.310 -0.2631 -0.8519  0.4544
  910MOL0     H22801   8.006   3.074   4.136  3.3000  3.0435 -1.1797
  910MOL0     H22802   7.986   3.326   4.067  1.1578  1.0636 -0.1073
  910MOL0     H22803   7.960   3.443   4.191 -0.7771  0.0281  0.8261
  910MOL0     H22804   8.238   3.318   4.136 -0.2904 -0.5919 -0.8803
  910MOL0     H22805   8.207   3.472   4.219  0.7309 -2.7618  2.2068
  910MOL0     H22806   8.095   3.565   4.001 -0.5864 -0.9420 -1.2290
  910MOL0     H22807   8.161   3.418   3.924 -1.7205  0.7643 -0.5570
  910MOL0     H22808   8.339   3.609   4.064 -1.8915  0.9977 -0.1618
  910MOL0     H22809   8.267   3.648   3.906 -1.9114 -1.2470 -0.6684
  910MOL0     H22810   8.586   3.359   3.750 -1.0756 -0.2169  2.7719
  910MOL0     H22811   8.762   3.316   3.625  0.1875 -0.0692 -0.0066
  910MOL0     H22812   8.884   3.427   3.580  0.3199  0.2382  0.8799
  910MOL0     H22813   8.888   3.370   3.737  0.3377 -0.5550 -0.3256
  910MOL0     H22814   8.979   3.873   3.465  1.6813 -0.5183 -0.2865
  910MOL0     H22815   9.136   4.030   3.388  1.6183 -2.7776 -1.1234
  910MOL0     H22816   9.288   4.154   3.338  3.6615 -0.1765  0.5847
  910MOL0     H22817   9.180   4.280   3.385 -2.5560 -5.6673  0.4366
  910MOL0     H22818   9.475   4.328   3.443  0.0035 -3.6385  0.6402
  910MOL0     H22819   9.456   4.255   3.297 -0.6793  1.0763 -0.1077
  910MOL0     H22820   9.456   4.519   3.285 -0.5805  0.9609  0.7075
  910MOL0     H22821   9.300   4.493   3.373 -1.7912  0.0326 -2.1947
  910MOL0     H22822   9.365   4.386   3.098  1.7363  1.4556  0.8306
  910MOL0     H22823   9.206   4.374   3.172  0.2341 -1.1918 -1.5297
  910MOL0     H22824   9.362   4.614   3.077  0.8141 -0.4410  3.5546
  910MOL0     H22825   9.217   4.646   3.167  1.6148  0.3260  1.5009
  910MOL0     H22826   9.071   4.532   2.974 -0.2160  1.7367  0.3734
  910MOL0     H22827   9.164   4.666   2.913  0.8393  0.0461 -1.4246
  910MOL0     H22828   9.248   4.372   2.874  4.5995 -0.0598 -1.6257
  910MOL0     H22829   9.365   4.490   2.868 -0.0310  0.5303 -0.2427
  910MOL0     H22830   9.130   4.493   2.674 -0.1431  1.6180  1.2643
  910MOL0     H22831   9.297   4.444   2.645 -1.8589 -3.4732 -0.5314
  910MOL0     H22832   9.229   4.139   3.791  0.1709 -1.2100  0.5944
  910MOL0     H22833   9.054   3.995   3.880  3.7022  1.3363  0.9015
  910MOL0     H22834   8.682   3.834   3.788  0.6618 -0.9028 -1.4887
  910MOL0     H22835   8.482   3.755   3.897  2.4257  1.1315 -0.3867
  910MOL0     H22836   8.819   2.988   4.747 -0.9484 -0.2885 -0.2040
  910MOL0     H22837   9.038   3.117   4.739 -1.1372 -1.5437 -0.9920
  910MOL0     H22838   9.163   3.475   4.321  0.8375  1.4494 -2.0432
  910MOL0     H22839   9.382   3.550   4.258  1.5827 -0.2699 -0.2652
  910MOL0     H22840   9.634   3.716   4.581  0.7993 -1.0791  1.4778
  910MOL0     H22841   9.718   3.570   4.579 -0.3241  1.4204  2.1372
  910MOL0     H22842   9.867   3.782   4.512 -0.0793  0.6815  0.0506
  910MOL0     H22843   9.751   3.807   4.379 -0.9327 -0.3859 -0.4430
  910MOL0     H22844   9.831   3.552   4.314 -1.3567 -0.5718  1.0338
  910MOL0     H22845   9.965   3.596   4.410  0.0191 -1.2411 -1.8192
  910MOL0     H22846   9.861   3.734   4.152  1.0973  5.6554 -0.2142
  910MOL0     H22847  10.014   3.653   4.177 -0.3045 -0.8437  0.4146
  910MOL0     H22848  10.138   4.029   4.315 -1.0995 -0.8085  2.7421
  910MOL0     H22849   9.505   3.507   4.671  0.5220  2.2958 -1.8880
  910MOL0     H22850   9.312   3.416   4.725 -4.0277 -1.1337  0.0859
  911MOL0     O22851   3.599   1.335  11.231 -0.0404  0.4520 -0.1618
  911MOL0     C22852   3.663   1.365  11.133  0.5508  0.9217  0.1517
  911MOL0     O22853   3.681   1.491  11.074 -0.6016  0.6274 -0.0266
  911MOL0     C22854   3.627   1.601  11.127  0.4206 -0.0306  0.6047
  911MOL0     C22855   3.617   1.622  11.269 -0.1785 -0.6939  0.4560
  911MOL0     C22856   3.548   1.732  11.324  0.1177 -0.2057  1.0010
  911MOL0     C22857   3.497   1.833  11.240 -0.4262 -0.2824 -0.9179
  911MOL0     O22858   3.433   1.939  11.300 -0.2851 -0.5298  0.2999
  911MOL0     C22859   3.500   2.070  11.283  0.4900  0.5924 -0.4093
  911MOL0     C22860   3.442   2.174  11.376 -0.5250 -0.7114  0.3968
  911MOL0     C22861   3.464   2.314  11.329 -0.1415 -0.4895 -0.4599
  911MOL0     C22862   3.439   2.419  11.439  0.3337 -0.0688  0.4549
  911MOL0     C22863   3.462   2.562  11.383 -0.0335  0.5287  0.4936
  911MOL0     C22864   3.548   2.631  11.489 -0.9356  0.9532  0.4104
  911MOL0     C22865   3.600   2.768  11.460 -0.4854 -1.0031  0.5057
  911MOL0     C22866   3.727   2.780  11.372  0.0955 -0.2140 -0.5699
  911MOL0     N22867   3.852   2.720  11.423 -0.0970  0.2483 -0.4364
  911MOL0     C22868   3.882   2.585  11.430  0.4070  0.3324 -0.3174
  911MOL0     C22869   4.004   2.588  11.492  0.2885 -0.4726  0.1118
  911MOL0     C22870   4.086   2.467  11.522 -0.9215  0.2291 -0.4450
  911MOL0     C22871   4.016   2.371  11.613  0.3754  0.1456 -0.3448
  911MOL0     C22872   4.082   2.233  11.645  0.2009 -0.2910 -0.3949
  911MOL0     C22873   4.139   2.151  11.523 -0.2452 -0.2980  0.4826
  911MOL0     O22874   4.026   2.122  11.442  0.6571 -0.2191 -0.5042
  911MOL0     C22875   4.046   2.056  11.324  0.4526 -0.9507 -0.1422
  911MOL0     C22876   4.162   2.011  11.275  0.3302 -0.1178 -0.0523
  911MOL0     C22877   4.171   1.934  11.155 -0.0441 -0.5728  0.5876
  911MOL0     C22878   4.306   1.906  11.106 -0.7187 -0.4045  0.7026
  911MOL0     C22879   4.057   1.897  11.081 -0.2702 -0.3113 -1.2371
  911MOL0     C22880   4.052   1.810  10.964  0.3483  0.0586 -0.5020
  911MOL0     O22881   3.923   1.778  10.935  0.0300 -0.5241 -0.8092
  911MOL0     C22882   3.907   1.696  10.828 -0.2180  0.8674 -0.4111
  911MOL0     C22883   3.944   1.564  10.832 -0.3190 -0.4271 -1.1348
  911MOL0     C22884   3.922   1.475  10.728 -0.0441  0.7724 -0.0833
  911MOL0     C22885   3.840   1.525  10.623  0.9874 -0.1372 -0.1127
  911MOL0     O22886   3.803   1.428  10.533 -0.0868 -0.7035  0.6019
  911MOL0     C22887   3.785   1.468  10.396 -0.2268  0.1788  0.1020
  911MOL0     C22888   3.797   1.353  10.296 -0.3062 -0.1310 -0.5301
  911MOL0     C22889   3.699   1.235  10.297 -0.2328  0.1927  0.2376
  911MOL0     C22890   3.736   1.123  10.196 -0.3521  0.5003 -0.0061
  911MOL0     C22891   3.611   1.043  10.143  0.8990 -0.4153  0.2346
  911MOL0     C22892   3.652   0.924  10.057 -0.7410  0.9141  0.0801
  911MOL0     C22893   3.538   0.883   9.965  0.2900  0.3931  0.3195
  911MOL0     C22894   3.576   0.763   9.876  0.3620 -0.1636  0.3065
  911MOL0    Cl22895   3.727   0.792   9.772 -0.5891 -0.1134 -0.0749
  911MOL0     C22896   3.793   1.659  10.623  0.2659  0.7775 -0.5547
  911MOL0     C22897   3.832   1.740  10.721  0.2490  0.0172  0.1872
  911MOL0     O22898   4.147   1.772  10.899 -0.1982 -0.1853  0.0001
  911MOL0     C22899   3.939   1.945  11.146 -0.1109 -0.4601  0.0745
  911MOL0     C22900   3.929   2.018  11.263  0.1760 -0.6404 -0.4380
  911MOL0     N22901   4.041   2.720  11.507 -0.2558 -0.9194  0.2810
  911MOL0     N22902   3.953   2.798  11.473 -0.2965 -0.3294  0.5782
  911MOL0     C22903   3.522   1.829  11.105 -0.3390  0.1331 -0.0372
  911MOL0     C22904   3.582   1.707  11.051 -0.8415 -0.3097  0.6939
  911MOL0     C22905   3.708   1.258  11.050  0.1350  0.3858 -0.1529
  911MOL0     C22906   3.736   1.136  11.108 -0.2681 -0.1829 -0.3671
  911MOL0     C22907   3.779   1.038  11.020  0.4229  0.0421 -0.3274
  911MOL0     C22908   3.794   1.053  10.877  0.4939  0.6545  0.5495
  911MOL0     O22909   3.830   0.949  10.792  0.3413 -0.0754 -0.6781
  911MOL0     C22910   3.879   0.817  10.840 -0.6794 -0.1998 -0.3343
  911MOL0     C22911   3.750   0.728  10.864 -0.7177  0.4984  1.0721
  911MOL0     C22912   3.782   0.603  10.944 -0.4800  0.4890 -0.9490
  911MOL0     C22913   3.774   0.623  11.098 -0.2174  0.0960 -0.1684
  911MOL0     C22914   3.846   0.516  11.163  0.7126  0.7168 -0.5144
  911MOL0     C22915   3.902   0.426  11.215 -0.1404 -0.7871  0.0063
  911MOL0     C22916   3.776   1.176  10.827  1.7288  0.0949 -0.5178
  911MOL0     C22917   3.722   1.276  10.912 -0.0625  0.1784  0.2311
  911MOL0     H22918   3.657   1.541  11.329  0.2026 -0.8819 -0.0476
  911MOL0     H22919   3.532   1.740  11.431 -1.3646  1.3248  0.7019
  911MOL0     H22920   3.608   2.060  11.288  0.2621 -3.1940 -0.3128
  911MOL0     H22921   3.480   2.105  11.181  0.6401 -1.7491 -1.3158
  911MOL0     H22922   3.334   2.158  11.382 -0.5516 -0.5936  0.2298
  911MOL0     H22923   3.486   2.159  11.476  0.3885  1.1958  0.3231
  911MOL0     H22924   3.570   2.315  11.302  0.3980 -0.3922  1.5147
  911MOL0     H22925   3.404   2.332  11.239 -0.0056 -0.6886 -0.5942
  911MOL0     H22926   3.338   2.415  11.480  0.8798 -1.1384  1.7443
  911MOL0     H22927   3.503   2.400  11.526 -0.9979  2.5412  2.1586
  911MOL0     H22928   3.504   2.543  11.284 -1.3739 -1.7368  0.2891
  911MOL0     H22929   3.368   2.616  11.372 -0.7783 -1.0177 -1.1797
  911MOL0     H22930   3.499   2.616  11.585  2.1139  0.8026  2.0554
  911MOL0     H22931   3.636   2.566  11.493 -0.4241  1.4057 -1.9641
  911MOL0     H22932   3.517   2.821  11.412 -1.0635 -0.7945  1.6803
  911MOL0     H22933   3.608   2.819  11.557  0.2015  3.2452 -1.5304
  911MOL0     H22934   3.743   2.888  11.369  0.8469 -0.3358 -1.9744
  911MOL0     H22935   3.701   2.734  11.276  2.1052 -1.3787 -0.6234
  911MOL0     H22936   3.809   2.507  11.407  1.3800  0.2146 -3.4118
  911MOL0     H22937   4.124   2.418  11.433  1.0056 -0.2413  0.5780
  911MOL0     H22938   4.178   2.497  11.574  0.3980 -0.3885 -2.3118
  911MOL0     H22939   3.917   2.362  11.569  0.0864 -0.1289  0.3489
  911MOL0     H22940   4.013   2.417  11.712  0.8898  2.2335 -1.2631
  911MOL0     H22941   4.008   2.177  11.702 -3.0582  2.9967 -1.0279
  911MOL0     H22942   4.170   2.240  11.710  0.6219 -0.1604 -0.9711
  911MOL0     H22943   4.187   2.056  11.550 -1.9379 -1.5941 -0.8030
  911MOL0     H22944   4.210   2.209  11.463  0.1028  2.1006  3.0466
  911MOL0     H22945   4.251   2.040  11.330  0.1855 -2.6150  1.6508
  911MOL0     H22946   4.317   1.933  11.001  2.1945 -2.0073  0.4958
  911MOL0     H22947   4.388   1.957  11.158 -0.8380  0.2250  0.2778
  911MOL0     H22948   4.335   1.802  11.126 -0.0827 -0.5751 -1.0087
  911MOL0     H22949   3.996   1.528  10.920 -2.3983 -2.6291 -0.7014
  911MOL0     H22950   3.956   1.372  10.735 -1.8555  0.1493  0.2025
  911MOL0     H22951   3.686   1.509  10.376  0.3813  0.7551 -1.8936
  911MOL0     H22952   3.872   1.532  10.376 -0.3106 -0.7105 -3.6324
  911MOL0     H22953   3.795   1.383  10.191  1.7723  1.2435 -0.2303
  911MOL0     H22954   3.897   1.315  10.319  0.9896  1.9648 -2.2624
  911MOL0     H22955   3.601   1.275  10.270 -1.7339 -2.6928  0.9390
  911MOL0     H22956   3.683   1.186  10.393 -2.9697 -2.6656 -1.4430
  911MOL0     H22957   3.790   1.155  10.106 -0.6305 -2.0332 -1.1777
  911MOL0     H22958   3.794   1.060  10.264 -0.7567 -2.7337 -2.4045
  911MOL0     H22959   3.544   1.106  10.082  1.3366 -0.8492 -0.7172
  911MOL0     H22960   3.553   1.008  10.229 -0.3800 -3.3082 -1.6445
  911MOL0     H22961   3.739   0.942   9.994  0.1905 -1.5253  0.5524
  911MOL0     H22962   3.689   0.845  10.123  3.1923  2.2463 -0.2714
  911MOL0     H22963   3.504   0.961   9.896  2.6639  0.6792 -0.6073
  911MOL0     H22964   3.452   0.858  10.028 -1.1367  0.6236 -1.4345
  911MOL0     H22965   3.488   0.736   9.817 -2.2474 -1.3500  4.3658
  911MOL0     H22966   3.598   0.675   9.937  0.8167  0.3757  0.9300
  911MOL0     H22967   3.738   1.691  10.535  1.6588  0.1275 -1.7016
  911MOL0     H22968   3.802   1.843  10.706 -0.3306  0.0082  1.2098
  911MOL0     H22969   3.841   1.910  11.116 -0.0171  0.0226 -0.8437
  911MOL0     H22970   3.836   2.048  11.309  1.2079  2.4296 -0.1193
  911MOL0     H22971   3.505   1.911  11.035  1.1404  1.5815  1.2010
  911MOL0     H22972   3.592   1.691  10.944  1.8736  0.7927  0.7155
  911MOL0     H22973   3.719   1.123  11.214 -1.0886  1.6683 -0.2207
  911MOL0     H22974   3.789   0.944  11.074 -3.1006  0.4726  1.3065
  911MOL0     H22975   3.946   0.769  10.769  1.2628 -0.5618  1.6090
  911MOL0     H22976   3.922   0.832  10.940 -1.8397 -2.0358  0.5056
  911MOL0     H22977   3.720   0.711  10.760 -1.5118  0.1766  1.3502
  911MOL0     H22978   3.673   0.784  10.917  0.9875  2.2346  1.8779
  911MOL0     H22979   3.877   0.561  10.910 -1.0939 -0.9134 -0.9958
  911MOL0     H22980   3.714   0.520  10.923  0.8416 -0.7272 -0.5888
  911MOL0     H22981   3.675   0.643  11.138 -0.3186  2.7486 -1.5177
  911MOL0     H22982   3.839   0.711  11.107  1.4099 -0.9453 -1.2273
  911MOL0     H22983   3.948   0.358  11.284  0.4898 -0.0129  0.3632
  911MOL0     H22984   3.768   1.192  10.720  0.0637  4.0896  0.0297
  911MOL0     H22985   3.691   1.372  10.871  1.5133 -0.0953 -1.7910
  912MOL0     O22986   9.806   3.394   2.437 -0.0230 -0.2212  0.1999
  912MOL0     C22987   9.924   3.346   2.426 -0.5253 -0.2327 -0.2748
  912MOL0     O22988   9.956   3.225   2.363 -0.2119 -0.3919  0.0254
  912MOL0     C22989   9.865   3.148   2.297 -0.2281  0.3678  0.2214
  912MOL0     C22990   9.859   3.016   2.333  1.2613  0.7514  0.4991
  912MOL0     C22991   9.774   2.925   2.269  0.0747 -0.6311 -0.1400
  912MOL0     C22992   9.687   2.976   2.170  0.9100  0.8113  0.7177
  912MOL0     O22993   9.590   2.882   2.118  0.3556 -0.5417 -0.1298
  912MOL0     C22994   9.446   2.912   2.113 -1.6853 -0.5850 -0.1539
  912MOL0     C22995   9.405   2.946   1.969 -1.0357  0.1399  0.1706
  912MOL0     C22996   9.310   3.057   1.949 -0.6621 -0.4861 -0.0026
  912MOL0     C22997   9.264   3.065   1.806  0.4301  0.2533  0.2358
  912MOL0     C22998   9.152   3.163   1.779 -0.4632  0.7961 -0.1825
  912MOL0     C22999   9.039   3.175   1.885 -0.5667  0.2541 -0.5377
  912MOL0     C23000   8.917   3.256   1.848 -0.1510  0.0516 -0.7330
  912MOL0     C23001   8.814   3.243   1.965 -0.6701 -0.0606 -0.3138
  912MOL0     N23002   8.679   3.224   1.912 -0.6398 -0.1825  0.3030
  912MOL0     C23003   8.596   3.112   1.939 -0.0937 -0.6235  0.2570
  912MOL0     C23004   8.498   3.137   1.846  0.4575  0.9421  0.8221
  912MOL0     C23005   8.394   3.033   1.813  0.1664 -0.2829 -0.0415
  912MOL0     C23006   8.419   2.958   1.677  0.5483  0.5655 -0.3956
  912MOL0     C23007   8.394   3.057   1.560 -0.7017  0.2327 -0.6091
  912MOL0     C23008   8.375   2.972   1.443 -0.3940  0.3343  0.2578
  912MOL0     O23009   8.250   2.906   1.458 -0.4350  0.1228  0.5278
  912MOL0     C23010   8.151   2.924   1.358  0.5176  0.2144 -0.0997
  912MOL0     C23011   8.083   2.820   1.298 -0.0238  0.3880  0.1586
  912MOL0     C23012   7.980   2.840   1.210 -0.0936  0.8306 -0.1573
  912MOL0     C23013   7.902   2.724   1.179  0.4356  0.5791 -0.0652
  912MOL0     C23014   7.940   2.972   1.168  1.0910 -0.0824 -0.8964
  912MOL0     C23015   7.841   3.005   1.067  0.0382  0.3133 -0.2068
  912MOL0     O23016   7.844   3.130   1.014  0.5933  0.2779  0.2486
  912MOL0     C23017   7.753   3.164   0.911 -0.1490  0.7430 -0.0368
  912MOL0     C23018   7.776   3.122   0.777  0.4524  0.3560 -0.6401
  912MOL0     C23019   7.697   3.179   0.672 -0.8090  0.5901 -0.8920
  912MOL0     C23020   7.590   3.264   0.703  0.3077  0.4861  0.1938
  912MOL0     O23021   7.528   3.347   0.607  0.1326  0.6087 -0.4499
  912MOL0     C23022   7.577   3.348   0.473  0.3749 -0.4420  0.4371
  912MOL0     C23023   7.551   3.492   0.413  0.0483  0.0523 -0.8648
  912MOL0     C23024   7.591   3.521   0.269  0.0192  0.0638  0.0981
  912MOL0     C23025   7.728   3.487   0.212  0.1408  1.0603 -0.0116
  912MOL0     C23026   7.743   3.339   0.170  0.2190 -0.3859  0.3515
  912MOL0     C23027   7.677   3.303   0.038  0.2384  0.9007 -0.1371
  912MOL0     C23028   7.698   3.152   0.015  0.0776 -0.0180 -1.2382
  912MOL0     C23029   7.641   3.105  -0.112  0.6031  0.0573  0.3781
  912MOL0    Cl23030   7.735   3.167  -0.246 -0.1302 -0.2886  0.1626
  912MOL0     C23031   7.563   3.291   0.840 -0.0305 -0.7862  0.7080
  912MOL0     C23032   7.644   3.238   0.942  0.6649 -0.7126  0.0391
  912MOL0     O23033   7.754   2.925   1.054  0.3942 -0.2119 -0.2986
  912MOL0     C23034   8.016   3.079   1.215  0.7904  0.2430  0.1555
  912MOL0     C23035   8.115   3.048   1.309 -0.2799 -0.4976 -0.1457
  912MOL0     N23036   8.508   3.255   1.777  0.0512  0.0574  0.5972
  912MOL0     N23037   8.620   3.309   1.822  0.5473 -0.1751 -0.9728
  912MOL0     C23038   9.687   3.112   2.137  0.3728  0.6320 -0.4457
  912MOL0     C23039   9.773   3.197   2.199  0.7402 -0.6555  0.1663
  912MOL0     C23040  10.037   3.411   2.493  0.0579  0.0688 -0.0877
  912MOL0     C23041  10.168   3.370   2.492 -0.1281 -0.0354  0.9304
  912MOL0     C23042  10.266   3.443   2.562  0.2714 -0.4535  0.4007
  912MOL0     C23043  10.235   3.566   2.615  0.1805 -0.5548 -1.0849
  912MOL0     O23044  10.329   3.646   2.680 -0.1584  0.5733  0.1272
  912MOL0     C23045  10.469   3.615   2.672 -0.1513  0.3088  0.3513
  912MOL0     C23046  10.524   3.676   2.537  0.3493 -0.2800  0.6822
  912MOL0     C23047  10.675   3.655   2.527  0.4471  0.1697  0.2709
  912MOL0     C23048  10.718   3.502   2.541 -0.0879  0.3483  0.9567
  912MOL0     C23049  10.862   3.507   2.515  0.4082 -0.6306 -0.1727
  912MOL0     C23050  10.975   3.514   2.467  0.1879  0.5930  0.2032
  912MOL0     C23051  10.107   3.609   2.618  0.1725 -0.3150  0.3433
  912MOL0     C23052  10.009   3.526   2.562  0.2468  0.5579 -0.9386
  912MOL0     H23053   9.932   2.974   2.400 -1.1506 -2.2722  1.4665
  912MOL0     H23054   9.771   2.821   2.298 -2.0078 -0.0999  1.8722
  912MOL0     H23055   9.382   2.827   2.139  0.3725 -2.3386 -0.5693
  912MOL0     H23056   9.416   2.997   2.176 -4.0924  1.8495 -4.1355
  912MOL0     H23057   9.499   2.977   1.922 -1.0996  2.8018  1.6145
  912MOL0     H23058   9.370   2.856   1.918  0.0899 -0.3869  0.2964
  912MOL0     H23059   9.233   3.050   2.026 -1.3704 -3.8116 -0.8297
  912MOL0     H23060   9.369   3.146   1.972  0.1538 -1.2530  0.9442
  912MOL0     H23061   9.352   3.095   1.748 -0.0386 -1.6253 -1.5899
  912MOL0     H23062   9.232   2.966   1.772  3.2648  0.4304 -3.5853
  912MOL0     H23063   9.203   3.259   1.767 -0.8226  0.8912 -1.0575
  912MOL0     H23064   9.113   3.143   1.678  1.9359 -0.7464 -0.8714
  912MOL0     H23065   9.011   3.073   1.911  1.6538 -0.7832 -1.9115
  912MOL0     H23066   9.085   3.216   1.975  2.5520 -0.8191 -1.5328
  912MOL0     H23067   8.947   3.358   1.822  0.4676 -0.5567 -2.5479
  912MOL0     H23068   8.861   3.227   1.759 -2.0392 -0.6928  0.6110
  912MOL0     H23069   8.820   3.342   2.012  1.2028  0.3825 -1.3811
  912MOL0     H23070   8.838   3.163   2.037  0.5593 -0.7379 -1.4258
  912MOL0     H23071   8.613   3.020   1.994 -1.0311 -0.7484  0.3394
  912MOL0     H23072   8.393   2.952   1.886  1.1961 -2.3001 -2.1403
  912MOL0     H23073   8.300   3.086   1.794  0.5202  0.2319 -0.3968
  912MOL0     H23074   8.342   2.880   1.683  1.1526  0.0872  2.0067
  912MOL0     H23075   8.519   2.916   1.684 -0.4075 -1.8551 -0.1203
  912MOL0     H23076   8.482   3.122   1.546  0.7408 -1.1537  1.4335
  912MOL0     H23077   8.308   3.123   1.576  0.9177  2.3721 -0.1783
  912MOL0     H23078   8.455   2.898   1.437  0.7446  1.1875  3.2257
  912MOL0     H23079   8.379   3.042   1.358 -0.8415 -1.6923 -1.5158
  912MOL0     H23080   8.108   2.717   1.321 -4.3012 -1.3220 -1.7674
  912MOL0     H23081   7.919   2.697   1.074 -0.2273 -0.8264  0.1614
  912MOL0     H23082   7.943   2.631   1.221  0.1371  0.8865  0.9227
  912MOL0     H23083   7.797   2.735   1.206 -0.6379 -1.4046 -2.9652
  912MOL0     H23084   7.862   3.056   0.776 -0.4509 -1.2374  3.4570
  912MOL0     H23085   7.735   3.143   0.577  0.4489  1.1507 -0.6197
  912MOL0     H23086   7.686   3.340   0.475  0.6510  2.3332  2.8649
  912MOL0     H23087   7.531   3.273   0.408  0.1971  1.4880 -1.7936
  912MOL0     H23088   7.444   3.517   0.417  0.2530  1.5745 -3.0829
  912MOL0     H23089   7.610   3.559   0.476  0.8239 -1.5621  0.1894
  912MOL0     H23090   7.564   3.626   0.251 -0.2997  0.3599  2.1457
  912MOL0     H23091   7.517   3.464   0.212  1.9784  0.5066 -3.1432
  912MOL0     H23092   7.747   3.552   0.126  4.7389 -0.1014 -0.1842
  912MOL0     H23093   7.800   3.503   0.293  0.3914  0.6223 -0.1453
  912MOL0     H23094   7.718   3.272   0.252 -2.6657  0.9212  0.6774
  912MOL0     H23095   7.847   3.317   0.146 -0.1013  0.7488 -2.5663
  912MOL0     H23096   7.570   3.326   0.037  0.4641  2.1337  0.9803
  912MOL0     H23097   7.729   3.355  -0.043 -2.3695  1.0130 -1.8274
  912MOL0     H23098   7.641   3.089   0.084  0.2336  0.1408 -0.9628
  912MOL0     H23099   7.797   3.114   0.040 -0.6833 -1.3262 -0.0392
  912MOL0     H23100   7.539   3.144  -0.120  1.0441  0.8736 -1.9089
  912MOL0     H23101   7.637   2.996  -0.118  1.5419  0.0737 -1.1054
  912MOL0     H23102   7.482   3.354   0.876  2.2927  5.2146 -3.0577
  912MOL0     H23103   7.626   3.265   1.045  1.5150  0.4526 -0.0996
  912MOL0     H23104   8.001   3.182   1.182  2.0035 -0.2048 -1.9329
  912MOL0     H23105   8.185   3.125   1.338 -0.3658  0.4276 -2.2009
  912MOL0     H23106   9.625   3.160   2.062  1.4444  0.8378 -1.2356
  912MOL0     H23107   9.753   3.301   2.178 -2.1582 -1.3940 -1.2770
  912MOL0     H23108  10.190   3.290   2.422 -0.0599  0.5572  0.2599
  912MOL0     H23109  10.370   3.412   2.556  0.9793  1.9297 -0.9496
  912MOL0     H23110  10.515   3.660   2.760  0.1819  2.8968 -1.0411
  912MOL0     H23111  10.492   3.508   2.673 -0.5968  0.2099  0.0743
  912MOL0     H23112  10.502   3.783   2.541 -0.0523 -0.3785  3.4162
  912MOL0     H23113  10.477   3.635   2.448 -0.6807 -1.9556  1.9368
  912MOL0     H23114  10.711   3.699   2.621  0.2306  1.0345 -0.0422
  912MOL0     H23115  10.709   3.715   2.443  1.2595 -0.0216  0.4542
  912MOL0     H23116  10.669   3.442   2.464  1.3168  0.5687 -0.1470
  912MOL0     H23117  10.686   3.466   2.640 -0.7922 -1.2423  0.1772
  912MOL0     H23118  11.074   3.517   2.427  0.4713  2.7532  0.9833
  912MOL0     H23119  10.084   3.693   2.682 -0.2528  1.4172 -1.9756
  912MOL0     H23120   9.906   3.555   2.580  0.7033  1.6032  0.1115
  913MOL0     O23121   7.872   1.083   1.467  0.1499  0.3433  0.2538
  913MOL0     C23122   7.874   1.065   1.347 -0.2730  0.1722 -0.4711
  913MOL0     O23123   7.962   0.981   1.284 -0.5783 -0.4679  0.0597
  913MOL0     C23124   8.062   0.920   1.356  0.5807 -1.0121  0.3306
  913MOL0     C23125   8.024   0.823   1.452  0.2770 -0.1553  0.7158
  913MOL0     C23126   8.125   0.755   1.518 -0.5080  0.6443  0.5412
  913MOL0     C23127   8.260   0.764   1.473  0.4570  0.1930  0.0200
  913MOL0     O23128   8.363   0.704   1.543  0.0645 -0.6445  0.7782
  913MOL0     C23129   8.367   0.728   1.688 -0.4433  0.2828  0.6989
  913MOL0     C23130   8.474   0.637   1.752  0.1800  0.6733  0.0308
  913MOL0     C23131   8.468   0.488   1.708 -0.2854  0.3959  0.4125
  913MOL0     C23132   8.333   0.425   1.735 -0.9395  0.4698 -0.2834
  913MOL0     C23133   8.306   0.388   1.879 -1.0945 -0.3347 -0.4950
  913MOL0     C23134   8.187   0.287   1.899  0.1041 -0.8927 -0.7595
  913MOL0     C23135   8.228   0.136   1.880  0.2866 -0.3180  0.0626
  913MOL0     C23136   8.112   0.051   1.931  0.0797 -0.1982  0.3208
  913MOL0     N23137   8.144  -0.094   1.912 -0.6113 -0.6160  0.1336
  913MOL0     C23138   8.108  -0.187   1.814  0.1404 -0.1031  0.2583
  913MOL0     C23139   8.190  -0.297   1.836  0.9124 -0.0338  0.2323
  913MOL0     C23140   8.201  -0.421   1.761 -0.3551 -0.5243 -0.9757
  913MOL0     C23141   8.293  -0.394   1.641 -0.5555  0.0655  0.0285
  913MOL0     C23142   8.297  -0.530   1.559 -1.1671 -1.1691  0.6686
  913MOL0     C23143   8.184  -0.519   1.449 -0.1810  0.3250 -0.3353
  913MOL0     O23144   8.212  -0.410   1.358  0.3544  0.3639 -0.2052
  913MOL0     C23145   8.113  -0.333   1.294 -0.2241 -0.2547 -0.8954
  913MOL0     C23146   8.005  -0.388   1.245  0.1006 -0.0876 -0.0308
  913MOL0     C23147   7.899  -0.315   1.198  0.9502 -0.4192  0.2668
  913MOL0     C23148   7.786  -0.401   1.158 -1.0343  0.5899 -0.0959
  913MOL0     C23149   7.908  -0.175   1.174  0.2703  0.3732  0.8526
  913MOL0     C23150   7.816  -0.090   1.097  0.2467 -1.0380  0.0838
  913MOL0     O23151   7.721  -0.158   1.022  1.0170 -0.7608 -0.3642
  913MOL0     C23152   7.622  -0.092   0.950  0.5687  0.1334  0.2839
  913MOL0     C23153   7.615   0.048   0.913 -0.1412  0.4825 -0.0243
  913MOL0     C23154   7.510   0.105   0.845  0.2891  0.8168  0.2314
  913MOL0     C23155   7.399   0.022   0.812 -0.4451 -1.0415 -0.1658
  913MOL0     O23156   7.284   0.063   0.758  0.3810 -0.0438 -0.2722
  913MOL0     C23157   7.266   0.209   0.737  0.5257  0.5451 -0.2119
  913MOL0     C23158   7.125   0.232   0.670  0.1093 -0.3597 -0.0227
  913MOL0     C23159   7.096   0.377   0.636  0.3207  0.3620 -0.2356
  913MOL0     C23160   6.949   0.399   0.583 -0.0890  0.6578  0.7718
  913MOL0     C23161   6.916   0.301   0.471 -0.5353  0.2002  0.4707
  913MOL0     C23162   6.972   0.339   0.325 -0.4166  0.2179  0.7168
  913MOL0     C23163   6.883   0.272   0.221 -0.0659 -0.1932 -0.3276
  913MOL0     C23164   6.936   0.129   0.192  0.0280  1.2665 -0.4113
  913MOL0    Cl23165   6.832   0.057   0.071 -0.0401 -0.0861  0.3752
  913MOL0     C23166   7.405  -0.112   0.848  0.8856 -0.4537  0.5686
  913MOL0     C23167   7.516  -0.176   0.908  0.8318 -0.1189  0.7438
  913MOL0     O23168   7.831   0.035   1.108  0.0463 -0.1588 -0.4029
  913MOL0     C23169   8.032  -0.121   1.208 -0.4357  0.7153 -0.2252
  913MOL0     C23170   8.137  -0.195   1.277  0.8179 -0.0319 -0.2745
  913MOL0     N23171   8.270  -0.272   1.941 -0.5766  0.8518 -0.4008
  913MOL0     N23172   8.245  -0.152   1.981  0.4280  0.3604 -0.3464
  913MOL0     C23173   8.290   0.840   1.355 -0.8237 -0.2709 -0.0451
  913MOL0     C23174   8.190   0.927   1.308 -1.0352  0.7572  0.5346
  913MOL0     C23175   7.773   1.136   1.268  0.1271  0.1227  0.6707
  913MOL0     C23176   7.752   1.099   1.133 -0.1146 -0.0628 -0.3488
  913MOL0     C23177   7.677   1.186   1.057  0.4382 -0.2994  0.1884
  913MOL0     C23178   7.626   1.313   1.096 -0.4334 -0.3873 -0.0002
  913MOL0     O23179   7.559   1.406   1.016  0.4973 -0.7894 -0.1111
  913MOL0     C23180   7.487   1.350   0.906 -0.0194  0.1150  0.3093
  913MOL0     C23181   7.432   1.451   0.806  0.5063 -0.1526 -0.1541
  913MOL0     C23182   7.324   1.550   0.873  0.2696 -0.5739  0.7228
  913MOL0     C23183   7.309   1.677   0.791  0.3495 -0.2279  0.4700
  913MOL0     C23184   7.262   1.651   0.655  0.3627 -0.8821  0.0242
  913MOL0     C23185   7.224   1.650   0.539 -0.1096  0.1546  0.1833
  913MOL0     C23186   7.649   1.341   1.231 -0.8875  0.7067  0.2525
  913MOL0     C23187   7.717   1.254   1.315 -0.9899  0.6296  0.1414
  913MOL0     H23188   7.918   0.808   1.468 -0.9387  1.6813 -3.8938
  913MOL0     H23189   8.093   0.700   1.606 -1.5575 -0.1000 -0.2729
  913MOL0     H23190   8.403   0.829   1.709  4.1136 -1.4184  2.2814
  913MOL0     H23191   8.270   0.705   1.734 -0.8398 -0.4333 -0.4473
  913MOL0     H23192   8.575   0.672   1.729  1.0285 -3.1565 -3.1300
  913MOL0     H23193   8.455   0.634   1.859  1.3646  0.6513  0.2577
  913MOL0     H23194   8.491   0.490   1.601  1.7662 -2.9389  0.6648
  913MOL0     H23195   8.545   0.424   1.753 -1.3769 -1.1561  0.1320
  913MOL0     H23196   8.250   0.486   1.697 -0.1618 -0.3147 -3.5474
  913MOL0     H23197   8.336   0.332   1.678  0.7108 -1.3474  2.5683
  913MOL0     H23198   8.403   0.364   1.924 -1.9605 -1.2608  0.9611
  913MOL0     H23199   8.271   0.470   1.944 -1.0814  0.3420 -1.3241
  913MOL0     H23200   8.146   0.293   2.000 -0.6133 -0.6521 -1.0581
  913MOL0     H23201   8.117   0.330   1.827 -1.9719  0.0061  1.6802
  913MOL0     H23202   8.249   0.111   1.775  0.7984 -1.5711  0.4448
  913MOL0     H23203   8.322   0.118   1.933  0.9408  2.5616  0.0669
  913MOL0     H23204   8.017   0.076   1.882  1.2955  1.6356 -1.2175
  913MOL0     H23205   8.107   0.074   2.038  1.9946  1.2607  0.1384
  913MOL0     H23206   8.027  -0.182   1.743 -1.7557  0.0346  2.3341
  913MOL0     H23207   8.240  -0.491   1.835  2.0997  2.1312  0.4301
  913MOL0     H23208   8.105  -0.454   1.720 -0.3711  0.8291 -2.1035
  913MOL0     H23209   8.389  -0.367   1.687 -0.0665  3.0755 -2.4164
  913MOL0     H23210   8.264  -0.303   1.588 -2.2029 -1.3855 -1.6852
  913MOL0     H23211   8.276  -0.619   1.619  1.3439 -2.7078 -0.5789
  913MOL0     H23212   8.390  -0.538   1.502 -0.6700 -0.4687  1.3613
  913MOL0     H23213   8.090  -0.520   1.504  0.6575  0.8906  1.1932
  913MOL0     H23214   8.186  -0.608   1.385 -2.4314 -0.4725  0.6170
  913MOL0     H23215   8.013  -0.496   1.247 -2.9078 -0.3993  2.4678
  913MOL0     H23216   7.791  -0.409   1.049 -1.2409 -1.1330  0.0025
  913MOL0     H23217   7.795  -0.504   1.194 -1.7193 -0.3946 -2.5027
  913MOL0     H23218   7.685  -0.368   1.185 -0.8420 -0.5026  2.1595
  913MOL0     H23219   7.700   0.113   0.934 -2.1899  2.9556  1.2227
  913MOL0     H23220   7.518   0.208   0.813  0.6780 -0.0701 -2.9642
  913MOL0     H23221   7.282   0.272   0.824 -0.8714  1.4085 -0.5432
  913MOL0     H23222   7.341   0.238   0.662  3.0248  1.2962  2.4131
  913MOL0     H23223   7.121   0.172   0.578 -3.3761  2.8822 -2.2705
  913MOL0     H23224   7.049   0.199   0.741 -1.4872 -1.2215 -2.0165
  913MOL0     H23225   7.162   0.403   0.553  0.9882 -0.2846  0.0766
  913MOL0     H23226   7.113   0.433   0.729  1.1644 -2.0735  1.1598
  913MOL0     H23227   6.873   0.381   0.660 -2.6410  0.3312 -1.6738
  913MOL0     H23228   6.927   0.501   0.551 -1.3149  0.3832  0.6848
  913MOL0     H23229   6.808   0.312   0.469 -0.4713  0.7387 -1.2068
  913MOL0     H23230   6.948   0.200   0.497  4.7820  1.6225  0.7630
  913MOL0     H23231   6.973   0.447   0.309 -0.9848 -0.0648 -1.5933
  913MOL0     H23232   7.073   0.302   0.306 -0.3892  1.0471 -0.9214
  913MOL0     H23233   6.888   0.338   0.133  1.2305  1.0913  0.6568
  913MOL0     H23234   6.776   0.273   0.246 -0.4028 -2.6628 -1.3896
  913MOL0     H23235   6.929   0.064   0.280 -2.5474  1.7498 -0.1685
  913MOL0     H23236   7.037   0.124   0.152 -1.3045 -0.1179 -4.0250
  913MOL0     H23237   7.321  -0.170   0.812  1.3712 -0.4512 -0.6112
  913MOL0     H23238   7.516  -0.283   0.921 -1.1736 -0.1276  1.0170
  913MOL0     H23239   8.061  -0.018   1.188  0.4912  0.7723  1.2204
  913MOL0     H23240   8.224  -0.140   1.311 -0.5869 -0.6539  5.1085
  913MOL0     H23241   8.389   0.854   1.313 -0.1300 -1.3323  1.1347
  913MOL0     H23242   8.215   0.987   1.221 -0.6807  0.3105  0.3314
  913MOL0     H23243   7.799   1.015   1.083 -1.9998 -0.5282 -1.4089
  913MOL0     H23244   7.657   1.150   0.957 -0.1434 -2.8074  1.1198
  913MOL0     H23245   7.551   1.279   0.853 -0.4375  0.2447 -0.3802
  913MOL0     H23246   7.397   1.298   0.939 -0.1866  0.8178  0.9760
  913MOL0     H23247   7.407   1.404   0.711 -1.8360 -5.2929  2.5802
  913MOL0     H23248   7.519   1.512   0.781 -1.2778  1.7877 -1.9815
  913MOL0     H23249   7.357   1.570   0.976 -2.5706  2.3987  1.2140
  913MOL0     H23250   7.224   1.507   0.883 -1.6408  1.5584 -5.0839
  913MOL0     H23251   7.406   1.726   0.782 -0.4678  1.0838 -2.1778
  913MOL0     H23252   7.233   1.741   0.838  0.0659 -1.4373  1.7351
  913MOL0     H23253   7.186   1.645   0.439 -2.1707 -4.9473  0.9056
  913MOL0     H23254   7.618   1.433   1.280  1.5675  1.7280  0.0148
  913MOL0     H23255   7.732   1.278   1.420 -2.5930  0.2909  0.4776
  914MOL0     O23256   4.620   7.691   4.442  0.1691 -0.5544 -0.0316
  914MOL0     C23257   4.693   7.694   4.538  0.2142  0.3228 -0.2348
  914MOL0     O23258   4.660   7.764   4.658 -0.1816 -0.0486  0.2156
  914MOL0     C23259   4.538   7.808   4.681  0.6204 -0.6722 -1.1370
  914MOL0     C23260   4.476   7.912   4.612  0.1744  1.3459 -0.2858
  914MOL0     C23261   4.349   7.955   4.633 -0.1289 -0.1991 -0.9776
  914MOL0     C23262   4.272   7.906   4.740 -0.3261  0.3777  0.2559
  914MOL0     O23263   4.148   7.949   4.763  0.5713 -0.3943 -0.0356
  914MOL0     C23264   4.055   7.871   4.839 -0.2029  0.4360  0.1892
  914MOL0     C23265   3.914   7.930   4.856  0.4750  0.5122  0.9284
  914MOL0     C23266   3.895   8.085   4.890  0.1244  1.1869 -0.3005
  914MOL0     C23267   3.747   8.122   4.864 -0.7081 -0.3060 -0.0191
  914MOL0     C23268   3.725   8.277   4.904 -0.7240  0.2442 -0.6486
  914MOL0     C23269   3.700   8.286   5.059 -0.4639 -0.1578 -0.6341
  914MOL0     C23270   3.562   8.230   5.103  0.5477 -0.3471 -0.0309
  914MOL0     C23271   3.437   8.252   5.009  0.4687 -1.7788  0.1210
  914MOL0     N23272   3.330   8.180   5.083 -0.0192  0.1561 -0.3613
  914MOL0     C23273   3.279   8.049   5.067 -0.9851  0.0295  0.3815
  914MOL0     C23274   3.173   8.044   5.149  0.0598 -0.3888 -0.6242
  914MOL0     C23275   3.068   7.941   5.183  0.3743  0.6903  0.2700
  914MOL0     C23276   2.931   7.937   5.112 -0.0251  0.8765  0.5729
  914MOL0     C23277   2.875   8.076   5.074  0.0264  0.7334 -0.8135
  914MOL0     C23278   2.724   8.095   5.088 -0.3524  0.5379 -0.2708
  914MOL0     O23279   2.652   8.012   4.988  0.0760 -0.5212 -0.0821
  914MOL0     C23280   2.516   8.006   5.000  0.6075 -0.4689  0.6963
  914MOL0     C23281   2.430   8.110   5.051 -0.0506  0.2101 -1.1998
  914MOL0     C23282   2.292   8.094   5.041 -0.3903 -0.3131 -0.4895
  914MOL0     C23283   2.221   8.202   5.122  0.4146 -0.1166  0.6007
  914MOL0     C23284   2.234   7.978   4.978 -1.0882 -0.7944  0.0534
  914MOL0     C23285   2.086   7.968   4.952  0.0822 -0.1269  0.6965
  914MOL0     O23286   2.043   7.865   4.874  0.1039  0.5328  0.7452
  914MOL0     C23287   1.911   7.837   4.873 -0.2868 -0.3505 -0.0931
  914MOL0     C23288   1.838   7.812   4.996 -0.4118 -1.3214  0.1517
  914MOL0     C23289   1.712   7.788   4.998  0.4209 -0.5132  0.0076
  914MOL0     C23290   1.642   7.779   4.870 -0.6885 -0.1921 -0.4716
  914MOL0     O23291   1.516   7.738   4.877  0.2369 -0.6603  0.2309
  914MOL0     C23292   1.423   7.841   4.846  0.2050  0.2435 -0.8895
  914MOL0     C23293   1.283   7.783   4.829  0.5890  1.0967 -0.6275
  914MOL0     C23294   1.172   7.887   4.859 -0.4298 -0.8398 -0.0465
  914MOL0     C23295   1.185   8.008   4.766 -0.5281  0.2633 -0.0751
  914MOL0     C23296   1.084   8.114   4.805  0.5641 -0.0556 -0.8433
  914MOL0     C23297   1.099   8.224   4.700 -0.1668  0.1520 -0.4583
  914MOL0     C23298   1.025   8.351   4.750 -0.6293 -0.4057 -0.2705
  914MOL0     C23299   1.068   8.475   4.666 -0.9163  0.0022 -0.1157
  914MOL0    Cl23300   1.237   8.491   4.677 -0.0068  0.6287 -0.3430
  914MOL0     C23301   1.703   7.813   4.748 -0.8968  1.4608 -0.0860
  914MOL0     C23302   1.840   7.834   4.754 -0.1239 -0.2788  0.4666
  914MOL0     O23303   2.017   8.063   4.975  0.0954  0.2236  0.0121
  914MOL0     C23304   2.322   7.877   4.933  0.0000  0.5295  0.0263
  914MOL0     C23305   2.461   7.892   4.943  0.0925  1.3668  0.3929
  914MOL0     N23306   3.164   8.168   5.212  0.3976  0.1102  0.0260
  914MOL0     N23307   3.264   8.248   5.178  0.7892  0.1732  0.4025
  914MOL0     C23308   4.330   7.796   4.810  0.1647  0.1361 -1.1251
  914MOL0     C23309   4.459   7.748   4.781 -0.5046  0.1944 -0.6583
  914MOL0     C23310   4.828   7.620   4.533  0.2378 -0.3143  0.5079
  914MOL0     C23311   4.856   7.537   4.423  0.1721  0.1321 -0.9077
  914MOL0     C23312   4.979   7.469   4.420  0.2259  0.7316  0.5855
  914MOL0     C23313   5.069   7.488   4.531 -0.8934  0.5689  0.4556
  914MOL0     O23314   5.187   7.424   4.535 -0.4984  0.8333 -0.3507
  914MOL0     C23315   5.288   7.507   4.508  0.4029 -1.0105 -0.3078
  914MOL0     C23316   5.387   7.462   4.398  0.4840 -0.9801 -1.0366
  914MOL0     C23317   5.533   7.485   4.458 -0.5111 -0.1323 -0.5877
  914MOL0     C23318   5.651   7.480   4.357  0.6080  0.1537 -1.3302
  914MOL0     C23319   5.683   7.333   4.318 -0.4108 -0.5723 -0.5689
  914MOL0     C23320   5.695   7.218   4.285 -0.0049  1.1466  0.4341
  914MOL0     C23321   5.040   7.573   4.635  0.0029 -0.0231  0.0870
  914MOL0     C23322   4.916   7.631   4.636 -0.3203  0.1214  0.0833
  914MOL0     H23323   4.535   7.973   4.544 -0.5408  1.8142 -0.4923
  914MOL0     H23324   4.319   8.038   4.570 -0.0930  0.2331 -0.4363
  914MOL0     H23325   4.040   7.771   4.799  0.1038  0.0883  0.9400
  914MOL0     H23326   4.108   7.852   4.933  1.0307 -0.1642 -0.5990
  914MOL0     H23327   3.868   7.909   4.759 -0.0146 -2.1260  1.6526
  914MOL0     H23328   3.848   7.869   4.919 -0.0072  0.7586  0.6709
  914MOL0     H23329   3.934   8.093   4.993 -2.0512 -2.5047  0.9921
  914MOL0     H23330   3.947   8.150   4.819 -0.9181  0.3404 -1.8932
  914MOL0     H23331   3.720   8.119   4.758 -0.9892  1.4765 -0.0230
  914MOL0     H23332   3.683   8.056   4.923  0.9770 -0.9932  1.1314
  914MOL0     H23333   3.809   8.341   4.876 -1.0071  0.9286  0.0384
  914MOL0     H23334   3.645   8.324   4.846 -0.7680  0.3231 -0.5246
  914MOL0     H23335   3.779   8.223   5.099 -0.9475 -1.0916 -1.1103
  914MOL0     H23336   3.719   8.391   5.084  0.3101 -0.5116  0.3186
  914MOL0     H23337   3.565   8.124   5.132  0.0770 -0.4826 -0.4789
  914MOL0     H23338   3.544   8.290   5.192 -0.8880  3.4722 -2.6629
  914MOL0     H23339   3.456   8.213   4.909  1.8458 -0.6534 -0.0756
  914MOL0     H23340   3.425   8.360   4.992  1.4535 -1.5552  0.7925
  914MOL0     H23341   3.321   7.974   5.002  1.0423  1.4291  0.0052
  914MOL0     H23342   3.120   7.846   5.177  0.2953  0.5776  1.2828
  914MOL0     H23343   3.041   7.949   5.289 -2.2470  0.9106 -0.3388
  914MOL0     H23344   2.861   7.881   5.175 -1.0979  2.3397  0.7308
  914MOL0     H23345   2.930   7.879   5.019 -1.6176  0.0068  1.0840
  914MOL0     H23346   2.908   8.101   4.973  2.7454  3.7648  0.6564
  914MOL0     H23347   2.925   8.150   5.138  0.4683  1.8521 -2.3971
  914MOL0     H23348   2.697   8.201   5.075  0.7885  0.5743 -2.9689
  914MOL0     H23349   2.676   8.065   5.181  0.6767 -3.2903 -0.7970
  914MOL0     H23350   2.475   8.192   5.105 -2.6553 -0.4123  2.2156
  914MOL0     H23351   2.170   8.158   5.208  0.5237  1.7027  1.6379
  914MOL0     H23352   2.295   8.272   5.161  0.7276  1.7476 -2.8743
  914MOL0     H23353   2.157   8.274   5.070  0.0813 -0.1932  0.9029
  914MOL0     H23354   1.900   7.828   5.084 -0.9258 -1.9681  0.6417
  914MOL0     H23355   1.663   7.774   5.094 -2.7972  1.4743 -1.2140
  914MOL0     H23356   1.424   7.915   4.927 -4.7161 -0.4188  0.1028
  914MOL0     H23357   1.453   7.892   4.754 -3.9610 -1.1671 -3.3223
  914MOL0     H23358   1.273   7.767   4.721  0.1894 -1.0043 -0.3123
  914MOL0     H23359   1.280   7.688   4.882  3.5146  0.9478 -0.5608
  914MOL0     H23360   1.182   7.924   4.961  0.0423  2.4578 -1.1637
  914MOL0     H23361   1.070   7.848   4.849 -1.2843  0.6360  2.1711
  914MOL0     H23362   1.283   8.058   4.771 -0.5080  0.4080 -1.6388
  914MOL0     H23363   1.177   7.972   4.663 -2.1086  3.9569 -1.4074
  914MOL0     H23364   1.108   8.146   4.906  0.2027  2.2551 -1.4452
  914MOL0     H23365   0.985   8.069   4.791  0.1873  0.2492  0.7116
  914MOL0     H23366   1.203   8.239   4.672 -0.7423  0.9014 -2.3037
  914MOL0     H23367   1.055   8.180   4.610  0.3236  1.8607 -1.5719
  914MOL0     H23368   1.048   8.367   4.856 -2.1399 -2.4655  0.4267
  914MOL0     H23369   0.919   8.325   4.739 -0.2723 -1.1389 -2.6594
  914MOL0     H23370   1.016   8.565   4.703 -2.1175 -1.2279  1.3203
  914MOL0     H23371   1.039   8.464   4.561 -0.7877  1.8586 -0.3897
  914MOL0     H23372   1.667   7.816   4.646  0.2591  1.6597 -0.5039
  914MOL0     H23373   1.890   7.847   4.659  1.4382 -1.3406  1.1047
  914MOL0     H23374   2.287   7.793   4.873 -0.9943  1.9940 -1.5227
  914MOL0     H23375   2.525   7.819   4.895 -0.6451  0.8817  0.1421
  914MOL0     H23376   4.286   7.735   4.888  2.2795  1.2661  1.0804
  914MOL0     H23377   4.489   7.658   4.832 -0.5636  0.8347  0.5376
  914MOL0     H23378   4.795   7.524   4.334 -1.6879 -2.4053  0.6075
  914MOL0     H23379   5.007   7.395   4.345 -1.3410  0.0623  0.6166
  914MOL0     H23380   5.260   7.611   4.490  0.9175 -0.4433  1.8374
  914MOL0     H23381   5.342   7.532   4.600  1.8539  2.7175 -1.9730
  914MOL0     H23382   5.368   7.528   4.313  0.2609  0.8990  0.3867
  914MOL0     H23383   5.368   7.359   4.367  3.6006 -0.8162 -4.0370
  914MOL0     H23384   5.548   7.416   4.541  1.9767  2.4249  1.3173
  914MOL0     H23385   5.530   7.586   4.500  1.6591  0.3466 -1.4104
  914MOL0     H23386   5.737   7.529   4.403  1.1035 -2.5001  0.8241
  914MOL0     H23387   5.622   7.528   4.263 -0.9756  0.4833 -0.7108
  914MOL0     H23388   5.701   7.115   4.255 -0.8442  0.9532  0.8968
  914MOL0     H23389   5.110   7.597   4.714  1.6074 -1.4341 -0.8329
  914MOL0     H23390   4.885   7.687   4.724 -0.0126 -1.8110  1.4819
  915MOL0     O23391   6.375   1.998   9.214 -0.1595 -0.7842  0.0829
  915MOL0     C23392   6.486   2.053   9.207  0.2132 -0.0846  0.2015
  915MOL0     O23393   6.574   2.054   9.104  0.1844 -0.0311  0.0757
  915MOL0     C23394   6.548   2.001   8.981  0.1996  0.4330 -0.1237
  915MOL0     C23395   6.433   2.033   8.900 -0.5640 -0.8602 -0.9202
  915MOL0     C23396   6.419   1.985   8.774 -0.0409  0.1348  0.8807
  915MOL0     C23397   6.521   1.918   8.703 -0.3077 -0.2884 -0.2053
  915MOL0     O23398   6.506   1.901   8.570 -0.3857 -0.2467  0.5777
  915MOL0     C23399   6.596   1.799   8.513  1.0228 -0.0357  0.3743
  915MOL0     C23400   6.584   1.802   8.355 -0.4488  0.4881  0.5175
  915MOL0     C23401   6.561   1.662   8.299 -0.1090  0.7739  0.1546
  915MOL0     C23402   6.512   1.675   8.157 -0.3950 -0.3280  0.6451
  915MOL0     C23403   6.460   1.551   8.094 -0.0277 -0.1684 -0.3072
  915MOL0     C23404   6.368   1.561   7.970  0.3153  0.1591  0.1609
  915MOL0     C23405   6.220   1.594   8.004 -0.1577  0.7756  0.3813
  915MOL0     C23406   6.139   1.591   7.870 -0.4275  0.3555 -0.6301
  915MOL0     N23407   6.181   1.707   7.793 -0.0929 -0.3506  1.3203
  915MOL0     C23408   6.128   1.834   7.799  0.3719 -0.6606  0.5774
  915MOL0     C23409   6.187   1.901   7.697  0.0623 -0.7702 -0.1102
  915MOL0     C23410   6.174   2.050   7.665 -0.4111  0.8536  0.2865
  915MOL0     C23411   6.023   2.104   7.652 -0.4587 -0.7287 -1.2006
  915MOL0     C23412   5.969   2.117   7.505 -0.1040 -0.0885  0.9875
  915MOL0     C23413   5.827   2.171   7.512  0.0474 -0.4367  0.5743
  915MOL0     O23414   5.731   2.068   7.540 -0.7286  0.0716  0.4651
  915MOL0     C23415   5.597   2.098   7.543  0.0684  0.3474 -0.1572
  915MOL0     C23416   5.540   2.206   7.486 -0.1333  0.0805  0.0451
  915MOL0     C23417   5.405   2.241   7.487 -0.3605 -0.3222  0.0962
  915MOL0     C23418   5.356   2.370   7.425  0.1368  0.5505  0.2659
  915MOL0     C23419   5.318   2.156   7.553  1.0483 -0.2303 -0.1144
  915MOL0     C23420   5.172   2.182   7.557 -0.3101 -0.2550  0.3141
  915MOL0     O23421   5.127   2.255   7.661  0.7672  0.0446  0.6951
  915MOL0     C23422   4.991   2.271   7.684 -0.2713  0.6540 -0.0090
  915MOL0     C23423   4.931   2.230   7.801  0.1872 -0.1081  0.0827
  915MOL0     C23424   4.792   2.220   7.818  0.3771 -0.5398  0.2428
  915MOL0     C23425   4.710   2.280   7.714  0.3138  0.0208  1.1617
  915MOL0     O23426   4.572   2.291   7.712  0.3523  0.3625  0.1183
  915MOL0     C23427   4.502   2.231   7.823  0.4572 -0.2771 -0.0277
  915MOL0     C23428   4.357   2.254   7.814  0.8437 -0.0415  1.4958
  915MOL0     C23429   4.316   2.398   7.768 -1.1691  0.8492 -0.1091
  915MOL0     C23430   4.182   2.406   7.692 -0.3482  0.3580  0.9796
  915MOL0     C23431   4.063   2.351   7.781 -0.4280  0.4691  0.6891
  915MOL0     C23432   3.929   2.330   7.709 -0.5492  0.8674 -0.7355
  915MOL0     C23433   3.823   2.251   7.794  0.3006 -0.7788  0.5549
  915MOL0     C23434   3.689   2.248   7.729  1.4049  0.3020  0.1221
  915MOL0    Cl23435   3.677   2.120   7.606 -0.0125  0.1358 -0.0843
  915MOL0     C23436   4.769   2.325   7.605 -0.4900 -0.7188  0.2145
  915MOL0     C23437   4.903   2.317   7.590  0.2426 -0.1580 -0.4424
  915MOL0     O23438   5.101   2.122   7.478 -0.2966 -0.1794 -0.4067
  915MOL0     C23439   5.367   2.033   7.606 -0.0531 -0.8599 -0.3078
  915MOL0     C23440   5.504   2.011   7.605  0.1159 -0.5502  0.2107
  915MOL0     N23441   6.279   1.817   7.642  0.7300 -0.4467  0.0542
  915MOL0     N23442   6.269   1.701   7.695  0.0322  0.9410  0.5228
  915MOL0     C23443   6.630   1.883   8.774 -0.4893 -0.3383  0.4097
  915MOL0     C23444   6.642   1.924   8.912  0.2816  0.5475 -0.1062
  915MOL0     C23445   6.528   2.127   9.327  0.0642  0.3271 -0.6010
  915MOL0     C23446   6.444   2.124   9.442  0.2013  0.8290 -0.3793
  915MOL0     C23447   6.486   2.197   9.550  0.8743 -1.0945 -0.1952
  915MOL0     C23448   6.608   2.278   9.556 -0.2902  0.1690  0.6981
  915MOL0     O23449   6.653   2.339   9.665 -0.6040 -0.0194  0.4899
  915MOL0     C23450   6.794   2.355   9.676  0.0325 -0.7636  0.4702
  915MOL0     C23451   6.835   2.435   9.804 -0.0509  0.6338 -0.5675
  915MOL0     C23452   6.836   2.339   9.921 -0.6269 -0.1149 -0.2739
  915MOL0     C23453   6.873   2.415  10.045 -0.9698 -0.6999  0.1502
  915MOL0     C23454   7.000   2.480  10.049 -0.6484  0.3940 -0.9247
  915MOL0     C23455   7.114   2.520  10.040  0.1109 -0.7548  0.1485
  915MOL0     C23456   6.689   2.266   9.439 -0.5863  0.2711  0.7283
  915MOL0     C23457   6.653   2.189   9.327  0.4598  0.0794  0.2243
  915MOL0     H23458   6.346   2.078   8.946  0.6964  1.8778 -0.9732
  915MOL0     H23459   6.327   1.995   8.718  1.1578  1.9936 -0.9024
  915MOL0     H23460   6.701   1.826   8.527  0.9194  0.2027  0.6916
  915MOL0     H23461   6.572   1.699   8.548  0.6426  1.0342  3.4964
  915MOL0     H23462   6.504   1.869   8.322 -2.4551 -1.4695  1.2095
  915MOL0     H23463   6.683   1.837   8.323  0.0719 -0.3642  1.1644
  915MOL0     H23464   6.643   1.591   8.306  0.2003  0.9395 -1.4496
  915MOL0     H23465   6.480   1.623   8.362 -1.1119  0.8867 -1.0275
  915MOL0     H23466   6.440   1.756   8.148  1.2591  1.4680  2.4110
  915MOL0     H23467   6.596   1.712   8.097 -0.5847 -1.4759 -0.3468
  915MOL0     H23468   6.552   1.498   8.066  0.6312  0.8778 -0.1637
  915MOL0     H23469   6.403   1.498   8.171 -3.1625  0.7651 -1.7793
  915MOL0     H23470   6.419   1.623   7.896 -0.1460 -1.6227 -1.7366
  915MOL0     H23471   6.369   1.466   7.917 -0.7987  0.0682  0.2784
  915MOL0     H23472   6.173   1.521   8.070  0.1269 -0.4329 -0.7238
  915MOL0     H23473   6.217   1.696   8.045 -1.4175  2.3645 -3.2785
  915MOL0     H23474   6.030   1.589   7.885 -0.3698  0.4164 -0.1872
  915MOL0     H23475   6.162   1.506   7.805  0.8062  1.1001 -1.2020
  915MOL0     H23476   6.046   1.865   7.863 -0.1205  1.4223 -0.9487
  915MOL0     H23477   6.208   2.120   7.742 -3.8451  2.4243  0.5790
  915MOL0     H23478   6.243   2.057   7.581  1.1374  0.9204  1.5345
  915MOL0     H23479   6.031   2.200   7.702  3.3114 -1.9478  0.9512
  915MOL0     H23480   5.961   2.063   7.732 -0.3463  5.3168  2.5662
  915MOL0     H23481   5.971   2.021   7.453 -3.9300  0.1442  0.0869
  915MOL0     H23482   6.030   2.181   7.441 -1.1689 -0.5514 -0.5565
  915MOL0     H23483   5.799   2.222   7.419  2.5297 -1.2320 -0.7036
  915MOL0     H23484   5.824   2.245   7.594  3.6818 -0.5794  0.9813
  915MOL0     H23485   5.606   2.275   7.433 -0.0792 -1.4866 -2.0530
  915MOL0     H23486   5.322   2.430   7.510 -1.1144 -1.7639  1.5159
  915MOL0     H23487   5.438   2.432   7.388 -0.9138  4.2122  3.3967
  915MOL0     H23488   5.273   2.348   7.357 -0.8181 -0.4597  1.6882
  915MOL0     H23489   5.001   2.202   7.879 -0.6687 -1.3672  0.4295
  915MOL0     H23490   4.741   2.176   7.903 -1.5127  2.4431  0.8229
  915MOL0     H23491   4.517   2.123   7.819 -0.1380 -0.3939  0.7479
  915MOL0     H23492   4.536   2.275   7.917 -0.1030  1.8707 -0.7602
  915MOL0     H23493   4.301   2.186   7.748 -0.7338  0.0879  2.6405
  915MOL0     H23494   4.312   2.243   7.913 -0.1082 -1.4737  0.9338
  915MOL0     H23495   4.393   2.434   7.699 -0.2264  0.4237  0.6858
  915MOL0     H23496   4.319   2.465   7.854 -0.1056  3.0891 -1.7943
  915MOL0     H23497   4.162   2.512   7.676  2.1390  1.5691  4.7436
  915MOL0     H23498   4.177   2.344   7.602 -1.9197  2.6804 -0.6491
  915MOL0     H23499   4.047   2.409   7.872 -0.8611  0.3745  0.6780
  915MOL0     H23500   4.094   2.254   7.820  0.9205  1.2179  1.5670
  915MOL0     H23501   3.885   2.422   7.669  3.5473  2.2006 -2.7073
  915MOL0     H23502   3.954   2.264   7.626  2.0323  1.3007 -0.4086
  915MOL0     H23503   3.820   2.319   7.881  3.6426  0.9181 -0.5075
  915MOL0     H23504   3.852   2.153   7.833  3.5610  0.4793  1.6669
  915MOL0     H23505   3.658   2.340   7.678  0.9806 -1.2900 -2.6956
  915MOL0     H23506   3.611   2.231   7.803  0.9170  0.8121 -0.2619
  915MOL0     H23507   4.707   2.370   7.527 -0.3671 -4.2886 -2.1718
  915MOL0     H23508   4.953   2.343   7.497  1.9344 -1.5895  0.0033
  915MOL0     H23509   5.291   1.967   7.648 -0.7688  1.0042  1.5124
  915MOL0     H23510   5.548   1.924   7.653  2.9883 -0.5129 -1.9986
  915MOL0     H23511   6.710   1.831   8.721 -0.4960  2.5387 -2.7950
  915MOL0     H23512   6.739   1.917   8.961  0.1635 -1.0450 -0.0423
  915MOL0     H23513   6.347   2.077   9.443 -0.6827  2.5749 -0.9533
  915MOL0     H23514   6.409   2.215   9.624  0.5480 -2.8542 -0.0508
  915MOL0     H23515   6.845   2.259   9.671 -0.1716 -0.8008 -2.4432
  915MOL0     H23516   6.843   2.417   9.600 -0.7904 -1.2958 -0.5178
  915MOL0     H23517   6.764   2.515   9.825 -1.8536 -0.3348 -2.5911
  915MOL0     H23518   6.937   2.472   9.789 -0.0580 -0.5171 -4.7392
  915MOL0     H23519   6.902   2.253   9.904 -3.3697 -1.9066 -2.9867
  915MOL0     H23520   6.736   2.297   9.933 -1.4777  2.3671  2.3370
  915MOL0     H23521   6.881   2.349  10.132  2.1368  1.5040  1.7357
  915MOL0     H23522   6.790   2.485  10.062 -2.0143 -1.6040 -1.0252
  915MOL0     H23523   7.217   2.546  10.037 -0.4800  2.4101  2.2274
  915MOL0     H23524   6.786   2.315   9.437 -1.4142  2.3810  4.2268
  915MOL0     H23525   6.726   2.193   9.247  0.8894  1.4758  0.6424
  916MOL0     O23526   7.276   9.484   7.040 -0.1365  0.7846  0.1798
  916MOL0     C23527   7.266   9.435   6.931  0.4678  0.1168  0.4677
  916MOL0     O23528   7.241   9.301   6.910 -0.4750 -0.7555 -0.3401
  916MOL0     C23529   7.210   9.223   7.023 -0.0513 -0.3263  0.1492
  916MOL0     C23530   7.294   9.162   7.121 -0.4702  0.2412  1.1471
  916MOL0     C23531   7.244   9.086   7.218  0.0146 -0.4401 -0.5559
  916MOL0     C23532   7.109   9.073   7.243 -0.6581  0.3913  0.3231
  916MOL0     O23533   7.073   8.986   7.348 -0.3245 -0.3285  0.1470
  916MOL0     C23534   6.980   9.037   7.449 -0.0955  0.1628  0.0039
  916MOL0     C23535   7.047   9.113   7.558 -0.7935  0.9361 -0.3757
  916MOL0     C23536   7.109   9.009   7.668  0.8702 -0.6680  0.7547
  916MOL0     C23537   7.194   9.090   7.768  0.3268 -0.3549  0.6875
  916MOL0     C23538   7.313   9.017   7.822 -0.7149 -0.1398 -0.1711
  916MOL0     C23539   7.279   8.887   7.904  0.1197 -0.4304  0.4136
  916MOL0     C23540   7.404   8.837   7.971 -0.3643  0.4337  0.1567
  916MOL0     C23541   7.410   8.847   8.117 -0.9765  0.7478 -0.9025
  916MOL0     N23542   7.541   8.802   8.173  0.2162 -0.2797  0.0828
  916MOL0     C23543   7.570   8.796   8.304  0.5252 -0.0038  0.0377
  916MOL0     C23544   7.688   8.739   8.314 -0.4467  0.7470  0.5995
  916MOL0     C23545   7.748   8.687   8.444  0.4625  0.1128 -0.7885
  916MOL0     C23546   7.875   8.768   8.481 -0.1127  0.4164 -0.0836
  916MOL0     C23547   7.833   8.916   8.507  0.5178  0.6790  0.2529
  916MOL0     C23548   7.954   9.005   8.520 -0.2775  0.2412  0.6082
  916MOL0     O23549   8.056   8.956   8.611  0.0154  0.1162  0.2925
  916MOL0     C23550   8.179   9.011   8.601 -0.0868 -0.0613  0.0068
  916MOL0     C23551   8.200   9.158   8.590 -0.1656 -0.0157 -0.1243
  916MOL0     C23552   8.327   9.207   8.559  0.2248  0.8367 -0.0305
  916MOL0     C23553   8.325   9.355   8.538  0.4771  1.1724  0.4073
  916MOL0     C23554   8.440   9.117   8.536  0.0976  0.4633  0.0566
  916MOL0     C23555   8.576   9.163   8.503  0.1766  0.3503  0.6446
  916MOL0     O23556   8.664   9.069   8.484  0.6060 -0.0475 -0.9224
  916MOL0     C23557   8.801   9.066   8.496  0.6871 -0.1170  0.6483
  916MOL0     C23558   8.850   8.947   8.484  0.0888  1.0211  0.5289
  916MOL0     C23559   8.993   8.927   8.494  0.6787 -0.0175  0.1520
  916MOL0     C23560   9.075   9.031   8.519  0.2033 -0.6037 -0.0096
  916MOL0     O23561   9.207   9.007   8.536 -0.0296 -0.0417 -0.6352
  916MOL0     C23562   9.287   9.075   8.623 -0.6783  0.8325 -0.9200
  916MOL0     C23563   9.401   8.985   8.660 -1.0731  0.5018 -0.6448
  916MOL0     C23564   9.512   9.037   8.758  0.6244 -0.5056  0.8356
  916MOL0     C23565   9.444   9.057   8.891  0.6855 -0.8905  0.2931
  916MOL0     C23566   9.539   9.093   9.004 -0.0392 -0.8545 -0.4718
  916MOL0     C23567   9.604   9.223   8.975 -0.2065 -0.7321 -0.0008
  916MOL0     C23568   9.693   9.266   9.087 -0.1489 -0.4424 -0.0614
  916MOL0     C23569   9.719   9.420   9.084 -0.3887 -0.3472  0.4978
  916MOL0    Cl23570   9.864   9.446   8.981  0.2354  0.3065  0.0852
  916MOL0     C23571   9.022   9.158   8.532  0.3634 -0.2433 -0.4196
  916MOL0     C23572   8.880   9.176   8.520  0.0832  0.7216  0.0455
  916MOL0     O23573   8.607   9.281   8.494 -0.2235  0.5446 -0.4199
  916MOL0     C23574   8.408   8.978   8.528  1.4650  0.4138  0.7838
  916MOL0     C23575   8.282   8.930   8.565  1.0715  0.4046  0.1095
  916MOL0     N23576   7.753   8.749   8.193  0.2501 -0.2117  0.2641
  916MOL0     N23577   7.661   8.790   8.111 -0.4830  0.1607  0.4782
  916MOL0     C23578   7.021   9.128   7.158  0.7884 -0.2136 -0.7160
  916MOL0     C23579   7.069   9.209   7.053  0.2008 -0.7233 -0.3888
  916MOL0     C23580   7.287   9.524   6.816  0.1687 -0.1063 -0.6431
  916MOL0     C23581   7.285   9.476   6.682  1.2857 -0.5796 -0.2031
  916MOL0     C23582   7.306   9.563   6.573  0.4641 -0.9028  0.0561
  916MOL0     C23583   7.321   9.701   6.594 -1.1952  0.8156  0.0034
  916MOL0     O23584   7.322   9.784   6.486  0.0246 -0.3637  0.5022
  916MOL0     C23585   7.438   9.873   6.475 -0.1840  0.0656  0.5010
  916MOL0     C23586   7.579   9.808   6.517 -0.6864 -0.2502  0.2690
  916MOL0     C23587   7.611   9.708   6.408  1.1178  0.3279  0.1235
  916MOL0     C23588   7.731   9.619   6.441  0.4421 -1.3626  0.1457
  916MOL0     C23589   7.756   9.529   6.332  0.2730 -0.2004  0.1834
  916MOL0     C23590   7.775   9.439   6.247 -0.5884 -0.0760 -0.9591
  916MOL0     C23591   7.325   9.752   6.727 -0.9868 -0.4985  0.9387
  916MOL0     C23592   7.320   9.661   6.833  0.7220  0.8630  0.0785
  916MOL0     H23593   7.397   9.157   7.089 -0.5162 -2.4669  1.2231
  916MOL0     H23594   7.303   9.025   7.286 -1.9340 -2.1570 -0.3156
  916MOL0     H23595   6.914   9.110   7.400  0.3373  0.9046  0.5080
  916MOL0     H23596   6.918   8.956   7.490 -1.7537  0.4478 -1.7734
  916MOL0     H23597   7.125   9.178   7.515  0.3721  0.0431  0.3215
  916MOL0     H23598   6.975   9.182   7.603 -2.4532 -0.3635 -0.9710
  916MOL0     H23599   7.032   8.958   7.727 -3.5369  4.0089 -0.2333
  916MOL0     H23600   7.163   8.926   7.622 -1.2980 -1.0444 -1.3385
  916MOL0     H23601   7.236   9.174   7.711  1.4382 -0.9739  0.5610
  916MOL0     H23602   7.125   9.131   7.843  0.1104  0.2548  0.1644
  916MOL0     H23603   7.377   8.993   7.736 -1.2324  2.3977 -1.3555
  916MOL0     H23604   7.370   9.079   7.891  0.1770 -0.2469 -0.7972
  916MOL0     H23605   7.193   8.892   7.971 -2.3062  0.9559 -2.5608
  916MOL0     H23606   7.263   8.812   7.826  0.2204  0.0372 -0.0626
  916MOL0     H23607   7.416   8.729   7.954 -1.9843 -0.4783  3.8550
  916MOL0     H23608   7.493   8.877   7.922  0.7775  0.9059  2.4539
  916MOL0     H23609   7.332   8.784   8.159  0.6451  0.4076  1.8392
  916MOL0     H23610   7.390   8.946   8.159 -0.0409  0.7570 -0.4618
  916MOL0     H23611   7.500   8.823   8.382  1.4795  1.4341  0.4393
  916MOL0     H23612   7.678   8.698   8.527  2.8766  0.5054  1.3348
  916MOL0     H23613   7.785   8.584   8.441  2.5646  0.7852 -4.7925
  916MOL0     H23614   7.959   8.753   8.412 -1.0867 -3.8124 -0.6817
  916MOL0     H23615   7.911   8.728   8.576  0.8591 -0.6046 -0.8546
  916MOL0     H23616   7.782   8.930   8.603  3.2608  1.7903  1.6420
  916MOL0     H23617   7.779   8.963   8.424  1.7677 -0.4125 -1.2416
  916MOL0     H23618   7.922   9.090   8.582  2.3309  1.0121  1.0581
  916MOL0     H23619   7.983   9.041   8.421 -1.8202  1.2249  0.4774
  916MOL0     H23620   8.117   9.224   8.609 -0.9266 -0.9486 -0.1047
  916MOL0     H23621   8.412   9.382   8.598  0.2362  0.0198  1.3309
  916MOL0     H23622   8.342   9.386   8.435 -0.7701 -2.1286 -0.9472
  916MOL0     H23623   8.232   9.398   8.577 -1.4935 -3.4369  1.6197
  916MOL0     H23624   8.780   8.865   8.474 -0.6490  1.5101  1.4477
  916MOL0     H23625   9.025   8.823   8.499 -0.5160 -0.4370 -0.5194
  916MOL0     H23626   9.338   9.164   8.584  1.3308  0.0859 -0.1208
  916MOL0     H23627   9.232   9.090   8.717  0.0848 -3.7289  0.5056
  916MOL0     H23628   9.360   8.891   8.698 -0.9161  1.3409  1.8358
  916MOL0     H23629   9.451   8.971   8.564 -0.2257  1.5377 -0.3886
  916MOL0     H23630   9.542   9.135   8.721 -0.4649  0.0444  1.3803
  916MOL0     H23631   9.586   8.957   8.761 -0.1932 -1.3993 -1.0106
  916MOL0     H23632   9.362   9.127   8.873 -1.4587 -3.3832 -0.1884
  916MOL0     H23633   9.415   8.959   8.929 -0.4978  0.2115  2.4790
  916MOL0     H23634   9.628   9.030   9.017  3.8687  4.0821 -0.0100
  916MOL0     H23635   9.476   9.093   9.093 -1.3085 -0.2679 -1.3270
  916MOL0     H23636   9.663   9.208   8.884 -0.8291  1.4518 -0.8333
  916MOL0     H23637   9.530   9.302   8.959 -1.3969 -1.4520  1.6864
  916MOL0     H23638   9.788   9.211   9.083 -0.0205 -0.2310  0.0844
  916MOL0     H23639   9.636   9.236   9.174 -2.2398 -1.3599 -1.6634
  916MOL0     H23640   9.724   9.460   9.186  0.6605  0.6559  0.0813
  916MOL0     H23641   9.650   9.477   9.021  1.5324  0.3280 -1.1498
  916MOL0     H23642   9.081   9.249   8.540 -2.6821  2.2852 -3.6652
  916MOL0     H23643   8.840   9.277   8.515  2.0374  1.4961 -1.1809
  916MOL0     H23644   8.487   8.910   8.497  1.2671  0.3969  0.3122
  916MOL0     H23645   8.272   8.825   8.541  2.6641 -0.2449  2.0151
  916MOL0     H23646   6.916   9.108   7.175  0.6831  0.8272 -0.0497
  916MOL0     H23647   6.990   9.266   7.005  0.9281 -0.2804 -1.0834
  916MOL0     H23648   7.264   9.370   6.669 -0.4450 -0.5065  1.4526
  916MOL0     H23649   7.307   9.513   6.476  1.7490 -2.3687  0.7714
  916MOL0     H23650   7.446   9.909   6.372 -2.3510 -1.4285 -0.2374
  916MOL0     H23651   7.421   9.956   6.545 -1.8303  0.4981 -0.3532
  916MOL0     H23652   7.574   9.767   6.618 -3.2678  2.0579  1.1923
  916MOL0     H23653   7.645   9.895   6.520  0.4176 -1.0880  1.4658
  916MOL0     H23654   7.641   9.760   6.317  3.5052  1.5239  1.5100
  916MOL0     H23655   7.520   9.654   6.380  1.8314 -0.3858 -0.8566
  916MOL0     H23656   7.722   9.562   6.534  0.3524 -2.1708 -0.3521
  916MOL0     H23657   7.817   9.686   6.453 -1.3398  0.8047  1.6301
  916MOL0     H23658   7.763   9.363   6.172 -1.2118 -2.3699  1.3117
  916MOL0     H23659   7.343   9.858   6.743  0.0345 -0.5989  0.5163
  916MOL0     H23660   7.327   9.701   6.933 -0.2965  1.1897  0.0351
  917MOL0     O23661   0.497   5.863  11.178  0.5646  0.0206 -0.9194
  917MOL0     C23662   0.558   5.839  11.282 -0.0122 -0.2301 -0.5941
  917MOL0     O23663   0.537   5.903  11.403 -0.8301 -0.2043  0.0310
  917MOL0     C23664   0.435   5.989  11.426 -1.0595  0.3950 -0.1757
  917MOL0     C23665   0.438   6.122  11.379 -0.6533 -0.3611  0.4171
  917MOL0     C23666   0.336   6.212  11.415 -0.6093  0.1769  0.7133
  917MOL0     C23667   0.224   6.168  11.486 -0.5488  0.2167  0.6223
  917MOL0     O23668   0.128   6.263  11.502 -0.1866  0.6305 -0.4455
  917MOL0     C23669  -0.015   6.223  11.495  0.1694  0.1358 -0.4024
  917MOL0     C23670  -0.037   6.157  11.361  0.0862  0.4656 -0.1006
  917MOL0     C23671  -0.190   6.143  11.352  0.0655  0.7141  0.1524
  917MOL0     C23672  -0.232   6.028  11.254  0.5501  0.0578 -0.4668
  917MOL0     C23673  -0.386   5.994  11.269 -0.5574 -0.3515  0.6381
  917MOL0     C23674  -0.488   6.105  11.265  0.0781 -0.0887 -0.7119
  917MOL0     C23675  -0.625   6.051  11.288  0.7936  0.2893  0.6480
  917MOL0     C23676  -0.728   6.162  11.277 -0.3643 -0.2033  0.5659
  917MOL0     N23677  -0.867   6.113  11.267  0.5464 -0.0570 -0.2632
  917MOL0     C23678  -0.954   6.129  11.373  0.3285  0.8079  0.0754
  917MOL0     C23679  -1.067   6.076  11.331 -0.0205  0.3729 -0.1406
  917MOL0     C23680  -1.184   6.065  11.424 -0.3518 -0.3740 -0.5094
  917MOL0     C23681  -1.303   5.987  11.367 -0.4901 -0.4467  0.2081
  917MOL0     C23682  -1.393   5.942  11.492 -0.6296  0.2998 -0.2690
  917MOL0     C23683  -1.522   5.888  11.437 -0.2847 -0.0517 -0.4667
  917MOL0     O23684  -1.606   5.870  11.550 -0.0203  0.1117 -0.6855
  917MOL0     C23685  -1.731   5.828  11.530 -0.5120  0.4574  1.3373
  917MOL0     C23686  -1.775   5.758  11.415  0.4919  0.7516 -0.7514
  917MOL0     C23687  -1.909   5.716  11.395  0.5472 -0.1016  0.1151
  917MOL0     C23688  -1.936   5.646  11.270  1.0785 -0.3966 -0.3649
  917MOL0     C23689  -2.012   5.749  11.489 -0.2961 -0.1630  0.2909
  917MOL0     C23690  -2.154   5.717  11.478 -0.1359 -0.2631  0.0128
  917MOL0     O23691  -2.212   5.715  11.353 -0.0491 -0.5859 -0.2902
  917MOL0     C23692  -2.347   5.686  11.330 -0.0172 -0.0822 -1.0067
  917MOL0     C23693  -2.449   5.761  11.396  0.4288 -0.8516  0.4388
  917MOL0     C23694  -2.585   5.728  11.375 -0.1274 -0.5486  0.1221
  917MOL0     C23695  -2.615   5.623  11.286  0.2370 -0.0422 -0.7157
  917MOL0     O23696  -2.749   5.581  11.273  1.1651 -0.2872 -0.0676
  917MOL0     C23697  -2.840   5.611  11.376 -0.7106  0.4560  0.4414
  917MOL0     C23698  -2.955   5.513  11.367  0.2710 -0.8034  0.0527
  917MOL0     C23699  -2.910   5.367  11.372  0.3368  0.1393 -0.1924
  917MOL0     C23700  -3.037   5.273  11.367 -0.1881 -0.2536 -0.9820
  917MOL0     C23701  -3.003   5.126  11.367  0.7589 -0.0778 -0.0462
  917MOL0     C23702  -2.920   5.077  11.488 -0.0312  0.7047  1.1470
  917MOL0     C23703  -2.878   4.921  11.479 -0.2368 -1.0542  1.1338
  917MOL0     C23704  -2.990   4.820  11.457  0.7001 -0.2587  0.2920
  917MOL0    Cl23705  -2.923   4.653  11.497 -0.0929  0.1324 -0.2753
  917MOL0     C23706  -2.515   5.552  11.219 -0.2531  1.3793  0.1155
  917MOL0     C23707  -2.383   5.582  11.243  0.3084  0.1559  0.1679
  917MOL0     O23708  -2.205   5.660  11.580  0.2395  0.0086  1.0660
  917MOL0     C23709  -1.970   5.822  11.606 -0.0535 -0.1036 -0.8476
  917MOL0     C23710  -1.830   5.855  11.624  0.3963 -0.5942 -0.1580
  917MOL0     N23711  -1.051   6.025  11.200  0.3276  0.0812 -0.2958
  917MOL0     N23712  -0.929   6.041  11.164  0.5185  0.2180 -0.1263
  917MOL0     C23713   0.222   6.033  11.522 -0.4523 -0.6218 -0.0683
  917MOL0     C23714   0.323   5.939  11.487 -0.4476 -1.2164  1.4164
  917MOL0     C23715   0.676   5.740  11.291  0.4731 -0.2725 -0.2034
  917MOL0     C23716   0.690   5.647  11.182  0.7291 -0.1718 -0.1510
  917MOL0     C23717   0.776   5.540  11.198 -0.2048 -0.7829 -0.3050
  917MOL0     C23718   0.860   5.529  11.307 -0.5451  1.0740 -0.1681
  917MOL0     O23719   0.949   5.425  11.315 -0.2287  0.0850  0.3400
  917MOL0     C23720   1.081   5.477  11.278 -0.2992 -0.5297  0.7793
  917MOL0     C23721   1.183   5.355  11.246  0.5419 -0.4675 -0.7791
  917MOL0     C23722   1.331   5.410  11.266 -0.1950 -0.3424 -0.4335
  917MOL0     C23723   1.429   5.306  11.220 -1.0490  0.2805 -0.1715
  917MOL0     C23724   1.567   5.359  11.237  0.0182 -0.5490  0.1495
  917MOL0     C23725   1.677   5.409  11.255  0.1985  0.3824  0.6483
  917MOL0     C23726   0.848   5.624  11.409 -0.0660 -0.1310  0.2743
  917MOL0     C23727   0.756   5.733  11.407 -0.2966  0.5280 -0.9630
  917MOL0     H23728   0.516   6.168  11.319 -0.1263 -1.1956  0.4531
  917MOL0     H23729   0.337   6.319  11.397 -1.7117 -0.0023 -0.6093
  917MOL0     H23730  -0.039   6.158  11.579  3.1077 -0.0802  0.3611
  917MOL0     H23731  -0.084   6.308  11.500 -0.9435 -0.7864  0.2615
  917MOL0     H23732  -0.001   6.231  11.290 -1.9870  1.4184 -0.2282
  917MOL0     H23733   0.024   6.068  11.345  0.9706  0.6824  1.8035
  917MOL0     H23734  -0.228   6.109  11.449  2.2539 -1.4035  0.3680
  917MOL0     H23735  -0.230   6.240  11.323 -0.4489 -0.1368 -2.3022
  917MOL0     H23736  -0.211   6.064  11.153 -1.1331  0.3187 -0.7431
  917MOL0     H23737  -0.167   5.942  11.274 -1.2313 -1.1115  0.5354
  917MOL0     H23738  -0.413   5.930  11.185 -0.8161  0.0076  0.4432
  917MOL0     H23739  -0.388   5.931  11.359 -2.1552  0.1458  0.9784
  917MOL0     H23740  -0.465   6.185  11.336  1.1625 -1.2160  0.2307
  917MOL0     H23741  -0.480   6.143  11.163  1.9742  2.3381  0.2486
  917MOL0     H23742  -0.639   5.977  11.209  1.0920  0.4212  0.4742
  917MOL0     H23743  -0.636   6.000  11.384  0.8897 -1.1599 -0.0890
  917MOL0     H23744  -0.699   6.233  11.199  1.4899 -1.5627 -0.0559
  917MOL0     H23745  -0.714   6.219  11.370  1.3162 -0.1366  0.3090
  917MOL0     H23746  -0.937   6.167  11.473  2.4334 -0.2804  0.1958
  917MOL0     H23747  -1.143   6.022  11.516  1.9673 -0.1244 -1.3679
  917MOL0     H23748  -1.215   6.166  11.452 -0.9442 -0.3984 -1.0447
  917MOL0     H23749  -1.276   5.904  11.300 -0.8639 -2.5657  2.5409
  917MOL0     H23750  -1.362   6.053  11.302 -3.0496 -2.4801  0.2807
  917MOL0     H23751  -1.416   6.026  11.558  0.3174  1.1532 -0.9774
  917MOL0     H23752  -1.344   5.864  11.551 -0.4529  1.6193  1.3975
  917MOL0     H23753  -1.509   5.790  11.389  0.6218 -0.6304  0.8957
  917MOL0     H23754  -1.570   5.961  11.371  2.4145  2.6086  0.3247
  917MOL0     H23755  -1.714   5.731  11.329  1.0593 -2.5573  0.5488
  917MOL0     H23756  -1.958   5.711  11.185  1.4284 -0.6377 -0.6435
  917MOL0     H23757  -1.848   5.587  11.246  1.9813  0.9186 -0.4154
  917MOL0     H23758  -2.027   5.586  11.274  0.0807  1.1407  2.0174
  917MOL0     H23759  -2.423   5.838  11.468  0.4519 -0.5145  0.0737
  917MOL0     H23760  -2.674   5.764  11.425 -1.6185 -2.5700 -0.9411
  917MOL0     H23761  -2.793   5.601  11.475 -1.8031 -0.2251  0.9108
  917MOL0     H23762  -2.874   5.714  11.362  2.3948  1.5982  0.4422
  917MOL0     H23763  -3.020   5.534  11.452  0.6027  1.8378 -0.2620
  917MOL0     H23764  -2.997   5.545  11.271  1.2268  1.3629  0.2949
  917MOL0     H23765  -2.841   5.342  11.453 -1.1193  3.6311  2.3799
  917MOL0     H23766  -2.860   5.350  11.276 -1.0315  1.4240 -1.1776
  917MOL0     H23767  -3.101   5.304  11.450  0.8130  1.6851 -0.8919
  917MOL0     H23768  -3.097   5.292  11.277 -2.2290  0.2298  0.4037
  917MOL0     H23769  -2.949   5.106  11.274  2.3307  1.8539  0.3867
  917MOL0     H23770  -3.100   5.076  11.374 -1.0171  2.8916 -1.4834
  917MOL0     H23771  -2.827   5.135  11.487  0.8871 -0.7096  0.9267
  917MOL0     H23772  -2.972   5.098  11.582 -1.6423  0.7197  0.2791
  917MOL0     H23773  -2.836   4.895  11.576  3.3327 -0.2877 -0.0429
  917MOL0     H23774  -2.798   4.895  11.409 -0.3981 -4.7633  2.1008
  917MOL0     H23775  -3.022   4.813  11.352  1.2224 -4.2803  0.2383
  917MOL0     H23776  -3.078   4.849  11.514  0.3943  1.5818 -1.0163
  917MOL0     H23777  -2.537   5.478  11.143  0.8297 -0.7810  1.7849
  917MOL0     H23778  -2.297   5.530  11.202 -0.9845 -2.1338  0.2083
  917MOL0     H23779  -2.045   5.842  11.682  1.2415 -3.4201  1.5639
  917MOL0     H23780  -1.812   5.918  11.711 -2.7410  0.4917 -0.1752
  917MOL0     H23781   0.143   5.989  11.582  0.3662  1.7011  2.9634
  917MOL0     H23782   0.322   5.835  11.519  3.7513 -3.2533 -3.6792
  917MOL0     H23783   0.622   5.645  11.098 -0.5387 -2.4274  0.8304
  917MOL0     H23784   0.795   5.467  11.120  0.2513  0.0067 -0.9473
  917MOL0     H23785   1.063   5.554  11.202 -1.1037 -0.3988  1.0845
  917MOL0     H23786   1.122   5.527  11.366 -2.1941  1.0439  0.8416
  917MOL0     H23787   1.168   5.313  11.146 -0.6132  0.2014 -0.9056
  917MOL0     H23788   1.155   5.275  11.316 -0.5465 -0.0980 -0.7738
  917MOL0     H23789   1.344   5.441  11.370 -4.3229  4.3797 -0.9633
  917MOL0     H23790   1.335   5.503  11.208  0.5431 -1.1117 -1.6552
  917MOL0     H23791   1.418   5.274  11.116  1.7851  1.4826 -0.9230
  917MOL0     H23792   1.406   5.220  11.284 -1.2524  0.6729  0.2901
  917MOL0     H23793   1.774   5.453  11.270  0.9536 -1.5300  1.6751
  917MOL0     H23794   0.905   5.590  11.495  1.2572  0.3654 -0.3654
  917MOL0     H23795   0.744   5.792  11.497 -0.8920 -1.7670  0.5621
  918MOL0     O23796   1.759   8.727   6.475  0.1105  0.4043  0.0123
  918MOL0     C23797   1.828   8.799   6.554 -0.0006 -0.7665  0.1427
  918MOL0     O23798   1.789   8.868   6.661 -0.4728  0.2911 -0.3793
  918MOL0     C23799   1.671   8.866   6.724  0.7489 -0.6441 -0.3928
  918MOL0     C23800   1.561   8.784   6.688  0.5029  0.1873 -0.5466
  918MOL0     C23801   1.447   8.792   6.766 -0.3379  0.4409 -0.4658
  918MOL0     C23802   1.435   8.875   6.875 -0.3762 -0.2679 -1.3873
  918MOL0     O23803   1.312   8.883   6.939  0.1571 -0.3201 -0.7397
  918MOL0     C23804   1.274   9.002   7.010 -0.1930 -0.2598 -0.1002
  918MOL0     C23805   1.128   8.995   7.038  0.1066 -0.8273  0.5749
  918MOL0     C23806   1.077   8.887   7.127 -0.4460  0.2799  1.1834
  918MOL0     C23807   0.924   8.876   7.152  0.0813  0.4405  0.1017
  918MOL0     C23808   0.884   8.776   7.268  0.0606 -0.2515 -0.0315
  918MOL0     C23809   0.879   8.637   7.229  0.5858  0.4852 -0.3543
  918MOL0     C23810   0.894   8.542   7.346  0.1429 -1.0592  0.2039
  918MOL0     C23811   0.768   8.550   7.432 -0.1352  1.0632  0.4590
  918MOL0     N23812   0.785   8.452   7.541  0.6641  0.6152 -0.1378
  918MOL0     C23813   0.767   8.316   7.551 -0.1274 -0.3634  0.0191
  918MOL0     C23814   0.753   8.294   7.686  0.4147 -0.4723 -0.0185
  918MOL0     C23815   0.704   8.176   7.752 -0.3402 -0.3314  0.2958
  918MOL0     C23816   0.558   8.169   7.782 -0.4215 -0.0642 -0.7152
  918MOL0     C23817   0.537   8.103   7.915 -0.0359 -0.1505  0.2174
  918MOL0     C23818   0.395   8.145   7.953  0.2231  0.7429 -0.0649
  918MOL0     O23819   0.360   8.108   8.090 -0.2431 -0.0230 -0.6099
  918MOL0     C23820   0.318   7.980   8.122 -0.4443  0.0079  0.4771
  918MOL0     C23821   0.277   7.874   8.032 -0.6482 -0.3032 -0.7854
  918MOL0     C23822   0.217   7.762   8.082 -0.4232 -0.0081  0.5624
  918MOL0     C23823   0.168   7.667   7.976 -0.4372  0.4435  0.0421
  918MOL0     C23824   0.192   7.746   8.222  0.0780 -0.2741  0.4482
  918MOL0     C23825   0.126   7.629   8.290  0.4178 -0.2846 -0.5147
  918MOL0     O23826   0.117   7.622   8.424  0.3310 -0.0830 -0.3904
  918MOL0     C23827   0.022   7.533   8.469 -0.1367  0.2579  0.6344
  918MOL0     C23828  -0.106   7.569   8.514 -0.7077 -0.6990  0.2113
  918MOL0     C23829  -0.188   7.473   8.582 -0.1218 -0.8435  0.0237
  918MOL0     C23830  -0.141   7.346   8.608 -0.2097 -0.2358  0.0036
  918MOL0     O23831  -0.221   7.249   8.670 -0.6047  0.5606  0.0369
  918MOL0     C23832  -0.259   7.280   8.805  0.3030 -0.0848 -0.6030
  918MOL0     C23833  -0.197   7.172   8.887 -0.9344  0.1152  0.0394
  918MOL0     C23834  -0.050   7.187   8.907  0.5848 -0.1589 -0.1218
  918MOL0     C23835  -0.001   7.075   8.997  0.2359 -0.0428 -0.0696
  918MOL0     C23836   0.147   7.048   8.980 -0.7211  0.4058  0.0612
  918MOL0     C23837   0.197   6.922   9.031  0.9576  0.4127  0.4778
  918MOL0     C23838   0.222   6.934   9.185  0.0438  0.2618  0.0223
  918MOL0     C23839   0.256   6.796   9.246 -0.0184 -0.0341 -1.0436
  918MOL0    Cl23840   0.412   6.746   9.180  0.4251 -0.6865 -0.1786
  918MOL0     C23841  -0.017   7.304   8.556 -0.3221  0.5397 -0.0714
  918MOL0     C23842   0.062   7.398   8.484 -0.1633 -0.1496 -0.1171
  918MOL0     O23843   0.109   7.537   8.216  0.0246  0.2162  0.6878
  918MOL0     C23844   0.255   7.843   8.310 -1.2400  0.1407  0.2515
  918MOL0     C23845   0.310   7.959   8.259  0.8147 -0.8046  0.1370
  918MOL0     N23846   0.792   8.409   7.753  0.2478  0.4645  0.2835
  918MOL0     N23847   0.808   8.494   7.668 -0.0195  0.2587 -0.0068
  918MOL0     C23848   1.543   8.960   6.909  0.1728  0.6680 -1.2852
  918MOL0     C23849   1.663   8.956   6.836  0.5672 -0.2555  0.1062
  918MOL0     C23850   1.980   8.815   6.513  0.7874  0.4288  0.3141
  918MOL0     C23851   2.012   8.787   6.382  0.5763 -0.5625  0.6033
  918MOL0     C23852   2.141   8.785   6.338 -0.0922  0.5266 -0.7151
  918MOL0     C23853   2.249   8.811   6.418  0.5979  0.8053 -0.2695
  918MOL0     O23854   2.375   8.806   6.369 -0.3272 -0.0266 -0.4947
  918MOL0     C23855   2.402   8.901   6.260 -0.0021  0.6435 -0.4557
  918MOL0     C23856   2.524   8.864   6.178 -0.1846 -0.2067  0.4071
  918MOL0     C23857   2.647   8.823   6.256 -0.0946 -0.7197 -0.1132
  918MOL0     C23858   2.760   8.771   6.166  0.0116 -0.2189 -0.2781
  918MOL0     C23859   2.877   8.737   6.240 -0.2382 -0.0257 -0.6353
  918MOL0     C23860   2.983   8.702   6.297 -0.2032  0.7038 -0.2560
  918MOL0     C23861   2.219   8.833   6.556  0.3928 -0.9050  1.5861
  918MOL0     C23862   2.088   8.842   6.602  1.0315  0.0693  1.3205
  918MOL0     H23863   1.564   8.715   6.604  0.4139 -1.0248  0.4156
  918MOL0     H23864   1.370   8.720   6.737 -0.3204 -0.0762  0.7398
  918MOL0     H23865   1.334   9.003   7.102  0.4815  0.2517 -0.5358
  918MOL0     H23866   1.290   9.096   6.957 -2.0817  1.5042  2.2536
  918MOL0     H23867   1.106   9.086   7.093  1.8342 -0.9687  1.5941
  918MOL0     H23868   1.080   8.996   6.939  2.2936 -0.3631 -0.5503
  918MOL0     H23869   1.087   8.792   7.074 -0.8658  1.2183 -0.6748
  918MOL0     H23870   1.136   8.884   7.219 -0.4455 -1.7751  1.1614
  918MOL0     H23871   0.881   8.972   7.179 -0.6937 -0.0180  0.5437
  918MOL0     H23872   0.872   8.848   7.060  1.5893 -0.8058 -0.4238
  918MOL0     H23873   0.971   8.785   7.334 -0.7400 -0.3595  1.0713
  918MOL0     H23874   0.785   8.802   7.307 -0.9166 -3.5177 -0.0451
  918MOL0     H23875   0.787   8.615   7.173 -0.7972  2.0672  1.1769
  918MOL0     H23876   0.963   8.630   7.159  0.4785  0.8266 -0.5217
  918MOL0     H23877   0.913   8.438   7.316 -2.6594 -1.7071  0.3282
  918MOL0     H23878   0.975   8.564   7.415  0.9444 -1.5305 -0.5638
  918MOL0     H23879   0.685   8.524   7.366  1.2835 -1.0609 -0.6272
  918MOL0     H23880   0.754   8.649   7.476 -2.5009  0.4730  1.2025
  918MOL0     H23881   0.738   8.257   7.464  1.4528 -0.2553 -0.6185
  918MOL0     H23882   0.723   8.089   7.688 -1.5895 -0.4925  0.1085
  918MOL0     H23883   0.758   8.161   7.845 -0.7517 -0.3146  0.5404
  918MOL0     H23884   0.507   8.119   7.699  1.2210 -0.7237 -1.3528
  918MOL0     H23885   0.526   8.274   7.781  1.1460  0.5138 -3.9424
  918MOL0     H23886   0.603   8.156   7.984  0.4619  0.2219 -0.5315
  918MOL0     H23887   0.557   7.996   7.916  0.9251  0.0236  0.6651
  918MOL0     H23888   0.317   8.099   7.891 -0.1568  0.7542  0.3955
  918MOL0     H23889   0.378   8.253   7.946 -0.1849  0.6387 -0.8071
  918MOL0     H23890   0.288   7.884   7.924 -1.3062  0.2899 -0.8050
  918MOL0     H23891   0.202   7.689   7.875 -2.2868 -0.8207 -0.9085
  918MOL0     H23892   0.211   7.567   7.984  0.8752  0.8309 -1.5589
  918MOL0     H23893   0.059   7.674   7.976 -0.3563  2.0718 -1.2364
  918MOL0     H23894  -0.154   7.664   8.497  1.4765  0.3824 -0.2593
  918MOL0     H23895  -0.286   7.496   8.621  0.7591  1.3675  1.0419
  918MOL0     H23896  -0.240   7.385   8.828 -0.2128  0.0927 -0.9768
  918MOL0     H23897  -0.367   7.276   8.822  0.4090 -4.2721  0.2769
  918MOL0     H23898  -0.238   7.150   8.986  0.6957 -1.9919  0.3210
  918MOL0     H23899  -0.210   7.080   8.828  0.8331 -1.0862  1.4295
  918MOL0     H23900  -0.025   7.279   8.960 -2.5198 -0.3543  1.9522
  918MOL0     H23901  -0.008   7.181   8.806 -1.7332 -0.8869 -1.1090
  918MOL0     H23902  -0.024   7.086   9.103 -1.3543 -0.0515 -0.3960
  918MOL0     H23903  -0.055   6.988   8.959 -1.6549  1.8432 -1.9257
  918MOL0     H23904   0.206   7.126   9.029  0.1119  1.5609 -2.5736
  918MOL0     H23905   0.169   7.055   8.873  0.4918  0.7369  0.3214
  918MOL0     H23906   0.137   6.831   9.020  0.8579  0.2528  2.0717
  918MOL0     H23907   0.293   6.916   8.979  0.6420 -2.8374  0.0903
  918MOL0     H23908   0.127   6.963   9.229 -0.3455 -2.2000  1.0026
  918MOL0     H23909   0.296   7.013   9.202 -0.1982 -0.1426  3.8414
  918MOL0     H23910   0.173   6.728   9.228 -0.0919 -0.8894  1.8886
  918MOL0     H23911   0.271   6.812   9.354  2.6808 -0.2667 -1.2994
  918MOL0     H23912   0.009   7.200   8.573 -0.4774  0.4976 -0.0878
  918MOL0     H23913   0.158   7.367   8.443 -0.2726  0.2940 -0.7128
  918MOL0     H23914   0.252   7.819   8.416 -2.0348 -4.0206 -0.5266
  918MOL0     H23915   0.342   8.036   8.329 -1.8813 -0.1489  0.7786
  918MOL0     H23916   1.530   9.015   7.002 -0.8569  0.6077 -1.3781
  918MOL0     H23917   1.748   9.009   6.877  0.4307  0.3446 -0.3553
  918MOL0     H23918   1.933   8.758   6.313 -0.0143  1.5697  0.3059
  918MOL0     H23919   2.164   8.762   6.234 -1.3717  0.8419 -1.0926
  918MOL0     H23920   2.319   8.901   6.189  0.4477 -0.7148 -1.0162
  918MOL0     H23921   2.418   9.003   6.296  1.1861  0.3424 -0.0766
  918MOL0     H23922   2.545   8.943   6.104  0.7242 -1.4652 -0.7253
  918MOL0     H23923   2.498   8.774   6.122  2.2573 -2.1907  2.2717
  918MOL0     H23924   2.617   8.754   6.336 -1.6818 -0.1603 -0.1861
  918MOL0     H23925   2.691   8.907   6.310 -0.1625 -1.7407  1.6240
  918MOL0     H23926   2.784   8.845   6.089 -2.0619  0.1571 -0.6326
  918MOL0     H23927   2.732   8.677   6.116 -1.3253  1.2928 -2.5780
  918MOL0     H23928   3.064   8.660   6.353 -1.0161  1.8694  1.9197
  918MOL0     H23929   2.305   8.856   6.618  0.5790  0.4401  0.8567
  918MOL0     H23930   2.070   8.870   6.705  1.0242  2.4093  0.7337
  919MOL0     O23931  10.577   8.099   0.847  0.4828 -0.1646  0.3751
  919MOL0     C23932  10.625   8.125   0.958 -0.7343 -0.4470 -0.4866
  919MOL0     O23933  10.563   8.197   1.065 -0.0552 -0.0525  0.2215
  919MOL0     C23934  10.428   8.242   1.053 -0.2894  0.0736 -1.0749
  919MOL0     C23935  10.337   8.232   1.160 -0.1030  0.5718  0.0296
  919MOL0     C23936  10.203   8.258   1.142  0.2805 -1.1599  0.6840
  919MOL0     C23937  10.156   8.328   1.027 -0.3975 -0.5795  0.3894
  919MOL0     O23938  10.030   8.368   1.001 -0.4395  0.2878 -0.4341
  919MOL0     C23939   9.984   8.450   0.899 -0.5116  0.6233  1.4994
  919MOL0     C23940   9.838   8.478   0.892  0.0543  0.4786  0.1066
  919MOL0     C23941   9.751   8.345   0.876  0.4914  0.3948  0.1639
  919MOL0     C23942   9.619   8.390   0.814  0.3338  0.5505 -0.9622
  919MOL0     C23943   9.523   8.271   0.809  0.2562 -0.3381 -0.7402
  919MOL0     C23944   9.387   8.302   0.740 -0.3460  0.4079 -0.2326
  919MOL0     C23945   9.298   8.182   0.742 -0.2873  0.9442  0.5212
  919MOL0     C23946   9.171   8.180   0.652 -0.7922  0.4991 -0.1177
  919MOL0     N23947   9.209   8.207   0.512 -0.6369 -0.0765 -0.4727
  919MOL0     C23948   9.245   8.102   0.441  0.2675  0.2277  0.4698
  919MOL0     C23949   9.320   8.151   0.344 -1.7352  0.0895 -1.1481
  919MOL0     C23950   9.417   8.066   0.260 -0.0284 -0.2839  0.3811
  919MOL0     C23951   9.561   8.117   0.264  0.2541  0.2865 -0.2644
  919MOL0     C23952   9.621   8.106   0.411 -0.1747 -1.2476  0.2319
  919MOL0     C23953   9.760   8.161   0.413 -0.0762  0.3057 -0.8666
  919MOL0     O23954   9.804   8.188   0.549  0.6768 -0.2802  0.5101
  919MOL0     C23955   9.922   8.253   0.561 -0.5342 -0.4997  0.1075
  919MOL0     C23956   9.935   8.389   0.527  0.1286  0.0590 -0.2359
  919MOL0     C23957  10.062   8.446   0.504  0.5205 -0.1110 -0.5063
  919MOL0     C23958  10.059   8.599   0.477 -0.1281  0.5435  0.6135
  919MOL0     C23959  10.176   8.356   0.536 -0.0157  0.2009  0.2868
  919MOL0     C23960  10.315   8.399   0.522  0.1287 -0.0512  0.1584
  919MOL0     O23961  10.406   8.300   0.504  0.1486 -0.1584  0.0681
  919MOL0     C23962  10.543   8.332   0.482  0.1425 -0.0137 -0.5144
  919MOL0     C23963  10.597   8.362   0.357 -0.1836  0.2375  0.7310
  919MOL0     C23964  10.738   8.382   0.343  0.3235  0.7697 -0.1237
  919MOL0     C23965  10.824   8.389   0.454  0.4963  0.9509 -0.2097
  919MOL0     O23966  10.953   8.409   0.441  0.0527  0.1875 -0.9343
  919MOL0     C23967  10.990   8.527   0.516 -0.3401 -0.2918  0.0801
  919MOL0     C23968  11.146   8.568   0.482 -0.2195  0.3064  0.0798
  919MOL0     C23969  11.164   8.718   0.453 -0.2772  0.2823 -0.5834
  919MOL0     C23970  11.307   8.752   0.423 -0.1873 -0.0457  0.7099
  919MOL0     C23971  11.337   8.899   0.441  0.3056 -0.0782  0.2619
  919MOL0     C23972  11.256   9.001   0.348 -0.0427 -0.0171  0.7104
  919MOL0     C23973  11.234   9.144   0.406 -0.3926 -0.0188  0.5218
  919MOL0     C23974  11.347   9.241   0.368 -0.4057 -0.5423 -0.3067
  919MOL0    Cl23975  11.295   9.397   0.443 -0.3309  0.5674 -0.6998
  919MOL0     C23976  10.772   8.331   0.574  0.3337  0.0817 -0.6410
  919MOL0     C23977  10.637   8.312   0.584  0.5558 -0.1381 -0.7190
  919MOL0     O23978  10.340   8.520   0.524  0.0807 -0.0736  0.6970
  919MOL0     C23979  10.162   8.219   0.575 -0.4748  0.0026  0.9649
  919MOL0     C23980  10.033   8.168   0.583 -0.3519  0.0232 -0.0947
  919MOL0     N23981   9.308   8.289   0.356  0.9221 -0.2870 -0.2444
  919MOL0     N23982   9.238   8.321   0.453 -0.1730 -0.1807  0.5519
  919MOL0     C23983  10.248   8.341   0.918 -0.2004 -1.8331  0.0947
  919MOL0     C23984  10.380   8.303   0.931  0.5522 -0.1849 -0.4221
  919MOL0     C23985  10.773   8.096   0.978 -0.2644  0.1698  0.2282
  919MOL0     C23986  10.844   8.123   1.097 -0.3181 -0.9470 -0.8587
  919MOL0     C23987  10.978   8.094   1.114 -0.3611 -0.4572  0.9836
  919MOL0     C23988  11.047   8.036   1.012 -0.6208  0.2569  0.6782
  919MOL0     O23989  11.176   8.008   1.052 -0.4086 -0.2403 -0.0835
  919MOL0     C23990  11.267   7.944   0.954 -0.2414  0.5324 -0.8087
  919MOL0     C23991  11.405   7.887   1.027  0.2973 -0.5448  0.4929
  919MOL0     C23992  11.511   7.843   0.920  0.1681 -0.0023 -0.2803
  919MOL0     C23993  11.611   7.949   0.911  0.7115 -0.6374  0.0341
  919MOL0     C23994  11.703   7.922   0.802 -0.1812 -0.3214  0.0327
  919MOL0     C23995  11.784   7.893   0.708  0.1714  0.6202 -1.1418
  919MOL0     C23996  10.984   7.998   0.894 -0.7737 -0.8140 -0.1537
  919MOL0     C23997  10.851   8.035   0.872  0.2383 -0.0808  0.0983
  919MOL0     H23998  10.372   8.172   1.244 -1.9605  1.9627  1.8801
  919MOL0     H23999  10.137   8.241   1.226 -2.6373  3.9679 -0.1503
  919MOL0     H24000  10.032   8.548   0.908  0.2323  1.0590 -3.9048
  919MOL0     H24001  10.016   8.406   0.804 -0.1029  0.5241  1.6842
  919MOL0     H24002   9.804   8.528   0.984  0.2177 -0.1543  0.5133
  919MOL0     H24003   9.827   8.545   0.807  1.4222  0.3955 -0.1549
  919MOL0     H24004   9.795   8.261   0.821 -0.8086 -1.3599  1.6390
  919MOL0     H24005   9.723   8.307   0.975  1.9029  2.2123  1.3132
  919MOL0     H24006   9.570   8.458   0.885  2.8527 -0.5848  2.0741
  919MOL0     H24007   9.630   8.430   0.713 -4.9672  3.9837 -0.5950
  919MOL0     H24008   9.573   8.189   0.757 -0.0465 -1.6632  0.9420
  919MOL0     H24009   9.516   8.234   0.912 -0.7348 -1.1642 -1.0797
  919MOL0     H24010   9.327   8.383   0.783 -1.8221 -1.3831  1.2523
  919MOL0     H24011   9.417   8.325   0.638 -1.5015  0.8315 -0.4920
  919MOL0     H24012   9.362   8.099   0.709 -2.7378 -1.3394  1.2228
  919MOL0     H24013   9.280   8.165   0.848  2.4482  1.6988  1.1854
  919MOL0     H24014   9.096   8.254   0.685  0.1103  1.2191  0.3717
  919MOL0     H24015   9.124   8.082   0.665 -1.0353  0.8135  1.6210
  919MOL0     H24016   9.226   7.999   0.470 -1.4439  0.9753  2.1578
  919MOL0     H24017   9.427   7.971   0.314  0.7770 -1.1268 -1.1776
  919MOL0     H24018   9.369   8.042   0.165  0.7532 -0.9655  0.1486
  919MOL0     H24019   9.579   8.217   0.223  0.9095  1.2203  2.1508
  919MOL0     H24020   9.625   8.052   0.204  2.8071  1.2138  1.2918
  919MOL0     H24021   9.625   7.999   0.434  0.8031 -1.5005 -1.0055
  919MOL0     H24022   9.566   8.160   0.489  2.4770 -1.1175  2.1341
  919MOL0     H24023   9.758   8.240   0.337  0.3497  0.4433 -0.7348
  919MOL0     H24024   9.831   8.085   0.377  1.5600  1.8106 -0.9501
  919MOL0     H24025   9.844   8.445   0.508 -0.1674  0.5893  2.3367
  919MOL0     H24026  10.093   8.644   0.571  3.1067 -0.4481  0.0602
  919MOL0     H24027  10.126   8.632   0.397  2.2413 -1.7547  1.4987
  919MOL0     H24028   9.958   8.638   0.465 -0.5079 -0.2003  1.3262
  919MOL0     H24029  10.537   8.382   0.269 -3.6817 -0.3732  2.7799
  919MOL0     H24030  10.777   8.412   0.246  2.0401 -0.4643  0.1367
  919MOL0     H24031  10.930   8.613   0.483  2.0882  0.9763 -1.3281
  919MOL0     H24032  10.970   8.520   0.623  1.7638  1.2050  0.6360
  919MOL0     H24033  11.216   8.537   0.560 -1.5089 -2.2376  0.3403
  919MOL0     H24034  11.155   8.499   0.397 -3.3206 -2.7834  1.9944
  919MOL0     H24035  11.137   8.778   0.540  0.3384  0.7453 -0.7018
  919MOL0     H24036  11.109   8.739   0.361  0.3927 -0.1295 -1.0914
  919MOL0     H24037  11.385   8.703   0.482  1.0110 -0.1587 -0.9081
  919MOL0     H24038  11.308   8.729   0.316 -1.8510  0.0923  0.6437
  919MOL0     H24039  11.445   8.911   0.432  0.3107  1.2024  1.6590
  919MOL0     H24040  11.318   8.929   0.544  1.7494 -0.4524  0.6605
  919MOL0     H24041  11.292   9.012   0.246 -4.1776 -0.5275 -0.9775
  919MOL0     H24042  11.156   8.957   0.344 -0.5799  1.1998  0.2067
  919MOL0     H24043  11.234   9.134   0.515  0.1947  0.2080  0.5453
  919MOL0     H24044  11.145   9.189   0.361  1.4841  2.4645 -0.8955
  919MOL0     H24045  11.361   9.250   0.260 -0.8910  1.4382 -0.2336
  919MOL0     H24046  11.444   9.210   0.409 -1.6744 -1.2271  2.3973
  919MOL0     H24047  10.849   8.323   0.650  2.0842  4.2245 -1.6952
  919MOL0     H24048  10.606   8.268   0.679  0.2318 -1.5924 -1.4774
  919MOL0     H24049  10.247   8.157   0.602  0.3952  0.7872  0.1052
  919MOL0     H24050  10.003   8.069   0.615  0.2626 -0.7693 -1.8606
  919MOL0     H24051  10.225   8.382   0.820  1.9789 -0.7444 -0.0234
  919MOL0     H24052  10.452   8.310   0.851 -0.7182  0.4260 -1.5725
  919MOL0     H24053  10.797   8.173   1.181  1.0366 -0.3899 -0.3958
  919MOL0     H24054  11.023   8.108   1.212 -0.1625  1.2470  0.6738
  919MOL0     H24055  11.225   7.854   0.908  1.6683 -0.0845 -1.4332
  919MOL0     H24056  11.289   8.015   0.874  0.6926  0.2160 -0.8454
  919MOL0     H24057  11.390   7.799   1.091 -0.7684 -1.2599 -0.6779
  919MOL0     H24058  11.434   7.966   1.097  3.3185 -0.5659 -0.5811
  919MOL0     H24059  11.475   7.817   0.820 -1.4770 -0.0841  0.3037
  919MOL0     H24060  11.550   7.751   0.966 -1.2541  0.5998  2.3590
  919MOL0     H24061  11.668   7.939   1.004 -2.8956  0.7322  2.6608
  919MOL0     H24062  11.561   8.045   0.895  0.3507 -0.8658 -0.2256
  919MOL0     H24063  11.851   7.876   0.627  2.0071  0.8292  0.2705
  919MOL0     H24064  11.037   7.938   0.821  0.8750  0.7146 -0.2706
  919MOL0     H24065  10.798   8.011   0.781 -2.7989  3.5110  0.6120
  920MOL0     O24066   7.949   7.514   1.094 -0.3818 -0.3674  0.7791
  920MOL0     C24067   7.921   7.631   1.088 -0.5070  0.6753 -0.9304
  920MOL0     O24068   7.796   7.677   1.120  0.3404 -0.6801  0.3302
  920MOL0     C24069   7.708   7.582   1.166 -0.2118 -0.3846  0.7526
  920MOL0     C24070   7.671   7.587   1.306  0.8731  0.0422  0.3654
  920MOL0     C24071   7.583   7.486   1.354  0.7657 -0.0789  0.4382
  920MOL0     C24072   7.541   7.385   1.272 -0.0140 -0.0907 -0.0878
  920MOL0     O24073   7.472   7.289   1.332  0.2014 -0.8383  0.0250
  920MOL0     C24074   7.329   7.289   1.310  1.2358 -0.5142  0.8793
  920MOL0     C24075   7.269   7.215   1.428  0.2606 -0.1037  0.1424
  920MOL0     C24076   7.298   7.271   1.573 -0.2063  0.2990 -0.3303
  920MOL0     C24077   7.195   7.208   1.668  0.4619 -0.3789  0.8169
  920MOL0     C24078   7.200   7.262   1.811 -0.1970 -0.4569 -0.0921
  920MOL0     C24079   7.150   7.409   1.829  0.4146 -0.4533 -0.5202
  920MOL0     C24080   7.133   7.465   1.972 -0.3985  1.0023 -0.5304
  920MOL0     C24081   7.267   7.457   2.056  0.1145  0.3815 -0.1562
  920MOL0     N24082   7.385   7.511   1.978  0.6903  0.2298  0.0519
  920MOL0     C24083   7.505   7.446   1.944 -0.1850  0.5841 -1.3221
  920MOL0     C24084   7.560   7.525   1.853 -1.1596  0.1497 -0.2479
  920MOL0     C24085   7.673   7.490   1.762  0.7633  0.1502  0.7638
  920MOL0     C24086   7.728   7.605   1.680 -0.4970 -0.4743  0.0204
  920MOL0     C24087   7.792   7.718   1.766  0.0012 -0.1457 -0.2172
  920MOL0     C24088   7.802   7.841   1.680  0.8399 -0.1457 -0.3541
  920MOL0     O24089   7.852   7.804   1.546  0.3331 -0.0477 -0.0462
  920MOL0     C24090   7.909   7.907   1.480 -0.6721  1.0594 -0.9754
  920MOL0     C24091   7.842   8.017   1.430  0.1096  0.0354  0.0053
  920MOL0     C24092   7.908   8.120   1.361  0.3178 -0.7959  0.2944
  920MOL0     C24093   7.820   8.243   1.320 -1.6232  0.5817  0.2944
  920MOL0     C24094   8.047   8.109   1.346  0.8419 -0.1050 -1.4787
  920MOL0     C24095   8.130   8.214   1.281 -0.7191  0.2822  0.5608
  920MOL0     O24096   8.266   8.220   1.320  0.4886 -0.1796 -0.9231
  920MOL0     C24097   8.340   8.307   1.249 -0.5468 -1.5179  0.3153
  920MOL0     C24098   8.320   8.444   1.264  0.8204 -0.3056 -0.0866
  920MOL0     C24099   8.412   8.531   1.211 -0.1541 -0.0272 -0.5418
  920MOL0     C24100   8.511   8.486   1.119  0.0219 -0.0151  0.4762
  920MOL0     O24101   8.598   8.577   1.059 -0.0772  0.5112  0.2056
  920MOL0     C24102   8.548   8.671   0.956  0.7744 -0.0954  0.5825
  920MOL0     C24103   8.671   8.756   0.916  0.4600  0.9794 -0.4986
  920MOL0     C24104   8.662   8.840   0.785 -0.9942  0.5902 -0.8314
  920MOL0     C24105   8.614   8.984   0.819  1.0957  0.0799  0.3027
  920MOL0     C24106   8.581   9.073   0.701  0.1284 -0.6118  0.1655
  920MOL0     C24107   8.496   9.009   0.586  0.3286  0.1537  0.3379
  920MOL0     C24108   8.357   8.978   0.641  0.4406 -0.2092 -0.6823
  920MOL0     C24109   8.260   8.936   0.524  0.4448 -0.2326 -0.3260
  920MOL0    Cl24110   8.320   8.793   0.425  0.3264  0.3848 -0.0356
  920MOL0     C24111   8.525   8.350   1.087 -0.1550 -1.2014  0.3076
  920MOL0     C24112   8.441   8.260   1.162 -0.4926 -0.4689  0.5295
  920MOL0     O24113   8.077   8.281   1.188  0.0225  0.2184 -0.1366
  920MOL0     C24114   8.121   7.996   1.410  0.1067 -0.3675  0.5199
  920MOL0     C24115   8.056   7.903   1.482  0.6332  0.8433  0.2463
  920MOL0     N24116   7.483   7.643   1.843 -0.7135  0.0422  0.2658
  920MOL0     N24117   7.391   7.633   1.926 -0.3041 -0.3112  0.3667
  920MOL0     C24118   7.587   7.379   1.137  0.1110  0.9120 -0.5167
  920MOL0     C24119   7.659   7.478   1.083 -0.0800  0.3585 -1.1350
  920MOL0     C24120   8.000   7.722   1.010 -0.9891 -0.4457 -0.8166
  920MOL0     C24121   8.023   7.855   1.058  0.3379 -0.2499 -0.1325
  920MOL0     C24122   8.119   7.948   1.003  0.1566  0.7221  0.5890
  920MOL0     C24123   8.171   7.915   0.880 -0.0974  0.1147  0.0318
  920MOL0     O24124   8.256   7.994   0.811  0.8977 -0.5829 -0.1381
  920MOL0     C24125   8.285   8.124   0.861  0.2594 -1.0558 -0.4130
  920MOL0     C24126   8.369   8.218   0.774 -0.1916  0.8803 -0.0778
  920MOL0     C24127   8.370   8.182   0.621 -0.4299  0.0324 -0.3057
  920MOL0     C24128   8.501   8.227   0.549 -0.1004 -0.5047 -0.0542
  920MOL0     C24129   8.512   8.375   0.535 -0.0705  0.5574 -0.1376
  920MOL0     C24130   8.512   8.493   0.522 -0.3023  0.2437 -0.4131
  920MOL0     C24131   8.138   7.799   0.817  0.9902  0.6914 -1.4284
  920MOL0     C24132   8.064   7.699   0.884 -0.6603 -0.4977 -0.9608
  920MOL0     H24133   7.701   7.664   1.376 -2.0055  1.5228  0.1189
  920MOL0     H24134   7.551   7.489   1.458 -1.2465  1.8590 -0.1573
  920MOL0     H24135   7.288   7.390   1.313  1.3438 -0.4619  4.5766
  920MOL0     H24136   7.293   7.238   1.220  3.1696  0.3699 -0.4488
  920MOL0     H24137   7.161   7.206   1.415  0.6570 -2.1705 -2.7653
  920MOL0     H24138   7.306   7.112   1.424  1.2309  0.2325  0.1795
  920MOL0     H24139   7.399   7.249   1.607  0.3618 -1.8427 -3.0328
  920MOL0     H24140   7.286   7.379   1.558  1.4212  0.0903 -4.4610
  920MOL0     H24141   7.094   7.224   1.630 -0.4811 -1.1001  2.9036
  920MOL0     H24142   7.214   7.100   1.667 -0.7289 -0.5945  0.8307
  920MOL0     H24143   7.127   7.214   1.877  1.0937 -2.7369 -0.2255
  920MOL0     H24144   7.298   7.244   1.856 -1.8065 -0.3834  3.8794
  920MOL0     H24145   7.216   7.476   1.773 -0.7568  0.6581 -0.6169
  920MOL0     H24146   7.050   7.419   1.788 -0.1069 -3.7473 -0.2951
  920MOL0     H24147   7.099   7.569   1.971 -1.3700  0.7338  1.2361
  920MOL0     H24148   7.052   7.411   2.022 -0.3574 -0.4937 -1.9901
  920MOL0     H24149   7.291   7.353   2.077  2.2221  0.4917 -1.7155
  920MOL0     H24150   7.256   7.505   2.154  5.9068  1.5076  0.2599
  920MOL0     H24151   7.539   7.347   1.971 -1.3298 -0.4014 -3.1958
  920MOL0     H24152   7.754   7.448   1.823  2.9934  2.0265 -0.7083
  920MOL0     H24153   7.642   7.416   1.687  3.3416  1.1611 -1.4765
  920MOL0     H24154   7.649   7.648   1.618 -0.0298  2.8608  1.5368
  920MOL0     H24155   7.806   7.558   1.618  2.3577 -0.7663  3.4584
  920MOL0     H24156   7.890   7.696   1.808  0.0246  3.6627  2.2602
  920MOL0     H24157   7.727   7.729   1.853  1.8246 -2.7063  1.6198
  920MOL0     H24158   7.854   7.919   1.735 -0.5243  2.1484 -2.1505
  920MOL0     H24159   7.698   7.875   1.673  0.1736 -1.5915  1.5590
  920MOL0     H24160   7.734   8.028   1.424  0.1207 -0.5086 -2.1977
  920MOL0     H24161   7.862   8.328   1.375  1.2213 -2.2481  3.0512
  920MOL0     H24162   7.820   8.263   1.213  0.5933  2.9464  0.6339
  920MOL0     H24163   7.715   8.241   1.351 -2.3918  3.7500 -1.6549
  920MOL0     H24164   8.244   8.471   1.337 -0.1341 -0.4632 -0.9871
  920MOL0     H24165   8.391   8.632   1.245  3.0202  1.2133 -1.8598
  920MOL0     H24166   8.535   8.598   0.876  5.2089 -2.2863  1.5605
  920MOL0     H24167   8.457   8.727   0.981  0.3532  0.3250 -1.6667
  920MOL0     H24168   8.695   8.823   1.000  0.3450 -1.3723  1.5307
  920MOL0     H24169   8.758   8.689   0.912  0.0119  0.3522  0.0819
  920MOL0     H24170   8.599   8.792   0.709  0.8328  1.1401 -2.8046
  920MOL0     H24171   8.764   8.836   0.746  1.2400  1.6734  4.1424
  920MOL0     H24172   8.530   8.989   0.889  0.3401 -0.8365 -0.4964
  920MOL0     H24173   8.703   9.036   0.854  1.3200  1.8432 -2.5605
  920MOL0     H24174   8.676   9.109   0.660 -1.4723  2.1130 -1.4525
  920MOL0     H24175   8.541   9.167   0.740 -0.2940 -0.6947 -0.0636
  920MOL0     H24176   8.491   9.085   0.508 -0.6308 -0.9566 -0.7138
  920MOL0     H24177   8.541   8.916   0.549  0.1514 -0.8934  2.6091
  920MOL0     H24178   8.307   9.072   0.668  0.9233 -0.2998  0.5638
  920MOL0     H24179   8.343   8.901   0.717 -0.8026  0.7042  0.0437
  920MOL0     H24180   8.246   9.027   0.465 -0.9056  1.9416  3.0341
  920MOL0     H24181   8.159   8.914   0.557  1.0608 -1.2530  0.9832
  920MOL0     H24182   8.607   8.316   1.024 -1.2866 -0.5372 -1.6151
  920MOL0     H24183   8.463   8.155   1.149  2.7060  0.0152  1.0246
  920MOL0     H24184   8.229   7.992   1.402  0.0777  0.7751 -0.8242
  920MOL0     H24185   8.118   7.830   1.533  0.4864  1.5470  1.4596
  920MOL0     H24186   7.584   7.288   1.078  1.4936  0.7537 -0.3753
  920MOL0     H24187   7.698   7.461   0.983 -0.0930 -0.2520 -1.0369
  920MOL0     H24188   7.979   7.898   1.147 -1.7826 -0.9022 -0.8089
  920MOL0     H24189   8.130   8.042   1.056  5.7973 -0.0647  1.4887
  920MOL0     H24190   8.192   8.179   0.881  0.1681 -0.5669 -2.0016
  920MOL0     H24191   8.346   8.113   0.951 -0.9863 -0.6291  0.5230
  920MOL0     H24192   8.472   8.214   0.812 -0.1859 -0.0859 -0.1539
  920MOL0     H24193   8.345   8.324   0.782  1.1112  1.4494 -2.5496
  920MOL0     H24194   8.284   8.227   0.570 -0.8965  2.8372  2.6156
  920MOL0     H24195   8.358   8.075   0.602  2.2877 -0.0020 -2.3942
  920MOL0     H24196   8.491   8.171   0.455 -1.1591 -1.2411  0.4706
  920MOL0     H24197   8.594   8.198   0.598  1.5846  3.5935 -0.4647
  920MOL0     H24198   8.501   8.595   0.493  4.4659  1.0529 -0.0907
  920MOL0     H24199   8.184   7.768   0.723  0.2100 -0.5936 -1.3991
  920MOL0     H24200   8.039   7.603   0.839  0.1363 -1.8202  1.2288
  921MOL0     O24201   1.606   9.335   0.029  0.8748 -0.7615 -0.1794
  921MOL0     C24202   1.579   9.291   0.139 -0.6724  0.6322  0.3462
  921MOL0     O24203   1.675   9.275   0.241  0.4950 -0.5016 -0.2383
  921MOL0     C24204   1.805   9.278   0.212 -0.4504  0.0783  0.5177
  921MOL0     C24205   1.868   9.387   0.159 -0.2935 -0.2517 -0.7314
  921MOL0     C24206   2.002   9.382   0.116  0.2481  0.4892  0.5714
  921MOL0     C24207   2.079   9.264   0.139  0.4864 -0.7291 -1.4790
  921MOL0     O24208   2.200   9.266   0.084 -0.4506  0.0538  0.1374
  921MOL0     C24209   2.298   9.180   0.130 -0.2261  0.2767 -0.5592
  921MOL0     C24210   2.445   9.230   0.090  0.3767  0.3278  0.3071
  921MOL0     C24211   2.466   9.382   0.096  0.2060  0.6464  0.2769
  921MOL0     C24212   2.615   9.404   0.103  0.8712 -0.0146  0.8446
  921MOL0     C24213   2.628   9.552   0.120 -0.6782 -0.7456  0.0047
  921MOL0     C24214   2.763   9.606   0.171 -0.1003 -0.4339  0.4413
  921MOL0     C24215   2.880   9.564   0.082 -0.4034  0.4112  0.0014
  921MOL0     C24216   3.009   9.621   0.151  0.3242 -0.4054  0.4729
  921MOL0     N24217   3.116   9.595   0.064 -0.1063 -0.3427 -0.6652
  921MOL0     C24218   3.219   9.510   0.089 -0.3590 -0.3323 -0.1890
  921MOL0     C24219   3.278   9.487  -0.028  0.6797  0.4788  0.5441
  921MOL0     C24220   3.403   9.405  -0.044  1.7001  0.0854 -0.7046
  921MOL0     C24221   3.514   9.468   0.040 -0.2627 -0.1634 -0.6743
  921MOL0     C24222   3.642   9.396   0.022 -0.4312 -0.4586  0.0541
  921MOL0     C24223   3.682   9.298   0.138 -0.5762  0.5152  0.0491
  921MOL0     O24224   3.581   9.196   0.160 -0.3829  0.5380 -0.7274
  921MOL0     C24225   3.612   9.074   0.215  0.5651 -0.3703  0.1865
  921MOL0     C24226   3.503   8.984   0.220 -0.0148 -0.7039 -1.2031
  921MOL0     C24227   3.511   8.865   0.284 -0.4847 -0.1988 -0.5097
  921MOL0     C24228   3.384   8.778   0.294 -0.4053  0.2473 -0.3861
  921MOL0     C24229   3.634   8.826   0.344 -0.4936  0.1716 -0.0684
  921MOL0     C24230   3.656   8.694   0.411 -0.2057 -1.1968  0.3200
  921MOL0     O24231   3.771   8.688   0.493  0.4215  1.1365  0.2083
  921MOL0     C24232   3.800   8.562   0.545  0.1801 -0.7972 -0.2574
  921MOL0     C24233   3.719   8.470   0.617 -0.0291  0.5210 -0.0978
  921MOL0     C24234   3.779   8.359   0.679  0.2811  0.4233  0.4075
  921MOL0     C24235   3.910   8.330   0.658 -0.0349  0.1957  0.2152
  921MOL0     O24236   3.962   8.212   0.707 -0.0773  0.3408  0.1299
  921MOL0     C24237   4.045   8.133   0.619  0.3373 -0.1919 -0.2825
  921MOL0     C24238   4.078   8.004   0.685  0.8885  0.2056  0.6514
  921MOL0     C24239   4.146   8.004   0.827  0.5971  1.0049  0.3073
  921MOL0     C24240   4.286   8.042   0.829 -0.4991 -0.1053 -1.0975
  921MOL0     C24241   4.368   7.932   0.772 -0.6566 -0.6002  0.0565
  921MOL0     C24242   4.519   7.978   0.760  0.9342 -0.8722  0.4433
  921MOL0     C24243   4.593   8.021   0.887  0.5788  0.7928 -0.7036
  921MOL0     C24244   4.743   8.064   0.874 -0.1919  0.4397  0.2630
  921MOL0    Cl24245   4.845   7.936   0.791 -0.1710  0.3203  0.2773
  921MOL0     C24246   3.989   8.404   0.579  0.2858  0.0352 -0.4894
  921MOL0     C24247   3.936   8.532   0.529 -0.3477  0.4191  0.1121
  921MOL0     O24248   3.599   8.604   0.356 -0.0352  0.5208 -0.5094
  921MOL0     C24249   3.741   8.916   0.347 -1.6958  0.0199 -0.5985
  921MOL0     C24250   3.732   9.043   0.283  0.2795  1.0498 -0.2385
  921MOL0     N24251   3.210   9.545  -0.132 -0.2861  0.1159  0.4454
  921MOL0     N24252   3.110   9.610  -0.073 -0.1634 -0.8230  0.6938
  921MOL0     C24253   2.013   9.149   0.196 -0.8732 -0.2577  0.5737
  921MOL0     C24254   1.878   9.164   0.228  0.1536  1.0298 -0.0535
  921MOL0     C24255   1.439   9.287   0.173  0.3606 -0.7221 -1.0930
  921MOL0     C24256   1.336   9.284   0.072 -1.1391  0.9902 -0.3431
  921MOL0     C24257   1.204   9.282   0.113 -0.5080 -0.4078 -0.0055
  921MOL0     C24258   1.169   9.297   0.247 -0.2559 -0.9130 -0.1951
  921MOL0     O24259   1.044   9.279   0.290 -0.0131  0.1405  0.1606
  921MOL0     C24260   0.928   9.314   0.208  0.6782 -0.2501  0.5456
  921MOL0     C24261   0.826   9.385   0.299 -0.4183 -0.0657 -0.8412
  921MOL0     C24262   0.781   9.299   0.413 -0.3717 -0.1761 -0.8806
  921MOL0     C24263   0.695   9.178   0.361  0.5144 -0.1125 -0.3078
  921MOL0     C24264   0.638   9.116   0.477  0.3226 -0.5607 -1.1528
  921MOL0     C24265   0.601   9.065   0.581  0.2216 -0.2406  0.0547
  921MOL0     C24266   1.265   9.302   0.347  0.3332 -0.3958 -0.5416
  921MOL0     C24267   1.402   9.298   0.310  0.1410  0.5183 -0.3571
  921MOL0     H24268   1.815   9.481   0.146  1.4541  0.8734 -0.2406
  921MOL0     H24269   2.068   9.455   0.070 -1.2332  2.8834  2.0812
  921MOL0     H24270   2.289   9.182   0.239 -1.8825  0.4735 -0.6638
  921MOL0     H24271   2.275   9.079   0.094 -1.4021  0.1781  0.3713
  921MOL0     H24272   2.530   9.184   0.142  1.4536  1.9499  0.0704
  921MOL0     H24273   2.449   9.202  -0.016  1.3877 -1.8378  0.8611
  921MOL0     H24274   2.423   9.433   0.009  1.4893  2.8493  0.8526
  921MOL0     H24275   2.415   9.415   0.187 -1.4223  1.2734 -0.8124
  921MOL0     H24276   2.641   9.363   0.201  0.2426 -1.8721  0.2736
  921MOL0     H24277   2.676   9.368   0.020  1.2300  3.6682 -0.6413
  921MOL0     H24278   2.620   9.592   0.018 -1.1039  2.0894  1.0734
  921MOL0     H24279   2.540   9.580   0.179  0.3791  0.9834  0.8146
  921MOL0     H24280   2.766   9.713   0.193  3.0608 -0.7148  1.8916
  921MOL0     H24281   2.782   9.567   0.272  3.0925 -0.9558 -0.2806
  921MOL0     H24282   2.884   9.455   0.068  1.1119 -0.2011  3.8577
  921MOL0     H24283   2.865   9.615  -0.014  0.4426  1.8416  0.5992
  921MOL0     H24284   3.022   9.575   0.249  0.7753  0.3960  0.7978
  921MOL0     H24285   2.995   9.728   0.170 -2.9075 -0.7473  0.6370
  921MOL0     H24286   3.245   9.462   0.183 -1.3119 -1.7360 -0.6117
  921MOL0     H24287   3.367   9.311  -0.003 -1.2365  1.8235  0.9973
  921MOL0     H24288   3.422   9.401  -0.152  1.3254  1.3659 -0.8354
  921MOL0     H24289   3.483   9.468   0.145 -1.9913  2.6073 -1.0818
  921MOL0     H24290   3.530   9.570   0.005 -0.3991  1.1015  2.6647
  921MOL0     H24291   3.720   9.473   0.031  1.1138 -1.8148 -1.0972
  921MOL0     H24292   3.639   9.348  -0.076 -0.6796  1.0778 -0.7234
  921MOL0     H24293   3.705   9.352   0.230  1.6476  0.2845 -0.3300
  921MOL0     H24294   3.773   9.250   0.102 -0.1595  0.6799  0.8732
  921MOL0     H24295   3.402   9.013   0.192 -0.9701  0.1311  2.5858
  921MOL0     H24296   3.355   8.776   0.400  0.6694  0.7176 -0.0597
  921MOL0     H24297   3.301   8.815   0.233  0.8578 -0.9191 -2.9713
  921MOL0     H24298   3.406   8.678   0.256 -1.1628  0.0665 -0.3687
  921MOL0     H24299   3.615   8.496   0.634 -0.2355 -0.5745  0.3447
  921MOL0     H24300   3.724   8.290   0.743 -2.5364  0.6820 -1.5672
  921MOL0     H24301   3.993   8.128   0.523  2.9153  0.8432 -1.8436
  921MOL0     H24302   4.145   8.168   0.591 -0.1988  0.0441 -2.0902
  921MOL0     H24303   3.987   7.946   0.701 -1.1956  3.6439  2.4459
  921MOL0     H24304   4.130   7.941   0.612  0.6878  0.7692  0.0094
  921MOL0     H24305   4.127   7.907   0.874 -2.2460  0.9222 -0.7798
  921MOL0     H24306   4.085   8.067   0.891 -0.6318  1.5634 -1.3484
  921MOL0     H24307   4.303   8.136   0.775  0.1578  0.5331  0.1825
  921MOL0     H24308   4.319   8.049   0.933 -1.8651 -3.5627 -0.3088
  921MOL0     H24309   4.331   7.911   0.671  1.0910  2.8517 -1.4617
  921MOL0     H24310   4.357   7.845   0.837 -0.8593 -1.1796 -0.7353
  921MOL0     H24311   4.577   7.900   0.709  0.0353 -1.5639  0.4524
  921MOL0     H24312   4.513   8.064   0.692  0.6869 -0.1139  1.4061
  921MOL0     H24313   4.580   7.933   0.950 -0.9782  1.3669 -0.1802
  921MOL0     H24314   4.537   8.105   0.929 -1.7144  0.5769 -3.0516
  921MOL0     H24315   4.775   8.082   0.977 -2.2629  1.5793  0.7684
  921MOL0     H24316   4.755   8.162   0.827  0.0911 -0.0598 -0.7445
  921MOL0     H24317   4.091   8.377   0.554  0.2684 -2.2787  1.5205
  921MOL0     H24318   4.003   8.592   0.468  0.1074  1.3629  1.4818
  921MOL0     H24319   3.837   8.888   0.390 -2.3735  0.9058  1.6797
  921MOL0     H24320   3.810   9.119   0.283  0.9742  0.4401 -2.6736
  921MOL0     H24321   2.069   9.056   0.205 -1.7653 -0.6012  3.3861
  921MOL0     H24322   1.831   9.072   0.259  2.6654 -0.4227 -0.2390
  921MOL0     H24323   1.368   9.281  -0.031  0.0039 -1.2682  0.0112
  921MOL0     H24324   1.118   9.266   0.048 -0.9418  0.1013  0.4234
  921MOL0     H24325   0.942   9.380   0.123  1.9089 -0.7850  0.3156
  921MOL0     H24326   0.878   9.225   0.167  3.3539 -1.7565  0.3482
  921MOL0     H24327   0.744   9.413   0.233  0.4850  2.7897 -0.8809
  921MOL0     H24328   0.877   9.476   0.332  1.6235 -0.7100 -2.0071
  921MOL0     H24329   0.723   9.359   0.483  0.7248 -1.1937  0.9965
  921MOL0     H24330   0.873   9.274   0.467 -0.4399  1.5592  0.1025
  921MOL0     H24331   0.761   9.108   0.309  1.0919 -0.9917  1.5493
  921MOL0     H24332   0.616   9.196   0.286  2.6832 -2.4386 -3.4365
  921MOL0     H24333   0.554   9.026   0.670  0.8424  1.3910  1.1441
  921MOL0     H24334   1.227   9.313   0.448 -1.8184 -0.0614 -1.3192
  921MOL0     H24335   1.480   9.296   0.386 -2.1086 -1.2102  2.0798
  922MOL0     O24336   4.150   5.220   2.866  0.1737 -0.0271 -0.2620
  922MOL0     C24337   4.250   5.205   2.935 -0.4149 -0.8170  0.6201
  922MOL0     O24338   4.318   5.308   2.997 -0.1740  0.2564  0.7073
  922MOL0     C24339   4.275   5.435   2.981  0.0475 -0.4912 -0.1810
  922MOL0     C24340   4.203   5.499   3.080  0.1260  0.7367 -0.0928
  922MOL0     C24341   4.172   5.638   3.070  0.0276  0.6349 -0.1124
  922MOL0     C24342   4.199   5.701   2.950  0.1348 -0.9938 -0.2377
  922MOL0     O24343   4.175   5.832   2.928  0.1034  0.4480  0.0698
  922MOL0     C24344   4.153   5.900   3.045 -0.3673 -0.4352 -0.7679
  922MOL0     C24345   4.155   6.041   3.001 -0.6204 -0.0811 -0.5995
  922MOL0     C24346   4.053   6.084   2.898 -1.0308  0.9140  0.8955
  922MOL0     C24347   3.911   6.018   2.910 -0.5116  0.8365 -0.6729
  922MOL0     C24348   3.816   6.079   2.814  0.2421 -0.9161  0.0218
  922MOL0     C24349   3.672   6.017   2.840 -0.7110 -0.9124 -0.8560
  922MOL0     C24350   3.562   6.065   2.753 -0.4723  0.9885  0.2141
  922MOL0     C24351   3.448   5.955   2.748  0.4393 -0.3424  0.1473
  922MOL0     N24352   3.334   6.013   2.678 -0.3178 -0.6499 -0.2895
  922MOL0     C24353   3.315   6.022   2.543 -0.3231  0.3561  0.5045
  922MOL0     C24354   3.203   6.092   2.524 -0.2157 -0.4995 -0.4776
  922MOL0     C24355   3.135   6.131   2.395 -0.4900  1.0299 -0.4386
  922MOL0     C24356   3.128   6.276   2.337 -0.6596 -0.2601 -0.3079
  922MOL0     C24357   3.059   6.277   2.201 -0.2563  0.5815  0.1100
  922MOL0     C24358   2.919   6.212   2.209 -0.4008 -0.1602 -0.2688
  922MOL0     O24359   2.843   6.286   2.309 -0.0123  0.6806 -0.1263
  922MOL0     C24360   2.736   6.227   2.366 -0.4093 -0.0828 -0.0825
  922MOL0     C24361   2.702   6.093   2.371 -0.3831  0.6023  0.2995
  922MOL0     C24362   2.589   6.039   2.437 -0.7229  0.6467  0.4749
  922MOL0     C24363   2.585   5.888   2.438  0.3600 -0.4313 -0.1173
  922MOL0     C24364   2.500   6.127   2.495 -0.4134  0.2918 -0.4231
  922MOL0     C24365   2.377   6.080   2.570 -0.9379  0.2294  0.4438
  922MOL0     O24366   2.378   5.946   2.614  0.6076  0.5231  0.5220
  922MOL0     C24367   2.288   5.899   2.705  0.7801 -0.5127  0.5824
  922MOL0     C24368   2.340   5.815   2.804  1.1042  0.4248  0.4360
  922MOL0     C24369   2.262   5.755   2.902  1.2132 -0.2666 -0.7235
  922MOL0     C24370   2.123   5.781   2.908 -0.7194 -0.0097 -0.0538
  922MOL0     O24371   2.054   5.730   3.019  0.0455  0.8506  0.0969
  922MOL0     C24372   1.908   5.719   3.025  1.3602 -0.2321 -0.5927
  922MOL0     C24373   1.859   5.585   2.948 -0.7217 -0.2880  0.1620
  922MOL0     C24374   1.894   5.455   3.031 -0.2367 -0.0449 -0.6757
  922MOL0     C24375   1.830   5.335   2.969  1.6713  0.1197  0.6591
  922MOL0     C24376   1.880   5.204   3.045  0.1851  0.0083 -0.3356
  922MOL0     C24377   1.845   5.068   2.981 -0.3012 -0.4824  0.6235
  922MOL0     C24378   1.691   5.041   2.948 -0.7544  1.0231  0.3118
  922MOL0     C24379   1.673   4.901   2.884  0.9540  0.5002  0.4858
  922MOL0    Cl24380   1.528   4.883   2.783  0.0224 -0.2294 -0.1217
  922MOL0     C24381   2.075   5.874   2.820 -0.0998  0.8269 -0.8823
  922MOL0     C24382   2.153   5.925   2.713  0.1172 -0.3154  0.4066
  922MOL0     O24383   2.288   6.161   2.593 -0.2854  0.0779 -0.1136
  922MOL0     C24384   2.537   6.265   2.496  0.5431  0.4607 -0.8966
  922MOL0     C24385   2.651   6.314   2.440 -0.7281 -0.0230  0.6260
  922MOL0     N24386   3.160   6.134   2.656 -0.1868 -0.8603 -0.3862
  922MOL0     N24387   3.241   6.090   2.739 -0.1007 -0.8864 -1.5274
  922MOL0     C24388   4.262   5.636   2.845  0.0882 -0.7738 -0.7270
  922MOL0     C24389   4.299   5.504   2.866  0.1943  0.6094 -0.3721
  922MOL0     C24390   4.303   5.070   2.942  0.6039 -0.8658 -0.5222
  922MOL0     C24391   4.240   4.953   2.896  0.9439  0.8105 -0.2185
  922MOL0     C24392   4.303   4.828   2.926 -0.4552 -0.0484  0.1068
  922MOL0     C24393   4.436   4.821   2.989 -0.2993 -0.5943  0.2853
  922MOL0     O24394   4.486   4.700   3.010  0.4214 -0.1710  0.0769
  922MOL0     C24395   4.612   4.673   3.061  0.2274  0.2764 -1.1583
  922MOL0     C24396   4.646   4.531   3.044  0.0557  0.2318 -0.2540
  922MOL0     C24397   4.789   4.490   3.089 -0.0296  0.4847 -0.5637
  922MOL0     C24398   4.896   4.549   3.007 -0.1797 -1.0903 -0.0718
  922MOL0     C24399   5.023   4.482   3.033  0.3070  0.5699 -0.5547
  922MOL0     C24400   5.123   4.421   3.041 -0.3558  0.8031  0.6176
  922MOL0     C24401   4.503   4.935   3.019  0.9982 -0.2292 -0.4918
  922MOL0     C24402   4.436   5.049   3.005  0.1584 -0.2623 -0.0014
  922MOL0     H24403   4.192   5.443   3.172  1.6762  0.9717  0.2590
  922MOL0     H24404   4.137   5.693   3.157 -2.8360 -1.3536  0.1363
  922MOL0     H24405   4.058   5.878   3.096 -0.8096  2.3302 -0.2398
  922MOL0     H24406   4.241   5.876   3.106 -2.0613  2.0996  3.0547
  922MOL0     H24407   4.162   6.108   3.088  1.4304 -1.2307  0.1746
  922MOL0     H24408   4.250   6.055   2.950 -0.4212 -0.5102 -0.3455
  922MOL0     H24409   4.036   6.192   2.897  0.7731  1.2107 -0.0972
  922MOL0     H24410   4.092   6.055   2.800  2.3429  0.6132  2.2096
  922MOL0     H24411   3.906   5.911   2.889  1.4228  0.5175  0.2176
  922MOL0     H24412   3.885   6.015   3.016 -1.7155 -1.8579 -0.9665
  922MOL0     H24413   3.817   6.187   2.829 -0.7945 -0.9184  0.2090
  922MOL0     H24414   3.842   6.061   2.709 -1.6224 -1.5115 -0.3770
  922MOL0     H24415   3.678   5.911   2.813  1.4329 -0.8409 -0.7989
  922MOL0     H24416   3.644   6.018   2.945 -3.9644 -1.6186 -1.5991
  922MOL0     H24417   3.517   6.152   2.802 -2.5236 -0.9285  1.9872
  922MOL0     H24418   3.599   6.078   2.651 -1.4426 -1.6139 -0.5621
  922MOL0     H24419   3.428   5.939   2.855 -1.8263  3.3771  0.4650
  922MOL0     H24420   3.478   5.862   2.699  1.1115 -0.6598  1.1228
  922MOL0     H24421   3.371   5.972   2.464 -3.5117 -1.5562 -0.7647
  922MOL0     H24422   3.183   6.076   2.313 -0.9667 -0.2964  0.1489
  922MOL0     H24423   3.033   6.093   2.410 -0.3867  0.9951  0.1817
  922MOL0     H24424   3.232   6.306   2.321 -0.4425 -0.8184  0.0245
  922MOL0     H24425   3.076   6.346   2.404 -0.8270  1.7313 -2.3707
  922MOL0     H24426   3.111   6.217   2.126 -1.8199 -2.3711  1.2158
  922MOL0     H24427   3.052   6.382   2.173 -2.6181  0.5786  0.4301
  922MOL0     H24428   2.928   6.104   2.223 -1.4697 -0.3452 -0.9030
  922MOL0     H24429   2.864   6.232   2.116 -2.8520  2.2738  1.5251
  922MOL0     H24430   2.770   6.025   2.321 -0.1038  0.4026  0.9406
  922MOL0     H24431   2.655   5.827   2.381  1.9747  1.5914 -0.4357
  922MOL0     H24432   2.595   5.845   2.538  1.1788  0.1013  0.0384
  922MOL0     H24433   2.496   5.857   2.382  1.8554 -1.6713 -1.9144
  922MOL0     H24434   2.446   5.796   2.806  0.9774 -1.4042  5.9739
  922MOL0     H24435   2.305   5.686   2.974 -0.8179 -0.1073  0.7239
  922MOL0     H24436   1.881   5.713   3.131 -2.7430  0.1472 -1.4637
  922MOL0     H24437   1.858   5.808   2.987 -2.0970 -1.1193  1.4310
  922MOL0     H24438   1.753   5.598   2.925 -0.2508  3.0090 -0.6660
  922MOL0     H24439   1.908   5.575   2.851  0.1707 -1.3459  0.7071
  922MOL0     H24440   1.849   5.473   3.129  2.2414 -2.0572  0.9388
  922MOL0     H24441   2.001   5.440   3.048 -0.8434 -2.2146  1.7353
  922MOL0     H24442   1.721   5.333   2.959  1.4622  1.4116  2.1862
  922MOL0     H24443   1.863   5.337   2.865 -0.1826  1.1866  0.0376
  922MOL0     H24444   1.833   5.207   3.144 -2.7118  0.5543 -1.6376
  922MOL0     H24445   1.986   5.207   3.069  0.4121 -3.2495 -0.4788
  922MOL0     H24446   1.901   5.061   2.887 -2.0929  0.1261 -0.5509
  922MOL0     H24447   1.883   4.981   3.034 -2.0084 -2.5014 -1.2605
  922MOL0     H24448   1.661   5.115   2.873 -2.7422 -0.3327 -0.3103
  922MOL0     H24449   1.621   5.048   3.031 -1.4232 -1.1462 -0.0028
  922MOL0     H24450   1.668   4.837   2.972 -4.4516  1.6905  1.4211
  922MOL0     H24451   1.761   4.884   2.820 -0.0808  0.6675 -1.0415
  922MOL0     H24452   1.970   5.900   2.820  0.1336  2.3829 -4.6439
  922MOL0     H24453   2.103   5.986   2.639 -0.4412 -0.4722  0.6494
  922MOL0     H24454   2.472   6.334   2.548 -0.1100 -0.5146 -0.3987
  922MOL0     H24455   2.673   6.419   2.457 -2.4246 -0.0687  3.7997
  922MOL0     H24456   4.278   5.700   2.759 -1.4765  2.8253  1.4430
  922MOL0     H24457   4.356   5.453   2.789  1.1252 -0.9779  1.2922
  922MOL0     H24458   4.146   4.960   2.843  1.0427  0.6896 -0.4095
  922MOL0     H24459   4.254   4.732   2.913  0.6081 -0.6818  0.6816
  922MOL0     H24460   4.693   4.735   3.022 -0.0833 -0.0700 -2.3924
  922MOL0     H24461   4.615   4.699   3.167 -3.0485 -2.6493 -0.1492
  922MOL0     H24462   4.639   4.505   2.938  2.2073 -0.6961 -0.2165
  922MOL0     H24463   4.587   4.464   3.107  0.6144 -0.6663 -0.6663
  922MOL0     H24464   4.791   4.382   3.077  0.5607 -0.3771  4.7020
  922MOL0     H24465   4.802   4.525   3.192  0.8742 -0.3191 -0.3891
  922MOL0     H24466   4.910   4.655   3.031 -1.9645 -0.5749 -1.0976
  922MOL0     H24467   4.870   4.538   2.902  0.4494 -0.5217 -0.2902
  922MOL0     H24468   5.204   4.350   3.043 -2.1393 -1.4143 -1.1008
  922MOL0     H24469   4.606   4.940   3.052  0.1996 -0.8751  2.3825
  922MOL0     H24470   4.482   5.138   3.047  0.6006  0.5754 -2.1356
  923MOL0     O24471   1.862   9.061  10.243  0.4942  0.0011 -0.1459
  923MOL0     C24472   1.848   8.966  10.313 -0.5727  0.0157  0.0694
  923MOL0     O24473   1.725   8.928  10.358 -0.0919  0.1432  0.1917
  923MOL0     C24474   1.617   9.006  10.331 -0.7788  0.6787  0.0907
  923MOL0     C24475   1.545   9.037  10.440  0.7930 -0.6060 -0.6444
  923MOL0     C24476   1.432   9.118  10.416 -0.6926 -0.1938  0.4950
  923MOL0     C24477   1.401   9.164  10.286  0.2007  0.0190 -0.9034
  923MOL0     O24478   1.296   9.251  10.261 -0.4544  0.3730  0.8615
  923MOL0     C24479   1.239   9.338  10.355 -0.6295  0.6187  0.5028
  923MOL0     C24480   1.107   9.407  10.305  0.0708 -0.1621  0.1780
  923MOL0     C24481   1.000   9.321  10.234 -0.7489 -0.1959  0.2072
  923MOL0     C24482   0.884   9.409  10.181  0.5848  0.0058 -0.2032
  923MOL0     C24483   0.763   9.327  10.143 -1.3829  0.2989  0.5789
  923MOL0     C24484   0.670   9.280  10.251  0.5044  0.6746 -0.2817
  923MOL0     C24485   0.691   9.130  10.269  0.5460  0.4143 -0.5198
  923MOL0     C24486   0.621   9.049  10.160 -0.2702  0.2642 -0.3861
  923MOL0     N24487   0.467   9.046  10.171 -0.2910  0.0681  0.5538
  923MOL0     C24488   0.382   9.083  10.069 -0.6547 -0.8304  0.8569
  923MOL0     C24489   0.261   9.041  10.098 -0.2581  0.3071  0.4527
  923MOL0     C24490   0.135   9.038  10.019 -0.8182 -0.6149 -0.8532
  923MOL0     C24491   0.130   8.910   9.923 -0.3685  0.2591 -1.2903
  923MOL0     C24492   0.027   8.809   9.980 -0.1355  1.3033  0.6307
  923MOL0     C24493   0.036   8.675   9.906  0.3214  0.0406 -0.1750
  923MOL0     O24494   0.164   8.611   9.927 -0.2139  0.5728 -0.2505
  923MOL0     C24495   0.198   8.497   9.856  0.3426 -0.0200 -0.9297
  923MOL0     C24496   0.100   8.406   9.810 -0.4086  0.0937  0.4161
  923MOL0     C24497   0.137   8.280   9.748 -0.3844  0.0394 -0.0405
  923MOL0     C24498   0.028   8.194   9.700 -0.8373  0.0132 -0.0634
  923MOL0     C24499   0.274   8.245   9.739 -0.3763  0.3920 -0.2012
  923MOL0     C24500   0.319   8.110   9.687 -0.2723 -0.0956  0.3973
  923MOL0     O24501   0.260   8.073   9.571 -0.4329 -0.2536  0.0052
  923MOL0     C24502   0.327   7.972   9.499 -0.4964 -0.0974 -0.4793
  923MOL0     C24503   0.465   7.975   9.467 -0.3026 -0.0998 -0.4343
  923MOL0     C24504   0.518   7.882   9.385  0.0463 -0.4307  0.0522
  923MOL0     C24505   0.444   7.785   9.322  0.2613  0.2502 -0.5620
  923MOL0     O24506   0.495   7.699   9.230 -0.2522  0.1375 -0.5842
  923MOL0     C24507   0.623   7.722   9.167 -0.0549  1.0910 -0.5943
  923MOL0     C24508   0.737   7.666   9.265  0.4526 -0.5932  0.3473
  923MOL0     C24509   0.797   7.524   9.230  0.4943 -0.5448 -0.5397
  923MOL0     C24510   0.897   7.462   9.324  0.1475  0.0353  0.7247
  923MOL0     C24511   0.946   7.321   9.271 -0.7001 -0.4821 -0.6964
  923MOL0     C24512   1.025   7.245   9.373  0.0862  0.9512  0.1655
  923MOL0     C24513   1.141   7.317   9.444  0.2716 -0.1838  0.5355
  923MOL0     C24514   1.254   7.355   9.357  0.3342  0.0915  0.0119
  923MOL0    Cl24515   1.320   7.190   9.295  0.4555 -0.2624 -0.3038
  923MOL0     C24516   0.312   7.775   9.361 -0.1013  1.5458  0.0204
  923MOL0     C24517   0.254   7.868   9.444 -0.4589  0.1132 -0.0151
  923MOL0     O24518   0.418   8.060   9.744  0.3277 -0.3345 -0.5885
  923MOL0     C24519   0.373   8.338   9.784 -0.7617 -0.1858 -0.1481
  923MOL0     C24520   0.331   8.463   9.846 -0.0540 -0.0344 -0.5503
  923MOL0     N24521   0.270   8.969  10.214  0.4918  0.3863  0.2042
  923MOL0     N24522   0.389   8.975  10.260 -0.2479  0.8229 -0.4176
  923MOL0     C24523   1.465   9.119  10.173  0.3543 -1.1166  0.2448
  923MOL0     C24524   1.581   9.040  10.199  0.6114  0.4152 -0.7365
  923MOL0     C24525   1.969   8.882  10.344  0.1111 -0.1382 -0.1271
  923MOL0     C24526   2.087   8.913  10.274  0.0415 -0.3668  0.1343
  923MOL0     C24527   2.202   8.827  10.288 -0.2907 -0.7737 -0.4292
  923MOL0     C24528   2.206   8.741  10.404 -0.4468  0.1848  0.6793
  923MOL0     O24529   2.325   8.681  10.434  0.1368  0.4680 -0.2441
  923MOL0     C24530   2.317   8.596  10.554  1.0335 -0.0726  0.0520
  923MOL0     C24531   2.456   8.536  10.592  0.2937  0.5751 -0.0139
  923MOL0     C24532   2.449   8.445  10.715  0.2687  0.4508  0.8041
  923MOL0     C24533   2.579   8.357  10.739 -0.1137  0.1233 -0.8046
  923MOL0     C24534   2.675   8.446  10.822 -0.1429  0.1705  0.9555
  923MOL0     C24535   2.747   8.522  10.881 -0.3614 -0.6509 -0.0869
  923MOL0     C24536   2.089   8.720  10.471 -0.5710 -0.7152  0.4561
  923MOL0     C24537   1.974   8.786  10.443 -0.9207  0.0100  1.0863
  923MOL0     H24538   1.581   9.000  10.535  1.1878 -1.8936 -1.2822
  923MOL0     H24539   1.380   9.154  10.504  2.3396  1.6199  1.7312
  923MOL0     H24540   1.216   9.275  10.441  1.7273  4.3727  4.2491
  923MOL0     H24541   1.313   9.413  10.383 -0.5345  0.6631  0.1378
  923MOL0     H24542   1.073   9.466  10.390 -1.1676 -1.5640  0.6896
  923MOL0     H24543   1.131   9.476  10.223 -0.3794 -0.6579 -0.3766
  923MOL0     H24544   1.044   9.271  10.148  2.1861  1.2875  0.7177
  923MOL0     H24545   0.969   9.249  10.310  0.0262 -0.8461 -0.0830
  923MOL0     H24546   0.858   9.490  10.249 -3.6069 -2.6376  1.7753
  923MOL0     H24547   0.920   9.447  10.085  0.0711  1.6480  0.2345
  923MOL0     H24548   0.705   9.403  10.090 -1.6280  1.4790  2.4394
  923MOL0     H24549   0.801   9.251  10.074 -1.5516  0.3507  0.4294
  923MOL0     H24550   0.688   9.335  10.345 -0.5944  1.3769 -0.4678
  923MOL0     H24551   0.569   9.290  10.212  0.0870  2.2683  1.0697
  923MOL0     H24552   0.794   9.097  10.280 -0.0582 -0.6974  2.7476
  923MOL0     H24553   0.640   9.099  10.361 -2.1898  2.0129 -1.3641
  923MOL0     H24554   0.657   8.947  10.176 -1.0431  0.1791  1.0199
  923MOL0     H24555   0.649   9.075  10.058  2.3551 -1.4908 -0.2093
  923MOL0     H24556   0.397   9.147   9.983 -2.8182 -1.1326  0.2006
  923MOL0     H24557   0.051   9.033  10.089  0.2054  0.4870  0.5010
  923MOL0     H24558   0.133   9.129   9.957 -0.5373 -0.3066 -0.4179
  923MOL0     H24559   0.228   8.865   9.908 -1.1678 -0.8640 -3.6076
  923MOL0     H24560   0.086   8.957   9.835 -0.0522  2.4257 -0.3534
  923MOL0     H24561  -0.075   8.848   9.976 -0.4345  0.5190  0.3194
  923MOL0     H24562   0.053   8.785  10.083  2.9864  2.2925  0.1949
  923MOL0     H24563   0.017   8.688   9.799  1.7449 -3.5663 -1.0218
  923MOL0     H24564  -0.024   8.598   9.955  0.9232  0.8063  1.8696
  923MOL0     H24565  -0.006   8.426   9.815 -0.3982  0.1587  0.3715
  923MOL0     H24566  -0.062   8.206   9.761 -0.3558  0.8554  0.4885
  923MOL0     H24567   0.006   8.214   9.594  1.4947 -1.8443 -0.9905
  923MOL0     H24568   0.054   8.088   9.709 -1.2259  0.0420  1.6841
  923MOL0     H24569   0.537   8.042   9.513  0.0825 -0.5646 -0.3599
  923MOL0     H24570   0.625   7.884   9.366  0.4907  1.8910  2.3039
  923MOL0     H24571   0.632   7.665   9.074  0.6297  2.0283 -1.1275
  923MOL0     H24572   0.647   7.825   9.138 -2.8327  0.7217 -5.1668
  923MOL0     H24573   0.818   7.739   9.277 -0.6406  0.5885  0.6800
  923MOL0     H24574   0.700   7.654   9.367  1.4930  3.2987  1.3243
  923MOL0     H24575   0.835   7.518   9.127 -0.0155 -5.7558 -0.7201
  923MOL0     H24576   0.704   7.465   9.225 -1.2863  2.1717 -2.0010
  923MOL0     H24577   0.976   7.536   9.335  2.7383 -2.2038 -1.3949
  923MOL0     H24578   0.849   7.438   9.419 -2.9899  3.2132  0.1652
  923MOL0     H24579   1.020   7.339   9.193  2.3510 -1.3533  1.7718
  923MOL0     H24580   0.863   7.262   9.232  0.0418 -0.5594 -2.2288
  923MOL0     H24581   0.957   7.219   9.455  2.3468 -1.1108  1.5319
  923MOL0     H24582   1.047   7.149   9.325 -1.1323  0.7156  0.0315
  923MOL0     H24583   1.180   7.260   9.528 -0.5454  0.0816  1.1089
  923MOL0     H24584   1.123   7.409   9.500  1.0622 -0.0728  0.6220
  923MOL0     H24585   1.329   7.414   9.412  1.1227 -0.8844  0.0340
  923MOL0     H24586   1.212   7.420   9.281  0.1707  0.5875  0.5230
  923MOL0     H24587   0.256   7.698   9.310  0.3540  2.1888 -1.5276
  923MOL0     H24588   0.146   7.868   9.454 -0.7685 -1.0600 -2.5794
  923MOL0     H24589   0.478   8.313   9.780 -0.1834  1.9076  0.6396
  923MOL0     H24590   0.407   8.530   9.885 -0.0589  0.9484 -2.1304
  923MOL0     H24591   1.451   9.152  10.071  1.6029  0.6614  0.6130
  923MOL0     H24592   1.649   9.005  10.123  1.2467 -0.4813  0.2161
  923MOL0     H24593   2.086   8.998  10.205 -2.8285  1.0661  1.7424
  923MOL0     H24594   2.296   8.848  10.237  0.6469 -2.5912  0.4475
  923MOL0     H24595   2.290   8.665  10.634 -2.0559  0.0510 -0.9589
  923MOL0     H24596   2.241   8.518  10.553  1.5008 -0.5829  1.8814
  923MOL0     H24597   2.528   8.616  10.609  1.9406 -0.9751  0.6943
  923MOL0     H24598   2.475   8.473  10.505 -1.1030  0.1033 -0.0071
  923MOL0     H24599   2.368   8.372  10.711  1.8614 -1.3451 -0.6627
  923MOL0     H24600   2.436   8.498  10.810  2.9399  2.9526 -0.0965
  923MOL0     H24601   2.616   8.314  10.646 -0.6212  0.3858 -1.1324
  923MOL0     H24602   2.549   8.275  10.805  2.2250  1.0861  1.6451
  923MOL0     H24603   2.812   8.590  10.931 -2.3048  3.0642 -2.0930
  923MOL0     H24604   2.070   8.653  10.554 -1.9969  0.2737  0.9665
  923MOL0     H24605   1.881   8.747  10.483 -2.2958  1.9420 -0.0358
  924MOL0     O24606   4.863  10.256   4.149  0.1650 -0.6579  1.1991
  924MOL0     C24607   4.918  10.214   4.049  0.4243 -0.7015  1.1480
  924MOL0     O24608   4.857  10.170   3.936  0.3625  1.0625  0.0529
  924MOL0     C24609   4.717  10.191   3.916 -0.2548 -0.8520 -0.0436
  924MOL0     C24610   4.654  10.310   3.963 -0.1776  0.7063 -0.1602
  924MOL0     C24611   4.517  10.320   3.937  0.1805  0.1102 -0.2574
  924MOL0     C24612   4.443  10.237   3.862  1.4448 -0.6993 -0.0652
  924MOL0     O24613   4.302  10.257   3.849 -0.4477  0.2240 -0.2188
  924MOL0     C24614   4.217  10.168   3.777  0.1986 -0.1480  0.8267
  924MOL0     C24615   4.073  10.202   3.802 -0.2241 -0.5543 -0.0197
  924MOL0     C24616   3.972  10.117   3.730 -0.4114 -1.1488 -1.1804
  924MOL0     C24617   3.971   9.971   3.779 -0.0370 -1.0141 -0.1867
  924MOL0     C24618   3.845   9.909   3.736  0.7237  0.0792  0.2621
  924MOL0     C24619   3.835   9.755   3.758  0.3169 -0.8168 -0.3463
  924MOL0     C24620   3.727   9.679   3.676  0.2241  1.2389  0.1828
  924MOL0     C24621   3.726   9.541   3.728  0.0374  0.1931  0.6279
  924MOL0     N24622   3.629   9.458   3.659  1.0003 -0.4314 -0.2464
  924MOL0     C24623   3.485   9.487   3.674 -0.5204  0.1353 -0.4327
  924MOL0     C24624   3.429   9.415   3.565  0.4734  0.0390 -0.9436
  924MOL0     C24625   3.290   9.420   3.522  0.3939 -0.3940 -0.0078
  924MOL0     C24626   3.245   9.568   3.480  0.6552 -1.1404  0.3081
  924MOL0     C24627   3.316   9.641   3.365  0.2473  0.2495  0.4968
  924MOL0     C24628   3.231   9.750   3.304  0.5279 -0.4806 -0.7781
  924MOL0     O24629   3.157   9.818   3.410 -0.1629 -0.0665 -0.8536
  924MOL0     C24630   3.242   9.898   3.497  1.1056  0.2681  0.0532
  924MOL0     C24631   3.363   9.953   3.463  0.4129  0.5214 -0.3001
  924MOL0     C24632   3.442  10.029   3.552  0.3796  0.0092 -0.4002
  924MOL0     C24633   3.579  10.082   3.523  0.0271  0.3412 -0.5225
  924MOL0     C24634   3.387  10.045   3.679 -0.2026 -0.2975 -0.3513
  924MOL0     C24635   3.444  10.122   3.797 -0.3092 -0.9803  0.2624
  924MOL0     O24636   3.561  10.086   3.855 -0.1716  0.6498 -0.1479
  924MOL0     C24637   3.599  10.167   3.959 -0.8237 -0.3906 -0.2698
  924MOL0     C24638   3.641  10.301   3.942  0.4780 -0.5150  0.6813
  924MOL0     C24639   3.704  10.377   4.043 -0.5086  0.7844  0.0831
  924MOL0     C24640   3.720  10.333   4.171 -0.6023  0.7801 -1.1742
  924MOL0     O24641   3.773  10.415   4.271  0.0320  0.4214  0.5223
  924MOL0     C24642   3.781  10.369   4.407 -0.5423 -0.8525 -0.1522
  924MOL0     C24643   3.891  10.462   4.470  0.5351  0.0708  0.1992
  924MOL0     C24644   3.833  10.608   4.488 -0.1432  0.2495  0.5670
  924MOL0     C24645   3.931  10.696   4.576  0.0699 -0.8181  0.4426
  924MOL0     C24646   3.872  10.840   4.613  0.4447  0.7796  0.0366
  924MOL0     C24647   3.914  10.947   4.505 -1.1728  0.9218  0.7371
  924MOL0     C24648   3.836  11.076   4.540 -0.4185  0.9420 -1.0685
  924MOL0     C24649   3.812  11.139   4.404  0.6424 -0.4353  0.6606
  924MOL0    Cl24650   3.683  11.042   4.319 -0.4608 -0.5015  0.3225
  924MOL0     C24651   3.664  10.203   4.203 -0.0069 -0.4589 -0.1382
  924MOL0     C24652   3.610  10.120   4.100 -1.1401  0.1915 -0.4969
  924MOL0     O24653   3.379  10.220   3.829 -0.2199 -0.2763  0.5748
  924MOL0     C24654   3.260   9.991   3.710 -0.2611 -0.3985  0.7367
  924MOL0     C24655   3.189   9.927   3.623  0.1307  0.0939  0.4462
  924MOL0     N24656   3.527   9.352   3.496  0.7803 -0.3457 -0.3335
  924MOL0     N24657   3.643   9.383   3.541 -0.4644 -0.3876  0.3258
  924MOL0     C24658   4.509  10.134   3.818  0.6791  0.6480  0.0478
  924MOL0     C24659   4.645  10.099   3.844  0.8460 -0.1634 -1.1773
  924MOL0     C24660   5.072  10.201   4.040  0.8714  0.0794  0.6566
  924MOL0     C24661   5.154  10.264   4.129 -0.6241  0.6684 -0.1002
  924MOL0     C24662   5.297  10.247   4.130  0.2473 -0.4388  0.2407
  924MOL0     C24663   5.356  10.160   4.027 -0.1538 -0.1304  0.0681
  924MOL0     O24664   5.495  10.137   4.000  0.5476  0.1284  0.1574
  924MOL0     C24665   5.583  10.156   4.107 -0.0527  1.0594 -0.3228
  924MOL0     C24666   5.712  10.092   4.078  0.4873 -0.8147  0.2352
  924MOL0     C24667   5.712   9.949   4.020 -0.4882 -0.5959  0.7410
  924MOL0     C24668   5.726   9.842   4.135  0.8569 -0.7734  0.5283
  924MOL0     C24669   5.600   9.826   4.208  0.0798  0.2304 -0.0662
  924MOL0     C24670   5.502   9.800   4.277  0.6449  1.8209  0.5542
  924MOL0     C24671   5.274  10.105   3.928  0.2923  0.1775 -0.0396
  924MOL0     C24672   5.139  10.120   3.940  0.7037 -0.0548 -1.1762
  924MOL0     H24673   4.709  10.386   4.017  2.8293 -0.1700 -1.6812
  924MOL0     H24674   4.476  10.405   3.990 -0.0486 -1.2603  1.9181
  924MOL0     H24675   4.236  10.171   3.669 -1.1212  1.8436  0.6082
  924MOL0     H24676   4.220  10.069   3.824 -4.0771 -0.0856  1.6801
  924MOL0     H24677   4.060  10.188   3.910  1.0824 -1.6192  0.0149
  924MOL0     H24678   4.070  10.310   3.782 -0.1930 -0.1555  1.9111
  924MOL0     H24679   3.877  10.169   3.748 -0.2621 -2.0059  2.8351
  924MOL0     H24680   3.989  10.117   3.622  2.1539 -1.7243 -0.8210
  924MOL0     H24681   4.051   9.914   3.731  1.0761 -0.7297  1.2745
  924MOL0     H24682   3.983   9.970   3.888  1.2377  1.5988 -0.2201
  924MOL0     H24683   3.762   9.962   3.783  1.4848  1.3635  0.2091
  924MOL0     H24684   3.831   9.926   3.629  0.6090  0.4099  0.3287
  924MOL0     H24685   3.934   9.720   3.729  0.0926 -1.8689  0.1210
  924MOL0     H24686   3.836   9.725   3.863  0.6378 -0.3009 -0.1985
  924MOL0     H24687   3.631   9.729   3.690 -0.6312  0.2995 -1.8883
  924MOL0     H24688   3.769   9.683   3.575  7.0146  2.4421  2.5035
  924MOL0     H24689   3.702   9.532   3.834 -1.5815 -4.8684  0.1177
  924MOL0     H24690   3.823   9.499   3.700  1.6359  4.0403 -0.2524
  924MOL0     H24691   3.439   9.561   3.738 -1.0094  1.1006 -1.8334
  924MOL0     H24692   3.291   9.349   3.439  0.2054  0.5515 -0.8345
  924MOL0     H24693   3.214   9.385   3.593 -2.0384  1.8484 -1.3350
  924MOL0     H24694   3.250   9.635   3.566 -1.2757  0.1595 -0.5446
  924MOL0     H24695   3.137   9.566   3.463  0.5741  0.0639  0.5885
  924MOL0     H24696   3.334   9.570   3.284 -1.6905  1.0457 -0.7133
  924MOL0     H24697   3.413   9.670   3.406  0.4140 -0.1240  0.3652
  924MOL0     H24698   3.168   9.688   3.240  3.8812 -5.0180 -0.2410
  924MOL0     H24699   3.287   9.819   3.241 -1.2928  0.2314 -1.6798
  924MOL0     H24700   3.412   9.915   3.374  0.8544 -0.8083  0.4850
  924MOL0     H24701   3.652  10.013   3.564  0.6916 -0.3226 -2.6998
  924MOL0     H24702   3.597  10.086   3.415  0.4074 -0.5817 -0.5013
  924MOL0     H24703   3.601  10.179   3.570 -2.6026  0.2122  1.1406
  924MOL0     H24704   3.641  10.345   3.843  0.8394 -1.6267  0.1729
  924MOL0     H24705   3.729  10.478   4.010  1.2188  0.7500  1.1807
  924MOL0     H24706   3.685  10.381   4.458 -0.8447 -0.4898 -0.7957
  924MOL0     H24707   3.812  10.265   4.422 -2.8679 -1.3310  2.1699
  924MOL0     H24708   3.928  10.412   4.560  0.4805 -1.6506 -0.6771
  924MOL0     H24709   3.969  10.474   4.394 -0.2627 -0.5845 -0.7531
  924MOL0     H24710   3.738  10.600   4.541 -0.8458 -0.9007 -0.8005
  924MOL0     H24711   3.830  10.662   4.393  0.1986 -1.0725 -0.2298
  924MOL0     H24712   3.942  10.648   4.674  1.7273 -1.4012  0.0154
  924MOL0     H24713   4.030  10.704   4.529 -0.8298  0.4453 -1.3682
  924MOL0     H24714   3.918  10.891   4.698  0.9773  2.3452 -1.1423
  924MOL0     H24715   3.763  10.847   4.607  0.5284  1.2681 -1.9318
  924MOL0     H24716   4.022  10.961   4.495 -1.1248  0.1745  0.0991
  924MOL0     H24717   3.883  10.918   4.404 -0.8597  1.0086  0.6137
  924MOL0     H24718   3.905  11.143   4.592 -1.9881  0.1045  2.3875
  924MOL0     H24719   3.745  11.062   4.600  0.9544  0.4763  0.9971
  924MOL0     H24720   3.907  11.154   4.352  0.9909  0.1157  1.4403
  924MOL0     H24721   3.772  11.239   4.425  0.4514 -0.3843  0.0855
  924MOL0     H24722   3.680  10.155   4.298  0.8886 -0.8065 -0.4509
  924MOL0     H24723   3.576  10.024   4.135  1.9607 -1.7588 -2.3307
  924MOL0     H24724   3.213  10.015   3.805  0.8058 -1.6432  1.6122
  924MOL0     H24725   3.085   9.899   3.639 -0.5096  0.4636 -2.4290
  924MOL0     H24726   4.446  10.063   3.766  2.0214 -1.0908  0.6489
  924MOL0     H24727   4.707  10.012   3.825 -2.1786 -3.4786  2.5162
  924MOL0     H24728   5.107  10.309   4.216 -1.5761 -2.1308  0.9693
  924MOL0     H24729   5.355  10.305   4.201 -0.7065  0.4990  0.2846
  924MOL0     H24730   5.603  10.263   4.118  2.1742  0.5993  0.5069
  924MOL0     H24731   5.541  10.126   4.204  0.8040 -0.8306 -0.5003
  924MOL0     H24732   5.768  10.095   4.172  0.5759 -2.5567  0.2709
  924MOL0     H24733   5.761  10.158   4.007  1.1445 -1.2325  0.2894
  924MOL0     H24734   5.809   9.939   3.970 -0.0534  1.2592  1.1392
  924MOL0     H24735   5.626   9.924   3.957  1.7276 -2.1921 -1.8994
  924MOL0     H24736   5.798   9.880   4.209 -0.1302  0.2495  0.9851
  924MOL0     H24737   5.751   9.741   4.101 -0.5637 -0.8897 -0.2370
  924MOL0     H24738   5.414   9.776   4.335  0.8682 -1.5894 -0.3226
  924MOL0     H24739   5.315  10.040   3.851 -0.8650 -0.2771 -0.2845
  924MOL0     H24740   5.073  10.071   3.869  0.3907 -0.0415 -0.8919
  925MOL0     O24741   1.135   9.658   4.175 -0.5684  0.4627 -0.3948
  925MOL0     C24742   1.032   9.651   4.111  0.3228 -0.2748 -0.1691
  925MOL0     O24743   0.908   9.709   4.149 -0.9929 -0.6014  1.2080
  925MOL0     C24744   0.890   9.774   4.269 -0.5054  0.6450 -0.0990
  925MOL0     C24745   0.779   9.738   4.332 -0.3546  0.4287 -0.0273
  925MOL0     C24746   0.736   9.806   4.440  0.4983 -0.4649 -0.5210
  925MOL0     C24747   0.818   9.903   4.503  0.0821 -0.0469 -0.4990
  925MOL0     O24748   0.793   9.973   4.616 -0.2045 -0.0750  0.5544
  925MOL0     C24749   0.655  10.001   4.638  0.1347  0.6855 -0.2432
  925MOL0     C24750   0.659  10.120   4.743  0.3541  0.3948  0.4300
  925MOL0     C24751   0.517  10.171   4.777 -0.1208 -0.7263  0.1491
  925MOL0     C24752   0.435  10.074   4.864 -0.5932  0.1249  0.8982
  925MOL0     C24753   0.296  10.120   4.893  0.2617  0.4277 -0.0155
  925MOL0     C24754   0.209  10.170   4.779  0.5277 -0.4498 -0.0055
  925MOL0     C24755   0.070  10.219   4.829 -0.3777  0.0531 -0.0325
  925MOL0     C24756  -0.001  10.260   4.707  0.0111 -0.0804  0.1988
  925MOL0     N24757  -0.148  10.285   4.710 -0.4305  0.3436 -0.3209
  925MOL0     C24758  -0.202  10.390   4.774  0.0026 -1.0456  0.8845
  925MOL0     C24759  -0.322  10.400   4.709 -0.0820  1.5807 -0.2573
  925MOL0     C24760  -0.435  10.499   4.748  0.1152 -0.2537  0.0262
  925MOL0     C24761  -0.550  10.430   4.825 -0.5770  1.1339  0.7002
  925MOL0     C24762  -0.677  10.516   4.814  0.2935  0.7900 -0.5542
  925MOL0     C24763  -0.794  10.473   4.887 -0.0085 -0.3155 -0.5238
  925MOL0     O24764  -0.900  10.566   4.854  0.0899 -0.6522 -0.2710
  925MOL0     C24765  -1.032  10.539   4.900 -0.0662  0.9842 -0.5656
  925MOL0     C24766  -1.121  10.646   4.886 -0.7494  0.8104 -0.1375
  925MOL0     C24767  -1.244  10.639   4.942 -0.0149 -0.5054  0.0866
  925MOL0     C24768  -1.330  10.759   4.929 -0.0559 -1.4925 -0.4935
  925MOL0     C24769  -1.279  10.519   5.018 -1.0160  0.0505 -0.3150
  925MOL0     C24770  -1.416  10.498   5.069 -0.4289 -0.5370 -0.3193
  925MOL0     O24771  -1.522  10.578   5.026 -0.1193  0.9324  0.5851
  925MOL0     C24772  -1.643  10.561   5.083 -0.1193  0.4739 -0.3281
  925MOL0     C24773  -1.752  10.563   5.008  0.0878 -1.4617  0.0194
  925MOL0     C24774  -1.880  10.580   5.069 -0.2411 -0.1981  0.1996
  925MOL0     C24775  -1.891  10.599   5.212 -0.1657 -0.5140  0.2886
  925MOL0     O24776  -2.005  10.603   5.278  0.4256 -0.5638  0.3596
  925MOL0     C24777  -2.105  10.499   5.258  0.0413 -0.3999 -0.0183
  925MOL0     C24778  -2.231  10.560   5.203  0.2553 -0.5206  0.2091
  925MOL0     C24779  -2.312  10.657   5.297 -0.1823  1.1271  0.5741
  925MOL0     C24780  -2.410  10.564   5.381  0.2266 -0.2935  0.6079
  925MOL0     C24781  -2.513  10.483   5.289 -0.6321  0.8619 -1.5278
  925MOL0     C24782  -2.642  10.442   5.359  0.4183 -0.3608 -0.7342
  925MOL0     C24783  -2.711  10.563   5.422 -0.1176 -0.6310 -0.6092
  925MOL0     C24784  -2.854  10.573   5.383  0.0879  0.0559 -0.5477
  925MOL0    Cl24785  -2.958  10.692   5.476 -0.6203 -0.2318  0.3894
  925MOL0     C24786  -1.776  10.606   5.289 -0.3550 -0.3317  1.2039
  925MOL0     C24787  -1.658  10.591   5.220 -0.4952  0.0070 -0.0097
  925MOL0     O24788  -1.426  10.414   5.155  0.5443  0.6850 -0.5159
  925MOL0     C24789  -1.182  10.419   5.041 -0.4417 -0.4587 -0.2060
  925MOL0     C24790  -1.061  10.428   4.980 -0.2216  0.1235 -0.7503
  925MOL0     N24791  -0.338  10.300   4.612  0.0921  0.5429 -0.3611
  925MOL0     N24792  -0.233  10.236   4.607 -0.2587 -0.4316 -0.3586
  925MOL0     C24793   0.941   9.926   4.452  0.2760  0.5635 -0.0635
  925MOL0     C24794   0.970   9.879   4.324  1.3174 -0.1677  0.4246
  925MOL0     C24795   1.033   9.580   3.982 -0.5934 -0.5280 -0.6226
  925MOL0     C24796   1.154   9.548   3.918  0.1669  0.8202 -0.3475
  925MOL0     C24797   1.152   9.472   3.799  1.3237  0.4720 -0.4814
  925MOL0     C24798   1.028   9.445   3.733 -0.8731  0.2538 -0.0426
  925MOL0     O24799   1.038   9.390   3.610  0.0618 -0.3090  0.1110
  925MOL0     C24800   0.929   9.412   3.523 -0.1056 -0.4709 -0.0668
  925MOL0     C24801   0.915   9.552   3.476 -0.8504 -0.5505  0.2783
  925MOL0     C24802   0.838   9.554   3.338  0.6069  0.8275 -0.3213
  925MOL0     C24803   0.684   9.586   3.357 -0.9136 -0.3723  0.4594
  925MOL0     C24804   0.658   9.727   3.400 -1.2370  0.1395  0.6155
  925MOL0     C24805   0.621   9.829   3.445 -0.0369 -0.1382 -0.6743
  925MOL0     C24806   0.910   9.495   3.797  0.7976 -0.0676 -0.8436
  925MOL0     C24807   0.912   9.557   3.918 -0.1258 -0.6271  0.6095
  925MOL0     H24808   0.722   9.650   4.305 -1.2171  0.6629  0.9894
  925MOL0     H24809   0.651   9.776   4.500  0.7322 -0.2636 -0.0850
  925MOL0     H24810   0.598  10.038   4.552 -0.7944  1.2983  0.6229
  925MOL0     H24811   0.595   9.915   4.667 -2.7340  2.5497 -0.2964
  925MOL0     H24812   0.718  10.082   4.828 -1.5112 -1.5137  0.9750
  925MOL0     H24813   0.714  10.197   4.689  1.7127 -2.0195 -1.8857
  925MOL0     H24814   0.527  10.260   4.839 -2.2645 -1.0132  0.9805
  925MOL0     H24815   0.463  10.185   4.683 -0.5569  1.2329  0.6602
  925MOL0     H24816   0.423   9.982   4.808 -0.8509 -0.4318  1.8389
  925MOL0     H24817   0.493  10.049   4.953  0.5883  1.9492  0.7051
  925MOL0     H24818   0.250  10.035   4.943  1.8240  0.4247  1.5094
  925MOL0     H24819   0.309  10.204   4.962  2.9150  1.6355 -1.8098
  925MOL0     H24820   0.258  10.248   4.720 -0.2839  0.1750  0.1491
  925MOL0     H24821   0.199  10.088   4.707  3.3663 -1.6408  0.8180
  925MOL0     H24822   0.018  10.139   4.882 -1.2977  0.9909  0.5172
  925MOL0     H24823   0.081  10.309   4.890  1.2118 -0.5177  0.5802
  925MOL0     H24824   0.023  10.186   4.630 -1.5831  0.3017 -0.7178
  925MOL0     H24825   0.046  10.356   4.684  1.3386 -0.2728  1.9515
  925MOL0     H24826  -0.169  10.454   4.854  2.6848 -1.9468  0.5923
  925MOL0     H24827  -0.396  10.565   4.826 -1.4930  0.2924  0.3984
  925MOL0     H24828  -0.469  10.555   4.661 -0.4292  0.3994  0.6487
  925MOL0     H24829  -0.510  10.422   4.926  0.9369  1.1836  0.1341
  925MOL0     H24830  -0.573  10.340   4.767 -0.3852  0.4310  1.6924
  925MOL0     H24831  -0.699  10.533   4.708  2.2046 -0.5974 -1.2456
  925MOL0     H24832  -0.665  10.615   4.859 -4.6605  1.5731 -0.3518
  925MOL0     H24833  -0.768  10.479   4.993  3.0248 -0.1826 -1.1780
  925MOL0     H24834  -0.814  10.368   4.865  2.3604 -1.0732  0.6118
  925MOL0     H24835  -1.090  10.729   4.824 -1.7848  0.7113 -0.8006
  925MOL0     H24836  -1.261  10.838   4.901 -0.0512 -0.5631  1.9367
  925MOL0     H24837  -1.424  10.759   4.872 -0.7141  0.4777  0.5001
  925MOL0     H24838  -1.358  10.784   5.032  0.4013 -1.5200 -0.3619
  925MOL0     H24839  -1.737  10.566   4.901  3.0843 -1.1135  0.3721
  925MOL0     H24840  -1.971  10.587   5.011  0.7852  0.4091 -1.4018
  925MOL0     H24841  -2.061  10.420   5.196 -0.4644  0.3280 -1.3441
  925MOL0     H24842  -2.131  10.437   5.345 -0.2487 -0.5849 -0.2337
  925MOL0     H24843  -2.199  10.619   5.117 -2.0725 -3.0470 -2.6070
  925MOL0     H24844  -2.292  10.480   5.160  0.7158  0.7080 -2.9696
  925MOL0     H24845  -2.365  10.711   5.219  0.1089  1.1822  0.4156
  925MOL0     H24846  -2.234  10.715   5.347  1.9898 -0.1190 -1.1866
  925MOL0     H24847  -2.350  10.502   5.450  2.7531  0.4676 -0.7865
  925MOL0     H24848  -2.462  10.639   5.441 -1.2471  0.0266 -0.9867
  925MOL0     H24849  -2.455  10.396   5.257  1.7973  1.8098 -0.0130
  925MOL0     H24850  -2.536  10.539   5.198  1.5689  1.5122 -1.7551
  925MOL0     H24851  -2.708  10.399   5.283 -3.1486  1.8403  0.8078
  925MOL0     H24852  -2.619  10.367   5.435  0.6666  1.0817  0.6771
  925MOL0     H24853  -2.667  10.651   5.373 -0.6936 -0.7637 -1.3778
  925MOL0     H24854  -2.693  10.568   5.530 -2.6791  2.7388 -0.1632
  925MOL0     H24855  -2.909  10.479   5.396 -1.9761  0.9510 -2.1652
  925MOL0     H24856  -2.845  10.602   5.278  1.5828  1.0128 -0.1812
  925MOL0     H24857  -1.777  10.624   5.396  0.5814  0.0670  1.1494
  925MOL0     H24858  -1.570  10.599   5.283 -1.0244  1.0171  0.6381
  925MOL0     H24859  -1.190  10.329   5.102  2.7440 -1.0920 -0.5197
  925MOL0     H24860  -0.988  10.349   4.990  4.2541  3.7337 -1.3540
  925MOL0     H24861   1.006  10.000   4.498  0.6267  0.8187 -0.9527
  925MOL0     H24862   1.058   9.907   4.267 -0.4947 -1.1780 -3.1638
  925MOL0     H24863   1.244   9.594   3.956 -0.6985  3.0190 -0.8133
  925MOL0     H24864   1.237   9.443   3.737  0.1915  3.4940 -3.8246
  925MOL0     H24865   0.959   9.348   3.440  1.9576  0.6597 -0.2572
  925MOL0     H24866   0.836   9.364   3.555  0.5087 -1.4548  0.2715
  925MOL0     H24867   1.020   9.580   3.457 -0.8652 -0.3061  0.5450
  925MOL0     H24868   0.881   9.630   3.545 -0.9369  1.8729 -2.3057
  925MOL0     H24869   0.857   9.461   3.284  0.4735  0.2508  0.6040
  925MOL0     H24870   0.879   9.637   3.279  2.7902 -0.5931 -0.9165
  925MOL0     H24871   0.627   9.516   3.420 -0.9679 -0.3821  0.4002
  925MOL0     H24872   0.646   9.558   3.258 -3.2403  1.1019  0.8617
  925MOL0     H24873   0.595   9.922   3.492  0.0953  0.4608 -1.7476
  925MOL0     H24874   0.818   9.486   3.741 -0.4182  2.9626  0.4442
  925MOL0     H24875   0.813   9.582   3.953 -1.0735 -4.6493  1.3140
  926MOL0     O24876   3.444   7.256   3.856  0.0487  0.8154  0.3347
  926MOL0     C24877   3.388   7.219   3.751  0.3329  0.8692  0.2285
  926MOL0     O24878   3.363   7.085   3.718  0.1711  0.2156 -0.8022
  926MOL0     C24879   3.442   6.995   3.783  0.4787  0.1315  0.0156
  926MOL0     C24880   3.569   6.954   3.737  0.6823 -0.2633 -0.1537
  926MOL0     C24881   3.647   6.854   3.797 -0.7411 -0.5662 -0.0824
  926MOL0     C24882   3.589   6.805   3.919 -0.3574 -0.0293 -0.7036
  926MOL0     O24883   3.656   6.725   4.009  0.3287 -0.2286  0.4599
  926MOL0     C24884   3.738   6.627   3.949 -0.2479  0.2574  1.0925
  926MOL0     C24885   3.754   6.521   4.060 -0.0844 -0.2088 -0.0657
  926MOL0     C24886   3.870   6.421   4.027 -0.0861  0.3601 -0.1953
  926MOL0     C24887   3.858   6.308   4.129 -0.5919  0.7101  0.0906
  926MOL0     C24888   3.940   6.191   4.082  0.0918  0.0503  0.4005
  926MOL0     C24889   3.969   6.093   4.195  0.4094  1.0841  0.2861
  926MOL0     C24890   4.037   5.954   4.162  0.1645  0.6330  0.4310
  926MOL0     C24891   4.095   5.882   4.286  0.1730  0.6548 -0.0972
  926MOL0     N24892   4.143   5.740   4.253 -0.0035 -0.1356 -0.4985
  926MOL0     C24893   4.266   5.703   4.228 -0.1277  0.1368 -1.3163
  926MOL0     C24894   4.262   5.566   4.230  0.2325  0.3748  0.0001
  926MOL0     C24895   4.383   5.478   4.223  0.8017 -0.6512  0.2709
  926MOL0     C24896   4.465   5.471   4.353 -0.3007  0.2515 -0.6373
  926MOL0     C24897   4.592   5.383   4.339 -0.5811 -0.4204 -0.3323
  926MOL0     C24898   4.653   5.363   4.478  0.3231  0.0387 -0.2621
  926MOL0     O24899   4.771   5.283   4.466 -0.2240  0.6584  0.6608
  926MOL0     C24900   4.818   5.233   4.584 -0.0917 -0.7466 -0.7350
  926MOL0     C24901   4.745   5.183   4.685  0.9913  0.2303 -0.4845
  926MOL0     C24902   4.811   5.142   4.801  0.3753 -0.2833  0.3945
  926MOL0     C24903   4.702   5.109   4.911 -0.0131  0.1924  0.2743
  926MOL0     C24904   4.954   5.143   4.821 -0.5258  0.4108  0.2746
  926MOL0     C24905   5.039   5.103   4.934  0.6101 -0.2438 -0.1091
  926MOL0     O24906   5.177   5.097   4.907  0.0020 -1.0028 -0.1403
  926MOL0     C24907   5.257   5.088   5.017  0.1414 -0.5153  0.7880
  926MOL0     C24908   5.296   4.963   5.065  0.0941 -0.5662 -0.2574
  926MOL0     C24909   5.389   4.942   5.172 -0.0250  0.3313 -1.2405
  926MOL0     C24910   5.449   5.047   5.227 -1.1664 -0.2670  0.2462
  926MOL0     O24911   5.522   5.018   5.343 -0.2771  0.1475 -0.0496
  926MOL0     C24912   5.636   5.099   5.384  0.5543  0.2713 -0.3816
  926MOL0     C24913   5.760   5.053   5.312 -0.0318  0.5256 -1.0115
  926MOL0     C24914   5.875   5.146   5.349 -0.8318 -0.1162  0.5597
  926MOL0     C24915   5.998   5.144   5.251 -0.5525 -1.2676 -0.2547
  926MOL0     C24916   6.095   5.260   5.284 -0.3405  0.0568  0.2753
  926MOL0     C24917   6.224   5.225   5.204  0.3359 -0.4062  0.4532
  926MOL0     C24918   6.329   5.332   5.240  0.1407  0.5758  0.2954
  926MOL0     C24919   6.472   5.290   5.202  0.0462 -0.1632 -0.2189
  926MOL0    Cl24920   6.527   5.140   5.297  0.0753  0.2023 -0.0123
  926MOL0     C24921   5.424   5.175   5.178  1.0348  0.0630  0.0076
  926MOL0     C24922   5.333   5.191   5.074 -0.1481  0.5036 -0.4924
  926MOL0     O24923   4.988   5.099   5.043  0.5929 -0.4147  0.2289
  926MOL0     C24924   5.021   5.192   4.710  0.3060 -0.7359 -0.4130
  926MOL0     C24925   4.958   5.221   4.587  1.2068  0.9299  0.2230
  926MOL0     N24926   4.134   5.527   4.241 -0.5149  0.1317  0.0824
  926MOL0     N24927   4.065   5.626   4.256 -0.8690 -0.5990 -0.5485
  926MOL0     C24928   3.464   6.847   3.970  0.7864  0.8126  0.3812
  926MOL0     C24929   3.391   6.947   3.902 -0.7287 -0.2160  0.0866
  926MOL0     C24930   3.329   7.325   3.664  0.5249 -0.8674  0.0171
  926MOL0     C24931   3.310   7.460   3.710 -0.4232  0.9882  0.1290
  926MOL0     C24932   3.245   7.552   3.625 -0.7054  0.1487 -0.3913
  926MOL0     C24933   3.202   7.515   3.496 -0.2967 -0.6264  0.3239
  926MOL0     O24934   3.152   7.615   3.421 -1.2820  0.4334 -0.0455
  926MOL0     C24935   3.059   7.577   3.324  0.5630 -0.2784 -0.0217
  926MOL0     C24936   2.958   7.693   3.300  0.6863  0.1719 -0.9637
  926MOL0     C24937   2.875   7.662   3.177 -0.7420  0.6843  0.0980
  926MOL0     C24938   2.768   7.769   3.137  0.4225  0.0873  0.4077
  926MOL0     C24939   2.667   7.809   3.234  0.0111  1.7629 -0.4167
  926MOL0     C24940   2.596   7.833   3.327 -0.0698  0.9418 -0.6797
  926MOL0     C24941   3.208   7.382   3.455  0.0006 -0.1584 -0.4969
  926MOL0     C24942   3.275   7.283   3.533  0.0599 -0.5251 -0.6319
  926MOL0     H24943   3.613   7.005   3.652 -0.5424 -2.3338 -2.1216
  926MOL0     H24944   3.744   6.820   3.762 -1.0013  0.2240 -1.6927
  926MOL0     H24945   3.698   6.584   3.857  1.1921  2.2240 -0.5563
  926MOL0     H24946   3.832   6.664   3.908 -0.2680 -2.3085 -1.6088
  926MOL0     H24947   3.788   6.563   4.155 -2.6085  1.8184  0.0515
  926MOL0     H24948   3.655   6.477   4.073 -1.0672  2.1227  0.8332
  926MOL0     H24949   3.870   6.400   3.920  2.5015  1.8690 -0.5791
  926MOL0     H24950   3.970   6.463   4.046  0.1644  0.3639 -1.4752
  926MOL0     H24951   3.889   6.340   4.229  1.8302 -0.5518 -0.1675
  926MOL0     H24952   3.753   6.278   4.137 -0.3253  0.2383  2.3841
  926MOL0     H24953   3.884   6.145   3.999  1.7948 -0.4495 -0.5108
  926MOL0     H24954   4.031   6.237   4.042  1.1077 -1.3339  1.0399
  926MOL0     H24955   4.016   6.147   4.278 -1.7519  0.7655  1.8105
  926MOL0     H24956   3.869   6.069   4.234  0.6883 -0.6207  0.0314
  926MOL0     H24957   3.970   5.876   4.126  1.8962 -1.1898  0.9659
  926MOL0     H24958   4.121   5.965   4.093  0.7347 -1.4790  0.7170
  926MOL0     H24959   4.018   5.887   4.364  1.1227  3.4681  0.7778
  926MOL0     H24960   4.181   5.934   4.328 -0.3568 -0.2016  2.2169
  926MOL0     H24961   4.361   5.756   4.220  1.0130 -1.6454 -0.2040
  926MOL0     H24962   4.340   5.383   4.192 -2.6781  0.9301 -0.2924
  926MOL0     H24963   4.449   5.529   4.152  2.7635  3.7044  4.5826
  926MOL0     H24964   4.403   5.429   4.432 -1.1567  0.2690 -1.2831
  926MOL0     H24965   4.495   5.571   4.384 -1.5548 -0.0358  1.6811
  926MOL0     H24966   4.666   5.435   4.277 -1.8168 -0.0470 -1.5523
  926MOL0     H24967   4.563   5.284   4.303  1.2355 -1.0846 -0.0821
  926MOL0     H24968   4.575   5.328   4.547  3.0047 -1.1586  2.3934
  926MOL0     H24969   4.699   5.458   4.506  2.5286 -1.1220  0.3330
  926MOL0     H24970   4.637   5.194   4.681  0.8498  0.1798  1.7652
  926MOL0     H24971   4.741   5.131   5.011 -1.9379  3.4606  0.4544
  926MOL0     H24972   4.604   5.155   4.899  1.1598  2.3963 -1.9904
  926MOL0     H24973   4.685   5.001   4.905 -1.1014  0.3545  0.2480
  926MOL0     H24974   5.268   4.873   5.012  2.0374 -2.7550  2.1572
  926MOL0     H24975   5.428   4.847   5.208  2.4492  1.6562 -0.1706
  926MOL0     H24976   5.613   5.204   5.365 -0.0489  0.2185  0.0247
  926MOL0     H24977   5.665   5.080   5.488 -1.8657 -1.0567  0.1205
  926MOL0     H24978   5.791   4.951   5.336 -2.8662  0.1336  1.7584
  926MOL0     H24979   5.741   5.065   5.205 -0.5397  0.0894 -0.9730
  926MOL0     H24980   5.903   5.106   5.447  1.2077  0.2244  0.1523
  926MOL0     H24981   5.840   5.246   5.375  1.4261  0.7292  0.5790
  926MOL0     H24982   6.039   5.042   5.254 -1.4868 -1.6444  0.3856
  926MOL0     H24983   5.973   5.160   5.146  0.5665  2.8441 -0.0449
  926MOL0     H24984   6.111   5.258   5.392  2.1780 -0.5242 -0.0569
  926MOL0     H24985   6.056   5.357   5.253  2.1435  1.3566  0.9996
  926MOL0     H24986   6.262   5.124   5.219  1.3492 -0.3852 -1.6460
  926MOL0     H24987   6.224   5.234   5.095  4.7868  2.1207  0.3954
  926MOL0     H24988   6.339   5.346   5.348  3.4559  1.3695 -0.0027
  926MOL0     H24989   6.302   5.428   5.194  1.2971  1.2758  1.0175
  926MOL0     H24990   6.542   5.371   5.226  0.5783 -1.2380  2.1561
  926MOL0     H24991   6.485   5.256   5.099 -2.5146 -2.3533  0.0794
  926MOL0     H24992   5.475   5.263   5.214  2.7310 -1.4310  1.4732
  926MOL0     H24993   5.317   5.287   5.025  1.3647  1.0580  0.0441
  926MOL0     H24994   5.128   5.200   4.696  0.1705 -1.0996 -1.7835
  926MOL0     H24995   5.018   5.264   4.508  0.3936  1.6443 -0.0166
  926MOL0     H24996   3.434   6.819   4.070  1.0232  1.3175  0.5960
  926MOL0     H24997   3.288   6.970   3.924 -0.4556  0.6883  0.4400
  926MOL0     H24998   3.351   7.500   3.803 -4.0286  0.1937  2.2768
  926MOL0     H24999   3.247   7.657   3.653 -0.5966  0.2019 -0.5917
  926MOL0     H25000   3.114   7.543   3.235  0.6760  2.4396 -1.0855
  926MOL0     H25001   3.001   7.492   3.361  0.8683 -1.3233 -1.8099
  926MOL0     H25002   3.016   7.784   3.286 -0.0651  1.5417  3.2510
  926MOL0     H25003   2.905   7.695   3.396  0.7845 -3.1504 -0.7108
  926MOL0     H25004   2.813   7.575   3.199 -1.4130  1.4008  1.1808
  926MOL0     H25005   2.935   7.630   3.092 -1.2332 -0.6863  0.2468
  926MOL0     H25006   2.715   7.726   3.052 -0.9907  1.0659  0.7543
  926MOL0     H25007   2.824   7.859   3.108 -1.5244  1.1747 -0.1766
  926MOL0     H25008   2.532   7.869   3.404  0.6323 -0.1819  0.4705
  926MOL0     H25009   3.165   7.356   3.358 -2.0436  0.5589  0.1708
  926MOL0     H25010   3.277   7.186   3.485 -0.5878 -1.8341  1.8307
  927MOL0     O25011   4.504  11.136   4.366 -0.1765  0.5821 -0.6619
  927MOL0     C25012   4.419  11.055   4.383  0.0056  0.5370  0.4218
  927MOL0     O25013   4.295  11.050   4.328 -0.5805  0.1294  0.1901
  927MOL0     C25014   4.245  11.165   4.277 -0.2492 -0.8924  1.0399
  927MOL0     C25015   4.172  11.149   4.158  0.7223 -0.0459  0.0974
  927MOL0     C25016   4.100  11.252   4.091 -0.4264  0.6697 -0.1787
  927MOL0     C25017   4.116  11.378   4.147  0.2306 -0.1069 -0.1357
  927MOL0     O25018   4.068  11.489   4.081  0.0047  0.0250  0.1717
  927MOL0     C25019   3.969  11.469   3.977  0.4262  0.2485 -0.5422
  927MOL0     C25020   3.830  11.428   4.032  0.0820  0.7696  0.2138
  927MOL0     C25021   3.757  11.520   4.130 -0.1066  0.3226  0.2894
  927MOL0     C25022   3.640  11.435   4.188  0.0286 -0.2082 -0.1673
  927MOL0     C25023   3.598  11.500   4.322  0.5688  0.4681 -0.9558
  927MOL0     C25024   3.499  11.409   4.400 -0.0171  0.0187  0.5198
  927MOL0     C25025   3.381  11.358   4.320  0.1153 -0.9771 -0.3655
  927MOL0     C25026   3.285  11.467   4.257  1.1380 -0.1109 -0.3231
  927MOL0     N25027   3.179  11.503   4.360 -0.3421  0.7785  0.5268
  927MOL0     C25028   3.064  11.420   4.380 -1.1248 -0.4332  0.6702
  927MOL0     C25029   3.012  11.476   4.492 -0.6134 -0.2797 -0.2756
  927MOL0     C25030   2.882  11.428   4.553 -0.2319  0.1219 -0.1932
  927MOL0     C25031   2.760  11.450   4.456  1.0462  0.5445 -0.3245
  927MOL0     C25032   2.614  11.438   4.515  0.2079  0.1727  0.1205
  927MOL0     C25033   2.590  11.319   4.614 -0.1707  1.0535  0.3699
  927MOL0     O25034   2.486  11.354   4.708  0.0294 -0.0171  0.3669
  927MOL0     C25035   2.415  11.252   4.780 -0.5451 -0.6820 -0.4251
  927MOL0     C25036   2.311  11.294   4.860  0.6083 -0.7279  1.7855
  927MOL0     C25037   2.229  11.195   4.931 -0.0882  0.1538 -0.4113
  927MOL0     C25038   2.135  11.243   5.042  0.3152 -0.4770 -0.5144
  927MOL0     C25039   2.260  11.054   4.909  0.2298 -0.8478 -0.9962
  927MOL0     C25040   2.185  10.938   4.972  0.2790 -0.0111 -0.4194
  927MOL0     O25041   2.240  10.809   4.961 -0.1027  0.6892 -0.2954
  927MOL0     C25042   2.184  10.694   5.023 -1.3085  0.0378 -0.1245
  927MOL0     C25043   2.277  10.601   5.067  0.6064  0.1941  0.4361
  927MOL0     C25044   2.232  10.496   5.152 -0.8255  0.7090 -0.0328
  927MOL0     C25045   2.101  10.488   5.196 -0.9251  0.6653 -0.0189
  927MOL0     O25046   2.076  10.383   5.283  0.0075  0.2040 -1.0787
  927MOL0     C25047   1.959  10.310   5.238 -0.0856 -0.9523 -0.4895
  927MOL0     C25048   1.931  10.185   5.306  0.5199 -0.9245 -0.2113
  927MOL0     C25049   2.041  10.092   5.254 -0.2675 -0.3623  0.1998
  927MOL0     C25050   2.080   9.989   5.358 -0.0510  0.5523  0.0705
  927MOL0     C25051   2.182  10.064   5.464  0.2496 -0.0596  0.5732
  927MOL0     C25052   2.273   9.970   5.543 -0.1499 -0.2226  0.0949
  927MOL0     C25053   2.325  10.033   5.669 -0.6282  0.8862  0.2011
  927MOL0     C25054   2.485  10.026   5.668  0.6216  0.0692  0.4957
  927MOL0    Cl25055   2.550  10.133   5.537  0.2342 -0.3183  0.4768
  927MOL0     C25056   2.014  10.579   5.159  0.2368 -0.3060  0.6413
  927MOL0     C25057   2.052  10.677   5.071  0.2833  0.2140  0.1724
  927MOL0     O25058   2.083  10.959   5.032  0.8748 -1.2011 -0.0349
  927MOL0     C25059   2.369  11.027   4.828  0.1290 -0.0384  0.0902
  927MOL0     C25060   2.446  11.123   4.767 -0.6172  0.0791 -0.3998
  927MOL0     N25061   3.099  11.586   4.532  0.0186  0.8983 -0.4700
  927MOL0     N25062   3.200  11.597   4.460 -0.1623 -0.2009 -0.3262
  927MOL0     C25063   4.172  11.402   4.276 -0.8024  0.6640 -0.1355
  927MOL0     C25064   4.246  11.295   4.334  0.5096  0.3424  0.2340
  927MOL0     C25065   4.454  10.946   4.480  0.1425  0.1157  0.1115
  927MOL0     C25066   4.591  10.916   4.524 -0.9006  1.0169 -1.0137
  927MOL0     C25067   4.606  10.822   4.623 -0.1682  0.8648 -0.4605
  927MOL0     C25068   4.496  10.750   4.674 -0.1453  0.1667  0.0454
  927MOL0     O25069   4.530  10.654   4.768  0.3358  0.5789 -0.4265
  927MOL0     C25070   4.424  10.576   4.837  0.5195 -0.8165 -0.0395
  927MOL0     C25071   4.368  10.460   4.746 -0.5224  0.1260  0.7722
  927MOL0     C25072   4.245  10.399   4.815 -0.6894  0.0595 -0.0283
  927MOL0     C25073   4.180  10.287   4.728  0.0796 -0.1663  0.2865
  927MOL0     C25074   4.254  10.164   4.761  0.0716  0.3308 -0.7572
  927MOL0     C25075   4.304  10.059   4.797 -0.5110 -0.3723  0.2567
  927MOL0     C25076   4.363  10.777   4.634 -0.5882 -0.5956  0.0081
  927MOL0     C25077   4.340  10.868   4.531 -0.5948 -0.6723 -0.1455
  927MOL0     H25078   4.182  11.054   4.108 -1.2790  1.7776 -4.2564
  927MOL0     H25079   4.041  11.226   4.003 -0.1038 -0.3250 -0.1198
  927MOL0     H25080   3.960  11.571   3.937 -3.0410  1.1871  2.1014
  927MOL0     H25081   3.996  11.391   3.905  0.2133 -2.4161  2.0680
  927MOL0     H25082   3.770  11.400   3.945 -0.1120 -0.8653  0.8395
  927MOL0     H25083   3.847  11.331   4.079 -2.2991 -1.1322 -2.5503
  927MOL0     H25084   3.832  11.536   4.207  1.1915 -1.4469 -0.5211
  927MOL0     H25085   3.727  11.611   4.078  0.8571  1.6167  1.9330
  927MOL0     H25086   3.558  11.441   4.116 -1.6897  1.7952  1.8099
  927MOL0     H25087   3.661  11.328   4.196 -2.4755 -0.7000  0.8415
  927MOL0     H25088   3.683  11.522   4.388  1.2166 -0.9621 -1.2808
  927MOL0     H25089   3.558  11.600   4.303 -1.2987  0.0411  0.5118
  927MOL0     H25090   3.553  11.325   4.445  0.1332 -0.4656 -0.5286
  927MOL0     H25091   3.451  11.463   4.482  0.9855 -0.4248  1.4135
  927MOL0     H25092   3.422  11.295   4.241  2.3135 -1.1645  0.8483
  927MOL0     H25093   3.326  11.289   4.386  1.7063 -1.5062  0.4710
  927MOL0     H25094   3.232  11.426   4.170 -0.3205 -0.3439  0.6347
  927MOL0     H25095   3.328  11.562   4.223 -2.9500  1.6336 -1.2769
  927MOL0     H25096   3.031  11.340   4.315  1.5503 -0.7251 -0.4564
  927MOL0     H25097   2.889  11.322   4.578 -0.6835 -0.0928 -0.9558
  927MOL0     H25098   2.864  11.487   4.644 -0.8070  3.0571 -2.0971
  927MOL0     H25099   2.762  11.381   4.371 -0.7110  0.0235  0.0119
  927MOL0     H25100   2.779  11.548   4.410 -0.3258  0.7875 -0.4344
  927MOL0     H25101   2.543  11.431   4.432 -3.1453 -0.8867  2.8197
  927MOL0     H25102   2.584  11.532   4.564 -0.6094 -0.4404  0.8290
  927MOL0     H25103   2.687  11.298   4.660 -0.2652  0.5479  0.3455
  927MOL0     H25104   2.558  11.228   4.563 -1.3012  0.4682  2.0217
  927MOL0     H25105   2.309  11.402   4.857  0.0015 -0.7183 -1.8564
  927MOL0     H25106   2.136  11.351   5.056 -0.0833 -0.6709  1.1711
  927MOL0     H25107   2.031  11.211   5.029  0.2249 -0.5302  0.3026
  927MOL0     H25108   2.162  11.198   5.138 -2.9647  0.3386  0.9140
  927MOL0     H25109   2.379  10.591   5.033  0.1290 -1.0319 -0.7163
  927MOL0     H25110   2.310  10.422   5.164 -0.6236  0.8896 -0.2035
  927MOL0     H25111   1.865  10.361   5.260  1.2773  2.2831 -1.6619
  927MOL0     H25112   1.974  10.300   5.130 -1.9064  0.1747 -0.8731
  927MOL0     H25113   1.950  10.196   5.414  1.4315  0.2752 -0.4796
  927MOL0     H25114   1.832  10.143   5.284  0.6169 -1.2713  0.0052
  927MOL0     H25115   2.130  10.151   5.229 -2.1173  1.9551 -1.5134
  927MOL0     H25116   2.003  10.063   5.155 -2.7872  1.6025  0.4825
  927MOL0     H25117   1.988   9.948   5.400  0.3669  1.2437  1.7464
  927MOL0     H25118   2.138   9.907   5.313 -0.2414  1.4636 -1.9321
  927MOL0     H25119   2.110  10.110   5.532 -0.9637 -0.8281 -0.1572
  927MOL0     H25120   2.249  10.129   5.407  0.0762  0.1590  0.6208
  927MOL0     H25121   2.226   9.873   5.564 -2.5647  0.5747 -1.2931
  927MOL0     H25122   2.356   9.941   5.477  1.0664  0.2843  1.3526
  927MOL0     H25123   2.282   9.982   5.755  2.9436 -0.0671  1.5865
  927MOL0     H25124   2.298  10.139   5.670  0.8413  1.4185 -2.9421
  927MOL0     H25125   2.524   9.924   5.658 -1.7415 -0.7765 -1.1225
  927MOL0     H25126   2.505  10.073   5.765 -1.5717  2.6438 -0.1831
  927MOL0     H25127   1.914  10.584   5.201 -0.5849  1.0036 -1.3303
  927MOL0     H25128   1.984  10.749   5.026  1.3244  0.3280 -1.3064
  927MOL0     H25129   2.403  10.929   4.797  2.6443  1.1013 -0.9778
  927MOL0     H25130   2.538  11.099   4.716  0.3949  5.0361 -1.4556
  927MOL0     H25131   4.170  11.502   4.318  2.4154  1.0630 -0.6834
  927MOL0     H25132   4.288  11.318   4.431 -0.1908  1.2561  0.3344
  927MOL0     H25133   4.680  10.967   4.487  1.1247 -1.1071  0.6481
  927MOL0     H25134   4.704  10.795   4.662 -1.0227  1.1918  2.0969
  927MOL0     H25135   4.455  10.535   4.933 -3.5645 -1.5528  1.1815
  927MOL0     H25136   4.335  10.632   4.866  1.6335 -0.0963  2.2122
  927MOL0     H25137   4.434  10.376   4.723 -0.7221 -0.0256  0.7462
  927MOL0     H25138   4.348  10.500   4.646 -0.1388  0.1824  0.7141
  927MOL0     H25139   4.166  10.475   4.820 -2.2367 -1.3515 -1.6292
  927MOL0     H25140   4.262  10.363   4.916 -2.4866 -1.3006 -0.1702
  927MOL0     H25141   4.182  10.319   4.623  0.6447 -1.1800 -0.0322
  927MOL0     H25142   4.078  10.266   4.764  0.1136 -1.4858 -0.3156
  927MOL0     H25143   4.328   9.965   4.842 -1.3043 -1.0053 -0.6069
  927MOL0     H25144   4.276  10.719   4.663 -1.5851  0.4998 -0.7444
  927MOL0     H25145   4.244  10.891   4.486  1.0812  3.7991 -2.0082
  928MOL0     O25146   1.889   3.257   4.121 -0.3112  0.8365  0.5547
  928MOL0     C25147   1.984   3.176   4.107  1.6193 -0.5561  0.1055
  928MOL0     O25148   2.114   3.208   4.098 -0.3432 -0.2547 -0.3738
  928MOL0     C25149   2.154   3.337   4.079 -0.0392  0.2742  0.1713
  928MOL0     C25150   2.246   3.384   4.173  0.1666 -0.2430 -0.3164
  928MOL0     C25151   2.295   3.518   4.151 -0.2850  0.3057 -0.7948
  928MOL0     C25152   2.260   3.599   4.045 -0.0413 -0.9103  0.7154
  928MOL0     O25153   2.311   3.729   4.032 -0.4629  0.8155  0.6771
  928MOL0     C25154   2.447   3.746   4.017  0.3297 -0.0027 -0.3961
  928MOL0     C25155   2.491   3.860   3.925 -0.1139 -0.2070  0.0672
  928MOL0     C25156   2.629   3.824   3.855  0.8244 -0.1737  0.2464
  928MOL0     C25157   2.686   3.936   3.773  0.4327  0.5237  0.3562
  928MOL0     C25158   2.830   3.886   3.739 -0.0070 -0.0969 -0.1573
  928MOL0     C25159   2.896   3.994   3.646  0.9806  0.3045 -0.2708
  928MOL0     C25160   3.036   3.954   3.583  0.1050 -1.4347  0.0907
  928MOL0     C25161   3.093   4.083   3.526 -0.7362 -0.0037  0.6093
  928MOL0     N25162   3.221   4.052   3.449  0.0555 -0.4739 -0.2055
  928MOL0     C25163   3.232   3.986   3.333  0.3741  0.6252 -0.7092
  928MOL0     C25164   3.361   3.975   3.318  0.1089 -0.5691 -0.8680
  928MOL0     C25165   3.445   3.916   3.214  0.1416 -0.1844 -0.3577
  928MOL0     C25166   3.432   3.759   3.201 -0.4963 -0.6603 -0.1519
  928MOL0     C25167   3.558   3.706   3.143 -0.8311 -0.4040 -0.1602
  928MOL0     C25168   3.569   3.554   3.148  0.7161 -0.0903  0.5608
  928MOL0     O25169   3.706   3.533   3.121 -0.5634  0.6022  0.0765
  928MOL0     C25170   3.750   3.408   3.114 -0.9188  1.1484 -0.9100
  928MOL0     C25171   3.678   3.303   3.168  0.7180  1.0937 -1.0905
  928MOL0     C25172   3.728   3.170   3.173  0.1397 -0.1884 -0.7553
  928MOL0     C25173   3.627   3.069   3.222  0.1116  0.6360 -0.0487
  928MOL0     C25174   3.859   3.140   3.129 -1.0561  0.0822  0.0536
  928MOL0     C25175   3.924   3.005   3.127  0.2739  0.7506  0.9326
  928MOL0     O25176   4.044   2.994   3.045  0.7947  0.5449  0.3007
  928MOL0     C25177   4.105   2.874   3.068 -0.1004  0.7825 -0.2810
  928MOL0     C25178   4.199   2.864   3.173  0.0275 -0.8968 -0.5936
  928MOL0     C25179   4.273   2.746   3.190  0.8066 -0.3268  0.6166
  928MOL0     C25180   4.257   2.637   3.106 -1.0354  0.1015  0.9474
  928MOL0     O25181   4.329   2.522   3.122 -0.0170  0.6799 -0.0980
  928MOL0     C25182   4.291   2.455   3.246  0.9740  0.4389 -0.9249
  928MOL0     C25183   4.162   2.371   3.228 -0.2475  0.4204  0.7082
  928MOL0     C25184   4.184   2.273   3.112 -0.3407  0.9057 -0.8809
  928MOL0     C25185   4.070   2.167   3.104 -0.0816  1.0181  0.4690
  928MOL0     C25186   3.942   2.214   3.037 -0.1912 -0.3366  0.3238
  928MOL0     C25187   3.833   2.107   3.048 -0.2218  0.6169 -0.0783
  928MOL0     C25188   3.784   2.074   3.193 -0.5493 -0.4723 -1.5904
  928MOL0     C25189   3.764   1.926   3.213  0.6972  0.2356 -0.5073
  928MOL0    Cl25190   3.613   1.884   3.115 -0.3334 -0.1790  0.3688
  928MOL0     C25191   4.173   2.648   2.991  0.5604 -0.5890 -0.0943
  928MOL0     C25192   4.102   2.769   2.963  0.3084 -0.6535 -0.2554
  928MOL0     O25193   3.882   2.915   3.197 -0.1341 -0.1752  0.4679
  928MOL0     C25194   3.935   3.241   3.072 -0.1724  0.1118 -1.2630
  928MOL0     C25195   3.884   3.372   3.070  0.1799  0.2741 -1.1691
  928MOL0     N25196   3.426   4.050   3.413  0.2588 -0.4281 -0.4310
  928MOL0     N25197   3.341   4.098   3.492 -0.0718  0.6916  0.0393
  928MOL0     C25198   2.169   3.553   3.957  0.4259 -0.1538 -0.6135
  928MOL0     C25199   2.117   3.426   3.974  0.7668  0.5821 -0.5418
  928MOL0     C25200   1.956   3.036   4.078  0.1939 -0.2673  0.7224
  928MOL0     C25201   2.058   2.941   4.094  0.4229 -0.4254  0.3125
  928MOL0     C25202   2.029   2.812   4.049 -0.4394 -0.0817 -0.2946
  928MOL0     C25203   1.904   2.768   4.004  0.2344 -0.2890  0.0550
  928MOL0     O25204   1.890   2.641   3.972  0.0993  0.4871  1.2313
  928MOL0     C25205   1.771   2.567   3.994  0.9571 -0.4165  0.3763
  928MOL0     C25206   1.670   2.573   3.884  0.4667 -0.0313  0.8335
  928MOL0     C25207   1.527   2.559   3.941 -0.5834  1.0457 -0.4468
  928MOL0     C25208   1.504   2.419   4.001  0.1702  0.4640  0.3796
  928MOL0     C25209   1.374   2.405   4.065  0.6754  0.2610  0.4789
  928MOL0     C25210   1.266   2.411   4.126 -0.6343 -0.8413 -0.0808
  928MOL0     C25211   1.803   2.862   3.999  0.2125 -0.2855  0.8307
  928MOL0     C25212   1.832   2.990   4.036  0.1039  0.4898  0.1188
  928MOL0     H25213   2.288   3.326   4.255 -0.0230 -0.2142 -0.1984
  928MOL0     H25214   2.366   3.543   4.229 -1.1675 -1.1494  0.5178
  928MOL0     H25215   2.482   3.762   4.119  1.0736  0.5557 -0.7241
  928MOL0     H25216   2.501   3.660   3.975 -1.9467 -1.1945 -1.0265
  928MOL0     H25217   2.419   3.867   3.842 -0.8701 -0.0283  0.7231
  928MOL0     H25218   2.498   3.952   3.984 -2.7297 -0.4187  0.8332
  928MOL0     H25219   2.704   3.791   3.927  2.9371 -0.5624 -1.9919
  928MOL0     H25220   2.619   3.739   3.786  2.5821  0.2591 -0.5814
  928MOL0     H25221   2.623   3.935   3.683 -1.3796 -2.8146  1.4903
  928MOL0     H25222   2.678   4.039   3.808  0.4610  1.0901 -1.2034
  928MOL0     H25223   2.880   3.864   3.834 -3.6975 -1.6271  1.6636
  928MOL0     H25224   2.827   3.794   3.679 -1.0574  0.5235 -1.1027
  928MOL0     H25225   2.823   3.985   3.565 -0.0661 -1.6258  0.7913
  928MOL0     H25226   2.884   4.095   3.687  0.7503 -1.2427  4.0184
  928MOL0     H25227   3.104   3.904   3.653 -0.2287 -1.3116  0.5115
  928MOL0     H25228   3.009   3.892   3.498 -0.2141 -1.8282  0.4771
  928MOL0     H25229   3.105   4.156   3.606 -1.0175  0.6173  0.0905
  928MOL0     H25230   3.013   4.113   3.458 -1.0430 -1.6426  0.1937
  928MOL0     H25231   3.156   3.927   3.283 -0.6357  1.1694  0.1419
  928MOL0     H25232   3.407   3.956   3.119  1.1272  3.2891  0.5954
  928MOL0     H25233   3.545   3.954   3.237 -0.6621  1.3631  0.7527
  928MOL0     H25234   3.358   3.732   3.125  0.8141 -2.3822 -0.8692
  928MOL0     H25235   3.401   3.713   3.296 -0.7328 -0.2373 -0.0185
  928MOL0     H25236   3.640   3.744   3.206 -0.1155 -0.1163 -1.2481
  928MOL0     H25237   3.568   3.741   3.040 -0.3007 -2.3405 -0.8095
  928MOL0     H25238   3.510   3.520   3.062  0.8470 -0.5576  0.6527
  928MOL0     H25239   3.531   3.500   3.235 -1.3150  3.2875  1.9645
  928MOL0     H25240   3.580   3.306   3.214  0.4045 -0.4642 -1.6111
  928MOL0     H25241   3.608   2.997   3.142  4.0961  1.3455 -1.9070
  928MOL0     H25242   3.676   3.018   3.306  0.4700  0.1124 -0.5622
  928MOL0     H25243   3.532   3.114   3.250 -0.6131  1.4205 -3.4057
  928MOL0     H25244   4.213   2.943   3.246  0.2618 -1.1579 -0.3585
  928MOL0     H25245   4.346   2.754   3.270  0.5796  0.8266  0.7200
  928MOL0     H25246   4.362   2.386   3.291 -1.9047 -1.0249  1.7556
  928MOL0     H25247   4.276   2.524   3.330 -1.9899  0.4873 -1.3979
  928MOL0     H25248   4.142   2.321   3.323  3.5311  1.5583  2.3158
  928MOL0     H25249   4.073   2.431   3.208 -0.8673  0.0725  2.3212
  928MOL0     H25250   4.272   2.210   3.130 -2.2979 -1.4045  1.4858
  928MOL0     H25251   4.194   2.331   3.020  2.3735 -0.5449 -1.5955
  928MOL0     H25252   4.112   2.078   3.055 -2.7935 -0.9788  1.5281
  928MOL0     H25253   4.053   2.136   3.207 -3.3525 -0.7150 -0.4494
  928MOL0     H25254   3.965   2.234   2.932  0.2967 -3.3537 -0.2441
  928MOL0     H25255   3.913   2.308   3.085  3.1830  0.9984 -0.0047
  928MOL0     H25256   3.750   2.134   2.982  0.6262 -3.1307 -3.0555
  928MOL0     H25257   3.875   2.017   3.002  0.7972  2.2737 -2.5766
  928MOL0     H25258   3.688   2.124   3.211  0.8053  1.8413 -0.3036
  928MOL0     H25259   3.849   2.109   3.274  1.1558 -1.2886 -2.5661
  928MOL0     H25260   3.740   1.912   3.319 -0.1286 -1.1798 -0.8539
  928MOL0     H25261   3.852   1.869   3.180  2.1729  2.2581 -0.2478
  928MOL0     H25262   4.174   2.560   2.926  1.3080 -2.5635  2.4080
  928MOL0     H25263   4.049   2.793   2.872  1.8323  0.8694 -0.8081
  928MOL0     H25264   4.036   3.216   3.042  0.3918  0.5703  0.1842
  928MOL0     H25265   3.952   3.454   3.048  1.0252  0.7628  2.4955
  928MOL0     H25266   2.117   3.595   3.871  0.5604 -1.4193 -1.3328
  928MOL0     H25267   2.043   3.391   3.902 -1.6670  1.2216  1.4864
  928MOL0     H25268   2.163   2.958   4.112  0.3592 -0.6996  0.9853
  928MOL0     H25269   2.105   2.735   4.044 -2.0002 -1.6636 -0.8812
  928MOL0     H25270   1.796   2.460   4.001  2.4418 -0.1277 -0.1025
  928MOL0     H25271   1.730   2.592   4.092  1.8436  0.8006  0.4482
  928MOL0     H25272   1.687   2.504   3.801 -2.9112  0.4144 -0.3885
  928MOL0     H25273   1.688   2.671   3.840 -0.6942 -0.2592 -0.1810
  928MOL0     H25274   1.466   2.565   3.851  1.5876 -0.4961 -2.1363
  928MOL0     H25275   1.504   2.634   4.017 -0.2876  1.0453 -0.3528
  928MOL0     H25276   1.585   2.384   4.065 -0.5876 -1.1535  0.5024
  928MOL0     H25277   1.511   2.354   3.912 -0.0542  2.9715 -1.5844
  928MOL0     H25278   1.182   2.415   4.192 -0.7988 -0.5641 -0.3081
  928MOL0     H25279   1.700   2.834   3.983 -0.0829 -0.5097  2.8134
  928MOL0     H25280   1.742   3.050   4.042 -0.6416 -0.3944 -1.4255
  929MOL0     O25281   5.856   8.650   9.346 -0.0081  0.7158  0.5597
  929MOL0     C25282   5.864   8.548   9.409  1.2587 -0.2931  0.0781
  929MOL0     O25283   5.871   8.417   9.368  0.2596  0.5018 -0.2507
  929MOL0     C25284   5.900   8.397   9.230 -0.4278 -0.3179 -0.3313
  929MOL0     C25285   6.018   8.324   9.195  0.3345 -0.1819  0.0379
  929MOL0     C25286   6.051   8.299   9.059  0.2308 -0.4513  0.3194
  929MOL0     C25287   5.960   8.340   8.952  0.1388  0.7820  0.2239
  929MOL0     O25288   5.965   8.325   8.815 -0.2481 -0.2799  0.0768
  929MOL0     C25289   6.100   8.286   8.775 -0.6844 -0.1171 -1.2218
  929MOL0     C25290   6.087   8.241   8.627 -0.2057 -0.4364  0.9079
  929MOL0     C25291   5.991   8.334   8.545 -0.8060 -0.1673  1.0208
  929MOL0     C25292   6.002   8.312   8.392 -0.9554 -0.8118  0.6136
  929MOL0     C25293   5.867   8.345   8.325  0.1705  0.2680 -0.4930
  929MOL0     C25294   5.878   8.341   8.173 -0.5121  0.2288  0.3095
  929MOL0     C25295   5.742   8.307   8.099 -0.1776  0.5506 -0.8724
  929MOL0     C25296   5.705   8.157   8.102 -0.5986  0.1714 -0.7968
  929MOL0     N25297   5.803   8.073   8.033 -0.8403  0.1742 -0.8174
  929MOL0     C25298   5.812   8.055   7.901  0.5940  0.0096 -0.8290
  929MOL0     C25299   5.898   7.952   7.877  0.8927  0.4647  0.2567
  929MOL0     C25300   5.938   7.887   7.750  0.8036  0.3649  0.1710
  929MOL0     C25301   5.878   7.745   7.752 -0.2405 -1.0104  0.1363
  929MOL0     C25302   5.970   7.655   7.666 -0.0407 -0.0221 -0.2761
  929MOL0     C25303   5.931   7.511   7.616 -0.2315  0.4552 -0.5279
  929MOL0     O25304   6.058   7.428   7.601  0.3929  0.1465 -0.2400
  929MOL0     C25305   6.049   7.310   7.534  0.7577 -0.3924 -0.9405
  929MOL0     C25306   6.170   7.235   7.512 -0.1676 -0.6587 -0.0276
  929MOL0     C25307   6.174   7.115   7.436  0.2388 -0.5319  0.3738
  929MOL0     C25308   6.313   7.056   7.418  0.7192 -0.7722  0.6761
  929MOL0     C25309   6.058   7.065   7.378 -0.0859 -0.5464  0.0001
  929MOL0     C25310   6.051   6.953   7.283  0.5749 -0.0726 -0.5742
  929MOL0     O25311   5.936   6.882   7.271 -0.2439 -0.0663  0.9801
  929MOL0     C25312   5.901   6.818   7.376  0.3000 -0.3087  0.2146
  929MOL0     C25313   5.989   6.746   7.462 -0.3609 -0.1830  0.2780
  929MOL0     C25314   5.938   6.671   7.568 -0.7664 -1.1100  0.4053
  929MOL0     C25315   5.803   6.664   7.583  0.2423  0.0927  0.1457
  929MOL0     O25316   5.760   6.584   7.684 -0.7288 -0.8102  0.0381
  929MOL0     C25317   5.627   6.574   7.715  0.2334 -0.2557 -0.2853
  929MOL0     C25318   5.594   6.510   7.855  0.5431 -0.0710 -0.1269
  929MOL0     C25319   5.672   6.574   7.964  0.0512 -0.6245 -0.9379
  929MOL0     C25320   5.597   6.534   8.093 -0.4248  0.5961 -0.3697
  929MOL0     C25321   5.641   6.610   8.219 -0.4267 -0.1708  0.3987
  929MOL0     C25322   5.781   6.573   8.261  0.7732  0.3659  0.0037
  929MOL0     C25323   5.843   6.651   8.382  0.3533  0.0816  0.3637
  929MOL0     C25324   5.934   6.566   8.472 -0.5127 -0.1753 -0.5860
  929MOL0    Cl25325   5.843   6.449   8.570 -0.5056  0.2398  0.1689
  929MOL0     C25326   5.716   6.727   7.493  0.1695  0.3018  1.3115
  929MOL0     C25327   5.765   6.803   7.395  0.0037 -0.8003  0.6308
  929MOL0     O25328   6.151   6.923   7.221  0.0206 -1.0053  0.2552
  929MOL0     C25329   5.937   7.135   7.402 -0.2468 -0.9134 -0.3616
  929MOL0     C25330   5.930   7.249   7.484 -1.2872  0.1651 -0.0905
  929MOL0     N25331   5.932   7.899   7.997 -1.1500  0.9183  0.5516
  929MOL0     N25332   5.888   7.979   8.088  0.4416  0.5932 -0.7292
  929MOL0     C25333   5.844   8.399   8.994  1.3011  0.0651  0.1405
  929MOL0     C25334   5.813   8.424   9.127  0.0175 -0.4651 -0.1744
  929MOL0     C25335   5.872   8.564   9.556 -0.0598 -0.3241  0.0484
  929MOL0     C25336   5.970   8.498   9.630  0.7558 -0.6178  0.5044
  929MOL0     C25337   5.996   8.526   9.766 -0.4317 -0.5497  0.9186
  929MOL0     C25338   5.910   8.618   9.828  0.6920  0.0574  0.2720
  929MOL0     O25339   5.896   8.648   9.957 -0.0783  0.1002  0.1786
  929MOL0     C25340   5.992   8.582  10.052 -0.0275 -0.2144 -0.4797
  929MOL0     C25341   5.986   8.637  10.195 -0.5746  0.5852  0.2112
  929MOL0     C25342   6.095   8.581  10.287  0.4336 -0.0947  0.4322
  929MOL0     C25343   6.055   8.590  10.424 -0.0762 -0.1229 -0.4336
  929MOL0     C25344   6.077   8.733  10.467  0.2692 -0.3289 -0.8495
  929MOL0     C25345   6.109   8.853  10.502  0.0197 -0.2684 -0.0775
  929MOL0     C25346   5.812   8.683   9.755 -0.3597  0.1786 -0.5222
  929MOL0     C25347   5.792   8.652   9.624  0.2021 -0.9237 -1.2549
  929MOL0     H25348   6.084   8.285   9.271 -1.1702 -0.0266  1.4716
  929MOL0     H25349   6.137   8.236   9.040  0.1198  0.1826 -2.8469
  929MOL0     H25350   6.168   8.372   8.778 -2.7279  1.5511  0.1068
  929MOL0     H25351   6.149   8.209   8.834  0.4512  2.2453  1.1313
  929MOL0     H25352   6.184   8.236   8.578 -1.2827 -2.0581 -1.2136
  929MOL0     H25353   6.039   8.143   8.636 -2.1841  0.6551  3.7305
  929MOL0     H25354   5.890   8.314   8.582 -0.2092  0.5605  3.2017
  929MOL0     H25355   5.997   8.442   8.562  0.3005 -0.3819  2.1580
  929MOL0     H25356   6.072   8.387   8.354 -1.5787 -0.1983  0.6595
  929MOL0     H25357   6.028   8.208   8.370  1.5982  0.0282 -0.7827
  929MOL0     H25358   5.785   8.278   8.354 -1.5488  1.6282 -1.9366
  929MOL0     H25359   5.831   8.445   8.349 -0.9305  0.5633 -3.0165
  929MOL0     H25360   5.933   8.428   8.136  1.4079 -1.1914 -0.3570
  929MOL0     H25361   5.942   8.258   8.142  2.3131  2.0819  0.8699
  929MOL0     H25362   5.662   8.366   8.146 -0.3261  2.4991 -3.3246
  929MOL0     H25363   5.752   8.325   7.991 -2.0365 -1.7672 -1.5287
  929MOL0     H25364   5.608   8.143   8.053 -0.7715 -2.0326  0.0574
  929MOL0     H25365   5.687   8.117   8.202  1.3076 -0.7689 -0.7857
  929MOL0     H25366   5.748   8.115   7.837 -0.7204 -2.0451 -1.5582
  929MOL0     H25367   5.903   7.953   7.670  0.2493  4.0641  3.2021
  929MOL0     H25368   6.047   7.882   7.754  0.7297 -0.3808  2.1469
  929MOL0     H25369   5.782   7.742   7.700  1.4444  0.9669 -3.4359
  929MOL0     H25370   5.877   7.702   7.853 -0.5926 -0.8143  0.2175
  929MOL0     H25371   6.059   7.630   7.724  0.4033 -3.2002 -2.0883
  929MOL0     H25372   6.000   7.712   7.579  3.7019  1.6226  1.8680
  929MOL0     H25373   5.869   7.507   7.526  0.2607 -0.4181 -0.8357
  929MOL0     H25374   5.874   7.457   7.692 -0.3527 -2.5603 -2.6476
  929MOL0     H25375   6.260   7.278   7.555 -1.3654  0.3803  1.5873
  929MOL0     H25376   6.331   6.948   7.421  2.7454 -0.4460  3.7203
  929MOL0     H25377   6.336   7.088   7.315  2.5684  2.0284  1.8365
  929MOL0     H25378   6.384   7.105   7.484  0.3395 -2.5981  2.5313
  929MOL0     H25379   6.095   6.741   7.437 -0.5580 -3.1239 -0.3954
  929MOL0     H25380   6.008   6.623   7.635 -1.4115 -1.1243  1.0794
  929MOL0     H25381   5.591   6.677   7.723  2.5050  0.7020 -1.2868
  929MOL0     H25382   5.576   6.520   7.634  3.9749 -0.2194 -2.9087
  929MOL0     H25383   5.486   6.514   7.870  0.4901 -1.7980  0.1291
  929MOL0     H25384   5.626   6.406   7.855 -1.2045 -0.7926 -3.8931
  929MOL0     H25385   5.666   6.683   7.961  4.1054 -0.1182  1.6356
  929MOL0     H25386   5.777   6.544   7.960  0.1603 -0.3667 -0.1651
  929MOL0     H25387   5.489   6.550   8.092 -0.6211 -0.5336  0.6468
  929MOL0     H25388   5.610   6.427   8.112 -0.3331  0.9235  1.6650
  929MOL0     H25389   5.571   6.595   8.302 -0.8466 -3.3536 -0.3837
  929MOL0     H25390   5.647   6.717   8.199  1.8005 -0.1344  1.0073
  929MOL0     H25391   5.785   6.465   8.274  0.5971 -0.1243 -3.2964
  929MOL0     H25392   5.851   6.581   8.177  0.3639  0.8459 -0.2896
  929MOL0     H25393   5.758   6.693   8.438  0.1791  1.4512 -0.8580
  929MOL0     H25394   5.895   6.735   8.335 -2.5788 -0.4112 -4.4645
  929MOL0     H25395   5.976   6.644   8.536 -1.7640 -0.2894  0.4076
  929MOL0     H25396   6.020   6.515   8.426  0.8136  0.6378  0.8799
  929MOL0     H25397   5.608   6.717   7.488  0.1091  1.2202  0.4353
  929MOL0     H25398   5.708   6.869   7.330  1.0561 -0.6808 -0.2170
  929MOL0     H25399   5.843   7.093   7.367 -1.0670 -0.3555  1.0703
  929MOL0     H25400   5.836   7.302   7.478  0.6045  4.1555  1.4891
  929MOL0     H25401   5.765   8.425   8.925 -0.0998 -0.0735  1.6395
  929MOL0     H25402   5.727   8.487   9.146 -0.0458 -0.3240 -0.8904
  929MOL0     H25403   6.037   8.434   9.574 -0.8530 -1.5621 -0.4113
  929MOL0     H25404   6.079   8.483   9.822 -0.1969 -2.4183 -0.7522
  929MOL0     H25405   5.965   8.476  10.052 -0.2836 -0.1553 -1.1347
  929MOL0     H25406   6.094   8.600  10.018 -0.4463  2.6057 -0.4616
  929MOL0     H25407   5.885   8.615  10.231 -0.1346  1.2115  1.9710
  929MOL0     H25408   5.996   8.745  10.186  1.9865  0.5112  1.3627
  929MOL0     H25409   6.180   8.646  10.264  0.6184 -0.2848  0.5753
  929MOL0     H25410   6.117   8.477  10.262  1.4952  0.5376 -1.3811
  929MOL0     H25411   6.115   8.528  10.492 -0.5699 -3.1479 -2.5942
  929MOL0     H25412   5.958   8.543  10.441  0.8922 -2.1650 -0.1900
  929MOL0     H25413   6.133   8.956  10.520 -0.1245 -0.2715  0.1341
  929MOL0     H25414   5.757   8.762   9.806 -4.3684 -1.9726 -1.0779
  929MOL0     H25415   5.715   8.697   9.563  1.4245 -0.6081 -2.6134
  930MOL0     O25416   3.121  11.209   3.928  0.2747 -0.0417  0.6431
  930MOL0     C25417   3.148  11.095   3.894  0.7529  1.0011 -0.3162
  930MOL0     O25418   3.063  11.007   3.827 -0.3948  0.8196 -0.2302
  930MOL0     C25419   2.941  11.062   3.793 -0.6422 -0.4926 -1.0869
  930MOL0     C25420   2.828  11.001   3.842 -0.3253 -0.6856  0.9597
  930MOL0     C25421   2.700  11.040   3.813  1.0890 -0.1120  0.2715
  930MOL0     C25422   2.680  11.148   3.735  0.2895  0.4504  0.1326
  930MOL0     O25423   2.553  11.191   3.703  0.5331 -0.4036  0.6014
  930MOL0     C25424   2.467  11.091   3.647  0.1322  0.5574  0.2548
  930MOL0     C25425   2.424  11.148   3.520 -0.8134  0.8234 -0.5307
  930MOL0     C25426   2.330  11.069   3.441  0.2251 -0.5165 -0.2434
  930MOL0     C25427   2.189  11.024   3.492  0.1420  0.3718 -0.0716
  930MOL0     C25428   2.093  10.963   3.386 -0.5165  0.9258 -0.6558
  930MOL0     C25429   2.033  11.063   3.293 -0.1466  0.0231  0.5934
  930MOL0     C25430   1.888  11.097   3.315  0.8965  0.1911  0.2265
  930MOL0     C25431   1.818  11.206   3.233  0.3276  0.4178 -0.1237
  930MOL0     N25432   1.713  11.277   3.304  0.3583  0.7475  0.1314
  930MOL0     C25433   1.715  11.309   3.444  0.3632 -0.8725  0.0630
  930MOL0     C25434   1.588  11.283   3.483 -0.0435 -0.2818 -0.6773
  930MOL0     C25435   1.541  11.269   3.631  0.6989 -0.4501  0.5190
  930MOL0     C25436   1.393  11.315   3.654 -0.5888 -0.6359 -0.0666
  930MOL0     C25437   1.334  11.280   3.795  0.8284 -0.3653  0.7252
  930MOL0     C25438   1.181  11.271   3.809  0.0793 -0.3916 -0.6252
  930MOL0     O25439   1.149  11.192   3.929  0.0755 -0.3196  0.3060
  930MOL0     C25440   1.021  11.199   3.973 -0.5466 -0.7822 -0.2496
  930MOL0     C25441   1.003  11.168   4.106  0.1153  0.5378 -0.0370
  930MOL0     C25442   0.874  11.187   4.162  0.7124  0.4507  0.0881
  930MOL0     C25443   0.854  11.153   4.305  0.1664  0.0648  0.1376
  930MOL0     C25444   0.760  11.222   4.080  0.3349  0.3120  0.4917
  930MOL0     C25445   0.614  11.222   4.123 -0.4440  0.6197  0.7528
  930MOL0     O25446   0.579  11.284   4.244 -0.4746 -0.1773  0.3844
  930MOL0     C25447   0.464  11.242   4.307  0.3746 -0.4974  0.1770
  930MOL0     C25448   0.342  11.295   4.277  0.0837 -0.1983  0.2575
  930MOL0     C25449   0.229  11.251   4.334  0.1890  0.4732 -0.2202
  930MOL0     C25450   0.240  11.173   4.446 -0.1378 -1.0399 -0.4826
  930MOL0     O25451   0.139  11.146   4.534  0.7634 -0.0484 -0.5947
  930MOL0     C25452   0.002  11.191   4.515  0.0472  0.5405  0.7628
  930MOL0     C25453  -0.004  11.343   4.552 -0.4203  0.0746 -0.0455
  930MOL0     C25454  -0.141  11.386   4.584  0.4824  0.1786  0.1780
  930MOL0     C25455  -0.233  11.296   4.667  0.3085 -1.0462  0.4335
  930MOL0     C25456  -0.368  11.365   4.709  0.6468  0.3195 -0.6428
  930MOL0     C25457  -0.486  11.354   4.618  0.4218 -0.4094 -0.5079
  930MOL0     C25458  -0.559  11.229   4.634  0.8646  0.5443 -0.1592
  930MOL0     C25459  -0.656  11.233   4.756 -0.9589  0.5401  0.0514
  930MOL0    Cl25460  -0.777  11.367   4.751  0.2072  0.3738 -0.0360
  930MOL0     C25461   0.369  11.134   4.489 -0.5148  0.2379  0.0136
  930MOL0     C25462   0.474  11.163   4.415  0.2396 -0.0950  0.2029
  930MOL0     O25463   0.537  11.160   4.052  0.1725  0.9307  0.1317
  930MOL0     C25464   0.785  11.244   3.945 -0.8085  0.1426  0.1967
  930MOL0     C25465   0.913  11.236   3.891  0.3175  0.4435 -0.0285
  930MOL0     N25466   1.511  11.258   3.380 -0.3136 -0.9477  0.2312
  930MOL0     N25467   1.582  11.250   3.270  0.5288 -0.1202  0.4100
  930MOL0     C25468   2.796  11.218   3.682 -0.0007  0.5212 -0.2731
  930MOL0     C25469   2.928  11.179   3.716 -0.3441  1.1796  0.1511
  930MOL0     C25470   3.285  11.042   3.924 -0.3473 -0.8518  0.8618
  930MOL0     C25471   3.394  11.140   3.914 -0.7393  0.3723 -0.5980
  930MOL0     C25472   3.523  11.094   3.949 -0.5771 -0.4927 -0.7629
  930MOL0     C25473   3.548  10.958   3.966  0.1324 -0.3745  0.2348
  930MOL0     O25474   3.675  10.930   3.995 -1.0338 -0.0642  0.1884
  930MOL0     C25475   3.711  10.794   3.976 -0.5531  0.5388 -0.3962
  930MOL0     C25476   3.862  10.780   3.969  0.3022 -0.4924 -0.7849
  930MOL0     C25477   3.935  10.822   4.104  0.9412  0.0839  0.4186
  930MOL0     C25478   4.021  10.710   4.157 -0.7937  0.3688 -0.1012
  930MOL0     C25479   4.112  10.661   4.055  0.4851 -0.1163 -1.6722
  930MOL0     C25480   4.184  10.614   3.973 -0.7933  0.0195 -0.0177
  930MOL0     C25481   3.443  10.866   3.951  0.7958  0.1256  0.3333
  930MOL0     C25482   3.310  10.906   3.924 -0.2491  0.1433  0.3993
  930MOL0     H25483   2.846  10.917   3.908  3.2206  0.6191  1.8659
  930MOL0     H25484   2.612  10.997   3.859 -0.7442  1.4685 -1.5904
  930MOL0     H25485   2.507  10.990   3.633 -1.8811 -0.0128 -1.9887
  930MOL0     H25486   2.374  11.086   3.704  0.3863 -0.7150  0.5753
  930MOL0     H25487   2.375  11.243   3.547 -0.0162  2.1310 -3.3636
  930MOL0     H25488   2.501  11.178   3.450 -0.2474  1.2293  0.2495
  930MOL0     H25489   2.314  11.131   3.353  3.4050 -1.0560 -1.3504
  930MOL0     H25490   2.385  10.984   3.398 -0.7644 -0.5950 -1.4068
  930MOL0     H25491   2.208  10.944   3.564 -0.1673  1.3401  1.1306
  930MOL0     H25492   2.150  11.116   3.538  1.7533  3.2772 -3.9006
  930MOL0     H25493   2.155  10.888   3.336 -0.9068  0.0179  0.1886
  930MOL0     H25494   2.014  10.909   3.439  0.9459 -3.0097 -2.1066
  930MOL0     H25495   2.088  11.157   3.285 -0.9504  0.5461  1.0936
  930MOL0     H25496   2.045  11.024   3.192 -0.8981 -1.5354  1.0764
  930MOL0     H25497   1.822  11.010   3.315 -0.3965  1.1370  0.8962
  930MOL0     H25498   1.877  11.119   3.422 -2.6466  1.9255 -0.3261
  930MOL0     H25499   1.779  11.155   3.144 -1.4481  2.1533 -0.4023
  930MOL0     H25500   1.885  11.288   3.209  2.8603 -2.4012 -3.8838
  930MOL0     H25501   1.808  11.323   3.499 -0.8232  0.8691  1.7573
  930MOL0     H25502   1.531  11.164   3.658  2.5916 -0.7990 -0.0040
  930MOL0     H25503   1.602  11.324   3.703  0.1584 -0.7097  1.1823
  930MOL0     H25504   1.325  11.259   3.589  0.1474 -0.1253 -1.3357
  930MOL0     H25505   1.375  11.421   3.632 -0.2969 -0.1617  1.8396
  930MOL0     H25506   1.368  11.351   3.870 -0.3406 -1.2491  2.1323
  930MOL0     H25507   1.377  11.183   3.822 -0.0811 -0.3182  2.4349
  930MOL0     H25508   1.136  11.238   3.715  0.7172  0.5711 -1.2871
  930MOL0     H25509   1.137  11.371   3.816 -0.7879 -0.8653  1.3793
  930MOL0     H25510   1.091  11.135   4.160  2.6953 -0.2367 -4.2399
  930MOL0     H25511   0.755  11.111   4.323  0.4369 -0.8364 -0.4018
  930MOL0     H25512   0.924  11.078   4.342  0.2420 -0.3897 -0.8816
  930MOL0     H25513   0.874  11.236   4.374  3.2926 -0.0353 -0.4698
  930MOL0     H25514   0.344  11.366   4.194 -0.5050  0.0356  0.4404
  930MOL0     H25515   0.132  11.277   4.292  0.6993 -0.2781 -1.9352
  930MOL0     H25516  -0.027  11.185   4.410  2.3219  2.3807 -0.0342
  930MOL0     H25517  -0.068  11.134   4.578 -0.0069  2.4714  2.5439
  930MOL0     H25518   0.053  11.365   4.642 -1.2355  2.1368  0.0270
  930MOL0     H25519   0.043  11.398   4.470 -2.4871  0.9018 -0.7620
  930MOL0     H25520  -0.184  11.387   4.484  1.4750  1.2624 -0.2557
  930MOL0     H25521  -0.135  11.481   4.638 -2.5452  0.7866 -0.3867
  930MOL0     H25522  -0.249  11.202   4.615 -1.0833  0.6065 -2.3584
  930MOL0     H25523  -0.177  11.282   4.760  0.8863  0.4511  0.3506
  930MOL0     H25524  -0.350  11.471   4.732  1.3212  0.7129 -2.7481
  930MOL0     H25525  -0.395  11.322   4.806  1.1415 -1.7485 -1.3757
  930MOL0     H25526  -0.564  11.430   4.630  0.8561 -0.1851  1.0733
  930MOL0     H25527  -0.451  11.360   4.515 -0.2546  0.1322 -0.7063
  930MOL0     H25528  -0.492  11.143   4.646  0.4850  0.3787  0.9225
  930MOL0     H25529  -0.622  11.213   4.546 -1.8019 -1.7986  1.9741
  930MOL0     H25530  -0.611  11.238   4.855 -0.8506 -1.3804  0.1391
  930MOL0     H25531  -0.710  11.137   4.758 -2.3918  1.3255  1.9098
  930MOL0     H25532   0.371  11.087   4.587 -3.2836  0.8162  0.4370
  930MOL0     H25533   0.572  11.131   4.450 -0.4734  0.2121  2.6438
  930MOL0     H25534   0.720  11.300   3.878 -1.4877 -0.8999 -0.0269
  930MOL0     H25535   0.923  11.271   3.789 -2.5954 -1.4822 -1.0916
  930MOL0     H25536   2.772  11.296   3.611  0.5400  1.3507  0.4411
  930MOL0     H25537   3.019  11.220   3.673 -0.7855  0.7878 -1.2133
  930MOL0     H25538   3.377  11.247   3.910  0.2608  0.5148 -1.1705
  930MOL0     H25539   3.600  11.171   3.951  0.2481 -1.2250  2.6088
  930MOL0     H25540   3.680  10.735   4.063 -0.9077  0.8483 -0.3113
  930MOL0     H25541   3.669  10.750   3.885 -1.2113 -0.9639  0.5849
  930MOL0     H25542   3.892  10.850   3.891  1.1395  1.3852  1.1020
  930MOL0     H25543   3.888  10.680   3.934  4.7398 -0.4414  1.6184
  930MOL0     H25544   3.864  10.848   4.184  0.8337 -1.6046  0.9217
  930MOL0     H25545   4.005  10.905   4.108  2.7247 -1.3908  2.6251
  930MOL0     H25546   3.970  10.618   4.184 -0.6239  0.0310 -0.8887
  930MOL0     H25547   4.073  10.735   4.250 -1.3072 -0.9301  0.5510
  930MOL0     H25548   4.269  10.576   3.920  0.3441  2.5986 -0.1665
  930MOL0     H25549   3.459  10.759   3.954 -1.9870 -0.3413  1.9306
  930MOL0     H25550   3.231  10.831   3.920  3.2517 -3.9260 -3.0319
  931MOL0     O25551   8.125   6.945   0.566 -0.3223 -0.0281  0.0288
  931MOL0     C25552   8.233   6.967   0.628 -0.4504  0.4319 -0.2146
  931MOL0     O25553   8.288   7.088   0.658 -0.0073 -0.1936  0.4156
  931MOL0     C25554   8.217   7.207   0.633  0.2483 -0.1095 -0.5252
  931MOL0     C25555   8.302   7.315   0.617  0.2525 -0.9152  0.5195
  931MOL0     C25556   8.243   7.442   0.591  0.3868  0.3676 -0.2507
  931MOL0     C25557   8.099   7.467   0.581 -0.4522  0.4541  1.0062
  931MOL0     O25558   8.081   7.593   0.530  0.1535 -0.4772  0.4972
  931MOL0     C25559   7.943   7.634   0.522  1.1990 -0.6446  0.5430
  931MOL0     C25560   7.938   7.783   0.498  0.3684  0.3619  0.4124
  931MOL0     C25561   8.042   7.839   0.402  0.4026  0.0826  0.1616
  931MOL0     C25562   8.007   7.992   0.409 -0.6850  0.5465  0.1412
  931MOL0     C25563   8.095   8.048   0.309 -0.1247 -1.1680  0.3225
  931MOL0     C25564   8.090   8.207   0.312  0.0256 -0.5758  0.0392
  931MOL0     C25565   8.197   8.273   0.228  0.2814 -0.0250  0.3533
  931MOL0     C25566   8.209   8.425   0.258  0.3664 -0.2590  0.0724
  931MOL0     N25567   8.303   8.471   0.150 -0.0647  0.7063  0.2204
  931MOL0     C25568   8.430   8.530   0.169 -0.1644 -1.1677  0.1546
  931MOL0     C25569   8.465   8.567   0.046 -0.3653 -0.6834 -0.6206
  931MOL0     C25570   8.600   8.632   0.018 -0.6336 -0.0974 -0.5211
  931MOL0     C25571   8.712   8.537   0.054  0.4531  0.4290 -0.8652
  931MOL0     C25572   8.853   8.590   0.006 -0.2273 -0.3100 -0.3519
  931MOL0     C25573   8.874   8.583  -0.143  0.0326  0.0416  0.2288
  931MOL0     O25574   8.813   8.694  -0.204  1.0061 -0.1512 -1.3016
  931MOL0     C25575   8.803   8.688  -0.341 -0.0212 -0.4473 -1.4886
  931MOL0     C25576   8.921   8.696  -0.407  0.6494 -0.9016  0.6166
  931MOL0     C25577   8.906   8.717  -0.545  0.1027 -0.4028 -0.5509
  931MOL0     C25578   9.037   8.733  -0.627  0.4805  0.1438  0.0543
  931MOL0     C25579   8.782   8.706  -0.611  1.0515 -0.9739 -0.0043
  931MOL0     C25580   8.747   8.721  -0.755 -0.1774  0.5388  0.7865
  931MOL0     O25581   8.845   8.772  -0.836  0.7961  0.4562 -0.0784
  931MOL0     C25582   8.829   8.768  -0.967 -0.1177 -0.3522  0.0167
  931MOL0     C25583   8.723   8.832  -1.033 -0.6142  0.0827 -0.5722
  931MOL0     C25584   8.722   8.823  -1.172 -0.7907  0.0361 -0.3231
  931MOL0     C25585   8.840   8.784  -1.246 -0.3031  0.2674 -0.1677
  931MOL0     O25586   8.851   8.805  -1.380 -0.2095 -0.5940 -0.7946
  931MOL0     C25587   8.888   8.939  -1.414 -0.6519  1.1072  0.0581
  931MOL0     C25588   8.810   9.049  -1.358  1.1952 -0.4055  0.2484
  931MOL0     C25589   8.848   9.172  -1.427  0.0880  0.1285 -0.3582
  931MOL0     C25590   8.770   9.295  -1.395 -0.7690  0.4018 -0.4069
  931MOL0     C25591   8.817   9.414  -1.480  0.0901 -0.2066  0.0513
  931MOL0     C25592   8.938   9.483  -1.420  0.6224  0.5317  0.0441
  931MOL0     C25593   8.904   9.590  -1.312 -0.3316  0.3465  0.1619
  931MOL0     C25594   9.028   9.638  -1.235  0.6537 -0.0940 -0.9650
  931MOL0    Cl25595   9.164   9.667  -1.354 -0.1661  0.4383  0.1710
  931MOL0     C25596   8.956   8.736  -1.179  0.1356  0.2602 -1.0311
  931MOL0     C25597   8.943   8.735  -1.039 -0.6620 -0.1199 -0.9188
  931MOL0     O25598   8.638   8.683  -0.799  0.1501  0.3417  0.2790
  931MOL0     C25599   8.669   8.692  -0.530 -0.4834 -0.0858 -0.8370
  931MOL0     C25600   8.682   8.693  -0.397  0.3957 -0.0271  0.7448
  931MOL0     N25601   8.357   8.547  -0.041  0.1334 -0.4319  0.1177
  931MOL0     N25602   8.264   8.489   0.020  0.1805  0.0051 -0.4536
  931MOL0     C25603   8.017   7.361   0.601 -0.9676  0.6055 -0.1010
  931MOL0     C25604   8.077   7.230   0.627 -0.3166  0.4781 -0.7343
  931MOL0     C25605   8.305   6.845   0.682  0.0092 -0.5362  0.4813
  931MOL0     C25606   8.251   6.716   0.679  1.9521  0.2363  0.1215
  931MOL0     C25607   8.330   6.605   0.718  0.7090 -0.0050 -0.0037
  931MOL0     C25608   8.457   6.635   0.771 -0.0369  0.1325  0.2062
  931MOL0     O25609   8.544   6.532   0.807 -0.0385  0.1978 -0.8303
  931MOL0     C25610   8.613   6.490   0.689  0.2483 -0.7151  0.0017
  931MOL0     C25611   8.672   6.352   0.712 -0.2382 -0.1709  0.3007
  931MOL0     C25612   8.747   6.302   0.580  0.0203  0.1709 -0.9515
  931MOL0     C25613   8.667   6.237   0.469  0.0619  0.9096  0.6937
  931MOL0     C25614   8.611   6.105   0.495 -0.5368  0.0478 -0.6144
  931MOL0     C25615   8.576   6.002   0.543  0.7462 -0.5817  0.2242
  931MOL0     C25616   8.507   6.763   0.788  0.1514 -0.2230  0.1416
  931MOL0     C25617   8.426   6.867   0.739  0.2238  0.5839 -0.8177
  931MOL0     H25618   8.410   7.313   0.610  0.2339  0.3105 -0.5965
  931MOL0     H25619   8.306   7.530   0.577 -3.5951  4.0878  2.5471
  931MOL0     H25620   7.884   7.594   0.438  1.7012  3.8501 -2.3207
  931MOL0     H25621   7.887   7.612   0.613  2.0370 -2.1500  0.7235
  931MOL0     H25622   7.836   7.802   0.464 -1.4876 -1.2778  4.4805
  931MOL0     H25623   7.959   7.833   0.593  2.4638 -2.0037  1.3190
  931MOL0     H25624   8.146   7.823   0.431  0.3935  0.3483  0.3485
  931MOL0     H25625   8.028   7.803   0.300  2.5098 -1.1842  0.2524
  931MOL0     H25626   7.901   8.009   0.388 -0.9149  0.8694  1.4982
  931MOL0     H25627   8.038   8.033   0.505  0.0830 -3.2043  1.6882
  931MOL0     H25628   8.198   8.018   0.328  0.7036  0.8030 -0.6848
  931MOL0     H25629   8.069   8.009   0.210 -1.1248 -1.5038  0.7039
  931MOL0     H25630   7.992   8.241   0.275 -0.6802  0.6414  2.7065
  931MOL0     H25631   8.106   8.248   0.413  0.8510 -0.2041 -0.2325
  931MOL0     H25632   8.296   8.229   0.238 -0.3828 -1.0921  3.1623
  931MOL0     H25633   8.153   8.256   0.129 -2.0500  1.3041  1.0795
  931MOL0     H25634   8.248   8.446   0.358 -2.2673 -1.2137  1.3954
  931MOL0     H25635   8.116   8.481   0.249  2.5987  4.0510  1.2498
  931MOL0     H25636   8.479   8.538   0.265 -0.5894 -1.1062  0.3657
  931MOL0     H25637   8.610   8.633  -0.091 -0.7392 -1.1889 -0.5564
  931MOL0     H25638   8.619   8.735   0.049 -1.1858  0.4612 -1.9480
  931MOL0     H25639   8.694   8.432   0.027 -4.0838  0.8758 -0.3305
  931MOL0     H25640   8.711   8.530   0.163 -1.8016  1.9480 -0.7190
  931MOL0     H25641   8.934   8.534   0.054 -0.0988  1.2498  1.3866
  931MOL0     H25642   8.863   8.696   0.030  3.1319 -0.4055 -0.8385
  931MOL0     H25643   8.842   8.489  -0.187 -1.8992  1.5682 -1.8728
  931MOL0     H25644   8.983   8.584  -0.155  0.0590 -3.1391 -0.5688
  931MOL0     H25645   9.020   8.687  -0.363  0.6453  0.0306  0.8338
  931MOL0     H25646   9.127   8.741  -0.565  0.1413  0.7507  0.4748
  931MOL0     H25647   9.039   8.659  -0.708 -1.5322 -0.4300  0.4927
  931MOL0     H25648   9.029   8.832  -0.673  1.4735 -0.2121 -0.9191
  931MOL0     H25649   8.647   8.876  -0.968  1.7163  1.8223  1.1861
  931MOL0     H25650   8.636   8.876  -1.210 -1.6916  1.0807  2.8103
  931MOL0     H25651   8.994   8.944  -1.387 -0.0303 -0.6359 -1.8208
  931MOL0     H25652   8.890   8.937  -1.524 -1.2587 -1.3795  0.0354
  931MOL0     H25653   8.708   9.012  -1.371  1.8590 -2.5916  0.9310
  931MOL0     H25654   8.824   9.056  -1.250  2.4703  0.3520  0.0619
  931MOL0     H25655   8.843   9.155  -1.535  1.2582 -1.7457 -0.1731
  931MOL0     H25656   8.955   9.179  -1.408 -0.2391  1.1647  1.2744
  931MOL0     H25657   8.665   9.277  -1.417 -0.6891 -0.0327 -0.4544
  931MOL0     H25658   8.788   9.317  -1.290  1.0852 -1.0148 -0.3734
  931MOL0     H25659   8.739   9.490  -1.488 -0.4128 -0.7979 -0.9135
  931MOL0     H25660   8.830   9.382  -1.584 -1.2413  1.7358 -0.7598
  931MOL0     H25661   8.995   9.402  -1.374 -3.3454 -1.5235  1.8692
  931MOL0     H25662   8.991   9.533  -1.502  1.4923 -1.1969 -0.4992
  931MOL0     H25663   8.828   9.563  -1.238  1.4519  0.5295  2.1405
  931MOL0     H25664   8.868   9.681  -1.361  0.4786 -1.2754 -3.8031
  931MOL0     H25665   9.061   9.555  -1.172 -1.5353 -1.2612 -1.2795
  931MOL0     H25666   9.016   9.720  -1.163 -1.7332 -2.3403  1.4131
  931MOL0     H25667   9.046   8.701  -1.228 -0.9460 -1.0925 -2.1196
  931MOL0     H25668   9.030   8.697  -0.985 -1.0955 -0.1978 -0.2678
  931MOL0     H25669   8.572   8.693  -0.578 -1.5581  0.4215  1.2579
  931MOL0     H25670   8.585   8.703  -0.350 -0.8067 -2.4535 -1.0005
  931MOL0     H25671   7.910   7.363   0.586 -0.6444  1.0264 -2.8072
  931MOL0     H25672   8.002   7.152   0.636  0.1498 -0.0406 -1.3104
  931MOL0     H25673   8.150   6.695   0.647  0.9417  0.7428  2.7150
  931MOL0     H25674   8.289   6.505   0.709  0.2603  0.0252  1.4514
  931MOL0     H25675   8.547   6.494   0.602 -1.2521 -0.5060  1.1110
  931MOL0     H25676   8.693   6.561   0.664 -0.2595 -0.3256 -0.5633
  931MOL0     H25677   8.586   6.290   0.739 -0.2520 -0.1386  0.3315
  931MOL0     H25678   8.738   6.366   0.798 -1.1065 -1.3141  1.1737
  931MOL0     H25679   8.816   6.227   0.620 -1.0158 -0.2036  0.2086
  931MOL0     H25680   8.801   6.385   0.533  0.8718  1.9384  2.8271
  931MOL0     H25681   8.729   6.244   0.380 -1.4804 -2.9714 -0.8877
  931MOL0     H25682   8.568   6.282   0.451  0.1686  0.3286 -1.6926
  931MOL0     H25683   8.555   5.913   0.599  0.3681  0.2811  1.4882
  931MOL0     H25684   8.603   6.775   0.836  0.6892 -1.5892 -0.5590
  931MOL0     H25685   8.469   6.964   0.761  0.5121 -0.2447  3.0157
  932MOL0     O25686   3.800   1.285   2.461  0.2382 -0.3749 -0.0479
  932MOL0     C25687   3.867   1.384   2.438  0.2405 -0.3895 -0.6499
  932MOL0     O25688   3.844   1.506   2.488  0.1826  0.6115 -0.1238
  932MOL0     C25689   3.724   1.522   2.548 -0.1579 -0.7284 -0.6588
  932MOL0     C25690   3.613   1.522   2.464 -0.0802  0.2112  1.0184
  932MOL0     C25691   3.489   1.546   2.522  0.0111  0.3723  0.2761
  932MOL0     C25692   3.482   1.572   2.665 -0.4663 -0.2998  0.2781
  932MOL0     O25693   3.353   1.599   2.712  0.2362  0.5745  0.2217
  932MOL0     C25694   3.332   1.693   2.815  0.9502 -0.6454 -0.1923
  932MOL0     C25695   3.181   1.718   2.813  0.9472 -0.9217 -0.0811
  932MOL0     C25696   3.103   1.612   2.881 -0.0766 -0.0922 -0.0567
  932MOL0     C25697   2.948   1.624   2.865 -0.7198 -0.1764 -0.9170
  932MOL0     C25698   2.885   1.514   2.918  1.1281 -0.3134 -0.0570
  932MOL0     C25699   2.736   1.506   2.870  0.8388  0.1822 -0.1494
  932MOL0     C25700   2.680   1.367   2.906 -0.2334  0.2968  0.3500
  932MOL0     C25701   2.531   1.360   2.898  0.2590  0.5320 -0.1949
  932MOL0     N25702   2.485   1.216   2.903 -1.0014  0.1122  0.0084
  932MOL0     C25703   2.450   1.137   2.799 -1.5516  0.0052 -0.2070
  932MOL0     C25704   2.383   1.034   2.856  0.3683  0.0400  0.5645
  932MOL0     C25705   2.316   0.922   2.782 -0.8174 -0.3478  0.1485
  932MOL0     C25706   2.169   0.914   2.838  0.9110  0.0813 -0.0624
  932MOL0     C25707   2.103   0.783   2.799  1.2268 -0.5982  0.5851
  932MOL0     C25708   2.102   0.749   2.647 -0.0413  0.2577  0.6757
  932MOL0     O25709   2.053   0.862   2.585  0.2867  0.3537  0.6426
  932MOL0     C25710   1.933   0.843   2.529 -0.3280 -0.4871  0.9386
  932MOL0     C25711   1.924   0.806   2.395  0.0924  0.0700  0.1466
  932MOL0     C25712   1.805   0.779   2.326 -0.1081  0.4370  1.2710
  932MOL0     C25713   1.816   0.742   2.176  0.4011  0.0852  0.1740
  932MOL0     C25714   1.678   0.803   2.391  0.2077 -0.5234  0.4380
  932MOL0     C25715   1.548   0.773   2.328  0.0231 -0.2388 -0.0954
  932MOL0     O25716   1.446   0.800   2.420  0.0626 -0.4182 -0.3090
  932MOL0     C25717   1.320   0.752   2.381 -0.0713  0.8940 -0.1144
  932MOL0     C25718   1.256   0.661   2.468 -0.5041  0.4185  0.1323
  932MOL0     C25719   1.137   0.607   2.424 -0.2285  0.0702 -0.5307
  932MOL0     C25720   1.066   0.667   2.322  0.6140 -0.0039  0.2685
  932MOL0     O25721   0.947   0.614   2.292 -0.2923 -0.6416  0.1203
  932MOL0     C25722   0.845   0.714   2.274  0.1292  0.3798 -0.1208
  932MOL0     C25723   0.704   0.657   2.280  0.0445  0.7488  0.1932
  932MOL0     C25724   0.685   0.530   2.191 -0.3181 -0.7282  0.2965
  932MOL0     C25725   0.550   0.478   2.223  0.7364 -0.1558  0.1464
  932MOL0     C25726   0.519   0.335   2.165 -0.2150  0.1685  0.0995
  932MOL0     C25727   0.500   0.328   2.016 -0.1967 -0.1936 -0.8805
  932MOL0     C25728   0.475   0.186   1.978  0.2299 -0.0840 -0.3923
  932MOL0     C25729   0.337   0.129   2.021  0.9412  0.4039 -0.7781
  932MOL0    Cl25730   0.195   0.204   1.934 -0.1344 -0.5879 -0.0982
  932MOL0     C25731   1.128   0.760   2.236  0.1539 -0.4642 -0.5430
  932MOL0     C25732   1.254   0.801   2.270  0.2412 -0.0721 -0.4964
  932MOL0     O25733   1.526   0.740   2.210 -0.3785 -0.0215  0.0221
  932MOL0     C25734   1.692   0.852   2.527  0.3057 -0.0631 -0.3392
  932MOL0     C25735   1.817   0.873   2.593 -0.0352 -0.6064 -0.2613
  932MOL0     N25736   2.399   1.045   2.996  0.1868  0.0822  0.4344
  932MOL0     N25737   2.456   1.153   3.027 -0.7453 -0.6563  0.1004
  932MOL0     C25738   3.588   1.567   2.745 -0.4817  0.2767 -0.1574
  932MOL0     C25739   3.716   1.544   2.686  0.5206 -0.2043  0.5423
  932MOL0     C25740   4.000   1.365   2.367 -0.0482 -0.3314 -0.1189
  932MOL0     C25741   4.091   1.470   2.350 -0.3454 -0.0740  1.3542
  932MOL0     C25742   4.206   1.449   2.271  0.2876  0.4098 -0.7970
  932MOL0     C25743   4.237   1.338   2.207  0.8965  0.7166 -0.3530
  932MOL0     O25744   4.359   1.327   2.136 -0.2104 -0.2302 -0.0613
  932MOL0     C25745   4.367   1.210   2.059 -0.3892 -0.1537 -0.1615
  932MOL0     C25746   4.490   1.200   1.972 -0.7713 -0.1325  0.7027
  932MOL0     C25747   4.622   1.223   2.049 -0.5917  0.2684 -0.5417
  932MOL0     C25748   4.746   1.248   1.964 -0.0303  0.8700 -0.6267
  932MOL0     C25749   4.728   1.388   1.922  0.2863 -1.0020  0.0983
  932MOL0     C25750   4.711   1.506   1.895  0.7046  0.1786 -0.0284
  932MOL0     C25751   4.142   1.233   2.211  0.3447  0.3816 -0.0840
  932MOL0     C25752   4.028   1.247   2.297 -0.5387  0.3639  0.3980
  932MOL0     H25753   3.636   1.525   2.358 -0.2106 -0.4153  0.9686
  932MOL0     H25754   3.406   1.561   2.453  0.3355 -1.1919 -0.5016
  932MOL0     H25755   3.355   1.654   2.915 -0.3843 -1.6675 -0.2563
  932MOL0     H25756   3.390   1.785   2.808  0.4442 -0.4371 -2.2456
  932MOL0     H25757   3.152   1.805   2.872 -2.3115 -2.7875  1.3181
  932MOL0     H25758   3.143   1.740   2.713 -1.2999 -0.1402  0.8808
  932MOL0     H25759   3.129   1.510   2.854 -1.0508 -0.1386 -0.8967
  932MOL0     H25760   3.124   1.616   2.988 -2.2761 -2.6191  0.5824
  932MOL0     H25761   2.919   1.714   2.920  0.3052  0.8922 -2.0607
  932MOL0     H25762   2.919   1.656   2.764 -1.7322 -1.6500 -1.1285
  932MOL0     H25763   2.936   1.434   2.863  0.6379  1.1325 -2.7656
  932MOL0     H25764   2.894   1.507   3.027 -2.4318 -2.5113  0.2703
  932MOL0     H25765   2.675   1.573   2.932 -1.8804 -1.1200 -1.2606
  932MOL0     H25766   2.741   1.524   2.762 -0.3860  1.9081  0.0392
  932MOL0     H25767   2.724   1.293   2.839  0.3831  1.2918 -0.3812
  932MOL0     H25768   2.717   1.344   3.006  1.1930  1.3871  0.0984
  932MOL0     H25769   2.500   1.409   2.806 -1.4697 -1.6029 -0.8450
  932MOL0     H25770   2.492   1.403   2.991  2.6531 -1.4620  1.8952
  932MOL0     H25771   2.453   1.152   2.692  2.9457 -0.3817 -0.3324
  932MOL0     H25772   2.320   0.951   2.676 -2.0083 -0.2059  0.1229
  932MOL0     H25773   2.367   0.827   2.800  1.5107 -0.5243 -5.2546
  932MOL0     H25774   2.105   0.994   2.798 -0.2048 -1.3254 -1.2124
  932MOL0     H25775   2.168   0.913   2.947  2.0861 -3.1355  0.0114
  932MOL0     H25776   1.997   0.793   2.827  1.7881  0.3380  2.5262
  932MOL0     H25777   2.144   0.695   2.849 -1.2596 -1.3561  1.4689
  932MOL0     H25778   2.043   0.659   2.627  0.1158  0.2186  0.3736
  932MOL0     H25779   2.206   0.738   2.615  0.1855 -0.2779  1.5323
  932MOL0     H25780   2.018   0.796   2.341 -0.1064  1.6907 -0.5634
  932MOL0     H25781   1.916   0.761   2.135  0.0121 -1.8110 -1.8570
  932MOL0     H25782   1.794   0.636   2.158 -0.3337  0.7088 -3.2362
  932MOL0     H25783   1.756   0.788   2.098 -1.4454 -1.0025  0.8849
  932MOL0     H25784   1.300   0.624   2.560 -1.2000 -1.0175 -0.0849
  932MOL0     H25785   1.088   0.527   2.479  2.1935 -1.2575 -0.1795
  932MOL0     H25786   0.862   0.809   2.324 -0.1113  0.3386  0.0456
  932MOL0     H25787   0.852   0.740   2.168  3.8182 -1.5470 -0.5237
  932MOL0     H25788   0.685   0.637   2.386 -0.0620  2.1015  0.4586
  932MOL0     H25789   0.630   0.731   2.246 -0.1329 -1.2894 -4.5809
  932MOL0     H25790   0.759   0.457   2.225  0.0776 -0.8456 -0.7574
  932MOL0     H25791   0.689   0.550   2.083 -0.6256 -2.4976 -0.0749
  932MOL0     H25792   0.541   0.474   2.331 -2.7495  0.9783  0.0076
  932MOL0     H25793   0.473   0.548   2.190 -2.0801 -2.2568  1.8864
  932MOL0     H25794   0.431   0.294   2.214 -1.2656 -0.1875 -1.9910
  932MOL0     H25795   0.605   0.270   2.186 -0.6403 -1.0064 -1.6247
  932MOL0     H25796   0.410   0.381   1.984 -0.0811  1.3561  1.2340
  932MOL0     H25797   0.586   0.379   1.972  0.0007 -1.3016 -1.8453
  932MOL0     H25798   0.548   0.112   2.013 -0.1866 -0.7836 -0.9887
  932MOL0     H25799   0.475   0.190   1.868  0.7808  1.0292 -0.3744
  932MOL0     H25800   0.323   0.144   2.128  2.4707 -2.7185 -0.0122
  932MOL0     H25801   0.326   0.021   2.009  0.2485  0.3812 -0.0391
  932MOL0     H25802   1.094   0.792   2.138  0.1297  2.5671  0.3442
  932MOL0     H25803   1.307   0.882   2.220  0.2957  0.8869  1.0382
  932MOL0     H25804   1.599   0.867   2.583 -0.2645  4.2402 -2.0393
  932MOL0     H25805   1.819   0.907   2.696  2.1913 -3.3897  0.7500
  932MOL0     H25806   3.574   1.586   2.851  1.9095  0.2871  0.2173
  932MOL0     H25807   3.805   1.542   2.748  0.2207  3.1802  1.2539
  932MOL0     H25808   4.098   1.570   2.391  1.7611  0.5861 -0.4374
  932MOL0     H25809   4.282   1.526   2.261  0.1580  0.2721 -4.1616
  932MOL0     H25810   4.366   1.118   2.120  1.2020  0.1084  0.3186
  932MOL0     H25811   4.286   1.192   1.989  1.5370 -0.7646 -2.3614
  932MOL0     H25812   4.480   1.276   1.895 -1.2231 -1.3706 -0.5093
  932MOL0     H25813   4.489   1.100   1.927  0.4143 -0.3656  1.1734
  932MOL0     H25814   4.643   1.124   2.093 -2.2647 -1.8173 -4.0129
  932MOL0     H25815   4.597   1.294   2.128 -1.8650  0.5920 -1.2158
  932MOL0     H25816   4.755   1.182   1.878  2.2318  0.4270 -0.1308
  932MOL0     H25817   4.838   1.236   2.024  0.8870 -1.2197 -2.2989
  932MOL0     H25818   4.683   1.605   1.865  1.8553  0.7582  0.7110
  932MOL0     H25819   4.144   1.141   2.153 -0.5177 -0.1894  0.7568
  932MOL0     H25820   3.954   1.167   2.301 -2.1477  1.6541 -1.6458
  933MOL0     O25821   3.736   1.722   8.024  0.6803  0.2151 -0.2296
  933MOL0     C25822   3.721   1.833   8.067  0.4419 -0.0488 -0.4355
  933MOL0     O25823   3.609   1.912   8.040  0.1293 -1.2673  0.1698
  933MOL0     C25824   3.553   1.897   7.916  0.2612  0.5207 -0.9103
  933MOL0     C25825   3.617   1.851   7.798  0.4559 -0.4224 -0.5610
  933MOL0     C25826   3.545   1.830   7.680 -0.0742 -0.3569  0.3498
  933MOL0     C25827   3.407   1.847   7.677 -0.3365 -0.0477 -0.1674
  933MOL0     O25828   3.331   1.807   7.574 -0.4403  0.2682 -0.8780
  933MOL0     C25829   3.338   1.900   7.464 -0.1196 -0.0167 -0.0111
  933MOL0     C25830   3.191   1.914   7.419 -0.0350  0.4558 -0.5330
  933MOL0     C25831   3.119   2.018   7.501 -1.6432  0.5525  0.3192
  933MOL0     C25832   2.990   2.044   7.427 -0.5548  1.2986  1.3400
  933MOL0     C25833   2.907   2.133   7.509 -0.0701  0.3196  0.0781
  933MOL0     C25834   2.757   2.125   7.452 -1.2061 -0.0752 -0.3983
  933MOL0     C25835   2.649   2.169   7.546  0.4718  0.2175 -0.2968
  933MOL0     C25836   2.516   2.118   7.502 -0.3494 -0.5343 -0.0151
  933MOL0     N25837   2.453   2.177   7.380 -0.5419  0.1626 -0.3495
  933MOL0     C25838   2.386   2.296   7.364  0.4575  0.3864 -0.5692
  933MOL0     C25839   2.335   2.282   7.243  0.3422 -0.4626 -0.6869
  933MOL0     C25840   2.231   2.381   7.182 -1.0058  0.2631  0.0020
  933MOL0     C25841   2.101   2.379   7.262  0.5000 -0.4632 -0.2970
  933MOL0     C25842   1.989   2.466   7.202 -0.4125 -0.4648 -0.3844
  933MOL0     C25843   1.855   2.447   7.262  0.6957  0.1240 -0.5178
  933MOL0     O25844   1.776   2.549   7.202  0.0971 -0.5444 -0.7522
  933MOL0     C25845   1.641   2.542   7.223  0.1615  0.9489  0.0714
  933MOL0     C25846   1.576   2.665   7.223 -0.1027 -0.5347 -0.6040
  933MOL0     C25847   1.443   2.675   7.232  0.3299  0.4070 -0.4169
  933MOL0     C25848   1.389   2.816   7.209  0.3163  0.3498 -1.2846
  933MOL0     C25849   1.362   2.549   7.246 -0.3672 -0.5716 -0.1972
  933MOL0     C25850   1.221   2.543   7.259 -0.3267 -0.2197  0.0395
  933MOL0     O25851   1.152   2.664   7.267 -0.1457 -0.0511 -0.0327
  933MOL0     C25852   1.014   2.659   7.269  0.3628 -1.0140  0.5861
  933MOL0     C25853   0.958   2.769   7.203  0.1719 -0.9601 -0.7227
  933MOL0     C25854   0.812   2.792   7.199  0.1462 -0.6662 -0.1479
  933MOL0     C25855   0.729   2.707   7.269 -0.4578 -0.7136 -0.0890
  933MOL0     O25856   0.591   2.725   7.256 -0.7208  0.3612  0.3133
  933MOL0     C25857   0.549   2.705   7.114 -0.5422 -0.0355 -0.6475
  933MOL0     C25858   0.396   2.741   7.109 -0.5506 -0.2855 -0.1950
  933MOL0     C25859   0.343   2.830   7.212  0.3410  0.1123  0.5241
  933MOL0     C25860   0.195   2.863   7.186  0.1767 -0.1202  0.0999
  933MOL0     C25861   0.149   2.964   7.292  0.4761 -0.3600  0.1093
  933MOL0     C25862  -0.005   2.973   7.297  0.4638 -0.3081  0.1700
  933MOL0     C25863  -0.080   3.033   7.172  0.4818  0.7301  0.4337
  933MOL0     C25864  -0.220   3.087   7.206 -0.3197  0.6019  0.1353
  933MOL0    Cl25865  -0.317   3.129   7.056 -0.3599  0.3787 -0.1896
  933MOL0     C25866   0.785   2.595   7.337 -0.9812 -0.0953 -0.6944
  933MOL0     C25867   0.935   2.571   7.344  0.4560 -0.0300  0.0785
  933MOL0     O25868   1.165   2.436   7.261 -0.1943  0.9848 -0.5689
  933MOL0     C25869   1.424   2.423   7.243  0.7337  0.1201 -0.1961
  933MOL0     C25870   1.567   2.420   7.239  0.1464  0.4369 -0.2946
  933MOL0     N25871   2.384   2.171   7.182  0.0619  0.3583 -0.3228
  933MOL0     N25872   2.451   2.101   7.265  0.1879 -0.6046  0.2083
  933MOL0     C25873   3.337   1.882   7.794 -0.6566 -0.1509  0.1853
  933MOL0     C25874   3.411   1.910   7.914 -0.3159 -0.1150 -0.0761
  933MOL0     C25875   3.812   1.892   8.171 -0.6612 -0.0182 -0.0632
  933MOL0     C25876   3.905   1.807   8.245 -0.3177 -0.4971  1.0188
  933MOL0     C25877   3.981   1.867   8.342 -0.8837 -0.2572  0.4310
  933MOL0     C25878   3.959   2.000   8.391 -0.0542  0.0915 -0.8064
  933MOL0     O25879   4.034   2.060   8.490 -0.3991  0.4919  0.2625
  933MOL0     C25880   4.172   2.068   8.482  0.0934 -0.3410 -0.0324
  933MOL0     C25881   4.214   2.212   8.510 -0.1616  0.6562 -0.3534
  933MOL0     C25882   4.276   2.269   8.384 -0.6755  0.4592  0.6523
  933MOL0     C25883   4.351   2.398   8.419  0.7968  0.1583 -0.6768
  933MOL0     C25884   4.415   2.460   8.302  1.3290 -0.0960  0.8306
  933MOL0     C25885   4.487   2.505   8.212  0.2292  0.2227  0.2641
  933MOL0     C25886   3.862   2.075   8.332  0.5580 -0.1963  0.6191
  933MOL0     C25887   3.790   2.033   8.223 -0.1228 -0.0050 -0.7707
  933MOL0     H25888   3.725   1.850   7.801  0.4365 -1.1977  0.3357
  933MOL0     H25889   3.590   1.788   7.591 -1.3458  0.1704 -0.5815
  933MOL0     H25890   3.387   1.994   7.492  2.0706 -1.0273 -0.2459
  933MOL0     H25891   3.389   1.854   7.379  1.6471  0.8220  0.5434
  933MOL0     H25892   3.184   1.948   7.315 -0.6446  0.2129 -0.5769
  933MOL0     H25893   3.142   1.816   7.423  2.7071 -1.1621 -2.9416
  933MOL0     H25894   3.114   1.978   7.602 -0.8355 -2.2716 -0.6574
  933MOL0     H25895   3.180   2.109   7.510  0.2039 -0.6064  0.1155
  933MOL0     H25896   3.004   2.084   7.327  0.4252  0.5219  1.1556
  933MOL0     H25897   2.943   1.945   7.426  0.6322  0.7086  1.8122
  933MOL0     H25898   2.912   2.099   7.613  1.9365  2.4303  0.7385
  933MOL0     H25899   2.950   2.233   7.515 -0.6363  0.5119  0.9862
  933MOL0     H25900   2.748   2.197   7.370 -3.1162  2.3568  1.8128
  933MOL0     H25901   2.741   2.026   7.408  0.4506  0.0922 -1.4763
  933MOL0     H25902   2.671   2.139   7.649  2.7795  0.9567 -0.5062
  933MOL0     H25903   2.654   2.279   7.547  3.6147  0.2354  2.5149
  933MOL0     H25904   2.452   2.133   7.589  1.5139 -1.0469  1.5258
  933MOL0     H25905   2.523   2.009   7.501  0.6381 -0.5290  2.1636
  933MOL0     H25906   2.370   2.382   7.428  1.3151 -0.4963  0.8844
  933MOL0     H25907   2.274   2.482   7.182  0.6789 -0.4295  1.3093
  933MOL0     H25908   2.211   2.348   7.079 -0.7378 -1.6143  0.5247
  933MOL0     H25909   2.129   2.424   7.358  1.2106  1.2558 -1.2761
  933MOL0     H25910   2.066   2.279   7.290 -2.5544  1.0247  1.8448
  933MOL0     H25911   1.975   2.447   7.095 -2.8898 -0.0378 -0.2068
  933MOL0     H25912   2.008   2.571   7.226 -2.8376 -0.3210  1.2400
  933MOL0     H25913   1.840   2.457   7.370 -2.1777 -3.0270 -0.4595
  933MOL0     H25914   1.828   2.344   7.239  1.5001 -0.5133  1.2215
  933MOL0     H25915   1.647   2.747   7.212 -1.0061  0.1734 -1.4181
  933MOL0     H25916   1.331   2.857   7.292 -0.3837  1.0937 -2.1237
  933MOL0     H25917   1.478   2.879   7.207  0.7645  0.2831  3.6583
  933MOL0     H25918   1.327   2.824   7.119  1.8006  2.2702 -2.2060
  933MOL0     H25919   1.016   2.839   7.142  2.7187 -2.5990 -0.3439
  933MOL0     H25920   0.776   2.881   7.149 -1.1552 -0.0190  1.8018
  933MOL0     H25921   0.608   2.773   7.052  0.8766  0.0539  0.7439
  933MOL0     H25922   0.575   2.601   7.093 -1.1022 -0.9986  2.7715
  933MOL0     H25923   0.391   2.785   7.008 -1.0387 -0.3485 -0.1968
  933MOL0     H25924   0.337   2.649   7.112 -2.5890  0.8730 -1.9988
  933MOL0     H25925   0.396   2.924   7.199 -0.2628  0.2230 -1.4917
  933MOL0     H25926   0.351   2.779   7.309  0.7075 -3.1066 -1.0384
  933MOL0     H25927   0.174   2.909   7.089  2.4573 -0.0110 -0.3957
  933MOL0     H25928   0.140   2.769   7.191 -1.1338  0.5643 -0.8313
  933MOL0     H25929   0.182   3.066   7.271  1.0693 -0.6356 -0.3226
  933MOL0     H25930   0.181   2.929   7.391 -0.7843  0.2298  0.7490
  933MOL0     H25931  -0.046   2.879   7.337 -0.9962  0.3760  0.3713
  933MOL0     H25932  -0.026   3.045   7.377 -3.3448 -0.3197 -0.6168
  933MOL0     H25933  -0.088   2.953   7.098  2.5557  0.3763  0.5268
  933MOL0     H25934  -0.023   3.120   7.138  0.4499  0.7751  0.4967
  933MOL0     H25935  -0.224   3.169   7.278  3.1532 -1.2199  2.7345
  933MOL0     H25936  -0.268   2.997   7.245  0.1757 -0.6664 -2.0296
  933MOL0     H25937   0.719   2.524   7.386  1.6465 -1.2608  1.3641
  933MOL0     H25938   0.984   2.480   7.378  0.5512 -0.7002 -1.7106
  933MOL0     H25939   1.380   2.325   7.257 -0.7298  0.8980  0.9151
  933MOL0     H25940   1.610   2.321   7.230 -1.9514 -0.8317  2.0332
  933MOL0     H25941   3.229   1.881   7.794 -0.7447  1.6314  2.7608
  933MOL0     H25942   3.356   1.919   8.007  0.2225 -2.3498  0.5298
  933MOL0     H25943   3.930   1.708   8.208  0.2404 -0.1746  0.5134
  933MOL0     H25944   4.069   1.820   8.385 -1.5184  1.2271  3.6024
  933MOL0     H25945   4.214   2.003   8.559  1.1274 -1.0159 -1.1148
  933MOL0     H25946   4.211   2.030   8.387  3.6637  1.0232  0.7106
  933MOL0     H25947   4.294   2.210   8.585 -0.5391  0.4924  0.0418
  933MOL0     H25948   4.129   2.273   8.541 -0.5566 -0.5981  1.1254
  933MOL0     H25949   4.206   2.307   8.309  1.5709  2.1669 -0.7581
  933MOL0     H25950   4.348   2.201   8.338 -1.1130  0.6109 -0.2852
  933MOL0     H25951   4.424   2.371   8.496  0.8758 -2.6006 -1.5920
  933MOL0     H25952   4.284   2.469   8.470 -0.3572 -1.0646 -0.4256
  933MOL0     H25953   4.541   2.562   8.140  0.1957 -1.2456 -0.9771
  933MOL0     H25954   3.828   2.164   8.383 -0.9667 -1.3467  1.7307
  933MOL0     H25955   3.713   2.098   8.181  1.7495  3.3719  0.5975
  934MOL0     O25956   8.046   1.977   5.718  0.3976  0.5531 -0.1644
  934MOL0     C25957   8.045   1.856   5.684  0.3247 -0.7425 -1.3345
  934MOL0     O25958   8.151   1.756   5.709  0.7714  0.6795  0.1273
  934MOL0     C25959   8.278   1.791   5.746  0.0144  0.4126 -0.2821
  934MOL0     C25960   8.338   1.717   5.853 -0.4036 -0.2538  0.2965
  934MOL0     C25961   8.471   1.750   5.895 -0.4474  0.3259 -0.6174
  934MOL0     C25962   8.538   1.863   5.839 -1.0812  0.8154 -0.1526
  934MOL0     O25963   8.662   1.886   5.887  0.1326 -0.1646  0.5829
  934MOL0     C25964   8.675   2.016   5.943 -0.3698  0.3420 -0.6569
  934MOL0     C25965   8.814   2.066   5.959 -0.1721  0.4271  0.3191
  934MOL0     C25966   8.894   1.969   6.050  0.5152  0.0175  0.6316
  934MOL0     C25967   9.031   2.041   6.074  0.2896 -0.5300 -0.2369
  934MOL0     C25968   9.119   1.937   6.142 -0.2364 -0.0734 -0.5443
  934MOL0     C25969   9.261   1.988   6.151  1.3364  0.3420  0.4857
  934MOL0     C25970   9.330   2.019   6.019  0.2453  0.3167  0.2966
  934MOL0     C25971   9.342   1.902   5.927 -0.3921  0.3407  0.8830
  934MOL0     N25972   9.452   1.923   5.825 -0.2347  0.0149  0.4049
  934MOL0     C25973   9.429   1.918   5.695 -0.9315  0.2140  1.0091
  934MOL0     C25974   9.546   1.954   5.628 -0.8172 -0.6835 -0.1542
  934MOL0     C25975   9.568   1.967   5.478  0.2598  0.1969  0.8522
  934MOL0     C25976   9.544   2.120   5.444 -0.1284 -0.3549 -0.1184
  934MOL0     C25977   9.518   2.133   5.289 -0.0753 -0.7385  0.1352
  934MOL0     C25978   9.390   2.070   5.243  0.5762  1.0473 -0.1615
  934MOL0     O25979   9.364   2.106   5.109  0.7981  0.0199  0.1790
  934MOL0     C25980   9.232   2.099   5.066 -0.0407 -0.3475 -0.4575
  934MOL0     C25981   9.206   2.139   4.938  0.3939 -0.7382 -0.5941
  934MOL0     C25982   9.077   2.139   4.877 -0.0890  0.5941 -0.6021
  934MOL0     C25983   9.066   2.185   4.733  1.1146 -0.2431 -0.0037
  934MOL0     C25984   8.965   2.091   4.957 -0.6302  0.8047  0.4563
  934MOL0     C25985   8.831   2.087   4.908  0.1706 -1.0556 -0.2480
  934MOL0     O25986   8.737   2.130   4.995 -0.2422  0.6612 -0.1020
  934MOL0     C25987   8.611   2.146   4.955 -0.6123 -0.2727  0.5709
  934MOL0     C25988   8.514   2.108   5.040 -0.1391  0.6138 -0.1434
  934MOL0     C25989   8.376   2.116   5.019  0.4045 -0.4541  0.1920
  934MOL0     C25990   8.329   2.182   4.910  0.4242  0.5847  0.6099
  934MOL0     O25991   8.199   2.203   4.872  0.6642  0.3870 -0.6422
  934MOL0     C25992   8.092   2.183   4.973 -0.3043 -0.2920 -0.1089
  934MOL0     C25993   7.955   2.194   4.907  0.1205 -0.5580 -0.3611
  934MOL0     C25994   7.944   2.102   4.781 -0.6224  0.0299  0.6000
  934MOL0     C25995   7.809   2.110   4.706 -0.3970  0.2001 -0.1374
  934MOL0     C25996   7.806   2.030   4.580  0.3224  0.3907 -0.0611
  934MOL0     C25997   7.854   2.121   4.465  1.1187  0.7544 -0.1718
  934MOL0     C25998   7.894   2.045   4.347 -0.9913  0.4052  0.1819
  934MOL0     C25999   7.913   2.144   4.231 -0.3499  0.7319 -0.6413
  934MOL0    Cl26000   7.959   2.054   4.076  0.2911  0.4932  0.0882
  934MOL0     C26001   8.423   2.227   4.820  0.7481 -0.0177  0.1418
  934MOL0     C26002   8.561   2.197   4.833  0.1594  0.4779  0.2961
  934MOL0     O26003   8.810   2.040   4.797 -0.5056 -0.3636  0.6179
  934MOL0     C26004   8.994   2.047   5.089 -0.6045  0.0397  0.1074
  934MOL0     C26005   9.131   2.053   5.139  0.0038 -0.7289  0.9164
  934MOL0     N26006   9.645   1.983   5.720  0.2241  0.0988  0.3360
  934MOL0     N26007   9.586   1.966   5.838 -0.1951  0.0140 -0.5164
  934MOL0     C26008   8.472   1.941   5.744 -0.1314  0.0557  0.4533
  934MOL0     C26009   8.355   1.901   5.688  0.1184  0.6040 -0.0111
  934MOL0     C26010   7.925   1.819   5.603  0.3500  0.0840  0.0097
  934MOL0     C26011   7.805   1.898   5.597 -0.7430 -0.1281 -0.5266
  934MOL0     C26012   7.701   1.867   5.505  0.7118 -0.2740 -1.0339
  934MOL0     C26013   7.723   1.760   5.423  0.2402  0.5185  0.5699
  934MOL0     O26014   7.635   1.711   5.328  0.2464  0.0695  0.3814
  934MOL0     C26015   7.494   1.732   5.343 -0.6279  0.2597 -0.5291
  934MOL0     C26016   7.401   1.623   5.293 -0.6829 -0.9278  0.1763
  934MOL0     C26017   7.467   1.486   5.314  0.6945 -0.6026  0.1987
  934MOL0     C26018   7.372   1.368   5.333  0.0993 -0.6992  0.0307
  934MOL0     C26019   7.418   1.268   5.415 -0.1854  0.2031 -0.0726
  934MOL0     C26020   7.455   1.184   5.491  0.5556  0.8795 -0.4630
  934MOL0     C26021   7.831   1.680   5.436 -0.1653  0.1709 -0.1776
  934MOL0     C26022   7.930   1.703   5.524 -0.1413 -0.3587 -0.4542
  934MOL0     H26023   8.287   1.631   5.895  2.9561 -2.5351  0.1042
  934MOL0     H26024   8.510   1.685   5.972 -1.8891 -0.4936 -0.5354
  934MOL0     H26025   8.626   2.086   5.874 -1.2555 -2.5472 -3.2314
  934MOL0     H26026   8.619   2.027   6.036  1.4015  1.4349  0.3216
  934MOL0     H26027   8.870   2.065   5.865 -1.6235  0.3884 -0.5742
  934MOL0     H26028   8.812   2.165   6.005  0.1760  1.0264 -0.9187
  934MOL0     H26029   8.830   1.953   6.137 -0.2529  2.4187  0.5963
  934MOL0     H26030   8.910   1.870   6.007  1.1677  1.3416 -2.5301
  934MOL0     H26031   9.073   2.085   5.983  0.0151  0.2953  0.0274
  934MOL0     H26032   9.029   2.127   6.141  1.9684  0.0744 -0.9104
  934MOL0     H26033   9.074   1.912   6.239 -1.1675  2.0869 -0.3832
  934MOL0     H26034   9.118   1.842   6.087 -0.4345 -0.5788  0.3018
  934MOL0     H26035   9.249   2.068   6.225 -3.0074 -2.1086  2.8675
  934MOL0     H26036   9.318   1.920   6.215 -2.1958 -1.3062  2.2198
  934MOL0     H26037   9.280   2.108   5.981 -1.5021 -0.2227  1.2612
  934MOL0     H26038   9.432   2.050   6.044  0.5570  0.9949 -1.6560
  934MOL0     H26039   9.248   1.863   5.888  0.2525 -0.3550 -0.0283
  934MOL0     H26040   9.389   1.820   5.983 -0.0810  0.1129  0.2977
  934MOL0     H26041   9.341   1.903   5.634  1.4059 -1.5811 -2.1876
  934MOL0     H26042   9.675   1.950   5.460  0.3360  3.1370 -2.5164
  934MOL0     H26043   9.508   1.894   5.423 -1.1620  2.1069 -0.2533
  934MOL0     H26044   9.635   2.177   5.461 -1.4381  2.1758 -1.0147
  934MOL0     H26045   9.458   2.164   5.495 -1.9381 -1.8413 -1.6759
  934MOL0     H26046   9.601   2.089   5.233 -0.3879  0.5226 -1.3886
  934MOL0     H26047   9.524   2.238   5.258  1.5494 -0.4507  1.2922
  934MOL0     H26048   9.309   2.089   5.314 -0.0895  4.1540 -1.6054
  934MOL0     H26049   9.395   1.961   5.243  0.6569  1.0506  0.0533
  934MOL0     H26050   9.289   2.171   4.876  0.6746 -0.7359 -0.2225
  934MOL0     H26051   8.968   2.233   4.729  1.8137  1.2117 -0.4271
  934MOL0     H26052   9.119   2.275   4.703 -0.5413  0.3418 -1.3215
  934MOL0     H26053   9.090   2.101   4.667  2.4749  1.0296 -1.2016
  934MOL0     H26054   8.538   2.053   5.130  2.7862  1.5320 -0.2798
  934MOL0     H26055   8.309   2.079   5.096 -0.2066 -0.5378 -0.3720
  934MOL0     H26056   8.080   2.079   5.007 -0.9482  0.1431  1.0389
  934MOL0     H26057   8.101   2.250   5.058  0.6063 -1.9462  1.1572
  934MOL0     H26058   7.868   2.170   4.969  0.0521  1.6663  0.5039
  934MOL0     H26059   7.934   2.292   4.862 -0.0646 -1.5791 -2.6220
  934MOL0     H26060   7.957   1.997   4.809 -2.0560 -0.9288 -1.9489
  934MOL0     H26061   8.026   2.128   4.713 -0.8318  1.1767  0.7564
  934MOL0     H26062   7.725   2.081   4.770 -1.3104  1.1574 -0.8605
  934MOL0     H26063   7.772   2.211   4.686 -0.3415  0.2394 -0.0418
  934MOL0     H26064   7.703   2.006   4.550  1.5102 -3.6503 -1.5458
  934MOL0     H26065   7.862   1.937   4.587 -0.8052 -0.1783  2.4706
  934MOL0     H26066   7.787   2.201   4.431  2.6940  1.5743 -1.5052
  934MOL0     H26067   7.938   2.179   4.503  0.8425 -0.9453  3.4569
  934MOL0     H26068   7.816   1.976   4.313 -0.6567 -0.2373  0.6838
  934MOL0     H26069   7.985   1.988   4.371 -0.0048  2.0003  0.3968
  934MOL0     H26070   7.988   2.218   4.259 -1.7823  1.5705  1.1601
  934MOL0     H26071   7.817   2.194   4.219 -1.2027  0.8289  4.5089
  934MOL0     H26072   8.383   2.288   4.739 -1.0389  1.2038  1.8191
  934MOL0     H26073   8.629   2.234   4.757 -1.1810 -1.7678 -2.1932
  934MOL0     H26074   8.908   2.019   5.150  0.0776 -0.2531  0.9485
  934MOL0     H26075   9.141   2.007   5.237  1.5625 -1.2641  0.5289
  934MOL0     H26076   8.538   2.015   5.701  0.3830 -0.9472 -0.5214
  934MOL0     H26077   8.326   1.967   5.606  3.4535 -2.3740 -4.0523
  934MOL0     H26078   7.796   1.983   5.664 -0.1853  1.1452 -2.0259
  934MOL0     H26079   7.604   1.913   5.488 -0.0846 -0.8372  1.4914
  934MOL0     H26080   7.477   1.737   5.451  1.9261 -2.5480  0.1569
  934MOL0     H26081   7.473   1.829   5.298 -0.5699  0.4469 -0.1618
  934MOL0     H26082   7.386   1.636   5.185 -1.9405  0.8054  0.5244
  934MOL0     H26083   7.302   1.640   5.335  0.2737  1.3721  1.6649
  934MOL0     H26084   7.523   1.491   5.408 -0.3857 -2.2578  0.9586
  934MOL0     H26085   7.537   1.456   5.235 -1.6516 -3.3611 -0.9723
  934MOL0     H26086   7.356   1.329   5.232  2.3365  0.5858 -0.8919
  934MOL0     H26087   7.273   1.407   5.361 -0.5868 -1.0349 -1.7754
  934MOL0     H26088   7.488   1.108   5.559  1.0995 -0.0039 -1.6747
  934MOL0     H26089   7.852   1.597   5.369 -0.7347 -0.4092  0.3575
  934MOL0     H26090   8.006   1.625   5.526 -1.4162 -1.6946 -2.0414
  935MOL0     O26091   7.514   9.991   4.413 -0.2066 -0.1523  0.6310
  935MOL0     C26092   7.558   9.946   4.521  0.2992  0.8097 -0.7581
  935MOL0     O26093   7.501   9.839   4.587 -0.0617  0.8411 -0.4845
  935MOL0     C26094   7.377   9.798   4.543  0.2247  0.1737 -0.1298
  935MOL0     C26095   7.258   9.827   4.618  0.2118 -0.5545 -0.3897
  935MOL0     C26096   7.146   9.773   4.575 -0.2539 -0.4956  0.6289
  935MOL0     C26097   7.132   9.685   4.471 -0.8899 -0.0495 -0.9774
  935MOL0     O26098   7.023   9.621   4.412  0.5119 -0.8663  0.9083
  935MOL0     C26099   6.901   9.702   4.394  0.3453  0.5941  0.6910
  935MOL0     C26100   6.789   9.628   4.470 -1.2517 -0.1813 -0.0161
  935MOL0     C26101   6.648   9.666   4.430 -0.1125 -0.4758 -0.1150
  935MOL0     C26102   6.546   9.598   4.525 -0.2889 -0.1957  0.9359
  935MOL0     C26103   6.416   9.663   4.514  0.5686 -0.0394  0.0789
  935MOL0     C26104   6.330   9.631   4.644  0.1323  0.5055 -0.1655
  935MOL0     C26105   6.188   9.674   4.632  1.6719  0.1195 -0.3162
  935MOL0     C26106   6.103   9.653   4.758 -0.1519 -0.2555  0.5249
  935MOL0     N26107   6.098   9.507   4.775 -0.4622 -1.0203  0.5097
  935MOL0     C26108   6.019   9.422   4.715  1.1532 -0.9544 -0.4531
  935MOL0     C26109   6.025   9.306   4.781  0.2390  0.0848 -0.2913
  935MOL0     C26110   5.951   9.178   4.741 -0.4394  0.0907 -0.1805
  935MOL0     C26111   5.803   9.208   4.786 -0.1467  0.0069  0.3757
  935MOL0     C26112   5.771   9.227   4.930 -0.0184 -0.1341 -1.4876
  935MOL0     C26113   5.628   9.187   4.979 -0.9691  0.3304  0.4992
  935MOL0     O26114   5.529   9.272   4.914 -0.5521  0.5453 -0.2065
  935MOL0     C26115   5.401   9.230   4.907  0.4074 -0.0217  0.8339
  935MOL0     C26116   5.356   9.116   4.970 -0.0516 -0.7475 -0.7022
  935MOL0     C26117   5.223   9.078   4.958 -0.4667 -0.3733  0.7132
  935MOL0     C26118   5.178   8.955   5.019 -0.2551  0.5216  0.2940
  935MOL0     C26119   5.134   9.157   4.880  0.4450 -0.5340 -0.7290
  935MOL0     C26120   4.988   9.128   4.870  0.4548  0.9278 -0.8145
  935MOL0     O26121   4.927   9.158   4.751 -0.2440 -0.5574 -0.4162
  935MOL0     C26122   4.793   9.139   4.758 -0.5911 -0.6128  0.7455
  935MOL0     C26123   4.706   9.221   4.840 -0.0359  0.4417 -1.1761
  935MOL0     C26124   4.566   9.189   4.852 -0.5266 -1.2980 -0.4275
  935MOL0     C26125   4.517   9.077   4.777 -0.0810 -0.9828  0.0708
  935MOL0     O26126   4.388   9.040   4.782  0.5239  0.5741  0.2281
  935MOL0     C26127   4.276   9.115   4.726 -0.2561 -0.4740  0.0586
  935MOL0     C26128   4.148   9.041   4.746 -0.2538 -0.4522 -0.3552
  935MOL0     C26129   4.128   8.911   4.673 -0.2304 -0.1427  0.4060
  935MOL0     C26130   3.972   8.877   4.669  0.1857  0.3481  1.3215
  935MOL0     C26131   3.948   8.741   4.606  0.1749  0.6699  0.3264
  935MOL0     C26132   3.982   8.737   4.456 -0.6114 -0.5163 -0.3868
  935MOL0     C26133   3.932   8.614   4.381 -0.0943  1.2780 -1.2268
  935MOL0     C26134   3.789   8.584   4.387  0.5168  0.4801 -0.5415
  935MOL0    Cl26135   3.675   8.715   4.359 -0.1105 -0.2355 -0.0392
  935MOL0     C26136   4.602   8.990   4.718  0.1063  0.1089  0.2491
  935MOL0     C26137   4.736   9.017   4.708 -0.3998  0.3573 -0.7278
  935MOL0     O26138   4.935   9.104   4.977  0.2755  0.5184  0.2878
  935MOL0     C26139   5.180   9.280   4.825 -0.1818 -0.3284  0.3096
  935MOL0     C26140   5.314   9.318   4.839  0.4115  0.2899 -1.2902
  935MOL0     N26141   6.108   9.329   4.890 -0.4021 -0.5139 -0.3873
  935MOL0     N26142   6.149   9.449   4.893 -0.4899  0.0568  0.1931
  935MOL0     C26143   7.248   9.668   4.393 -0.7195 -0.2792 -0.4139
  935MOL0     C26144   7.375   9.721   4.433  0.5530  0.4627  0.5325
  935MOL0     C26145   7.691   9.993   4.577  0.0392  0.2313  0.7590
  935MOL0     C26146   7.766  10.091   4.508  0.2511  0.0180 -0.8688
  935MOL0     C26147   7.894  10.130   4.554 -0.0939 -0.5525 -0.0262
  935MOL0     C26148   7.952  10.066   4.664  0.9696 -0.1452 -0.3844
  935MOL0     O26149   8.071  10.088   4.717  0.1231  0.3755 -0.3169
  935MOL0     C26150   8.174  10.113   4.631 -0.6938 -0.0038 -0.3056
  935MOL0     C26151   8.220  10.261   4.643 -0.4119 -0.2504 -0.2218
  935MOL0     C26152   8.269  10.281   4.798  0.2230 -0.2922  0.3764
  935MOL0     C26153   8.336  10.414   4.823  0.1647 -0.1973  0.5562
  935MOL0     C26154   8.240  10.529   4.833 -0.1099 -0.0907  0.1006
  935MOL0     C26155   8.179  10.636   4.860  0.7011  1.0457  0.1621
  935MOL0     C26156   7.869   9.984   4.742 -1.1603  0.3491 -0.0842
  935MOL0     C26157   7.740   9.943   4.699 -0.1115  1.2609  0.1257
  935MOL0     H26158   7.263   9.890   4.707  1.5622 -4.6789  2.7676
  935MOL0     H26159   7.058   9.805   4.631 -0.7825 -0.7265 -0.0410
  935MOL0     H26160   6.900   9.804   4.434 -1.9827  0.5955  0.7823
  935MOL0     H26161   6.880   9.705   4.287 -3.2382 -0.3071  1.2415
  935MOL0     H26162   6.811   9.521   4.472 -0.4787 -0.0531 -1.1831
  935MOL0     H26163   6.803   9.652   4.576  0.6386  1.9172 -0.6558
  935MOL0     H26164   6.638   9.775   4.438  0.0972 -0.4040 -0.7469
  935MOL0     H26165   6.621   9.643   4.326 -3.5768  1.2539  0.2356
  935MOL0     H26166   6.535   9.491   4.510 -0.7100  0.0959 -1.0108
  935MOL0     H26167   6.586   9.600   4.627 -0.7341  2.4536  1.1500
  935MOL0     H26168   6.433   9.769   4.494 -1.2855  0.2781  0.0047
  935MOL0     H26169   6.372   9.627   4.420 -0.4598  0.3009  0.4116
  935MOL0     H26170   6.345   9.526   4.670 -1.9549  0.3960  0.8061
  935MOL0     H26171   6.369   9.691   4.727  0.6461 -0.3365  0.2041
  935MOL0     H26172   6.186   9.778   4.599 -2.4807  0.2133 -0.2552
  935MOL0     H26173   6.132   9.621   4.554 -0.8935  0.6362  1.0420
  935MOL0     H26174   6.004   9.699   4.750  0.5050  0.9782 -0.9723
  935MOL0     H26175   6.155   9.713   4.833  0.9320 -0.3995 -0.1026
  935MOL0     H26176   5.963   9.449   4.626 -1.0460 -0.2113  1.0725
  935MOL0     H26177   5.947   9.160   4.633  1.1498  2.0271 -0.6133
  935MOL0     H26178   5.998   9.091   4.789 -2.4786 -0.9212  0.0993
  935MOL0     H26179   5.733   9.140   4.736  1.6493 -2.9113  1.5454
  935MOL0     H26180   5.773   9.296   4.729  0.9503 -0.2195 -0.6067
  935MOL0     H26181   5.778   9.334   4.954  3.7952 -0.3503 -0.9470
  935MOL0     H26182   5.852   9.182   4.989 -0.0014  0.6685 -0.8802
  935MOL0     H26183   5.634   9.219   5.083  0.0087  0.5881  0.3661
  935MOL0     H26184   5.620   9.078   4.976  0.7132  0.1992  0.2935
  935MOL0     H26185   5.423   9.059   5.032  0.2797  0.1314 -0.2269
  935MOL0     H26186   5.101   8.907   4.959  0.8952 -0.1545 -0.6957
  935MOL0     H26187   5.265   8.890   5.036  1.6246  3.1663  1.5884
  935MOL0     H26188   5.125   8.970   5.114 -1.9971 -3.3927  0.1663
  935MOL0     H26189   4.752   9.302   4.896 -0.8089 -0.5285  0.9622
  935MOL0     H26190   4.504   9.254   4.913 -0.9419 -1.3481 -0.7857
  935MOL0     H26191   4.272   9.205   4.788 -1.9674 -0.1544 -0.4610
  935MOL0     H26192   4.290   9.138   4.620  0.9795 -3.2349 -0.4878
  935MOL0     H26193   4.128   9.031   4.854  0.7741  1.9654  0.1265
  935MOL0     H26194   4.076   9.110   4.701 -0.8843 -0.4684  0.5804
  935MOL0     H26195   4.181   8.831   4.726  1.2533  0.6147  0.0981
  935MOL0     H26196   4.164   8.920   4.571 -2.6182 -1.8003 -0.6801
  935MOL0     H26197   3.940   8.874   4.773 -1.0480  0.6631  0.9656
  935MOL0     H26198   3.917   8.957   4.618 -0.0994  0.8130  2.3261
  935MOL0     H26199   3.840   8.724   4.609  0.6656 -3.4228 -0.3922
  935MOL0     H26200   3.988   8.656   4.661 -0.6411 -0.4327 -0.7515
  935MOL0     H26201   3.950   8.825   4.399 -0.2783  0.1049  0.3660
  935MOL0     H26202   4.091   8.742   4.449 -0.1719 -4.2692  1.2752
  935MOL0     H26203   3.981   8.523   4.418  0.0634  0.4601 -3.3437
  935MOL0     H26204   3.949   8.624   4.274 -0.9841 -0.3077 -1.5562
  935MOL0     H26205   3.779   8.556   4.492  5.4216  3.9798  1.2326
  935MOL0     H26206   3.761   8.497   4.326  0.0191  0.2626 -0.0058
  935MOL0     H26207   4.571   8.893   4.679 -2.0967  0.0684  1.8677
  935MOL0     H26208   4.800   8.942   4.662 -3.7191 -0.7613 -3.9388
  935MOL0     H26209   5.110   9.344   4.771  0.9244 -1.1112 -2.1980
  935MOL0     H26210   5.351   9.406   4.787  4.3894 -1.2328 -1.3777
  935MOL0     H26211   7.249   9.601   4.308  0.4102 -0.1958 -0.4851
  935MOL0     H26212   7.455   9.710   4.361 -1.6179 -0.1489 -1.9491
  935MOL0     H26213   7.722  10.138   4.420 -1.6063  1.3279  0.6746
  935MOL0     H26214   7.947  10.202   4.494 -0.1392 -2.5697 -2.6547
  935MOL0     H26215   8.259  10.050   4.659  2.3541  3.2128 -1.5653
  935MOL0     H26216   8.158  10.087   4.527  0.8853 -0.0776 -0.5641
  935MOL0     H26217   8.138  10.325   4.609 -0.6621 -0.7296 -0.5369
  935MOL0     H26218   8.300  10.281   4.571 -1.5217  0.7012 -1.2239
  935MOL0     H26219   8.350  10.209   4.812 -0.0359 -1.0817 -1.7684
  935MOL0     H26220   8.189  10.270   4.871  1.6604 -0.9076  1.9105
  935MOL0     H26221   8.410  10.443   4.748 -1.6848  1.0275 -0.8835
  935MOL0     H26222   8.389  10.416   4.919  0.3792  1.9336  0.4610
  935MOL0     H26223   8.108  10.707   4.896 -0.1852 -1.4881  4.1423
  935MOL0     H26224   7.909   9.952   4.838  3.0795  0.7386 -1.5083
  935MOL0     H26225   7.680   9.883   4.767  3.3533 -1.1423  1.3299
  936MOL0     O26226   8.072   8.662   5.525  0.3498  0.0349  0.2650
  936MOL0     C26227   7.983   8.678   5.606  0.8164 -0.4599  0.6278
  936MOL0     O26228   7.995   8.668   5.739 -0.5238  0.0271 -0.4386
  936MOL0     C26229   8.122   8.632   5.790  0.3519  0.0272  0.6730
  936MOL0     C26230   8.250   8.679   5.752 -0.5668 -0.1782  0.0941
  936MOL0     C26231   8.368   8.620   5.797 -0.2500  0.1381  0.4828
  936MOL0     C26232   8.361   8.494   5.874  0.0087 -1.5339 -0.1013
  936MOL0     O26233   8.478   8.428   5.884 -0.0513  0.3064  0.4028
  936MOL0     C26234   8.479   8.282   5.915 -0.8540 -0.1439  0.6646
  936MOL0     C26235   8.615   8.222   5.895  0.7440 -0.3221  0.6777
  936MOL0     C26236   8.735   8.309   5.933 -0.5806 -0.2473 -0.1431
  936MOL0     C26237   8.865   8.266   5.876 -0.3202  0.6564  0.5497
  936MOL0     C26238   8.979   8.372   5.888 -0.0545  0.5302 -0.1990
  936MOL0     C26239   9.105   8.331   5.818 -0.2558  0.5310 -0.0577
  936MOL0     C26240   9.180   8.455   5.770 -0.6964  0.3467  0.4589
  936MOL0     C26241   9.218   8.553   5.889 -0.0812 -0.2698  0.1635
  936MOL0     N26242   9.299   8.498   5.999  0.0902 -0.1008 -0.7902
  936MOL0     C26243   9.431   8.522   6.026  0.5494 -0.0765  0.1104
  936MOL0     C26244   9.463   8.454   6.140  0.0124  0.2764  0.3440
  936MOL0     C26245   9.600   8.444   6.191  0.0569 -0.4453  0.4127
  936MOL0     C26246   9.657   8.315   6.124  0.2711 -0.1195  0.2019
  936MOL0     C26247   9.795   8.286   6.182  0.6030  0.4855  0.2158
  936MOL0     C26248   9.842   8.152   6.114  0.4985 -0.2376  0.1693
  936MOL0     O26249   9.974   8.125   6.146 -0.3307  0.6350  0.3041
  936MOL0     C26250   9.997   8.039   6.247 -0.5239  0.6427 -0.2520
  936MOL0     C26251  10.014   7.905   6.205 -0.3392 -0.9274  0.0214
  936MOL0     C26252  10.039   7.806   6.298  0.5964  0.0189  0.3889
  936MOL0     C26253  10.074   7.672   6.243 -0.5276  1.2857  1.5570
  936MOL0     C26254  10.040   7.840   6.432  0.5203  0.3097  0.4481
  936MOL0     C26255  10.050   7.751   6.547 -0.3290  0.7454  0.2289
  936MOL0     O26256  10.113   7.790   6.663 -0.0338  0.2650 -0.1142
  936MOL0     C26257  10.129   7.697   6.764 -0.4888  0.6782  0.2424
  936MOL0     C26258  10.262   7.691   6.807  0.0103  0.4453  0.8181
  936MOL0     C26259  10.285   7.600   6.917 -0.6260  0.6934 -0.4994
  936MOL0     C26260  10.188   7.501   6.963  0.6037 -0.3539  0.1501
  936MOL0     O26261  10.212   7.408   7.059 -0.2729 -0.7838  0.7083
  936MOL0     C26262  10.339   7.340   7.044  0.7157 -0.1441 -0.7450
  936MOL0     C26263  10.327   7.216   7.137  1.0080  0.2456  0.5618
  936MOL0     C26264  10.472   7.175   7.172 -0.8074  0.4822  0.8320
  936MOL0     C26265  10.542   7.249   7.285  0.2492  0.9255 -0.1055
  936MOL0     C26266  10.452   7.275   7.407 -0.4056 -1.0233  0.4177
  936MOL0     C26267  10.391   7.154   7.478  1.0422  0.6145 -0.2656
  936MOL0     C26268  10.361   7.190   7.618 -0.6268  0.3012 -0.9895
  936MOL0     C26269  10.331   7.072   7.705 -0.3907 -0.2563  0.1260
  936MOL0    Cl26270  10.271   7.138   7.865  0.1185  0.0174  0.1915
  936MOL0     C26271  10.062   7.514   6.923  0.5382 -0.0427  0.5350
  936MOL0     C26272  10.028   7.616   6.826  0.9665  0.5308  0.5073
  936MOL0     O26273  10.007   7.635   6.528 -0.2162 -0.2900  0.4884
  936MOL0     C26274  10.026   7.966   6.467  0.9709  0.9079 -0.5999
  936MOL0     C26275  10.005   8.070   6.381  0.7111 -0.4518 -0.3512
  936MOL0     N26276   9.349   8.392   6.185  0.5077 -0.6822 -0.1102
  936MOL0     N26277   9.254   8.420   6.104  0.1454  0.1126 -0.2774
  936MOL0     C26278   8.231   8.462   5.918 -0.5492 -0.4942  0.8439
  936MOL0     C26279   8.113   8.528   5.874  0.1235  0.9659 -0.7141
  936MOL0     C26280   7.843   8.688   5.564  0.8420  0.2015  0.4209
  936MOL0     C26281   7.807   8.641   5.434 -0.4251  0.0846  0.5663
  936MOL0     C26282   7.677   8.649   5.384 -0.0517  0.3231 -0.2056
  936MOL0     C26283   7.569   8.679   5.473  0.6475  0.8365  0.5903
  936MOL0     O26284   7.436   8.681   5.418 -0.4748 -0.5529 -0.2913
  936MOL0     C26285   7.340   8.738   5.501  0.5501 -0.2349 -0.7114
  936MOL0     C26286   7.205   8.727   5.435  0.4624 -0.0312  0.4616
  936MOL0     C26287   7.174   8.572   5.427  0.1746 -0.4628 -0.6799
  936MOL0     C26288   7.095   8.545   5.293  0.2923  0.1061 -0.3328
  936MOL0     C26289   6.963   8.617   5.294 -1.3272 -0.6106 -0.1482
  936MOL0     C26290   6.876   8.704   5.290 -0.7394 -0.4237  0.0944
  936MOL0     C26291   7.604   8.719   5.607  0.1779 -0.0132 -0.4595
  936MOL0     C26292   7.739   8.723   5.648  0.2445 -0.9393  0.1604
  936MOL0     H26293   8.267   8.763   5.686  2.6052 -2.2107 -1.8990
  936MOL0     H26294   8.467   8.637   5.756 -0.6412 -2.3748 -1.7928
  936MOL0     H26295   8.431   8.282   6.014  0.4403  1.1827  1.3240
  936MOL0     H26296   8.408   8.228   5.851 -0.3684 -2.4949  2.0038
  936MOL0     H26297   8.614   8.131   5.955  2.2408 -1.5103 -1.0271
  936MOL0     H26298   8.616   8.198   5.789  2.0492 -0.0541  0.6152
  936MOL0     H26299   8.720   8.412   5.897  1.0309  0.4392  1.0092
  936MOL0     H26300   8.736   8.310   6.042  0.2704 -1.2380 -0.1272
  936MOL0     H26301   8.885   8.170   5.925 -1.3990 -0.6178 -1.3883
  936MOL0     H26302   8.851   8.247   5.769 -0.7444  0.3191  0.6622
  936MOL0     H26303   8.940   8.461   5.838  0.2139  1.3010  0.9245
  936MOL0     H26304   9.007   8.391   5.992  2.8593  2.1875 -1.1784
  936MOL0     H26305   9.166   8.263   5.879  0.1666 -1.6162 -2.6390
  936MOL0     H26306   9.087   8.250   5.746  2.2776 -1.8051  1.7047
  936MOL0     H26307   9.268   8.431   5.710 -0.8686  1.5137 -0.2989
  936MOL0     H26308   9.104   8.503   5.707 -0.7910 -0.3897  0.0029
  936MOL0     H26309   9.121   8.582   5.931 -2.3128 -4.1512 -1.6606
  936MOL0     H26310   9.273   8.631   5.837  0.7300 -1.6873 -1.1689
  936MOL0     H26311   9.499   8.586   5.970  3.7719 -2.6262  0.7732
  936MOL0     H26312   9.664   8.527   6.161  2.1065 -2.3263 -0.7375
  936MOL0     H26313   9.596   8.438   6.300  0.8552 -0.9570  0.4176
  936MOL0     H26314   9.663   8.315   6.015 -0.4437  2.5059  0.0823
  936MOL0     H26315   9.585   8.242   6.162 -2.5853  1.3688 -1.9512
  936MOL0     H26316   9.779   8.270   6.289 -1.3800 -1.7114 -0.3159
  936MOL0     H26317   9.867   8.368   6.173  2.0621 -0.8370 -0.5172
  936MOL0     H26318   9.840   8.166   6.005  4.3810 -1.1445 -0.1479
  936MOL0     H26319   9.774   8.077   6.156  1.6031  0.3841  3.3574
  936MOL0     H26320   9.999   7.867   6.105 -0.0104  2.9027 -1.6277
  936MOL0     H26321  10.106   7.691   6.140 -4.7080  2.0962  0.1805
  936MOL0     H26322  10.149   7.631   6.311  1.4033  1.4976 -0.3519
  936MOL0     H26323   9.993   7.598   6.245  1.9206 -1.5646  2.8430
  936MOL0     H26324  10.333   7.753   6.754  0.1414  0.7831  1.3775
  936MOL0     H26325  10.382   7.598   6.966 -0.3702  0.9072 -0.9904
  936MOL0     H26326  10.366   7.318   6.941 -0.1691 -1.7883 -0.6519
  936MOL0     H26327  10.420   7.402   7.084  0.2843  0.4102 -0.7215
  936MOL0     H26328  10.272   7.231   7.230  1.9744  0.3837  1.1302
  936MOL0     H26329  10.275   7.136   7.083  2.0194 -0.8348  1.1256
  936MOL0     H26330  10.533   7.189   7.082 -0.4544 -2.5656  0.4835
  936MOL0     H26331  10.479   7.067   7.188  0.4635  0.5938  1.1447
  936MOL0     H26332  10.633   7.194   7.312  1.5394  3.8949  2.0418
  936MOL0     H26333  10.573   7.344   7.240 -0.9259  1.0697 -0.6581
  936MOL0     H26334  10.369   7.341   7.381 -1.8554 -1.5743  3.2320
  936MOL0     H26335  10.524   7.318   7.477 -1.7598 -1.3975  2.1026
  936MOL0     H26336  10.297   7.127   7.430  0.6363 -0.4256  1.0602
  936MOL0     H26337  10.455   7.065   7.480 -0.5444 -0.5835 -0.5894
  936MOL0     H26338  10.279   7.262   7.623 -1.7844 -1.0534  0.5172
  936MOL0     H26339  10.444   7.234   7.673 -1.6218 -2.3671  3.0757
  936MOL0     H26340  10.420   7.012   7.728  0.5671  1.8547  2.3720
  936MOL0     H26341  10.254   7.007   7.661  0.9511 -2.7811  1.2800
  936MOL0     H26342   9.982   7.455   6.966 -1.7106  3.3265  1.3800
  936MOL0     H26343   9.922   7.617   6.803  0.8516  0.8306  1.0329
  936MOL0     H26344  10.028   7.997   6.571  0.5380  0.6455 -0.5127
  936MOL0     H26345   9.992   8.174   6.410  5.1419 -0.4081  2.3933
  936MOL0     H26346   8.221   8.362   5.959 -0.4320  0.8186  4.5225
  936MOL0     H26347   8.015   8.493   5.907  0.2280  0.2845 -1.1169
  936MOL0     H26348   7.889   8.607   5.372  0.3431 -0.0699  1.6230
  936MOL0     H26349   7.657   8.611   5.284 -0.0086 -1.3053  0.3838
  936MOL0     H26350   7.330   8.697   5.603  1.4014  1.3742  0.0560
  936MOL0     H26351   7.371   8.842   5.517 -3.9263  1.2075  0.0883
  936MOL0     H26352   7.209   8.764   5.332 -1.5538 -2.6893 -0.6722
  936MOL0     H26353   7.125   8.777   5.491  0.4779 -0.0387  0.4913
  936MOL0     H26354   7.123   8.538   5.518 -0.8138  1.1571 -0.5843
  936MOL0     H26355   7.267   8.515   5.423  1.0502  0.3149  3.8004
  936MOL0     H26356   7.069   8.440   5.307  0.2048  0.4469  2.8986
  936MOL0     H26357   7.170   8.564   5.216  0.4645  1.5122  0.1438
  936MOL0     H26358   6.795   8.772   5.280 -0.1868  0.4259  1.2035
  936MOL0     H26359   7.530   8.746   5.681 -1.3505 -0.5126 -1.7513
  936MOL0     H26360   7.759   8.754   5.750 -2.2086 -2.6051  1.2424
  937MOL0     O26361   9.135  10.770   1.119  0.4276 -0.1653 -0.1909
  937MOL0     C26362   9.178  10.700   1.211  0.2947  0.5770 -0.6424
  937MOL0     O26363   9.241  10.582   1.195  0.0908 -0.2254 -0.5392
  937MOL0     C26364   9.215  10.506   1.087  1.0958  0.1680  0.5298
  937MOL0     C26365   9.253  10.527   0.953  0.1039 -0.3266  0.0096
  937MOL0     C26366   9.225  10.448   0.848  0.0033  0.9849  0.1428
  937MOL0     C26367   9.144  10.335   0.865 -0.7679  0.5940  0.1332
  937MOL0     O26368   9.104  10.247   0.775 -0.5258 -0.0443 -0.6930
  937MOL0     C26369   9.075  10.298   0.641  0.1909 -0.9718  0.0614
  937MOL0     C26370   8.994  10.197   0.554  0.2501  0.3883 -0.5431
  937MOL0     C26371   8.853  10.178   0.612 -0.0034 -0.5264  1.1935
  937MOL0     C26372   8.793  10.050   0.547  0.8673  0.5198 -0.0370
  937MOL0     C26373   8.643  10.037   0.584  0.3933 -0.0180 -0.5190
  937MOL0     C26374   8.584   9.889   0.580 -1.1093 -0.0909 -0.1429
  937MOL0     C26375   8.441   9.896   0.633 -0.8423  0.3940  0.4642
  937MOL0     C26376   8.374   9.755   0.637  0.6635 -0.2377 -0.7394
  937MOL0     N26377   8.229   9.754   0.684 -0.3860  0.5637  0.2246
  937MOL0     C26378   8.122   9.775   0.593 -0.4236 -0.5807 -0.3857
  937MOL0     C26379   8.016   9.730   0.670 -0.2960 -0.1333  0.0925
  937MOL0     C26380   7.876   9.742   0.630 -0.0078  0.0732  0.5292
  937MOL0     C26381   7.774   9.795   0.731 -0.1386 -0.2306  0.8978
  937MOL0     C26382   7.827   9.930   0.790 -0.9049  0.2221  0.1280
  937MOL0     C26383   7.704   9.997   0.856 -0.9356  0.3280  0.0942
  937MOL0     O26384   7.628  10.063   0.753  1.1122  0.3894 -0.0995
  937MOL0     C26385   7.510  10.125   0.795  0.6271 -0.5241  1.2063
  937MOL0     C26386   7.415  10.155   0.693  0.1022 -0.1829 -0.6895
  937MOL0     C26387   7.291  10.212   0.722  0.0586  0.3323  0.0805
  937MOL0     C26388   7.194  10.240   0.607 -0.2272 -0.6513 -0.0980
  937MOL0     C26389   7.258  10.250   0.856  0.8231 -0.5564  0.4249
  937MOL0     C26390   7.133  10.318   0.899 -0.2884  0.2875 -1.5779
  937MOL0     O26391   7.131  10.354   1.038  0.2778 -0.1042  0.2793
  937MOL0     C26392   7.031  10.438   1.072 -1.1611  0.0563  0.4590
  937MOL0     C26393   6.971  10.417   1.194 -0.5387  0.2670 -1.1075
  937MOL0     C26394   6.868  10.496   1.248  0.7365 -0.6288 -0.0104
  937MOL0     C26395   6.827  10.614   1.180 -0.2105 -0.2973  0.2090
  937MOL0     O26396   6.737  10.697   1.245 -0.0364 -0.5878  1.1888
  937MOL0     C26397   6.641  10.771   1.167  0.7294  0.3631  0.3306
  937MOL0     C26398   6.624  10.912   1.224  0.4612 -0.7267 -0.0593
  937MOL0     C26399   6.558  11.010   1.127  0.2847  0.2195 -0.2708
  937MOL0     C26400   6.531  11.146   1.183 -0.7468 -0.0424 -0.1318
  937MOL0     C26401   6.389  11.147   1.245  0.0590  0.4389 -0.3361
  937MOL0     C26402   6.347  11.283   1.295  0.1654 -0.4031  0.1486
  937MOL0     C26403   6.231  11.265   1.394 -0.9327 -0.0490 -0.0891
  937MOL0     C26404   6.198  11.391   1.473  0.3624  0.4423  0.0537
  937MOL0    Cl26405   6.054  11.357   1.563  0.1805  0.2555 -0.2744
  937MOL0     C26406   6.899  10.644   1.059 -0.6814  0.7451 -0.4510
  937MOL0     C26407   7.001  10.559   1.006  0.4103 -0.7102 -0.4502
  937MOL0     O26408   7.037  10.324   0.821  0.5048  0.0003 -0.6436
  937MOL0     C26409   7.356  10.226   0.956  0.4723  0.4834 -0.5611
  937MOL0     C26410   7.474  10.154   0.929 -0.3041  0.5005 -0.0267
  937MOL0     N26411   8.062   9.678   0.788  0.6097  0.1366 -0.2138
  937MOL0     N26412   8.188   9.689   0.797  0.4037 -0.8424  0.5001
  937MOL0     C26413   9.110  10.314   0.995 -0.3483  0.1641 -0.0927
  937MOL0     C26414   9.147  10.392   1.107 -0.5481 -0.7115 -0.3152
  937MOL0     C26415   9.190  10.768   1.342 -0.7047  0.1316 -0.8770
  937MOL0     C26416   9.096  10.866   1.381  0.9087  1.4460 -0.7338
  937MOL0     C26417   9.109  10.929   1.508 -0.4978  0.4505  0.3581
  937MOL0     C26418   9.211  10.894   1.597  0.7885 -0.1252  0.2118
  937MOL0     O26419   9.227  10.955   1.722 -0.7360 -0.0666 -0.3713
  937MOL0     C26420   9.154  11.074   1.760  0.0819 -0.7368  0.0648
  937MOL0     C26421   9.027  11.033   1.825 -0.8505 -0.8323  0.1997
  937MOL0     C26422   9.065  10.953   1.952 -0.0537 -0.5453 -0.4050
  937MOL0     C26423   8.947  10.936   2.043 -0.9128  0.1879 -0.2831
  937MOL0     C26424   8.984  10.811   2.109  0.4530  0.3926 -0.2604
  937MOL0     C26425   9.009  10.701   2.159 -0.2527 -0.1994  0.0083
  937MOL0     C26426   9.307  10.801   1.549  0.2195 -0.3665 -0.2669
  937MOL0     C26427   9.300  10.738   1.427  0.0127  0.6841  0.1760
  937MOL0     H26428   9.316  10.613   0.931  1.3521 -1.4045 -0.8673
  937MOL0     H26429   9.258  10.459   0.745 -1.1232 -4.2278 -1.0812
  937MOL0     H26430   9.016  10.390   0.649  0.3870 -0.8418  0.0348
  937MOL0     H26431   9.163  10.321   0.580 -1.3178 -1.0983 -2.2642
  937MOL0     H26432   8.997  10.227   0.449 -0.2692  1.4363 -0.2682
  937MOL0     H26433   9.038  10.097   0.557  1.9841  1.1263 -0.5147
  937MOL0     H26434   8.850  10.174   0.721 -2.4204  0.0506  1.2078
  937MOL0     H26435   8.800  10.266   0.574  2.7723  0.8836  0.2907
  937MOL0     H26436   8.815  10.039   0.441 -2.0199  1.1811 -0.7924
  937MOL0     H26437   8.843   9.961   0.586  1.7712 -0.3100 -2.8671
  937MOL0     H26438   8.632  10.088   0.680  1.6892 -0.5301 -0.0858
  937MOL0     H26439   8.581  10.091   0.511  0.0338 -0.3992 -0.4970
  937MOL0     H26440   8.593   9.844   0.481 -1.4175  0.8477 -0.6036
  937MOL0     H26441   8.648   9.823   0.640  0.5790  1.1383 -0.5103
  937MOL0     H26442   8.445   9.933   0.736  1.8251  0.5127  0.3748
  937MOL0     H26443   8.373   9.961   0.577 -2.1970 -0.2599  1.2841
  937MOL0     H26444   8.434   9.693   0.705  0.9136  0.8163  0.0236
  937MOL0     H26445   8.378   9.720   0.533  0.2327 -0.1014 -0.8059
  937MOL0     H26446   8.121   9.823   0.496 -1.5837  0.7191  0.2326
  937MOL0     H26447   7.874   9.801   0.537 -1.9227 -0.2396  0.3319
  937MOL0     H26448   7.846   9.642   0.598 -1.1337  1.1853 -2.2578
  937MOL0     H26449   7.750   9.726   0.812  0.3730  0.1465  1.3805
  937MOL0     H26450   7.686   9.815   0.669  2.3715  1.5430 -2.4623
  937MOL0     H26451   7.866   9.982   0.702 -3.4131 -2.2962 -2.7155
  937MOL0     H26452   7.899   9.920   0.872 -1.1436  1.6227  0.5304
  937MOL0     H26453   7.729  10.060   0.942 -3.4607 -1.9917  2.7450
  937MOL0     H26454   7.633   9.921   0.890 -0.3196 -1.7676 -2.9324
  937MOL0     H26455   7.437  10.135   0.589 -0.4547  0.8248 -1.0112
  937MOL0     H26456   7.119  10.161   0.602  0.8044 -1.5733 -2.1199
  937MOL0     H26457   7.137  10.333   0.615  1.7603  0.5578  1.0475
  937MOL0     H26458   7.238  10.245   0.507  0.1302  0.9392  0.1013
  937MOL0     H26459   7.001  10.333   1.256 -0.2650  0.0440 -1.5387
  937MOL0     H26460   6.826  10.477   1.346 -2.4280 -3.1599 -1.6509
  937MOL0     H26461   6.690  10.783   1.069  0.7942 -2.5755 -0.0915
  937MOL0     H26462   6.550  10.712   1.157  0.0289  1.7750 -4.2536
  937MOL0     H26463   6.567  10.900   1.317  3.0194 -2.5847  1.4134
  937MOL0     H26464   6.725  10.934   1.259  0.6777 -1.3827 -0.2366
  937MOL0     H26465   6.466  10.961   1.094 -1.2494  2.9894 -0.3865
  937MOL0     H26466   6.612  11.029   1.034 -2.0594  0.9605 -1.5592
  937MOL0     H26467   6.614  11.181   1.245 -0.6671 -1.2392  0.4606
  937MOL0     H26468   6.520  11.215   1.098  1.7612  1.6922  0.8462
  937MOL0     H26469   6.387  11.083   1.333 -0.0027  2.3288  1.0929
  937MOL0     H26470   6.306  11.121   1.178 -0.4737 -0.7048  0.7322
  937MOL0     H26471   6.431  11.331   1.346 -0.7957  0.0422  1.3884
  937MOL0     H26472   6.312  11.344   1.211  2.9625  1.1046 -0.0226
  937MOL0     H26473   6.236  11.178   1.459 -4.3205  0.2611  0.7732
  937MOL0     H26474   6.146  11.236   1.331 -0.0357 -5.6237  0.7491
  937MOL0     H26475   6.162  11.472   1.409  0.6519 -0.7719 -1.7191
  937MOL0     H26476   6.285  11.423   1.532  0.4119 -0.5038  0.5033
  937MOL0     H26477   6.871  10.732   1.002 -2.2610 -0.9340 -2.4069
  937MOL0     H26478   7.074  10.586   0.930  1.5321  2.9815  1.6560
  937MOL0     H26479   7.349  10.249   1.061 -0.1045  1.3424 -0.7868
  937MOL0     H26480   7.536  10.137   1.016  0.1864  0.2902 -0.4151
  937MOL0     H26481   9.057  10.223   1.019 -2.7871  1.4121 -0.3623
  937MOL0     H26482   9.123  10.354   1.206 -1.4281 -1.1560 -0.6772
  937MOL0     H26483   9.015  10.888   1.312 -1.0940 -0.5565  0.8404
  937MOL0     H26484   9.037  11.000   1.546 -1.3915 -1.5078  2.5645
  937MOL0     H26485   9.198  11.147   1.828 -2.6400  0.9836  0.1355
  937MOL0     H26486   9.139  11.136   1.671  0.5052  0.9598  1.1242
  937MOL0     H26487   8.970  10.974   1.753 -1.2672  0.9495 -1.0235
  937MOL0     H26488   8.975  11.126   1.853  2.6964  1.8329 -1.2365
  937MOL0     H26489   9.148  11.003   2.003 -0.2879  0.3903 -0.9213
  937MOL0     H26490   9.108  10.859   1.915  0.5047 -1.1892  1.7353
  937MOL0     H26491   8.858  10.922   1.982 -0.7412 -1.1017 -0.2621
  937MOL0     H26492   8.928  11.017   2.115  0.9963 -2.9422  4.2455
  937MOL0     H26493   9.026  10.606   2.206  2.6830  0.3615  0.2621
  937MOL0     H26494   9.399  10.786   1.605 -0.1974 -2.6047 -0.1108
  937MOL0     H26495   9.376  10.671   1.387  0.8727  1.9374 -0.3572
  938MOL0     O26496   9.681   6.677   3.064  0.5342 -0.2842 -0.2913
  938MOL0     C26497   9.685   6.569   3.120 -1.1491  0.1979  0.2423
  938MOL0     O26498   9.801   6.520   3.180 -0.1471 -0.4559  0.1466
  938MOL0     C26499   9.921   6.596   3.161 -0.1165 -0.7152  0.3400
  938MOL0     C26500   9.978   6.670   3.269 -0.3910  0.2015 -0.3726
  938MOL0     C26501  10.093   6.761   3.247  0.5898 -0.0862  0.6873
  938MOL0     C26502  10.167   6.745   3.124  0.7260 -0.2032  0.1889
  938MOL0     O26503  10.290   6.815   3.104  0.1082  0.3039  0.9639
  938MOL0     C26504  10.402   6.734   3.140  0.5980 -0.1876 -0.3988
  938MOL0     C26505  10.531   6.775   3.079 -0.8276  0.2819 -0.1587
  938MOL0     C26506  10.534   6.832   2.943  0.7461  0.5566 -1.1528
  938MOL0     C26507  10.574   6.985   2.953  0.6044 -0.4991  1.2184
  938MOL0     C26508  10.611   7.014   2.802 -0.9426  0.4198  0.0175
  938MOL0     C26509  10.686   7.144   2.783  0.1640 -0.2451  0.1647
  938MOL0     C26510  10.598   7.264   2.828 -0.0120  0.6336 -0.5863
  938MOL0     C26511  10.686   7.396   2.841  0.5781 -0.3879 -0.2094
  938MOL0     N26512  10.757   7.401   2.971  0.1548  0.3874  0.0018
  938MOL0     C26513  10.886   7.372   2.971 -0.3540  0.2913 -0.2389
  938MOL0     C26514  10.908   7.322   3.091  1.3026  0.3712 -0.0048
  938MOL0     C26515  11.040   7.267   3.136  0.4064 -0.9782 -0.6803
  938MOL0     C26516  11.017   7.113   3.142  0.1312 -0.3535  0.9072
  938MOL0     C26517  11.135   7.021   3.169 -0.0798 -0.3236 -0.3699
  938MOL0     C26518  11.194   7.035   3.306 -0.3125 -0.6282  0.1142
  938MOL0     O26519  11.111   6.958   3.386  0.8049  0.3773 -0.0311
  938MOL0     C26520  11.069   7.032   3.499  0.5858  0.7489 -0.7078
  938MOL0     C26521  11.084   6.974   3.622  0.0230  0.1000  0.4337
  938MOL0     C26522  11.022   7.025   3.743  0.1928  0.6125  0.1810
  938MOL0     C26523  11.062   6.949   3.867 -0.1588 -0.3698  0.4127
  938MOL0     C26524  10.951   7.147   3.738  0.5403 -0.5836 -0.8302
  938MOL0     C26525  10.892   7.218   3.852  0.0497  0.3591 -0.1413
  938MOL0     O26526  10.858   7.344   3.820 -0.3001 -0.4198  0.7862
  938MOL0     C26527  10.793   7.430   3.910  0.0418  0.0041  0.3515
  938MOL0     C26528  10.707   7.515   3.843  0.2618 -0.2354  0.4458
  938MOL0     C26529  10.647   7.620   3.911  0.2493 -0.6134  0.2492
  938MOL0     C26530  10.658   7.628   4.051 -0.4912  0.8495 -0.1581
  938MOL0     O26531  10.594   7.726   4.111 -1.4500  0.4789  0.0588
  938MOL0     C26532  10.644   7.769   4.237  0.1354  0.0792 -0.0791
  938MOL0     C26533  10.572   7.900   4.283  1.2041  0.4613  0.3407
  938MOL0     C26534  10.608   7.936   4.423  0.8074  0.1589 -0.2690
  938MOL0     C26535  10.550   8.067   4.468 -0.7940  0.4066  0.2407
  938MOL0     C26536  10.554   8.087   4.617 -0.7450 -0.5350 -0.0500
  938MOL0     C26537  10.497   8.227   4.671 -1.1205  0.4837 -0.5760
  938MOL0     C26538  10.545   8.348   4.588  0.3300  0.4133 -0.2664
  938MOL0     C26539  10.501   8.484   4.659  1.2767  0.2756 -0.0578
  938MOL0    Cl26540  10.332   8.490   4.715  0.2084 -0.0799  0.3133
  938MOL0     C26541  10.733   7.533   4.115  0.2886  0.0831  0.0732
  938MOL0     C26542  10.813   7.438   4.047 -0.9929  0.3400 -0.4131
  938MOL0     O26543  10.870   7.165   3.959 -0.0032  0.5129  0.5795
  938MOL0     C26544  10.935   7.202   3.615 -0.3792 -0.1324  0.8531
  938MOL0     C26545  10.984   7.140   3.499 -0.0461 -0.9089 -0.3179
  938MOL0     N26546  10.801   7.350   3.173  0.6533 -0.0433 -0.2685
  938MOL0     N26547  10.708   7.397   3.096  0.1049 -0.2369  0.0979
  938MOL0     C26548  10.104   6.671   3.024  0.2184 -0.3890  0.6425
  938MOL0     C26549   9.988   6.590   3.039 -0.0086 -0.0865  0.4992
  938MOL0     C26550   9.572   6.483   3.133  0.2811 -0.8337 -0.0331
  938MOL0     C26551   9.581   6.351   3.151 -0.3944  0.1330 -0.4576
  938MOL0     C26552   9.478   6.269   3.187 -0.1441  0.4431  0.3783
  938MOL0     C26553   9.353   6.317   3.211  0.8746  0.1750 -0.6617
  938MOL0     O26554   9.239   6.259   3.252 -0.1364  0.2235  0.0523
  938MOL0     C26555   9.237   6.130   3.324  0.7723 -0.6198 -0.9165
  938MOL0     C26556   9.283   5.997   3.253 -0.8050 -0.1199 -0.0922
  938MOL0     C26557   9.257   5.988   3.101  1.1229  0.1580  0.6337
  938MOL0     C26558   9.102   5.990   3.083  0.4489 -0.8375  0.0261
  938MOL0     C26559   9.039   5.865   3.118 -0.9663  0.5126  0.4707
  938MOL0     C26560   8.970   5.766   3.121  0.0660 -0.1911 -0.7551
  938MOL0     C26561   9.328   6.454   3.172  0.2255 -0.0442 -0.8124
  938MOL0     C26562   9.440   6.534   3.133  0.0070  0.4833 -0.5791
  938MOL0     H26563   9.938   6.648   3.367 -0.2511 -0.4514 -0.4604
  938MOL0     H26564  10.136   6.823   3.326  1.2679 -1.0490  1.0959
  938MOL0     H26565  10.423   6.732   3.247 -1.7634 -1.2696  0.0900
  938MOL0     H26566  10.372   6.635   3.108 -2.1098  0.0968  0.9632
  938MOL0     H26567  10.565   6.860   3.139  2.8897 -0.5341 -0.8198
  938MOL0     H26568  10.611   6.700   3.075 -0.7253 -0.0176  3.6360
  938MOL0     H26569  10.612   6.771   2.897  0.4025 -0.9150  0.1262
  938MOL0     H26570  10.440   6.805   2.892  1.2946 -3.8507 -0.2087
  938MOL0     H26571  10.484   7.046   2.970  1.0483  0.0155  1.7441
  938MOL0     H26572  10.656   7.006   3.022 -0.6397 -0.2401  2.6796
  938MOL0     H26573  10.680   6.940   2.761  0.2853  0.0203  2.5881
  938MOL0     H26574  10.516   7.010   2.747 -0.1229 -1.3447 -1.3432
  938MOL0     H26575  10.780   7.142   2.838 -0.9526  0.7378  2.2022
  938MOL0     H26576  10.713   7.173   2.681  2.2439  1.9036  1.2217
  938MOL0     H26577  10.509   7.279   2.766 -1.7513 -1.3632  1.2502
  938MOL0     H26578  10.567   7.246   2.931  4.0418  0.1427  0.7139
  938MOL0     H26579  10.607   7.470   2.853 -2.4500 -3.2711 -0.6137
  938MOL0     H26580  10.745   7.420   2.752  3.2799  0.8663  1.7915
  938MOL0     H26581  10.961   7.380   2.893  0.9533  2.9786  1.1645
  938MOL0     H26582  11.122   7.285   3.067  0.2459 -0.9557 -0.8665
  938MOL0     H26583  11.057   7.313   3.233  1.4033  0.2109 -1.3948
  938MOL0     H26584  10.964   7.091   3.049  2.2688 -0.0440 -0.4436
  938MOL0     H26585  10.932   7.099   3.210 -1.2731 -1.2369 -0.9275
  938MOL0     H26586  11.210   7.029   3.089 -1.0381 -1.1110 -1.3742
  938MOL0     H26587  11.101   6.918   3.153 -1.3077  0.2642 -1.8076
  938MOL0     H26588  11.193   7.140   3.336 -0.7289 -1.4482  3.2619
  938MOL0     H26589  11.296   6.995   3.307  1.0331  2.4785 -1.0323
  938MOL0     H26590  11.134   6.877   3.620 -2.3218 -1.2664  2.1538
  938MOL0     H26591  11.052   7.004   3.961 -1.1142 -0.1323  0.1776
  938MOL0     H26592  10.991   6.866   3.864 -0.3710 -0.1587 -1.4664
  938MOL0     H26593  11.167   6.920   3.865  0.6950  2.3437  1.1096
  938MOL0     H26594  10.694   7.504   3.736 -0.2084  3.6228 -0.0392
  938MOL0     H26595  10.578   7.689   3.864 -0.4750 -2.1743 -1.1124
  938MOL0     H26596  10.624   7.689   4.308  2.8874 -0.8626 -0.2374
  938MOL0     H26597  10.751   7.793   4.248 -0.0024  0.6375  0.0859
  938MOL0     H26598  10.592   7.972   4.204  0.3147  3.6809  2.8536
  938MOL0     H26599  10.464   7.878   4.285  1.8101 -4.0539  4.4678
  938MOL0     H26600  10.715   7.945   4.441  0.7671 -0.4870  0.3282
  938MOL0     H26601  10.566   7.860   4.489  1.3851 -1.1240 -1.3359
  938MOL0     H26602  10.607   8.144   4.415  2.5073  0.2446  3.1838
  938MOL0     H26603  10.444   8.079   4.441 -0.6137  1.3335 -0.0763
  938MOL0     H26604  10.658   8.090   4.650  0.2307 -0.6160 -2.8405
  938MOL0     H26605  10.499   8.012   4.675 -3.9377  1.6263 -0.0108
  938MOL0     H26606  10.389   8.213   4.664 -1.4447 -1.3453  4.5935
  938MOL0     H26607  10.522   8.240   4.776  5.4459 -0.9742 -1.5241
  938MOL0     H26608  10.486   8.343   4.496 -2.4602  0.1593  1.4063
  938MOL0     H26609  10.654   8.347   4.581  0.2768  1.2579 -1.5143
  938MOL0     H26610  10.522   8.561   4.584  1.0602 -0.2624 -0.6884
  938MOL0     H26611  10.563   8.514   4.743  0.4261  3.5708 -0.4677
  938MOL0     H26612  10.734   7.547   4.223 -0.3588  1.7976 -0.1015
  938MOL0     H26613  10.877   7.378   4.111 -2.5314 -0.8706  0.0339
  938MOL0     H26614  10.870   7.289   3.603 -2.4635 -1.4673  1.9571
  938MOL0     H26615  10.961   7.192   3.407  0.3500 -3.9506 -2.2811
  938MOL0     H26616  10.137   6.678   2.921 -2.5662 -0.7513 -0.3608
  938MOL0     H26617   9.923   6.551   2.961 -0.8060  2.2516 -0.0938
  938MOL0     H26618   9.675   6.298   3.144 -0.9730 -0.9069 -0.7796
  938MOL0     H26619   9.484   6.162   3.205 -1.3527 -0.4767 -3.7030
  938MOL0     H26620   9.295   6.142   3.415 -0.9425  1.8014 -0.0440
  938MOL0     H26621   9.131   6.122   3.352  0.3613  1.8093 -1.5589
  938MOL0     H26622   9.234   5.925   3.318 -0.0734 -0.9845 -0.4693
  938MOL0     H26623   9.390   5.979   3.265 -1.3804 -3.9223  0.5359
  938MOL0     H26624   9.289   5.894   3.054 -3.8490 -0.6640 -1.7934
  938MOL0     H26625   9.302   6.076   3.054  0.2899  1.5556  2.3533
  938MOL0     H26626   9.089   5.988   2.975 -1.3586 -4.4583  0.1707
  938MOL0     H26627   9.045   6.070   3.131 -0.7110 -0.6227 -1.6405
  938MOL0     H26628   8.914   5.677   3.141  1.7094 -0.6676  2.3471
  938MOL0     H26629   9.233   6.502   3.189  1.8887  2.5771  2.1841
  938MOL0     H26630   9.439   6.638   3.102  3.5638  1.3828  1.7726
  939MOL0     O26631  10.832  11.074   7.519  0.0484  0.0301  0.3018
  939MOL0     C26632  10.916  11.124   7.442 -0.0643 -0.7132  0.0087
  939MOL0     O26633  10.890  11.238   7.379 -1.0098 -0.2563  0.3786
  939MOL0     C26634  10.774  11.320   7.400  0.0401 -0.6420 -0.3242
  939MOL0     C26635  10.651  11.291   7.461 -0.3331 -0.2282  0.1563
  939MOL0     C26636  10.555  11.382   7.489 -0.2535 -0.0020 -0.4076
  939MOL0     C26637  10.569  11.517   7.447 -1.4204  0.9328  0.2267
  939MOL0     O26638  10.474  11.610   7.461 -0.5516 -0.3478 -0.4971
  939MOL0     C26639  10.339  11.583   7.498 -0.1727  0.2352  0.1111
  939MOL0     C26640  10.276  11.524   7.383  0.2290  0.1365  0.7982
  939MOL0     C26641  10.141  11.438   7.420 -0.2571 -0.4986  0.2206
  939MOL0     C26642  10.005  11.516   7.422 -0.7323  0.9092  0.1854
  939MOL0     C26643   9.950  11.517   7.282 -0.6600 -0.5266  0.5713
  939MOL0     C26644   9.811  11.572   7.252 -0.2687  0.4891  0.0740
  939MOL0     C26645   9.708  11.503   7.327  0.0380  0.4779 -0.2146
  939MOL0     C26646   9.621  11.413   7.242 -0.9919  0.5426 -0.7675
  939MOL0     N26647   9.559  11.482   7.119  0.2066  1.0042 -0.7521
  939MOL0     C26648   9.608  11.480   6.991 -0.0839 -0.0707 -0.3373
  939MOL0     C26649   9.520  11.568   6.930  0.3219 -0.4797  0.1525
  939MOL0     C26650   9.540  11.596   6.790  0.2888 -0.0664  0.3860
  939MOL0     C26651   9.451  11.702   6.727 -0.0213 -0.0045  0.1352
  939MOL0     C26652   9.461  11.833   6.808  0.0040  0.1770 -0.3229
  939MOL0     C26653   9.416  11.951   6.727  0.4761  0.1089  0.3898
  939MOL0     O26654   9.391  12.064   6.812 -0.0836 -0.5678 -0.8776
  939MOL0     C26655   9.265  12.078   6.878 -0.1797  0.1245 -0.3863
  939MOL0     C26656   9.221  12.206   6.909  0.3263  0.0887  0.1381
  939MOL0     C26657   9.091  12.222   6.956 -1.0045 -0.3206  0.4788
  939MOL0     C26658   9.057  12.373   6.979 -0.2466 -0.0417  0.0585
  939MOL0     C26659   9.013  12.117   7.003 -0.2899  0.0796 -0.0033
  939MOL0     C26660   8.879  12.126   7.078 -0.4671  1.4911 -1.7442
  939MOL0     O26661   8.828  11.997   7.115  0.3904 -0.2622  0.1305
  939MOL0     C26662   8.711  11.990   7.176  0.8715  0.8599  0.4993
  939MOL0     C26663   8.678  12.077   7.282  0.5326  0.2754  0.7430
  939MOL0     C26664   8.540  12.093   7.327 -0.3955 -0.2903  0.1554
  939MOL0     C26665   8.437  12.015   7.269 -0.0861 -0.6510 -0.4484
  939MOL0     O26666   8.309  12.015   7.309 -0.2174 -0.3914  0.4105
  939MOL0     C26667   8.241  12.131   7.356 -1.1584  0.6036 -0.4156
  939MOL0     C26668   8.105  12.085   7.409 -0.1845 -0.0257  0.0365
  939MOL0     C26669   8.013  12.006   7.302 -0.1978  0.3015 -0.7710
  939MOL0     C26670   7.957  12.096   7.194  0.7657 -0.6493  0.0357
  939MOL0     C26671   8.049  12.123   7.061 -0.4539  0.6725 -0.4575
  939MOL0     C26672   7.999  12.237   6.971  0.0711  0.0511 -0.2161
  939MOL0     C26673   8.039  12.383   7.027 -0.0518  1.1781 -0.4192
  939MOL0     C26674   8.033  12.490   6.912  0.3518  0.2508  0.2133
  939MOL0    Cl26675   8.132  12.439   6.770  0.0862 -0.1619  0.1034
  939MOL0     C26676   8.479  11.924   7.172 -0.2872 -0.4363  0.3898
  939MOL0     C26677   8.608  11.915   7.122 -0.5776  0.0366  0.1661
  939MOL0     O26678   8.827  12.232   7.100  0.5584  0.0150  0.5602
  939MOL0     C26679   9.062  11.987   6.979 -0.5704 -1.0409 -0.9238
  939MOL0     C26680   9.181  11.973   6.909 -1.2508 -0.4463 -0.1584
  939MOL0     N26681   9.420  11.610   7.018 -0.2710  1.1541  0.0889
  939MOL0     N26682   9.446  11.557   7.136  0.5139 -0.8594 -0.0524
  939MOL0     C26683  10.694  11.554   7.386 -0.6409 -0.0001 -0.2361
  939MOL0     C26684  10.791  11.459   7.364  0.1569  0.3122 -0.2113
  939MOL0     C26685  11.039  11.057   7.397 -0.9516  0.3153  0.9055
  939MOL0     C26686  11.142  11.133   7.335  0.3546 -0.5200 -0.0122
  939MOL0     C26687  11.257  11.072   7.323  0.0843 -0.0996  0.1868
  939MOL0     C26688  11.279  10.935   7.332 -0.1519 -0.3887  0.8392
  939MOL0     O26689  11.408  10.890   7.308 -0.7938  0.5990  0.0616
  939MOL0     C26690  11.436  10.823   7.183 -0.0944 -0.9517 -0.0977
  939MOL0     C26691  11.455  10.933   7.074  0.2723 -0.6573  0.1558
  939MOL0     C26692  11.564  10.907   6.956 -0.1193  0.4874  0.2125
  939MOL0     C26693  11.707  10.878   7.006  0.9961  0.1423 -0.0893
  939MOL0     C26694  11.758  10.773   6.931 -0.4865  0.0218  0.3824
  939MOL0     C26695  11.787  10.680   6.861 -1.4011 -0.2627  1.1103
  939MOL0     C26696  11.173  10.848   7.362  0.2793  0.1050 -0.0377
  939MOL0     C26697  11.057  10.916   7.401 -0.4747 -0.5348  0.0312
  939MOL0     H26698  10.637  11.184   7.473 -0.2206 -0.1478  1.0423
  939MOL0     H26699  10.468  11.350   7.545  2.0685 -0.4909  3.3046
  939MOL0     H26700  10.322  11.519   7.586 -1.5717  1.1412  0.5427
  939MOL0     H26701  10.307  11.684   7.526  0.6175 -0.1792  2.8083
  939MOL0     H26702  10.265  11.598   7.303  0.8597  0.0687  0.6409
  939MOL0     H26703  10.356  11.462   7.341  1.9719  2.4858  0.4432
  939MOL0     H26704  10.136  11.350   7.355  0.5280  0.3124 -0.9672
  939MOL0     H26705  10.154  11.386   7.516 -2.2521 -1.6623 -0.0909
  939MOL0     H26706   9.931  11.465   7.484  0.0507 -0.5664 -0.0464
  939MOL0     H26707  10.016  11.615   7.469 -2.3713  0.6424  1.2260
  939MOL0     H26708  10.019  11.565   7.212 -1.3928  1.4670  1.1207
  939MOL0     H26709   9.955  11.416   7.241  0.7291 -0.2756  0.0667
  939MOL0     H26710   9.814  11.677   7.281 -2.4108  0.5523  0.1900
  939MOL0     H26711   9.794  11.554   7.146  1.1213  0.3731 -0.1535
  939MOL0     H26712   9.733  11.439   7.412 -2.0638 -0.6008 -0.3402
  939MOL0     H26713   9.637  11.581   7.354  1.6782  2.4690 -1.3440
  939MOL0     H26714   9.534  11.381   7.300 -0.7058 -0.3193 -0.7994
  939MOL0     H26715   9.674  11.323   7.209 -1.7733 -0.1094 -0.2828
  939MOL0     H26716   9.694  11.422   6.956  1.0838 -0.4611  2.8494
  939MOL0     H26717   9.645  11.623   6.779  0.6024 -0.3991  2.2424
  939MOL0     H26718   9.527  11.504   6.734  2.2574 -0.1833  0.0850
  939MOL0     H26719   9.347  11.667   6.736  1.3501 -4.2237  2.6589
  939MOL0     H26720   9.469  11.716   6.620 -1.0755  1.2518  0.1010
  939MOL0     H26721   9.565  11.848   6.842 -0.5842 -1.9101  2.8187
  939MOL0     H26722   9.400  11.826   6.898  2.0830 -0.7393  1.1072
  939MOL0     H26723   9.328  11.923   6.668 -0.7465  1.2426  1.6003
  939MOL0     H26724   9.480  11.990   6.648 -3.0881 -0.7478 -3.2742
  939MOL0     H26725   9.289  12.286   6.880 -0.5936  0.5596 -0.7621
  939MOL0     H26726   8.962  12.401   6.932  0.3019 -0.9695 -1.6866
  939MOL0     H26727   9.072  12.405   7.082 -2.7411  2.7662 -0.3129
  939MOL0     H26728   9.115  12.441   6.917  0.2414  0.4346  1.0217
  939MOL0     H26729   8.755  12.134   7.331 -2.5515  6.5265 -0.6495
  939MOL0     H26730   8.529  12.152   7.418 -1.3431  1.2871 -0.9339
  939MOL0     H26731   8.309  12.165   7.435  1.4226 -3.1875 -0.7103
  939MOL0     H26732   8.242  12.203   7.274 -1.3858  2.5390  1.2067
  939MOL0     H26733   8.124  12.027   7.501  1.1244  0.0189 -0.1813
  939MOL0     H26734   8.054  12.167   7.460  1.5578  0.5926  0.8479
  939MOL0     H26735   7.923  11.969   7.352 -0.0509  1.3664  0.3420
  939MOL0     H26736   8.064  11.918   7.262 -3.4599 -3.1984  2.0483
  939MOL0     H26737   7.859  12.054   7.168  0.8057  0.2881 -1.8184
  939MOL0     H26738   7.941  12.198   7.228  3.2508 -0.5002  0.9180
  939MOL0     H26739   8.048  12.020   7.025 -0.1401 -0.5455  2.6759
  939MOL0     H26740   8.154  12.122   7.093 -0.6328 -3.5026  0.6213
  939MOL0     H26741   8.042  12.231   6.870 -1.6213  2.5693 -1.1937
  939MOL0     H26742   7.891  12.232   6.960  0.1779 -2.0469 -0.7775
  939MOL0     H26743   8.140  12.367   7.065  0.4958  2.5209 -1.2276
  939MOL0     H26744   7.975  12.419   7.108 -1.0404 -0.1066 -0.5890
  939MOL0     H26745   8.061  12.591   6.941  1.9841  0.5417 -2.1213
  939MOL0     H26746   7.929  12.488   6.877  1.0279  0.2030 -1.9269
  939MOL0     H26747   8.409  11.851   7.133  1.7877 -1.1106 -2.4324
  939MOL0     H26748   8.624  11.854   7.034 -1.7736  2.2204 -1.6969
  939MOL0     H26749   8.998  11.907   7.013 -1.6559  0.9622  2.2133
  939MOL0     H26750   9.208  11.872   6.879 -1.2516 -0.0200 -1.6550
  939MOL0     H26751  10.713  11.659   7.367 -1.6621  0.0640 -0.9503
  939MOL0     H26752  10.878  11.493   7.309  0.5226  2.9261  1.8129
  939MOL0     H26753  11.139  11.241   7.322  1.5768 -0.6232 -1.4096
  939MOL0     H26754  11.342  11.135   7.298 -0.0788  0.5251  1.1302
  939MOL0     H26755  11.520  10.755   7.203 -0.8243 -1.2139  2.3660
  939MOL0     H26756  11.353  10.757   7.156 -0.3065 -0.8621  0.3248
  939MOL0     H26757  11.477  11.029   7.122  0.1859 -0.5298 -0.0566
  939MOL0     H26758  11.355  10.947   7.032  0.9586 -1.8964 -2.0583
  939MOL0     H26759  11.561  10.988   6.883 -0.6019  0.8545  0.6320
  939MOL0     H26760  11.532  10.814   6.908  1.1586 -1.4547  2.8485
  939MOL0     H26761  11.714  10.857   7.114  2.1772 -0.3023 -0.2322
  939MOL0     H26762  11.762  10.971   6.993  0.2687  0.6569  0.4433
  939MOL0     H26763  11.811  10.596   6.798 -0.8164 -0.3571  1.4524
  939MOL0     H26764  11.190  10.741   7.370  4.8653  0.5622 -1.1694
  939MOL0     H26765  10.972  10.856   7.429 -0.2815 -0.3176  1.1363
  940MOL0     O26766   7.194   9.357  10.768  0.4643 -0.3560  0.1126
  940MOL0     C26767   7.282   9.349  10.680  0.4391  0.1538  0.1391
  940MOL0     O26768   7.267   9.267  10.564 -0.2640  0.2438  0.6721
  940MOL0     C26769   7.155   9.213  10.508  0.5495 -0.0806  0.0377
  940MOL0     C26770   7.030   9.186  10.578  0.7683  0.6112 -0.8067
  940MOL0     C26771   6.912   9.151  10.510  0.6815  0.6237 -0.1018
  940MOL0     C26772   6.910   9.121  10.375  0.8212  0.0130 -0.6165
  940MOL0     O26773   6.788   9.073  10.332 -0.1769 -0.2608  0.0115
  940MOL0     C26774   6.769   9.033  10.202 -0.1720 -0.0715  0.4429
  940MOL0     C26775   6.654   8.940  10.192 -0.6712  0.5238 -0.0598
  940MOL0     C26776   6.675   8.818  10.287  1.0976  0.8078  0.3744
  940MOL0     C26777   6.587   8.829  10.411  0.5671  0.5142  0.2554
  940MOL0     C26778   6.596   8.685  10.471  0.1760 -0.6162  0.0223
  940MOL0     C26779   6.500   8.666  10.583  0.5803  0.3210 -0.2391
  940MOL0     C26780   6.532   8.522  10.640  0.1395 -0.6293  0.1060
  940MOL0     C26781   6.422   8.486  10.746 -0.5131  0.7470  0.3948
  940MOL0     N26782   6.412   8.588  10.844  0.7476 -0.1994 -0.6757
  940MOL0     C26783   6.297   8.669  10.861  0.2411  0.3340 -0.5861
  940MOL0     C26784   6.319   8.748  10.968  0.2432  0.3736  0.2491
  940MOL0     C26785   6.219   8.836  11.029 -0.4116  0.6547  0.1377
  940MOL0     C26786   6.204   8.963  10.948  0.0884 -0.4140 -0.5722
  940MOL0     C26787   6.312   9.067  10.996  0.0030 -0.0161  0.4842
  940MOL0     C26788   6.451   9.047  10.922 -0.0350 -0.9204 -0.2514
  940MOL0     O26789   6.551   9.137  10.975  0.1844  1.2151  0.1225
  940MOL0     C26790   6.684   9.098  10.962 -0.1249  0.1329 -0.8139
  940MOL0     C26791   6.730   9.004  10.863  0.7877 -0.4615 -0.2006
  940MOL0     C26792   6.850   8.939  10.876 -0.3837 -0.2691 -0.0400
  940MOL0     C26793   6.886   8.835  10.770  0.0522  0.2452 -0.6350
  940MOL0     C26794   6.937   8.989  10.978 -0.4066 -0.2402  0.1143
  940MOL0     C26795   7.076   8.928  10.992  1.0305 -0.2447 -0.7748
  940MOL0     O26796   7.155   9.001  11.079  0.0244 -0.2697  0.2515
  940MOL0     C26797   7.293   9.001  11.063  0.8061 -0.0631  0.4933
  940MOL0     C26798   7.376   9.011  11.175 -0.5185  0.3503 -0.3893
  940MOL0     C26799   7.511   9.025  11.160  0.3483 -0.1489 -0.4461
  940MOL0     C26800   7.573   9.049  11.036 -0.1678  0.5540  0.0254
  940MOL0     O26801   7.701   9.091  11.046  0.5261  0.4089 -0.3323
  940MOL0     C26802   7.751   9.146  10.929 -0.7218 -0.0343 -0.3504
  940MOL0     C26803   7.875   9.220  10.962 -0.4481 -0.4348 -1.2167
  940MOL0     C26804   7.985   9.141  11.033  1.3859  0.0610 -0.5700
  940MOL0     C26805   8.088   9.240  11.083  0.6625 -0.0927 -0.4094
  940MOL0     C26806   8.165   9.288  10.959  0.4137 -0.2442  0.4222
  940MOL0     C26807   8.305   9.330  11.000 -0.2059  0.6655 -0.3350
  940MOL0     C26808   8.367   9.405  10.887 -0.2397  0.6319  0.4016
  940MOL0     C26809   8.316   9.548  10.866  1.1074 -0.0682 -0.1214
  940MOL0    Cl26810   8.364   9.598  10.701  0.0142 -0.1286 -0.3591
  940MOL0     C26811   7.488   9.037  10.922 -0.4009 -0.5083  0.2510
  940MOL0     C26812   7.351   9.012  10.935  0.1559  0.3798 -0.5618
  940MOL0     O26813   7.119   8.834  10.933 -0.2018  0.4056  0.2824
  940MOL0     C26814   6.908   9.112  11.053  0.8080  0.0120 -0.0132
  940MOL0     C26815   6.774   9.164  11.046  0.8607  0.9812 -0.3065
  940MOL0     N26816   6.442   8.712  11.008 -0.3267  0.3499  0.2014
  940MOL0     N26817   6.504   8.628  10.941  0.4578  0.1282 -0.2920
  940MOL0     C26818   7.028   9.156  10.305  0.8021  0.0037  0.3796
  940MOL0     C26819   7.153   9.195  10.368  0.1256 -0.7468 -0.1146
  940MOL0     C26820   7.419   9.399  10.700  0.2894  0.6225  0.0771
  940MOL0     C26821   7.516   9.371  10.608  1.0679  0.7360 -0.2982
  940MOL0     C26822   7.648   9.390  10.632 -0.7122  0.4684  0.4133
  940MOL0     C26823   7.688   9.464  10.748  0.3568  0.9005 -0.1066
  940MOL0     O26824   7.814   9.510  10.760  0.7695 -0.3465  0.4163
  940MOL0     C26825   7.906   9.529  10.652  0.3446  0.6337  0.0146
  940MOL0     C26826   7.874   9.644  10.562 -0.4347 -0.1500  0.0599
  940MOL0     C26827   7.859   9.778  10.616 -0.3380 -0.0205  0.0780
  940MOL0     C26828   7.862   9.900  10.521 -0.6393  0.2436  0.4484
  940MOL0     C26829   7.735   9.926  10.456  0.2676  0.4196  0.0467
  940MOL0     C26830   7.634   9.950  10.397  0.0168  0.9090 -0.2962
  940MOL0     C26831   7.592   9.498  10.846 -0.3658  0.2458  0.1898
  940MOL0     C26832   7.458   9.471  10.818  0.8326  0.2908  0.0414
  940MOL0     H26833   7.013   9.207  10.683 -1.6282  0.7714 -1.1796
  940MOL0     H26834   6.813   9.142  10.554 -0.5230  0.5522 -2.6751
  940MOL0     H26835   6.749   9.121  10.139 -0.1820 -0.8946 -0.7452
  940MOL0     H26836   6.862   8.988  10.166  0.0119 -2.2292  3.3148
  940MOL0     H26837   6.564   8.989  10.231  0.7805  2.1261  1.4576
  940MOL0     H26838   6.639   8.905  10.090  0.0275 -1.7940  0.5758
  940MOL0     H26839   6.636   8.739  10.222 -1.9110 -1.7735  4.7620
  940MOL0     H26840   6.780   8.802  10.314  1.0809  1.2427  0.6908
  940MOL0     H26841   6.610   8.911  10.480  0.4868  0.8829 -0.1430
  940MOL0     H26842   6.485   8.844  10.374  1.4716 -0.9045 -3.2235
  940MOL0     H26843   6.564   8.612  10.396 -1.2565 -0.1621  0.1527
  940MOL0     H26844   6.696   8.659  10.507 -1.0093  0.4386  4.7572
  940MOL0     H26845   6.493   8.745  10.659  0.6811  1.8739 -1.7651
  940MOL0     H26846   6.398   8.663  10.545 -0.3747 -1.0091  2.1966
  940MOL0     H26847   6.519   8.452  10.557 -1.6006  0.1422 -0.3165
  940MOL0     H26848   6.634   8.517  10.679  0.8929  0.6294 -1.5695
  940MOL0     H26849   6.446   8.392  10.795  0.8057  1.7786  1.8177
  940MOL0     H26850   6.327   8.475  10.692 -0.0785  2.9625 -0.9699
  940MOL0     H26851   6.204   8.672  10.805  0.3008  4.8017 -0.8225
  940MOL0     H26852   6.123   8.783  11.032 -1.4411  2.3499 -1.1335
  940MOL0     H26853   6.255   8.856  11.130  0.3808 -2.3759  0.5635
  940MOL0     H26854   6.106   9.010  10.959 -0.5971 -1.6740 -1.0829
  940MOL0     H26855   6.208   8.950  10.840 -0.4521 -0.1140 -0.6289
  940MOL0     H26856   6.337   9.071  11.102  1.7891 -2.9725  0.2934
  940MOL0     H26857   6.269   9.166  10.977 -0.8635 -0.6662 -1.1730
  940MOL0     H26858   6.445   9.051  10.812  0.7783 -1.6658 -0.3311
  940MOL0     H26859   6.479   8.947  10.954  0.9918 -0.7452 -0.5680
  940MOL0     H26860   6.663   8.966  10.786  1.1695 -3.5386  0.8318
  940MOL0     H26861   6.799   8.811  10.709  0.2190 -1.4564 -0.2512
  940MOL0     H26862   6.974   8.869  10.714  0.0780 -1.8286 -1.9373
  940MOL0     H26863   6.913   8.741  10.818  2.5437  0.7842 -0.8160
  940MOL0     H26864   7.334   9.022  11.275  0.7186 -2.9190  0.6552
  940MOL0     H26865   7.580   9.043  11.242  0.2296  0.1255 -0.4063
  940MOL0     H26866   7.794   9.085  10.850  1.4912  1.2906 -0.2542
  940MOL0     H26867   7.671   9.211  10.893 -1.5016 -0.2203  0.9661
  940MOL0     H26868   7.920   9.247  10.867  1.3681 -1.5779 -0.7358
  940MOL0     H26869   7.857   9.306  11.028  0.1190 -0.6968 -0.7043
  940MOL0     H26870   8.023   9.061  10.969 -2.3451 -1.0233 -1.6838
  940MOL0     H26871   7.933   9.094  11.116 -0.8041  1.5254 -1.0181
  940MOL0     H26872   8.047   9.320  11.145  1.7550 -0.3524  0.6868
  940MOL0     H26873   8.156   9.194  11.155  0.5828  2.0238  1.1135
  940MOL0     H26874   8.106   9.373  10.926  0.7005  0.4168  1.5476
  940MOL0     H26875   8.169   9.208  10.884  0.1755 -1.6953  1.8998
  940MOL0     H26876   8.309   9.382  11.096  2.4052 -3.9120  2.3285
  940MOL0     H26877   8.362   9.240  11.020  2.1879  2.1099 -0.2534
  940MOL0     H26878   8.342   9.340  10.803  0.5845  1.4707 -0.5052
  940MOL0     H26879   8.476   9.414  10.891 -0.1115 -0.7651  0.6848
  940MOL0     H26880   8.373   9.608  10.936  3.2901 -0.0293 -1.8367
  940MOL0     H26881   8.209   9.570  10.876  1.4203  2.2043 -1.2820
  940MOL0     H26882   7.523   9.035  10.820 -0.1222  2.0597  0.2302
  940MOL0     H26883   7.293   9.019  10.843  0.6172  1.1398 -0.8070
  940MOL0     H26884   6.982   9.154  11.120 -0.2293  0.0902  1.1200
  940MOL0     H26885   6.734   9.231  11.121  3.5524  2.8243 -0.4081
  940MOL0     H26886   7.019   9.138  10.198  0.2438  0.1488  0.3996
  940MOL0     H26887   7.243   9.211  10.309  1.5530 -1.2312  1.8562
  940MOL0     H26888   7.488   9.315  10.519 -1.5965 -0.6881  1.3338
  940MOL0     H26889   7.713   9.344  10.559  0.9422  1.7644  0.9820
  940MOL0     H26890   8.003   9.550  10.698  0.8636  2.2140 -1.7159
  940MOL0     H26891   7.906   9.427  10.611 -3.4397  0.0464  1.0163
  940MOL0     H26892   7.782   9.628  10.504 -1.0201  0.7898  0.6953
  940MOL0     H26893   7.961   9.667  10.500 -0.7447 -0.1656 -0.3838
  940MOL0     H26894   7.930   9.789  10.698 -3.4823  0.7829  2.9227
  940MOL0     H26895   7.760   9.781  10.663 -2.0300 -1.3288 -3.0746
  940MOL0     H26896   7.943   9.887  10.449 -0.4344 -1.1205  0.9047
  940MOL0     H26897   7.889   9.994  10.570  1.8535 -0.1848  0.0165
  940MOL0     H26898   7.540   9.980  10.355 -1.1086 -3.0694 -1.0881
  940MOL0     H26899   7.624   9.552  10.935  2.4712  0.4492 -0.8604
  940MOL0     H26900   7.389   9.484  10.900  1.6021 -0.0333  0.7471
  941MOL0     O26901   3.639   5.373   6.316 -0.3839 -0.2700 -0.3800
  941MOL0     C26902   3.685   5.271   6.267  0.2265  0.2246  0.3958
  941MOL0     O26903   3.628   5.205   6.166  0.5339  0.0280  0.6421
  941MOL0     C26904   3.515   5.248   6.098  0.0111 -0.1850  0.2467
  941MOL0     C26905   3.499   5.171   5.979  0.8424 -0.2602 -0.0008
  941MOL0     C26906   3.387   5.182   5.896 -0.0543 -0.1683 -0.0873
  941MOL0     C26907   3.288   5.278   5.927  0.7902  0.0855 -0.0646
  941MOL0     O26908   3.186   5.296   5.836 -0.6998 -1.1318 -0.4692
  941MOL0     C26909   3.092   5.192   5.829 -0.0126  0.3256  0.0505
  941MOL0     C26910   2.943   5.230   5.813 -0.1942 -0.1976  0.5431
  941MOL0     C26911   2.841   5.106   5.831 -0.1580  0.0230 -0.6718
  941MOL0     C26912   2.692   5.132   5.799  0.2307  0.3603 -0.9640
  941MOL0     C26913   2.639   5.258   5.882 -0.6735 -0.0237 -0.9636
  941MOL0     C26914   2.487   5.257   5.873 -0.0825  0.8719  0.5754
  941MOL0     C26915   2.417   5.381   5.925  0.6757  0.0223  0.6217
  941MOL0     C26916   2.432   5.419   6.073  1.0278  0.2593 -0.3039
  941MOL0     N26917   2.392   5.301   6.150  0.1706 -0.2237 -0.7881
  941MOL0     C26918   2.263   5.259   6.156  1.8176  0.0338  0.4995
  941MOL0     C26919   2.261   5.128   6.183 -0.2291 -0.2269 -0.7213
  941MOL0     C26920   2.140   5.040   6.197  0.5930  0.1492 -0.1059
  941MOL0     C26921   2.116   4.951   6.077 -0.9569 -0.3718 -0.1518
  941MOL0     C26922   2.031   4.827   6.132  0.1866  0.1935  0.5832
  941MOL0     C26923   1.947   4.771   6.019  0.1437  0.6555 -0.1993
  941MOL0     O26924   1.876   4.642   6.036 -0.3323 -0.7515 -0.0586
  941MOL0     C26925   1.740   4.638   6.066 -0.5886 -0.0003  1.1144
  941MOL0     C26926   1.660   4.755   6.082 -0.0119 -0.1330 -0.4184
  941MOL0     C26927   1.519   4.749   6.101  0.1316 -0.0416  0.0245
  941MOL0     C26928   1.441   4.877   6.122 -0.4775 -0.7421  0.1860
  941MOL0     C26929   1.455   4.620   6.105 -0.7805 -0.2208  0.9389
  941MOL0     C26930   1.313   4.601   6.129  0.4067  0.7508  0.3419
  941MOL0     O26931   1.248   4.518   6.037 -0.1904 -0.8411  0.6500
  941MOL0     C26932   1.113   4.517   6.050  1.0123 -0.8583 -0.1090
  941MOL0     C26933   1.053   4.463   6.170  0.5906  0.7949  0.4419
  941MOL0     C26934   0.917   4.463   6.197  0.3244  0.3969  0.9829
  941MOL0     C26935   0.834   4.523   6.095  0.2226  0.4374  0.4160
  941MOL0     O26936   0.694   4.510   6.094 -0.3522 -0.1562  0.3312
  941MOL0     C26937   0.645   4.389   6.140 -0.9009  0.7172  0.8232
  941MOL0     C26938   0.492   4.389   6.178  0.2821  0.3865 -0.2415
  941MOL0     C26939   0.403   4.340   6.062  0.2540 -0.1426  0.6089
  941MOL0     C26940   0.403   4.445   5.950  0.0371  0.7642 -0.4317
  941MOL0     C26941   0.315   4.403   5.828 -0.3179 -0.0178  0.5280
  941MOL0     C26942   0.386   4.295   5.735  0.5908 -1.1681 -0.6003
  941MOL0     C26943   0.292   4.248   5.624  0.0948 -0.4180 -0.9753
  941MOL0     C26944   0.243   4.360   5.531 -0.2096  0.7389  0.1731
  941MOL0    Cl26945   0.360   4.393   5.381 -0.2746  0.0525  0.0842
  941MOL0     C26946   0.883   4.573   5.977 -1.2337  0.9834 -0.2309
  941MOL0     C26947   1.023   4.569   5.952  0.5620  0.3354  0.7509
  941MOL0     O26948   1.275   4.647   6.230 -0.5812 -0.2297  0.2503
  941MOL0     C26949   1.538   4.506   6.073 -0.0439 -0.3399 -1.2916
  941MOL0     C26950   1.673   4.517   6.059  0.3739  0.0389 -1.0624
  941MOL0     N26951   2.393   5.092   6.213  1.1325  0.6860 -0.1447
  941MOL0     N26952   2.466   5.190   6.192 -0.2718 -0.5667 -0.2461
  941MOL0     C26953   3.301   5.354   6.041 -0.1554  0.3228 -0.1549
  941MOL0     C26954   3.414   5.349   6.128 -0.0920  0.8412  0.9309
  941MOL0     C26955   3.811   5.218   6.320  0.8684 -0.4916 -0.5203
  941MOL0     C26956   3.877   5.256   6.445  0.4623 -1.0871 -0.2688
  941MOL0     C26957   3.997   5.211   6.481 -0.1877 -0.9259 -0.7269
  941MOL0     C26958   4.059   5.108   6.410 -0.4049  0.3264 -0.8015
  941MOL0     O26959   4.174   5.051   6.460 -0.5840  0.2185 -0.5754
  941MOL0     C26960   4.267   5.122   6.546 -0.3711  0.1965  0.8744
  941MOL0     C26961   4.335   5.234   6.461  0.5233  0.8215 -0.7417
  941MOL0     C26962   4.426   5.332   6.526 -0.7334  0.6863 -0.3462
  941MOL0     C26963   4.566   5.275   6.545 -0.0460  0.1801  0.9938
  941MOL0     C26964   4.666   5.378   6.586 -0.2598  0.6137 -1.0264
  941MOL0     C26965   4.751   5.459   6.619 -0.9198 -0.4008 -0.7326
  941MOL0     C26966   4.002   5.067   6.290  0.5647  0.7296 -0.1581
  941MOL0     C26967   3.883   5.131   6.245 -0.7876  0.6467  0.0552
  941MOL0     H26968   3.577   5.098   5.960 -1.5896 -3.2138  0.6562
  941MOL0     H26969   3.390   5.134   5.798  1.2323  0.2462 -0.2743
  941MOL0     H26970   3.122   5.136   5.740  0.5592  2.3703 -1.0883
  941MOL0     H26971   3.101   5.128   5.917 -0.6406 -4.2984 -2.8610
  941MOL0     H26972   2.929   5.310   5.887  2.0866  0.3792  0.4393
  941MOL0     H26973   2.925   5.272   5.714 -0.5172 -0.9174  0.2943
  941MOL0     H26974   2.882   5.016   5.785  3.1591  0.0913  1.8077
  941MOL0     H26975   2.845   5.081   5.938  0.2296 -0.8600 -0.8828
  941MOL0     H26976   2.665   5.168   5.699 -2.7242 -1.2726 -0.8770
  941MOL0     H26977   2.625   5.046   5.815 -0.5640  1.1848  0.3121
  941MOL0     H26978   2.680   5.250   5.984  1.4955  1.3543 -1.6767
  941MOL0     H26979   2.675   5.356   5.853 -1.3269  0.7360  0.6220
  941MOL0     H26980   2.458   5.244   5.768  0.3476  1.9869  0.2984
  941MOL0     H26981   2.441   5.166   5.912  0.0185 -0.7998 -2.7972
  941MOL0     H26982   2.458   5.467   5.871 -0.4672 -0.2710 -0.7986
  941MOL0     H26983   2.311   5.378   5.900  0.3010  0.8255  2.0096
  941MOL0     H26984   2.380   5.511   6.103 -0.5017 -0.2346 -1.3697
  941MOL0     H26985   2.536   5.441   6.101  0.8644  1.1575 -0.3527
  941MOL0     H26986   2.168   5.310   6.160  1.8564  0.0332  3.4369
  941MOL0     H26987   2.177   4.980   6.281  1.2563  0.5208 -0.1261
  941MOL0     H26988   2.047   5.092   6.224  0.4156  0.4260 -1.2178
  941MOL0     H26989   2.218   4.923   6.048 -0.1747  2.0848  0.0495
  941MOL0     H26990   2.068   5.010   5.999  1.1708  3.0089  0.8957
  941MOL0     H26991   1.963   4.865   6.209 -1.1880 -0.3329 -0.3335
  941MOL0     H26992   2.098   4.750   6.169  0.1789 -0.4172 -0.6301
  941MOL0     H26993   2.017   4.757   5.935 -0.7704  0.4069 -0.9344
  941MOL0     H26994   1.879   4.849   5.985 -0.4373 -0.8928 -2.9282
  941MOL0     H26995   1.701   4.854   6.102 -2.4098  1.8738 -4.3035
  941MOL0     H26996   1.332   4.864   6.119 -0.2903 -2.6695 -3.1283
  941MOL0     H26997   1.469   4.926   6.216  0.0235  0.2586 -0.4665
  941MOL0     H26998   1.459   4.939   6.035 -1.6844 -1.1929 -0.4060
  941MOL0     H26999   1.110   4.440   6.260 -0.1112  0.4150  0.8006
  941MOL0     H27000   0.892   4.426   6.296  2.1854 -0.7398  1.0868
  941MOL0     H27001   0.677   4.308   6.074 -0.6181 -1.2032  3.2297
  941MOL0     H27002   0.702   4.366   6.230 -1.0628 -1.8693  0.3259
  941MOL0     H27003   0.478   4.324   6.264 -0.0093  1.2554  0.3782
  941MOL0     H27004   0.462   4.493   6.195 -1.6677 -0.3393  1.1095
  941MOL0     H27005   0.305   4.340   6.111  1.4664  2.4668  3.3578
  941MOL0     H27006   0.427   4.241   6.022 -1.3804 -0.7267  0.9907
  941MOL0     H27007   0.353   4.536   5.983  2.2185  1.2365  1.9353
  941MOL0     H27008   0.504   4.464   5.913 -0.3023 -0.7998 -2.3567
  941MOL0     H27009   0.285   4.492   5.772 -2.8826  0.3707  2.3548
  941MOL0     H27010   0.228   4.357   5.876  0.6540 -0.3490  2.0143
  941MOL0     H27011   0.482   4.341   5.710  0.7490 -0.0128  1.8374
  941MOL0     H27012   0.416   4.216   5.805 -2.0318 -1.3955  0.3663
  941MOL0     H27013   0.205   4.210   5.678  1.2295 -4.2015 -1.5358
  941MOL0     H27014   0.338   4.163   5.572  1.3914  1.5387 -3.2583
  941MOL0     H27015   0.210   4.449   5.585 -2.2019  1.0703 -1.4892
  941MOL0     H27016   0.150   4.327   5.485 -1.5400  2.6054  1.4092
  941MOL0     H27017   0.810   4.602   5.902  0.1836  2.9289 -0.9248
  941MOL0     H27018   1.048   4.628   5.865  0.3835 -1.2557 -0.4059
  941MOL0     H27019   1.502   4.404   6.072 -2.7646  0.5289 -3.5241
  941MOL0     H27020   1.728   4.428   6.027 -0.2863  0.0434 -2.2578
  941MOL0     H27021   3.225   5.424   6.075  0.8008  2.1102 -1.5328
  941MOL0     H27022   3.448   5.419   6.205  0.0175  0.2185  1.4581
  941MOL0     H27023   3.826   5.333   6.503 -1.2373 -0.8179 -1.9886
  941MOL0     H27024   4.040   5.246   6.574  0.5237 -1.1273 -0.9763
  941MOL0     H27025   4.219   5.177   6.627 -1.4450  0.4653  0.0817
  941MOL0     H27026   4.355   5.069   6.583 -0.5290  0.8796  2.2828
  941MOL0     H27027   4.255   5.288   6.410 -2.4731 -0.7141  1.9742
  941MOL0     H27028   4.387   5.176   6.384  1.4557  1.1171 -0.3527
  941MOL0     H27029   4.387   5.367   6.622 -2.2395 -0.9589 -0.3183
  941MOL0     H27030   4.431   5.416   6.457  2.8704  0.4968 -0.5115
  941MOL0     H27031   4.598   5.224   6.453 -1.0286 -1.3809  1.4883
  941MOL0     H27032   4.549   5.203   6.625 -1.9515  0.2395  0.7038
  941MOL0     H27033   4.830   5.528   6.639 -2.6312  1.9073 -1.3833
  941MOL0     H27034   4.055   4.997   6.227 -1.0850  0.4357 -1.2847
  941MOL0     H27035   3.841   5.105   6.149  0.4109  0.6504 -0.4921
  942MOL0     O27036   1.846   7.400   6.479 -0.1245  0.4155  0.4173
  942MOL0     C27037   1.923   7.494   6.503 -0.0622 -0.3429 -0.2725
  942MOL0     O27038   1.887   7.629   6.493  0.1983 -1.2665  0.0336
  942MOL0     C27039   1.753   7.669   6.488 -0.1170 -0.0980 -0.2429
  942MOL0     C27040   1.641   7.608   6.545  0.2151 -0.1968  0.0919
  942MOL0     C27041   1.521   7.674   6.549  0.1866 -0.3071 -0.0791
  942MOL0     C27042   1.497   7.800   6.495 -0.3976 -0.0717 -0.6517
  942MOL0     O27043   1.378   7.851   6.516  0.1365 -0.8067 -0.0784
  942MOL0     C27044   1.364   7.991   6.491 -1.8014  0.2752  0.4417
  942MOL0     C27045   1.232   8.043   6.552 -0.1489 -0.5688 -0.0606
  942MOL0     C27046   1.114   8.009   6.474 -0.1640  0.8044 -0.3073
  942MOL0     C27047   1.108   8.086   6.344 -0.5407 -0.4194  0.2771
  942MOL0     C27048   0.964   8.118   6.298 -0.2023  0.5627 -0.7823
  942MOL0     C27049   0.975   8.201   6.176 -0.9790 -0.1503 -0.0706
  942MOL0     C27050   0.831   8.242   6.129 -1.0483 -0.4025 -0.0473
  942MOL0     C27051   0.755   8.162   6.027 -0.0432  0.8156 -0.1944
  942MOL0     N27052   0.624   8.219   6.005  0.2323 -0.3365 -1.2022
  942MOL0     C27053   0.517   8.198   6.086  0.6386  0.4107  0.0779
  942MOL0     C27054   0.416   8.272   6.029  0.4153  0.1063  0.1912
  942MOL0     C27055   0.271   8.260   6.084 -0.0855  0.4063  0.2449
  942MOL0     C27056   0.207   8.391   6.131 -0.2819  0.2835 -0.2609
  942MOL0     C27057   0.065   8.364   6.189  0.6020 -0.2847  0.9640
  942MOL0     C27058   0.005   8.474   6.274  0.6013 -0.8278  0.3545
  942MOL0     O27059  -0.070   8.576   6.205 -0.5907 -0.1227 -0.0009
  942MOL0     C27060  -0.170   8.647   6.262  0.4093  0.8439  0.1790
  942MOL0     C27061  -0.217   8.748   6.185  0.5847  0.3226 -0.1789
  942MOL0     C27062  -0.310   8.844   6.229  0.2271  0.8987  0.3165
  942MOL0     C27063  -0.372   8.929   6.127  0.0108 -0.1723  0.8518
  942MOL0     C27064  -0.362   8.833   6.354  0.1797 -0.0039 -0.3215
  942MOL0     C27065  -0.446   8.938   6.409  0.3006 -0.1219 -0.1323
  942MOL0     O27066  -0.410   8.957   6.537 -0.2711  0.1169 -0.5283
  942MOL0     C27067  -0.499   9.012   6.631  0.0040 -1.1049 -0.3518
  942MOL0     C27068  -0.484   8.970   6.761  0.6639 -0.1765  0.8613
  942MOL0     C27069  -0.570   9.004   6.873 -0.4353 -0.4584  0.0739
  942MOL0     C27070  -0.679   9.093   6.839 -0.2860 -0.1312 -0.3242
  942MOL0     O27071  -0.748   9.150   6.944 -0.0432  0.5551 -0.4711
  942MOL0     C27072  -0.892   9.158   6.927 -0.0084 -0.2969  0.0651
  942MOL0     C27073  -0.968   9.181   7.063  0.1870 -0.0512 -0.0482
  942MOL0     C27074  -0.936   9.321   7.126 -0.6717  0.2756 -0.1312
  942MOL0     C27075  -0.989   9.325   7.273 -0.5935 -0.8652  0.8605
  942MOL0     C27076  -1.021   9.468   7.312  0.1273  0.2141 -1.1564
  942MOL0     C27077  -0.897   9.566   7.325  0.2063  0.6117 -0.5168
  942MOL0     C27078  -0.792   9.541   7.439 -0.4224  0.2224  0.7596
  942MOL0     C27079  -0.674   9.634   7.424  0.1114  0.0450 -0.6509
  942MOL0    Cl27080  -0.708   9.806   7.473 -0.0828 -0.0521 -0.0403
  942MOL0     C27081  -0.700   9.137   6.707  0.1955  0.5663  1.2616
  942MOL0     C27082  -0.611   9.095   6.603  0.2239 -0.5263 -0.7269
  942MOL0     O27083  -0.534   8.997   6.346  0.9556 -0.0196 -0.2022
  942MOL0     C27084  -0.332   8.717   6.425  0.2601  0.0537 -1.4336
  942MOL0     C27085  -0.231   8.624   6.386  0.9046 -0.6067 -0.2017
  942MOL0     N27086   0.460   8.333   5.911  0.8999 -0.8720  0.1400
  942MOL0     N27087   0.588   8.302   5.902  0.3551 -0.1803 -0.3055
  942MOL0     C27088   1.605   7.858   6.431 -0.1377  0.1485 -0.5724
  942MOL0     C27089   1.734   7.797   6.425 -0.0222 -0.4560  0.4150
  942MOL0     C27090   2.069   7.472   6.518  0.5531 -0.4259 -0.3131
  942MOL0     C27091   2.152   7.571   6.570 -0.5807  0.8994  0.5306
  942MOL0     C27092   2.285   7.545   6.594  0.1802  0.5324  0.2676
  942MOL0     C27093   2.341   7.417   6.579  0.3832 -0.4059 -0.0298
  942MOL0     O27094   2.475   7.414   6.607  0.7407  0.3995 -0.1927
  942MOL0     C27095   2.556   7.298   6.567 -0.6074 -0.3796  0.1681
  942MOL0     C27096   2.703   7.316   6.612  1.1664 -0.6205  0.9646
  942MOL0     C27097   2.762   7.182   6.638  0.0616  0.0084 -0.6336
  942MOL0     C27098   2.814   7.111   6.513  0.8699  0.6304 -0.7835
  942MOL0     C27099   2.916   7.188   6.443 -0.6103  0.4239 -0.7829
  942MOL0     C27100   3.005   7.246   6.389 -0.3410  0.2237 -0.4743
  942MOL0     C27101   2.261   7.306   6.532  0.3551  0.5722 -0.1331
  942MOL0     C27102   2.117   7.341   6.496 -0.0971  1.2895 -0.2226
  942MOL0     H27103   1.658   7.513   6.593 -0.6084 -0.4474 -0.0992
  942MOL0     H27104   1.441   7.626   6.604  0.2097  1.0924  1.2552
  942MOL0     H27105   1.444   8.053   6.533  1.3573  0.3514 -4.7615
  942MOL0     H27106   1.364   8.006   6.382  1.0624  0.0509  0.3198
  942MOL0     H27107   1.214   8.003   6.653 -2.7042 -3.5619 -1.5272
  942MOL0     H27108   1.239   8.151   6.563 -2.5463 -0.1855 -1.4925
  942MOL0     H27109   1.118   7.902   6.452 -0.6950  0.5065  0.9572
  942MOL0     H27110   1.022   8.024   6.533  0.9502  1.8745  1.2508
  942MOL0     H27111   1.171   8.174   6.361 -0.0968 -1.0937  2.4803
  942MOL0     H27112   1.158   8.017   6.275  0.0289 -0.4032  0.6659
  942MOL0     H27113   0.911   8.023   6.285  0.8575 -0.4612  1.7498
  942MOL0     H27114   0.903   8.177   6.368 -0.9708 -0.0493 -0.9197
  942MOL0     H27115   1.037   8.288   6.201  1.1274 -1.9756  1.4985
  942MOL0     H27116   1.023   8.145   6.096 -1.0496  0.0820 -0.2744
  942MOL0     H27117   0.777   8.261   6.222  3.0411 -0.1548  2.5418
  942MOL0     H27118   0.839   8.341   6.083  1.4867 -0.9222 -0.9256
  942MOL0     H27119   0.759   8.054   6.043 -0.1278  0.9108  0.4898
  942MOL0     H27120   0.812   8.176   5.935  0.2849 -0.0346 -0.1279
  942MOL0     H27121   0.510   8.130   6.170 -1.4643  0.4112 -0.0359
  942MOL0     H27122   0.209   8.229   6.000  1.3989  0.9704 -1.1132
  942MOL0     H27123   0.265   8.193   6.171 -1.3602 -0.8167 -0.7470
  942MOL0     H27124   0.200   8.463   6.049 -0.4016 -0.2097 -0.6868
  942MOL0     H27125   0.265   8.438   6.211 -0.3382  0.2770 -0.2162
  942MOL0     H27126   0.084   8.287   6.265 -0.2823  0.9608  2.5170
  942MOL0     H27127   0.004   8.318   6.112  1.8422  2.2600 -1.7517
  942MOL0     H27128   0.089   8.519   6.328 -0.1922  0.4925  0.5012
  942MOL0     H27129  -0.072   8.426   6.335  1.1620  0.0131  1.7831
  942MOL0     H27130  -0.171   8.760   6.088 -1.8138  0.6214 -1.3448
  942MOL0     H27131  -0.474   8.894   6.105  0.0396 -0.3843  1.0547
  942MOL0     H27132  -0.380   9.035   6.153  0.8927  0.4605 -1.2734
  942MOL0     H27133  -0.313   8.919   6.036  0.7892 -5.2981  1.5874
  942MOL0     H27134  -0.398   8.910   6.788  0.8732 -0.4112 -0.2656
  942MOL0     H27135  -0.540   8.984   6.976 -0.6097 -1.7081 -0.1080
  942MOL0     H27136  -0.910   9.235   6.852 -1.8386 -0.5769  0.1725
  942MOL0     H27137  -0.926   9.069   6.872 -4.2790  0.7030  0.7211
  942MOL0     H27138  -1.077   9.176   7.051  0.1500 -3.5044  0.7180
  942MOL0     H27139  -0.929   9.101   7.128 -0.2452  0.4101  0.8030
  942MOL0     H27140  -0.982   9.399   7.064 -2.9283 -0.5154  0.4679
  942MOL0     H27141  -0.827   9.337   7.127 -0.3892 -1.4418  0.1656
  942MOL0     H27142  -1.076   9.260   7.288 -2.5295  0.8023 -2.1884
  942MOL0     H27143  -0.911   9.289   7.341 -1.3653 -0.5037  1.9622
  942MOL0     H27144  -1.073   9.459   7.408  0.9579 -1.6237 -0.8446
  942MOL0     H27145  -1.099   9.505   7.243 -0.1451 -2.2214 -2.2678
  942MOL0     H27146  -0.832   9.544   7.239 -0.1339 -0.0684 -0.6104
  942MOL0     H27147  -0.935   9.668   7.331 -2.9131 -0.5145  1.2073
  942MOL0     H27148  -0.749   9.440   7.436  1.1197  0.8274  1.3838
  942MOL0     H27149  -0.821   9.548   7.544 -1.0389  0.9222  0.5500
  942MOL0     H27150  -0.648   9.626   7.318 -2.9933 -0.5844 -1.4531
  942MOL0     H27151  -0.585   9.613   7.483  0.4163  3.9733  0.5917
  942MOL0     H27152  -0.790   9.194   6.685 -0.1371 -0.2299  0.4579
  942MOL0     H27153  -0.626   9.136   6.504  2.5550  0.6460 -0.6706
  942MOL0     H27154  -0.370   8.702   6.525  0.2039 -0.2846 -1.5032
  942MOL0     H27155  -0.200   8.542   6.449  0.3966 -1.5636 -1.1568
  942MOL0     H27156   1.599   7.955   6.384  0.8180  0.7740  0.5463
  942MOL0     H27157   1.814   7.855   6.380 -2.4690  1.0024 -2.3920
  942MOL0     H27158   2.119   7.674   6.585 -3.1716  0.0858  0.9991
  942MOL0     H27159   2.355   7.621   6.626  2.5398  0.0084 -3.0799
  942MOL0     H27160   2.522   7.208   6.619  2.0246 -2.5766 -1.6234
  942MOL0     H27161   2.539   7.281   6.460  2.3392  1.4858 -0.7058
  942MOL0     H27162   2.703   7.373   6.705 -2.9021 -1.7993  1.8845
  942MOL0     H27163   2.761   7.379   6.543  0.2535  0.1028  0.8381
  942MOL0     H27164   2.691   7.117   6.690  0.9070 -1.3289 -1.0815
  942MOL0     H27165   2.845   7.203   6.707 -2.0785  0.1832  2.0315
  942MOL0     H27166   2.734   7.086   6.443 -0.6580  2.1139  0.2974
  942MOL0     H27167   2.856   7.022   6.560  3.1886  1.0707 -1.9023
  942MOL0     H27168   3.085   7.298   6.339 -2.1025  1.5238 -2.0944
  942MOL0     H27169   2.295   7.203   6.528  0.9857  0.8077 -1.6395
  942MOL0     H27170   2.057   7.257   6.463  0.1169 -0.2036  2.8184
  943MOL0     O27171  10.703   8.853   5.386  0.0832 -0.1328  0.5812
  943MOL0     C27172  10.687   8.804   5.272 -0.4159  0.4811  0.5314
  943MOL0     O27173  10.777   8.728   5.210 -0.0954 -0.0118  0.7894
  943MOL0     C27174  10.902   8.739   5.275  0.6934 -0.2687 -1.0154
  943MOL0     C27175  10.998   8.816   5.221 -0.1789 -0.4177 -0.2117
  943MOL0     C27176  11.119   8.843   5.296  0.0855  0.8949 -0.5753
  943MOL0     C27177  11.135   8.789   5.423  0.1808 -0.2070 -0.4048
  943MOL0     O27178  11.244   8.822   5.503  0.0495 -0.4452 -0.1557
  943MOL0     C27179  11.363   8.879   5.446  0.2684  0.3563 -0.0902
  943MOL0     C27180  11.469   8.770   5.424  0.1075  0.2953 -0.0943
  943MOL0     C27181  11.602   8.833   5.391  0.0144  1.0753  0.2051
  943MOL0     C27182  11.705   8.734   5.439 -0.4989 -0.1719  0.7350
  943MOL0     C27183  11.837   8.804   5.404  0.3375 -0.3630 -0.0273
  943MOL0     C27184  11.952   8.713   5.442  0.1663  0.0116  0.3162
  943MOL0     C27185  12.083   8.775   5.416  0.8749  0.3609 -0.1346
  943MOL0     C27186  12.179   8.654   5.435 -0.8198  0.3264  0.8109
  943MOL0     N27187  12.322   8.690   5.426 -0.6459 -0.7399  0.0710
  943MOL0     C27188  12.385   8.775   5.517 -0.5387  0.5061 -0.0422
  943MOL0     C27189  12.508   8.807   5.458 -0.0767  0.2549 -0.6900
  943MOL0     C27190  12.618   8.901   5.514  0.6383  0.2555  0.5452
  943MOL0     C27191  12.628   9.036   5.447 -0.1090  1.1380 -0.3631
  943MOL0     C27192  12.521   9.131   5.494  0.5572 -0.7480  0.0128
  943MOL0     C27193  12.532   9.194   5.633 -0.1042  0.1028  0.8232
  943MOL0     O27194  12.426   9.151   5.719 -0.1994  0.6834 -1.1140
  943MOL0     C27195  12.338   9.236   5.791  0.2782  0.3227  0.4786
  943MOL0     C27196  12.208   9.185   5.812  0.7641 -0.1807 -0.4251
  943MOL0     C27197  12.109   9.261   5.875  0.5634  0.3832  0.2938
  943MOL0     C27198  11.971   9.200   5.893 -0.2107  1.0451  0.1409
  943MOL0     C27199  12.143   9.394   5.922 -0.3668  0.4436 -0.1781
  943MOL0     C27200  12.051   9.483   5.992 -0.2192  0.2784  0.7177
  943MOL0     O27201  11.937   9.423   6.042  0.4170 -0.4079 -0.4233
  943MOL0     C27202  11.833   9.490   6.099 -0.2281  0.0985  0.3291
  943MOL0     C27203  11.754   9.430   6.192  0.8695  0.8516 -0.0615
  943MOL0     C27204  11.639   9.495   6.257 -0.0932  0.2389  0.8536
  943MOL0     C27205  11.606   9.635   6.219  0.7427 -0.6084  0.1306
  943MOL0     O27206  11.486   9.692   6.265  0.3241  0.1057 -0.1883
  943MOL0     C27207  11.414   9.774   6.175 -0.3879 -0.6497 -0.0636
  943MOL0     C27208  11.270   9.773   6.216 -0.4254  0.6327  0.2237
  943MOL0     C27209  11.258   9.823   6.372 -0.0681  0.3812  1.7511
  943MOL0     C27210  11.106   9.809   6.413  0.1632  0.0372 -0.2204
  943MOL0     C27211  11.093   9.849   6.559  0.9115  0.6517 -0.8269
  943MOL0     C27212  11.120   9.992   6.616  0.0142  0.5474 -0.3021
  943MOL0     C27213  11.117   9.995   6.765 -0.1006 -0.5653  0.2466
  943MOL0     C27214  11.119  10.135   6.835 -0.3082 -0.6814 -0.6905
  943MOL0    Cl27215  11.280  10.220   6.813  0.1932  0.3538  0.1338
  943MOL0     C27216  11.697   9.703   6.118  0.3651  0.7589 -0.2417
  943MOL0     C27217  11.806   9.629   6.064  0.8271  0.1946  1.2116
  943MOL0     O27218  12.087   9.598   6.010 -0.2740 -0.2408  0.3634
  943MOL0     C27219  12.283   9.429   5.906  0.2768 -0.3712  0.8346
  943MOL0     C27220  12.378   9.362   5.833  0.4670  0.3870 -0.8672
  943MOL0     N27221  12.523   8.737   5.339 -0.4979  0.5104  0.4363
  943MOL0     N27222  12.410   8.677   5.317 -0.5735  0.6924  0.0436
  943MOL0     C27223  11.039   8.698   5.472 -0.0813 -0.2290 -0.0106
  943MOL0     C27224  10.927   8.677   5.401 -0.3297  1.0840  0.3893
  943MOL0     C27225  10.554   8.791   5.213 -0.0322 -0.2871  0.7244
  943MOL0     C27226  10.446   8.870   5.264 -0.1658  0.3391  0.2417
  943MOL0     C27227  10.317   8.867   5.201 -0.9838 -0.4551  0.0612
  943MOL0     C27228  10.295   8.784   5.089  0.8117  0.3832 -0.4340
  943MOL0     O27229  10.182   8.804   5.016 -0.4718 -0.5154  0.0983
  943MOL0     C27230  10.057   8.775   5.092  0.3703 -1.4414  0.0845
  943MOL0     C27231  10.033   8.620   5.119 -0.7406 -0.8251 -0.1541
  943MOL0     C27232   9.970   8.560   4.994  0.4308  0.6532 -0.8492
  943MOL0     C27233   9.934   8.410   4.995 -0.0366  0.8495 -0.8070
  943MOL0     C27234   9.850   8.377   5.110  0.7039  0.9023  0.3966
  943MOL0     C27235   9.774   8.335   5.198  0.0888 -0.1439  0.1349
  943MOL0     C27236  10.398   8.700   5.042  0.3401  0.3522 -1.0865
  943MOL0     C27237  10.521   8.710   5.102 -0.7570 -0.8075  0.3372
  943MOL0     H27238  10.972   8.874   5.132  0.1807 -0.2447 -0.2077
  943MOL0     H27239  11.187   8.907   5.240  0.1007  0.7131 -0.7664
  943MOL0     H27240  11.344   8.944   5.360 -0.7906  0.0975 -0.0706
  943MOL0     H27241  11.397   8.954   5.517 -1.4216 -1.1265  2.4392
  943MOL0     H27242  11.470   8.721   5.522 -3.0654  2.1091  0.9713
  943MOL0     H27243  11.444   8.700   5.344  1.3001 -2.2416  1.6363
  943MOL0     H27244  11.607   8.839   5.281  1.1692 -1.5810  0.0379
  943MOL0     H27245  11.618   8.929   5.439 -2.2935  1.5574  0.1256
  943MOL0     H27246  11.702   8.711   5.546  0.5533  0.0690  0.8218
  943MOL0     H27247  11.709   8.639   5.386  2.1183  0.5596 -0.4906
  943MOL0     H27248  11.838   8.831   5.298  1.4885 -1.0370 -0.2121
  943MOL0     H27249  11.838   8.900   5.455 -0.3685 -0.4039  0.0658
  943MOL0     H27250  11.947   8.696   5.550  0.8284 -0.2092  0.3174
  943MOL0     H27251  11.941   8.618   5.389 -2.1649  0.3184  0.1153
  943MOL0     H27252  12.101   8.834   5.325 -1.1119  1.7977  0.3390
  943MOL0     H27253  12.096   8.851   5.494 -1.3937 -0.4991  1.1629
  943MOL0     H27254  12.160   8.588   5.349  0.7818 -0.1364  0.7712
  943MOL0     H27255  12.169   8.598   5.528  1.0091 -2.0817 -0.3082
  943MOL0     H27256  12.344   8.833   5.599  0.0843 -0.2007  0.7892
  943MOL0     H27257  12.605   8.921   5.621 -0.8483  2.2227  0.0625
  943MOL0     H27258  12.711   8.845   5.501  1.0016  0.9746 -0.1046
  943MOL0     H27259  12.623   9.014   5.340  1.0707 -2.7302  0.2067
  943MOL0     H27260  12.729   9.074   5.463  0.4319  0.0101 -0.9800
  943MOL0     H27261  12.422   9.086   5.481 -0.1118  0.9586 -1.1439
  943MOL0     H27262  12.503   9.208   5.419 -2.2284 -0.8674  0.4596
  943MOL0     H27263  12.531   9.303   5.618 -1.2974  0.0428  0.3807
  943MOL0     H27264  12.629   9.168   5.676 -0.6236 -0.9729  1.3623
  943MOL0     H27265  12.178   9.088   5.773 -1.8424  0.1252  0.6851
  943MOL0     H27266  11.892   9.271   5.866 -0.0502  1.4722  0.7814
  943MOL0     H27267  11.968   9.121   5.817  2.4749  1.6134 -0.6600
  943MOL0     H27268  11.949   9.156   5.990  0.6430  1.7168  0.6490
  943MOL0     H27269  11.770   9.326   6.219 -0.3806  0.1141 -1.9536
  943MOL0     H27270  11.561   9.447   6.316 -0.7142  2.0498  1.5817
  943MOL0     H27271  11.462   9.872   6.187  0.2436 -0.5735 -2.6819
  943MOL0     H27272  11.425   9.740   6.072 -2.0850 -0.8581 -0.2030
  943MOL0     H27273  11.204   9.828   6.149 -0.7208 -0.6984 -0.6140
  943MOL0     H27274  11.232   9.670   6.219 -3.0307  1.3668 -2.8424
  943MOL0     H27275  11.290   9.928   6.371 -1.5151  0.8457  1.7614
  943MOL0     H27276  11.314   9.764   6.446  3.5598  2.0409  0.5753
  943MOL0     H27277  11.044   9.870   6.347  1.5389  0.9414 -0.7162
  943MOL0     H27278  11.074   9.706   6.392  1.2994  0.0685 -2.4782
  943MOL0     H27279  11.165   9.791   6.618  2.6190  2.6054 -0.8743
  943MOL0     H27280  10.991   9.824   6.590  1.9173 -1.4693  1.0337
  943MOL0     H27281  11.222  10.024   6.594  1.9900 -2.7208  3.0289
  943MOL0     H27282  11.046  10.060   6.572 -0.3961 -0.5419 -1.3618
  943MOL0     H27283  11.205   9.940   6.803  1.0804  1.3335  0.3848
  943MOL0     H27284  11.022   9.949   6.795 -0.2025 -2.7013 -2.9107
  943MOL0     H27285  11.095  10.103   6.937  2.4501 -1.9448 -0.3367
  943MOL0     H27286  11.037  10.196   6.797  0.3775 -0.4672 -1.8769
  943MOL0     H27287  11.669   9.801   6.081 -2.1926  0.8951  1.7553
  943MOL0     H27288  11.865   9.672   5.985 -2.2409 -1.7384 -2.4630
  943MOL0     H27289  12.322   9.526   5.934  1.1479  0.0351 -1.5927
  943MOL0     H27290  12.478   9.399   5.815  1.3253 -1.1176  0.5552
  943MOL0     H27291  11.056   8.659   5.572  3.7222 -1.7578 -1.0759
  943MOL0     H27292  10.854   8.606   5.439 -0.6010  1.2259  0.1353
  943MOL0     H27293  10.449   8.944   5.344  0.7814 -0.3427  0.8494
  943MOL0     H27294  10.244   8.930   5.252 -0.1302  0.7571 -0.1731
  943MOL0     H27295  10.063   8.821   5.191  1.5631 -1.4588  0.0412
  943MOL0     H27296   9.967   8.815   5.044  0.6681 -1.7130 -0.7159
  943MOL0     H27297   9.974   8.612   5.210 -3.6063  1.6500 -1.5996
  943MOL0     H27298  10.123   8.561   5.139 -0.4516  0.4414  2.8150
  943MOL0     H27299  10.032   8.584   4.907  1.9896 -0.8963 -0.2399
  943MOL0     H27300   9.878   8.615   4.973 -2.5204 -4.1685 -2.3226
  943MOL0     H27301  10.026   8.350   4.991  0.0912  1.0101 -0.2777
  943MOL0     H27302   9.876   8.378   4.908  1.3601 -1.2273 -1.0525
  943MOL0     H27303   9.694   8.301   5.261  0.7058 -3.5266 -0.7335
  943MOL0     H27304  10.376   8.632   4.961 -0.1505 -3.4370  1.9454
  943MOL0     H27305  10.611   8.669   5.057  1.2538  3.4626 -0.0489
  944MOL0     O27306   3.101  11.355   2.544 -0.5809  0.5048  0.4345
  944MOL0     C27307   3.132  11.265   2.629  0.1279 -0.3547  0.3219
  944MOL0     O27308   3.255  11.242   2.679 -1.0563  0.1057  0.2642
  944MOL0     C27309   3.364  11.325   2.632  0.0804  0.5114 -0.5321
  944MOL0     C27310   3.491  11.265   2.647 -0.3121 -0.4584  0.0267
  944MOL0     C27311   3.612  11.338   2.616  0.3118 -0.8636 -0.6589
  944MOL0     C27312   3.600  11.472   2.577 -0.4743  0.8574 -0.0155
  944MOL0     O27313   3.710  11.540   2.538 -0.6877  0.1073  0.0398
  944MOL0     C27314   3.711  11.598   2.415  0.0744 -0.9842  1.0394
  944MOL0     C27315   3.862  11.623   2.394  0.0027 -0.8667  0.9009
  944MOL0     C27316   3.899  11.641   2.252  0.1327 -0.1194  0.4142
  944MOL0     C27317   4.048  11.621   2.227 -0.5475  0.2495  0.4214
  944MOL0     C27318   4.079  11.591   2.087 -0.7615 -0.0419 -0.1417
  944MOL0     C27319   4.238  11.579   2.071 -0.0643  0.6089  0.3593
  944MOL0     C27320   4.269  11.522   1.924  0.6897 -0.4298 -0.4096
  944MOL0     C27321   4.412  11.470   1.907  0.2650 -0.8063 -0.4125
  944MOL0     N27322   4.437  11.431   1.768 -0.3292  0.1316  0.4929
  944MOL0     C27323   4.368  11.327   1.708 -0.0860 -0.5023 -0.2533
  944MOL0     C27324   4.425  11.331   1.578  0.7979  0.2304 -0.0792
  944MOL0     C27325   4.415  11.222   1.469  0.3980 -0.0575  0.4159
  944MOL0     C27326   4.273  11.150   1.457  0.2725  0.2398 -0.2490
  944MOL0     C27327   4.271  11.030   1.365  0.1255  0.0830 -0.0554
  944MOL0     C27328   4.128  11.013   1.318 -0.0931 -0.5104 -0.0206
  944MOL0     O27329   4.069  10.969   1.437 -0.1714  0.6648  0.2624
  944MOL0     C27330   3.942  10.910   1.418  0.0466  0.4274  0.2305
  944MOL0     C27331   3.860  10.929   1.306 -0.4379 -0.5258  0.8004
  944MOL0     C27332   3.729  10.877   1.306 -0.2807  0.4308 -0.4206
  944MOL0     C27333   3.657  10.904   1.177  0.4442  0.6238  1.4230
  944MOL0     C27334   3.676  10.805   1.420 -0.3087  0.1449 -0.8201
  944MOL0     C27335   3.536  10.764   1.427 -0.0831 -0.0936 -0.6082
  944MOL0     O27336   3.457  10.763   1.317  0.5850 -0.5091  1.0517
  944MOL0     C27337   3.331  10.732   1.344 -0.1194 -0.2080  0.6677
  944MOL0     C27338   3.234  10.840   1.321 -1.0083 -0.2132 -0.8235
  944MOL0     C27339   3.095  10.813   1.318 -0.9887 -0.2272  0.1442
  944MOL0     C27340   3.049  10.684   1.342 -0.6899  0.2274 -0.0540
  944MOL0     O27341   2.918  10.644   1.347 -0.2342 -0.4448  0.2274
  944MOL0     C27342   2.813  10.740   1.335 -0.0789  0.3815 -0.1317
  944MOL0     C27343   2.691  10.656   1.335 -0.0014 -0.6173  0.0063
  944MOL0     C27344   2.571  10.752   1.356 -0.1989 -0.0312  0.3359
  944MOL0     C27345   2.449  10.668   1.379  0.1192 -0.9416 -0.2342
  944MOL0     C27346   2.318  10.740   1.384 -0.2901 -0.4734  0.3549
  944MOL0     C27347   2.284  10.830   1.259  0.4918 -0.3713 -0.3644
  944MOL0     C27348   2.268  10.753   1.123 -0.2778  0.1947 -0.4116
  944MOL0     C27349   2.306  10.837   1.003 -0.3938  0.1978 -0.3651
  944MOL0    Cl27350   2.249  11.003   1.015  0.0811  0.0171 -0.5286
  944MOL0     C27351   3.142  10.580   1.375 -0.8277 -0.0880  1.0814
  944MOL0     C27352   3.281  10.604   1.373 -0.1143 -0.4617 -0.4281
  944MOL0     O27353   3.491  10.745   1.545  0.8739  0.7380  0.8883
  944MOL0     C27354   3.763  10.791   1.529 -0.0359 -0.7677  0.8086
  944MOL0     C27355   3.892  10.846   1.526 -0.5800  0.1052  1.0970
  944MOL0     N27356   4.517  11.437   1.575  0.4936  0.0264 -0.0603
  944MOL0     N27357   4.515  11.501   1.687 -0.1119 -0.2439 -0.1193
  944MOL0     C27358   3.477  11.533   2.566 -0.3518  0.0667  0.5213
  944MOL0     C27359   3.360  11.461   2.592 -0.2196  0.2915 -0.3119
  944MOL0     C27360   3.027  11.210   2.704  0.2816  0.4715 -0.8255
  944MOL0     C27361   2.893  11.227   2.655 -0.3046 -0.4336  0.1281
  944MOL0     C27362   2.780  11.178   2.722  0.6619 -0.1084  0.4599
  944MOL0     C27363   2.800  11.113   2.843  1.1914  0.4306  0.3275
  944MOL0     O27364   2.697  11.065   2.924 -0.2340 -0.4671 -0.0526
  944MOL0     C27365   2.564  11.118   2.917 -0.1080  0.6466  0.4588
  944MOL0     C27366   2.472  11.008   2.976 -0.7094 -0.0958  0.2610
  944MOL0     C27367   2.323  11.043   2.977 -0.2369  0.4412 -0.2424
  944MOL0     C27368   2.262  11.041   2.836  0.0708  0.4017  0.2246
  944MOL0     C27369   2.117  11.043   2.846  1.1919 -0.5527 -0.3727
  944MOL0     C27370   1.997  11.025   2.859 -0.0808  0.0568  0.3885
  944MOL0     C27371   2.927  11.098   2.895 -0.6476  0.3679 -0.0992
  944MOL0     C27372   3.044  11.143   2.824  0.5007  0.0408  0.3634
  944MOL0     H27373   3.502  11.172   2.702  1.1310 -0.7082 -0.6255
  944MOL0     H27374   3.708  11.294   2.640  1.9104  1.5151 -2.3066
  944MOL0     H27375   3.657  11.542   2.338  1.5596 -2.9110  1.3451
  944MOL0     H27376   3.669  11.699   2.417  1.9027 -0.1741  0.9094
  944MOL0     H27377   3.892  11.705   2.459  1.1123 -0.1078 -0.5248
  944MOL0     H27378   3.914  11.541   2.444  3.3868 -0.4307 -1.6128
  944MOL0     H27379   3.839  11.572   2.192  1.3280 -0.3852 -0.5124
  944MOL0     H27380   3.865  11.741   2.226  2.1506  1.1632  2.3745
  944MOL0     H27381   4.098  11.714   2.257 -0.1934 -0.3867  1.8807
  944MOL0     H27382   4.068  11.541   2.298 -3.7181  1.3669  2.8271
  944MOL0     H27383   4.034  11.493   2.065 -0.2842 -0.1241 -0.8131
  944MOL0     H27384   4.028  11.666   2.025  1.3537  0.0190 -1.9472
  944MOL0     H27385   4.270  11.683   2.072 -1.8493  1.1980  0.6065
  944MOL0     H27386   4.290  11.519   2.147 -0.3808 -0.9640 -0.6009
  944MOL0     H27387   4.198  11.445   1.892  2.4147 -2.5807  0.6369
  944MOL0     H27388   4.274  11.603   1.851  1.3970 -0.9876 -0.9940
  944MOL0     H27389   4.439  11.392   1.979  0.9312  0.6557  0.9858
  944MOL0     H27390   4.479  11.549   1.941  0.0965 -1.2053  0.9033
  944MOL0     H27391   4.290  11.267   1.753  0.1425  0.5288  1.6011
  944MOL0     H27392   4.431  11.267   1.370 -0.4738  1.4458  0.9207
  944MOL0     H27393   4.491  11.148   1.494 -1.3204 -2.3267 -0.6804
  944MOL0     H27394   4.206  11.223   1.412  0.3851  0.1510 -0.5700
  944MOL0     H27395   4.237  11.117   1.555  2.5554  0.2324  0.6563
  944MOL0     H27396   4.301  10.939   1.418 -3.4622 -0.4389  1.3742
  944MOL0     H27397   4.348  11.044   1.289  1.0933  0.4638  0.9696
  944MOL0     H27398   4.114  10.939   1.238  0.8797  1.4099 -2.1011
  944MOL0     H27399   4.090  11.109   1.283  1.2885  0.1192  0.1739
  944MOL0     H27400   3.900  10.975   1.217  0.4557 -2.1355  0.3212
  944MOL0     H27401   3.612  10.813   1.135 -1.8309  1.3558  2.1582
  944MOL0     H27402   3.577  10.977   1.192 -1.3815 -0.6445 -1.3160
  944MOL0     H27403   3.722  10.946   1.100 -2.3250  2.9128  0.1577
  944MOL0     H27404   3.267  10.941   1.300 -2.2359 -0.2045 -3.0683
  944MOL0     H27405   3.023  10.888   1.284 -0.7236 -1.5487 -3.9092
  944MOL0     H27406   2.806  10.802   1.425 -3.2290 -1.5555  1.1509
  944MOL0     H27407   2.814  10.815   1.255  0.2704  2.9430  2.1435
  944MOL0     H27408   2.679  10.605   1.239  0.4784  1.1079 -1.0041
  944MOL0     H27409   2.695  10.586   1.420  1.2712 -0.4830  0.0706
  944MOL0     H27410   2.572  10.825   1.275 -0.5796  2.1341  2.1810
  944MOL0     H27411   2.568  10.812   1.447 -1.3697 -1.0961  1.0412
  944MOL0     H27412   2.437  10.588   1.306 -0.1653 -1.5908  0.5125
  944MOL0     H27413   2.456  10.615   1.474 -1.7221 -4.2555 -1.7914
  944MOL0     H27414   2.312  10.800   1.475 -0.0035  0.9236 -0.5178
  944MOL0     H27415   2.239  10.666   1.398  1.1074 -1.6083  3.0142
  944MOL0     H27416   2.189  10.879   1.279  0.6170 -0.2022 -0.1859
  944MOL0     H27417   2.369  10.898   1.257 -0.7699  1.3875  1.8553
  944MOL0     H27418   2.162  10.728   1.118 -0.0978 -0.5585 -0.7376
  944MOL0     H27419   2.325  10.659   1.122 -0.6344 -0.1742 -4.6040
  944MOL0     H27420   2.270  10.792   0.911  0.8539 -2.5924  0.4180
  944MOL0     H27421   2.415  10.832   0.992 -0.3863 -3.9655  0.1252
  944MOL0     H27422   3.111  10.481   1.405 -0.2575 -0.6065  0.0450
  944MOL0     H27423   3.358  10.531   1.394  2.1121  1.5060 -1.2227
  944MOL0     H27424   3.732  10.733   1.616  0.3527  0.9811  2.1919
  944MOL0     H27425   3.951  10.839   1.617 -2.1314 -0.7119  2.0687
  944MOL0     H27426   3.478  11.635   2.529  2.4244 -0.4037 -0.9788
  944MOL0     H27427   3.269  11.518   2.576 -0.8444 -0.8975 -1.1062
  944MOL0     H27428   2.863  11.263   2.557 -0.1108 -1.3825 -0.2985
  944MOL0     H27429   2.683  11.200   2.678  0.9054  1.2063  0.5392
  944MOL0     H27430   2.555  11.213   2.970 -0.0706  1.9661 -1.7792
  944MOL0     H27431   2.530  11.130   2.814 -1.1836 -1.8377  0.4498
  944MOL0     H27432   2.502  10.994   3.080 -0.2582  0.2797  0.1839
  944MOL0     H27433   2.486  10.912   2.926 -1.4881 -0.4874  0.7750
  944MOL0     H27434   2.303  11.136   3.032 -2.0441  0.5820 -1.0685
  944MOL0     H27435   2.274  10.966   3.037 -1.6095  0.7253 -0.9479
  944MOL0     H27436   2.293  10.946   2.791 -0.2859 -1.7690  4.1304
  944MOL0     H27437   2.289  11.126   2.772 -0.5165  0.8047  0.4939
  944MOL0     H27438   1.890  11.021   2.861 -0.0643 -3.0366  1.1581
  944MOL0     H27439   2.941  11.054   2.993  1.9993  3.0844  0.8959
  944MOL0     H27440   3.141  11.127   2.870 -1.0504 -1.3045  3.4430
  945MOL0     O27441   2.670   6.574   7.067  0.3965  0.2494  0.4532
  945MOL0     C27442   2.710   6.555   7.184 -0.0912  0.4371  0.3560
  945MOL0     O27443   2.630   6.576   7.290 -0.0266 -0.7130 -0.3732
  945MOL0     C27444   2.495   6.583   7.272 -0.2277  0.3107  0.1006
  945MOL0     C27445   2.439   6.712   7.297  0.1764  0.1637  0.4918
  945MOL0     C27446   2.305   6.727   7.282 -0.0946  0.7368 -0.5559
  945MOL0     C27447   2.216   6.620   7.255  0.0732 -0.1622  0.8570
  945MOL0     O27448   2.080   6.625   7.236  0.5222  0.3783  0.0247
  945MOL0     C27449   2.018   6.759   7.250  0.2949  0.4065 -0.6174
  945MOL0     C27450   1.873   6.744   7.245  0.6671 -0.4839 -0.8556
  945MOL0     C27451   1.817   6.733   7.106  0.0893  0.2531  0.6360
  945MOL0     C27452   1.663   6.707   7.116  0.4263 -0.7467 -0.1247
  945MOL0     C27453   1.585   6.699   6.976  0.3457  0.1765 -1.1929
  945MOL0     C27454   1.618   6.815   6.882  0.0933 -0.0714 -0.7895
  945MOL0     C27455   1.553   6.793   6.747 -0.2181  0.7078  0.3355
  945MOL0     C27456   1.403   6.771   6.741 -0.0641 -0.0288  0.8271
  945MOL0     N27457   1.318   6.870   6.818 -0.7069  1.1144  0.0277
  945MOL0     C27458   1.320   6.999   6.773  0.2047 -0.0101  0.3889
  945MOL0     C27459   1.235   7.064   6.849 -0.3784  0.4450  0.0994
  945MOL0     C27460   1.197   7.213   6.830  0.9768  1.0875 -0.2823
  945MOL0     C27461   1.087   7.227   6.727 -0.3752 -0.2327  0.4708
  945MOL0     C27462   0.954   7.154   6.771 -0.1164  0.3784  0.3103
  945MOL0     C27463   0.837   7.167   6.676 -1.1375  0.5848  0.3993
  945MOL0     O27464   0.843   7.291   6.620  0.2903  0.5187  0.1458
  945MOL0     C27465   0.777   7.388   6.681 -0.7684 -0.6465 -0.0089
  945MOL0     C27466   0.777   7.502   6.601  1.4461  0.4410 -0.2504
  945MOL0     C27467   0.728   7.617   6.659 -0.9276 -0.6683 -0.1754
  945MOL0     C27468   0.739   7.753   6.574  0.6390  0.3353  0.7872
  945MOL0     C27469   0.656   7.620   6.782 -0.4701  0.3815  0.3532
  945MOL0     C27470   0.587   7.746   6.840  0.0128  0.7427 -0.1258
  945MOL0     O27471   0.520   7.703   6.953  0.8922  0.4590 -0.2404
  945MOL0     C27472   0.441   7.786   7.030 -0.0746 -0.4653  0.2621
  945MOL0     C27473   0.334   7.730   7.085  0.5715  0.6618 -0.3187
  945MOL0     C27474   0.237   7.812   7.147  0.0492 -0.4271  0.2103
  945MOL0     C27475   0.254   7.947   7.170 -1.0766 -0.1994  0.2360
  945MOL0     O27476   0.164   8.032   7.229  0.2659 -0.9109 -0.2480
  945MOL0     C27477   0.027   7.980   7.258 -0.9054 -0.5933  0.3916
  945MOL0     C27478  -0.054   8.085   7.324 -0.3890  0.1784  0.3542
  945MOL0     C27479  -0.167   8.030   7.416  0.7508 -1.0984  0.3288
  945MOL0     C27480  -0.259   8.140   7.460  0.0131 -0.4729  0.7072
  945MOL0     C27481  -0.365   8.112   7.566  0.0391 -0.0359  0.6424
  945MOL0     C27482  -0.453   7.996   7.533  0.2675  0.9161 -0.1398
  945MOL0     C27483  -0.556   7.986   7.651 -0.3649 -0.5138 -0.1314
  945MOL0     C27484  -0.670   7.890   7.599  0.4017 -0.2264 -1.0959
  945MOL0    Cl27485  -0.782   7.862   7.737 -0.3299 -0.4048 -0.3113
  945MOL0     C27486   0.362   8.013   7.100 -0.5002  0.0018  1.1113
  945MOL0     C27487   0.458   7.933   7.034  0.2291  0.7237  0.5054
  945MOL0     O27488   0.579   7.859   6.790 -0.8820 -0.1822  0.1010
  945MOL0     C27489   0.658   7.500   6.858  0.3003  0.2922  0.9657
  945MOL0     C27490   0.718   7.388   6.802 -0.4153  0.3519  0.0079
  945MOL0     N27491   1.191   6.978   6.945 -0.2107  0.1471  0.1558
  945MOL0     N27492   1.242   6.866   6.932 -0.7939 -0.1963 -0.3003
  945MOL0     C27493   2.272   6.500   7.233 -0.5526 -0.5216 -0.8680
  945MOL0     C27494   2.408   6.479   7.235  0.3198  0.1855  0.0621
  945MOL0     C27495   2.845   6.508   7.217 -0.0844 -0.1556  0.0975
  945MOL0     C27496   2.901   6.399   7.155 -0.5577  0.3023 -0.3752
  945MOL0     C27497   3.026   6.345   7.179 -0.1470 -0.1843 -0.0441
  945MOL0     C27498   3.110   6.405   7.276 -0.0774 -0.3253 -0.1763
  945MOL0     O27499   3.249   6.375   7.302  0.0590 -0.6674 -0.1970
  945MOL0     C27500   3.297   6.264   7.214  0.4154 -1.2069 -1.5937
  945MOL0     C27501   3.450   6.259   7.237 -0.4078 -0.0231  0.7443
  945MOL0     C27502   3.518   6.144   7.161  0.7471  0.5330  0.3880
  945MOL0     C27503   3.675   6.144   7.175  0.1308 -0.7717 -0.6099
  945MOL0     C27504   3.720   6.012   7.125  0.3963 -0.9132 -0.0041
  945MOL0     C27505   3.750   5.906   7.072  0.4108 -0.6015 -0.2519
  945MOL0     C27506   3.049   6.508   7.351  0.2161 -0.0591  1.0621
  945MOL0     C27507   2.928   6.562   7.317 -0.0944  0.1077  0.1527
  945MOL0     H27508   2.498   6.803   7.306  2.7255 -1.4462  1.2442
  945MOL0     H27509   2.263   6.824   7.308  0.5334  0.2695  2.6782
  945MOL0     H27510   2.039   6.793   7.352 -1.1305  0.2546 -0.2602
  945MOL0     H27511   2.054   6.830   7.175 -2.1673  2.2540 -0.1588
  945MOL0     H27512   1.834   6.661   7.305  1.5596  0.3890  1.0058
  945MOL0     H27513   1.863   6.845   7.285  2.8621  0.0699 -1.6041
  945MOL0     H27514   1.841   6.825   7.050  2.0687 -1.9885 -2.5392
  945MOL0     H27515   1.865   6.652   7.050 -1.9715 -2.1711  2.1624
  945MOL0     H27516   1.645   6.620   7.179  0.9279  0.1362  1.2775
  945MOL0     H27517   1.623   6.798   7.160 -0.5148 -1.7387  1.1594
  945MOL0     H27518   1.612   6.604   6.928 -1.4110 -1.1640  0.3375
  945MOL0     H27519   1.480   6.684   6.999  1.0443 -0.4951  2.0306
  945MOL0     H27520   1.579   6.914   6.909 -0.3686  0.0695 -1.9361
  945MOL0     H27521   1.727   6.826   6.874  0.8249 -4.9928 -0.6443
  945MOL0     H27522   1.577   6.870   6.674  0.3140 -0.3923 -0.6820
  945MOL0     H27523   1.601   6.701   6.712  0.9503  0.9894  1.1193
  945MOL0     H27524   1.374   6.670   6.770  1.0345 -1.5129 -2.7021
  945MOL0     H27525   1.386   6.786   6.634  0.6226 -1.3120  0.5284
  945MOL0     H27526   1.383   7.047   6.699 -1.3200  0.3109 -0.7263
  945MOL0     H27527   1.179   7.260   6.927  3.1191 -1.9950  1.7857
  945MOL0     H27528   1.286   7.263   6.789  1.5034  1.1250  0.8796
  945MOL0     H27529   1.120   7.172   6.639 -1.2350 -2.0703  1.2570
  945MOL0     H27530   1.077   7.334   6.705 -0.2605 -0.4204 -0.5650
  945MOL0     H27531   0.926   7.176   6.875 -0.9285  0.1267  0.1517
  945MOL0     H27532   0.966   7.045   6.773 -1.6499  0.1866  0.6617
  945MOL0     H27533   0.740   7.140   6.718 -1.5857  1.6250  0.0600
  945MOL0     H27534   0.864   7.103   6.591 -1.4297  1.1728 -0.1395
  945MOL0     H27535   0.808   7.507   6.497  2.9097  0.1510  0.1491
  945MOL0     H27536   0.782   7.834   6.633  1.6033 -1.6796  3.0362
  945MOL0     H27537   0.809   7.737   6.492 -3.7061 -0.7007 -3.1508
  945MOL0     H27538   0.640   7.788   6.545  1.0446  1.1686  0.3869
  945MOL0     H27539   0.312   7.626   7.062 -0.0764  0.5115  0.8649
  945MOL0     H27540   0.142   7.765   7.173 -1.3517  1.5128 -1.1358
  945MOL0     H27541  -0.019   7.932   7.171 -1.3304  0.8753 -0.2247
  945MOL0     H27542   0.039   7.900   7.331 -2.0508 -0.2765  0.9468
  945MOL0     H27543   0.015   8.158   7.368 -0.4925  0.5988 -0.1653
  945MOL0     H27544  -0.100   8.140   7.241  1.8181 -0.1684 -1.1951
  945MOL0     H27545  -0.105   7.983   7.493  0.5718  0.3335  1.3839
  945MOL0     H27546  -0.223   7.954   7.361  0.8769  0.1341 -1.6093
  945MOL0     H27547  -0.194   8.204   7.521  1.2499  0.5431 -1.5642
  945MOL0     H27548  -0.302   8.207   7.386  0.4758  0.0152  0.8725
  945MOL0     H27549  -0.422   8.206   7.567 -0.6245 -0.3667 -1.5449
  945MOL0     H27550  -0.315   8.098   7.662 -0.4917 -2.3771  0.6268
  945MOL0     H27551  -0.506   8.010   7.438  2.5187 -1.5283 -1.9295
  945MOL0     H27552  -0.384   7.912   7.522  0.7092  0.9622  2.0501
  945MOL0     H27553  -0.604   8.081   7.676 -0.8979 -1.1785  1.4776
  945MOL0     H27554  -0.511   7.959   7.747 -0.4039  3.2660  1.0995
  945MOL0     H27555  -0.627   7.794   7.568 -1.7211 -0.5142 -3.4657
  945MOL0     H27556  -0.722   7.929   7.511  2.7146 -2.1178 -3.5065
  945MOL0     H27557   0.369   8.122   7.100  0.6992 -0.0022 -1.1276
  945MOL0     H27558   0.544   7.973   6.982  0.7731 -0.8746  0.0934
  945MOL0     H27559   0.629   7.480   6.960  0.3195 -2.9008  0.4228
  945MOL0     H27560   0.724   7.299   6.863 -1.9358  2.1540  2.9992
  945MOL0     H27561   2.209   6.419   7.198 -1.3028 -0.9554  1.3399
  945MOL0     H27562   2.443   6.381   7.201  0.6917 -1.4874  4.6158
  945MOL0     H27563   2.833   6.352   7.083  1.8207  1.5109 -3.6727
  945MOL0     H27564   3.060   6.262   7.117  2.7503  0.2695  0.8137
  945MOL0     H27565   3.247   6.175   7.252  0.3975 -0.9575 -1.0249
  945MOL0     H27566   3.272   6.280   7.108 -1.3446  0.7445 -0.9452
  945MOL0     H27567   3.472   6.251   7.344  0.2424  4.5293  1.1187
  945MOL0     H27568   3.503   6.346   7.198 -0.8347  0.3848  1.0660
  945MOL0     H27569   3.494   6.135   7.055  1.3349 -0.9649  0.3493
  945MOL0     H27570   3.484   6.054   7.214 -0.0050 -1.0262 -2.4995
  945MOL0     H27571   3.702   6.158   7.280  0.8528  1.6343 -1.0534
  945MOL0     H27572   3.715   6.227   7.116  2.4651  1.2346  3.3662
  945MOL0     H27573   3.774   5.806   7.044  1.0150 -0.5988  0.2381
  945MOL0     H27574   3.106   6.546   7.435  2.0110  0.0077 -0.1076
  945MOL0     H27575   2.883   6.644   7.374 -2.8457 -0.2857 -1.2741
  946MOL0     O27576   5.798   3.952   0.852 -0.3443  0.1393  0.2181
  946MOL0     C27577   5.817   3.831   0.816  0.1748 -0.5046 -0.1682
  946MOL0     O27578   5.728   3.749   0.761  0.3466 -0.2740  0.0304
  946MOL0     C27579   5.598   3.793   0.744  0.3374  0.0319  0.2685
  946MOL0     C27580   5.515   3.859   0.832 -0.9403  0.1635 -0.1294
  946MOL0     C27581   5.388   3.897   0.791  0.6538 -0.5168 -0.1045
  946MOL0     C27582   5.327   3.869   0.669  0.5917  0.5188 -0.4703
  946MOL0     O27583   5.192   3.899   0.656  0.1780 -1.2044 -0.8438
  946MOL0     C27584   5.123   3.876   0.537  0.0516 -1.0249 -0.5113
  946MOL0     C27585   5.026   3.771   0.561 -0.0799  0.2676  0.6459
  946MOL0     C27586   4.909   3.810   0.661 -0.2937  0.5089  0.3351
  946MOL0     C27587   4.772   3.761   0.616  0.0103  0.9406  0.3839
  946MOL0     C27588   4.664   3.841   0.677  0.1403 -0.6226 -0.1277
  946MOL0     C27589   4.643   3.814   0.822  0.8831  0.8872  0.2196
  946MOL0     C27590   4.506   3.876   0.879 -1.0839  0.2216  0.1675
  946MOL0     C27591   4.503   4.027   0.883 -0.3957 -0.4288  0.7186
  946MOL0     N27592   4.574   4.083   0.991 -0.1789  0.0674  0.2538
  946MOL0     C27593   4.524   4.105   1.119  0.0032 -0.3281  0.2459
  946MOL0     C27594   4.626   4.164   1.192  0.9791  0.2340  0.1763
  946MOL0     C27595   4.623   4.215   1.328 -0.7814 -0.5821 -0.1664
  946MOL0     C27596   4.736   4.137   1.404  0.4832 -0.4109 -0.2507
  946MOL0     C27597   4.737   4.188   1.549 -0.3991 -0.6780 -0.0820
  946MOL0     C27598   4.869   4.142   1.608 -0.1787  0.1431 -0.0647
  946MOL0     O27599   4.971   4.216   1.556 -0.0687 -0.3118  0.1939
  946MOL0     C27600   5.098   4.177   1.574 -0.6337  0.4795  0.2207
  946MOL0     C27601   5.189   4.234   1.498  0.1378  0.1114  0.8749
  946MOL0     C27602   5.326   4.220   1.510 -1.2166  0.1893 -0.1891
  946MOL0     C27603   5.413   4.293   1.415 -0.4611  1.1921  0.3044
  946MOL0     C27604   5.370   4.125   1.609 -0.2030 -1.0300  1.0432
  946MOL0     C27605   5.509   4.081   1.607 -0.3555 -0.1718  0.5641
  946MOL0     O27606   5.528   3.949   1.585 -0.4322 -0.4040  0.1119
  946MOL0     C27607   5.661   3.907   1.590  0.9550 -1.1098  0.5443
  946MOL0     C27608   5.734   3.894   1.475 -0.4372  0.4979  0.9865
  946MOL0     C27609   5.870   3.849   1.492 -0.1179  0.1033 -0.4541
  946MOL0     C27610   5.924   3.816   1.613  0.0447  0.4769  0.2022
  946MOL0     O27611   6.051   3.777   1.624  0.2288 -0.5613 -0.4135
  946MOL0     C27612   6.089   3.648   1.575  0.1257 -0.2006 -0.3775
  946MOL0     C27613   6.134   3.642   1.435 -0.5443  0.4311  0.2064
  946MOL0     C27614   6.237   3.756   1.409  0.2326  0.1651 -0.3483
  946MOL0     C27615   6.353   3.758   1.506 -0.8482  0.0135 -0.0146
  946MOL0     C27616   6.478   3.829   1.448 -0.2726 -0.5720 -0.3249
  946MOL0     C27617   6.448   3.981   1.447 -1.0919 -0.2041  0.4532
  946MOL0     C27618   6.572   4.058   1.379  1.2101 -0.4538 -0.2927
  946MOL0     C27619   6.603   4.018   1.235 -0.2431  0.1359 -0.5590
  946MOL0    Cl27620   6.466   4.021   1.119 -0.5781  0.1120 -0.1712
  946MOL0     C27621   5.853   3.851   1.728 -0.0748 -0.1256 -0.1744
  946MOL0     C27622   5.718   3.883   1.714  0.2514 -0.2347 -0.5025
  946MOL0     O27623   5.592   4.163   1.642 -0.4884  0.6074  0.3565
  946MOL0     C27624   5.276   4.064   1.691  0.4435  0.1151 -0.1361
  946MOL0     C27625   5.142   4.096   1.677  0.2799 -0.8453 -1.0067
  946MOL0     N27626   4.726   4.190   1.101 -0.2699  1.1278  0.1808
  946MOL0     N27627   4.706   4.130   0.992  0.1421 -0.4163  0.5136
  946MOL0     C27628   5.414   3.799   0.581  0.2978  1.2400  0.5671
  946MOL0     C27629   5.549   3.763   0.619  0.2314 -0.4154  0.5825
  946MOL0     C27630   5.953   3.779   0.852 -0.1490 -0.1134 -0.2324
  946MOL0     C27631   6.022   3.815   0.973  0.7222  0.6533 -0.2325
  946MOL0     C27632   6.144   3.761   1.005  0.7931 -0.2768 -0.2267
  946MOL0     C27633   6.211   3.672   0.911 -0.0160  0.0439 -0.4625
  946MOL0     O27634   6.329   3.615   0.923  0.0389  0.0849  0.4750
  946MOL0     C27635   6.402   3.615   1.046  0.2442  0.2044 -0.7695
  946MOL0     C27636   6.523   3.531   1.069 -0.6311 -0.6794 -0.4565
  946MOL0     C27637   6.632   3.607   0.991 -0.3027  0.0618 -0.8236
  946MOL0     C27638   6.769   3.581   1.053  0.2486 -0.0371  0.3446
  946MOL0     C27639   6.787   3.635   1.189 -0.3473  0.0356  0.9851
  946MOL0     C27640   6.806   3.680   1.291 -0.0724 -1.0884 -0.6918
  946MOL0     C27641   6.151   3.644   0.788  0.2522 -0.4246 -0.2910
  946MOL0     C27642   6.022   3.693   0.758 -0.2872  0.0126  1.2136
  946MOL0     H27643   5.536   3.865   0.938  1.2258 -1.2867 -0.4267
  946MOL0     H27644   5.323   3.933   0.870  1.5633  1.0392 -0.0233
  946MOL0     H27645   5.068   3.963   0.499  2.9276  0.0300 -2.5937
  946MOL0     H27646   5.188   3.847   0.454  0.7387  0.0179 -0.3526
  946MOL0     H27647   4.986   3.722   0.471 -2.6712 -0.4489  2.0855
  946MOL0     H27648   5.083   3.689   0.604  0.9218  0.1485 -0.8398
  946MOL0     H27649   4.930   3.771   0.761  0.6382  1.2928  0.4612
  946MOL0     H27650   4.903   3.919   0.670  0.4972  0.5407  0.5498
  946MOL0     H27651   4.771   3.744   0.508  0.3127 -2.9022  0.8339
  946MOL0     H27652   4.752   3.655   0.632  0.2007  0.5321 -1.8220
  946MOL0     H27653   4.674   3.947   0.652 -0.7680 -1.0876 -2.7868
  946MOL0     H27654   4.574   3.821   0.619 -1.1593 -4.0203  2.6996
  946MOL0     H27655   4.630   3.706   0.835 -0.5463  0.8375 -1.3442
  946MOL0     H27656   4.726   3.845   0.887  0.5581  2.0982  0.0822
  946MOL0     H27657   4.421   3.833   0.826 -0.1213 -2.2323  0.4782
  946MOL0     H27658   4.501   3.831   0.978 -0.5621 -0.3811 -0.0659
  946MOL0     H27659   4.404   4.064   0.910  0.5139  2.2247  0.6782
  946MOL0     H27660   4.535   4.072   0.788  4.7625  2.9773  3.5743
  946MOL0     H27661   4.422   4.117   1.155 -0.3197 -0.6750 -0.5228
  946MOL0     H27662   4.651   4.321   1.328 -0.4269 -0.6594  0.8242
  946MOL0     H27663   4.529   4.211   1.384  1.0840  0.2495  3.3413
  946MOL0     H27664   4.831   4.149   1.351  1.1924 -1.0174  0.8566
  946MOL0     H27665   4.704   4.032   1.401 -1.5443  0.1795 -1.7429
  946MOL0     H27666   4.652   4.144   1.601 -0.9784  0.0150 -0.4153
  946MOL0     H27667   4.724   4.297   1.558 -0.6390 -0.8694  2.5964
  946MOL0     H27668   4.880   4.034   1.593 -3.7023 -0.3205 -0.0827
  946MOL0     H27669   4.876   4.168   1.714  1.1495  1.6615 -0.4912
  946MOL0     H27670   5.143   4.301   1.426  1.3230  0.1459  0.1209
  946MOL0     H27671   5.519   4.267   1.423 -0.8044 -0.4732 -0.1363
  946MOL0     H27672   5.392   4.275   1.310  1.2034  1.7136 -0.1562
  946MOL0     H27673   5.392   4.400   1.427  1.3166  1.4324  1.8876
  946MOL0     H27674   5.690   3.928   1.381  0.8485  1.9900  0.8909
  946MOL0     H27675   5.929   3.853   1.400 -0.2653 -0.6503 -0.5877
  946MOL0     H27676   6.170   3.616   1.641  0.1453 -0.6144 -0.5974
  946MOL0     H27677   6.005   3.578   1.586  2.1450 -2.4383  2.5557
  946MOL0     H27678   6.179   3.545   1.414  0.9527  0.8393  1.2922
  946MOL0     H27679   6.051   3.643   1.364  0.4906 -1.2509 -1.0896
  946MOL0     H27680   6.191   3.855   1.400  1.2157  0.5178 -1.8216
  946MOL0     H27681   6.288   3.717   1.321  1.2318 -0.3193  0.4254
  946MOL0     H27682   6.326   3.791   1.607  0.0127 -0.6608  0.4545
  946MOL0     H27683   6.392   3.655   1.509 -0.0464  0.3187  0.4864
  946MOL0     H27684   6.493   3.796   1.345  3.8381  2.3414 -0.9069
  946MOL0     H27685   6.574   3.822   1.500  0.0147  1.9928 -0.3662
  946MOL0     H27686   6.359   4.010   1.389  1.0213  0.7838 -2.5567
  946MOL0     H27687   6.441   4.021   1.549  1.4741 -0.3777  0.7513
  946MOL0     H27688   6.661   4.039   1.441  2.5171 -3.4501 -2.8185
  946MOL0     H27689   6.558   4.166   1.388  0.7275 -0.5271 -0.1328
  946MOL0     H27690   6.639   3.915   1.225  1.1361  0.5740 -0.3452
  946MOL0     H27691   6.692   4.072   1.200 -0.6518  0.2926 -1.3906
  946MOL0     H27692   5.908   3.841   1.821 -0.9646 -0.5337  0.3183
  946MOL0     H27693   5.650   3.886   1.799  0.8568 -1.5516  0.0680
  946MOL0     H27694   5.294   3.991   1.769  0.1336  0.7359  0.5343
  946MOL0     H27695   5.082   4.044   1.751  1.6540  0.5816  1.2054
  946MOL0     H27696   5.385   3.766   0.482  0.7749  0.6637  0.6154
  946MOL0     H27697   5.610   3.702   0.553  1.8291  1.3174  0.3880
  946MOL0     H27698   5.966   3.876   1.043  1.9915  0.2792  1.1527
  946MOL0     H27699   6.179   3.781   1.106  1.3295  1.5955 -0.7454
  946MOL0     H27700   6.434   3.715   1.077  1.7451 -1.1876  2.6669
  946MOL0     H27701   6.335   3.591   1.130  2.1400  2.1791  1.4442
  946MOL0     H27702   6.512   3.426   1.040  2.6433 -0.8282 -1.6214
  946MOL0     H27703   6.551   3.534   1.175 -0.2227 -1.3461 -0.5371
  946MOL0     H27704   6.622   3.716   0.992 -0.3646  0.1435 -3.2942
  946MOL0     H27705   6.622   3.571   0.888 -0.9744  2.5192 -1.7047
  946MOL0     H27706   6.841   3.624   0.982 -0.6811  1.6190  0.3588
  946MOL0     H27707   6.785   3.474   1.067 -0.5684 -0.3655 -1.1276
  946MOL0     H27708   6.814   3.719   1.390 -3.3410  0.8523 -1.0667
  946MOL0     H27709   6.208   3.583   0.719  2.2254 -0.7156  1.5066
  946MOL0     H27710   5.987   3.678   0.656  1.4582  1.3438  0.3684
  947MOL0     O27711   0.462   1.951   4.515  0.3856 -0.8609  0.2754
  947MOL0     C27712   0.364   1.934   4.589 -0.4962 -0.5997 -0.2606
  947MOL0     O27713   0.352   1.830   4.677 -0.1242  0.4832  0.7773
  947MOL0     C27714   0.225   1.793   4.725 -0.6713 -0.9189  0.0065
  947MOL0     C27715   0.213   1.794   4.864  0.2019  0.2495 -0.4774
  947MOL0     C27716   0.084   1.772   4.915 -0.4390 -0.0122 -0.1412
  947MOL0     C27717  -0.024   1.734   4.832 -0.3235 -0.6841 -0.2056
  947MOL0     O27718  -0.158   1.710   4.867  0.4312  0.2435 -0.6076
  947MOL0     C27719  -0.203   1.733   5.009 -0.5234  0.4559  0.3238
  947MOL0     C27720  -0.195   1.880   5.052 -0.0773 -0.3407 -0.5112
  947MOL0     C27721  -0.306   1.955   4.982 -0.1452 -0.3157 -0.1753
  947MOL0     C27722  -0.263   2.038   4.858 -0.8671 -0.8952 -0.5737
  947MOL0     C27723  -0.380   2.059   4.768  0.2988 -0.6445 -0.2700
  947MOL0     C27724  -0.332   2.120   4.644  0.7028 -0.0123 -0.2592
  947MOL0     C27725  -0.441   2.128   4.537 -0.3854  0.0294 -0.1187
  947MOL0     C27726  -0.391   2.152   4.392 -0.1583 -0.9039 -0.0561
  947MOL0     N27727  -0.509   2.132   4.295 -0.5052  0.2438 -0.2644
  947MOL0     C27728  -0.534   2.011   4.244  0.3391  0.6469  1.3180
  947MOL0     C27729  -0.601   2.026   4.133  0.3776  0.7965  1.0833
  947MOL0     C27730  -0.626   1.919   4.029  0.0497 -0.8363 -0.6450
  947MOL0     C27731  -0.507   1.877   3.941 -0.0249 -0.8430  0.2991
  947MOL0     C27732  -0.376   1.843   4.019  0.5464  0.2149  0.4106
  947MOL0     C27733  -0.281   1.790   3.926 -0.8154  0.5308 -0.2833
  947MOL0     O27734  -0.241   1.896   3.841 -0.1939 -0.0179  0.4026
  947MOL0     C27735  -0.133   1.962   3.890 -0.4406 -0.3681  0.2407
  947MOL0     C27736  -0.004   1.917   3.860  0.4585 -0.6166 -0.0351
  947MOL0     C27737   0.098   2.012   3.888  0.0707 -0.0999 -1.0260
  947MOL0     C27738   0.232   1.969   3.845  0.5827 -0.2508 -0.7369
  947MOL0     C27739   0.078   2.133   3.962 -0.0029  0.1979  0.2254
  947MOL0     C27740   0.185   2.234   3.982  0.8399  0.0596 -0.0264
  947MOL0     O27741   0.162   2.314   4.089 -0.0995 -0.1335 -0.3516
  947MOL0     C27742   0.207   2.450   4.086  0.3186 -0.1521 -0.1777
  947MOL0     C27743   0.231   2.513   4.211 -0.1170  0.4846  0.3967
  947MOL0     C27744   0.301   2.634   4.218  0.5554 -0.8336 -0.1891
  947MOL0     C27745   0.336   2.702   4.102 -0.4585  0.8044 -0.3619
  947MOL0     O27746   0.407   2.815   4.130  0.3524  0.1498 -0.1019
  947MOL0     C27747   0.410   2.928   4.044  0.2110 -1.5640 -0.3364
  947MOL0     C27748   0.436   3.063   4.108  0.4374  0.1130  0.8472
  947MOL0     C27749   0.484   3.173   4.011  0.4818  0.9596  1.3573
  947MOL0     C27750   0.485   3.307   4.080 -0.6561  0.2409 -0.2698
  947MOL0     C27751   0.554   3.422   4.000 -0.0539  0.9127  0.3456
  947MOL0     C27752   0.571   3.535   4.086  0.3844 -0.7273  0.4038
  947MOL0     C27753   0.664   3.634   4.010  0.0363  0.7079 -0.9966
  947MOL0     C27754   0.709   3.754   4.096 -0.3476  0.4378 -0.9526
  947MOL0    Cl27755   0.705   3.892   3.980  0.6243  0.0687  0.6164
  947MOL0     C27756   0.313   2.645   3.977 -0.1186  0.5001  0.1550
  947MOL0     C27757   0.238   2.524   3.969  0.0045 -0.3584  0.2523
  947MOL0     O27758   0.283   2.239   3.907 -0.0802  0.5585 -0.2168
  947MOL0     C27759  -0.049   2.161   3.999  1.5183 -0.3213 -0.5902
  947MOL0     C27760  -0.159   2.085   3.955 -0.7014 -0.3659 -0.1266
  947MOL0     N27761  -0.614   2.162   4.105 -0.8567  0.1665  0.1997
  947MOL0     N27762  -0.550   2.229   4.201  0.0531 -0.5016 -0.0470
  947MOL0     C27763  -0.001   1.720   4.701  0.4886  0.3283  0.1825
  947MOL0     C27764   0.121   1.758   4.644  0.2210 -0.0704  0.3493
  947MOL0     C27765   0.253   2.033   4.553  0.1245 -0.7097 -0.2709
  947MOL0     C27766   0.247   2.096   4.426 -0.3692 -0.0037 -0.4527
  947MOL0     C27767   0.136   2.170   4.403  0.5017 -0.0842  0.3187
  947MOL0     C27768   0.034   2.205   4.496  0.2789 -0.1868 -0.0572
  947MOL0     O27769  -0.088   2.250   4.457 -0.0598 -0.7342 -0.4387
  947MOL0     C27770  -0.091   2.374   4.406 -0.1864 -0.1836  0.2050
  947MOL0     C27771  -0.063   2.483   4.508  0.1075 -0.8097 -0.8495
  947MOL0     C27772  -0.162   2.503   4.626  0.2969  0.2652  0.6175
  947MOL0     C27773  -0.299   2.546   4.574  0.7714  0.6484 -0.0160
  947MOL0     C27774  -0.406   2.542   4.684 -0.0563  0.4915  0.8081
  947MOL0     C27775  -0.497   2.542   4.765  0.2573 -0.3842  0.2879
  947MOL0     C27776   0.049   2.170   4.626 -0.1865  0.7209 -0.2734
  947MOL0     C27777   0.157   2.077   4.654  0.6771  0.1081 -0.0850
  947MOL0     H27778   0.289   1.814   4.939 -0.2372  0.6309 -0.1283
  947MOL0     H27779   0.069   1.778   5.023  1.4484  0.5522  0.1355
  947MOL0     H27780  -0.307   1.700   5.013  0.2017 -2.0942 -0.0374
  947MOL0     H27781  -0.141   1.679   5.081  1.4757  0.4469 -1.2697
  947MOL0     H27782  -0.207   1.890   5.160  1.7149  1.6507 -0.4382
  947MOL0     H27783  -0.091   1.907   5.032  0.9249 -3.2771  0.1629
  947MOL0     H27784  -0.376   1.878   4.948 -1.6695  0.3026  1.3949
  947MOL0     H27785  -0.360   2.022   5.049  1.1196  0.6040 -0.0430
  947MOL0     H27786  -0.225   2.137   4.886 -0.9242 -1.1045  0.2779
  947MOL0     H27787  -0.183   1.986   4.804 -0.2628  0.4057 -0.9623
  947MOL0     H27788  -0.430   1.965   4.741 -1.6238 -0.2110  1.5426
  947MOL0     H27789  -0.448   2.127   4.820  3.3854  0.1915  3.0961
  947MOL0     H27790  -0.304   2.225   4.661  0.3437  0.0643 -0.1283
  947MOL0     H27791  -0.245   2.063   4.610 -0.7921 -1.9213 -1.0710
  947MOL0     H27792  -0.496   2.034   4.538  1.1396 -0.9263 -1.2933
  947MOL0     H27793  -0.513   2.205   4.566  1.2628  1.4686  0.3783
  947MOL0     H27794  -0.313   2.078   4.372  1.3093  0.3268  0.8312
  947MOL0     H27795  -0.356   2.256   4.394  0.7935 -1.1922 -0.8654
  947MOL0     H27796  -0.499   1.920   4.291  2.6302  1.2539  0.9431
  947MOL0     H27797  -0.650   1.825   4.080  4.0885 -0.8740  1.5861
  947MOL0     H27798  -0.703   1.954   3.960 -0.4968 -2.7830 -1.0871
  947MOL0     H27799  -0.471   1.957   3.876  0.8515  0.1123  1.8905
  947MOL0     H27800  -0.532   1.785   3.889  1.8097 -1.4631  0.4427
  947MOL0     H27801  -0.409   1.765   4.089 -0.2136  1.3776  1.3997
  947MOL0     H27802  -0.323   1.916   4.081  0.1984 -0.6653  1.8055
  947MOL0     H27803  -0.328   1.726   3.850  0.7506  0.0964 -0.9380
  947MOL0     H27804  -0.210   1.726   3.979 -2.7343 -1.8027 -0.3110
  947MOL0     H27805   0.011   1.826   3.804  1.4710  1.3657 -3.3047
  947MOL0     H27806   0.300   1.939   3.925  2.4268 -2.4923 -2.9924
  947MOL0     H27807   0.221   1.874   3.792 -1.3491 -0.5015  0.0369
  947MOL0     H27808   0.270   2.043   3.774  1.2826  0.1079  0.0065
  947MOL0     H27809   0.196   2.453   4.295 -3.2861  0.6081 -0.6903
  947MOL0     H27810   0.317   2.671   4.319  2.3669 -1.2983 -0.2760
  947MOL0     H27811   0.484   2.904   3.967 -1.9898 -2.5122 -2.2812
  947MOL0     H27812   0.314   2.947   3.994  1.9581  2.2566 -2.7505
  947MOL0     H27813   0.337   3.095   4.142 -0.6986 -1.3950 -0.8405
  947MOL0     H27814   0.497   3.050   4.197 -0.4292 -1.2907  1.2719
  947MOL0     H27815   0.407   3.175   3.933  2.8064  1.0237 -1.0824
  947MOL0     H27816   0.583   3.153   3.969 -0.2525 -0.6261  0.2991
  947MOL0     H27817   0.387   3.325   4.125  0.1105 -0.6761  1.8929
  947MOL0     H27818   0.553   3.287   4.163  0.2400 -2.6534 -1.5703
  947MOL0     H27819   0.486   3.449   3.919 -0.5419 -0.7065  0.1983
  947MOL0     H27820   0.649   3.389   3.956 -1.0130  1.5545 -2.4274
  947MOL0     H27821   0.478   3.582   4.120  1.1847 -0.1489  1.9021
  947MOL0     H27822   0.619   3.493   4.175  1.0609 -1.0668 -0.1176
  947MOL0     H27823   0.596   3.660   3.928 -0.7136 -1.3970 -1.0957
  947MOL0     H27824   0.752   3.589   3.963  1.0705  2.2587 -0.6359
  947MOL0     H27825   0.813   3.749   4.130 -0.4729 -0.0940 -0.6420
  947MOL0     H27826   0.640   3.766   4.180  0.6567  2.0585 -0.3010
  947MOL0     H27827   0.364   2.680   3.887 -0.1204  0.0755 -0.0146
  947MOL0     H27828   0.216   2.476   3.874 -0.2008  0.3116 -0.0444
  947MOL0     H27829  -0.074   2.256   4.045 -2.0447 -0.1602 -2.5183
  947MOL0     H27830  -0.257   2.131   3.955 -1.5130 -1.8218 -3.4457
  947MOL0     H27831  -0.088   1.699   4.639  1.3751  0.2008 -1.0523
  947MOL0     H27832   0.152   1.772   4.541 -0.0789  1.2689  0.4215
  947MOL0     H27833   0.309   2.070   4.341  0.9914  0.0425  0.5074
  947MOL0     H27834   0.123   2.201   4.300  0.3836  3.0686  1.1665
  947MOL0     H27835  -0.012   2.380   4.330 -0.0222  2.2724  0.4762
  947MOL0     H27836  -0.188   2.393   4.360 -0.3785 -1.0594  0.2472
  947MOL0     H27837  -0.061   2.583   4.463  0.8783 -0.5439 -0.2459
  947MOL0     H27838   0.035   2.467   4.554  1.0693  5.0320 -0.0669
  947MOL0     H27839  -0.132   2.578   4.700 -1.5715 -0.0972  1.8053
  947MOL0     H27840  -0.161   2.400   4.663  3.1270  0.3670  1.0779
  947MOL0     H27841  -0.328   2.475   4.495  1.4003 -0.0458  0.3640
  947MOL0     H27842  -0.274   2.645   4.536  2.5777 -0.2066 -1.2361
  947MOL0     H27843  -0.577   2.553   4.835  1.3553 -2.6498  2.0703
  947MOL0     H27844  -0.020   2.196   4.705 -0.9221  0.8812 -0.9462
  947MOL0     H27845   0.176   2.026   4.748 -0.8234  1.4116  0.9880
  948MOL0     O27846   8.337   1.285   5.035 -0.0733 -0.2910  0.0747
  948MOL0     C27847   8.431   1.315   4.957 -0.0725 -0.0906 -0.0004
  948MOL0     O27848   8.410   1.355   4.822 -0.8145 -0.6806 -0.3343
  948MOL0     C27849   8.278   1.363   4.789 -0.1766 -0.2281  0.6928
  948MOL0     C27850   8.206   1.249   4.757  0.0701 -0.5484 -0.2525
  948MOL0     C27851   8.074   1.263   4.723  0.4956  0.1740  0.7524
  948MOL0     C27852   8.009   1.389   4.712 -0.0823 -0.0893  0.3852
  948MOL0     O27853   7.875   1.380   4.680 -0.2652 -0.6475  0.0793
  948MOL0     C27854   7.807   1.512   4.664  0.4226 -0.7343  0.6248
  948MOL0     C27855   7.666   1.491   4.618  0.3992  1.3044 -0.3365
  948MOL0     C27856   7.579   1.426   4.727  0.2333 -0.1866  0.4156
  948MOL0     C27857   7.585   1.278   4.714  0.1890  1.0755  1.0347
  948MOL0     C27858   7.499   1.188   4.801  0.7097  0.4138 -0.1941
  948MOL0     C27859   7.353   1.231   4.815  0.3354 -0.9481 -0.3777
  948MOL0     C27860   7.254   1.124   4.867  0.0519 -0.6650  0.9395
  948MOL0     C27861   7.309   1.053   4.988  0.0922  0.1344  0.7181
  948MOL0     N27862   7.195   0.997   5.063  0.5195 -0.4281  0.7709
  948MOL0     C27863   7.123   0.889   5.023  0.2040  0.0320  0.4765
  948MOL0     C27864   7.024   0.881   5.120 -0.2286 -0.1760  0.3492
  948MOL0     C27865   6.941   0.766   5.162  0.4517  0.2347  0.1685
  948MOL0     C27866   6.904   0.657   5.070  0.4948  0.3987  0.4691
  948MOL0     C27867   6.936   0.507   5.109  0.0571 -0.3544  0.4674
  948MOL0     C27868   6.857   0.480   5.230  0.0250 -0.0584  0.7340
  948MOL0     O27869   6.714   0.479   5.193  0.7393  0.1068  0.0011
  948MOL0     C27870   6.629   0.414   5.281  0.5335  0.6911  0.3403
  948MOL0     C27871   6.653   0.384   5.412 -0.9479  0.8936 -0.0546
  948MOL0     C27872   6.558   0.322   5.483 -0.6430  1.3960 -0.0011
  948MOL0     C27873   6.593   0.280   5.625  0.0268  0.0500 -0.1747
  948MOL0     C27874   6.424   0.301   5.438 -0.4197  0.0747  0.4169
  948MOL0     C27875   6.320   0.247   5.525 -0.3514 -0.7285  0.0926
  948MOL0     O27876   6.332   0.122   5.564  0.4322  0.4640 -0.2227
  948MOL0     C27877   6.263   0.077   5.678 -0.8414 -0.3905 -0.1139
  948MOL0     C27878   6.126   0.062   5.678  1.0433 -0.3313 -0.4627
  948MOL0     C27879   6.060  -0.016   5.789  0.3934  0.0545  0.0991
  948MOL0     C27880   6.138  -0.069   5.893 -0.9100 -0.1779  0.2876
  948MOL0     O27881   6.090  -0.133   6.001 -0.1443  0.2432  0.2658
  948MOL0     C27882   5.976  -0.214   5.979 -0.1741  0.1879  0.2001
  948MOL0     C27883   5.988  -0.348   6.064  0.8926  0.3410  0.1754
  948MOL0     C27884   5.860  -0.430   6.043  0.1316 -0.4556 -0.0804
  948MOL0     C27885   5.889  -0.577   6.093 -0.2635 -0.5650  0.5999
  948MOL0     C27886   5.775  -0.666   6.047 -0.2651 -0.3165  0.0313
  948MOL0     C27887   5.645  -0.638   6.118  0.0926 -0.5523  0.2011
  948MOL0     C27888   5.578  -0.764   6.188 -0.1487  0.6623  0.2800
  948MOL0     C27889   5.470  -0.713   6.284  0.1829 -0.3423  0.2585
  948MOL0    Cl27890   5.552  -0.610   6.410  0.0794 -0.1087 -0.2293
  948MOL0     C27891   6.276  -0.042   5.895  0.8949 -0.5513  1.2525
  948MOL0     C27892   6.340   0.037   5.789 -0.5845  0.6240 -0.0975
  948MOL0     O27893   6.222   0.319   5.543  0.4054 -0.8768  0.1606
  948MOL0     C27894   6.397   0.332   5.304 -0.1611 -0.2183  0.1160
  948MOL0     C27895   6.505   0.384   5.226 -0.0245  0.1869 -0.2900
  948MOL0     N27896   7.030   0.986   5.199 -0.7930  0.6157  0.6081
  948MOL0     N27897   7.126   1.061   5.158  0.1260 -0.8002 -0.1022
  948MOL0     C27898   8.089   1.507   4.741 -1.1784  0.4730  0.4530
  948MOL0     C27899   8.223   1.487   4.780 -0.4004 -0.7869 -0.2750
  948MOL0     C27900   8.564   1.285   5.000 -0.9317 -0.4287 -0.6659
  948MOL0     C27901   8.674   1.308   4.915  0.7253  0.0425 -0.1351
  948MOL0     C27902   8.798   1.257   4.952 -0.6282  0.3241  0.0447
  948MOL0     C27903   8.821   1.190   5.074  0.1381 -0.1954  0.7455
  948MOL0     O27904   8.950   1.169   5.125  0.2872  0.3606  0.4088
  948MOL0     C27905   9.063   1.155   5.048 -0.3740  0.1779  0.6056
  948MOL0     C27906   9.079   1.003   5.008  0.3055 -0.4328  0.0156
  948MOL0     C27907   9.205   0.988   4.920  0.1304  0.2295 -0.2531
  948MOL0     C27908   9.196   0.855   4.845 -0.5638  0.0269  0.8036
  948MOL0     C27909   9.325   0.827   4.775 -0.0703  0.8251 -0.0278
  948MOL0     C27910   9.437   0.809   4.731 -0.5391  0.3391 -0.3629
  948MOL0     C27911   8.717   1.182   5.161  0.1293  0.6335 -0.0932
  948MOL0     C27912   8.594   1.237   5.134  0.6241 -0.3237  1.4089
  948MOL0     H27913   8.254   1.151   4.762 -0.9342 -1.1965 -2.3903
  948MOL0     H27914   8.011   1.180   4.694  0.9670  0.4116 -1.1187
  948MOL0     H27915   7.810   1.554   4.764  0.8704  2.1176 -0.4897
  948MOL0     H27916   7.865   1.582   4.603  0.5457  0.4834  2.0922
  948MOL0     H27917   7.632   1.587   4.578 -0.4150  1.7706  1.3972
  948MOL0     H27918   7.656   1.428   4.529  3.5538  2.5830 -1.7419
  948MOL0     H27919   7.612   1.457   4.826  0.8648  1.8891 -0.3809
  948MOL0     H27920   7.473   1.453   4.714  0.6987  3.4437  2.6107
  948MOL0     H27921   7.545   1.256   4.615  0.8026  5.1089 -0.2997
  948MOL0     H27922   7.685   1.235   4.716 -0.6475 -1.0187  0.3217
  948MOL0     H27923   7.509   1.084   4.768  2.0496 -0.9145  3.8198
  948MOL0     H27924   7.543   1.191   4.901 -2.2479 -0.2193  1.2607
  948MOL0     H27925   7.347   1.323   4.874 -0.7738  0.0929 -2.0044
  948MOL0     H27926   7.318   1.271   4.719  0.8461 -0.5437 -0.3996
  948MOL0     H27927   7.158   1.172   4.887  0.7031  2.3227 -2.0588
  948MOL0     H27928   7.231   1.053   4.786  3.0028 -0.0271 -0.6166
  948MOL0     H27929   7.367   1.115   5.057  2.0765 -2.1017  1.1686
  948MOL0     H27930   7.373   0.972   4.954  0.2605  0.8408 -0.7302
  948MOL0     H27931   7.151   0.810   4.955 -2.9399 -0.8575  0.0345
  948MOL0     H27932   7.002   0.735   5.247  2.1529  6.0064  1.5247
  948MOL0     H27933   6.844   0.802   5.196  0.6050 -0.2378  1.1371
  948MOL0     H27934   6.949   0.679   4.973  0.4651  2.7721  0.9298
  948MOL0     H27935   6.797   0.663   5.050  0.6924 -1.1884 -1.2868
  948MOL0     H27936   7.042   0.500   5.136  1.1110  3.5870 -1.8113
  948MOL0     H27937   6.902   0.433   5.037 -1.1899 -0.2786  0.9482
  948MOL0     H27938   6.873   0.550   5.313 -0.4078 -1.0614  1.6960
  948MOL0     H27939   6.889   0.381   5.264  0.0077 -0.3260 -0.0107
  948MOL0     H27940   6.742   0.425   5.459 -2.1662  3.1018  0.4621
  948MOL0     H27941   6.510   0.274   5.697 -0.1185  1.2701 -0.2179
  948MOL0     H27942   6.638   0.180   5.618  0.1813  0.2358 -3.9783
  948MOL0     H27943   6.681   0.337   5.654  2.0735 -2.1522 -1.6959
  948MOL0     H27944   6.066   0.115   5.605  0.7578  1.2955  0.8667
  948MOL0     H27945   5.953  -0.028   5.782  0.6719 -3.4866  0.3656
  948MOL0     H27946   5.886  -0.160   6.011  0.9891  0.4587  3.3345
  948MOL0     H27947   5.975  -0.243   5.873  0.1142 -0.0494  0.2642
  948MOL0     H27948   6.084  -0.392   6.034  0.5136  0.8378 -1.9407
  948MOL0     H27949   5.992  -0.309   6.166  2.3900  1.1931 -0.1783
  948MOL0     H27950   5.840  -0.428   5.935 -2.0515  2.9348  0.2110
  948MOL0     H27951   5.774  -0.382   6.089  0.2890  1.9325 -2.0469
  948MOL0     H27952   5.980  -0.611   6.044 -1.3355 -2.1270 -0.4098
  948MOL0     H27953   5.892  -0.582   6.202 -0.2279  1.5687  0.7470
  948MOL0     H27954   5.807  -0.762   6.087  1.8650  0.8132  1.1749
  948MOL0     H27955   5.773  -0.668   5.937  1.4138  0.9124 -0.0490
  948MOL0     H27956   5.645  -0.559   6.194 -0.7530 -1.0128  0.6993
  948MOL0     H27957   5.581  -0.614   6.033  0.0618 -1.8710 -0.1675
  948MOL0     H27958   5.645  -0.835   6.239 -1.1184  1.6057  3.0821
  948MOL0     H27959   5.532  -0.826   6.111 -0.4081  0.5732  0.5058
  948MOL0     H27960   5.416  -0.802   6.318 -1.4571  1.3574  2.3376
  948MOL0     H27961   5.399  -0.648   6.232  1.4974  1.8836  1.1157
  948MOL0     H27962   6.330  -0.091   5.976  0.9296  1.6446  2.6364
  948MOL0     H27963   6.446   0.030   5.769 -0.8741  2.3070 -2.6852
  948MOL0     H27964   6.301   0.314   5.258 -0.5789 -1.2196  1.3264
  948MOL0     H27965   6.482   0.394   5.121 -2.2303  1.6844  0.2644
  948MOL0     H27966   8.065   1.612   4.727  4.3173  1.9750 -0.1948
  948MOL0     H27967   8.278   1.579   4.796 -2.6882  1.3229 -3.2379
  948MOL0     H27968   8.669   1.369   4.826  0.7972 -0.1298 -0.2569
  948MOL0     H27969   8.881   1.286   4.890 -0.9319  0.2204 -0.4115
  948MOL0     H27970   9.060   1.217   4.958 -1.4609  1.6955  1.6143
  948MOL0     H27971   9.150   1.177   5.111  0.0049 -0.6551  0.3766
  948MOL0     H27972   8.989   0.978   4.953 -1.0073  3.8028 -0.1533
  948MOL0     H27973   9.088   0.940   5.097  0.1836 -1.3760 -0.6292
  948MOL0     H27974   9.293   0.984   4.984 -0.9048  2.9894  1.4990
  948MOL0     H27975   9.202   1.067   4.844 -1.6411  0.6841  0.2338
  948MOL0     H27976   9.113   0.843   4.775  0.3590 -1.4146 -0.1106
  948MOL0     H27977   9.191   0.773   4.917  0.2648 -1.7965 -1.1100
  948MOL0     H27978   9.533   0.777   4.696  0.6621  1.7926  1.4039
  948MOL0     H27979   8.734   1.146   5.262 -1.7227  0.7739  0.2903
  948MOL0     H27980   8.511   1.218   5.201 -1.5742 -0.0830 -1.0570
  949MOL0     O27981  10.916   4.636  10.854 -0.3318  0.2926  0.1338
  949MOL0     C27982  10.962   4.720  10.776  0.0110  0.0203  0.6245
  949MOL0     O27983  10.996   4.842  10.816  0.2486  0.0327 -0.0836
  949MOL0     C27984  10.994   4.873  10.950 -1.0537 -0.5605 -0.6396
  949MOL0     C27985  10.876   4.883  11.029  0.2196 -0.5292 -0.2501
  949MOL0     C27986  10.881   4.916  11.159 -0.1516  0.7537  0.3609
  949MOL0     C27987  11.003   4.954  11.220  0.5855 -0.2230 -1.1812
  949MOL0     O27988  10.993   4.977  11.356  1.0460 -0.1416  0.0964
  949MOL0     C27989  11.116   4.985  11.426 -0.0898 -0.1955 -0.1610
  949MOL0     C27990  11.089   4.978  11.583  0.9598  0.1145 -0.1592
  949MOL0     C27991  11.028   5.098  11.641  0.4058  0.2264 -0.5418
  949MOL0     C27992  11.013   5.101  11.794  0.0741  0.2193 -0.0877
  949MOL0     C27993  10.903   5.194  11.849 -0.3277 -0.5601  0.6457
  949MOL0     C27994  10.923   5.327  11.785 -0.7984  0.6219 -0.1821
  949MOL0     C27995  10.789   5.408  11.829 -0.1999  0.3621 -0.6981
  949MOL0     C27996  10.804   5.546  11.758  0.4504  0.9742 -0.1397
  949MOL0     N27997  10.677   5.619  11.780  0.0345  0.7256  0.7130
  949MOL0     C27998  10.552   5.592  11.741 -0.4657  0.4598 -0.6929
  949MOL0     C27999  10.473   5.698  11.794 -0.6439 -0.0631 -0.1532
  949MOL0     C28000  10.321   5.707  11.796  0.8125 -0.0578  0.0147
  949MOL0     C28001  10.251   5.754  11.927  0.4122 -0.4413 -0.2741
  949MOL0     C28002  10.270   5.671  12.067 -0.3802  0.0166 -0.1202
  949MOL0     C28003  10.245   5.515  12.038  0.0408 -0.5052 -0.0374
  949MOL0     O28004  10.255   5.441  12.161  0.1461 -0.2327 -0.2684
  949MOL0     C28005  10.195   5.318  12.158 -0.0911  0.3669  0.1072
  949MOL0     C28006  10.125   5.260  12.050 -0.6943  0.3570  0.0171
  949MOL0     C28007  10.067   5.128  12.066  0.1619 -0.5148 -0.8498
  949MOL0     C28008   9.972   5.067  11.972  0.0532 -0.2884  0.1128
  949MOL0     C28009  10.085   5.054  12.191 -0.4311 -0.5102  0.0856
  949MOL0     C28010  10.036   4.913  12.224  0.0500  0.3501  0.7891
  949MOL0     O28011  10.044   4.824  12.125  0.0888  0.1166  0.1454
  949MOL0     C28012   9.991   4.698  12.150 -0.3472 -0.0685  0.2444
  949MOL0     C28013   9.865   4.655  12.110 -0.0076 -1.0833  0.3356
  949MOL0     C28014   9.821   4.527  12.136  0.4821  0.5824  0.0066
  949MOL0     C28015   9.893   4.434  12.211  0.4856 -0.4473  0.5047
  949MOL0     O28016   9.833   4.316  12.255  0.6526 -0.6427 -0.7934
  949MOL0     C28017   9.918   4.222  12.329  0.2041  0.1702 -0.0233
  949MOL0     C28018  10.009   4.149  12.229  0.2722 -0.3242 -0.7697
  949MOL0     C28019  10.103   4.035  12.300 -0.0047 -0.7556  0.8601
  949MOL0     C28020  10.231   4.003  12.222  0.7213  0.8864  0.6403
  949MOL0     C28021  10.323   3.901  12.284  0.0227  0.8005  0.0078
  949MOL0     C28022  10.264   3.754  12.303 -0.7611  0.0509 -0.5588
  949MOL0     C28023  10.239   3.717  12.444 -0.6462  0.0945 -0.2288
  949MOL0     C28024  10.163   3.584  12.468  0.5441  0.2956  0.2118
  949MOL0    Cl28025  10.268   3.441  12.411 -0.0048 -0.1249 -0.3585
  949MOL0     C28026  10.025   4.470  12.246  0.2986  0.0265 -0.6028
  949MOL0     C28027  10.077   4.596  12.216  0.6997 -0.0834  1.3049
  949MOL0     O28028   9.979   4.892  12.336 -0.6118  0.3748  0.4497
  949MOL0     C28029  10.161   5.111  12.288 -1.1215  0.4569  0.3358
  949MOL0     C28030  10.214   5.236  12.273 -0.6728 -0.7546  0.2096
  949MOL0     N28031  10.561   5.787  11.844 -0.2276  0.6039 -0.1631
  949MOL0     N28032  10.680   5.740  11.835  0.8995  0.1349 -0.2385
  949MOL0     C28033  11.115   4.948  11.141 -0.9237  0.4582 -0.5067
  949MOL0     C28034  11.113   4.908  11.012  0.5393 -0.6848  0.2241
  949MOL0     C28035  11.000   4.691  10.641 -0.7821 -0.5632 -0.8654
  949MOL0     C28036  11.012   4.794  10.543  0.2008  0.9434 -0.1741
  949MOL0     C28037  11.047   4.757  10.417 -0.2417 -0.7320  0.2286
  949MOL0     C28038  11.083   4.628  10.376  0.0267 -0.7843  0.6297
  949MOL0     O28039  11.127   4.614  10.246 -0.5593 -0.2445  0.8934
  949MOL0     C28040  11.151   4.478  10.193 -0.1130 -0.7102  0.1347
  949MOL0     C28041  11.016   4.423  10.150 -0.1224 -0.1427  0.1596
  949MOL0     C28042  10.948   4.500  10.038 -0.2994 -0.8087  0.0551
  949MOL0     C28043  11.027   4.451   9.913 -0.2715 -0.1707 -0.3658
  949MOL0     C28044  10.944   4.469   9.802 -0.2278  0.0059  0.2463
  949MOL0     C28045  10.862   4.489   9.714 -0.0861 -0.3671  0.1684
  949MOL0     C28046  11.081   4.536  10.477 -0.6513  0.3137  0.2367
  949MOL0     C28047  11.043   4.567  10.610 -0.3575  0.7401  0.2660
  949MOL0     H28048  10.778   4.854  10.993 -0.9255  0.4482  1.8869
  949MOL0     H28049  10.788   4.924  11.213  0.1400 -0.1510  1.0307
  949MOL0     H28050  11.184   4.904  11.399 -0.9564 -0.9008 -0.2620
  949MOL0     H28051  11.164   5.081  11.406 -0.2520 -0.0138  0.3103
  949MOL0     H28052  11.031   4.892  11.617  0.0479  1.1492  0.9798
  949MOL0     H28053  11.190   4.963  11.622  0.7489  1.1605  0.8222
  949MOL0     H28054  11.098   5.179  11.621  2.2692 -1.1188  0.3096
  949MOL0     H28055  10.928   5.120  11.601  1.1278  2.6373 -1.1762
  949MOL0     H28056  10.995   5.000  11.833  2.2657  0.8147  2.7890
  949MOL0     H28057  11.108   5.128  11.840 -0.6165 -1.6597  2.6771
  949MOL0     H28058  10.811   5.151  11.810  0.5059 -0.9477 -0.9641
  949MOL0     H28059  10.893   5.204  11.958 -0.6181 -0.0092  0.5727
  949MOL0     H28060  11.017   5.374  11.814 -0.4584 -0.2878  0.2096
  949MOL0     H28061  10.908   5.319  11.676 -1.0499 -1.1550 -0.0377
  949MOL0     H28062  10.699   5.359  11.793 -1.5055  0.3791  2.2723
  949MOL0     H28063  10.779   5.413  11.938  2.8684 -1.3047 -0.2029
  949MOL0     H28064  10.801   5.529  11.650 -2.1041 -2.7981  0.3558
  949MOL0     H28065  10.895   5.600  11.786 -0.7686  1.5563  3.0984
  949MOL0     H28066  10.511   5.511  11.682  0.1804  0.5136 -1.2229
  949MOL0     H28067  10.305   5.792  11.729  4.7247  0.8032 -0.0648
  949MOL0     H28068  10.273   5.617  11.756 -1.1358  1.6923 -1.8536
  949MOL0     H28069  10.145   5.758  11.902  0.1767  1.0092  0.7912
  949MOL0     H28070  10.277   5.858  11.947  0.4441 -1.0057  3.2693
  949MOL0     H28071  10.179   5.703  12.119 -0.9468 -0.1675 -0.9914
  949MOL0     H28072  10.367   5.694  12.113 -1.7924  0.9173  2.6138
  949MOL0     H28073  10.326   5.477  11.974  2.2264  1.8176  1.1338
  949MOL0     H28074  10.144   5.511  11.997 -0.7264  0.9290  1.6353
  949MOL0     H28075  10.110   5.312  11.957 -0.7728 -0.6550 -0.5490
  949MOL0     H28076  10.010   4.974  11.929 -0.0565 -0.9430  1.3919
  949MOL0     H28077   9.874   5.044  12.015 -0.4772  0.6425 -0.5570
  949MOL0     H28078   9.958   5.150  11.903 -0.9738  0.7199  1.4709
  949MOL0     H28079   9.793   4.723  12.064  0.6305  1.2188  2.4720
  949MOL0     H28080   9.727   4.489  12.099  0.4053  0.5224  0.2596
  949MOL0     H28081   9.974   4.257  12.416  3.4009 -1.2793 -1.3393
  949MOL0     H28082   9.853   4.144  12.371  0.1883 -0.0111 -0.3745
  949MOL0     H28083   9.939   4.111  12.153 -0.5919  0.0765 -0.1833
  949MOL0     H28084  10.073   4.218  12.173  1.6587 -1.2334 -0.3598
  949MOL0     H28085  10.037   3.948  12.308  2.5334 -2.8228  0.4523
  949MOL0     H28086  10.132   4.069  12.399 -0.3955  1.6161  0.2314
  949MOL0     H28087  10.203   3.968  12.122  2.1748  2.3712 -0.3292
  949MOL0     H28088  10.279   4.101  12.216 -0.8395  1.6578 -0.0001
  949MOL0     H28089  10.347   3.937  12.385  0.4766  0.3029  0.0823
  949MOL0     H28090  10.415   3.886  12.228 -0.4694  1.8333 -1.1314
  949MOL0     H28091  10.166   3.742  12.256 -1.2502 -4.5116  1.1414
  949MOL0     H28092  10.337   3.688  12.254  0.9565  1.0952  0.5259
  949MOL0     H28093  10.174   3.792  12.490  0.9656 -0.0226  2.4419
  949MOL0     H28094  10.327   3.718  12.509 -2.0616  5.4764  2.1739
  949MOL0     H28095  10.066   3.585  12.417  0.4214 -1.4104  0.3501
  949MOL0     H28096  10.132   3.581  12.573  0.0283 -0.3602  0.0482
  949MOL0     H28097  10.094   4.415  12.310  2.7104 -0.0215 -3.0125
  949MOL0     H28098  10.177   4.628  12.244  1.0297 -0.4792  0.6022
  949MOL0     H28099  10.191   5.057  12.377 -4.7826 -2.7674 -0.1004
  949MOL0     H28100  10.267   5.278  12.358 -1.5888  3.1677 -0.9275
  949MOL0     H28101  11.211   4.976  11.183 -1.0266 -0.1879  0.1833
  949MOL0     H28102  11.207   4.910  10.958  1.7992 -2.1616  2.2248
  949MOL0     H28103  10.976   4.894  10.565 -1.8609 -0.2642  2.4892
  949MOL0     H28104  11.043   4.836  10.342  2.0520 -1.8319 -1.1623
  949MOL0     H28105  11.231   4.487  10.118  1.9352  0.4292  2.3327
  949MOL0     H28106  11.187   4.412  10.272 -2.3024  0.4395  2.1972
  949MOL0     H28107  10.940   4.421  10.229 -0.3953 -0.9600 -0.1203
  949MOL0     H28108  11.033   4.319  10.121  1.7663  0.1470  0.0834
  949MOL0     H28109  10.940   4.606  10.064  1.2080 -1.2016  2.4222
  949MOL0     H28110  10.842   4.478  10.027 -0.3744 -0.8661  0.8477
  949MOL0     H28111  11.049   4.344   9.915 -2.2961 -0.6304 -0.8013
  949MOL0     H28112  11.126   4.494   9.896  0.2114 -0.7640  0.8455
  949MOL0     H28113  10.796   4.507   9.632 -0.2155  2.2576  0.7719
  949MOL0     H28114  11.094   4.434  10.444 -1.4632 -0.2743  1.6644
  949MOL0     H28115  11.046   4.480  10.675 -1.3907 -0.5328 -1.3309
  950MOL0     O28116   6.075   0.119   5.230 -0.0048  0.1494  1.0080
  950MOL0     C28117   6.120   0.007   5.255 -0.1044 -0.3169  0.5565
  950MOL0     O28118   6.226  -0.052   5.199 -0.5397 -0.5612  0.4973
  950MOL0     C28119   6.299   0.018   5.112  0.7947 -0.1269 -0.4188
  950MOL0     C28120   6.424   0.040   5.155 -0.2753 -0.2625 -0.8138
  950MOL0     C28121   6.515   0.104   5.079 -0.6010 -0.5015 -0.6972
  950MOL0     C28122   6.472   0.165   4.962 -0.5061 -0.1542 -0.0735
  950MOL0     O28123   6.559   0.229   4.873  0.5212 -0.0733  0.1660
  950MOL0     C28124   6.702   0.249   4.897 -0.2292 -0.1241  0.3790
  950MOL0     C28125   6.773   0.120   4.847 -0.0402  0.1191 -0.1125
  950MOL0     C28126   6.915   0.100   4.902  0.2788  0.6613  0.4142
  950MOL0     C28127   7.023   0.165   4.808  0.1212  0.9053 -0.1085
  950MOL0     C28128   7.153   0.197   4.883  1.1917 -0.8244 -0.3729
  950MOL0     C28129   7.241   0.285   4.795 -0.6875 -0.4618  0.0082
  950MOL0     C28130   7.376   0.312   4.877  0.7792 -0.2087  0.6277
  950MOL0     C28131   7.478   0.388   4.776  0.5829 -0.1007  0.3305
  950MOL0     N28132   7.578   0.454   4.858 -0.0152 -0.2642  0.1371
  950MOL0     C28133   7.544   0.522   4.968 -1.0662 -0.3096 -0.0378
  950MOL0     C28134   7.659   0.588   5.003 -0.4115 -0.1031  0.4899
  950MOL0     C28135   7.678   0.686   5.115  0.3721 -0.1767  0.1482
  950MOL0     C28136   7.611   0.817   5.095 -0.9643  0.0596 -0.2142
  950MOL0     C28137   7.555   0.874   5.225 -0.1366 -0.5287  0.1434
  950MOL0     C28138   7.431   0.796   5.283 -0.0811 -0.5563 -0.0460
  950MOL0     O28139   7.361   0.870   5.379  0.4133  0.0335  0.1737
  950MOL0     C28140   7.250   0.821   5.444 -1.0485  0.8861  0.9398
  950MOL0     C28141   7.157   0.908   5.495  0.2731  0.0012  0.6307
  950MOL0     C28142   7.039   0.865   5.567  1.0090  0.0066 -0.2164
  950MOL0     C28143   6.931   0.969   5.589 -0.5494 -0.2684 -0.2199
  950MOL0     C28144   7.018   0.725   5.588 -0.1927 -0.5421  0.8080
  950MOL0     C28145   6.893   0.666   5.639 -1.3876 -0.9998 -1.2597
  950MOL0     O28146   6.806   0.752   5.704 -0.4540  0.0285 -0.5251
  950MOL0     C28147   6.693   0.697   5.751  0.0470  0.2447  0.3221
  950MOL0     C28148   6.595   0.650   5.675 -0.0152  0.2804 -0.2179
  950MOL0     C28149   6.476   0.594   5.738 -0.0382 -0.4946 -0.3258
  950MOL0     C28150   6.460   0.607   5.878  0.0723 -0.3364  0.2667
  950MOL0     O28151   6.348   0.566   5.944 -0.5822  0.7595 -0.3454
  950MOL0     C28152   6.243   0.502   5.873 -0.1855  0.0693 -0.4367
  950MOL0     C28153   6.175   0.436   5.991 -0.4340 -0.6634 -0.2238
  950MOL0     C28154   6.054   0.352   5.939  0.1727 -0.4282  0.1729
  950MOL0     C28155   5.955   0.303   6.045 -0.3704 -0.2729  0.0830
  950MOL0     C28156   5.846   0.207   6.003 -0.0320  0.1462  0.7238
  950MOL0     C28157   5.778   0.125   6.109 -0.1621 -0.6801  0.2509
  950MOL0     C28158   5.698   0.215   6.215 -0.2737  0.5712  0.2442
  950MOL0     C28159   5.631   0.135   6.326 -0.1612  0.6259 -0.1944
  950MOL0    Cl28160   5.500   0.214   6.419  0.2873 -0.0637  0.0329
  950MOL0     C28161   6.562   0.668   5.954 -0.1225 -0.5582  0.0066
  950MOL0     C28162   6.687   0.700   5.896  0.0044 -0.1103  0.2946
  950MOL0     O28163   6.877   0.545   5.624  0.0893 -0.6914  0.0565
  950MOL0     C28164   7.115   0.642   5.531  1.0075  0.4121  0.6926
  950MOL0     C28165   7.223   0.680   5.452 -0.0369 -0.1595  0.1463
  950MOL0     N28166   7.758   0.577   4.905  0.3961 -0.0884 -0.8844
  950MOL0     N28167   7.701   0.500   4.815  0.6090  0.0871  0.5540
  950MOL0     C28168   6.340   0.159   4.919 -0.0607  0.0521  0.3379
  950MOL0     C28169   6.255   0.074   4.996  0.2256  0.3477 -0.8543
  950MOL0     C28170   6.049  -0.072   5.348 -0.7809 -0.1977  0.1790
  950MOL0     C28171   5.924  -0.031   5.411 -0.1115 -0.0948 -0.0338
  950MOL0     C28172   5.853  -0.112   5.502 -0.2327 -0.7480  0.0105
  950MOL0     C28173   5.910  -0.239   5.537  1.3543 -0.0937  0.1092
  950MOL0     O28174   5.851  -0.351   5.599  0.0393 -0.5218 -0.3426
  950MOL0     C28175   5.726  -0.321   5.663 -0.5425 -0.5833  0.7123
  950MOL0     C28176   5.620  -0.394   5.582 -0.3366  0.3273  0.0614
  950MOL0     C28177   5.598  -0.537   5.627 -0.7411 -0.0050  0.1015
  950MOL0     C28178   5.469  -0.580   5.562 -0.3197  0.9985 -0.0920
  950MOL0     C28179   5.413  -0.684   5.650 -0.7665  0.2933 -0.7383
  950MOL0     C28180   5.371  -0.780   5.707  0.5989  0.6979  0.7267
  950MOL0     C28181   6.036  -0.274   5.483 -0.9858  0.5478 -0.6149
  950MOL0     C28182   6.105  -0.190   5.395  1.5586  0.3333  0.2184
  950MOL0     H28183   6.465  -0.006   5.245  0.2487 -1.0804 -1.4475
  950MOL0     H28184   6.616   0.120   5.115  0.4345  0.0093 -3.5639
  950MOL0     H28185   6.743   0.331   4.837 -1.6342  0.0214 -0.4172
  950MOL0     H28186   6.718   0.269   5.004  2.0109  1.7348 -0.2234
  950MOL0     H28187   6.710   0.032   4.864 -0.4371  0.3486 -0.3640
  950MOL0     H28188   6.789   0.129   4.739  1.8294  0.9741  0.1946
  950MOL0     H28189   6.918   0.145   5.002 -1.6253 -0.9130  1.2488
  950MOL0     H28190   6.940  -0.003   4.930 -1.8841  0.4676  1.8430
  950MOL0     H28191   7.043   0.115   4.713 -0.5754  2.2113 -0.9737
  950MOL0     H28192   6.982   0.263   4.781  0.9131  1.0425 -0.8644
  950MOL0     H28193   7.142   0.267   4.966  0.9094 -3.0732  1.5784
  950MOL0     H28194   7.191   0.103   4.922 -1.6285 -2.3543 -1.0509
  950MOL0     H28195   7.253   0.229   4.702  0.0766 -2.1750  1.0994
  950MOL0     H28196   7.188   0.375   4.763  0.9788  0.5099 -0.1790
  950MOL0     H28197   7.359   0.371   4.967  2.7232 -2.2201  2.4226
  950MOL0     H28198   7.421   0.220   4.914  2.3992  1.0957  2.0531
  950MOL0     H28199   7.418   0.467   4.729  1.7875  1.0527  0.6830
  950MOL0     H28200   7.509   0.309   4.708 -3.4373 -2.4799  0.9544
  950MOL0     H28201   7.448   0.543   5.013 -2.0358 -0.1742 -2.0551
  950MOL0     H28202   7.642   0.640   5.208  0.3512  2.4990  1.5674
  950MOL0     H28203   7.786   0.695   5.132  0.2582  0.6612  0.5066
  950MOL0     H28204   7.526   0.815   5.027 -1.0242 -0.0861 -0.1375
  950MOL0     H28205   7.682   0.881   5.042 -0.1824 -2.5174 -2.4739
  950MOL0     H28206   7.497   0.962   5.196 -0.7717 -0.4072  1.6453
  950MOL0     H28207   7.636   0.897   5.295  2.7060 -0.3004 -2.9867
  950MOL0     H28208   7.473   0.706   5.328 -1.1712 -2.8044 -3.1702
  950MOL0     H28209   7.370   0.760   5.200  0.8823  0.5354 -1.2791
  950MOL0     H28210   7.166   1.015   5.482 -0.4610 -0.1385 -1.5699
  950MOL0     H28211   6.960   1.068   5.552  3.1429 -1.5187 -1.0273
  950MOL0     H28212   6.843   0.946   5.528 -0.5701  1.5470 -0.9198
  950MOL0     H28213   6.915   0.982   5.697 -0.3152  1.3445 -0.3580
  950MOL0     H28214   6.601   0.634   5.568  1.0713  1.1246 -0.2928
  950MOL0     H28215   6.403   0.544   5.675 -1.3388 -0.9964  1.4822
  950MOL0     H28216   6.177   0.568   5.817 -0.2537 -0.6949 -1.2798
  950MOL0     H28217   6.265   0.423   5.800 -1.6277  0.1102 -0.9456
  950MOL0     H28218   6.242   0.373   6.049 -0.5297 -0.2570  0.3387
  950MOL0     H28219   6.145   0.521   6.054  1.1720  0.6622 -1.1595
  950MOL0     H28220   6.094   0.276   5.871 -1.5513  0.3205 -1.8127
  950MOL0     H28221   5.996   0.418   5.874  1.1492  0.7829  0.4852
  950MOL0     H28222   6.018   0.258   6.122  0.6155 -1.0961 -1.1614
  950MOL0     H28223   5.913   0.393   6.092 -2.4386 -0.5251 -1.1470
  950MOL0     H28224   5.892   0.141   5.929 -3.3931 -0.7408 -0.7580
  950MOL0     H28225   5.771   0.261   5.944  0.1773  0.8092  1.0617
  950MOL0     H28226   5.706   0.063   6.055  0.2576 -1.5900  0.7095
  950MOL0     H28227   5.844   0.063   6.171 -1.1403 -2.4468 -0.4080
  950MOL0     H28228   5.615   0.270   6.168 -1.0158  2.5921  3.5632
  950MOL0     H28229   5.775   0.280   6.258  1.3537 -0.0203 -1.6184
  950MOL0     H28230   5.716   0.097   6.383  2.1335 -0.2607 -3.8937
  950MOL0     H28231   5.583   0.044   6.289  0.8928 -1.0322  2.2939
  950MOL0     H28232   6.553   0.681   6.062  0.1079  0.1287 -0.0555
  950MOL0     H28233   6.763   0.736   5.965  1.3107 -0.1883 -1.0407
  950MOL0     H28234   7.094   0.536   5.536 -2.0621  0.8945 -0.2109
  950MOL0     H28235   7.277   0.608   5.391 -2.0534  0.4421 -2.5597
  950MOL0     H28236   6.312   0.218   4.832  2.4680 -2.1145 -2.1030
  950MOL0     H28237   6.152   0.056   4.969 -0.2251  2.1205 -0.4567
  950MOL0     H28238   5.888   0.069   5.391  0.9734  0.7029  1.7020
  950MOL0     H28239   5.752  -0.081   5.526 -0.1060  1.3521 -1.8726
  950MOL0     H28240   5.733  -0.350   5.768 -2.9231  1.7762  1.6336
  950MOL0     H28241   5.706  -0.214   5.675  5.8076  1.1048 -0.0156
  950MOL0     H28242   5.633  -0.383   5.474  1.0407  0.7050  0.2502
  950MOL0     H28243   5.531  -0.335   5.609 -0.0143  0.6026  0.5220
  950MOL0     H28244   5.582  -0.534   5.735  0.3585  1.5462  0.2540
  950MOL0     H28245   5.688  -0.596   5.611  0.9545  2.3413  0.4048
  950MOL0     H28246   5.479  -0.617   5.460 -0.9434  1.2598 -0.2544
  950MOL0     H28247   5.408  -0.489   5.552  0.2077  1.6001  1.7584
  950MOL0     H28248   5.334  -0.874   5.743 -1.4785  1.6247  1.1876
  950MOL0     H28249   6.074  -0.368   5.523 -0.1029  1.2277  0.1754
  950MOL0     H28250   6.200  -0.227   5.358  2.6395  2.4516  0.7346
  951MOL0     O28251   6.518   7.082   7.781  0.1501  0.0849 -0.3007
  951MOL0     C28252   6.597   7.150   7.851 -0.5998  0.0751  0.0948
  951MOL0     O28253   6.564   7.251   7.936  0.4218  0.5094 -0.6186
  951MOL0     C28254   6.426   7.280   7.962  0.4524 -0.4577  2.1684
  951MOL0     C28255   6.384   7.274   8.095 -1.2804 -0.1856  0.0606
  951MOL0     C28256   6.256   7.322   8.142  0.1491  0.7040 -0.0135
  951MOL0     C28257   6.168   7.355   8.041  0.5849  0.3971  0.6272
  951MOL0     O28258   6.040   7.393   8.082 -0.2731 -0.6225 -0.7515
  951MOL0     C28259   5.930   7.399   7.990  0.1185 -0.1177  0.1101
  951MOL0     C28260   5.797   7.422   8.070  0.5129  0.1410 -0.7224
  951MOL0     C28261   5.753   7.292   8.145 -0.4106  0.0476  0.0267
  951MOL0     C28262   5.854   7.242   8.251  0.0900 -0.0063 -0.3217
  951MOL0     C28263   5.800   7.127   8.338 -0.6273 -0.9498 -1.3600
  951MOL0     C28264   5.704   7.179   8.453  0.4202  0.0094 -0.8978
  951MOL0     C28265   5.674   7.061   8.545  0.5936  1.5136  0.6266
  951MOL0     C28266   5.574   6.947   8.512  0.4982 -0.2269  0.4057
  951MOL0     N28267   5.436   7.000   8.508 -0.3349 -0.2843 -0.0246
  951MOL0     C28268   5.351   7.000   8.397  0.5522  0.6103  0.5681
  951MOL0     C28269   5.229   7.024   8.456  0.6629 -0.1961  0.3770
  951MOL0     C28270   5.089   7.013   8.391 -0.4588  1.1412  0.4701
  951MOL0     C28271   5.032   7.145   8.360 -0.1567 -0.9065  0.3865
  951MOL0     C28272   5.058   7.191   8.211 -0.5198 -0.3086 -1.0493
  951MOL0     C28273   4.962   7.298   8.168 -0.8746  0.2648 -0.2220
  951MOL0     O28274   4.959   7.420   8.259 -0.3528 -0.4384  0.4605
  951MOL0     C28275   4.906   7.538   8.205  0.2725 -0.3430  0.2418
  951MOL0     C28276   4.798   7.550   8.125  0.7453  1.3639 -0.0279
  951MOL0     C28277   4.762   7.668   8.054  0.3968  0.3021  1.0044
  951MOL0     C28278   4.658   7.661   7.940  0.0483 -0.2653  0.3180
  951MOL0     C28279   4.832   7.787   8.075  0.4221 -0.0725  0.2148
  951MOL0     C28280   4.812   7.919   8.011 -0.2674  0.5868  0.2942
  951MOL0     O28281   4.920   8.001   8.009  0.3392  0.1976 -0.1980
  951MOL0     C28282   4.887   8.134   8.035 -0.0317  0.5988 -0.5298
  951MOL0     C28283   4.911   8.231   7.939 -0.3340 -0.6196 -0.5611
  951MOL0     C28284   4.870   8.362   7.969  0.6710  0.0570  0.5290
  951MOL0     C28285   4.805   8.396   8.093  0.2903  0.0085  0.3956
  951MOL0     O28286   4.777   8.519   8.131  0.1786  0.1972 -0.0387
  951MOL0     C28287   4.853   8.633   8.083 -0.2706 -0.3724  0.0440
  951MOL0     C28288   4.807   8.750   8.169 -0.2343 -0.3851 -0.1455
  951MOL0     C28289   4.817   8.739   8.321  0.1049 -0.5635  0.2566
  951MOL0     C28290   4.954   8.721   8.374  1.0400  0.1242 -0.4263
  951MOL0     C28291   4.956   8.646   8.506 -0.7825 -0.2781  0.3999
  951MOL0     C28292   5.096   8.627   8.565  0.0934  0.6407 -0.3034
  951MOL0     C28293   5.074   8.541   8.687 -0.1288  0.2000 -0.2695
  951MOL0     C28294   5.190   8.559   8.780  0.4255 -0.7278  0.1414
  951MOL0    Cl28295   5.339   8.570   8.689 -0.1135  0.0440 -0.2721
  951MOL0     C28296   4.777   8.298   8.183 -0.3553 -1.2411  0.0315
  951MOL0     C28297   4.820   8.169   8.151  0.2447  0.7014  0.2631
  951MOL0     O28298   4.706   7.940   7.954  0.3598 -0.3982  0.5184
  951MOL0     C28299   4.940   7.777   8.170 -0.3789  0.4969  0.4287
  951MOL0     C28300   4.980   7.654   8.226 -0.0887  0.5685 -0.2305
  951MOL0     N28301   5.244   7.054   8.584 -0.0293 -0.0143  0.1788
  951MOL0     N28302   5.368   7.051   8.615  0.1182  0.6387  0.2528
  951MOL0     C28303   6.215   7.359   7.907  0.3710 -0.2247  0.7306
  951MOL0     C28304   6.333   7.319   7.864  0.5119 -0.6762 -0.3237
  951MOL0     C28305   6.743   7.118   7.843  0.0527 -0.0733  1.0474
  951MOL0     C28306   6.841   7.181   7.923 -0.3754 -0.3064 -0.0921
  951MOL0     C28307   6.978   7.153   7.917  0.3209 -0.8591 -1.0452
  951MOL0     C28308   7.020   7.066   7.817  0.4382  1.4847 -0.1138
  951MOL0     O28309   7.149   7.026   7.789  0.0026 -0.7978 -0.4128
  951MOL0     C28310   7.254   7.095   7.871 -0.2934 -0.2496  0.0626
  951MOL0     C28311   7.295   7.210   7.794 -1.1584  0.2474 -0.1849
  951MOL0     C28312   7.425   7.286   7.856 -0.2187 -0.1175  0.4696
  951MOL0     C28313   7.483   7.378   7.748 -0.6069 -0.3379 -0.8681
  951MOL0     C28314   7.584   7.470   7.789 -1.1566  0.3419  0.9611
  951MOL0     C28315   7.653   7.559   7.839  0.2481  0.1068 -0.7649
  951MOL0     C28316   6.925   6.988   7.741 -0.2381  0.2850 -0.7208
  951MOL0     C28317   6.790   7.005   7.762 -0.1488 -0.6970  0.4391
  951MOL0     H28318   6.460   7.244   8.167 -0.5188  0.6240 -0.3953
  951MOL0     H28319   6.226   7.313   8.247 -2.2115 -1.2842 -0.7455
  951MOL0     H28320   5.947   7.470   7.908  0.2842  0.3945  0.5818
  951MOL0     H28321   5.919   7.302   7.940  2.7391  0.5453 -2.0227
  951MOL0     H28322   5.806   7.495   8.151  2.3194  2.5820 -2.9560
  951MOL0     H28323   5.712   7.449   8.008 -1.2222 -1.3397  0.8804
  951MOL0     H28324   5.660   7.305   8.200 -0.6553  0.9856 -0.5856
  951MOL0     H28325   5.741   7.204   8.081 -0.3050 -1.3088  1.7914
  951MOL0     H28326   5.945   7.207   8.200 -0.6736 -2.2178 -0.2895
  951MOL0     H28327   5.890   7.323   8.314 -1.0987 -0.1866  0.6368
  951MOL0     H28328   5.747   7.050   8.281 -1.8122 -1.6778  0.6088
  951MOL0     H28329   5.888   7.075   8.377 -0.4851 -0.0254 -0.3971
  951MOL0     H28330   5.756   7.257   8.510  3.5464 -1.0153 -2.1562
  951MOL0     H28331   5.615   7.222   8.406 -1.0977 -1.7963  0.1420
  951MOL0     H28332   5.769   7.012   8.568  0.1406  1.0155  1.5193
  951MOL0     H28333   5.654   7.083   8.651 -2.4129  1.1420  0.2502
  951MOL0     H28334   5.582   6.866   8.586  1.7174  0.2757  0.8503
  951MOL0     H28335   5.587   6.898   8.415  0.3098 -1.5599  1.0328
  951MOL0     H28336   5.377   6.970   8.296 -1.1514 -1.5561  0.6938
  951MOL0     H28337   5.092   6.959   8.296 -1.1281  0.2741  0.9238
  951MOL0     H28338   5.021   6.963   8.462 -0.4873 -0.4790 -0.6458
  951MOL0     H28339   5.067   7.211   8.440 -0.1662 -1.7152  1.0792
  951MOL0     H28340   4.924   7.142   8.377 -0.3024 -0.2383 -0.3737
  951MOL0     H28341   5.052   7.099   8.151 -2.5151 -1.6471  1.0196
  951MOL0     H28342   5.161   7.225   8.204  0.1225 -2.0805 -0.7880
  951MOL0     H28343   4.861   7.257   8.153 -1.2805  1.7701 -2.1755
  951MOL0     H28344   4.997   7.337   8.071  0.8249  2.0282  1.0285
  951MOL0     H28345   4.743   7.459   8.100 -2.6268  3.0828  0.5714
  951MOL0     H28346   4.634   7.556   7.920 -1.7389  0.2006 -0.1747
  951MOL0     H28347   4.563   7.711   7.958  0.3012 -0.6859  3.1480
  951MOL0     H28348   4.699   7.699   7.846 -0.1441 -3.2091 -1.0751
  951MOL0     H28349   4.970   8.203   7.852 -1.8136 -2.1162 -1.1263
  951MOL0     H28350   4.897   8.443   7.903  1.0405  0.5757  1.3009
  951MOL0     H28351   4.961   8.616   8.089  0.0830  1.5608 -0.3467
  951MOL0     H28352   4.821   8.648   7.980  0.7375 -1.6080 -0.4912
  951MOL0     H28353   4.864   8.836   8.133 -4.4294  0.8968 -4.7321
  951MOL0     H28354   4.703   8.774   8.148 -1.9500 -4.6141  2.1583
  951MOL0     H28355   4.747   8.664   8.357 -3.4085  2.0083 -0.6687
  951MOL0     H28356   4.776   8.836   8.351  0.3114 -0.0437 -1.0802
  951MOL0     H28357   5.019   8.679   8.297  3.4714  1.3989  0.7999
  951MOL0     H28358   4.984   8.823   8.402 -1.3907  0.8853 -0.4107
  951MOL0     H28359   4.922   8.542   8.494 -1.3382 -0.4811  3.0998
  951MOL0     H28360   4.892   8.692   8.582  1.0794  0.7469  1.4202
  951MOL0     H28361   5.161   8.571   8.498 -0.0695 -0.4660  0.4431
  951MOL0     H28362   5.134   8.729   8.580 -1.0822  1.1700 -0.7880
  951MOL0     H28363   5.079   8.435   8.663 -0.2025  0.3470 -0.9781
  951MOL0     H28364   4.983   8.571   8.740  0.0312  1.1714 -0.5264
  951MOL0     H28365   5.196   8.484   8.859 -0.1492  0.1398  1.0256
  951MOL0     H28366   5.171   8.653   8.832 -1.4331 -0.6060 -0.6852
  951MOL0     H28367   4.731   8.323   8.278 -2.5064  2.6157 -1.7706
  951MOL0     H28368   4.803   8.082   8.214 -0.8701  0.5081 -0.2683
  951MOL0     H28369   4.994   7.867   8.198  0.4903 -0.5266  2.1811
  951MOL0     H28370   5.060   7.663   8.298 -0.9613  1.2381  0.6921
  951MOL0     H28371   6.148   7.387   7.826  0.5712  1.6738  1.1667
  951MOL0     H28372   6.358   7.319   7.758 -1.7104 -2.7320 -0.9442
  951MOL0     H28373   6.811   7.256   7.996 -0.5167 -0.7465  0.3084
  951MOL0     H28374   7.050   7.207   7.978  2.0270 -1.2731 -2.5823
  951MOL0     H28375   7.222   7.121   7.973  2.8812  0.5637  0.9661
  951MOL0     H28376   7.342   7.034   7.892  0.9295  1.8629  1.4047
  951MOL0     H28377   7.214   7.283   7.788  0.7484  2.9697  3.2261
  951MOL0     H28378   7.320   7.175   7.694  0.0725 -2.3794  0.9468
  951MOL0     H28379   7.490   7.204   7.890  0.3543  0.1364  0.0012
  951MOL0     H28380   7.403   7.340   7.948 -0.4995 -0.0749  0.3776
  951MOL0     H28381   7.403   7.437   7.701  0.6665  0.0782 -2.6317
  951MOL0     H28382   7.533   7.329   7.664  1.9521  3.7725 -2.0162
  951MOL0     H28383   7.696   7.637   7.897  1.9341 -2.2024  1.3062
  951MOL0     H28384   6.962   6.909   7.677  0.7531 -0.8228  1.1369
  951MOL0     H28385   6.718   6.941   7.710 -0.7838  0.3542 -0.0072
  952MOL0     O28386   6.741   9.610   2.128  0.2784  0.0144  1.6907
  952MOL0     C28387   6.696   9.726   2.115 -0.4581  0.3802  0.4150
  952MOL0     O28388   6.580   9.776   2.170  0.3259 -0.3435  0.5124
  952MOL0     C28389   6.513   9.686   2.247  1.3894  0.4387  1.0005
  952MOL0     C28390   6.547   9.685   2.387  0.6280 -0.0040 -0.6619
  952MOL0     C28391   6.485   9.591   2.471  0.5803  0.7315 -0.7116
  952MOL0     C28392   6.390   9.502   2.407 -0.1561 -0.2988 -0.7222
  952MOL0     O28393   6.341   9.410   2.494 -0.0010  0.2441  0.1274
  952MOL0     C28394   6.243   9.316   2.450 -0.3739  0.8656 -0.0115
  952MOL0     C28395   6.220   9.203   2.546  0.1570 -0.2644 -0.6646
  952MOL0     C28396   6.121   9.107   2.501 -0.3947  0.4350  0.9442
  952MOL0     C28397   6.085   9.016   2.614  0.7557  0.5408 -0.6062
  952MOL0     C28398   5.973   8.933   2.576 -0.9867  0.7981 -0.2000
  952MOL0     C28399   5.900   8.863   2.695  0.6318  0.1547 -0.8398
  952MOL0     C28400   5.771   8.794   2.638  0.5092  0.1794  0.6793
  952MOL0     C28401   5.666   8.781   2.734 -0.0275 -0.5546 -0.6636
  952MOL0     N28402   5.547   8.724   2.685  0.6695  0.2805  0.4005
  952MOL0     C28403   5.497   8.774   2.565 -0.6570  0.4430  0.6124
  952MOL0     C28404   5.382   8.706   2.542 -0.6483  0.8422 -0.2788
  952MOL0     C28405   5.283   8.742   2.446 -0.2354  1.5237  0.2620
  952MOL0     C28406   5.230   8.598   2.399 -0.4439 -0.4752  0.1620
  952MOL0     C28407   5.133   8.621   2.283  0.1811  0.0171  0.3240
  952MOL0     C28408   5.125   8.501   2.188 -0.4587 -0.6775 -0.6917
  952MOL0     O28409   5.031   8.532   2.091 -0.3501  0.3774 -0.3789
  952MOL0     C28410   4.944   8.436   2.061  0.1082 -0.3358  0.6417
  952MOL0     C28411   4.984   8.353   1.956  0.0301 -0.7912  0.0443
  952MOL0     C28412   4.905   8.265   1.897 -0.1942 -0.0128  0.1224
  952MOL0     C28413   4.956   8.181   1.775  0.4321  0.0056 -0.1190
  952MOL0     C28414   4.779   8.242   1.957  1.7555  0.5658 -0.4023
  952MOL0     C28415   4.690   8.133   1.916 -0.4837 -0.0800  0.0237
  952MOL0     O28416   4.561   8.167   1.891 -0.6571  0.1358  0.6353
  952MOL0     C28417   4.464   8.080   1.852  0.0506 -0.7871  0.3188
  952MOL0     C28418   4.407   8.075   1.720  0.7994  0.7333  0.4742
  952MOL0     C28419   4.309   7.979   1.690  0.3299  0.8000  1.3430
  952MOL0     C28420   4.249   7.894   1.791 -0.0591 -0.5887  0.3104
  952MOL0     O28421   4.148   7.811   1.759 -0.5587 -0.5167  0.5169
  952MOL0     C28422   4.070   7.748   1.859 -0.0165  0.6862  0.5924
  952MOL0     C28423   3.963   7.666   1.775 -0.2354  0.1283 -0.4132
  952MOL0     C28424   3.886   7.760   1.673 -0.8693 -0.1979  0.2946
  952MOL0     C28425   3.762   7.807   1.742  0.1357  0.0295 -0.0648
  952MOL0     C28426   3.679   7.899   1.659 -0.9248 -0.2446 -0.4733
  952MOL0     C28427   3.623   7.830   1.534 -0.1409  0.5564 -0.3242
  952MOL0     C28428   3.535   7.927   1.446 -0.1379 -0.1598 -0.8559
  952MOL0     C28429   3.467   7.848   1.332 -0.0637  0.2532  0.0282
  952MOL0    Cl28430   3.349   7.729   1.389 -0.2797  0.4695 -0.4523
  952MOL0     C28431   4.299   7.907   1.924  0.2188 -0.0236 -0.1109
  952MOL0     C28432   4.403   7.998   1.952 -0.1489 -0.3972 -0.4041
  952MOL0     O28433   4.737   8.019   1.907 -0.5538  0.9986  0.0623
  952MOL0     C28434   4.733   8.315   2.068 -0.5701  0.4065  0.4419
  952MOL0     C28435   4.817   8.419   2.120  1.1079  0.2306  0.3160
  952MOL0     N28436   5.371   8.621   2.649  0.2970 -0.0731 -0.4819
  952MOL0     N28437   5.464   8.633   2.736  0.5248 -0.0862  0.0216
  952MOL0     C28438   6.350   9.518   2.273  0.0443  0.5539  0.3127
  952MOL0     C28439   6.416   9.607   2.188  0.1320 -0.4383 -0.0430
  952MOL0     C28440   6.778   9.814   2.024  0.0988 -0.6848  0.1441
  952MOL0     C28441   6.905   9.789   1.989  0.3737  1.3205  0.0080
  952MOL0     C28442   6.963   9.864   1.889 -0.5737  0.4001  0.5681
  952MOL0     C28443   6.905   9.987   1.841  0.7166  0.6088 -0.8769
  952MOL0     O28444   6.967  10.056   1.742  0.6157 -0.2869 -0.1065
  952MOL0     C28445   6.950  10.193   1.704 -0.9254 -0.4942 -0.4874
  952MOL0     C28446   7.086  10.260   1.654  0.2186  0.0434 -0.1696
  952MOL0     C28447   7.066  10.395   1.585  0.7700  0.0156 -0.9327
  952MOL0     C28448   7.204  10.447   1.567 -0.1411  0.9705 -0.0933
  952MOL0     C28449   7.289  10.378   1.471  0.1969 -0.5513  0.6026
  952MOL0     C28450   7.335  10.336   1.368  0.2307  0.2784 -0.3089
  952MOL0     C28451   6.786  10.028   1.897 -0.1139 -0.4617  0.9280
  952MOL0     C28452   6.720   9.935   1.983 -0.0315 -1.3632  0.3054
  952MOL0     H28453   6.627   9.753   2.416  1.9098 -1.5604 -0.3907
  952MOL0     H28454   6.520   9.570   2.572 -0.4846 -3.4797 -1.0315
  952MOL0     H28455   6.152   9.372   2.426 -0.0047  1.4156 -0.1537
  952MOL0     H28456   6.274   9.267   2.357  2.0850  1.8121  0.2444
  952MOL0     H28457   6.317   9.151   2.551  0.4666  0.4336  1.4124
  952MOL0     H28458   6.192   9.239   2.645 -0.0540 -1.1556 -0.3878
  952MOL0     H28459   6.026   9.149   2.469 -0.6668 -1.6815 -1.3129
  952MOL0     H28460   6.164   9.058   2.413 -1.9388  0.8521 -0.0802
  952MOL0     H28461   6.172   8.961   2.652 -0.6220  0.5196  2.9923
  952MOL0     H28462   6.042   9.072   2.698 -0.5705  1.6208 -1.9408
  952MOL0     H28463   5.905   9.001   2.523 -0.3388  0.8102 -1.0367
  952MOL0     H28464   6.015   8.855   2.512  0.9329 -0.1500  2.0522
  952MOL0     H28465   5.961   8.793   2.752 -0.4764  0.4900  0.8366
  952MOL0     H28466   5.868   8.931   2.775 -0.2779  0.8782 -1.7991
  952MOL0     H28467   5.736   8.861   2.559 -3.4204 -1.7828  0.5259
  952MOL0     H28468   5.804   8.703   2.587 -0.5838  1.0084 -1.6346
  952MOL0     H28469   5.642   8.876   2.782 -0.8876 -0.8808 -0.4341
  952MOL0     H28470   5.703   8.715   2.814 -0.1263  1.6823  1.3479
  952MOL0     H28471   5.541   8.851   2.501  2.5265 -1.6405  0.0538
  952MOL0     H28472   5.206   8.790   2.505  0.4493  1.4014  1.2783
  952MOL0     H28473   5.321   8.813   2.372  1.2451  1.7079  1.1447
  952MOL0     H28474   5.174   8.558   2.484 -1.1712  2.0810  0.9813
  952MOL0     H28475   5.307   8.530   2.361  0.5915  1.8246 -2.1975
  952MOL0     H28476   5.162   8.713   2.231  1.6437  1.1499  2.9599
  952MOL0     H28477   5.035   8.638   2.327  0.3628  2.8840 -0.1702
  952MOL0     H28478   5.103   8.409   2.242  0.9786 -1.4628 -1.3886
  952MOL0     H28479   5.225   8.488   2.146  1.5091 -1.7464  3.7366
  952MOL0     H28480   5.073   8.388   1.904  0.7247  0.0687  1.7195
  952MOL0     H28481   4.878   8.173   1.699  1.0017 -1.2429 -0.6110
  952MOL0     H28482   5.042   8.228   1.726  1.0248 -0.7985  0.1222
  952MOL0     H28483   4.975   8.076   1.801 -0.1366 -0.1997 -0.5175
  952MOL0     H28484   4.440   8.135   1.636 -2.2677  0.9306 -0.7146
  952MOL0     H28485   4.270   7.977   1.589 -1.9398 -1.1084  2.1568
  952MOL0     H28486   4.118   7.675   1.925  0.3571  1.0394  0.7134
  952MOL0     H28487   4.029   7.822   1.929  0.0097  1.3385 -0.0691
  952MOL0     H28488   4.008   7.582   1.721  1.7787  2.0011 -1.8105
  952MOL0     H28489   3.900   7.614   1.847  2.5716  0.0977  2.2415
  952MOL0     H28490   3.852   7.691   1.595 -1.7279 -1.1996  1.5258
  952MOL0     H28491   3.946   7.837   1.623  0.3378 -2.2249 -1.5500
  952MOL0     H28492   3.692   7.727   1.768  2.2411 -1.2298  2.0914
  952MOL0     H28493   3.789   7.858   1.835  1.7584  1.7011 -1.3829
  952MOL0     H28494   3.741   7.982   1.625 -0.9600 -0.9792 -2.4237
  952MOL0     H28495   3.601   7.945   1.721 -1.4077  0.9493 -1.9242
  952MOL0     H28496   3.703   7.784   1.477 -0.1323 -1.1853  1.0029
  952MOL0     H28497   3.571   7.744   1.577  1.1383  0.3980  1.0088
  952MOL0     H28498   3.583   8.019   1.413  1.9311 -0.3092  1.4608
  952MOL0     H28499   3.454   7.967   1.508  1.2830  0.5805  0.5768
  952MOL0     H28500   3.538   7.794   1.268  0.4950 -0.6311  1.3429
  952MOL0     H28501   3.412   7.913   1.265  0.3252 -0.3581 -0.9078
  952MOL0     H28502   4.264   7.842   2.003  2.2709  0.0760  0.9415
  952MOL0     H28503   4.452   8.022   2.046 -1.5697  3.7997 -0.5255
  952MOL0     H28504   4.632   8.288   2.098  0.2395 -1.4734  1.6048
  952MOL0     H28505   4.784   8.494   2.191 -1.4353 -0.1154 -0.3771
  952MOL0     H28506   6.266   9.465   2.229  0.4138  2.3480 -2.9176
  952MOL0     H28507   6.388   9.621   2.084 -1.6679  0.0805  0.4664
  952MOL0     H28508   6.949   9.694   2.017 -0.0317  0.7101 -1.3341
  952MOL0     H28509   7.056   9.819   1.855  0.5122 -0.5435  4.3473
  952MOL0     H28510   6.882  10.195   1.618 -1.3945  1.3270 -0.1219
  952MOL0     H28511   6.914  10.253   1.788  1.7150  3.8892 -2.1520
  952MOL0     H28512   7.129  10.187   1.584 -0.1717 -0.4335  0.0770
  952MOL0     H28513   7.152  10.270   1.740 -1.9977  1.3994  1.5023
  952MOL0     H28514   6.998  10.457   1.644  1.8490  2.2652 -1.9086
  952MOL0     H28515   7.015  10.373   1.490 -4.2855 -3.0351  1.9875
  952MOL0     H28516   7.245  10.454   1.668 -1.3870  0.6260  0.4474
  952MOL0     H28517   7.208  10.554   1.544  1.1292  1.2737  1.3543
  952MOL0     H28518   7.395  10.301   1.286 -0.2968  2.0074 -1.4843
  952MOL0     H28519   6.733  10.114   1.858 -2.1678 -0.7529  2.8377
  952MOL0     H28520   6.621   9.967   2.016 -0.4635 -0.5615 -1.6245
  953MOL0     O28521   0.776   4.501  10.869  0.3577 -0.1264  0.4388
  953MOL0     C28522   0.860   4.524  10.788  0.1470 -0.3758  1.7033
  953MOL0     O28523   0.955   4.625  10.797 -0.0928 -0.4821  0.2854
  953MOL0     C28524   0.939   4.689  10.924  0.0063 -0.2003 -0.4611
  953MOL0     C28525   1.012   4.648  11.035 -0.1097  0.9072  0.0754
  953MOL0     C28526   0.994   4.712  11.157  0.0944  0.0086 -0.0855
  953MOL0     C28527   0.908   4.817  11.178  0.0274 -0.0693  0.7485
  953MOL0     O28528   0.895   4.892  11.292 -0.9282 -0.5992  0.8114
  953MOL0     C28529   0.884   4.825  11.419 -0.2024  0.7029 -0.4823
  953MOL0     C28530   0.759   4.878  11.488  0.2318  0.2447  0.0508
  953MOL0     C28531   0.648   4.911  11.397 -0.1217  0.7891  0.9817
  953MOL0     C28532   0.585   4.770  11.345  0.1566 -0.1007 -0.1031
  953MOL0     C28533   0.448   4.789  11.279  0.2033  0.2231  0.3577
  953MOL0     C28534   0.396   4.658  11.226  0.6216 -0.0175  0.1922
  953MOL0     C28535   0.429   4.641  11.080 -0.4968  0.5254 -0.5121
  953MOL0     C28536   0.341   4.726  10.990  0.7712 -0.4284 -0.0238
  953MOL0     N28537   0.399   4.735  10.850 -0.4166 -0.1298  0.0682
  953MOL0     C28538   0.493   4.828  10.825 -0.1898  0.6251  0.5136
  953MOL0     C28539   0.519   4.813  10.693 -0.4268 -0.4720  0.6053
  953MOL0     C28540   0.628   4.896  10.630 -0.2118  0.3076  0.7809
  953MOL0     C28541   0.553   4.990  10.531  0.0124 -0.2858  0.0549
  953MOL0     C28542   0.653   5.082  10.456  0.0937 -0.0630 -0.6795
  953MOL0     C28543   0.588   5.180  10.361  0.1368  0.9179 -1.1806
  953MOL0     O28544   0.467   5.131  10.291  0.5151 -0.3971  0.2643
  953MOL0     C28545   0.389   5.223  10.237 -0.7429 -0.4591 -0.3505
  953MOL0     C28546   0.259   5.188  10.204 -0.0548  0.0139 -1.1237
  953MOL0     C28547   0.169   5.259  10.129  0.2256  0.7692 -0.1976
  953MOL0     C28548   0.047   5.183  10.089 -0.7187 -0.4649  1.1572
  953MOL0     C28549   0.211   5.392  10.101 -0.1095 -0.3219 -0.2351
  953MOL0     C28550   0.123   5.478  10.014 -1.2522  0.0307 -0.5110
  953MOL0     O28551   0.139   5.617  10.032  0.0888 -0.3951 -0.8254
  953MOL0     C28552   0.063   5.697   9.952 -0.0784  0.9751 -0.1390
  953MOL0     C28553  -0.058   5.738   9.998 -0.5151  0.2692  0.0510
  953MOL0     C28554  -0.130   5.829   9.925  0.1892  0.7041  1.4701
  953MOL0     C28555  -0.087   5.864   9.792  0.7765 -0.6502  0.2621
  953MOL0     O28556  -0.182   5.937   9.728  0.2358  0.1092  0.1140
  953MOL0     C28557  -0.141   6.018   9.617  0.2506 -0.0601  0.8668
  953MOL0     C28558  -0.246   6.125   9.586  0.3157  0.5589  0.5230
  953MOL0     C28559  -0.369   6.080   9.513  0.8142 -0.6608  0.2600
  953MOL0     C28560  -0.497   6.153   9.564 -0.6561  0.1332  0.1532
  953MOL0     C28561  -0.619   6.109   9.493  0.4254 -0.6184  0.1224
  953MOL0     C28562  -0.662   5.963   9.525 -0.3008 -0.1105  0.6182
  953MOL0     C28563  -0.808   5.914   9.488  0.5037  0.0135  0.4684
  953MOL0     C28564  -0.853   5.786   9.557 -0.0940  0.2076 -0.5907
  953MOL0    Cl28565  -0.779   5.643   9.482 -0.2788 -0.2101  0.0641
  953MOL0     C28566   0.032   5.812   9.743  0.4279 -0.6835  0.4909
  953MOL0     C28567   0.110   5.735   9.821 -0.1036 -0.5689 -0.1410
  953MOL0     O28568   0.052   5.429   9.932 -0.8798 -0.4050  0.2931
  953MOL0     C28569   0.334   5.442  10.140  0.1359 -0.7911 -0.0226
  953MOL0     C28570   0.429   5.361  10.212 -0.5440 -0.7614  0.0856
  953MOL0     N28571   0.432   4.721  10.644 -0.2941  0.9633 -0.7774
  953MOL0     N28572   0.367   4.665  10.741 -0.9514 -0.3760  0.4955
  953MOL0     C28573   0.843   4.855  11.066 -0.6691 -0.1069  0.8560
  953MOL0     C28574   0.857   4.800  10.936 -0.3748  0.5175  0.1081
  953MOL0     C28575   0.878   4.443  10.663  0.7596  0.1461  0.1126
  953MOL0     C28576   0.760   4.411  10.588 -0.3594  0.3391 -0.6599
  953MOL0     C28577   0.771   4.334  10.470  0.5524 -0.3291 -0.1302
  953MOL0     C28578   0.899   4.283  10.430 -0.1026 -0.1188 -0.1301
  953MOL0     O28579   0.907   4.178  10.337  0.0639  0.3789 -0.2572
  953MOL0     C28580   0.837   4.200  10.202  0.0500 -0.4840 -0.2375
  953MOL0     C28581   0.933   4.132  10.105 -0.4154  0.5380 -0.4185
  953MOL0     C28582   0.947   3.979  10.133  0.1821  0.0272  0.0096
  953MOL0     C28583   0.844   3.887  10.064 -0.6985  0.5817  0.5238
  953MOL0     C28584   0.839   3.753  10.118  0.4068  0.2631 -0.6230
  953MOL0     C28585   0.829   3.640  10.165  0.0169 -0.2144  0.7247
  953MOL0     C28586   1.011   4.319  10.506  0.5601  0.9587  0.6578
  953MOL0     C28587   1.004   4.411  10.612 -0.0145 -0.5730 -0.2111
  953MOL0     H28588   1.083   4.566  11.024 -0.0276  1.3015 -3.2394
  953MOL0     H28589   1.042   4.669  11.244 -0.1120  2.8440  1.5664
  953MOL0     H28590   0.870   4.718  11.404  0.2837  0.7277 -1.1881
  953MOL0     H28591   0.973   4.840  11.480  0.3908  2.6498 -1.7482
  953MOL0     H28592   0.726   4.808  11.566  2.2360 -1.5256 -0.5839
  953MOL0     H28593   0.791   4.971  11.536  1.7543 -0.8801  1.3624
  953MOL0     H28594   0.573   4.962  11.458 -0.0046  3.2939 -0.8070
  953MOL0     H28595   0.677   4.981  11.318 -2.8436 -0.4585 -1.2846
  953MOL0     H28596   0.649   4.725  11.268  1.3447  2.9317 -1.0388
  953MOL0     H28597   0.572   4.704  11.431 -1.0024 -0.7705 -0.7727
  953MOL0     H28598   0.365   4.833  11.337 -1.1033  2.0565 -2.6576
  953MOL0     H28599   0.462   4.877  11.215  2.3946 -0.4329 -0.1380
  953MOL0     H28600   0.450   4.575  11.274  1.2035  0.0256 -0.3645
  953MOL0     H28601   0.291   4.634  11.243  0.7681 -1.9305 -1.2740
  953MOL0     H28602   0.532   4.676  11.079 -0.9889  2.1197  0.4057
  953MOL0     H28603   0.423   4.535  11.054 -1.0337  0.0796  1.2900
  953MOL0     H28604   0.322   4.826  11.030 -0.1308 -0.5071 -0.2232
  953MOL0     H28605   0.245   4.676  10.975  1.6067 -1.9733 -0.3944
  953MOL0     H28606   0.541   4.908  10.879 -0.3911  1.8215 -0.9975
  953MOL0     H28607   0.694   4.946  10.700  3.0184 -0.2891 -1.5893
  953MOL0     H28608   0.688   4.827  10.570 -1.0328 -1.9085  2.3663
  953MOL0     H28609   0.477   5.047  10.585 -3.3867 -4.5229  0.2685
  953MOL0     H28610   0.494   4.943  10.452 -1.1544  0.7801  0.2646
  953MOL0     H28611   0.719   5.008  10.410 -0.5572 -1.3078  0.3264
  953MOL0     H28612   0.720   5.139  10.521 -0.5979 -0.8802  0.7990
  953MOL0     H28613   0.669   5.214  10.296  4.1476 -1.0469  2.2577
  953MOL0     H28614   0.566   5.269  10.421 -1.2322  0.9931 -1.7562
  953MOL0     H28615   0.227   5.085  10.220  0.4415 -0.5616 -3.4563
  953MOL0     H28616   0.022   5.199   9.983  1.8273 -1.1988  0.3828
  953MOL0     H28617   0.085   5.080  10.090  2.1643  0.4715 -0.2480
  953MOL0     H28618  -0.039   5.197  10.155  0.0576 -0.4579  2.1857
  953MOL0     H28619  -0.099   5.708  10.094 -0.7868 -1.0873 -0.4691
  953MOL0     H28620  -0.217   5.881   9.961 -2.2790 -2.8844  1.1635
  953MOL0     H28621  -0.046   6.066   9.642 -1.0356  3.6046 -0.5609
  953MOL0     H28622  -0.136   5.956   9.527 -1.8598  0.5979  0.2358
  953MOL0     H28623  -0.280   6.166   9.681 -0.3867 -0.4913  0.7467
  953MOL0     H28624  -0.198   6.204   9.527  0.6888  0.5550  0.8166
  953MOL0     H28625  -0.384   5.972   9.526 -0.1057 -0.5598  0.0624
  953MOL0     H28626  -0.345   6.081   9.406 -0.6684 -0.5617 -0.0890
  953MOL0     H28627  -0.502   6.126   9.670 -2.3928 -2.1295 -0.4122
  953MOL0     H28628  -0.485   6.260   9.547 -2.4834  0.2966 -0.2562
  953MOL0     H28629  -0.609   6.122   9.385 -0.9275  1.7544  0.1975
  953MOL0     H28630  -0.696   6.182   9.522  1.4714  0.4234  0.3704
  953MOL0     H28631  -0.587   5.902   9.473  4.0783  3.0212  2.6521
  953MOL0     H28632  -0.646   5.956   9.633  0.9602 -0.4116  0.4222
  953MOL0     H28633  -0.815   5.900   9.379 -0.0641  1.1954  0.3344
  953MOL0     H28634  -0.872   5.993   9.529  0.5383 -0.2263  0.9907
  953MOL0     H28635  -0.960   5.774   9.539 -0.1398 -0.9083  0.3466
  953MOL0     H28636  -0.827   5.781   9.663  0.1052 -1.4902 -0.6941
  953MOL0     H28637   0.067   5.819   9.641 -1.4568  1.6173 -0.1047
  953MOL0     H28638   0.208   5.696   9.793  2.4488  2.2968  3.7359
  953MOL0     H28639   0.348   5.547  10.117 -1.5463 -0.6070 -0.2880
  953MOL0     H28640   0.519   5.408  10.250  0.1704 -1.7390 -0.3655
  953MOL0     H28641   0.787   4.948  11.072  1.9588  1.5500  1.3844
  953MOL0     H28642   0.817   4.854  10.851 -1.1617 -0.8124 -0.3928
  953MOL0     H28643   0.666   4.459  10.611 -0.7471 -1.0866  0.9610
  953MOL0     H28644   0.684   4.304  10.413 -1.1896  1.8263  1.2383
  953MOL0     H28645   0.736   4.158  10.191 -0.4071  0.7207 -0.8667
  953MOL0     H28646   0.833   4.306  10.178  1.4682  0.4752  3.1344
  953MOL0     H28647   1.028   4.187  10.109 -0.2268  0.1507  1.4828
  953MOL0     H28648   0.908   4.141   9.999 -1.2591  1.9790 -0.1187
  953MOL0     H28649   0.953   3.964  10.241  2.3826 -2.4692 -0.3578
  953MOL0     H28650   1.044   3.945  10.096  0.1037 -1.2516  0.8967
  953MOL0     H28651   0.871   3.879   9.959  0.9804  0.4414  0.9446
  953MOL0     H28652   0.745   3.934  10.070 -0.4415  0.9616  3.0087
  953MOL0     H28653   0.804   3.539  10.190  1.4211 -0.8299 -0.2085
  953MOL0     H28654   1.107   4.287  10.466  0.0168 -3.3888  2.2470
  953MOL0     H28655   1.093   4.446  10.664 -1.6228 -1.2633  3.2889
  954MOL0     O28656   9.683   5.799   8.983 -0.4918  0.2126 -0.1514
  954MOL0     C28657   9.672   5.699   9.044 -0.0000  0.4896 -0.2758
  954MOL0     O28658   9.554   5.639   9.065 -0.3056 -0.3233 -0.3292
  954MOL0     C28659   9.435   5.704   9.053  0.1028  1.1064  0.2446
  954MOL0     C28660   9.327   5.632   9.025  0.4983 -0.9676  0.4131
  954MOL0     C28661   9.202   5.694   9.026 -0.5209  0.1356  0.4149
  954MOL0     C28662   9.194   5.827   9.069  0.4318  0.1070  0.2724
  954MOL0     O28663   9.073   5.887   9.058 -0.1289 -0.5826 -0.0169
  954MOL0     C28664   8.963   5.827   9.138 -0.9085 -0.3471 -0.1851
  954MOL0     C28665   8.852   5.814   9.029 -0.0729  0.1556 -0.3280
  954MOL0     C28666   8.808   5.940   8.943  0.0412  0.3318 -0.0559
  954MOL0     C28667   8.655   5.969   8.920  0.0679  0.1345 -1.0098
  954MOL0     C28668   8.622   6.073   8.811  0.7001  0.5475 -0.2939
  954MOL0     C28669   8.469   6.092   8.798  0.0289 -1.7616  0.5877
  954MOL0     C28670   8.443   6.181   8.673 -1.6056 -0.8960 -0.5558
  954MOL0     C28671   8.296   6.220   8.657  0.3314 -0.1923 -0.7746
  954MOL0     N28672   8.204   6.106   8.658  0.6546  1.0791  0.6962
  954MOL0     C28673   8.131   6.041   8.760 -0.2890 -0.1785 -0.2218
  954MOL0     C28674   8.051   5.946   8.696  0.0311 -0.0905  0.5764
  954MOL0     C28675   7.954   5.852   8.757 -0.4561 -0.0108 -0.7082
  954MOL0     C28676   7.826   5.832   8.671 -0.6817  0.0877 -0.5760
  954MOL0     C28677   7.730   5.746   8.742  1.1266  1.2925  0.6560
  954MOL0     C28678   7.592   5.731   8.680 -0.0152  0.7201  0.2085
  954MOL0     O28679   7.526   5.853   8.666  0.3612  0.1286 -0.4735
  954MOL0     C28680   7.395   5.845   8.612 -1.2258 -1.0845 -0.7308
  954MOL0     C28681   7.339   5.970   8.588 -0.7937 -0.8890 -0.0028
  954MOL0     C28682   7.207   5.986   8.557 -0.6016  0.3390 -0.2072
  954MOL0     C28683   7.156   6.116   8.522  0.8754 -0.4946  0.4891
  954MOL0     C28684   7.127   5.868   8.530 -0.6457  0.3094 -0.1391
  954MOL0     C28685   6.994   5.876   8.472 -0.2581  0.2065 -0.5923
  954MOL0     O28686   6.886   5.868   8.557  0.2100  0.2701 -0.2253
  954MOL0     C28687   6.763   5.836   8.502  0.5038  0.0273  0.4853
  954MOL0     C28688   6.703   5.710   8.521  0.5360 -0.0045 -0.4881
  954MOL0     C28689   6.586   5.675   8.452 -0.0290 -0.1892 -0.3067
  954MOL0     C28690   6.515   5.768   8.372 -0.8460 -0.0806 -0.3408
  954MOL0     O28691   6.408   5.725   8.302  0.0849  0.1297  0.0069
  954MOL0     C28692   6.329   5.798   8.207  0.2309 -0.5807  0.5307
  954MOL0     C28693   6.197   5.715   8.198  0.3145 -0.4919 -0.2955
  954MOL0     C28694   6.102   5.788   8.113 -0.5169  1.6403 -0.2106
  954MOL0     C28695   5.982   5.698   8.089  0.0356 -0.2511  0.3928
  954MOL0     C28696   5.886   5.783   8.001 -0.0403  0.6502  0.3301
  954MOL0     C28697   5.765   5.702   7.963 -0.3181  0.3867 -0.2430
  954MOL0     C28698   5.650   5.771   7.888 -0.0520 -0.1332  1.4782
  954MOL0     C28699   5.553   5.856   7.971  0.7174  0.0877  0.2448
  954MOL0    Cl28700   5.444   5.966   7.887  0.1131  0.6295 -0.0988
  954MOL0     C28701   6.563   5.896   8.371  0.6478 -0.5152  0.4579
  954MOL0     C28702   6.683   5.933   8.429 -0.1322 -0.0427  0.3862
  954MOL0     O28703   6.994   5.877   8.348 -0.0795  0.2867 -0.0106
  954MOL0     C28704   7.181   5.745   8.546 -0.1515  0.1556  0.4031
  954MOL0     C28705   7.318   5.736   8.591  0.1572  0.0469 -0.2346
  954MOL0     N28706   8.077   5.957   8.554  0.4812 -0.3644 -0.3467
  954MOL0     N28707   8.165   6.054   8.535 -0.1219  0.5589  0.1242
  954MOL0     C28708   9.304   5.893   9.111 -0.8222 -0.4404  0.1224
  954MOL0     C28709   9.428   5.833   9.104  0.1388 -0.6675  1.1550
  954MOL0     C28710   9.801   5.633   9.083 -0.1058  0.0364 -0.4616
  954MOL0     C28711   9.805   5.513   9.160  0.6673 -0.1419 -0.0901
  954MOL0     C28712   9.919   5.456   9.200 -0.0236 -0.5792 -0.1989
  954MOL0     C28713  10.046   5.522   9.183 -0.1263  0.3500  0.6785
  954MOL0     O28714  10.172   5.475   9.229  0.8936 -0.2496  0.8059
  954MOL0     C28715  10.185   5.451   9.371  0.1728  0.3353  0.2073
  954MOL0     C28716  10.325   5.392   9.409 -0.8012 -0.1680 -0.1539
  954MOL0     C28717  10.372   5.283   9.320  0.1258 -0.7757 -0.1403
  954MOL0     C28718  10.507   5.223   9.379 -0.5888  0.2759  0.0234
  954MOL0     C28719  10.548   5.117   9.287 -0.4021 -1.1864 -1.0584
  954MOL0     C28720  10.562   5.028   9.204 -0.2450 -0.6816  0.1015
  954MOL0     C28721  10.043   5.641   9.112 -0.3578 -0.2695  1.1217
  954MOL0     C28722   9.928   5.685   9.050 -0.9882  0.5702 -1.1486
  954MOL0     H28723   9.329   5.526   9.002 -2.6318 -0.7604 -1.3038
  954MOL0     H28724   9.121   5.634   8.985 -0.6644 -0.8358  2.0370
  954MOL0     H28725   8.996   5.732   9.180 -1.3591  0.0211  1.0467
  954MOL0     H28726   8.931   5.896   9.216  1.0923  1.0938 -0.5437
  954MOL0     H28727   8.873   5.731   8.961  0.5803 -1.0426  1.2539
  954MOL0     H28728   8.765   5.781   9.087 -0.1114  0.2671 -0.3208
  954MOL0     H28729   8.861   6.026   8.985 -0.4716  0.1389  1.0182
  954MOL0     H28730   8.850   5.942   8.841 -0.0878  2.4602 -0.1210
  954MOL0     H28731   8.596   5.882   8.890 -2.2141  1.6926 -1.3464
  954MOL0     H28732   8.602   5.986   9.014  0.2873  2.9097 -1.2961
  954MOL0     H28733   8.671   6.164   8.847  0.1961  0.7367 -0.0690
  954MOL0     H28734   8.670   6.045   8.717 -0.0817 -0.1357 -0.5019
  954MOL0     H28735   8.416   5.997   8.790 -2.4307 -0.4450  0.3048
  954MOL0     H28736   8.440   6.150   8.886  1.8275 -1.7665  1.2430
  954MOL0     H28737   8.516   6.262   8.682 -0.2743 -1.9387 -1.4877
  954MOL0     H28738   8.469   6.132   8.578  2.3839 -0.9876  0.3940
  954MOL0     H28739   8.270   6.288   8.576 -1.2879  3.2989  2.3255
  954MOL0     H28740   8.274   6.282   8.745 -0.4497 -1.6189  0.0761
  954MOL0     H28741   8.130   6.067   8.866 -1.4991 -4.3512  0.9640
  954MOL0     H28742   8.001   5.755   8.776 -2.2922 -0.7713  0.1811
  954MOL0     H28743   7.912   5.898   8.847 -2.0508  1.0806 -1.9487
  954MOL0     H28744   7.863   5.795   8.575 -0.1605 -1.3724  0.1691
  954MOL0     H28745   7.778   5.929   8.655  0.2531  0.8087  0.7826
  954MOL0     H28746   7.716   5.774   8.847 -2.3818 -1.4227  1.0699
  954MOL0     H28747   7.776   5.647   8.740  2.5352  1.9048 -1.4963
  954MOL0     H28748   7.541   5.671   8.756  0.9870  1.6507  1.6785
  954MOL0     H28749   7.596   5.671   8.588 -0.8166  0.2221  0.4970
  954MOL0     H28750   7.410   6.051   8.601  1.2927 -2.1445 -2.6569
  954MOL0     H28751   7.064   6.108   8.463  0.1918  1.9868  1.0964
  954MOL0     H28752   7.133   6.173   8.612  0.9993  0.6356 -0.1667
  954MOL0     H28753   7.237   6.166   8.468  1.5717 -0.8470  1.1920
  954MOL0     H28754   6.740   5.635   8.590  1.4294 -0.8630 -1.8519
  954MOL0     H28755   6.568   5.568   8.456  3.5972 -1.0057 -1.6019
  954MOL0     H28756   6.303   5.899   8.239  1.0246  0.3436 -1.5796
  954MOL0     H28757   6.381   5.807   8.111 -1.9663  0.3853 -0.6334
  954MOL0     H28758   6.231   5.631   8.136  0.8310 -1.1635  0.8588
  954MOL0     H28759   6.170   5.690   8.301  0.2888 -0.4465 -0.2917
  954MOL0     H28760   6.137   5.808   8.011 -2.8703 -2.6273 -2.1441
  954MOL0     H28761   6.073   5.879   8.165 -1.4324  1.1360  0.1985
  954MOL0     H28762   6.001   5.597   8.052 -0.0662  0.0636 -0.5582
  954MOL0     H28763   5.940   5.678   8.188  3.4363  0.7184  2.1584
  954MOL0     H28764   5.932   5.827   7.912 -0.8348  0.6963 -0.0632
  954MOL0     H28765   5.861   5.873   8.056 -2.3995  0.1126  0.2222
  954MOL0     H28766   5.811   5.624   7.900 -2.4157 -0.7105 -0.5162
  954MOL0     H28767   5.724   5.661   8.055  2.1436  0.9462  1.2049
  954MOL0     H28768   5.594   5.693   7.835  1.0442 -0.6134  0.9864
  954MOL0     H28769   5.700   5.828   7.809  1.3460 -2.6608  0.3966
  954MOL0     H28770   5.616   5.919   8.034 -0.5460  1.1401  0.5198
  954MOL0     H28771   5.492   5.789   8.032  0.2472 -0.4692 -0.8069
  954MOL0     H28772   6.511   5.963   8.303 -1.1488 -1.8545  0.4499
  954MOL0     H28773   6.717   6.034   8.408 -1.2483 -0.4111 -4.5172
  954MOL0     H28774   7.140   5.648   8.522  0.4788  0.0725 -0.4153
  954MOL0     H28775   7.361   5.642   8.622  1.3332  0.8466  0.6271
  954MOL0     H28776   9.278   5.994   9.141 -1.2087 -0.0875 -1.3295
  954MOL0     H28777   9.516   5.887   9.136 -1.9219  4.2232 -0.4575
  954MOL0     H28778   9.717   5.461   9.197  2.3923 -2.3767  1.1324
  954MOL0     H28779   9.915   5.366   9.261 -2.4364 -1.2820 -1.2978
  954MOL0     H28780  10.181   5.548   9.423  1.8748 -0.0172  1.0513
  954MOL0     H28781  10.099   5.399   9.414  1.6167 -0.2041  2.6199
  954MOL0     H28782  10.328   5.352   9.510  4.0978  0.1494  0.0547
  954MOL0     H28783  10.403   5.468   9.400  2.0420 -2.8126  0.2752
  954MOL0     H28784  10.386   5.330   9.222  0.4163  0.7601  0.5995
  954MOL0     H28785  10.281   5.224   9.307 -4.4058  4.8988  1.3133
  954MOL0     H28786  10.487   5.190   9.481 -0.2801  1.3979  0.4532
  954MOL0     H28787  10.581   5.303   9.382  0.6273 -0.5288 -3.3279
  954MOL0     H28788  10.581   4.967   9.118 -1.2107  0.5523 -1.0119
  954MOL0     H28789  10.139   5.692   9.107 -0.0334 -0.9260  0.4597
  954MOL0     H28790   9.937   5.779   8.997  1.4694 -0.1919 -2.2309
  955MOL0     O28791   5.925   4.495   8.528 -0.2657  1.1339  0.7512
  955MOL0     C28792   5.835   4.404   8.504  0.2056 -0.1446 -0.1725
  955MOL0     O28793   5.811   4.343   8.396 -0.8192  0.0988 -0.2968
  955MOL0     C28794   5.887   4.364   8.286 -0.6232  0.0335  0.2755
  955MOL0     C28795   6.027   4.384   8.287 -0.0109 -0.9496 -0.5528
  955MOL0     C28796   6.105   4.425   8.176  0.7249 -0.2700 -0.6401
  955MOL0     C28797   6.036   4.431   8.050 -0.1283  0.4983  0.3996
  955MOL0     O28798   6.103   4.465   7.933 -0.9308  0.3146  0.1488
  955MOL0     C28799   6.219   4.549   7.947 -0.5677 -0.3831  0.8535
  955MOL0     C28800   6.175   4.692   7.993  0.7537 -0.2769  0.4047
  955MOL0     C28801   6.278   4.800   8.029  0.5529 -0.3656 -0.9609
  955MOL0     C28802   6.370   4.745   8.136 -0.0644 -1.0031 -0.3249
  955MOL0     C28803   6.475   4.846   8.192 -1.0779 -0.2747  0.2573
  955MOL0     C28804   6.418   4.947   8.298 -0.3861  0.4167 -0.3884
  955MOL0     C28805   6.492   5.083   8.312 -0.0583 -0.7818 -0.0850
  955MOL0     C28806   6.631   5.071   8.351  0.2950  0.4105 -0.0749
  955MOL0     N28807   6.693   5.205   8.382 -0.4113  0.2626 -0.0739
  955MOL0     C28808   6.792   5.266   8.309  0.5347 -1.0684 -0.6828
  955MOL0     C28809   6.838   5.370   8.386 -0.6788  0.3547 -1.0232
  955MOL0     C28810   6.943   5.460   8.337  0.5452 -0.0070  0.1317
  955MOL0     C28811   6.934   5.515   8.190 -0.4485 -0.1027 -0.8253
  955MOL0     C28812   6.814   5.606   8.169 -0.0806 -0.2971 -0.0032
  955MOL0     C28813   6.675   5.532   8.132  0.6697 -0.5090 -0.8111
  955MOL0     O28814   6.676   5.425   8.039  0.2077 -0.4623 -0.0624
  955MOL0     C28815   6.560   5.352   8.003  0.2889  0.8863  0.3998
  955MOL0     C28816   6.564   5.240   7.912  0.0799 -0.2139 -0.2012
  955MOL0     C28817   6.452   5.173   7.867  0.7696  0.1315  1.2126
  955MOL0     C28818   6.469   5.055   7.766 -0.2626 -0.5061 -0.5131
  955MOL0     C28819   6.322   5.217   7.916  0.0239 -0.2059  0.3443
  955MOL0     C28820   6.194   5.159   7.874 -0.3195 -0.1575 -0.4168
  955MOL0     O28821   6.074   5.216   7.925 -0.1599 -0.9616  0.2089
  955MOL0     C28822   5.949   5.173   7.884 -0.6428  0.8639 -0.5886
  955MOL0     C28823   5.859   5.130   7.984 -0.7449  0.1191  0.0481
  955MOL0     C28824   5.726   5.099   7.945  0.5122  0.9786 -0.5739
  955MOL0     C28825   5.690   5.093   7.803  0.7146  0.5641 -0.6751
  955MOL0     O28826   5.561   5.056   7.756  0.1088 -0.4358 -0.4647
  955MOL0     C28827   5.457   5.035   7.854  0.5190  0.3427 -0.0288
  955MOL0     C28828   5.321   4.983   7.792 -0.4822  0.5721  0.7051
  955MOL0     C28829   5.211   4.955   7.897 -0.0747 -0.3414 -0.5696
  955MOL0     C28830   5.244   4.830   7.971  0.0100  0.4727  0.2590
  955MOL0     C28831   5.204   4.702   7.901 -0.5544 -0.0780  1.2501
  955MOL0     C28832   5.066   4.668   7.872 -0.2866 -0.4575  0.2736
  955MOL0     C28833   5.022   4.544   7.797 -0.7258  0.1600  0.6414
  955MOL0     C28834   4.874   4.524   7.778 -0.9041 -0.1907 -0.5024
  955MOL0    Cl28835   4.806   4.663   7.684 -0.0108 -0.7749 -0.1627
  955MOL0     C28836   5.788   5.128   7.713 -0.5758  0.7219  0.0197
  955MOL0     C28837   5.913   5.175   7.750 -0.1571 -0.0205 -0.3871
  955MOL0     O28838   6.199   5.051   7.814 -0.1362 -0.4161 -0.1980
  955MOL0     C28839   6.319   5.316   8.011 -0.6925  0.1323 -0.3287
  955MOL0     C28840   6.432   5.386   8.052 -0.3235  0.9469 -0.3725
  955MOL0     N28841   6.778   5.360   8.507  0.0124  0.4304 -0.3274
  955MOL0     N28842   6.688   5.261   8.502 -0.0579 -0.2975  0.0558
  955MOL0     C28843   5.900   4.394   8.048  0.6360  0.4765 -0.1861
  955MOL0     C28844   5.825   4.372   8.163 -0.3175 -0.0869 -0.8799
  955MOL0     C28845   5.743   4.373   8.615 -0.2638  0.2103 -0.1374
  955MOL0     C28846   5.646   4.270   8.615 -1.3183 -0.1613 -0.4736
  955MOL0     C28847   5.559   4.247   8.712 -0.7427  0.8345 -0.3091
  955MOL0     C28848   5.555   4.326   8.827  0.0025  0.3176  0.0459
  955MOL0     O28849   5.452   4.306   8.914  0.1261 -0.2686 -0.3577
  955MOL0     C28850   5.377   4.424   8.946 -0.9935  0.8086  0.5338
  955MOL0     C28851   5.246   4.442   8.877  0.2699 -0.5868 -0.5965
  955MOL0     C28852   5.135   4.347   8.921  0.2287 -0.2122 -0.4538
  955MOL0     C28853   5.077   4.382   9.061  0.0249 -1.1498 -0.4017
  955MOL0     C28854   5.003   4.501   9.056  0.0654  0.0347 -0.0261
  955MOL0     C28855   4.951   4.605   9.030  0.5051 -0.6437 -1.0287
  955MOL0     C28856   5.656   4.433   8.837  0.3478  0.1883  0.2034
  955MOL0     C28857   5.742   4.453   8.731 -0.2050  0.6735  0.5383
  955MOL0     H28858   6.085   4.380   8.379  1.6532 -0.6008 -1.5448
  955MOL0     H28859   6.213   4.435   8.190  0.5884  2.6821 -1.0353
  955MOL0     H28860   6.293   4.509   8.017  2.2402 -2.2812 -2.8122
  955MOL0     H28861   6.286   4.556   7.860  0.0539  0.0469  1.3541
  955MOL0     H28862   6.115   4.726   7.908  2.2957 -1.5258 -1.2581
  955MOL0     H28863   6.112   4.676   8.081  1.6401  2.5970  1.6968
  955MOL0     H28864   6.344   4.830   7.947  1.3280  0.5676 -0.0178
  955MOL0     H28865   6.227   4.888   8.069  0.4300 -0.5429 -0.7317
  955MOL0     H28866   6.318   4.694   8.218  2.1016  0.8816  2.4171
  955MOL0     H28867   6.427   4.670   8.080 -0.4939 -1.7933  0.2673
  955MOL0     H28868   6.563   4.791   8.226 -0.6654  0.2706  0.0908
  955MOL0     H28869   6.519   4.907   8.113 -0.3979  0.8087  1.4285
  955MOL0     H28870   6.316   4.961   8.260 -0.2204  1.3538 -0.5061
  955MOL0     H28871   6.408   4.895   8.394  2.3210  1.0461  0.3178
  955MOL0     H28872   6.477   5.126   8.212 -0.9449 -1.8045 -0.4172
  955MOL0     H28873   6.443   5.136   8.393  0.2346  0.1955 -0.5311
  955MOL0     H28874   6.678   5.019   8.268  1.6892 -0.7763  1.3828
  955MOL0     H28875   6.641   5.012   8.443  1.0147 -1.4522 -1.2969
  955MOL0     H28876   6.823   5.246   8.207  2.3378 -1.6613 -0.0600
  955MOL0     H28877   6.949   5.555   8.393 -0.7564 -0.7081  1.5419
  955MOL0     H28878   7.036   5.404   8.353  1.8215  2.3283  1.5277
  955MOL0     H28879   6.933   5.438   8.112  1.2557 -0.4634 -0.5342
  955MOL0     H28880   7.026   5.573   8.174 -0.4804  0.1810 -0.0081
  955MOL0     H28881   6.845   5.663   8.082  3.0974 -1.8046 -0.0087
  955MOL0     H28882   6.802   5.669   8.257 -1.4563  0.7980 -0.9427
  955MOL0     H28883   6.608   5.613   8.101  1.7972  1.6678  1.9711
  955MOL0     H28884   6.634   5.505   8.230  0.6597 -1.4624 -1.0662
  955MOL0     H28885   6.663   5.210   7.876  1.8995  2.8876  1.7530
  955MOL0     H28886   6.400   5.069   7.682 -0.5728 -2.4824 -0.6425
  955MOL0     H28887   6.572   5.056   7.731 -0.4211  3.5941 -1.3353
  955MOL0     H28888   6.446   4.966   7.824  1.1277  0.5696  1.8295
  955MOL0     H28889   5.885   5.132   8.089 -1.8665 -2.1110  0.4338
  955MOL0     H28890   5.661   5.070   8.027  1.5920  1.7347  0.5736
  955MOL0     H28891   5.501   4.948   7.904  0.3612  0.8237  0.9546
  955MOL0     H28892   5.452   5.122   7.920  1.2389 -0.0559  0.5729
  955MOL0     H28893   5.286   5.068   7.732  1.0396  2.4139  2.2800
  955MOL0     H28894   5.335   4.903   7.720  1.5193  1.0066  0.5380
  955MOL0     H28895   5.111   4.941   7.855 -0.1891 -1.5802  0.0732
  955MOL0     H28896   5.205   5.040   7.965 -1.5000 -1.0348  0.2261
  955MOL0     H28897   5.351   4.824   7.989  0.8879 -1.9644 -4.3482
  955MOL0     H28898   5.189   4.837   8.066 -2.2873  0.0794 -0.9749
  955MOL0     H28899   5.235   4.618   7.964 -1.1235 -1.1178  0.2022
  955MOL0     H28900   5.256   4.693   7.805 -0.1945  2.0373  1.2003
  955MOL0     H28901   5.017   4.674   7.970  0.1994 -0.1246  0.5011
  955MOL0     H28902   5.022   4.750   7.814 -2.5802 -1.3468  0.6382
  955MOL0     H28903   5.056   4.461   7.859  0.4361  1.3471  1.6701
  955MOL0     H28904   5.067   4.532   7.698 -0.2202 -1.1323  1.0127
  955MOL0     H28905   4.823   4.506   7.873  1.7059  3.0472  1.7048
  955MOL0     H28906   4.860   4.439   7.710  0.5204 -2.1418  1.5332
  955MOL0     H28907   5.765   5.123   7.607  3.1738  0.4646 -0.9332
  955MOL0     H28908   5.970   5.215   7.667 -0.9028  0.4666 -0.6701
  955MOL0     H28909   6.218   5.343   8.040 -0.8406  0.8608 -1.4486
  955MOL0     H28910   6.425   5.452   8.138 -2.5618 -1.5623  1.5593
  955MOL0     H28911   5.848   4.380   7.953  1.7020 -3.9084 -0.3308
  955MOL0     H28912   5.720   4.345   8.160 -0.2384 -0.3696 -1.2170
  955MOL0     H28913   5.646   4.205   8.528 -2.6657 -3.8869  2.0752
  955MOL0     H28914   5.478   4.175   8.699  0.2988 -0.0606 -2.1931
  955MOL0     H28915   5.362   4.416   9.055 -2.9644 -0.0253  0.2448
  955MOL0     H28916   5.441   4.512   8.934 -1.1725  0.7986 -0.5307
  955MOL0     H28917   5.269   4.439   8.770  1.1714 -0.5864 -0.4151
  955MOL0     H28918   5.224   4.547   8.896 -1.4298 -0.8010 -1.2096
  955MOL0     H28919   5.190   4.253   8.927  2.3984  1.0462  1.1924
  955MOL0     H28920   5.073   4.352   8.831 -2.1695  1.4227  1.1616
  955MOL0     H28921   5.156   4.402   9.134 -3.2759  0.1008  3.2146
  955MOL0     H28922   5.017   4.296   9.094 -0.9968 -0.3641 -0.1478
  955MOL0     H28923   4.913   4.702   9.004  1.3707 -0.4227 -1.5197
  955MOL0     H28924   5.676   4.480   8.933  2.2661  1.3067 -0.6760
  955MOL0     H28925   5.817   4.532   8.737 -0.3741  0.8447  0.3983
  956MOL0     O28926   4.335   9.215   6.937 -0.6530  0.3169 -0.3766
  956MOL0     C28927   4.454   9.197   6.901  0.0229  0.5511  0.0210
  956MOL0     O28928   4.517   9.076   6.919 -0.2304 -0.1544 -0.4033
  956MOL0     C28929   4.469   8.982   7.005  0.4445  0.2344 -0.1063
  956MOL0     C28930   4.415   9.010   7.132 -1.6341  0.0790 -0.0285
  956MOL0     C28931   4.358   8.907   7.208 -1.0662  0.4642 -0.4698
  956MOL0     C28932   4.349   8.775   7.159 -0.6169  0.6623 -0.2682
  956MOL0     O28933   4.308   8.673   7.238 -0.1171  0.9584  0.7371
  956MOL0     C28934   4.403   8.562   7.251 -0.7910 -0.5147  0.2042
  956MOL0     C28935   4.343   8.473   7.359 -0.0140  0.6839 -0.0065
  956MOL0     C28936   4.373   8.542   7.496  0.0910  0.5162 -0.4740
  956MOL0     C28937   4.521   8.515   7.543 -0.6540 -0.5291 -0.0004
  956MOL0     C28938   4.545   8.595   7.666  0.2706 -0.1787 -0.0093
  956MOL0     C28939   4.453   8.570   7.783  0.6680  0.1251 -0.7727
  956MOL0     C28940   4.516   8.631   7.916 -0.0086  0.2986 -0.4530
  956MOL0     C28941   4.449   8.566   8.042 -0.4954 -0.1106  0.1607
  956MOL0     N28942   4.306   8.590   8.048  0.0353 -0.1868  1.1175
  956MOL0     C28943   4.234   8.697   8.005  0.2414 -0.8056 -0.1191
  956MOL0     C28944   4.106   8.662   8.011 -0.6731 -0.4780  0.5434
  956MOL0     C28945   3.986   8.727   7.959  0.5197 -0.4804 -1.2925
  956MOL0     C28946   3.985   8.693   7.812 -0.3089  0.4573  0.1222
  956MOL0     C28947   4.024   8.818   7.730  0.1681  0.6224 -0.9347
  956MOL0     C28948   3.907   8.917   7.714 -0.9410  0.2061  0.5498
  956MOL0     O28949   3.973   9.035   7.661  1.6272 -0.0048  0.8675
  956MOL0     C28950   3.911   9.153   7.690  0.9597 -0.2442  0.8257
  956MOL0     C28951   3.859   9.232   7.585  0.4337  0.5061  0.3345
  956MOL0     C28952   3.812   9.372   7.617 -0.3988  0.9105 -0.5289
  956MOL0     C28953   3.743   9.434   7.503 -0.6615 -0.1099  0.2468
  956MOL0     C28954   3.846   9.438   7.738 -0.4056 -0.2260  0.3999
  956MOL0     C28955   3.825   9.586   7.768  0.0417 -0.4335  0.6634
  956MOL0     O28956   3.745   9.662   7.681  0.2829  0.0412  0.1145
  956MOL0     C28957   3.744   9.795   7.700  0.1924 -0.2670  0.0485
  956MOL0     C28958   3.861   9.867   7.680  0.6395  0.0807  1.0175
  956MOL0     C28959   3.856  10.008   7.710  0.3261  0.0783 -0.3532
  956MOL0     C28960   3.738  10.072   7.767 -0.2834  0.2198  0.2774
  956MOL0     O28961   3.730  10.206   7.807  0.1885  0.7566  0.4669
  956MOL0     C28962   3.850  10.272   7.849 -0.3247  0.2888 -0.6048
  956MOL0     C28963   3.826  10.410   7.909 -0.9332 -0.3446 -0.4854
  956MOL0     C28964   3.793  10.412   8.054 -0.5037  0.0207 -0.2920
  956MOL0     C28965   3.813  10.555   8.106  1.1656 -0.3856 -0.1792
  956MOL0     C28966   3.804  10.578   8.266 -0.4548  0.0343  0.2714
  956MOL0     C28967   3.802  10.722   8.305  0.3288 -0.3045 -1.0653
  956MOL0     C28968   3.672  10.790   8.275  1.5231 -0.5971  0.5105
  956MOL0     C28969   3.690  10.942   8.303  0.6135 -0.2843  0.8621
  956MOL0    Cl28970   3.718  10.967   8.470  0.1492 -0.0396 -0.0822
  956MOL0     C28971   3.619  10.000   7.766 -0.2385  0.2477 -0.4307
  956MOL0     C28972   3.629   9.861   7.744  1.0569 -0.3562 -0.0016
  956MOL0     O28973   3.898   9.629   7.859 -0.0948 -0.1236  0.7706
  956MOL0     C28974   3.908   9.349   7.838 -0.9347 -0.0567 -0.1575
  956MOL0     C28975   3.932   9.213   7.813 -0.6247  0.7121  1.1997
  956MOL0     N28976   4.103   8.534   8.044  0.2483 -0.8851 -0.9569
  956MOL0     N28977   4.221   8.490   8.060 -0.3363  0.6871 -1.4506
  956MOL0     C28978   4.410   8.749   7.026  0.2856  0.3291 -1.1930
  956MOL0     C28979   4.461   8.856   6.953 -0.2396  0.6875 -0.6509
  956MOL0     C28980   4.525   9.301   6.827 -0.3255 -0.4401 -0.3956
  956MOL0     C28981   4.663   9.290   6.800 -0.0055 -0.3016  0.2063
  956MOL0     C28982   4.728   9.391   6.730 -0.0261  0.0446  0.1806
  956MOL0     C28983   4.670   9.507   6.693  0.5139  1.0138  0.5768
  956MOL0     O28984   4.749   9.600   6.635 -0.2088  0.2735  0.2896
  956MOL0     C28985   4.700   9.734   6.598  0.5939  0.1599 -0.5209
  956MOL0     C28986   4.818   9.821   6.569 -0.6001  0.7830  0.0686
  956MOL0     C28987   4.879   9.859   6.704 -0.8470 -0.3286  0.6879
  956MOL0     C28988   5.002   9.947   6.669 -0.4830 -0.3032 -0.0003
  956MOL0     C28989   5.088   9.955   6.783 -0.4300 -0.3464  0.4493
  956MOL0     C28990   5.148   9.959   6.889  1.4654 -0.3744 -0.4596
  956MOL0     C28991   4.533   9.522   6.726 -0.8335 -0.7132 -0.2187
  956MOL0     C28992   4.464   9.424   6.794  0.1567  0.7471  0.9440
  956MOL0     H28993   4.430   9.111   7.168  0.9116 -0.4692  0.6555
  956MOL0     H28994   4.318   8.917   7.308 -1.8569  0.7065 -0.8044
  956MOL0     H28995   4.409   8.504   7.159  1.3406  1.9087 -1.2961
  956MOL0     H28996   4.502   8.604   7.270 -2.1164  3.5744 -1.0436
  956MOL0     H28997   4.235   8.465   7.344  0.2916 -3.1271 -1.2485
  956MOL0     H28998   4.373   8.370   7.338 -1.1427  0.9971 -3.8898
  956MOL0     H28999   4.370   8.651   7.487  5.3418  0.7623 -3.0931
  956MOL0     H29000   4.312   8.495   7.574  1.0775 -2.3869 -1.3321
  956MOL0     H29001   4.543   8.409   7.560  1.7606  0.0480  0.8366
  956MOL0     H29002   4.581   8.552   7.460 -1.1324  1.7417  0.5811
  956MOL0     H29003   4.650   8.582   7.694 -0.0739 -0.6763  1.0892
  956MOL0     H29004   4.529   8.699   7.638 -1.0941 -0.1802  0.6713
  956MOL0     H29005   4.356   8.616   7.760 -0.7450 -1.8291  0.8965
  956MOL0     H29006   4.439   8.462   7.790  1.5883 -0.0323 -1.1751
  956MOL0     H29007   4.620   8.602   7.933  0.1040  1.5087  1.1439
  956MOL0     H29008   4.528   8.739   7.918 -0.1918  0.4322  4.0848
  956MOL0     H29009   4.492   8.615   8.130 -2.2416 -0.9814  1.5682
  956MOL0     H29010   4.469   8.459   8.031 -0.4797 -0.0556 -0.3744
  956MOL0     H29011   4.269   8.789   7.960  2.6642 -1.9566 -0.8229
  956MOL0     H29012   3.895   8.689   8.008  0.7538 -0.9718 -1.2300
  956MOL0     H29013   3.995   8.832   7.986 -1.6432 -0.6294  0.3582
  956MOL0     H29014   3.886   8.659   7.783 -0.1555 -0.1527  0.3048
  956MOL0     H29015   4.053   8.611   7.787 -0.3327  0.5692 -0.3272
  956MOL0     H29016   4.042   8.779   7.629 -3.4822  1.3587 -2.0291
  956MOL0     H29017   4.101   8.876   7.782 -1.7643  3.5508 -1.1054
  956MOL0     H29018   3.863   8.941   7.812  0.9227  1.3538  1.1702
  956MOL0     H29019   3.838   8.874   7.641 -0.3468  0.5106 -0.1964
  956MOL0     H29020   3.838   9.186   7.489  1.5862  0.0832  0.2591
  956MOL0     H29021   3.801   9.513   7.455 -0.7711 -0.5075 -0.5555
  956MOL0     H29022   3.717   9.360   7.426  0.1546 -0.5976  0.4226
  956MOL0     H29023   3.650   9.482   7.533 -1.5720 -1.0769 -0.9563
  956MOL0     H29024   3.956   9.833   7.641 -1.5713 -2.6351 -2.5413
  956MOL0     H29025   3.940  10.074   7.689  1.1508 -0.4946  1.0110
  956MOL0     H29026   3.905  10.216   7.925  0.0451  1.8771  0.3222
  956MOL0     H29027   3.902  10.290   7.755 -0.4743 -1.0278 -0.9680
  956MOL0     H29028   3.919  10.465   7.892 -1.4982  1.1114  0.9039
  956MOL0     H29029   3.752  10.470   7.855 -0.3598 -1.0503 -2.1052
  956MOL0     H29030   3.869  10.346   8.097 -0.5245  0.7323  0.8633
  956MOL0     H29031   3.693  10.378   8.082 -0.3964 -0.4696 -0.4873
  956MOL0     H29032   3.915  10.584   8.079  0.1015  2.2019 -1.7868
  956MOL0     H29033   3.739  10.619   8.056  2.0152  0.1917 -0.7318
  956MOL0     H29034   3.895  10.540   8.314  0.1647  1.5313  0.3493
  956MOL0     H29035   3.718  10.523   8.306  0.9381 -3.1024 -0.7731
  956MOL0     H29036   3.815  10.735   8.413  0.7224 -1.4669 -0.9556
  956MOL0     H29037   3.894  10.773   8.274  1.1306  0.5076  2.1656
  956MOL0     H29038   3.594  10.756   8.344  1.8256  0.3844  1.3380
  956MOL0     H29039   3.635  10.782   8.172 -0.8287 -0.1018  1.2377
  956MOL0     H29040   3.600  10.991   8.264  0.6713 -0.8791 -0.0368
  956MOL0     H29041   3.768  10.995   8.247 -1.6952  0.4035 -1.9492
  956MOL0     H29042   3.537  10.056   7.811 -0.2227 -2.1440  2.9771
  956MOL0     H29043   3.540   9.801   7.757  0.2172  0.4278 -1.8418
  956MOL0     H29044   3.965   9.387   7.922  1.7441  3.8431 -3.3431
  956MOL0     H29045   3.978   9.168   7.900 -0.2849  0.0226  0.6708
  956MOL0     H29046   4.402   8.647   6.991 -1.2340 -0.2692  0.7196
  956MOL0     H29047   4.496   8.846   6.851  2.6399  1.7882  0.1364
  956MOL0     H29048   4.717   9.204   6.838 -2.4000 -1.3448  1.4690
  956MOL0     H29049   4.833   9.380   6.703  0.2251 -2.2273  1.8303
  956MOL0     H29050   4.659   9.713   6.499  1.2540 -1.0064 -0.5649
  956MOL0     H29051   4.633   9.784   6.668  0.9696 -2.0652  1.5505
  956MOL0     H29052   4.786   9.915   6.525 -3.8708 -0.2809 -0.0782
  956MOL0     H29053   4.885   9.773   6.497  0.0096 -0.3074  1.3084
  956MOL0     H29054   4.898   9.762   6.751 -2.3009  0.2092  2.5320
  956MOL0     H29055   4.818   9.919   6.773 -2.5154  0.4830 -1.3865
  956MOL0     H29056   4.971  10.050   6.649  2.3713  1.1922  2.4328
  956MOL0     H29057   5.050   9.909   6.578 -2.4667  0.1278 -1.3074
  956MOL0     H29058   5.198   9.957   6.984  0.2973  0.1671  0.1962
  956MOL0     H29059   4.475   9.612   6.707  0.6571  0.4124  0.3666
  956MOL0     H29060   4.356   9.432   6.798 -0.0742 -0.9987 -0.1782
  957MOL0     O29061   7.647   1.866   1.878 -0.8622  0.4811 -1.2504
  957MOL0     C29062   7.662   1.991   1.870  0.1897 -0.0215  0.8206
  957MOL0     O29063   7.555   2.084   1.862  0.3701 -0.2984 -0.7063
  957MOL0     C29064   7.426   2.053   1.909 -1.6382  0.1759  0.9670
  957MOL0     C29065   7.323   2.103   1.828  0.4197  0.9938 -0.6378
  957MOL0     C29066   7.188   2.090   1.868  0.0061  0.1337  0.1532
  957MOL0     C29067   7.155   2.011   1.978  0.2905 -0.6023 -0.4273
  957MOL0     O29068   7.021   1.994   2.003 -0.3851 -0.7838  0.5817
  957MOL0     C29069   6.968   1.998   2.137  0.0199  0.1013 -0.4467
  957MOL0     C29070   6.830   1.934   2.149  0.4613  0.1283 -0.0685
  957MOL0     C29071   6.783   1.919   2.305 -0.6520 -0.0105  0.2827
  957MOL0     C29072   6.768   2.058   2.375  0.5645  0.8387 -0.2317
  957MOL0     C29073   6.727   2.032   2.526  0.6870 -0.3662  0.7154
  957MOL0     C29074   6.839   1.968   2.609 -0.4242 -0.0881  0.5166
  957MOL0     C29075   6.957   2.062   2.634  0.4692  0.3945  0.9589
  957MOL0     C29076   6.927   2.184   2.716  0.4856  0.3852  0.9326
  957MOL0     N29077   6.880   2.165   2.854  0.3549 -0.4713  0.2951
  957MOL0     C29078   6.963   2.117   2.952 -0.1135 -1.0399  0.0582
  957MOL0     C29079   6.883   2.082   3.059 -0.3413 -0.1432 -0.4413
  957MOL0     C29080   6.921   2.021   3.194  0.3339  0.1484  0.3889
  957MOL0     C29081   6.899   2.110   3.320  0.2229 -0.2903  0.9469
  957MOL0     C29082   6.963   2.056   3.442  0.2150 -0.6101  0.2065
  957MOL0     C29083   6.919   2.144   3.562 -0.7717 -0.3789 -0.1270
  957MOL0     O29084   6.993   2.259   3.585 -0.1757  1.3636  0.3504
  957MOL0     C29085   6.932   2.370   3.620  0.1738 -0.2402  0.1089
  957MOL0     C29086   6.796   2.392   3.653 -0.9639 -0.0114 -0.3052
  957MOL0     C29087   6.753   2.506   3.708  0.9006 -1.1191 -0.0061
  957MOL0     C29088   6.606   2.515   3.744  0.2355  0.3753  0.0026
  957MOL0     C29089   6.841   2.611   3.725 -0.0974 -0.7082 -0.0687
  957MOL0     C29090   6.811   2.737   3.786  0.4828 -0.7803  0.6028
  957MOL0     O29091   6.921   2.806   3.824  0.6357  0.0574 -0.4506
  957MOL0     C29092   6.908   2.935   3.872 -0.7098 -0.0291 -0.8667
  957MOL0     C29093   6.887   3.040   3.779 -0.3680 -0.1734  0.4246
  957MOL0     C29094   6.923   3.167   3.812 -0.1402  0.6955 -0.5466
  957MOL0     C29095   6.948   3.206   3.946 -1.3722  0.1991 -0.1194
  957MOL0     O29096   6.968   3.330   3.991  0.2558  0.8630 -0.2945
  957MOL0     C29097   6.999   3.429   3.891  0.1344  0.3464 -0.3171
  957MOL0     C29098   7.080   3.537   3.959  0.7857 -0.0281  0.1045
  957MOL0     C29099   7.021   3.570   4.092 -0.5058 -0.6200 -0.7384
  957MOL0     C29100   6.898   3.660   4.067 -0.2676  0.2450 -0.2535
  957MOL0     C29101   6.828   3.681   4.196 -0.3955  0.1457 -0.2821
  957MOL0     C29102   6.702   3.768   4.176 -0.2798  0.2707 -0.0500
  957MOL0     C29103   6.621   3.814   4.302  0.8789  0.4257 -0.0203
  957MOL0     C29104   6.709   3.891   4.405 -0.6231  0.1681 -0.2640
  957MOL0    Cl29105   6.606   3.982   4.537 -0.3776  0.1430  0.6650
  957MOL0     C29106   6.955   3.105   4.044 -0.0328 -0.3803  0.7194
  957MOL0     C29107   6.946   2.973   4.001 -0.3238  0.2963 -0.4062
  957MOL0     O29108   6.697   2.790   3.783 -0.0131  0.1711 -0.8250
  957MOL0     C29109   6.967   2.598   3.661  0.1072 -0.0877 -0.4267
  957MOL0     C29110   7.017   2.481   3.623  0.9505  0.2411 -0.2429
  957MOL0     N29111   6.752   2.109   3.021  0.7853  0.2252  0.3394
  957MOL0     N29112   6.755   2.152   2.900  1.1412 -0.3005  0.6860
  957MOL0     C29113   7.253   1.950   2.048 -0.3046  0.4842 -0.7403
  957MOL0     C29114   7.397   1.972   2.014  0.8019  0.4296  0.0594
  957MOL0     C29115   7.799   2.062   1.856  0.6400  0.5013 -0.0985
  957MOL0     C29116   7.813   2.188   1.906  0.0051 -0.4091  1.1348
  957MOL0     C29117   7.937   2.260   1.902 -0.7295 -0.0134 -0.2365
  957MOL0     C29118   8.051   2.200   1.831  0.2381  0.5885 -0.6529
  957MOL0     O29119   8.176   2.254   1.839  0.8487 -0.1198  0.3394
  957MOL0     C29120   8.236   2.296   1.712  0.4032 -1.0471 -0.5115
  957MOL0     C29121   8.151   2.391   1.617 -0.2160  0.5626 -0.4160
  957MOL0     C29122   8.117   2.325   1.483 -0.1839 -0.5220 -0.0070
  957MOL0     C29123   8.014   2.212   1.502 -0.5075  1.0388 -0.0120
  957MOL0     C29124   7.952   2.146   1.383 -0.4528  0.4384  0.2100
  957MOL0     C29125   7.914   2.093   1.278 -0.4277 -0.1239 -0.2890
  957MOL0     C29126   8.039   2.067   1.791 -0.1913  0.0820 -0.5139
  957MOL0     C29127   7.913   2.002   1.802  0.2808  1.0723 -0.7654
  957MOL0     H29128   7.364   2.165   1.749 -0.5009  1.3473 -0.8559
  957MOL0     H29129   7.119   2.157   1.818  0.0605 -0.0346 -0.1500
  957MOL0     H29130   7.038   1.946   2.202 -0.8930 -1.2886 -0.5281
  957MOL0     H29131   6.956   2.102   2.168 -1.0933 -0.0576 -0.2830
  957MOL0     H29132   6.756   1.994   2.096 -1.9917 -1.2296  1.6078
  957MOL0     H29133   6.824   1.835   2.104  0.9294 -1.0096  2.2129
  957MOL0     H29134   6.688   1.866   2.294 -1.5369  1.9617 -3.2239
  957MOL0     H29135   6.861   1.858   2.351  0.2008  1.0179  0.2469
  957MOL0     H29136   6.863   2.111   2.370  0.4921  1.2547  1.8174
  957MOL0     H29137   6.696   2.128   2.330  2.3191  2.2003 -1.0273
  957MOL0     H29138   6.681   2.121   2.572 -0.9473 -1.0887  0.5708
  957MOL0     H29139   6.640   1.965   2.523 -0.1369  0.6698  0.7006
  957MOL0     H29140   6.795   1.932   2.702  3.1435  1.4218  2.9898
  957MOL0     H29141   6.883   1.876   2.569 -1.1408 -0.9015  1.5593
  957MOL0     H29142   7.036   1.997   2.672  1.6601  0.1535 -1.7055
  957MOL0     H29143   7.002   2.103   2.543  0.0553  2.2809  1.5568
  957MOL0     H29144   6.864   2.253   2.658 -0.0092 -1.6820 -1.1412
  957MOL0     H29145   7.027   2.226   2.726  0.6658 -0.3746  2.6541
  957MOL0     H29146   7.071   2.110   2.940 -0.2048 -1.6727 -0.4066
  957MOL0     H29147   6.868   1.927   3.209 -0.2456 -0.1054 -2.6004
  957MOL0     H29148   7.026   1.992   3.186  0.4228  0.2660  1.0441
  957MOL0     H29149   6.792   2.117   3.339 -0.3087 -1.9542 -1.1809
  957MOL0     H29150   6.936   2.212   3.303  0.5118 -0.3565  1.1603
  957MOL0     H29151   7.070   2.062   3.421  0.2972  0.7501  0.8810
  957MOL0     H29152   6.924   1.956   3.461 -0.7907 -0.4546 -0.9278
  957MOL0     H29153   6.956   2.080   3.643  3.4781  3.1541  1.1527
  957MOL0     H29154   6.811   2.153   3.574 -0.6217 -0.0577  1.0689
  957MOL0     H29155   6.718   2.318   3.656 -0.6669 -0.3302 -0.3395
  957MOL0     H29156   6.551   2.582   3.677 -2.3454  1.5074  2.9896
  957MOL0     H29157   6.543   2.427   3.764  0.7968  0.5734  3.1033
  957MOL0     H29158   6.602   2.561   3.843  1.5981  1.0108 -0.2179
  957MOL0     H29159   6.874   3.031   3.672  0.8514  1.7793  0.0687
  957MOL0     H29160   6.929   3.234   3.727 -0.0148  1.9897  0.4472
  957MOL0     H29161   7.052   3.387   3.804  1.8243  0.3032  0.6791
  957MOL0     H29162   6.903   3.468   3.858 -1.5809  0.9959  4.6541
  957MOL0     H29163   7.179   3.491   3.967  0.3866 -1.5861 -2.7912
  957MOL0     H29164   7.085   3.625   3.896  1.1928  0.1884  0.4325
  957MOL0     H29165   7.096   3.622   4.153 -2.4657  1.0934  0.3235
  957MOL0     H29166   7.002   3.480   4.153  0.3950  0.7015  1.6371
  957MOL0     H29167   6.939   3.746   4.013  2.2351 -0.4006  0.4653
  957MOL0     H29168   6.822   3.609   4.008 -2.3056  0.2373  2.2156
  957MOL0     H29169   6.892   3.738   4.265  2.5134 -0.9192 -1.9064
  957MOL0     H29170   6.805   3.593   4.256  2.0093  0.9347  1.9874
  957MOL0     H29171   6.727   3.851   4.110  0.4634  1.2977  1.4640
  957MOL0     H29172   6.636   3.701   4.120 -1.4063  0.2650  1.2350
  957MOL0     H29173   6.569   3.727   4.345  1.2880  0.0267 -0.3273
  957MOL0     H29174   6.542   3.884   4.275  1.3931  2.5202  3.2813
  957MOL0     H29175   6.759   3.971   4.350 -0.2574  1.3940  1.7574
  957MOL0     H29176   6.784   3.834   4.462 -1.9407 -0.1662  1.2106
  957MOL0     H29177   6.980   3.121   4.149  3.7868  0.1131 -0.1361
  957MOL0     H29178   6.969   2.895   4.072 -0.8797  0.0260 -0.5171
  957MOL0     H29179   7.035   2.683   3.652 -0.9926  0.8593 -0.0847
  957MOL0     H29180   7.116   2.466   3.583  0.9587 -0.7257  0.1022
  957MOL0     H29181   7.229   1.881   2.128 -1.0533 -1.0769 -2.2339
  957MOL0     H29182   7.479   1.926   2.068  0.5845  0.2877  0.2666
  957MOL0     H29183   7.727   2.243   1.943  0.2085  2.4012 -2.0586
  957MOL0     H29184   7.958   2.355   1.950  0.3692 -0.2531 -0.2230
  957MOL0     H29185   8.330   2.346   1.738 -0.8319  2.4129 -2.0650
  957MOL0     H29186   8.268   2.214   1.647  1.8530  0.4992 -1.8772
  957MOL0     H29187   8.203   2.483   1.589 -0.1802  0.1038 -1.9136
  957MOL0     H29188   8.053   2.409   1.661 -2.2438 -1.9940 -3.4956
  957MOL0     H29189   8.204   2.274   1.441 -0.4803 -1.3004  0.3164
  957MOL0     H29190   8.084   2.406   1.417  2.7269  2.1969  1.6057
  957MOL0     H29191   7.931   2.236   1.569 -1.5439  0.3677 -1.0064
  957MOL0     H29192   8.069   2.129   1.546 -1.7094  1.2737  2.0396
  957MOL0     H29193   7.879   2.047   1.188 -0.9544 -0.2488 -0.0210
  957MOL0     H29194   8.126   2.020   1.747  0.8944 -2.5423  3.8137
  957MOL0     H29195   7.911   1.896   1.779 -1.5636  0.7473  0.6965
  958MOL0     O29196   1.256   8.125   1.331 -0.0563  0.4568 -0.0777
  958MOL0     C29197   1.320   8.083   1.424 -0.0918 -0.2471 -0.3972
  958MOL0     O29198   1.271   8.005   1.524 -0.1213  0.1656 -0.2474
  958MOL0     C29199   1.140   7.970   1.539 -0.2160 -0.0099  0.5161
  958MOL0     C29200   1.101   7.835   1.548 -0.5176  0.2104  0.4098
  958MOL0     C29201   0.966   7.800   1.560  0.0223  0.4689 -0.2145
  958MOL0     C29202   0.863   7.902   1.570 -0.7689  0.2029  0.0679
  958MOL0     O29203   0.729   7.891   1.564 -0.1427  0.5535  0.6510
  958MOL0     C29204   0.676   7.768   1.599 -0.1698  0.6850  0.4083
  958MOL0     C29205   0.530   7.791   1.606  1.0916 -0.0125  0.2029
  958MOL0     C29206   0.467   7.793   1.461 -0.0657 -0.4715  0.5124
  958MOL0     C29207   0.317   7.825   1.461  0.0867 -0.1754 -0.1400
  958MOL0     C29208   0.244   7.806   1.319  0.0698 -0.5487  0.1903
  958MOL0     C29209   0.210   7.664   1.283  0.0762 -0.7487 -0.8572
  958MOL0     C29210   0.080   7.616   1.350  0.4623 -0.6416  0.1194
  958MOL0     C29211   0.010   7.489   1.292  0.0993 -0.0544 -0.1620
  958MOL0     N29212  -0.071   7.519   1.174  0.1765  0.3050  0.3003
  958MOL0     C29213  -0.202   7.543   1.156  0.7594 -0.1696  0.2853
  958MOL0     C29214  -0.227   7.569   1.025  0.5519  1.5646 -0.4993
  958MOL0     C29215  -0.349   7.625   0.961  0.6225  0.0300  0.5437
  958MOL0     C29216  -0.441   7.540   0.866 -0.9670  1.0095 -0.1793
  958MOL0     C29217  -0.590   7.577   0.885  0.2589 -0.3771  0.2207
  958MOL0     C29218  -0.686   7.512   0.783  0.0278 -0.6234  0.0835
  958MOL0     O29219  -0.814   7.507   0.832  0.1117  0.2537 -0.0547
  958MOL0     C29220  -0.903   7.446   0.736  0.5340  0.5423  0.9186
  958MOL0     C29221  -1.028   7.411   0.779  1.1146  0.2731  0.0095
  958MOL0     C29222  -1.134   7.359   0.703 -0.3895 -0.0398  0.2719
  958MOL0     C29223  -1.266   7.344   0.768 -0.0346  0.0583  1.0823
  958MOL0     C29224  -1.103   7.328   0.561  0.7082 -0.9418 -0.1939
  958MOL0     C29225  -1.195   7.250   0.475  0.1163  0.1524  0.6149
  958MOL0     O29226  -1.303   7.183   0.526 -0.2213  0.0093  0.0439
  958MOL0     C29227  -1.381   7.106   0.442  0.5298  0.3544 -0.7722
  958MOL0     C29228  -1.450   7.145   0.329 -0.2825  0.1132  0.9298
  958MOL0     C29229  -1.531   7.062   0.252 -0.3012 -0.6546  0.3054
  958MOL0     C29230  -1.544   6.924   0.292 -0.5206 -0.6100  0.0370
  958MOL0     O29231  -1.628   6.850   0.223 -0.6012 -0.1542 -0.1358
  958MOL0     C29232  -1.609   6.708   0.203 -0.6520  0.6265  0.3397
  958MOL0     C29233  -1.699   6.645   0.101 -1.0847 -0.4112 -0.6908
  958MOL0     C29234  -1.844   6.689   0.112  0.4129  0.0227 -0.4082
  958MOL0     C29235  -1.850   6.806   0.001 -0.8085  0.1871  0.0226
  958MOL0     C29236  -1.982   6.873   0.008  0.4043  1.1991 -0.1710
  958MOL0     C29237  -2.033   6.933  -0.123 -0.2245  0.0965 -0.0715
  958MOL0     C29238  -2.156   7.021  -0.112  0.5640  0.0098 -0.0509
  958MOL0     C29239  -2.190   7.101  -0.233 -0.2429 -0.3377  0.1521
  958MOL0    Cl29240  -2.092   7.243  -0.221 -0.3262  0.2006  0.3556
  958MOL0     C29241  -1.467   6.885   0.400 -0.7061  1.4633 -0.0495
  958MOL0     C29242  -1.382   6.971   0.473 -0.2696 -0.7858 -0.2043
  958MOL0     O29243  -1.177   7.271   0.361  0.2336 -0.2698  0.4029
  958MOL0     C29244  -0.972   7.353   0.517 -0.1907 -0.2326 -0.2662
  958MOL0     C29245  -0.876   7.424   0.599  0.7614  0.5309 -1.1171
  958MOL0     N29246  -0.105   7.541   0.957 -0.2817 -0.1345 -0.1331
  958MOL0     N29247  -0.017   7.517   1.048 -0.1379 -0.0211  0.2423
  958MOL0     C29248   0.908   8.038   1.573  0.1065 -0.1119 -0.0285
  958MOL0     C29249   1.045   8.070   1.549 -0.1429  0.0341  0.0618
  958MOL0     C29250   1.473   8.098   1.418  0.7137  0.0485 -0.4561
  958MOL0     C29251   1.516   8.194   1.318  0.3216 -1.0833  0.2043
  958MOL0     C29252   1.649   8.221   1.312 -0.8031  0.0726 -0.5742
  958MOL0     C29253   1.742   8.143   1.379 -0.5900  0.2594 -0.6927
  958MOL0     O29254   1.880   8.158   1.375  0.1008 -0.1206  0.1301
  958MOL0     C29255   1.935   8.255   1.284 -0.4512  0.4117 -0.3351
  958MOL0     C29256   2.055   8.338   1.349  0.8078  0.9065 -0.6166
  958MOL0     C29257   2.097   8.464   1.281 -0.1237 -0.6614  0.0048
  958MOL0     C29258   2.240   8.499   1.339 -0.5817 -0.5920 -0.5785
  958MOL0     C29259   2.339   8.423   1.284 -0.5610  0.2549 -0.5080
  958MOL0     C29260   2.440   8.388   1.233  0.0253  0.0113  0.1611
  958MOL0     C29261   1.698   8.050   1.479 -0.2837 -0.3642  0.7494
  958MOL0     C29262   1.564   8.029   1.498  0.2318  0.9766 -0.4511
  958MOL0     H29263   1.164   7.751   1.523 -0.8520 -0.0252  0.3530
  958MOL0     H29264   0.929   7.699   1.548 -4.7943  1.6570  2.1284
  958MOL0     H29265   0.709   7.697   1.522  0.8837  0.5299  0.9722
  958MOL0     H29266   0.706   7.738   1.700 -3.0367 -2.6310  0.4776
  958MOL0     H29267   0.486   7.703   1.654 -0.2353  0.5464  0.0536
  958MOL0     H29268   0.526   7.883   1.665  3.7989 -0.5604  1.3914
  958MOL0     H29269   0.517   7.865   1.396  0.2383  0.7093  1.9775
  958MOL0     H29270   0.468   7.697   1.410 -0.9796 -0.4955  0.5140
  958MOL0     H29271   0.261   7.762   1.530 -0.4123  1.4403  0.9841
  958MOL0     H29272   0.303   7.926   1.501  2.0020  1.0144 -2.2245
  958MOL0     H29273   0.147   7.859   1.317 -1.7606 -3.6084  1.3559
  958MOL0     H29274   0.306   7.857   1.245 -2.6606  0.9966 -1.1838
  958MOL0     H29275   0.203   7.645   1.175 -1.3012  1.8056 -1.2972
  958MOL0     H29276   0.287   7.591   1.309  2.8707  2.3539  0.2853
  958MOL0     H29277   0.103   7.601   1.456 -0.5330 -2.4365  0.1245
  958MOL0     H29278   0.010   7.699   1.353  0.3125 -0.7089 -1.1705
  958MOL0     H29279  -0.053   7.447   1.371 -0.1787 -0.6210 -0.6860
  958MOL0     H29280   0.084   7.411   1.270  0.9994  1.4135 -2.7766
  958MOL0     H29281  -0.276   7.557   1.233  2.3439  0.9561  1.6716
  958MOL0     H29282  -0.412   7.664   1.041 -0.5776  1.0830 -0.8521
  958MOL0     H29283  -0.333   7.710   0.893 -1.2378  0.0183  0.0420
  958MOL0     H29284  -0.425   7.435   0.892 -2.2770  1.1502  1.3264
  958MOL0     H29285  -0.401   7.554   0.765  1.6253  1.9100  0.8745
  958MOL0     H29286  -0.601   7.685   0.871  1.6012 -0.4610 -1.8948
  958MOL0     H29287  -0.626   7.549   0.984 -1.5200 -1.0479 -0.5673
  958MOL0     H29288  -0.650   7.410   0.765 -0.9607 -1.1397  0.9606
  958MOL0     H29289  -0.681   7.583   0.700 -2.9804  2.5776  2.3383
  958MOL0     H29290  -1.045   7.430   0.885  2.4705  0.7718  0.1507
  958MOL0     H29291  -1.298   7.240   0.776 -0.9532  0.2990  0.7191
  958MOL0     H29292  -1.275   7.388   0.868 -2.0969  0.6345  0.6940
  958MOL0     H29293  -1.347   7.386   0.707 -0.6313 -2.3464  0.1183
  958MOL0     H29294  -1.443   7.245   0.286  0.9577 -0.5427 -0.4753
  958MOL0     H29295  -1.575   7.106   0.163  0.2936  2.9506  1.6074
  958MOL0     H29296  -1.509   6.684   0.167 -0.5307  2.3517 -0.5502
  958MOL0     H29297  -1.633   6.664   0.300  0.7779  0.2382  0.5399
  958MOL0     H29298  -1.658   6.653   0.000 -0.4234  0.9428 -0.3323
  958MOL0     H29299  -1.684   6.537   0.117  1.5823 -0.1779 -1.2335
  958MOL0     H29300  -1.873   6.728   0.210 -2.5449 -2.1618 -0.2953
  958MOL0     H29301  -1.906   6.603   0.088 -1.0665  0.6651  0.9279
  958MOL0     H29302  -1.775   6.886  -0.002  0.0071 -0.5841 -1.1737
  958MOL0     H29303  -1.836   6.759  -0.098 -0.9849  2.2370 -1.0269
  958MOL0     H29304  -1.970   6.955   0.079  0.1277  0.9355  0.1887
  958MOL0     H29305  -2.053   6.798   0.045  1.2422 -1.0536 -2.8235
  958MOL0     H29306  -1.956   7.000  -0.164  0.5120 -0.8064 -0.1988
  958MOL0     H29307  -2.055   6.855  -0.197 -2.2005  1.3756 -0.9117
  958MOL0     H29308  -2.154   7.089  -0.026 -0.3732  1.2931 -1.0113
  958MOL0     H29309  -2.240   6.954  -0.095  1.2274 -1.1948 -1.3570
  958MOL0     H29310  -2.296   7.128  -0.231 -0.4851 -1.2339  0.1185
  958MOL0     H29311  -2.179   7.046  -0.327 -2.3025 -0.5152 -0.0178
  958MOL0     H29312  -1.480   6.781   0.425  0.0458  1.4608  0.3700
  958MOL0     H29313  -1.322   6.942   0.559  0.9569  0.6650 -0.5373
  958MOL0     H29314  -0.940   7.333   0.415 -2.8104  0.3943 -1.3293
  958MOL0     H29315  -0.785   7.437   0.541  0.4438 -2.1036 -2.3589
  958MOL0     H29316   0.833   8.116   1.582  2.0563  1.8656  0.1137
  958MOL0     H29317   1.087   8.166   1.523  1.1919 -0.5107  0.0878
  958MOL0     H29318   1.441   8.247   1.260 -1.9001 -2.3770  1.7390
  958MOL0     H29319   1.668   8.302   1.243  0.4883 -0.7273 -1.1866
  958MOL0     H29320   1.969   8.204   1.194 -3.2035  0.4879 -1.5285
  958MOL0     H29321   1.866   8.337   1.265 -1.7174 -0.4979  0.1786
  958MOL0     H29322   2.137   8.267   1.361 -1.1838 -1.2233  1.4310
  958MOL0     H29323   2.023   8.359   1.452 -0.5581  1.8424 -1.2021
  958MOL0     H29324   2.020   8.536   1.310  0.8086  0.5313 -0.4062
  958MOL0     H29325   2.092   8.453   1.172 -0.5174 -0.9366  0.0500
  958MOL0     H29326   2.237   8.479   1.446 -0.8924  1.9441 -0.0395
  958MOL0     H29327   2.252   8.608   1.332 -1.6344 -0.4672 -0.5934
  958MOL0     H29328   2.530   8.360   1.182 -0.7990  2.0366 -2.6354
  958MOL0     H29329   1.777   7.999   1.534  0.2741 -0.2921  0.0229
  958MOL0     H29330   1.523   7.959   1.570  0.1584 -0.7941 -2.1358
  959MOL0     O29331   3.927   4.743   7.394 -0.2225 -0.2359  0.1085
  959MOL0     C29332   3.992   4.799   7.306  0.1573  0.0652  0.0754
  959MOL0     O29333   3.946   4.834   7.179 -0.4334 -0.0318 -0.0028
  959MOL0     C29334   3.825   4.781   7.142 -0.4894  0.3086  0.1789
  959MOL0     C29335   3.747   4.861   7.061 -0.2129  0.3114  0.2348
  959MOL0     C29336   3.617   4.822   7.026  0.3387  0.5890  0.5629
  959MOL0     C29337   3.561   4.697   7.054 -0.1400  0.6512  0.1319
  959MOL0     O29338   3.428   4.675   7.026  0.2886  0.3634 -0.4576
  959MOL0     C29339   3.377   4.541   7.023 -0.0681 -0.5711 -0.1249
  959MOL0     C29340   3.423   4.477   6.894  0.3756  0.5011 -0.1797
  959MOL0     C29341   3.327   4.497   6.780  0.2028 -0.8953 -0.7396
  959MOL0     C29342   3.382   4.617   6.709  0.3411 -0.3741  0.3513
  959MOL0     C29343   3.295   4.643   6.594 -0.1366  0.4882 -0.0131
  959MOL0     C29344   3.166   4.704   6.635 -0.3140 -0.1704  0.2318
  959MOL0     C29345   3.079   4.739   6.512  0.6003 -0.3169 -0.1942
  959MOL0     C29346   3.027   4.620   6.442  0.1022  0.2976  0.6944
  959MOL0     N29347   2.964   4.678   6.326 -0.6593  0.7188 -0.3830
  959MOL0     C29348   2.845   4.745   6.325  0.0327  0.2395  0.3758
  959MOL0     C29349   2.807   4.759   6.196 -0.4752  0.1675  0.3615
  959MOL0     C29350   2.685   4.840   6.158  0.1982 -0.1775  0.1334
  959MOL0     C29351   2.618   4.763   6.033 -1.1510 -0.3112 -0.2574
  959MOL0     C29352   2.486   4.822   5.989 -0.0437 -0.1777  0.4880
  959MOL0     C29353   2.444   4.778   5.856  0.1515  0.1021  0.1198
  959MOL0     O29354   2.380   4.651   5.879 -0.4880 -0.1422 -0.0678
  959MOL0     C29355   2.253   4.632   5.833 -0.8986  0.6968 -0.1728
  959MOL0     C29356   2.189   4.698   5.725  0.0285  0.4575 -0.1316
  959MOL0     C29357   2.069   4.647   5.667 -0.9769 -0.7106 -0.5291
  959MOL0     C29358   2.031   4.722   5.538  0.1562 -0.0902 -0.1652
  959MOL0     C29359   2.004   4.537   5.731  0.4210  0.3727 -0.6411
  959MOL0     C29360   1.878   4.478   5.680 -0.5573 -1.2750  0.7875
  959MOL0     O29361   1.819   4.561   5.596  0.2687 -0.0439 -0.1975
  959MOL0     C29362   1.683   4.536   5.581  0.2610 -0.0207 -0.1027
  959MOL0     C29363   1.590   4.529   5.690  0.3608  0.5038  0.2322
  959MOL0     C29364   1.457   4.474   5.670 -0.1175  0.0901 -0.6957
  959MOL0     C29365   1.414   4.451   5.541  0.5409  0.3049  0.2032
  959MOL0     O29366   1.284   4.412   5.498  0.4363 -0.1527 -0.3902
  959MOL0     C29367   1.175   4.392   5.599  0.7041 -0.0065  0.2811
  959MOL0     C29368   1.053   4.315   5.546  0.7995 -0.0860  0.2091
  959MOL0     C29369   0.928   4.337   5.631  0.1274 -0.6627 -0.4173
  959MOL0     C29370   0.789   4.323   5.568  0.3761 -0.0422 -0.5017
  959MOL0     C29371   0.768   4.186   5.504 -0.5450 -0.1241 -0.2286
  959MOL0     C29372   0.624   4.174   5.446 -0.5792 -0.3038 -0.1168
  959MOL0     C29373   0.611   4.072   5.329 -0.8288  0.1279 -0.8050
  959MOL0     C29374   0.715   4.094   5.209  0.3936  0.0727 -0.6155
  959MOL0    Cl29375   0.714   3.969   5.073 -0.0218 -0.4122  0.4741
  959MOL0     C29376   1.507   4.480   5.438 -0.2179  0.0269 -0.5656
  959MOL0     C29377   1.637   4.516   5.453  0.2835 -0.2884 -0.0115
  959MOL0     O29378   1.830   4.376   5.718  0.3988  0.1099 -0.7698
  959MOL0     C29379   2.063   4.472   5.839 -0.4226 -0.1892 -0.5920
  959MOL0     C29380   2.188   4.524   5.890 -1.1349  0.0499 -0.1975
  959MOL0     N29381   2.904   4.704   6.117  1.1487 -0.5687  0.6728
  959MOL0     N29382   2.996   4.657   6.191 -0.1371 -0.0172 -0.4028
  959MOL0     C29383   3.639   4.610   7.138 -0.3559  0.0586  0.7220
  959MOL0     C29384   3.765   4.658   7.178  0.2201 -1.1145 -0.4977
  959MOL0     C29385   4.131   4.855   7.339 -0.3376 -0.2195  0.1517
  959MOL0     C29386   4.208   4.925   7.240 -0.3425  1.2705 -0.0915
  959MOL0     C29387   4.330   4.983   7.272  0.2025  0.0031 -0.1046
  959MOL0     C29388   4.381   4.960   7.398  0.5454  0.2461 -0.1803
  959MOL0     O29389   4.482   5.030   7.458  0.5873  0.3697  0.4724
  959MOL0     C29390   4.595   5.060   7.378 -0.3307 -0.2787 -0.0250
  959MOL0     C29391   4.724   5.035   7.460 -0.1829  0.3008 -0.0455
  959MOL0     C29392   4.746   5.147   7.570 -0.6278 -0.1457 -0.1490
  959MOL0     C29393   4.870   5.095   7.658  0.2558 -0.9450  0.4244
  959MOL0     C29394   4.995   5.121   7.589  0.0901 -0.0475 -0.4038
  959MOL0     C29395   5.095   5.143   7.521  1.0483 -1.0180 -0.5155
  959MOL0     C29396   4.303   4.895   7.490 -0.2738  0.2778 -0.3911
  959MOL0     C29397   4.179   4.835   7.462 -0.1256  0.6031  0.1063
  959MOL0     H29398   3.775   4.965   7.045  0.3167 -0.1325 -2.1821
  959MOL0     H29399   3.559   4.888   6.962  0.0406  0.1425  0.3715
  959MOL0     H29400   3.394   4.484   7.114 -1.4508  0.9011  1.1217
  959MOL0     H29401   3.272   4.569   7.030  0.7035  2.6003  0.4514
  959MOL0     H29402   3.526   4.510   6.875  1.5784 -0.6826  3.4157
  959MOL0     H29403   3.431   4.368   6.903 -3.1075 -0.2012 -3.3602
  959MOL0     H29404   3.323   4.407   6.719  0.7416  0.4233 -2.8145
  959MOL0     H29405   3.223   4.510   6.812  0.1209  1.3768 -1.7672
  959MOL0     H29406   3.377   4.700   6.779 -3.4786 -0.4267  0.3392
  959MOL0     H29407   3.487   4.600   6.682  0.4055 -1.0722  1.0178
  959MOL0     H29408   3.350   4.715   6.532  0.0947 -0.3671 -0.8299
  959MOL0     H29409   3.280   4.548   6.541 -0.2487  0.7879 -0.5283
  959MOL0     H29410   3.108   4.632   6.695 -0.6582 -0.0378  0.0623
  959MOL0     H29411   3.180   4.797   6.691 -2.3787  1.8213 -2.3150
  959MOL0     H29412   2.987   4.794   6.537  1.0792  0.3914  0.0495
  959MOL0     H29413   3.135   4.802   6.442  0.0082  0.2448 -0.1777
  959MOL0     H29414   2.950   4.570   6.501  0.1952  3.4754  3.8928
  959MOL0     H29415   3.104   4.547   6.414  0.0235  0.2541  0.5941
  959MOL0     H29416   2.797   4.796   6.408 -0.2829  1.1815 -0.3644
  959MOL0     H29417   2.622   4.839   6.247  2.2592 -4.1012  1.8146
  959MOL0     H29418   2.703   4.944   6.131  0.0748  1.1653  4.5630
  959MOL0     H29419   2.591   4.666   6.074  1.2399 -1.1229 -0.4182
  959MOL0     H29420   2.692   4.757   5.953 -3.0289  0.7539 -2.1673
  959MOL0     H29421   2.500   4.929   5.974  1.0163 -0.4985 -1.0671
  959MOL0     H29422   2.410   4.803   6.065 -0.6328  1.2502  0.2786
  959MOL0     H29423   2.534   4.767   5.794 -0.5677 -2.7195 -0.5495
  959MOL0     H29424   2.376   4.850   5.810 -1.9350 -2.6025 -1.2859
  959MOL0     H29425   2.245   4.774   5.671 -1.6818 -0.1473 -2.9816
  959MOL0     H29426   1.987   4.671   5.452 -1.8720  1.0023  0.1453
  959MOL0     H29427   1.968   4.807   5.568  1.8347  1.6054 -1.2222
  959MOL0     H29428   2.118   4.771   5.494 -0.6273 -0.0944 -1.7772
  959MOL0     H29429   1.613   4.556   5.792  0.4744 -0.9653  0.6163
  959MOL0     H29430   1.408   4.458   5.766  1.5003  1.6436  0.4426
  959MOL0     H29431   1.207   4.321   5.676  0.3636  0.8295  1.2018
  959MOL0     H29432   1.139   4.482   5.649 -2.0106 -1.8733  1.9549
  959MOL0     H29433   1.035   4.360   5.448  1.4691 -0.8658 -0.2817
  959MOL0     H29434   1.079   4.211   5.522 -0.1135 -0.3269  0.2194
  959MOL0     H29435   0.926   4.445   5.647 -0.9789 -0.7820  0.3742
  959MOL0     H29436   0.917   4.273   5.719 -0.1750  1.1794  0.9580
  959MOL0     H29437   0.718   4.330   5.650 -0.3920 -2.8668 -0.8198
  959MOL0     H29438   0.767   4.403   5.498 -1.3090  0.5508  0.6450
  959MOL0     H29439   0.782   4.109   5.580 -0.2479 -0.2495 -0.4100
  959MOL0     H29440   0.850   4.166   5.434 -0.0010  1.8708 -0.2336
  959MOL0     H29441   0.560   4.145   5.531  0.4053 -5.0983 -0.6798
  959MOL0     H29442   0.601   4.271   5.404  0.1633  0.7489  1.7601
  959MOL0     H29443   0.510   4.068   5.287 -0.6843  0.7897 -1.2093
  959MOL0     H29444   0.635   3.971   5.364  0.4939  0.7805  0.2790
  959MOL0     H29445   0.818   4.079   5.242 -0.5062 -1.6833  1.6791
  959MOL0     H29446   0.699   4.197   5.175 -7.2554  1.3249  4.2815
  959MOL0     H29447   1.478   4.483   5.334  0.1034  0.2197 -0.6503
  959MOL0     H29448   1.701   4.523   5.365  1.3281  0.6703  0.7822
  959MOL0     H29449   2.017   4.381   5.876 -0.7114 -0.6678 -2.0890
  959MOL0     H29450   2.245   4.476   5.968 -2.8144 -1.2523  0.2785
  959MOL0     H29451   3.593   4.518   7.173 -0.7789 -0.9003 -2.0766
  959MOL0     H29452   3.831   4.607   7.247 -2.4324 -1.3323  2.1237
  959MOL0     H29453   4.177   4.937   7.137 -1.7195 -1.9372 -0.1712
  959MOL0     H29454   4.380   5.023   7.185 -3.2552  1.0066 -1.7868
  959MOL0     H29455   4.591   4.997   7.289  0.1487 -2.1133  1.2006
  959MOL0     H29456   4.593   5.167   7.352 -1.9103 -0.4024 -0.5202
  959MOL0     H29457   4.806   5.016   7.390  2.1542 -1.1469  2.8660
  959MOL0     H29458   4.706   4.939   7.509  1.4548  0.0285  0.0877
  959MOL0     H29459   4.661   5.145   7.640 -0.4164 -1.0919  0.1031
  959MOL0     H29460   4.752   5.243   7.518 -0.3817 -1.0907 -1.9392
  959MOL0     H29461   4.853   4.992   7.690  2.7930 -1.7342 -0.4798
  959MOL0     H29462   4.874   5.159   7.747  0.8507 -1.7446  0.9849
  959MOL0     H29463   5.178   5.163   7.457  2.6138 -2.1615  1.0709
  959MOL0     H29464   4.344   4.873   7.588 -1.2370 -1.0026 -0.2472
  959MOL0     H29465   4.121   4.768   7.524 -3.1401 -1.1571 -4.1638
  960MOL0     O29466   2.097   1.718   3.602 -0.5015  0.1740 -0.0894
  960MOL0     C29467   2.068   1.731   3.484 -0.2708 -0.1305  0.2514
  960MOL0     O29468   2.145   1.800   3.394  0.2151 -0.4019  0.0655
  960MOL0     C29469   2.251   1.868   3.438 -0.4835  0.0227 -0.5749
  960MOL0     C29470   2.383   1.862   3.380  0.5474 -0.0503  0.4406
  960MOL0     C29471   2.492   1.948   3.405  0.2710  0.5371  1.3887
  960MOL0     C29472   2.473   2.053   3.496  0.7225  0.1930 -0.3192
  960MOL0     O29473   2.577   2.141   3.523  0.0890  0.3839  0.1231
  960MOL0     C29474   2.710   2.082   3.523  0.4266  0.0447  0.7611
  960MOL0     C29475   2.817   2.184   3.574  0.3666 -0.1122 -0.0443
  960MOL0     C29476   2.854   2.307   3.487 -0.8994 -0.4506  0.2117
  960MOL0     C29477   2.743   2.360   3.394 -0.9121 -0.6872 -0.3590
  960MOL0     C29478   2.800   2.462   3.297  0.4397 -0.1278  0.0191
  960MOL0     C29479   2.769   2.611   3.342 -0.0055  0.4691  0.1116
  960MOL0     C29480   2.818   2.717   3.243 -1.0002  0.0843  0.1053
  960MOL0     C29481   2.975   2.716   3.232 -1.0914 -0.6332 -0.5703
  960MOL0     N29482   3.038   2.818   3.320  0.3973  0.4383  0.1701
  960MOL0     C29483   3.026   2.824   3.456 -0.2589 -0.0419 -0.2035
  960MOL0     C29484   3.116   2.922   3.501  0.2817  0.1640 -0.0470
  960MOL0     C29485   3.154   2.951   3.636 -0.8523 -0.8474 -0.6675
  960MOL0     C29486   3.260   2.849   3.689  0.3709  0.0761  0.4644
  960MOL0     C29487   3.345   2.907   3.801 -0.0101  0.5610 -0.3245
  960MOL0     C29488   3.476   2.838   3.797 -0.3247 -0.2233 -0.1413
  960MOL0     O29489   3.555   2.890   3.690 -0.3188  0.2207 -0.1373
  960MOL0     C29490   3.691   2.894   3.707 -0.0719 -0.6033 -0.0397
  960MOL0     C29491   3.758   3.000   3.647  0.2526  0.0797  0.1203
  960MOL0     C29492   3.893   3.008   3.646  0.3873  0.1809 -0.7480
  960MOL0     C29493   3.953   3.140   3.594 -1.0757  0.1267 -0.2350
  960MOL0     C29494   3.971   2.892   3.690  0.3743 -0.3775 -0.3131
  960MOL0     C29495   4.112   2.882   3.677  0.1307 -1.0083 -0.1408
  960MOL0     O29496   4.166   2.774   3.742  0.0217 -0.0746 -0.0032
  960MOL0     C29497   4.303   2.760   3.762  0.1370 -0.4076  0.8984
  960MOL0     C29498   4.402   2.816   3.682 -0.6101  0.0716 -0.0364
  960MOL0     C29499   4.541   2.809   3.716  0.2245  0.2128 -0.0056
  960MOL0     C29500   4.580   2.757   3.838  0.5067  0.5773  0.2451
  960MOL0     O29501   4.711   2.735   3.880  0.3977  0.4425  0.1075
  960MOL0     C29502   4.823   2.808   3.814 -0.1853  0.6732 -0.2515
  960MOL0     C29503   4.880   2.724   3.697  0.1821  0.6547 -0.5909
  960MOL0     C29504   4.997   2.802   3.623  0.4860  0.0634  0.7358
  960MOL0     C29505   5.079   2.732   3.524 -0.2090 -0.2514  0.1695
  960MOL0     C29506   5.172   2.828   3.457 -0.7891 -0.1379  0.0843
  960MOL0     C29507   5.298   2.869   3.543 -0.4976  0.1131  0.4787
  960MOL0     C29508   5.396   2.756   3.562 -0.5628 -0.0822 -0.2027
  960MOL0     C29509   5.512   2.783   3.663  0.5211  0.5888 -0.2512
  960MOL0    Cl29510   5.449   2.827   3.819  0.3535 -0.8228  0.1352
  960MOL0     C29511   4.478   2.708   3.917  0.4729  0.3309  0.3558
  960MOL0     C29512   4.344   2.712   3.882  0.8844  0.6307 -0.2085
  960MOL0     O29513   4.180   2.956   3.603 -0.5275 -0.8203 -1.0267
  960MOL0     C29514   3.901   2.785   3.750 -0.5110 -0.1531  0.8470
  960MOL0     C29515   3.767   2.781   3.758 -0.4058 -0.3553 -0.1105
  960MOL0     N29516   3.178   2.972   3.390  0.2068 -0.5288  0.1757
  960MOL0     N29517   3.126   2.917   3.283 -1.0026  0.6694 -0.2913
  960MOL0     C29518   2.345   2.067   3.560 -0.7921  0.0254 -0.4709
  960MOL0     C29519   2.240   1.979   3.531 -0.2244  0.7441  0.5410
  960MOL0     C29520   1.958   1.661   3.431  1.1888  0.1505 -0.3105
  960MOL0     C29521   1.915   1.681   3.303  0.8713  0.2711 -0.0257
  960MOL0     C29522   1.796   1.625   3.256 -0.7515  0.9059  0.5682
  960MOL0     C29523   1.724   1.538   3.335  0.2890 -0.1823 -0.7422
  960MOL0     O29524   1.613   1.471   3.299 -0.3212 -0.4129 -0.1805
  960MOL0     C29525   1.580   1.431   3.164 -0.0159  0.4134  0.2482
  960MOL0     C29526   1.438   1.359   3.177  0.6744  0.1764 -0.1633
  960MOL0     C29527   1.360   1.334   3.038 -0.0543 -0.1533 -0.0961
  960MOL0     C29528   1.323   1.463   2.962  0.3408 -0.1262 -0.0755
  960MOL0     C29529   1.239   1.415   2.857  0.5951  0.1321 -0.3078
  960MOL0     C29530   1.162   1.375   2.775  0.3366 -0.3222  0.8487
  960MOL0     C29531   1.774   1.505   3.456 -0.7311 -0.3403 -0.6051
  960MOL0     C29532   1.888   1.579   3.510 -0.0771  0.9977 -0.7286
  960MOL0     H29533   2.400   1.774   3.318 -0.8549 -1.2329  1.6662
  960MOL0     H29534   2.593   1.938   3.366  0.2172  0.5079  1.2555
  960MOL0     H29535   2.723   1.981   3.563 -1.3071 -0.1622  0.8955
  960MOL0     H29536   2.732   2.070   3.416 -1.8083 -1.2860  0.3849
  960MOL0     H29537   2.789   2.212   3.676 -2.9584  4.0299 -1.7555
  960MOL0     H29538   2.911   2.132   3.591  0.5406  0.2183  0.0193
  960MOL0     H29539   2.886   2.388   3.553 -0.7232  0.1010 -0.5387
  960MOL0     H29540   2.938   2.281   3.422 -0.6677 -2.4264  1.2051
  960MOL0     H29541   2.705   2.270   3.344 -1.7509 -0.7988  0.4447
  960MOL0     H29542   2.665   2.403   3.457 -1.7058 -3.5514  0.7556
  960MOL0     H29543   2.905   2.442   3.276  1.0683  1.5652  1.3674
  960MOL0     H29544   2.741   2.457   3.205  1.7103  1.7919 -0.9529
  960MOL0     H29545   2.662   2.624   3.358 -0.1441  1.4085 -1.3964
  960MOL0     H29546   2.818   2.636   3.437  1.1446  0.6789 -0.5232
  960MOL0     H29547   2.785   2.679   3.145 -2.7459 -1.5197  1.2552
  960MOL0     H29548   2.783   2.819   3.262 -0.4635 -0.1384  2.6607
  960MOL0     H29549   3.000   2.730   3.127  1.3360 -2.5012 -0.3190
  960MOL0     H29550   3.017   2.621   3.268 -1.3164 -0.4214  0.2961
  960MOL0     H29551   2.962   2.769   3.524 -0.8766 -1.9045 -2.1637
  960MOL0     H29552   3.206   3.047   3.629  1.7056 -2.1246 -0.2951
  960MOL0     H29553   3.064   2.948   3.698  0.0268  0.0508  0.7115
  960MOL0     H29554   3.329   2.816   3.611  0.9442  1.2323  0.4681
  960MOL0     H29555   3.206   2.758   3.716 -0.1160  0.2181 -0.0058
  960MOL0     H29556   3.294   2.885   3.894  1.3492  1.2951  0.6300
  960MOL0     H29557   3.355   3.016   3.788  0.0141  0.2292 -4.5819
  960MOL0     H29558   3.464   2.729   3.802  0.8445 -0.3201  3.9621
  960MOL0     H29559   3.529   2.855   3.891  1.5836 -2.6676 -0.6471
  960MOL0     H29560   3.678   3.067   3.618 -2.2071 -0.5713  4.5091
  960MOL0     H29561   4.048   3.163   3.642 -1.9778  0.2272  1.5628
  960MOL0     H29562   3.987   3.123   3.491  1.8120 -0.5019  0.7222
  960MOL0     H29563   3.882   3.222   3.590  0.9766  2.0171  0.0697
  960MOL0     H29564   4.382   2.860   3.585 -2.0127  1.0123  0.6490
  960MOL0     H29565   4.608   2.847   3.639 -1.2751 -0.1459 -1.5298
  960MOL0     H29566   4.797   2.907   3.776 -2.1763 -0.8148 -3.2231
  960MOL0     H29567   4.897   2.812   3.895  1.9594 -0.6009 -2.0324
  960MOL0     H29568   4.912   2.628   3.738 -2.2467 -0.1936 -0.4938
  960MOL0     H29569   4.797   2.700   3.630 -1.1930 -1.6466  1.7374
  960MOL0     H29570   5.070   2.839   3.696  2.7985  0.2051 -1.5130
  960MOL0     H29571   4.959   2.889   3.569 -2.1636 -0.7413  1.1182
  960MOL0     H29572   5.127   2.641   3.562  1.8625  0.4511 -0.6423
  960MOL0     H29573   5.006   2.698   3.450  1.1821 -3.3088  0.0162
  960MOL0     H29574   5.124   2.919   3.423  2.6311  2.0639  0.5983
  960MOL0     H29575   5.194   2.783   3.360  0.6514  0.4523  0.1039
  960MOL0     H29576   5.355   2.949   3.496 -0.9711 -0.8081 -1.8026
  960MOL0     H29577   5.271   2.902   3.644  1.4996  2.9141  0.2045
  960MOL0     H29578   5.435   2.714   3.468 -1.8570 -1.4092 -0.1825
  960MOL0     H29579   5.333   2.674   3.597 -0.5290 -0.5953 -1.2988
  960MOL0     H29580   5.573   2.863   3.620  0.2337  1.4499  0.8996
  960MOL0     H29581   5.571   2.692   3.679 -1.1194 -0.3031  0.9807
  960MOL0     H29582   4.505   2.661   4.011  0.5101  0.1012  0.2313
  960MOL0     H29583   4.269   2.678   3.952  0.0322 -0.1674 -1.4738
  960MOL0     H29584   3.952   2.694   3.782 -0.3200 -0.1432  0.5698
  960MOL0     H29585   3.711   2.691   3.784  1.6370 -0.9296  2.8368
  960MOL0     H29586   2.324   2.143   3.635 -2.3046 -1.0308  0.2330
  960MOL0     H29587   2.145   2.000   3.579  0.4526 -1.0295  2.8626
  960MOL0     H29588   1.976   1.746   3.241  1.6578  2.2136  2.5963
  960MOL0     H29589   1.765   1.647   3.154 -3.3017 -0.8872  0.8649
  960MOL0     H29590   1.576   1.518   3.097 -0.1534  0.4551  0.3109
  960MOL0     H29591   1.658   1.363   3.129  1.8788  1.8890  1.3856
  960MOL0     H29592   1.366   1.425   3.227  1.5018  2.0370 -1.2761
  960MOL0     H29593   1.441   1.267   3.235  1.0512 -0.3774 -1.0423
  960MOL0     H29594   1.275   1.272   3.067  1.3282 -1.0469  2.3564
  960MOL0     H29595   1.428   1.274   2.976  1.4678  0.9799  0.4047
  960MOL0     H29596   1.416   1.502   2.920 -0.1804  0.1662 -1.0010
  960MOL0     H29597   1.277   1.532   3.034  4.7678 -0.5003  3.5335
  960MOL0     H29598   1.085   1.335   2.712  0.8151 -1.3700  0.9164
  960MOL0     H29599   1.733   1.431   3.524  0.7897  0.0938  0.8494
  960MOL0     H29600   1.930   1.541   3.602  2.0525  3.3642 -0.6118
  961MOL0     O29601   2.003   1.207   5.295  0.2702 -0.1122  0.1125
  961MOL0     C29602   2.081   1.260   5.210  0.5613  0.3667 -0.0380
  961MOL0     O29603   2.053   1.284   5.084 -0.1059 -0.0505  0.2457
  961MOL0     C29604   1.921   1.295   5.040  0.0434  0.7377 -0.8163
  961MOL0     C29605   1.896   1.278   4.907  0.9248 -0.9692 -0.1822
  961MOL0     C29606   1.768   1.298   4.851 -0.0791  0.3219 -0.0386
  961MOL0     C29607   1.669   1.361   4.928  0.3832  0.1495 -0.5743
  961MOL0     O29608   1.548   1.400   4.869 -0.4679  0.2408  0.1435
  961MOL0     C29609   1.531   1.392   4.728 -0.3673 -0.1507  0.7551
  961MOL0     C29610   1.397   1.443   4.680  1.0660 -0.1236  0.3205
  961MOL0     C29611   1.405   1.443   4.523 -0.0255 -0.0648 -0.2218
  961MOL0     C29612   1.264   1.449   4.458 -0.8188  1.5878  0.6208
  961MOL0     C29613   1.205   1.305   4.433 -0.5776 -0.6018  0.4024
  961MOL0     C29614   1.277   1.238   4.316  0.7840 -0.1215 -0.2913
  961MOL0     C29615   1.176   1.154   4.229  0.5101  0.2317 -0.5575
  961MOL0     C29616   1.102   1.237   4.124 -1.1108  0.0522 -0.6933
  961MOL0     N29617   0.983   1.169   4.080  0.8677 -1.1223 -0.0937
  961MOL0     C29618   0.873   1.153   4.160 -0.6001  0.4506  0.6664
  961MOL0     C29619   0.767   1.124   4.076 -0.8283 -0.1004  0.2427
  961MOL0     C29620   0.625   1.101   4.091  0.2172 -0.2950 -0.8137
  961MOL0     C29621   0.550   1.233   4.122 -0.6433 -0.7323  0.2893
  961MOL0     C29622   0.421   1.198   4.194 -0.2183  1.1292  0.5439
  961MOL0     C29623   0.326   1.301   4.189  0.7151 -1.0127  0.3439
  961MOL0     O29624   0.253   1.342   4.311  0.2190  0.2171  0.5630
  961MOL0     C29625   0.128   1.290   4.339 -0.5776  0.1344  0.1346
  961MOL0     C29626   0.059   1.181   4.284  0.3656 -0.9923  0.8864
  961MOL0     C29627  -0.060   1.136   4.340  0.2608 -0.1047  0.1444
  961MOL0     C29628  -0.133   1.026   4.262  0.4157 -1.1403 -1.1924
  961MOL0     C29629  -0.121   1.214   4.445  0.3847 -0.4086  0.1678
  961MOL0     C29630  -0.260   1.194   4.499 -0.4592  1.0814 -1.0930
  961MOL0     O29631  -0.335   1.304   4.522 -0.2554  0.0675 -0.5894
  961MOL0     C29632  -0.455   1.282   4.572  0.7964 -0.3138  0.3134
  961MOL0     C29633  -0.496   1.193   4.671  0.3355  0.5659 -0.0673
  961MOL0     C29634  -0.628   1.156   4.705 -0.5613 -0.8587  0.0742
  961MOL0     C29635  -0.727   1.215   4.620 -0.2214 -1.0635 -1.3628
  961MOL0     O29636  -0.863   1.191   4.625 -1.0202  0.5240  0.4099
  961MOL0     C29637  -0.920   1.105   4.727  0.3742  0.0647 -0.2469
  961MOL0     C29638  -1.065   1.093   4.691 -0.2896 -0.3780  0.4991
  961MOL0     C29639  -1.145   1.012   4.796 -0.8980  0.9262  0.5282
  961MOL0     C29640  -1.139   1.085   4.931 -0.1290 -0.9893 -0.0174
  961MOL0     C29641  -1.203   0.997   5.036  1.2893  0.0353  0.9088
  961MOL0     C29642  -1.357   0.981   5.044  0.4264  0.3331 -0.3932
  961MOL0     C29643  -1.429   1.115   5.034  0.4553 -0.1329  0.0068
  961MOL0     C29644  -1.573   1.113   5.088 -0.6150 -0.8449  0.6671
  961MOL0    Cl29645  -1.650   0.992   4.986  0.6709  0.6696  0.1856
  961MOL0     C29646  -0.693   1.300   4.517  0.1567  0.2466 -0.8756
  961MOL0     C29647  -0.561   1.336   4.499  0.0751  0.0843  1.3351
  961MOL0     O29648  -0.298   1.075   4.500 -0.3832  0.1293 -0.0594
  961MOL0     C29649  -0.050   1.328   4.500 -0.7593  0.4746  0.2455
  961MOL0     C29650   0.070   1.362   4.442 -0.0887 -0.4727 -0.4708
  961MOL0     N29651   0.834   1.104   3.957  0.9648  0.3903  0.5431
  961MOL0     N29652   0.952   1.150   3.952  0.3935 -0.0309  0.1471
  961MOL0     C29653   1.689   1.379   5.064 -0.2703 -0.6186  0.6404
  961MOL0     C29654   1.811   1.340   5.121 -0.2793 -0.2708 -0.5664
  961MOL0     C29655   2.215   1.292   5.243  0.1438 -0.4945  0.7733
  961MOL0     C29656   2.251   1.301   5.376 -0.7755 -0.2213 -0.2361
  961MOL0     C29657   2.380   1.342   5.419 -0.3644 -0.1233 -0.3249
  961MOL0     C29658   2.479   1.373   5.319 -0.1337  0.1701 -0.1430
  961MOL0     O29659   2.610   1.409   5.351 -0.2098  0.1159 -0.5923
  961MOL0     C29660   2.662   1.353   5.476  0.2238 -0.2717  0.4536
  961MOL0     C29661   2.817   1.328   5.462  0.3352 -0.5749  0.5468
  961MOL0     C29662   2.902   1.459   5.423  0.2168  0.2558  0.2952
  961MOL0     C29663   3.051   1.454   5.460 -0.3264 -0.0805  0.6265
  961MOL0     C29664   3.122   1.566   5.404  0.4067 -1.3761  0.4031
  961MOL0     C29665   3.182   1.653   5.352 -0.2336  0.0470 -0.6130
  961MOL0     C29666   2.434   1.371   5.186 -0.6130 -0.3234  1.0122
  961MOL0     C29667   2.302   1.339   5.147  0.3035  0.7007  0.0690
  961MOL0     H29668   1.983   1.239   4.855  4.3287  4.0493  0.9999
  961MOL0     H29669   1.747   1.270   4.748  0.5138 -0.2548 -0.0132
  961MOL0     H29670   1.610   1.446   4.676  1.2401 -1.9976  1.1316
  961MOL0     H29671   1.520   1.288   4.695 -0.0978  0.6744 -2.1232
  961MOL0     H29672   1.319   1.384   4.729 -1.1287  2.3851  0.0508
  961MOL0     H29673   1.390   1.545   4.718  1.8316  1.5381 -3.4988
  961MOL0     H29674   1.456   1.539   4.509  0.4787 -0.0721  1.3971
  961MOL0     H29675   1.460   1.361   4.477 -0.2562 -1.5950  2.0762
  961MOL0     H29676   1.196   1.510   4.518  2.1536  1.2143  4.8493
  961MOL0     H29677   1.259   1.506   4.365 -2.2798  3.0390  1.5298
  961MOL0     H29678   1.203   1.247   4.526  2.5419 -0.1301  0.8871
  961MOL0     H29679   1.099   1.320   4.409 -0.4789 -1.9679 -1.0258
  961MOL0     H29680   1.321   1.319   4.255  0.7577 -0.7227 -1.1286
  961MOL0     H29681   1.364   1.184   4.355  2.0567 -0.0591 -2.8154
  961MOL0     H29682   1.228   1.067   4.187 -0.4939  0.6783 -2.9234
  961MOL0     H29683   1.107   1.119   4.306  0.4093 -0.0778 -0.7875
  961MOL0     H29684   1.165   1.255   4.036 -1.6637  1.4788 -0.8099
  961MOL0     H29685   1.074   1.336   4.160 -0.4238  0.2875 -0.7844
  961MOL0     H29686   0.870   1.175   4.266  1.3898 -1.5738  1.2119
  961MOL0     H29687   0.588   1.061   3.997  1.9201  0.6772 -1.9514
  961MOL0     H29688   0.620   1.031   4.175 -2.1103 -1.4423 -1.8402
  961MOL0     H29689   0.540   1.296   4.033  0.9035  1.6717  1.6991
  961MOL0     H29690   0.615   1.292   4.188  1.1964 -3.6609  1.2953
  961MOL0     H29691   0.428   1.168   4.299 -1.9308  0.9333  0.6234
  961MOL0     H29692   0.387   1.110   4.139  1.1825  1.2080 -0.4925
  961MOL0     H29693   0.255   1.274   4.111  0.0617 -1.5666  1.1115
  961MOL0     H29694   0.375   1.387   4.143 -0.3051 -0.5679  0.0457
  961MOL0     H29695   0.102   1.129   4.198  1.2860 -1.0106  1.3510
  961MOL0     H29696  -0.099   1.021   4.158  3.1035 -2.9259 -0.3170
  961MOL0     H29697  -0.109   0.930   4.307  1.1444 -0.0437  0.9076
  961MOL0     H29698  -0.241   1.045   4.263  0.6183  0.1744 -0.2325
  961MOL0     H29699  -0.416   1.149   4.730  0.0038  1.6178  1.2480
  961MOL0     H29700  -0.654   1.084   4.781 -1.4625  1.8086  2.4745
  961MOL0     H29701  -0.859   1.014   4.717  0.3024  0.1302 -1.4370
  961MOL0     H29702  -0.917   1.168   4.817 -0.0353  0.7207 -0.6871
  961MOL0     H29703  -1.116   1.188   4.675  0.2863 -0.0446  0.6198
  961MOL0     H29704  -1.067   1.055   4.588 -1.9145  2.4133 -0.6114
  961MOL0     H29705  -1.114   0.907   4.808  1.3946  1.2236 -1.9613
  961MOL0     H29706  -1.250   1.005   4.768 -1.0191  0.5478  1.0523
  961MOL0     H29707  -1.036   1.106   4.958 -1.0333  3.7591  0.5396
  961MOL0     H29708  -1.201   1.175   4.926 -0.6032 -1.1829  1.5619
  961MOL0     H29709  -1.180   1.048   5.130 -0.6242 -0.2840  1.6101
  961MOL0     H29710  -1.156   0.898   5.033 -0.2511 -0.7104 -2.3521
  961MOL0     H29711  -1.389   0.908   4.970  0.3140 -0.6559  0.6127
  961MOL0     H29712  -1.376   0.937   5.142 -1.7349  0.9987 -0.4684
  961MOL0     H29713  -1.445   1.149   4.932  0.5163 -0.6805 -0.1859
  961MOL0     H29714  -1.374   1.193   5.088  1.3691 -0.7928  0.0513
  961MOL0     H29715  -1.628   1.207   5.076 -3.5469 -2.5370 -0.2980
  961MOL0     H29716  -1.575   1.082   5.193  2.3409 -0.9022  0.7913
  961MOL0     H29717  -0.761   1.337   4.440 -0.5805 -3.4087 -2.1622
  961MOL0     H29718  -0.544   1.403   4.415 -3.2468 -2.3128 -1.4764
  961MOL0     H29719  -0.092   1.381   4.585  0.0469 -2.6325  2.7774
  961MOL0     H29720   0.117   1.454   4.475 -3.2978  0.8377  0.9714
  961MOL0     H29721   1.615   1.430   5.124 -0.2253  0.2820 -0.0593
  961MOL0     H29722   1.822   1.355   5.228 -1.2732 -0.2926 -0.4587
  961MOL0     H29723   2.177   1.288   5.454 -1.9559 -1.4468 -1.5237
  961MOL0     H29724   2.400   1.348   5.526  1.9448 -0.3898 -0.6907
  961MOL0     H29725   2.654   1.432   5.551  2.1572  0.0673  0.3554
  961MOL0     H29726   2.607   1.268   5.517 -0.9545 -0.2019 -0.8857
  961MOL0     H29727   2.840   1.254   5.385  0.4095  2.8376 -3.0118
  961MOL0     H29728   2.854   1.274   5.551  3.3599 -3.6088 -2.2590
  961MOL0     H29729   2.851   1.537   5.482 -2.0966 -2.5720  2.3425
  961MOL0     H29730   2.900   1.478   5.315  1.3689 -1.6957 -0.1154
  961MOL0     H29731   3.103   1.368   5.416  1.6674  2.2875 -2.0510
  961MOL0     H29732   3.064   1.454   5.569 -0.9808  0.3330  0.7066
  961MOL0     H29733   3.232   1.727   5.292 -0.3496  3.2757  2.8729
  961MOL0     H29734   2.493   1.396   5.099  2.0413 -4.2224  1.4154
  961MOL0     H29735   2.287   1.347   5.040 -0.4115 -1.1193 -0.0201
  962MOL0     O29736  11.195   4.131   9.996 -0.8436  0.2748 -0.3804
  962MOL0     C29737  11.277   4.050   9.953 -0.1820  0.2982 -0.3189
  962MOL0     O29738  11.271   3.919   9.966  0.4456  0.4734  0.1850
  962MOL0     C29739  11.165   3.856  10.036  0.3665  0.3884  0.3602
  962MOL0     C29740  11.142   3.861  10.175 -1.0491 -0.1239  0.5146
  962MOL0     C29741  11.056   3.774  10.241  0.2803  0.1868 -1.1186
  962MOL0     C29742  10.981   3.680  10.177 -0.4945  0.1972  1.0937
  962MOL0     O29743  10.892   3.598  10.239  0.0011 -0.2356 -0.1217
  962MOL0     C29744  10.935   3.524  10.355  0.0360  0.1617 -1.0625
  962MOL0     C29745  10.815   3.434  10.403  0.3688  0.1529  0.7398
  962MOL0     C29746  10.691   3.516  10.452 -0.4713 -0.1574 -0.0933
  962MOL0     C29747  10.723   3.613  10.554  0.6780  0.2045  0.0305
  962MOL0     C29748  10.599   3.639  10.647  0.4078  0.8002 -0.3913
  962MOL0     C29749  10.623   3.715  10.779  0.3154 -0.0959 -0.7185
  962MOL0     C29750  10.492   3.734  10.861 -0.7852  0.7010 -0.1979
  962MOL0     C29751  10.517   3.809  10.988  0.4623  0.1992 -0.0182
  962MOL0     N29752  10.546   3.952  10.965 -0.6153 -0.0829 -0.1159
  962MOL0     C29753  10.663   4.012  10.971  0.2532 -0.0061 -0.1679
  962MOL0     C29754  10.634   4.141  10.949 -0.6011  0.5099 -0.8591
  962MOL0     C29755  10.740   4.244  10.953 -0.5417  0.2724 -0.6106
  962MOL0     C29756  10.786   4.296  10.816 -0.1350  0.2060  0.3738
  962MOL0     C29757  10.690   4.390  10.744 -0.5961 -0.2762 -0.0095
  962MOL0     C29758  10.721   4.394  10.593  0.2583 -0.1417 -0.9174
  962MOL0     O29759  10.647   4.513  10.555  0.1426  0.1915 -0.2952
  962MOL0     C29760  10.616   4.527  10.423  0.1151  0.1071 -0.0842
  962MOL0     C29761  10.527   4.447  10.349  0.2044  0.8548 -0.1154
  962MOL0     C29762  10.511   4.469  10.210  0.4996 -0.1350  0.2723
  962MOL0     C29763  10.416   4.374  10.144  0.1366 -0.3593  0.1860
  962MOL0     C29764  10.581   4.572  10.143  0.5214 -0.0741 -0.5549
  962MOL0     C29765  10.583   4.591   9.993  0.4114 -1.0317 -0.7162
  962MOL0     O29766  10.614   4.715   9.950  0.3555  1.0932  0.1519
  962MOL0     C29767  10.550   4.749   9.837 -0.8639 -0.0371  1.4052
  962MOL0     C29768  10.409   4.765   9.823  0.0394  1.5742 -0.3972
  962MOL0     C29769  10.344   4.804   9.709 -0.2070 -0.0947  0.1253
  962MOL0     C29770  10.411   4.823   9.582  1.3615 -0.9047  0.4728
  962MOL0     O29771  10.336   4.866   9.474  0.4682 -0.0112 -0.0565
  962MOL0     C29772  10.320   4.754   9.379 -0.0509 -0.5548 -0.2628
  962MOL0     C29773  10.264   4.817   9.257 -0.0393 -0.4775 -0.1932
  962MOL0     C29774  10.267   4.709   9.142  0.2667 -0.9886 -0.0930
  962MOL0     C29775  10.194   4.774   9.024 -0.0634 -0.0826  0.1289
  962MOL0     C29776  10.230   4.682   8.903 -0.2398 -0.9575 -0.8172
  962MOL0     C29777  10.244   4.770   8.781  0.0116  1.3735  0.5994
  962MOL0     C29778  10.279   4.682   8.654 -0.6163 -0.1812 -0.3590
  962MOL0     C29779  10.272   4.775   8.531 -0.5274 -0.3877 -0.1673
  962MOL0    Cl29780  10.359   4.685   8.401 -0.1185  0.2790 -0.1195
  962MOL0     C29781  10.552   4.811   9.592  0.2375 -1.1973 -0.5973
  962MOL0     C29782  10.617   4.779   9.712  0.3042  0.0802 -1.1658
  962MOL0     O29783  10.571   4.494   9.919 -0.5342  0.3486  0.1970
  962MOL0     C29784  10.645   4.665  10.228 -1.4343 -0.3865 -0.4418
  962MOL0     C29785  10.669   4.645  10.365  0.2794  0.3532 -0.1481
  962MOL0     N29786  10.501   4.157  10.932  0.5748  0.3224  0.0789
  962MOL0     N29787  10.452   4.036  10.942  0.5752  0.8349 -0.1579
  962MOL0     C29788  10.994   3.678  10.032  0.5223  0.0784  0.4302
  962MOL0     C29789  11.087   3.757   9.969  0.0576 -0.6106  0.3032
  962MOL0     C29790  11.392   4.104   9.872  0.6989  0.0910 -1.0423
  962MOL0     C29791  11.505   4.024   9.853  0.0569  0.3164 -0.4134
  962MOL0     C29792  11.611   4.085   9.783  0.2285  0.2249  0.1784
  962MOL0     C29793  11.602   4.220   9.735 -1.1054 -0.4353 -0.3456
  962MOL0     O29794  11.697   4.292   9.670 -0.5457 -0.6226  0.2490
  962MOL0     C29795  11.837   4.253   9.675 -0.0169 -0.5440 -0.0222
  962MOL0     C29796  11.884   4.221   9.536  0.8187  0.1300 -0.8328
  962MOL0     C29797  11.813   4.095   9.477 -0.1120  0.0328  0.6237
  962MOL0     C29798  11.896   4.020   9.376  0.0159 -0.7616  0.0135
  962MOL0     C29799  11.912   4.103   9.255 -0.0812  0.7962 -0.3687
  962MOL0     C29800  11.926   4.160   9.150 -0.0311 -0.4519 -1.0067
  962MOL0     C29801  11.489   4.291   9.766 -0.0621 -0.5922  0.6717
  962MOL0     C29802  11.380   4.235   9.827  0.1606 -0.3326 -0.2780
  962MOL0     H29803  11.194   3.936  10.233  0.1708 -0.1384 -0.5265
  962MOL0     H29804  11.056   3.787  10.349  3.0907  0.0019 -1.0266
  962MOL0     H29805  11.015   3.453  10.337 -0.7066 -1.1686  0.6249
  962MOL0     H29806  10.970   3.593  10.433  1.9209 -0.6746 -1.1200
  962MOL0     H29807  10.777   3.377  10.318 -0.0839  0.4186  0.7585
  962MOL0     H29808  10.852   3.355  10.469 -2.2252 -3.5042 -1.7918
  962MOL0     H29809  10.653   3.572  10.367 -2.7742 -1.6354 -0.1153
  962MOL0     H29810  10.610   3.452  10.489 -1.5464  2.6706  2.9417
  962MOL0     H29811  10.803   3.586  10.624 -1.8838 -2.5139  2.2118
  962MOL0     H29812  10.738   3.704  10.495  4.5666 -0.9765 -1.1118
  962MOL0     H29813  10.519   3.686  10.590 -0.2779 -2.4289 -2.3187
  962MOL0     H29814  10.566   3.538  10.674  2.7266 -0.7411 -2.8466
  962MOL0     H29815  10.692   3.659  10.842  0.8284 -0.0086 -1.2031
  962MOL0     H29816  10.671   3.811  10.759 -0.0285  0.7159  1.9473
  962MOL0     H29817  10.420   3.783  10.795  0.2262 -0.3611 -2.1661
  962MOL0     H29818  10.449   3.638  10.891 -1.1733  0.1304 -2.4321
  962MOL0     H29819  10.597   3.780  11.057 -0.5357 -1.4235  0.5198
  962MOL0     H29820  10.427   3.788  11.047 -0.5341 -0.3342 -1.6827
  962MOL0     H29821  10.757   3.961  10.991 -0.7141 -1.4727  0.7668
  962MOL0     H29822  10.698   4.332  11.003 -1.0837 -0.3621  0.0638
  962MOL0     H29823  10.827   4.216  11.012  0.4911  1.2647 -1.6095
  962MOL0     H29824  10.817   4.210  10.756 -0.0539 -1.9829  3.2731
  962MOL0     H29825  10.865   4.369  10.834 -0.3233  0.9701 -1.6327
  962MOL0     H29826  10.701   4.490  10.787 -0.5921 -0.5138  0.5534
  962MOL0     H29827  10.588   4.352  10.754  0.1090 -2.6410 -1.0480
  962MOL0     H29828  10.691   4.305  10.536 -3.6581  1.3734 -1.5830
  962MOL0     H29829  10.830   4.398  10.586  0.6635 -1.9317  2.2069
  962MOL0     H29830  10.483   4.360  10.397 -0.1012 -0.2773 -2.3203
  962MOL0     H29831  10.465   4.288  10.097  2.8630  1.1320  0.1326
  962MOL0     H29832  10.335   4.349  10.213 -1.8406  0.7337 -1.6303
  962MOL0     H29833  10.367   4.435  10.068 -2.4753 -2.7393 -0.2093
  962MOL0     H29834  10.356   4.742   9.915  2.8833 -3.6005  0.2941
  962MOL0     H29835  10.236   4.799   9.716 -0.1088 -0.4925  2.4090
  962MOL0     H29836  10.421   4.715   9.359  0.7206  2.5719 -3.4767
  962MOL0     H29837  10.263   4.673   9.426  0.8265  0.0648  1.9824
  962MOL0     H29838  10.160   4.847   9.274  0.0929 -0.5084  0.7314
  962MOL0     H29839  10.324   4.905   9.234 -0.4740 -0.7295 -2.5666
  962MOL0     H29840  10.240   4.607   9.170  2.5204 -1.0386  2.2410
  962MOL0     H29841  10.370   4.685   9.113 -0.7716 -2.2089 -3.1629
  962MOL0     H29842  10.086   4.781   9.039 -0.0813  1.0843 -0.4311
  962MOL0     H29843  10.227   4.878   9.014 -2.6366  0.6015 -2.4493
  962MOL0     H29844  10.158   4.601   8.891 -3.3362  1.0804  2.2336
  962MOL0     H29845  10.326   4.630   8.913  0.0174 -0.2183  1.1452
  962MOL0     H29846  10.143   4.809   8.763 -0.8273 -0.9943 -0.1891
  962MOL0     H29847  10.316   4.849   8.802  1.7204  0.0438 -0.0537
  962MOL0     H29848  10.199   4.608   8.649 -1.6984  1.0430 -3.1574
  962MOL0     H29849  10.376   4.632   8.655  0.4259  1.6173 -2.5751
  962MOL0     H29850  10.333   4.861   8.559 -1.2828  0.1757 -0.2241
  962MOL0     H29851  10.174   4.794   8.487 -0.0886 -3.1046 -2.6355
  962MOL0     H29852  10.608   4.799   9.501  2.3068 -1.3763  0.6311
  962MOL0     H29853  10.724   4.761   9.712  0.0857 -1.7401  0.9419
  962MOL0     H29854  10.698   4.753  10.193  1.3266 -1.5642  0.4820
  962MOL0     H29855  10.727   4.722  10.414 -0.8663  1.7168 -0.8586
  962MOL0     H29856  10.938   3.610   9.969  1.0204  0.2833 -0.2439
  962MOL0     H29857  11.109   3.739   9.865  1.0338 -1.7153  0.6752
  962MOL0     H29858  11.510   3.921   9.887  1.1947  1.0825  1.9917
  962MOL0     H29859  11.701   4.025   9.782  0.7195  0.8335  2.4328
  962MOL0     H29860  11.895   4.340   9.709 -0.8829 -0.3335  0.9567
  962MOL0     H29861  11.868   4.172   9.742  0.4670 -0.5866 -0.2915
  962MOL0     H29862  11.991   4.199   9.527  1.5095  2.7968  0.1465
  962MOL0     H29863  11.861   4.312   9.480  0.5351 -0.0546 -1.0194
  962MOL0     H29864  11.724   4.133   9.427 -0.0467 -1.0078 -0.3006
  962MOL0     H29865  11.786   4.024   9.556 -1.8316 -2.9082 -2.3927
  962MOL0     H29866  11.851   3.924   9.351  0.5309 -0.6842 -1.2669
  962MOL0     H29867  11.994   4.006   9.423  0.0168 -1.1549 -0.1109
  962MOL0     H29868  11.938   4.233   9.072  0.1728  1.3887  0.6446
  962MOL0     H29869  11.484   4.397   9.746  2.9214 -0.9202 -3.1271
  962MOL0     H29870  11.298   4.302   9.851 -1.8272 -2.9554  0.8189
  963MOL0     O29871   2.183   0.605   1.338  0.1828 -0.3882  0.6261
  963MOL0     C29872   2.090   0.682   1.328  0.0014 -0.4624  0.3643
  963MOL0     O29873   2.103   0.806   1.293 -0.2015 -0.2536  0.6620
  963MOL0     C29874   2.225   0.863   1.266  1.0273  1.0339 -0.5864
  963MOL0     C29875   2.343   0.804   1.217 -0.3996  0.2512 -0.2566
  963MOL0     C29876   2.450   0.878   1.170  0.2364 -0.4013 -0.6865
  963MOL0     C29877   2.436   1.013   1.166  0.2749 -0.7201  0.4688
  963MOL0     O29878   2.543   1.090   1.127  0.0853  0.7527  0.4796
  963MOL0     C29879   2.528   1.212   1.062  0.3958 -0.1038 -0.2301
  963MOL0     C29880   2.607   1.223   0.927 -0.3306 -0.1782 -0.3432
  963MOL0     C29881   2.755   1.259   0.941  0.3376  0.3956 -0.1439
  963MOL0     C29882   2.775   1.416   0.947 -0.0155 -0.2519  0.1176
  963MOL0     C29883   2.906   1.450   1.024  0.2113 -0.3817 -0.5729
  963MOL0     C29884   2.907   1.395   1.172 -0.0414  0.0160  0.1072
  963MOL0     C29885   3.042   1.395   1.233 -0.3611  0.1153 -0.5276
  963MOL0     C29886   3.037   1.351   1.382  0.8305  0.3302 -0.6136
  963MOL0     N29887   3.172   1.371   1.452  1.0353  0.4018 -0.6199
  963MOL0     C29888   3.293   1.370   1.393 -0.4647  0.7170  0.2973
  963MOL0     C29889   3.383   1.401   1.488  0.0848 -0.2127 -0.4165
  963MOL0     C29890   3.534   1.420   1.485 -0.9516  0.5589 -0.8881
  963MOL0     C29891   3.601   1.511   1.381  0.5671  0.2999 -0.1016
  963MOL0     C29892   3.571   1.657   1.422 -0.4502 -0.1731 -0.4613
  963MOL0     C29893   3.421   1.690   1.401  0.3304 -0.1230 -0.3781
  963MOL0     O29894   3.404   1.833   1.388  0.3119 -0.4255 -0.3664
  963MOL0     C29895   3.278   1.869   1.336 -0.0793  0.1252 -0.5395
  963MOL0     C29896   3.156   1.799   1.367 -0.1922 -0.4902  0.2454
  963MOL0     C29897   3.031   1.828   1.310  0.1627  0.3598 -0.3047
  963MOL0     C29898   2.915   1.740   1.362 -0.5074  0.6658  1.0542
  963MOL0     C29899   3.020   1.943   1.220  0.6009 -0.7484  0.5561
  963MOL0     C29900   2.902   1.998   1.151  0.2554  0.6730 -0.2143
  963MOL0     O29901   2.909   2.120   1.101 -0.0974 -0.1325 -0.0827
  963MOL0     C29902   2.811   2.179   1.022  0.3851 -0.0211 -0.6638
  963MOL0     C29903   2.783   2.308   1.064  0.0446  0.0487  0.2801
  963MOL0     C29904   2.692   2.390   0.999 -0.2425 -0.5727  0.3679
  963MOL0     C29905   2.636   2.339   0.886  1.2634 -1.0134  0.3046
  963MOL0     O29906   2.538   2.404   0.810  0.7444  0.8143 -0.1383
  963MOL0     C29907   2.539   2.544   0.812  0.3627  0.6848 -0.3287
  963MOL0     C29908   2.470   2.598   0.686  0.2055 -0.0444  0.9687
  963MOL0     C29909   2.484   2.749   0.663  0.2824 -0.3563  0.0691
  963MOL0     C29910   2.470   2.849   0.780  0.5893  0.4629 -0.4555
  963MOL0     C29911   2.419   2.994   0.745  0.3034  0.3562 -0.4308
  963MOL0     C29912   2.378   3.077   0.870  0.1950 -0.3305 -0.3186
  963MOL0     C29913   2.294   3.195   0.823  0.0835  0.3462 -0.2727
  963MOL0     C29914   2.252   3.288   0.944 -0.5723  0.0349  0.6195
  963MOL0    Cl29915   2.167   3.440   0.887 -0.4304 -0.2085 -0.3643
  963MOL0     C29916   2.672   2.216   0.831  0.3296 -0.0817 -0.8044
  963MOL0     C29917   2.765   2.133   0.899 -0.2933 -0.1468 -1.9784
  963MOL0     O29918   2.803   1.927   1.146  0.1174 -0.0714 -0.3557
  963MOL0     C29919   3.141   2.011   1.190  0.0384  0.0129 -0.6212
  963MOL0     C29920   3.268   1.983   1.251  0.5467  0.5024 -1.0185
  963MOL0     N29921   3.317   1.412   1.606 -0.9838 -0.2143 -0.1035
  963MOL0     N29922   3.193   1.389   1.589  0.2241 -0.2564  0.3010
  963MOL0     C29923   2.321   1.082   1.217  0.4501  1.3974 -0.3426
  963MOL0     C29924   2.211   0.998   1.258 -0.8864 -0.5861  1.0478
  963MOL0     C29925   1.957   0.627   1.338 -0.5115  0.0342  1.3958
  963MOL0     C29926   1.929   0.500   1.398 -0.3366 -0.3668  0.1395
  963MOL0     C29927   1.801   0.448   1.401 -0.1548 -0.1270  0.4554
  963MOL0     C29928   1.691   0.522   1.359  0.3617 -0.3591 -0.8648
  963MOL0     O29929   1.558   0.490   1.363 -0.1085  0.9792 -0.1849
  963MOL0     C29930   1.503   0.366   1.415  0.3585 -0.3854 -0.1411
  963MOL0     C29931   1.489   0.383   1.565 -0.7929 -0.9035  0.6028
  963MOL0     C29932   1.412   0.279   1.643  0.0047  0.5456 -0.1202
  963MOL0     C29933   1.428   0.136   1.595 -0.3257  0.2396 -0.4060
  963MOL0     C29934   1.327   0.051   1.668  0.3719 -0.3491  0.3786
  963MOL0     C29935   1.250  -0.017   1.736  0.0044  0.4290  0.4003
  963MOL0     C29936   1.715   0.654   1.307  0.5458  0.4834 -0.1687
  963MOL0     C29937   1.846   0.699   1.306  0.2422  0.1869  1.0541
  963MOL0     H29938   2.360   0.697   1.207 -1.2377  0.2688 -2.6420
  963MOL0     H29939   2.534   0.824   1.126 -1.2918 -1.3280 -2.6110
  963MOL0     H29940   2.423   1.238   1.043  0.4017 -0.3217 -0.5619
  963MOL0     H29941   2.553   1.296   1.128 -1.0723  0.1248  0.0756
  963MOL0     H29942   2.598   1.133   0.865  3.8108 -1.4150  0.4911
  963MOL0     H29943   2.558   1.291   0.858  0.8508 -1.7444 -2.8890
  963MOL0     H29944   2.815   1.203   1.014  3.8452 -0.7825 -3.5395
  963MOL0     H29945   2.796   1.219   0.847 -0.5362 -4.2800  1.1782
  963MOL0     H29946   2.763   1.450   0.844  0.3406 -1.9571 -0.5183
  963MOL0     H29947   2.691   1.469   0.995 -0.7695 -1.1975 -0.1131
  963MOL0     H29948   2.992   1.412   0.969  1.6315  3.6998 -1.5121
  963MOL0     H29949   2.912   1.558   1.035 -0.6328 -0.2265 -1.4773
  963MOL0     H29950   2.850   1.462   1.238  2.6027  2.3392  0.2415
  963MOL0     H29951   2.866   1.294   1.184  1.5153 -0.3566  3.7390
  963MOL0     H29952   3.112   1.333   1.176  1.4777  1.5391  0.0718
  963MOL0     H29953   3.085   1.496   1.232 -0.4874  0.1758 -1.4902
  963MOL0     H29954   3.017   1.244   1.387 -0.3210  0.5468 -0.3170
  963MOL0     H29955   2.954   1.401   1.432 -1.0469 -1.5448 -1.6825
  963MOL0     H29956   3.316   1.360   1.287  0.1083 -0.7418  0.5298
  963MOL0     H29957   3.587   1.436   1.579  3.4037  1.0548 -3.1670
  963MOL0     H29958   3.573   1.319   1.466  1.9808  1.1489  1.2749
  963MOL0     H29959   3.562   1.498   1.279 -0.6129 -1.2303  0.4887
  963MOL0     H29960   3.708   1.492   1.379  1.0528  2.5399  1.0891
  963MOL0     H29961   3.632   1.733   1.373 -0.5897 -0.5034 -1.1548
  963MOL0     H29962   3.603   1.653   1.527  1.4687 -0.4816 -1.0207
  963MOL0     H29963   3.373   1.664   1.496 -0.1142 -1.7083 -1.0039
  963MOL0     H29964   3.372   1.632   1.323  2.2447  0.6378 -2.2543
  963MOL0     H29965   3.162   1.724   1.445  3.3103  0.4202  0.9980
  963MOL0     H29966   2.851   1.719   1.276  1.5446  1.5905 -0.7844
  963MOL0     H29967   2.953   1.643   1.394 -1.7935 -0.5811 -0.9606
  963MOL0     H29968   2.856   1.790   1.440 -1.5438 -2.0101  2.1203
  963MOL0     H29969   2.826   2.336   1.160 -0.0650 -1.5452  0.8361
  963MOL0     H29970   2.648   2.480   1.042 -1.7059 -0.1815 -1.7946
  963MOL0     H29971   2.479   2.569   0.900 -0.1266  0.4575 -0.5892
  963MOL0     H29972   2.635   2.593   0.830 -0.1837  1.1057  1.7270
  963MOL0     H29973   2.506   2.546   0.597  2.3913 -1.1155  2.4094
  963MOL0     H29974   2.361   2.584   0.696 -0.2760  2.0276 -0.6378
  963MOL0     H29975   2.402   2.763   0.592  0.5564  2.1623  0.1498
  963MOL0     H29976   2.573   2.771   0.603 -0.8573 -0.8669 -1.9146
  963MOL0     H29977   2.398   2.806   0.849  0.3096  2.4640  0.5749
  963MOL0     H29978   2.565   2.855   0.833  0.4607 -2.6074  0.2682
  963MOL0     H29979   2.345   2.978   0.666  2.8623 -0.8401 -2.8050
  963MOL0     H29980   2.498   3.040   0.685  0.2777  1.7894  0.5995
  963MOL0     H29981   2.328   3.020   0.949 -1.0887  0.0408 -0.8491
  963MOL0     H29982   2.472   3.123   0.904  0.2094  1.1430 -2.1769
  963MOL0     H29983   2.204   3.142   0.790  1.0310 -2.5686  1.4692
  963MOL0     H29984   2.351   3.252   0.749  3.2016 -3.3961 -1.0606
  963MOL0     H29985   2.340   3.312   1.005 -0.4849 -1.5086  1.1290
  963MOL0     H29986   2.183   3.235   1.010 -2.5904  2.3379  0.4924
  963MOL0     H29987   2.612   2.184   0.746 -0.6146 -1.9222  0.4863
  963MOL0     H29988   2.788   2.033   0.864  0.6786 -2.0523  3.2981
  963MOL0     H29989   3.141   2.101   1.130 -0.9132  0.3964 -0.0594
  963MOL0     H29990   3.353   2.045   1.224  0.1073  1.3799 -0.4333
  963MOL0     H29991   2.312   1.190   1.227 -1.2798  1.4134 -1.5420
  963MOL0     H29992   2.121   1.046   1.294  0.5204  2.0484  1.2976
  963MOL0     H29993   2.015   0.441   1.429  0.2238  0.5325  0.3602
  963MOL0     H29994   1.781   0.356   1.454  0.7038  0.4086  1.7863
  963MOL0     H29995   1.406   0.354   1.366 -0.9502  0.9754  1.9400
  963MOL0     H29996   1.566   0.278   1.401 -1.4082 -1.2953 -3.1566
  963MOL0     H29997   1.433   0.476   1.572  0.5629 -0.0228  0.2524
  963MOL0     H29998   1.590   0.396   1.606 -0.8290  2.4877 -0.1103
  963MOL0     H29999   1.308   0.304   1.619 -1.0747 -1.3392  2.2277
  963MOL0     H30000   1.429   0.286   1.750 -1.6754 -1.8966  0.3766
  963MOL0     H30001   1.527   0.109   1.633 -0.5434 -1.0379 -0.7220
  963MOL0     H30002   1.426   0.131   1.486 -0.1754  0.0185 -0.3992
  963MOL0     H30003   1.201  -0.090   1.797  1.8627 -2.3547 -1.1934
  963MOL0     H30004   1.626   0.711   1.282 -0.6891 -0.9180  0.8576
  963MOL0     H30005   1.854   0.799   1.265 -1.7149 -0.9255 -2.4604
  964MOL0     O30006   7.839   4.770   2.443 -0.1887 -0.0032 -0.1370
  964MOL0     C30007   7.884   4.676   2.385 -1.2229  0.6080 -0.0135
  964MOL0     O30008   7.818   4.550   2.359 -0.0133  0.3221 -0.5899
  964MOL0     C30009   7.681   4.530   2.377  0.2100 -0.6392  0.2758
  964MOL0     C30010   7.624   4.417   2.315 -0.2274  0.3923  0.8100
  964MOL0     C30011   7.491   4.384   2.327 -0.3491 -0.0863 -0.1602
  964MOL0     C30012   7.407   4.471   2.404  0.1553  0.3433  0.6762
  964MOL0     O30013   7.275   4.456   2.403  0.8341  0.2553  0.0680
  964MOL0     C30014   7.210   4.526   2.299 -0.1941 -0.1954  0.6866
  964MOL0     C30015   7.075   4.455   2.295 -0.5420 -0.4804  0.6751
  964MOL0     C30016   6.979   4.535   2.201 -0.8021 -0.1261  0.7216
  964MOL0     C30017   6.872   4.448   2.127 -0.0007  0.0832 -0.2080
  964MOL0     C30018   6.767   4.528   2.043 -0.4429  0.1604 -0.1787
  964MOL0     C30019   6.674   4.586   2.151  0.9734  0.4625 -0.5494
  964MOL0     C30020   6.538   4.639   2.094  0.1683  1.0841  0.2105
  964MOL0     C30021   6.424   4.627   2.204 -0.4116 -1.2609  0.7661
  964MOL0     N30022   6.369   4.495   2.221 -0.5732 -0.9951 -0.2948
  964MOL0     C30023   6.327   4.407   2.120 -0.1994 -0.3941 -0.1640
  964MOL0     C30024   6.281   4.298   2.189  1.0563 -0.9053 -0.5235
  964MOL0     C30025   6.228   4.177   2.125  0.1961  0.2514  0.1837
  964MOL0     C30026   6.073   4.183   2.104  0.8540 -0.1173  0.5664
  964MOL0     C30027   6.032   4.125   1.967 -0.1727 -0.3392  0.0047
  964MOL0     C30028   5.889   4.151   1.945  0.4741  0.1826 -0.4095
  964MOL0     O30029   5.813   4.063   2.030 -0.2859  0.1613  0.6005
  964MOL0     C30030   5.676   4.097   2.044 -0.8778  0.9913  0.4760
  964MOL0     C30031   5.618   4.057   2.150 -0.0677  0.5369 -0.4078
  964MOL0     C30032   5.489   4.094   2.181 -0.9751 -0.4562 -0.5531
  964MOL0     C30033   5.425   4.029   2.317  0.2576 -1.0854  0.1114
  964MOL0     C30034   5.418   4.173   2.101  0.1949 -0.6643  0.4652
  964MOL0     C30035   5.270   4.194   2.123 -0.3782  0.2237 -0.1280
  964MOL0     O30036   5.206   4.246   2.012 -0.1824 -0.1186  0.1209
  964MOL0     C30037   5.072   4.277   2.018  0.6275 -0.0797 -0.0009
  964MOL0     C30038   4.980   4.174   2.013 -0.0868 -0.8718 -0.3295
  964MOL0     C30039   4.843   4.195   2.000  0.9570 -0.6842  0.2614
  964MOL0     C30040   4.790   4.329   1.996  0.0972  0.5790 -0.2447
  964MOL0     O30041   4.660   4.366   1.968 -0.6898 -0.5858  0.0706
  964MOL0     C30042   4.565   4.271   1.924  0.5905  0.5681  0.6113
  964MOL0     C30043   4.437   4.325   1.860  0.8206  0.1907  0.0868
  964MOL0     C30044   4.346   4.220   1.802 -0.3074 -0.2315  0.5794
  964MOL0     C30045   4.219   4.208   1.893 -0.1183  0.4163 -0.1035
  964MOL0     C30046   4.120   4.102   1.831 -0.5782 -0.5088 -0.0544
  964MOL0     C30047   4.022   4.149   1.719 -1.4946 -0.0385  0.6286
  964MOL0     C30048   3.905   4.230   1.778 -0.0807 -0.4529  0.9328
  964MOL0     C30049   3.856   4.315   1.650  0.1252  0.2800 -0.8342
  964MOL0    Cl30050   3.711   4.406   1.688  0.1596  0.0913  0.3090
  964MOL0     C30051   4.882   4.432   2.022 -0.6276 -0.1595 -0.1259
  964MOL0     C30052   5.024   4.404   2.036 -0.0757 -0.5249  0.1714
  964MOL0     O30053   5.214   4.148   2.221  0.2232 -0.0534 -0.1672
  964MOL0     C30054   5.477   4.217   1.987 -0.0067  0.8082  1.0095
  964MOL0     C30055   5.607   4.179   1.956 -0.0338 -0.5516  0.5412
  964MOL0     N30056   6.313   4.315   2.320  0.0315  0.9448 -1.0709
  964MOL0     N30057   6.364   4.434   2.337 -0.3246  0.1536  0.1473
  964MOL0     C30058   7.454   4.584   2.473  0.4177 -0.3253 -0.4523
  964MOL0     C30059   7.586   4.614   2.452 -0.2205  0.1081  0.3148
  964MOL0     C30060   8.029   4.681   2.332 -0.5425 -1.0957 -0.7083
  964MOL0     C30061   8.066   4.604   2.219 -0.0616 -0.5293  0.4558
  964MOL0     C30062   8.193   4.602   2.176 -0.9199  0.1859  0.1901
  964MOL0     C30063   8.297   4.686   2.231 -1.0924 -0.6037  0.2468
  964MOL0     O30064   8.431   4.704   2.183  0.0519 -0.0869 -0.0162
  964MOL0     C30065   8.471   4.632   2.069 -0.0627 -0.2274 -0.3273
  964MOL0     C30066   8.620   4.673   2.041 -0.9947 -0.3665  0.7416
  964MOL0     C30067   8.622   4.803   1.963  0.0565  0.6773  0.0377
  964MOL0     C30068   8.762   4.862   1.947  0.3563 -0.2116 -0.6254
  964MOL0     C30069   8.857   4.765   1.888 -0.4176 -1.0891 -0.4315
  964MOL0     C30070   8.935   4.698   1.826  0.3217  0.4767 -0.2566
  964MOL0     C30071   8.267   4.764   2.351 -0.0472  0.6413  0.0459
  964MOL0     C30072   8.129   4.761   2.397 -0.3693 -0.2944 -0.4678
  964MOL0     H30073   7.689   4.364   2.246 -3.4843 -0.3373 -1.9787
  964MOL0     H30074   7.445   4.304   2.271 -1.8284 -0.0606  0.9614
  964MOL0     H30075   7.187   4.631   2.316  0.6641  0.4367 -1.6404
  964MOL0     H30076   7.258   4.505   2.203  2.1321 -1.3093  2.0233
  964MOL0     H30077   7.100   4.353   2.262  1.3389 -0.3192  1.4819
  964MOL0     H30078   7.022   4.457   2.391 -1.4399 -0.0587  0.1863
  964MOL0     H30079   6.920   4.609   2.255 -4.0377 -1.3277 -0.8943
  964MOL0     H30080   7.030   4.592   2.122  0.3234 -2.1260 -0.0749
  964MOL0     H30081   6.915   4.373   2.059 -0.7447  1.1106 -1.8699
  964MOL0     H30082   6.822   4.403   2.213  1.4299 -0.1664  0.5189
  964MOL0     H30083   6.806   4.598   1.969 -2.2955 -0.2615 -1.6573
  964MOL0     H30084   6.719   4.446   1.987  0.4403 -2.1352  2.2043
  964MOL0     H30085   6.662   4.516   2.234  1.1415  1.0281 -0.0417
  964MOL0     H30086   6.731   4.672   2.186  1.5340  0.0855 -0.5197
  964MOL0     H30087   6.565   4.740   2.062 -0.8378  0.8157 -1.6497
  964MOL0     H30088   6.514   4.570   2.013 -3.6115  1.3830  0.9015
  964MOL0     H30089   6.344   4.694   2.170  3.2076  2.9798 -0.4343
  964MOL0     H30090   6.460   4.674   2.296  1.4822 -1.9406  0.4212
  964MOL0     H30091   6.327   4.435   2.015 -0.3758 -0.8566 -0.2917
  964MOL0     H30092   6.282   4.164   2.031  1.8646  0.1742  1.1070
  964MOL0     H30093   6.252   4.094   2.193 -2.2359 -1.9968 -1.4860
  964MOL0     H30094   6.034   4.285   2.114 -0.1263 -0.4953  0.6795
  964MOL0     H30095   6.025   4.121   2.180  1.5395 -1.1578  0.1707
  964MOL0     H30096   6.059   4.020   1.951 -2.2594 -1.2953  2.2404
  964MOL0     H30097   6.079   4.175   1.881 -1.2366 -2.4865 -1.9341
  964MOL0     H30098   5.861   4.132   1.841  2.2435  1.9647 -1.2754
  964MOL0     H30099   5.857   4.254   1.963 -1.4872 -0.5167  0.3743
  964MOL0     H30100   5.675   3.990   2.215 -0.9662 -1.1586 -1.2939
  964MOL0     H30101   5.497   3.958   2.358 -0.5160 -4.5437 -3.9027
  964MOL0     H30102   5.402   4.117   2.379  1.6401  1.9837 -3.3180
  964MOL0     H30103   5.340   3.963   2.298 -2.6311  2.4002 -0.3484
  964MOL0     H30104   5.017   4.072   2.023  0.9162 -0.3619  1.5596
  964MOL0     H30105   4.777   4.109   1.995  3.8371 -3.2718  2.6308
  964MOL0     H30106   4.616   4.210   1.847 -2.6891  0.2335 -1.4877
  964MOL0     H30107   4.530   4.210   2.008 -0.3257  1.5773  0.9785
  964MOL0     H30108   4.372   4.375   1.933  1.8503 -0.2455  1.3419
  964MOL0     H30109   4.466   4.407   1.793 -1.2618  0.9524  0.0476
  964MOL0     H30110   4.403   4.128   1.789 -3.2558 -2.9429  4.5929
  964MOL0     H30111   4.316   4.266   1.707  3.4300 -0.0417 -0.6642
  964MOL0     H30112   4.253   4.167   1.989  1.1842  1.0356 -0.2684
  964MOL0     H30113   4.157   4.298   1.900 -3.6437 -1.5391 -3.1508
  964MOL0     H30114   4.054   4.061   1.907 -1.7911  1.6665  0.1358
  964MOL0     H30115   4.166   4.011   1.792  1.2791  1.0140 -1.6363
  964MOL0     H30116   4.080   4.204   1.644  0.6329 -2.4651  0.3390
  964MOL0     H30117   3.978   4.059   1.674  0.3165 -1.7233  2.0537
  964MOL0     H30118   3.937   4.303   1.854  2.6811  0.0937 -0.5966
  964MOL0     H30119   3.823   4.167   1.812 -0.8359  0.4825  0.8622
  964MOL0     H30120   3.845   4.253   1.562 -0.5459  2.3650 -2.2977
  964MOL0     H30121   3.942   4.375   1.619  0.7964 -1.0863 -1.6836
  964MOL0     H30122   4.846   4.534   2.026 -0.4642  0.0057 -1.9147
  964MOL0     H30123   5.096   4.485   2.044 -2.3709  2.1400 -3.2705
  964MOL0     H30124   5.424   4.294   1.931 -1.0298  0.5028  1.5426
  964MOL0     H30125   5.662   4.204   1.865  2.0034 -1.9016  1.3550
  964MOL0     H30126   7.388   4.650   2.528 -0.4904 -1.5211 -0.0913
  964MOL0     H30127   7.624   4.700   2.505  0.7001 -0.8681  1.3073
  964MOL0     H30128   7.993   4.544   2.166 -1.1711  1.3032 -0.1779
  964MOL0     H30129   8.223   4.538   2.094  0.7606  1.1674 -0.0283
  964MOL0     H30130   8.468   4.523   2.085 -1.6208 -0.3258 -1.1094
  964MOL0     H30131   8.411   4.666   1.985 -1.5123 -0.9158  0.3910
  964MOL0     H30132   8.672   4.596   1.984  0.3090  2.1709 -1.7515
  964MOL0     H30133   8.668   4.693   2.138  1.0899 -1.6437  0.0157
  964MOL0     H30134   8.554   4.877   2.006 -1.2007  0.2351 -1.1326
  964MOL0     H30135   8.575   4.775   1.868 -1.0696  0.3539  0.6744
  964MOL0     H30136   8.798   4.904   2.041 -1.0069  0.3154 -0.3241
  964MOL0     H30137   8.762   4.947   1.879  2.0163  0.0943 -0.2839
  964MOL0     H30138   9.003   4.647   1.761  1.2705  1.6115 -0.1884
  964MOL0     H30139   8.354   4.822   2.380 -2.0340  3.1041  1.3880
  964MOL0     H30140   8.097   4.822   2.481  1.7149  0.0693  0.1093
  965MOL0     O30141   5.237  10.300   5.847 -0.0345 -0.6186 -0.3784
  965MOL0     C30142   5.165  10.214   5.891 -0.0670  0.7205  0.0605
  965MOL0     O30143   5.193  10.079   5.889 -0.6901 -0.2702 -0.0968
  965MOL0     C30144   5.303  10.033   5.816  0.9824 -0.1236 -0.4915
  965MOL0     C30145   5.336  10.073   5.682 -0.5679 -0.8870  0.5410
  965MOL0     C30146   5.441  10.007   5.612 -0.8841 -0.3059 -0.5802
  965MOL0     C30147   5.513   9.905   5.685 -0.1658  0.4709  0.9015
  965MOL0     O30148   5.615   9.832   5.627  0.1786 -0.8379 -0.1932
  965MOL0     C30149   5.585   9.729   5.527  1.0310  0.1537 -0.0575
  965MOL0     C30150   5.609   9.768   5.384  0.2756 -0.2071 -0.0574
  965MOL0     C30151   5.630   9.651   5.296 -0.1527 -0.1090 -0.0336
  965MOL0     C30152   5.653   9.698   5.147 -0.1901 -0.3762 -0.4082
  965MOL0     C30153   5.705   9.593   5.045  0.6575  0.0289  0.5879
  965MOL0     C30154   5.713   9.638   4.904 -0.8750  0.1408 -0.3312
  965MOL0     C30155   5.578   9.639   4.837  0.2905 -1.2071  0.1340
  965MOL0     C30156   5.581   9.611   4.689 -0.4610  0.4312 -0.3624
  965MOL0     N30157   5.669   9.704   4.622  0.4359  0.7548 -0.4664
  965MOL0     C30158   5.648   9.839   4.627  0.7507  0.6129  0.6727
  965MOL0     C30159   5.748   9.883   4.549  0.0906 -1.4502 -0.5832
  965MOL0     C30160   5.774  10.024   4.500 -0.1941 -0.0536 -0.3609
  965MOL0     C30161   5.794  10.138   4.605  0.0810  0.0100  0.0894
  965MOL0     C30162   5.857  10.257   4.526 -0.4423 -0.3989  1.0674
  965MOL0     C30163   5.759  10.341   4.441 -0.2784 -0.0533  0.1803
  965MOL0     O30164   5.646  10.372   4.517 -0.2068 -1.0189 -0.1080
  965MOL0     C30165   5.544  10.443   4.447  0.7026  0.9044 -0.0894
  965MOL0     C30166   5.547  10.472   4.314  0.1857 -0.5733 -0.0433
  965MOL0     C30167   5.446  10.542   4.247 -0.1705  0.3614 -0.9640
  965MOL0     C30168   5.471  10.557   4.101 -0.0665  0.4407 -0.7037
  965MOL0     C30169   5.330  10.588   4.318 -0.2195  0.1420  0.0288
  965MOL0     C30170   5.211  10.651   4.249 -0.3388  0.7916  0.6510
  965MOL0     O30171   5.098  10.648   4.317  0.7024  0.6792  0.4211
  965MOL0     C30172   4.987  10.682   4.245  0.6016  0.1932 -1.0991
  965MOL0     C30173   4.959  10.609   4.126 -0.3020 -1.3316 -0.1327
  965MOL0     C30174   4.847  10.646   4.042  0.9723 -0.3351  0.7691
  965MOL0     C30175   4.768  10.756   4.078  0.3828 -0.4471  0.5414
  965MOL0     O30176   4.657  10.787   4.002  0.0612 -0.0617 -0.4708
  965MOL0     C30177   4.559  10.885   4.038 -0.2448  0.4136  0.0742
  965MOL0     C30178   4.613  11.010   3.966 -0.2295  0.1898 -0.8684
  965MOL0     C30179   4.512  11.128   3.987  0.4935  0.3915 -0.1792
  965MOL0     C30180   4.501  11.242   3.888 -0.1985  0.1106  0.7254
  965MOL0     C30181   4.385  11.340   3.916 -0.1454 -0.4048 -0.4266
  965MOL0     C30182   4.399  11.436   3.795 -0.1764  0.2120  0.7093
  965MOL0     C30183   4.290  11.544   3.801 -0.1438 -0.1754 -0.3178
  965MOL0     C30184   4.308  11.644   3.913 -0.6711 -0.5677 -0.4513
  965MOL0    Cl30185   4.450  11.745   3.877  0.1052  0.3500 -0.7869
  965MOL0     C30186   4.799  10.823   4.199  0.0963  0.0130  1.0669
  965MOL0     C30187   4.899  10.784   4.289 -0.0561 -0.6543  0.0519
  965MOL0     O30188   5.234  10.718   4.145  0.5846  0.2049 -0.4736
  965MOL0     C30189   5.322  10.562   4.463  0.3539  0.0785  1.2021
  965MOL0     C30190   5.434  10.495   4.519  0.3740  0.6571  0.0846
  965MOL0     N30191   5.837   9.784   4.524  0.1041  0.5348 -0.4456
  965MOL0     N30192   5.787   9.675   4.565  0.6039  0.2748  0.7308
  965MOL0     C30193   5.484   9.877   5.813  0.7416  0.3227 -0.1200
  965MOL0     C30194   5.378   9.941   5.883  0.4886 -0.2447  0.2024
  965MOL0     C30195   5.034  10.246   5.955 -0.4920  0.5622 -0.0551
  965MOL0     C30196   4.987  10.378   5.963 -1.0593  0.2526 -0.3411
  965MOL0     C30197   4.851  10.397   5.999 -0.2518 -0.0388 -0.5634
  965MOL0     C30198   4.765  10.299   6.061 -1.0610  0.3877 -0.1020
  965MOL0     O30199   4.640  10.318   6.112 -0.0222  0.3664 -0.4923
  965MOL0     C30200   4.576  10.447   6.127 -0.2195 -0.4386  0.2448
  965MOL0     C30201   4.615  10.510   6.262 -0.1664  0.0933 -0.7584
  965MOL0     C30202   4.558  10.654   6.272  0.5466 -0.1867  0.0102
  965MOL0     C30203   4.602  10.728   6.391 -0.5768 -0.9066  0.4532
  965MOL0     C30204   4.590  10.876   6.369  0.5726 -0.3886  0.7471
  965MOL0     C30205   4.554  10.994   6.356  0.1599  0.0126 -0.5671
  965MOL0     C30206   4.822  10.173   6.045  0.5354 -0.1248 -1.3275
  965MOL0     C30207   4.951  10.139   5.993  0.3082 -0.3000 -0.2178
  965MOL0     H30208   5.289  10.161   5.639 -1.5370  0.5622  4.1398
  965MOL0     H30209   5.460  10.027   5.507 -1.2401  2.8955 -0.1334
  965MOL0     H30210   5.650   9.646   5.557 -0.2860  0.0172  2.6831
  965MOL0     H30211   5.485   9.686   5.524  1.7785 -1.6379 -0.6200
  965MOL0     H30212   5.529   9.837   5.356 -1.0649 -1.7262 -0.0646
  965MOL0     H30213   5.702   9.827   5.381 -1.2481  2.2899 -1.1944
  965MOL0     H30214   5.731   9.617   5.323 -0.7231 -1.8681  0.0354
  965MOL0     H30215   5.562   9.566   5.301  1.4871 -1.6160 -1.4721
  965MOL0     H30216   5.550   9.719   5.116 -1.0757 -1.4925  1.6196
  965MOL0     H30217   5.710   9.792   5.144  1.7258 -1.5046 -0.6731
  965MOL0     H30218   5.799   9.557   5.086  1.5824  3.3729  1.7358
  965MOL0     H30219   5.639   9.506   5.057  2.3049 -0.9155  4.2767
  965MOL0     H30220   5.747   9.741   4.898 -1.3847  0.2743 -1.2096
  965MOL0     H30221   5.779   9.574   4.844  1.3781  2.0822 -0.0419
  965MOL0     H30222   5.530   9.553   4.884 -0.6038  0.1130  1.7134
  965MOL0     H30223   5.528   9.735   4.853  0.2306 -1.4502  1.5520
  965MOL0     H30224   5.484   9.616   4.639 -0.9666 -0.9908  0.4178
  965MOL0     H30225   5.618   9.510   4.672 -1.7894 -0.2327  0.4620
  965MOL0     H30226   5.567   9.905   4.655  0.5813  2.1599 -3.0069
  965MOL0     H30227   5.870  10.003   4.452  0.1770 -0.0482  0.3738
  965MOL0     H30228   5.688  10.051   4.438 -1.3971  0.9168  1.6223
  965MOL0     H30229   5.862  10.115   4.687  1.1049  0.2215 -0.6883
  965MOL0     H30230   5.693  10.160   4.642 -0.4966 -2.0278 -0.1624
  965MOL0     H30231   5.939  10.222   4.462 -2.2419  0.4465 -1.8691
  965MOL0     H30232   5.899  10.338   4.587  2.4246 -1.1202  0.2107
  965MOL0     H30233   5.749  10.289   4.345  1.4862  2.9633 -1.7980
  965MOL0     H30234   5.815  10.433   4.425  2.6269 -1.7934 -0.4793
  965MOL0     H30235   5.637  10.461   4.254  2.6547  1.6871  2.8875
  965MOL0     H30236   5.387  10.510   4.050  1.0786 -0.8469 -1.4561
  965MOL0     H30237   5.476  10.666   4.089  1.3747  0.5601  0.6934
  965MOL0     H30238   5.567  10.523   4.061  0.6422  0.9047  0.5444
  965MOL0     H30239   5.036  10.536   4.104  0.0782 -0.9378 -0.1248
  965MOL0     H30240   4.824  10.583   3.957  2.0796 -2.4865  1.9938
  965MOL0     H30241   4.462  10.851   4.000 -0.3135  1.9778 -1.2683
  965MOL0     H30242   4.543  10.891   4.146  0.5923  2.3291  0.1202
  965MOL0     H30243   4.703  11.052   4.011  1.1156 -3.7282  0.5707
  965MOL0     H30244   4.620  10.987   3.859 -1.4220 -2.1574 -0.5243
  965MOL0     H30245   4.532  11.176   4.083 -0.6877  0.9683 -0.1952
  965MOL0     H30246   4.411  11.086   3.999  0.2921  1.1682  1.1133
  965MOL0     H30247   4.602  11.284   3.889  0.1607 -0.6776  3.0688
  965MOL0     H30248   4.489  11.200   3.788 -0.2646  0.0756  0.7476
  965MOL0     H30249   4.404  11.385   4.014  3.1466 -2.4308  0.0456
  965MOL0     H30250   4.288  11.289   3.918  0.3593 -1.3863 -0.0819
  965MOL0     H30251   4.498  11.481   3.800  0.5589 -1.2442 -0.2178
  965MOL0     H30252   4.384  11.390   3.698  1.8512  1.8611 -0.4745
  965MOL0     H30253   4.189  11.507   3.824 -1.0812  1.7230 -1.1419
  965MOL0     H30254   4.290  11.597   3.706  0.5653 -2.0235 -1.3893
  965MOL0     H30255   4.320  11.601   4.013  1.8923 -0.2422 -0.5369
  965MOL0     H30256   4.221  11.711   3.916 -0.5417 -0.4257  0.2712
  965MOL0     H30257   4.734  10.907   4.222  0.7261  0.8937 -0.2369
  965MOL0     H30258   4.900  10.842   4.381 -4.0861  2.9594 -1.8489
  965MOL0     H30259   5.229  10.588   4.513  0.4246  0.0844  1.3311
  965MOL0     H30260   5.431  10.485   4.627  0.9812 -3.1847 -0.1281
  965MOL0     H30261   5.545   9.808   5.871 -1.4749 -2.0086 -0.3937
  965MOL0     H30262   5.338   9.919   5.982 -4.6122  2.3218 -0.9668
  965MOL0     H30263   5.045  10.461   5.926 -0.8609 -0.3869 -1.5239
  965MOL0     H30264   4.806  10.496   6.005 -2.4187 -1.0118  4.7219
  965MOL0     H30265   4.591  10.513   6.041 -0.9886 -3.8334 -2.7648
  965MOL0     H30266   4.469  10.426   6.117 -0.0420 -1.4848  0.3737
  965MOL0     H30267   4.724  10.513   6.268 -0.2457  2.9668  1.1499
  965MOL0     H30268   4.574  10.444   6.339  1.1721  0.8831  0.6869
  965MOL0     H30269   4.448  10.658   6.271  0.5742  0.8759 -0.0406
  965MOL0     H30270   4.584  10.709   6.181  0.4098 -0.1405 -0.0016
  965MOL0     H30271   4.707  10.712   6.416  0.0862  1.4628 -0.4912
  965MOL0     H30272   4.546  10.711   6.484  0.2119  0.1503  1.1461
  965MOL0     H30273   4.522  11.096   6.365 -1.6033 -0.5380 -0.1941
  965MOL0     H30274   4.753  10.093   6.071  1.7254 -0.6207  0.5065
  965MOL0     H30275   4.979  10.038   5.966  0.6899  0.8256 -4.8970
  966MOL0     O30276   5.099   3.058  10.972 -0.0767 -0.7502  0.2306
  966MOL0     C30277   5.143   2.996  10.874  0.1861 -0.0329  0.0999
  966MOL0     O30278   5.070   2.941  10.771 -0.0047  0.9594  0.5652
  966MOL0     C30279   4.945   2.993  10.751 -0.6734 -0.4320  1.4213
  966MOL0     C30280   4.835   2.915  10.718 -0.4543  0.8388 -0.7071
  966MOL0     C30281   4.713   2.967  10.691  0.2101  0.1887  0.2267
  966MOL0     C30282   4.696   3.101  10.682  0.4970 -0.3446  0.9902
  966MOL0     O30283   4.580   3.166  10.660 -0.1367 -0.1328 -0.2949
  966MOL0     C30284   4.496   3.109  10.563  0.1693 -0.2928 -0.1688
  966MOL0     C30285   4.365   3.193  10.549 -0.4281 -0.5564 -0.9751
  966MOL0     C30286   4.262   3.131  10.459 -0.1546  0.5011 -0.4601
  966MOL0     C30287   4.130   3.104  10.533  0.7175 -0.1382 -0.3648
  966MOL0     C30288   4.022   3.024  10.450 -0.2152  0.3042 -0.2557
  966MOL0     C30289   3.912   2.982  10.546 -0.6116  0.2321 -0.5890
  966MOL0     C30290   3.807   3.096  10.572 -0.2509  0.0526  0.3622
  966MOL0     C30291   3.688   3.052  10.665 -0.0537 -0.4412  0.6357
  966MOL0     N30292   3.582   2.975  10.610 -0.1041  0.2741 -0.4759
  966MOL0     C30293   3.448   3.004  10.598 -0.0190 -0.9585 -0.4876
  966MOL0     C30294   3.391   2.884  10.585 -0.5467 -0.0702 -0.9753
  966MOL0     C30295   3.247   2.869  10.584 -0.8955 -0.3652  1.1026
  966MOL0     C30296   3.187   2.810  10.712  0.0600  0.5198 -0.3190
  966MOL0     C30297   3.211   2.657  10.731  0.3937  0.6110  0.1356
  966MOL0     C30298   3.162   2.634  10.878  0.7567 -0.3248  0.0443
  966MOL0     O30299   3.139   2.495  10.904  0.2336 -0.2237 -0.8647
  966MOL0     C30300   3.037   2.433  10.841  1.1589 -0.1912 -0.0569
  966MOL0     C30301   3.029   2.287  10.830 -0.4173  0.8486 -0.4675
  966MOL0     C30302   2.918   2.216  10.771 -0.6129  0.0637 -0.2321
  966MOL0     C30303   2.933   2.065  10.771  0.9193  0.5250  0.2091
  966MOL0     C30304   2.806   2.286  10.730 -0.4391 -0.4603  0.3555
  966MOL0     C30305   2.678   2.224  10.674 -0.2982 -0.9069  0.7885
  966MOL0     O30306   2.639   2.102  10.709 -0.4605  0.3663  0.5354
  966MOL0     C30307   2.535   2.036  10.642  0.8530  0.8624 -0.5528
  966MOL0     C30308   2.458   1.959  10.722 -0.1254 -0.0542 -0.2011
  966MOL0     C30309   2.343   1.883  10.664  0.1755 -0.4117  0.2306
  966MOL0     C30310   2.314   1.897  10.527  0.3109 -0.9604  0.8055
  966MOL0     O30311   2.197   1.848  10.477  0.1129  0.0903 -0.0332
  966MOL0     C30312   2.138   1.734  10.544  0.8902 -0.2046  0.4615
  966MOL0     C30313   2.020   1.681  10.453 -0.1342  0.3977 -0.3168
  966MOL0     C30314   2.068   1.664  10.307 -0.0437  0.2940 -0.2929
  966MOL0     C30315   1.996   1.567  10.219  0.0203  0.4902  0.6415
  966MOL0     C30316   2.061   1.563  10.074  0.3499  0.5026 -0.4237
  966MOL0     C30317   1.974   1.482   9.983  0.4258 -0.5220  0.1140
  966MOL0     C30318   2.031   1.478   9.830  0.8660  0.0565 -0.3136
  966MOL0     C30319   1.927   1.395   9.749  0.0590 -0.1279 -0.1806
  966MOL0    Cl30320   1.986   1.300   9.610 -0.0517 -0.1828  0.0311
  966MOL0     C30321   2.404   1.971  10.449 -0.1702  0.1952 -0.3274
  966MOL0     C30322   2.514   2.033  10.499  0.0577  0.6763 -0.6388
  966MOL0     O30323   2.611   2.298  10.600  0.3913 -0.7801 -0.0781
  966MOL0     C30324   2.812   2.426  10.746 -0.6133 -0.9365 -0.6236
  966MOL0     C30325   2.922   2.493  10.785  0.3479  0.2194  0.8690
  966MOL0     N30326   3.483   2.783  10.564  0.9835  0.2111  0.6426
  966MOL0     N30327   3.593   2.841  10.569  0.1651  0.5701  0.0009
  966MOL0     C30328   4.796   3.183  10.706 -0.9325 -0.5253 -0.4772
  966MOL0     C30329   4.925   3.133  10.745  0.3655  0.7598  1.3554
  966MOL0     C30330   5.294   2.975  10.874  0.2367  0.4085 -0.8404
  966MOL0     C30331   5.381   3.056  10.946  0.5397 -0.9437  0.4198
  966MOL0     C30332   5.519   3.055  10.918 -0.5901 -0.2124 -0.2975
  966MOL0     C30333   5.566   2.967  10.817  0.1712  0.1570 -0.1215
  966MOL0     O30334   5.692   2.998  10.765  0.8298 -0.2328  0.1468
  966MOL0     C30335   5.775   2.900  10.688  0.2618 -1.2822  0.4057
  966MOL0     C30336   5.922   2.935  10.713 -0.4863 -0.7353 -1.6962
  966MOL0     C30337   6.011   2.846  10.613 -0.2581  0.5123 -0.1589
  966MOL0     C30338   6.137   2.909  10.565  0.0092 -0.9456 -0.9199
  966MOL0     C30339   6.216   2.972  10.670  0.1334 -0.8193  0.2183
  966MOL0     C30340   6.286   3.039  10.751 -0.5824 -0.0602 -0.4997
  966MOL0     C30341   5.481   2.871  10.761  0.3779 -1.0680  0.7238
  966MOL0     C30342   5.347   2.885  10.782  0.5106  0.5388  0.1861
  966MOL0     H30343   4.850   2.807  10.715  2.8409  1.1524  0.4320
  966MOL0     H30344   4.632   2.898  10.666  0.6397 -1.3679  2.8099
  966MOL0     H30345   4.557   3.118  10.472  2.6343  1.6125  1.5304
  966MOL0     H30346   4.476   3.002  10.576  0.3902 -0.1866  1.2874
  966MOL0     H30347   4.316   3.210  10.645  0.9162 -0.9723 -0.1976
  966MOL0     H30348   4.393   3.292  10.512  1.6569 -1.2483 -1.3743
  966MOL0     H30349   4.254   3.191  10.368 -2.8385  1.2954  0.2232
  966MOL0     H30350   4.311   3.041  10.421  0.0188  0.1142  0.6320
  966MOL0     H30351   4.156   3.054  10.627 -0.5335  2.0266  1.2608
  966MOL0     H30352   4.088   3.203  10.554 -1.0099 -1.0093  0.5137
  966MOL0     H30353   3.981   3.085  10.369  0.0050  2.4341  1.1545
  966MOL0     H30354   4.065   2.935  10.404 -2.4033 -1.4940  0.9533
  966MOL0     H30355   3.866   2.899  10.491 -0.9698 -1.4714  2.1188
  966MOL0     H30356   3.964   2.938  10.631  0.8741 -2.3364 -2.6640
  966MOL0     H30357   3.863   3.183  10.608  1.9022 -1.0731 -0.0693
  966MOL0     H30358   3.772   3.135  10.476  4.0209  0.7356 -1.1520
  966MOL0     H30359   3.638   3.139  10.708  0.0206  1.3555 -2.5855
  966MOL0     H30360   3.732   3.003  10.753  0.6480 -0.1462  0.4608
  966MOL0     H30361   3.408   3.105  10.606 -1.7620 -1.6900  0.6776
  966MOL0     H30362   3.204   2.969  10.572  0.5405 -0.0233 -2.6206
  966MOL0     H30363   3.219   2.812  10.496  1.6083  1.3971 -0.9876
  966MOL0     H30364   3.080   2.835  10.707  0.2243  2.0778  2.3166
  966MOL0     H30365   3.228   2.863  10.798 -1.9215 -0.5862  1.3948
  966MOL0     H30366   3.310   2.615  10.711 -1.3619 -3.6803 -0.7185
  966MOL0     H30367   3.144   2.608  10.660 -2.6279  1.2477  2.3391
  966MOL0     H30368   3.077   2.697  10.906  1.2410 -0.1291  1.0914
  966MOL0     H30369   3.251   2.649  10.939  0.4903 -3.5643  1.4751
  966MOL0     H30370   3.121   2.241  10.865 -0.8786  0.6224  0.4771
  966MOL0     H30371   3.032   2.018  10.772 -0.7147 -3.5718 -3.1540
  966MOL0     H30372   2.869   2.021  10.848 -0.8032  0.8588 -0.9905
  966MOL0     H30373   2.897   2.029  10.674 -2.5779  0.2006  1.4893
  966MOL0     H30374   2.490   1.948  10.825  1.7316 -1.7601 -0.8902
  966MOL0     H30375   2.274   1.844  10.738 -1.6427  2.1487 -0.0087
  966MOL0     H30376   2.222   1.664  10.542  1.2179  0.1908 -0.0638
  966MOL0     H30377   2.092   1.761  10.640  0.5661 -2.9425  1.1617
  966MOL0     H30378   1.974   1.593  10.499 -0.1553  0.2738 -0.5707
  966MOL0     H30379   1.944   1.760  10.447 -2.0006 -1.0963  1.9721
  966MOL0     H30380   2.171   1.626  10.315  0.3429  1.6364  1.8708
  966MOL0     H30381   2.068   1.759  10.252 -1.6751  2.6191  3.3819
  966MOL0     H30382   2.005   1.463  10.251 -1.4752  0.2212  0.2783
  966MOL0     H30383   1.891   1.597  10.211  0.2661  1.2908  0.3996
  966MOL0     H30384   2.163   1.523  10.077  0.4349  0.7220 -0.2539
  966MOL0     H30385   2.058   1.665  10.035  1.4272  0.9879  0.6652
  966MOL0     H30386   1.953   1.381  10.019  0.0222 -0.6491 -0.4670
  966MOL0     H30387   1.882   1.538   9.965  0.0713 -1.0358  0.2783
  966MOL0     H30388   2.131   1.434   9.834  1.8266  2.1855  0.2918
  966MOL0     H30389   2.023   1.579   9.790  2.1389 -0.2046 -1.2921
  966MOL0     H30390   1.858   1.476   9.722  0.8966  0.6968  0.0931
  966MOL0     H30391   1.880   1.329   9.822  0.9974  2.0092  2.5521
  966MOL0     H30392   2.361   2.012  10.358 -0.6344  1.3146  0.3795
  966MOL0     H30393   2.584   2.082  10.431 -0.4066  0.0238 -1.5984
  966MOL0     H30394   2.723   2.482  10.720 -0.0429  0.1009 -0.4226
  966MOL0     H30395   2.925   2.602  10.790  0.2393  0.2045  1.2309
  966MOL0     H30396   4.783   3.291  10.708  1.6382 -0.0686 -2.4806
  966MOL0     H30397   4.997   3.206  10.779  1.9770 -1.3397  2.7375
  966MOL0     H30398   5.332   3.123  11.016 -0.0784 -1.4606  0.4822
  966MOL0     H30399   5.591   3.114  10.973  0.1534  0.2202 -1.6773
  966MOL0     H30400   5.764   2.796  10.720  0.5494 -2.2015 -2.1961
  966MOL0     H30401   5.750   2.901  10.581 -0.6213 -0.1850  0.5982
  966MOL0     H30402   5.951   2.923  10.818 -0.8248  0.9304 -1.3948
  966MOL0     H30403   5.951   3.037  10.686 -1.0188 -0.2198 -0.3832
  966MOL0     H30404   5.954   2.812  10.526 -2.0433  1.9750  0.3808
  966MOL0     H30405   6.034   2.751  10.663 -0.2845 -0.6947 -2.3314
  966MOL0     H30406   6.112   2.983  10.488  2.0165 -0.3697 -1.0999
  966MOL0     H30407   6.202   2.836  10.516 -0.1463 -1.3903 -0.4729
  966MOL0     H30408   6.333   3.102  10.824  1.8126  0.1553 -2.0962
  966MOL0     H30409   5.512   2.812  10.676  1.5220  1.6798 -0.8941
  966MOL0     H30410   5.284   2.815  10.728  1.7341 -2.4127  2.3298
  967MOL0     O30411   2.120   8.503   7.266 -0.5041  0.1047 -0.3681
  967MOL0     C30412   2.080   8.515   7.382 -0.0291 -0.2342  0.8112
  967MOL0     O30413   1.976   8.447   7.435 -0.2934  0.2209  0.0071
  967MOL0     C30414   1.890   8.370   7.359  0.1229 -0.0824 -1.0551
  967MOL0     C30415   1.895   8.335   7.229  0.3822  0.1082  0.2120
  967MOL0     C30416   1.798   8.256   7.179  0.5030 -0.4913  0.3612
  967MOL0     C30417   1.696   8.201   7.255  0.0069 -0.4698 -0.0019
  967MOL0     O30418   1.606   8.131   7.173 -0.8822  0.6983 -0.4624
  967MOL0     C30419   1.503   8.049   7.245 -0.3753 -0.6419  0.7213
  967MOL0     C30420   1.404   8.009   7.133  0.1010  0.0398 -0.0735
  967MOL0     C30421   1.270   7.972   7.190  1.0186  0.4476 -0.0899
  967MOL0     C30422   1.280   7.842   7.276 -1.2291  0.7017  0.5883
  967MOL0     C30423   1.149   7.781   7.307  0.9148  0.5442 -0.3436
  967MOL0     C30424   1.051   7.881   7.383 -0.0597 -0.6317 -0.7189
  967MOL0     C30425   0.931   7.796   7.440 -1.0504 -1.0115  0.7146
  967MOL0     C30426   0.829   7.889   7.509 -0.4160  0.1441  0.3175
  967MOL0     N30427   0.817   7.850   7.647  0.9988 -0.9320 -0.3819
  967MOL0     C30428   0.768   7.726   7.680  0.3111  0.1341 -0.0511
  967MOL0     C30429   0.787   7.717   7.814  0.0339 -0.4311  0.1687
  967MOL0     C30430   0.730   7.599   7.890  0.7083 -0.1383  0.7215
  967MOL0     C30431   0.832   7.488   7.920  0.4269  0.4634  0.3790
  967MOL0     C30432   0.887   7.414   7.800 -0.6048 -0.1948  0.4202
  967MOL0     C30433   1.014   7.482   7.746 -0.1458 -0.0708  0.4035
  967MOL0     O30434   1.064   7.418   7.631 -0.7704  0.0426  0.0379
  967MOL0     C30435   1.200   7.449   7.618  0.8196  0.3907  0.2123
  967MOL0     C30436   1.294   7.351   7.598  0.7187  0.1692 -0.4749
  967MOL0     C30437   1.426   7.380   7.562 -0.2269  0.0780 -0.2710
  967MOL0     C30438   1.506   7.263   7.517 -0.0054  0.2970  0.0169
  967MOL0     C30439   1.464   7.514   7.567  0.1133  0.0647 -0.6075
  967MOL0     C30440   1.609   7.559   7.547  0.6744  1.6620 -0.0893
  967MOL0     O30441   1.631   7.696   7.527  0.2202  0.8876 -1.5889
  967MOL0     C30442   1.748   7.736   7.480  0.0781  0.0755 -0.4122
  967MOL0     C30443   1.777   7.872   7.483  0.6822 -0.1446 -0.4233
  967MOL0     C30444   1.884   7.928   7.418  0.0816  0.1336  0.5100
  967MOL0     C30445   1.980   7.849   7.349  0.7164 -0.3870 -0.1461
  967MOL0     O30446   2.095   7.893   7.290 -0.9287  0.1330 -0.0614
  967MOL0     C30447   2.084   8.011   7.215  0.1606 -0.2739  0.1510
  967MOL0     C30448   2.204   8.029   7.141 -0.8618 -0.0510 -0.0015
  967MOL0     C30449   2.195   8.153   7.055 -0.8506  0.0890  0.0007
  967MOL0     C30450   2.309   8.161   6.962 -0.3265  0.2685  0.3970
  967MOL0     C30451   2.446   8.171   7.036 -0.1629 -0.9325 -0.9352
  967MOL0     C30452   2.574   8.214   6.954  0.2747 -0.1514 -0.0401
  967MOL0     C30453   2.700   8.231   7.046  0.2025  0.6162  0.0842
  967MOL0     C30454   2.799   8.112   7.053  0.3176  0.6004  0.7458
  967MOL0    Cl30455   2.719   7.982   7.152  0.2249  0.1826 -0.2440
  967MOL0     C30456   1.953   7.718   7.343 -1.0496  0.6646 -0.5668
  967MOL0     C30457   1.849   7.661   7.414 -0.0506 -0.6524  0.7473
  967MOL0     O30458   1.697   7.469   7.569 -0.6058  0.5621  0.8870
  967MOL0     C30459   1.372   7.618   7.580 -0.6950 -0.0374  0.7293
  967MOL0     C30460   1.237   7.586   7.603 -0.3039  0.0629 -1.3352
  967MOL0     N30461   0.848   7.834   7.858  0.5220 -0.4925  1.0373
  967MOL0     N30462   0.880   7.908   7.756 -0.3915  0.1642  0.6375
  967MOL0     C30463   1.698   8.226   7.398 -0.2913  0.0181  0.1697
  967MOL0     C30464   1.801   8.309   7.443  0.7470 -0.6092 -0.4718
  967MOL0     C30465   2.150   8.615   7.459  0.5505  0.6040 -0.2778
  967MOL0     C30466   2.089   8.684   7.560 -0.5136  0.2337  0.1854
  967MOL0     C30467   2.146   8.791   7.627 -0.3170  0.5743  0.1025
  967MOL0     C30468   2.276   8.830   7.590 -0.4321  0.9435 -0.7096
  967MOL0     O30469   2.350   8.925   7.644 -0.7510 -0.1354  0.6837
  967MOL0     C30470   2.327   8.978   7.778  0.6384 -0.2533  0.3036
  967MOL0     C30471   2.414   8.886   7.878  0.1689  0.8088  0.6632
  967MOL0     C30472   2.420   8.954   8.011  0.9252 -0.5373  0.1335
  967MOL0     C30473   2.457   8.852   8.129  0.6029 -0.2980 -0.0967
  967MOL0     C30474   2.583   8.786   8.098 -0.4618  0.6852  0.5416
  967MOL0     C30475   2.691   8.729   8.080 -0.7919 -1.1762 -0.1237
  967MOL0     C30476   2.337   8.761   7.484  0.6635  0.6147 -0.9495
  967MOL0     C30477   2.273   8.660   7.419  0.0160 -0.2760  0.5807
  967MOL0     H30478   1.967   8.373   7.157 -1.0724  0.2945 -1.1740
  967MOL0     H30479   1.815   8.237   7.073 -0.1050  0.8695 -0.0037
  967MOL0     H30480   1.543   7.962   7.297  0.4215 -0.0704  1.0809
  967MOL0     H30481   1.452   8.103   7.325 -0.8124 -0.0478  0.0546
  967MOL0     H30482   1.387   8.097   7.070  2.2000  0.7767  0.3038
  967MOL0     H30483   1.432   7.932   7.061 -2.6629  0.5793 -1.9165
  967MOL0     H30484   1.233   8.055   7.251 -0.6436  0.3413 -0.9097
  967MOL0     H30485   1.201   7.958   7.106  1.5207 -0.4827 -0.3563
  967MOL0     H30486   1.337   7.774   7.212 -1.2006 -0.0096  1.3427
  967MOL0     H30487   1.333   7.858   7.371 -0.7616 -1.5024  0.7693
  967MOL0     H30488   1.110   7.744   7.211  0.0452 -2.5123  1.0573
  967MOL0     H30489   1.164   7.692   7.369  4.2936  2.7506  2.3718
  967MOL0     H30490   1.101   7.915   7.475 -0.6912  0.2082 -0.6717
  967MOL0     H30491   1.012   7.963   7.322 -1.7791 -2.0333 -1.5802
  967MOL0     H30492   0.874   7.741   7.365 -2.0862 -0.2817  0.9429
  967MOL0     H30493   0.975   7.728   7.514 -0.7808  0.9828  2.4978
  967MOL0     H30494   0.733   7.903   7.459 -0.1109  0.9651 -0.0600
  967MOL0     H30495   0.861   7.994   7.500  0.7702 -0.2989 -1.0334
  967MOL0     H30496   0.722   7.654   7.613 -0.9677 -0.7390  1.7113
  967MOL0     H30497   0.695   7.641   7.984 -0.9044 -1.0747  0.5766
  967MOL0     H30498   0.640   7.560   7.841  0.9062  0.3141 -0.0349
  967MOL0     H30499   0.774   7.406   7.963 -0.9544  0.5021 -1.3049
  967MOL0     H30500   0.910   7.537   7.979 -0.4668  2.6485 -0.1330
  967MOL0     H30501   0.814   7.414   7.718 -1.6268  1.7924  1.2452
  967MOL0     H30502   0.910   7.311   7.825 -0.7195 -0.3077  0.0678
  967MOL0     H30503   1.083   7.493   7.831 -1.3413  2.5546  1.1479
  967MOL0     H30504   0.994   7.585   7.714  0.4299 -0.8032 -2.5875
  967MOL0     H30505   1.254   7.250   7.600  1.0749  0.0163  1.9758
  967MOL0     H30506   1.599   7.255   7.575 -1.0369 -1.3742  1.5667
  967MOL0     H30507   1.452   7.168   7.520  0.2372  0.0552 -1.9391
  967MOL0     H30508   1.532   7.284   7.413  2.8652  2.4419  1.0070
  967MOL0     H30509   1.706   7.933   7.538 -3.9459 -4.0248 -1.3949
  967MOL0     H30510   1.907   8.033   7.436  1.0840  0.1208 -0.5518
  967MOL0     H30511   1.999   8.013   7.146  1.0550  1.2220 -0.9909
  967MOL0     H30512   2.075   8.102   7.275  2.1771  1.0623 -1.3990
  967MOL0     H30513   2.287   8.014   7.211 -0.6005 -2.7564 -0.7814
  967MOL0     H30514   2.199   7.950   7.066 -1.2387  0.2991 -0.3466
  967MOL0     H30515   2.194   8.249   7.107  1.2811  0.0755  0.1281
  967MOL0     H30516   2.103   8.148   6.995 -2.0461 -0.6020  1.8036
  967MOL0     H30517   2.310   8.071   6.900 -2.2331 -0.5043  1.3840
  967MOL0     H30518   2.293   8.238   6.886  2.5640 -1.1063 -1.8010
  967MOL0     H30519   2.472   8.072   7.076 -1.4422 -0.4389  1.2938
  967MOL0     H30520   2.428   8.244   7.115  0.5986 -1.2028 -0.5002
  967MOL0     H30521   2.590   8.134   6.882 -0.0757 -0.6203  0.3955
  967MOL0     H30522   2.560   8.310   6.902  1.9823  0.4894  0.6147
  967MOL0     H30523   2.672   8.263   7.147 -2.1108  2.4749 -1.0318
  967MOL0     H30524   2.754   8.318   7.007  1.0664  0.0634  0.0322
  967MOL0     H30525   2.898   8.129   7.097 -0.1986  0.7176  1.8997
  967MOL0     H30526   2.819   8.086   6.949  0.7043  4.5654 -0.3632
  967MOL0     H30527   2.021   7.650   7.291  0.0289 -0.6248  2.3064
  967MOL0     H30528   1.836   7.555   7.394 -3.6580 -0.5938  2.0460
  967MOL0     H30529   1.407   7.721   7.578  0.3005 -0.2966  2.7016
  967MOL0     H30530   1.178   7.674   7.625 -0.6476 -0.1604 -1.3578
  967MOL0     H30531   1.635   8.172   7.467 -0.9317  0.4592 -0.0629
  967MOL0     H30532   1.814   8.324   7.550 -2.7267 -4.5628  0.8085
  967MOL0     H30533   1.986   8.658   7.578 -0.2092 -0.0262  1.6646
  967MOL0     H30534   2.106   8.837   7.716  0.8646  2.1626 -0.1542
  967MOL0     H30535   2.366   9.080   7.785 -2.0231  0.7654  1.4949
  967MOL0     H30536   2.223   8.979   7.812  0.5562  2.8824  0.2055
  967MOL0     H30537   2.515   8.887   7.835 -0.1828 -2.1782 -0.4494
  967MOL0     H30538   2.384   8.781   7.873 -1.4786  1.2493  0.8153
  967MOL0     H30539   2.323   9.002   8.027  0.0332 -1.6364 -1.6421
  967MOL0     H30540   2.497   9.031   8.008  0.3535  0.0359 -2.7000
  967MOL0     H30541   2.379   8.777   8.140  1.6500 -1.1870  1.6709
  967MOL0     H30542   2.469   8.912   8.219  1.9538  5.7318 -3.6858
  967MOL0     H30543   2.781   8.673   8.064 -0.2207 -0.4713  0.6096
  967MOL0     H30544   2.426   8.806   7.441  1.3634  3.7045  3.0830
  967MOL0     H30545   2.321   8.627   7.327 -0.3617  4.0922 -1.4178
  968MOL0     O30546   6.963   4.619   1.152 -0.2356 -0.2447 -0.3383
  968MOL0     C30547   6.894   4.520   1.126  0.2656  0.3538  0.0751
  968MOL0     O30548   6.938   4.393   1.086 -0.2900 -0.6575  0.3131
  968MOL0     C30549   7.076   4.391   1.072  0.4478 -0.6404  1.3219
  968MOL0     C30550   7.142   4.392   0.945 -0.4367 -1.4789 -0.6115
  968MOL0     C30551   7.284   4.368   0.936  0.3031  0.2095  0.2073
  968MOL0     C30552   7.356   4.343   1.050 -0.3415 -0.1598 -0.2526
  968MOL0     O30553   7.492   4.309   1.039  0.3614 -0.5368  0.3632
  968MOL0     C30554   7.566   4.373   0.940 -0.3573  0.6129  0.8906
  968MOL0     C30555   7.718   4.381   0.982  0.3110  0.0197  0.0136
  968MOL0     C30556   7.787   4.246   0.994 -0.8265  1.1740  0.2214
  968MOL0     C30557   7.886   4.217   0.874  0.2305 -0.7055 -0.7283
  968MOL0     C30558   7.871   4.076   0.823 -1.0656  0.2835 -0.8579
  968MOL0     C30559   7.945   4.051   0.693  0.6590 -0.1499 -0.4346
  968MOL0     C30560   7.968   3.897   0.666 -0.3821 -1.1826 -1.1966
  968MOL0     C30561   8.036   3.882   0.532 -0.4114 -0.2978  0.6535
  968MOL0     N30562   7.947   3.931   0.418 -1.2169 -0.1190 -0.6681
  968MOL0     C30563   7.967   4.049   0.349  0.9063  0.1856  0.4086
  968MOL0     C30564   7.848   4.068   0.279 -0.5505  0.1747  0.0491
  968MOL0     C30565   7.817   4.176   0.167 -0.1840 -0.7229 -0.0905
  968MOL0     C30566   7.668   4.172   0.130  0.4432  0.1158 -0.1686
  968MOL0     C30567   7.639   4.280   0.031 -0.8543 -0.2737 -0.7564
  968MOL0     C30568   7.700   4.254  -0.108  1.0756  0.8741  0.3367
  968MOL0     O30569   7.681   4.362  -0.201  0.1232  0.1374 -0.6534
  968MOL0     C30570   7.559   4.425  -0.222 -0.1181  0.7184  0.0625
  968MOL0     C30571   7.443   4.355  -0.212 -0.4027 -0.3990  0.1558
  968MOL0     C30572   7.320   4.412  -0.248  0.2570  0.4825  0.3279
  968MOL0     C30573   7.193   4.331  -0.229 -0.2608 -0.1406  0.6985
  968MOL0     C30574   7.318   4.545  -0.291 -0.1200  0.2148 -0.8862
  968MOL0     C30575   7.193   4.618  -0.327 -0.3920  0.3450  0.0261
  968MOL0     O30576   7.078   4.601  -0.254 -0.4278 -0.0726 -0.1030
  968MOL0     C30577   6.967   4.675  -0.287  1.3885 -1.4667 -0.3611
  968MOL0     C30578   6.967   4.809  -0.335  0.2333  0.1159  0.8345
  968MOL0     C30579   6.851   4.870  -0.388 -0.1365  0.1550 -0.1472
  968MOL0     C30580   6.733   4.800  -0.395 -0.7245 -0.3027 -0.4034
  968MOL0     O30581   6.619   4.875  -0.431  0.3508  0.6233  0.1716
  968MOL0     C30582   6.585   4.996  -0.359 -0.0973 -0.8472  0.0991
  968MOL0     C30583   6.435   5.027  -0.348 -0.1961 -0.5865 -0.5212
  968MOL0     C30584   6.369   5.047  -0.492 -0.5741 -0.9287 -0.2550
  968MOL0     C30585   6.222   5.071  -0.469 -0.0094  0.9126  0.4353
  968MOL0     C30586   6.155   5.073  -0.604  0.3717  0.7311  0.3199
  968MOL0     C30587   6.006   5.094  -0.580 -0.2257  0.1575 -0.0649
  968MOL0     C30588   5.934   5.114  -0.719  0.3394 -0.0746  0.5693
  968MOL0     C30589   5.780   5.121  -0.725  0.0611  0.5095  0.2378
  968MOL0    Cl30590   5.702   5.254  -0.647 -0.2135 -0.1359 -0.1011
  968MOL0     C30591   6.730   4.675  -0.340 -0.3569  0.6116 -1.2038
  968MOL0     C30592   6.845   4.615  -0.289  0.0537  0.3378  0.5958
  968MOL0     O30593   7.201   4.670  -0.445  0.1645  0.5528 -0.2442
  968MOL0     C30594   7.442   4.608  -0.306  0.0127  0.0769 -0.0128
  968MOL0     C30595   7.565   4.553  -0.275  0.0075  1.2936  0.0145
  968MOL0     N30596   7.760   3.959   0.308  0.6066 -0.7106 -0.2944
  968MOL0     N30597   7.819   3.893   0.397 -0.5163 -0.8252  0.6722
  968MOL0     C30598   7.295   4.337   1.180  0.3153 -0.3888  0.8157
  968MOL0     C30599   7.157   4.364   1.184  0.7688 -0.0105  0.4802
  968MOL0     C30600   6.741   4.551   1.106  0.5946  0.0107  1.0022
  968MOL0     C30601   6.651   4.450   1.078 -1.3595 -0.3416 -0.8541
  968MOL0     C30602   6.513   4.476   1.057  0.9041 -1.9003 -0.2048
  968MOL0     C30603   6.466   4.617   1.052  0.0611  1.1932 -0.6696
  968MOL0     O30604   6.332   4.638   1.020  0.2769 -0.2071  0.8729
  968MOL0     C30605   6.237   4.527   1.001  0.0773  0.1962 -1.0312
  968MOL0     C30606   6.095   4.576   0.972  0.2491 -0.6818 -0.2704
  968MOL0     C30607   6.075   4.616   0.828  0.4119  0.4534  0.4956
  968MOL0     C30608   6.130   4.748   0.776  0.4139  0.6988 -0.1037
  968MOL0     C30609   6.083   4.862   0.858  0.1329 -0.2511  0.4091
  968MOL0     C30610   6.032   4.957   0.923  0.2910  0.5804 -1.0992
  968MOL0     C30611   6.559   4.716   1.081  0.5442 -0.6320 -2.5683
  968MOL0     C30612   6.697   4.682   1.102  0.3523 -0.0163 -0.1489
  968MOL0     H30613   7.081   4.406   0.856  1.6900  0.4951 -1.8774
  968MOL0     H30614   7.333   4.366   0.839 -1.0931 -0.0874 -0.5297
  968MOL0     H30615   7.564   4.312   0.849  3.1430 -1.8040  2.1961
  968MOL0     H30616   7.534   4.474   0.915  2.2121  1.5602  1.0920
  968MOL0     H30617   7.768   4.438   0.903  2.3630 -3.9292 -1.8403
  968MOL0     H30618   7.724   4.440   1.074 -3.2197  1.0086 -0.2368
  968MOL0     H30619   7.844   4.241   1.087 -0.8835 -0.6013  0.1907
  968MOL0     H30620   7.713   4.166   1.005 -0.2930  0.8938  2.0831
  968MOL0     H30621   7.859   4.283   0.791 -1.1906 -0.1350  0.1530
  968MOL0     H30622   7.987   4.245   0.905 -0.6543  1.5130  0.3292
  968MOL0     H30623   7.915   4.008   0.896  0.4927  0.8689 -1.2064
  968MOL0     H30624   7.768   4.051   0.798 -1.0462  1.5539 -2.4312
  968MOL0     H30625   7.877   4.093   0.618 -2.0693  0.7762  2.3259
  968MOL0     H30626   8.040   4.106   0.697  0.5580 -0.0267  1.6056
  968MOL0     H30627   8.043   3.860   0.736 -1.5213 -0.7747  0.2987
  968MOL0     H30628   7.879   3.835   0.659 -0.4968 -0.8150 -4.4862
  968MOL0     H30629   8.063   3.777   0.516  0.4454  0.0320 -0.1839
  968MOL0     H30630   8.123   3.948   0.519 -2.8196  2.9194 -0.4894
  968MOL0     H30631   8.054   4.112   0.334 -0.2467  1.1987 -2.9652
  968MOL0     H30632   7.847   4.274   0.204  0.6249 -0.5813 -1.0659
  968MOL0     H30633   7.883   4.150   0.083 -2.5059 -1.6083 -1.7496
  968MOL0     H30634   7.602   4.164   0.217  2.0353 -3.9461  0.9375
  968MOL0     H30635   7.653   4.075   0.081  1.2935  0.9674 -2.1870
  968MOL0     H30636   7.681   4.375   0.064  0.3433 -0.9860 -0.1410
  968MOL0     H30637   7.531   4.299   0.032 -0.8176  1.7362  4.8022
  968MOL0     H30638   7.641   4.181  -0.164 -2.5839  1.3940  3.1440
  968MOL0     H30639   7.804   4.227  -0.092 -0.0675 -2.9841  2.5414
  968MOL0     H30640   7.449   4.252  -0.180 -0.0308 -1.1566 -2.2326
  968MOL0     H30641   7.138   4.373  -0.144 -0.8339  1.0970 -0.2430
  968MOL0     H30642   7.118   4.332  -0.309  0.8499 -0.0802 -0.3621
  968MOL0     H30643   7.214   4.229  -0.194 -2.3090 -0.4957  1.0739
  968MOL0     H30644   7.063   4.858  -0.344  1.2683 -1.7798  1.1421
  968MOL0     H30645   6.850   4.977  -0.408 -1.5463  0.3447  0.7624
  968MOL0     H30646   6.622   4.994  -0.256  0.0910 -2.9244  0.0475
  968MOL0     H30647   6.639   5.079  -0.405 -1.7319 -0.9008 -2.0937
  968MOL0     H30648   6.394   4.936  -0.303 -0.0762 -2.1467 -3.3508
  968MOL0     H30649   6.427   5.110  -0.278 -0.5841 -1.0449 -0.0107
  968MOL0     H30650   6.387   4.956  -0.550 -0.9759 -0.6136 -0.8899
  968MOL0     H30651   6.417   5.130  -0.545 -1.4173  0.3320  0.8843
  968MOL0     H30652   6.187   4.990  -0.404 -0.1568 -0.0169 -0.7475
  968MOL0     H30653   6.206   5.168  -0.422 -0.8522 -0.0473  2.2622
  968MOL0     H30654   6.169   4.979  -0.658  0.1895  0.3914  0.8516
  968MOL0     H30655   6.198   5.148  -0.671 -0.4180 -0.5077 -1.6488
  968MOL0     H30656   5.970   5.001  -0.535  0.6308  0.0689  0.4472
  968MOL0     H30657   5.991   5.176  -0.509  2.3990 -0.7315  1.6544
  968MOL0     H30658   5.963   5.021  -0.770  0.2131 -0.2865  0.8765
  968MOL0     H30659   5.970   5.200  -0.776 -2.5116 -1.1005 -3.2275
  968MOL0     H30660   5.731   5.029  -0.691  2.4128 -1.5583 -1.5971
  968MOL0     H30661   5.760   5.129  -0.833 -0.0640  0.3477  0.2486
  968MOL0     H30662   6.634   4.625  -0.329 -1.1710  2.1732 -0.9067
  968MOL0     H30663   6.833   4.510  -0.265 -3.0407 -1.4514 -6.3468
  968MOL0     H30664   7.435   4.705  -0.353  1.3451  1.3363  2.1905
  968MOL0     H30665   7.663   4.597  -0.292 -1.0987  2.8259 -3.1089
  968MOL0     H30666   7.360   4.313   1.263 -2.6699 -3.0340  2.6562
  968MOL0     H30667   7.115   4.369   1.284  0.2929 -1.8199  0.4115
  968MOL0     H30668   6.686   4.347   1.069 -2.6342 -1.0775  1.7106
  968MOL0     H30669   6.448   4.390   1.045  1.6435 -2.7048  1.2114
  968MOL0     H30670   6.264   4.468   0.913  0.3801 -0.7446 -0.3236
  968MOL0     H30671   6.244   4.469   1.093  0.6845  3.5315  1.2210
  968MOL0     H30672   6.082   4.671   1.024 -0.4696  0.8743 -3.0625
  968MOL0     H30673   6.018   4.503   0.999  2.1455 -2.0828  1.6371
  968MOL0     H30674   5.968   4.638   0.820  0.9057  2.4380 -1.6249
  968MOL0     H30675   6.092   4.539   0.752  2.1705  0.4555  0.8533
  968MOL0     H30676   6.086   4.760   0.676 -1.4691  1.0880  0.7259
  968MOL0     H30677   6.239   4.739   0.769  0.4952 -3.1905  2.5891
  968MOL0     H30678   5.991   5.039   0.978  2.1510  0.3851  0.6853
  968MOL0     H30679   6.518   4.814   1.062 -0.2132 -0.1744  0.8031
  968MOL0     H30680   6.771   4.761   1.100  0.7238 -0.2923  1.3270
  969MOL0     O30681   2.012   3.514   9.869 -0.0631  0.2331 -0.2239
  969MOL0     C30682   1.940   3.420   9.905 -0.6119  0.4242 -0.1933
  969MOL0     O30683   1.890   3.320   9.826  0.2212 -0.0877 -0.0714
  969MOL0     C30684   1.907   3.326   9.687 -0.1007  0.1224  0.2283
  969MOL0     C30685   1.833   3.403   9.600  0.7642  0.3183 -0.0659
  969MOL0     C30686   1.847   3.399   9.461 -0.0442  0.2983  0.6796
  969MOL0     C30687   1.936   3.311   9.403 -0.7845  0.5035 -0.1793
  969MOL0     O30688   1.953   3.301   9.269 -0.2218  0.8618  0.6573
  969MOL0     C30689   2.051   3.389   9.226 -0.1862  0.2994 -0.5678
  969MOL0     C30690   2.071   3.380   9.076 -0.3507 -0.2866  0.0464
  969MOL0     C30691   2.208   3.430   9.029  0.7896  0.0113 -0.5793
  969MOL0     C30692   2.253   3.398   8.889  0.4243  0.1657  0.1023
  969MOL0     C30693   2.420   3.383   8.885  0.3404  0.6071 -0.2270
  969MOL0     C30694   2.518   3.508   8.925 -0.1406  0.3635 -0.4254
  969MOL0     C30695   2.664   3.471   8.900 -0.8377  0.3577 -0.6733
  969MOL0     C30696   2.740   3.602   8.925  0.1006  0.8259 -0.9304
  969MOL0     N30697   2.884   3.595   8.939 -0.0180 -0.0189 -0.6903
  969MOL0     C30698   2.969   3.516   8.875 -0.4360  0.4869  0.4861
  969MOL0     C30699   3.094   3.544   8.923 -0.1068 -0.2788 -0.0598
  969MOL0     C30700   3.213   3.484   8.864 -0.9390  0.5365  0.4446
  969MOL0     C30701   3.258   3.543   8.735  0.9842  0.0545  0.3536
  969MOL0     C30702   3.393   3.481   8.696 -0.3184  0.6765  0.5696
  969MOL0     C30703   3.508   3.537   8.770  0.3487 -0.1162  1.1642
  969MOL0     O30704   3.632   3.491   8.710  0.7259  0.3705 -0.1495
  969MOL0     C30705   3.752   3.518   8.762 -0.1328  0.8018  0.0600
  969MOL0     C30706   3.850   3.491   8.676  0.3194  0.4402 -0.1262
  969MOL0     C30707   3.982   3.505   8.719  0.0565 -0.0777  0.8071
  969MOL0     C30708   4.088   3.492   8.612  0.9587 -0.8225  0.5082
  969MOL0     C30709   4.013   3.516   8.859  0.3453 -0.7200 -0.0188
  969MOL0     C30710   4.159   3.501   8.912 -0.5479 -0.3963 -0.6093
  969MOL0     O30711   4.196   3.516   9.043  0.1386  0.3003 -0.0594
  969MOL0     C30712   4.326   3.482   9.076 -0.0679  0.1804 -0.2063
  969MOL0     C30713   4.399   3.574   9.154  0.7093 -0.0852 -0.1458
  969MOL0     C30714   4.529   3.536   9.188 -0.0683 -0.5935  0.1931
  969MOL0     C30715   4.578   3.413   9.163 -1.1643 -0.0696  0.3984
  969MOL0     O30716   4.707   3.372   9.195  0.5087  0.1593  0.7591
  969MOL0     C30717   4.795   3.447   9.286 -0.2951 -0.0359  0.4535
  969MOL0     C30718   4.889   3.551   9.236 -0.7218  0.1160 -0.5918
  969MOL0     C30719   5.000   3.591   9.331 -0.0864 -0.3175 -0.0283
  969MOL0     C30720   5.106   3.491   9.369 -0.4057  0.0685 -0.1187
  969MOL0     C30721   5.172   3.534   9.501 -0.2956  0.0212 -0.1636
  969MOL0     C30722   5.322   3.485   9.506 -0.1908 -0.5314 -0.1685
  969MOL0     C30723   5.380   3.509   9.648 -0.4891  0.5747 -0.2492
  969MOL0     C30724   5.532   3.523   9.655  0.4108  0.6770  0.0281
  969MOL0    Cl30725   5.598   3.374   9.591 -0.0867  0.1282  0.2970
  969MOL0     C30726   4.518   3.331   9.074 -0.1884  0.4901 -0.3584
  969MOL0     C30727   4.386   3.364   9.044 -0.0339 -0.4426  1.2273
  969MOL0     O30728   4.242   3.494   8.823  0.0666  0.0680 -0.1282
  969MOL0     C30729   3.908   3.537   8.947 -0.0859  0.1835 -0.5159
  969MOL0     C30730   3.777   3.536   8.900  0.1698  0.5866  0.3200
  969MOL0     N30731   3.084   3.663   8.995 -0.4013 -0.4248  0.2531
  969MOL0     N30732   2.961   3.694   8.989 -0.0550  0.2386 -0.3093
  969MOL0     C30733   2.025   3.238   9.486  0.3714 -0.6936 -0.5547
  969MOL0     C30734   2.004   3.250   9.627  0.7028  0.6316  0.3737
  969MOL0     C30735   1.929   3.394  10.052  0.2595 -0.5198 -0.8897
  969MOL0     C30736   1.842   3.295  10.099 -0.4777 -0.4572  0.0609
  969MOL0     C30737   1.832   3.272  10.234  0.3379  0.7717  0.0250
  969MOL0     C30738   1.896   3.350  10.331 -0.7426 -0.1646  0.3378
  969MOL0     O30739   1.874   3.334  10.467 -0.0616  0.0923 -0.2732
  969MOL0     C30740   1.902   3.432  10.567  0.1714 -0.0290  1.4078
  969MOL0     C30741   1.820   3.376  10.693 -0.3238  0.6843  0.8512
  969MOL0     C30742   1.684   3.319  10.663 -0.2762 -0.5269  0.3305
  969MOL0     C30743   1.619   3.272  10.790  0.0478  0.3282  0.1370
  969MOL0     C30744   1.649   3.138  10.830  0.5773  0.4831 -0.0423
  969MOL0     C30745   1.670   3.022  10.845 -0.5803  0.1881 -1.0316
  969MOL0     C30746   1.981   3.449  10.280  0.4451 -0.2874  0.8648
  969MOL0     C30747   2.010   3.465  10.143  0.1035  0.0491 -0.2159
  969MOL0     H30748   1.753   3.454   9.654  0.6679  1.1662 -0.9896
  969MOL0     H30749   1.778   3.461   9.405  0.3127  0.0561 -0.0387
  969MOL0     H30750   2.024   3.490   9.257 -1.3875  0.0783 -0.8278
  969MOL0     H30751   2.141   3.372   9.287 -1.0302 -1.8242  0.2012
  969MOL0     H30752   2.071   3.271   9.062  1.3266  0.0115 -2.9363
  969MOL0     H30753   1.987   3.430   9.028  1.2879  1.8595 -0.7440
  969MOL0     H30754   2.213   3.535   9.060 -0.7780 -0.1546  0.3673
  969MOL0     H30755   2.281   3.378   9.092  0.7814 -0.0593 -0.6282
  969MOL0     H30756   2.219   3.300   8.854  3.2883 -0.5499 -0.9575
  969MOL0     H30757   2.222   3.479   8.822 -3.2973 -0.9727  0.2034
  969MOL0     H30758   2.451   3.287   8.928  2.3811 -1.0177 -4.6541
  969MOL0     H30759   2.446   3.363   8.780 -2.7258  1.8968 -1.3435
  969MOL0     H30760   2.476   3.589   8.865 -0.0703  1.8861  1.5195
  969MOL0     H30761   2.514   3.545   9.027 -0.5496 -0.5539 -0.0909
  969MOL0     H30762   2.710   3.405   8.975  1.0010 -0.1726 -2.1906
  969MOL0     H30763   2.695   3.423   8.807  1.4084 -0.8462  0.6172
  969MOL0     H30764   2.703   3.647   9.018  0.8631  0.0005 -0.2124
  969MOL0     H30765   2.710   3.672   8.847 -0.3146  0.8497 -0.7535
  969MOL0     H30766   2.950   3.445   8.795  1.4239  4.6403 -4.1606
  969MOL0     H30767   3.285   3.491   8.947 -2.2555  1.6599  1.5515
  969MOL0     H30768   3.191   3.379   8.843  0.3378  0.1156  1.1136
  969MOL0     H30769   3.262   3.651   8.750  0.3480  0.0111  0.8325
  969MOL0     H30770   3.185   3.521   8.656 -1.7786 -0.3677  2.8665
  969MOL0     H30771   3.400   3.486   8.587 -3.7116 -1.7489  0.0931
  969MOL0     H30772   3.393   3.376   8.726 -0.2183  0.5879  0.2583
  969MOL0     H30773   3.514   3.509   8.875  1.9131  0.8834  1.3752
  969MOL0     H30774   3.494   3.646   8.773  2.3676  0.1946  0.8498
  969MOL0     H30775   3.826   3.458   8.575  4.1336  2.7346 -2.0225
  969MOL0     H30776   4.131   3.392   8.602 -0.4546 -1.4981  0.9694
  969MOL0     H30777   4.036   3.500   8.516 -1.1522 -0.6963  1.6019
  969MOL0     H30778   4.162   3.573   8.617  0.4364 -0.3696  1.0931
  969MOL0     H30779   4.369   3.672   9.190 -0.2956  0.0345 -1.2550
  969MOL0     H30780   4.578   3.602   9.258  1.8257 -0.3671 -1.2555
  969MOL0     H30781   4.728   3.482   9.365 -1.7378 -3.3358  0.8478
  969MOL0     H30782   4.857   3.375   9.340 -1.4644 -2.5531 -1.3883
  969MOL0     H30783   4.937   3.515   9.145 -0.5539 -1.3540  0.0403
  969MOL0     H30784   4.837   3.643   9.208  0.1110  0.0606 -2.4511
  969MOL0     H30785   4.956   3.635   9.421 -0.5009  2.9555 -1.6527
  969MOL0     H30786   5.038   3.676   9.273 -4.0268 -0.3318 -3.0843
  969MOL0     H30787   5.058   3.396   9.394  0.1194 -0.2911 -0.4479
  969MOL0     H30788   5.177   3.474   9.287  4.4038  0.6237  3.5053
  969MOL0     H30789   5.115   3.503   9.589 -2.4384  2.3291 -0.6239
  969MOL0     H30790   5.178   3.643   9.503 -1.9774  0.1684  3.0201
  969MOL0     H30791   5.327   3.378   9.481  3.5369 -0.6799  0.6669
  969MOL0     H30792   5.390   3.541   9.442  2.8736 -1.8233  1.7556
  969MOL0     H30793   5.366   3.420   9.710  1.6726 -0.4538 -1.1042
  969MOL0     H30794   5.340   3.592   9.706  0.7247 -0.1084  1.6506
  969MOL0     H30795   5.568   3.540   9.758  1.5802  1.3995 -0.4729
  969MOL0     H30796   5.567   3.607   9.595  0.1539  0.5765 -0.2596
  969MOL0     H30797   4.566   3.237   9.051  0.7704 -0.0699  3.2828
  969MOL0     H30798   4.319   3.299   8.989 -1.8917  1.9572  0.5098
  969MOL0     H30799   3.932   3.550   9.051 -3.0154 -0.5130  0.3530
  969MOL0     H30800   3.700   3.558   8.973 -0.0071 -1.7560  0.9242
  969MOL0     H30801   2.113   3.185   9.449  0.9194 -0.8386  0.9043
  969MOL0     H30802   2.067   3.184   9.685  2.9692  1.0196 -1.4687
  969MOL0     H30803   1.785   3.241  10.025  1.6528 -1.3611 -1.0064
  969MOL0     H30804   1.767   3.190  10.261  2.1358 -1.0010 -0.8312
  969MOL0     H30805   2.011   3.446  10.567  0.0416  1.3017  0.2575
  969MOL0     H30806   1.861   3.527  10.531 -0.6077 -0.8804 -0.0333
  969MOL0     H30807   1.820   3.460  10.763 -1.9338 -0.8043  2.7591
  969MOL0     H30808   1.878   3.299  10.746 -0.5446 -0.8594 -1.0410
  969MOL0     H30809   1.677   3.236  10.591  0.7156 -1.4225  1.2349
  969MOL0     H30810   1.638   3.410  10.625  2.1146  0.1277 -1.2726
  969MOL0     H30811   1.512   3.265  10.769 -0.2216  1.4102  1.0242
  969MOL0     H30812   1.631   3.330  10.882 -0.4670 -1.5273  1.4254
  969MOL0     H30813   1.680   2.915  10.841 -2.7101 -0.0589 -1.4116
  969MOL0     H30814   2.032   3.514  10.351 -2.7285  0.5466  2.5893
  969MOL0     H30815   2.083   3.538  10.109 -2.6892  2.5252 -1.4130
  970MOL0     O30816   6.826   6.671   8.897  0.2037 -0.3643 -0.2242
  970MOL0     C30817   6.913   6.626   8.824 -0.0757  0.0323 -0.5727
  970MOL0     O30818   6.897   6.525   8.736 -0.2287  0.7126  0.7540
  970MOL0     C30819   6.770   6.492   8.698 -1.1571  0.3037  0.5989
  970MOL0     C30820   6.670   6.574   8.641  0.0920  0.3264 -1.1083
  970MOL0     C30821   6.555   6.522   8.586  0.3226 -0.5281  0.1024
  970MOL0     C30822   6.539   6.386   8.581 -0.2963 -0.5290 -0.3917
  970MOL0     O30823   6.411   6.345   8.535 -0.6096  1.1684  0.1728
  970MOL0     C30824   6.403   6.209   8.485  0.9127  0.3479 -0.4982
  970MOL0     C30825   6.282   6.186   8.404 -0.4464 -0.4904 -0.7024
  970MOL0     C30826   6.293   6.264   8.265  0.0489  0.5108  0.2611
  970MOL0     C30827   6.155   6.318   8.226  0.5220 -0.1887  0.8600
  970MOL0     C30828   6.050   6.207   8.217  0.1628 -0.1617  0.7106
  970MOL0     C30829   5.937   6.239   8.114  0.5148 -0.2017 -0.3115
  970MOL0     C30830   5.976   6.197   7.975  0.7032 -0.4855  0.6378
  970MOL0     C30831   5.889   6.256   7.865 -0.2191  0.7175 -0.6184
  970MOL0     N30832   5.949   6.220   7.737 -0.0848 -0.1825 -0.3405
  970MOL0     C30833   6.034   6.299   7.670 -0.5274 -0.2614  0.8453
  970MOL0     C30834   6.022   6.273   7.542  0.4653 -0.3991 -0.9083
  970MOL0     C30835   6.088   6.349   7.427 -1.0146 -0.1168 -0.6179
  970MOL0     C30836   6.010   6.360   7.296 -0.4198  0.1027 -0.1521
  970MOL0     C30837   6.063   6.476   7.219  0.4902 -0.2207 -0.2699
  970MOL0     C30838   6.210   6.458   7.173 -0.3709 -0.8996 -0.5220
  970MOL0     O30839   6.247   6.554   7.068  0.1565 -0.3562 -0.4528
  970MOL0     C30840   6.377   6.588   7.059 -0.5249 -1.0144  0.1307
  970MOL0     C30841   6.437   6.697   7.129 -0.2900  0.5811  0.4422
  970MOL0     C30842   6.571   6.739   7.104 -0.1253 -0.8702  0.7581
  970MOL0     C30843   6.618   6.865   7.174  1.0164 -1.0945 -0.0198
  970MOL0     C30844   6.646   6.662   7.011  0.8850  0.9559 -0.4746
  970MOL0     C30845   6.781   6.691   6.963 -0.2008 -1.5256 -0.1362
  970MOL0     O30846   6.853   6.593   6.900 -0.5699 -0.4394  0.2864
  970MOL0     C30847   6.950   6.619   6.809  0.2310  0.3614 -0.0714
  970MOL0     C30848   7.065   6.548   6.821 -0.1469  0.5329 -0.7574
  970MOL0     C30849   7.165   6.558   6.722  0.0280 -0.0514  0.0095
  970MOL0     C30850   7.145   6.626   6.607  1.2492 -0.8973  0.6487
  970MOL0     O30851   7.245   6.623   6.514 -0.8868 -0.8605  0.1942
  970MOL0     C30852   7.254   6.726   6.412  0.0756  0.6927  0.4719
  970MOL0     C30853   7.375   6.698   6.322  0.9836  0.4361  0.2185
  970MOL0     C30854   7.437   6.821   6.258  0.0307 -0.2731 -0.4563
  970MOL0     C30855   7.516   6.782   6.137 -1.0023 -0.1145 -0.1116
  970MOL0     C30856   7.597   6.907   6.095 -0.4843  0.4454  0.3111
  970MOL0     C30857   7.694   6.883   5.980  0.1394 -0.5426 -0.0062
  970MOL0     C30858   7.766   7.018   5.951 -0.0408 -0.0950 -0.0566
  970MOL0     C30859   7.869   7.018   5.838 -0.8575 -0.2139  0.3402
  970MOL0    Cl30860   7.969   7.169   5.850 -0.1485 -0.4865 -0.2555
  970MOL0     C30861   7.028   6.703   6.585  1.3277  0.3440  0.0043
  970MOL0     C30862   6.928   6.695   6.686 -0.1994 -0.3194  0.0226
  970MOL0     O30863   6.816   6.810   6.984 -0.1521 -0.3440 -0.2195
  970MOL0     C30864   6.580   6.545   6.943  0.3137 -0.2886  0.9185
  970MOL0     C30865   6.445   6.510   6.978 -0.5903 -0.3658 -0.7654
  970MOL0     N30866   5.930   6.171   7.530  0.0312  0.2632  0.4853
  970MOL0     N30867   5.898   6.130   7.649  0.5265 -0.3314  0.5100
  970MOL0     C30868   6.636   6.299   8.636  0.2419 -0.7744 -0.5357
  970MOL0     C30869   6.758   6.354   8.690 -1.0903  0.0373  0.0312
  970MOL0     C30870   7.057   6.659   8.839  0.5419  0.4627 -0.5840
  970MOL0     C30871   7.093   6.758   8.927  0.5407  0.2876  0.6142
  970MOL0     C30872   7.227   6.781   8.957  0.9486 -0.0476 -0.2810
  970MOL0     C30873   7.328   6.711   8.891 -0.1196 -0.0592 -0.1169
  970MOL0     O30874   7.451   6.752   8.924  1.1226 -0.1142  0.1612
  970MOL0     C30875   7.566   6.700   8.861  0.2554 -0.5930 -0.2684
  970MOL0     C30876   7.682   6.775   8.931  0.4930 -1.0158  1.2856
  970MOL0     C30877   7.696   6.753   9.092  0.1945 -0.6464 -0.7770
  970MOL0     C30878   7.811   6.837   9.156 -0.1755 -0.8218 -0.4888
  970MOL0     C30879   7.936   6.767   9.167 -0.8127  0.1599 -0.3767
  970MOL0     C30880   8.049   6.711   9.174  0.7203 -0.6523  0.2742
  970MOL0     C30881   7.301   6.605   8.799  0.4182 -0.9520  0.1237
  970MOL0     C30882   7.164   6.582   8.782  0.5152  0.6517  0.2994
  970MOL0     H30883   6.689   6.680   8.652  0.6206  0.0512  1.1463
  970MOL0     H30884   6.482   6.589   8.543  1.2128 -0.0803 -0.7510
  970MOL0     H30885   6.495   6.180   8.434  1.5741 -0.0272  0.8466
  970MOL0     H30886   6.392   6.147   8.575 -0.9160  1.0434 -0.2029
  970MOL0     H30887   6.265   6.080   8.384  0.6662 -0.8628  0.2156
  970MOL0     H30888   6.194   6.219   8.459 -0.0814 -2.0564  0.8971
  970MOL0     H30889   6.359   6.350   8.276  1.9081 -0.9920  1.6486
  970MOL0     H30890   6.324   6.200   8.181  0.2736  1.1268 -0.1336
  970MOL0     H30891   6.134   6.385   8.311 -0.0815 -2.8186  2.9195
  970MOL0     H30892   6.154   6.378   8.135 -4.2444  0.7338  1.2807
  970MOL0     H30893   6.101   6.115   8.185 -1.1418 -0.0414 -1.9974
  970MOL0     H30894   6.009   6.207   8.318  0.2106 -1.6732  0.7640
  970MOL0     H30895   5.860   6.164   8.132  0.5983 -0.0841  0.6134
  970MOL0     H30896   5.901   6.343   8.117  0.7949 -0.1240  0.9576
  970MOL0     H30897   6.074   6.240   7.951 -0.9608  3.3492  0.0482
  970MOL0     H30898   5.982   6.088   7.972  0.5988 -0.5402  1.8097
  970MOL0     H30899   5.869   6.362   7.880 -0.3315  0.8546 -1.6452
  970MOL0     H30900   5.791   6.207   7.869  0.1540  0.0534  1.4317
  970MOL0     H30901   6.086   6.385   7.712 -0.2790  1.1045 -1.9967
  970MOL0     H30902   6.111   6.450   7.464  1.9805 -0.5603 -0.9895
  970MOL0     H30903   6.188   6.309   7.410 -1.0316  0.0569 -1.1441
  970MOL0     H30904   5.905   6.379   7.318  0.4615  2.6706  2.5443
  970MOL0     H30905   6.020   6.267   7.241 -1.3784 -0.0746 -0.0330
  970MOL0     H30906   6.041   6.563   7.281 -1.4367  0.5403 -1.9079
  970MOL0     H30907   5.996   6.495   7.134 -1.3278  0.5812  1.2773
  970MOL0     H30908   6.225   6.358   7.131 -0.0773 -1.9116  1.8366
  970MOL0     H30909   6.279   6.471   7.257  0.2269  3.6941 -1.4531
  970MOL0     H30910   6.385   6.756   7.204 -0.1572 -1.5233  2.2765
  970MOL0     H30911   6.693   6.841   7.250  0.9513 -0.4267  0.2634
  970MOL0     H30912   6.649   6.941   7.101  0.4113 -1.0361 -0.2203
  970MOL0     H30913   6.534   6.906   7.231  2.2038  0.3305  0.8092
  970MOL0     H30914   7.066   6.476   6.902 -1.3851  0.3560 -0.8799
  970MOL0     H30915   7.249   6.491   6.725 -0.7309 -1.0970  4.1408
  970MOL0     H30916   7.164   6.727   6.349  0.5470 -1.9237 -0.3457
  970MOL0     H30917   7.267   6.823   6.461  2.7242 -0.5747  2.4973
  970MOL0     H30918   7.452   6.653   6.385  0.1084  0.0542  1.0282
  970MOL0     H30919   7.346   6.620   6.251  0.6958  0.4246  0.3496
  970MOL0     H30920   7.489   6.891   6.323 -3.5208  1.2367  0.9893
  970MOL0     H30921   7.357   6.884   6.218 -1.2623 -0.7053  1.3381
  970MOL0     H30922   7.570   6.692   6.168  1.1112  1.4899  1.1887
  970MOL0     H30923   7.448   6.757   6.055  0.3805  1.0198 -1.6746
  970MOL0     H30924   7.667   6.936   6.174 -0.7671  0.4762  0.5513
  970MOL0     H30925   7.528   6.989   6.071 -0.3685  0.6382  0.6323
  970MOL0     H30926   7.769   6.807   6.007 -1.4579 -1.3972  2.3650
  970MOL0     H30927   7.635   6.845   5.896 -0.1274  1.9683 -1.0230
  970MOL0     H30928   7.822   7.047   6.039  3.2835  1.9661 -2.6114
  970MOL0     H30929   7.690   7.093   5.925  0.0062  0.1561  0.5300
  970MOL0     H30930   7.811   7.001   5.748 -0.0763  1.4930 -0.5499
  970MOL0     H30931   7.945   6.940   5.851  1.6825  2.1247  0.6488
  970MOL0     H30932   7.018   6.779   6.509  1.2759 -0.0945 -0.4283
  970MOL0     H30933   6.838   6.755   6.674  0.1793 -0.1363 -2.5346
  970MOL0     H30934   6.628   6.496   6.859 -2.4603 -1.6316 -0.0161
  970MOL0     H30935   6.381   6.440   6.926 -2.8399  1.0331 -0.0115
  970MOL0     H30936   6.615   6.195   8.655 -0.6939 -0.7490 -1.3737
  970MOL0     H30937   6.846   6.308   8.734 -0.8037  1.5615  1.1781
  970MOL0     H30938   7.019   6.827   8.965 -2.3032 -2.5533  0.7392
  970MOL0     H30939   7.245   6.861   9.028  1.5968  1.0581 -1.6358
  970MOL0     H30940   7.571   6.591   8.863  1.4430 -0.5381  0.7198
  970MOL0     H30941   7.572   6.720   8.754  1.7346 -1.4246 -0.3684
  970MOL0     H30942   7.652   6.880   8.922  3.4706 -0.2503 -1.5256
  970MOL0     H30943   7.779   6.758   8.884  0.1032 -1.4675  0.6274
  970MOL0     H30944   7.694   6.648   9.123  2.2368 -0.5731 -0.2985
  970MOL0     H30945   7.607   6.796   9.141 -0.2301 -1.5898 -0.6956
  970MOL0     H30946   7.790   6.858   9.261 -0.2381 -1.2599 -0.4129
  970MOL0     H30947   7.828   6.929   9.099 -2.9425  1.0993  1.5461
  970MOL0     H30948   8.144   6.661   9.178 -0.1411 -2.4226 -0.3060
  970MOL0     H30949   7.383   6.559   8.744  0.5462  1.2770 -1.6913
  970MOL0     H30950   7.140   6.498   8.718 -0.8277 -0.2557  1.9094
  971MOL0     O30951   9.088   2.219   0.572 -0.4628  0.7394 -0.7693
  971MOL0     C30952   9.036   2.203   0.459  0.1276 -0.1765  0.3015
  971MOL0     O30953   9.095   2.235   0.342 -0.2716  0.2877 -0.3023
  971MOL0     C30954   9.180   2.334   0.321 -0.4472  0.9040  0.6908
  971MOL0     C30955   9.229   2.344   0.186  0.1246 -0.0493  0.2177
  971MOL0     C30956   9.316   2.451   0.155  0.3809 -0.9469  0.4052
  971MOL0     C30957   9.362   2.543   0.249  0.4099  0.7651 -0.0778
  971MOL0     O30958   9.456   2.644   0.233  0.0422  0.1030  0.7726
  971MOL0     C30959   9.594   2.606   0.265 -0.0629 -0.1228 -1.0578
  971MOL0     C30960   9.671   2.549   0.150 -0.4667 -0.2094  0.5814
  971MOL0     C30961   9.711   2.659   0.051  0.5507 -0.6165  0.6047
  971MOL0     C30962   9.772   2.600  -0.074 -0.8734 -0.2462  0.2891
  971MOL0     C30963   9.796   2.713  -0.172 -0.4571 -0.3875 -0.6448
  971MOL0     C30964   9.873   2.665  -0.298 -0.3215  0.5130 -0.3584
  971MOL0     C30965   9.861   2.779  -0.400  0.4837 -0.2021  0.5181
  971MOL0     C30966   9.943   2.758  -0.525 -0.0341 -0.2939  0.7080
  971MOL0     N30967   9.907   2.852  -0.639 -0.7652  1.1080  0.2517
  971MOL0     C30968   9.944   2.975  -0.657 -1.7061 -0.2778 -0.7330
  971MOL0     C30969   9.873   3.030  -0.763 -0.3024  0.8984  0.0091
  971MOL0     C30970   9.880   3.176  -0.818 -0.3317 -0.6830  0.6581
  971MOL0     C30971   9.756   3.259  -0.781 -0.8162  1.2790 -1.2190
  971MOL0     C30972   9.780   3.287  -0.625  0.6255  0.4245 -0.0219
  971MOL0     C30973   9.710   3.409  -0.576  1.0274  0.0173 -0.1862
  971MOL0     O30974   9.782   3.517  -0.638 -0.0182 -0.4316 -0.3057
  971MOL0     C30975   9.704   3.616  -0.676  0.2229  0.2689  0.1542
  971MOL0     C30976   9.687   3.718  -0.581  0.7401 -0.2552 -0.0880
  971MOL0     C30977   9.624   3.836  -0.615  0.0929 -0.0072  0.1592
  971MOL0     C30978   9.647   3.956  -0.517 -0.3510  0.0164  0.7903
  971MOL0     C30979   9.560   3.857  -0.746  0.1056 -0.3563 -1.0780
  971MOL0     C30980   9.476   3.981  -0.784 -0.2685 -0.1464  0.2907
  971MOL0     O30981   9.444   3.984  -0.916  0.3014  0.2089 -0.9793
  971MOL0     C30982   9.424   4.106  -0.972 -0.1987 -0.1096  0.5937
  971MOL0     C30983   9.527   4.165  -1.056 -0.0261  0.5542  0.0694
  971MOL0     C30984   9.501   4.285  -1.128  0.2102  0.1694  0.5349
  971MOL0     C30985   9.373   4.347  -1.118 -0.4954 -0.9681 -0.1485
  971MOL0     O30986   9.357   4.463  -1.193  0.4803  0.0531  0.4988
  971MOL0     C30987   9.218   4.518  -1.191 -0.4150  0.6972  0.7058
  971MOL0     C30988   9.210   4.624  -1.304  0.1818  0.6272 -0.0737
  971MOL0     C30989   9.079   4.687  -1.321  0.5905  0.4535  0.7195
  971MOL0     C30990   9.062   4.754  -1.459  0.1978  0.4255  0.2310
  971MOL0     C30991   8.907   4.800  -1.476 -1.0373  0.8913  0.5741
  971MOL0     C30992   8.884   4.835  -1.623 -0.6936 -0.2299  0.4668
  971MOL0     C30993   8.750   4.899  -1.661  0.5705 -0.3700  0.4869
  971MOL0     C30994   8.739   4.894  -1.819 -0.1346  0.8843 -1.0265
  971MOL0    Cl30995   8.561   4.871  -1.861  0.1749 -0.2752  0.3802
  971MOL0     C30996   9.282   4.297  -1.028  0.1545  0.8406 -0.1503
  971MOL0     C30997   9.305   4.178  -0.956 -0.0245  0.5908 -0.7701
  971MOL0     O30998   9.441   4.072  -0.704  0.3896 -0.1113  0.6309
  971MOL0     C30999   9.573   3.754  -0.837  0.1562  0.6621 -0.5973
  971MOL0     C31000   9.658   3.636  -0.807  0.4108  1.0842  0.6425
  971MOL0     N31001   9.791   2.922  -0.812 -0.7130  0.2953  0.5159
  971MOL0     N31002   9.813   2.823  -0.741  0.2739  0.2193 -0.7996
  971MOL0     C31003   9.316   2.529   0.381  0.8357 -0.2419  0.1838
  971MOL0     C31004   9.233   2.425   0.418  0.4234  1.1139  0.3140
  971MOL0     C31005   8.915   2.115   0.445 -0.7040  0.6767 -0.7762
  971MOL0     C31006   8.894   2.039   0.332 -0.0676 -0.7851  0.3224
  971MOL0     C31007   8.775   1.972   0.311 -0.0152 -0.0273 -0.5297
  971MOL0     C31008   8.673   1.970   0.413  0.3727 -0.2787  0.5380
  971MOL0     O31009   8.560   1.901   0.401  0.1562  0.2930  0.6645
  971MOL0     C31010   8.499   1.892   0.268 -0.9254  0.4227 -0.5532
  971MOL0     C31011   8.480   1.736   0.251 -0.1957  0.2312 -0.2324
  971MOL0     C31012   8.355   1.709   0.167  0.7710  1.2707  0.5133
  971MOL0     C31013   8.333   1.552   0.169  0.0153 -0.8712  0.5835
  971MOL0     C31014   8.297   1.502   0.301 -0.1673 -0.7218  0.4291
  971MOL0     C31015   8.270   1.467   0.414  0.0656  0.5439 -0.4500
  971MOL0     C31016   8.695   2.040   0.531 -1.0037  0.4666 -0.1937
  971MOL0     C31017   8.819   2.107   0.553 -0.0931 -0.4505  0.7071
  971MOL0     H31018   9.193   2.283   0.103 -2.8979  0.5573  0.9658
  971MOL0     H31019   9.331   2.477   0.050  0.7260 -1.9951  0.1868
  971MOL0     H31020   9.656   2.694   0.285 -0.2855 -0.5663  1.9749
  971MOL0     H31021   9.584   2.532   0.345  2.1913 -2.0862 -2.4494
  971MOL0     H31022   9.766   2.512   0.191  0.3514 -0.8974 -1.7984
  971MOL0     H31023   9.617   2.468   0.101 -3.1706  0.5690  2.0766
  971MOL0     H31024   9.625   2.718   0.020  3.1914  3.6433  0.4915
  971MOL0     H31025   9.773   2.732   0.105  0.4035 -2.1257  2.9852
  971MOL0     H31026   9.866   2.548  -0.054 -0.0608 -0.1841 -2.8345
  971MOL0     H31027   9.707   2.521  -0.113 -0.5032 -0.3608 -0.1078
  971MOL0     H31028   9.702   2.763  -0.193 -0.9374  1.4876  4.5171
  971MOL0     H31029   9.858   2.796  -0.137 -1.5768 -0.3330  1.3252
  971MOL0     H31030   9.976   2.640  -0.273 -0.6794  1.7640  2.9858
  971MOL0     H31031   9.823   2.574  -0.334  0.4198 -0.1602  0.2711
  971MOL0     H31032   9.756   2.796  -0.425  1.1486  0.4519 -2.2796
  971MOL0     H31033   9.890   2.875  -0.357 -1.0529  2.1795 -3.2600
  971MOL0     H31034   9.910   2.661  -0.562 -1.3007  1.2737 -2.7810
  971MOL0     H31035  10.049   2.757  -0.499 -0.0478  2.8003  1.3260
  971MOL0     H31036  10.019   3.031  -0.603 -0.3980  1.5367 -4.1019
  971MOL0     H31037   9.967   3.230  -0.779  0.7298 -1.8566 -0.0081
  971MOL0     H31038   9.898   3.171  -0.926 -1.9686  2.0540  0.1632
  971MOL0     H31039   9.657   3.214  -0.792 -0.4407 -0.1425  0.6128
  971MOL0     H31040   9.762   3.357  -0.830 -0.4416  2.0655  0.3161
  971MOL0     H31041   9.886   3.296  -0.602 -0.0266 -0.4804  3.9128
  971MOL0     H31042   9.737   3.209  -0.562  2.5101 -2.3075 -1.9220
  971MOL0     H31043   9.737   3.413  -0.470  0.7748 -1.1002 -0.0683
  971MOL0     H31044   9.602   3.407  -0.593  1.5074 -2.6045 -4.0423
  971MOL0     H31045   9.720   3.713  -0.478  0.6227  0.3523 -0.0190
  971MOL0     H31046   9.714   3.935  -0.433  2.2920 -0.8834 -1.4041
  971MOL0     H31047   9.690   4.035  -0.578  0.2483 -1.2445 -0.4915
  971MOL0     H31048   9.555   3.996  -0.475  0.2690 -0.5216  2.7798
  971MOL0     H31049   9.628   4.126  -1.061 -0.0207  0.3154  1.6252
  971MOL0     H31050   9.576   4.329  -1.193  0.3010 -0.3893  0.2579
  971MOL0     H31051   9.139   4.443  -1.195  0.0444  0.0062  3.0010
  971MOL0     H31052   9.197   4.563  -1.093 -1.0221  1.6630  0.1413
  971MOL0     H31053   9.289   4.696  -1.283  1.5508 -0.6926 -0.5007
  971MOL0     H31054   9.245   4.574  -1.395  1.7435  1.6879 -0.1009
  971MOL0     H31055   9.072   4.763  -1.242  1.9760  1.4249 -0.0398
  971MOL0     H31056   8.997   4.617  -1.305 -2.2963  3.2866 -0.4742
  971MOL0     H31057   9.124   4.844  -1.462  3.0329 -1.3900  0.9100
  971MOL0     H31058   9.087   4.690  -1.544  3.2196  1.8764 -0.0829
  971MOL0     H31059   8.886   4.877  -1.401 -0.6983  2.3685 -0.7865
  971MOL0     H31060   8.837   4.717  -1.462 -1.0930  0.3463 -2.2947
  971MOL0     H31061   8.964   4.897  -1.662 -0.8065 -1.9883 -2.8743
  971MOL0     H31062   8.888   4.742  -1.680  1.3644  0.8763 -1.3131
  971MOL0     H31063   8.751   5.002  -1.622 -2.0956 -0.8390  2.0594
  971MOL0     H31064   8.670   4.836  -1.621 -0.7485 -1.4712 -3.4610
  971MOL0     H31065   8.785   4.799  -1.847 -0.0057  0.2606  1.0836
  971MOL0     H31066   8.798   4.971  -1.870  1.0706  0.1701 -0.7225
  971MOL0     H31067   9.188   4.348  -1.009 -0.8225  0.0549 -2.5222
  971MOL0     H31068   9.222   4.154  -0.891 -0.0392  1.2377 -0.5350
  971MOL0     H31069   9.537   3.776  -0.937  0.9869  3.0858 -0.4099
  971MOL0     H31070   9.661   3.557  -0.882 -4.4309  0.5308  0.7223
  971MOL0     H31071   9.359   2.596   0.455 -0.6650  1.8590 -0.7279
  971MOL0     H31072   9.201   2.427   0.521  0.9960 -1.8201  0.6247
  971MOL0     H31073   8.979   2.021   0.267  1.8405 -1.3632  2.8308
  971MOL0     H31074   8.754   1.908   0.226 -0.7356 -1.6321  0.7812
  971MOL0     H31075   8.400   1.937   0.280 -0.7347  0.1563  2.7922
  971MOL0     H31076   8.554   1.924   0.178 -0.9815 -1.4187 -1.2829
  971MOL0     H31077   8.485   1.682   0.346  2.2169 -0.8206 -0.8720
  971MOL0     H31078   8.571   1.703   0.199 -0.4362  0.9935 -1.1621
  971MOL0     H31079   8.362   1.744   0.063  0.9362 -0.2088  0.0095
  971MOL0     H31080   8.270   1.761   0.212  1.1966  2.2797  0.2058
  971MOL0     H31081   8.428   1.512   0.132  1.6618  4.0454 -1.2504
  971MOL0     H31082   8.252   1.540   0.096  0.6012  2.2169 -0.7091
  971MOL0     H31083   8.239   1.451   0.515  1.7790  0.8880  0.1664
  971MOL0     H31084   8.629   2.048   0.616 -1.1419  0.7066 -0.3215
  971MOL0     H31085   8.831   2.151   0.652  4.0667 -2.3733  1.2738
  972MOL0     O31086   1.033   5.043  10.755 -0.6032 -0.2756  0.1698
  972MOL0     C31087   1.153   5.067  10.763  0.8463 -0.3475  0.3704
  972MOL0     O31088   1.230   5.112  10.660 -0.1494 -0.1692 -0.3605
  972MOL0     C31089   1.181   5.153  10.536 -0.6593  0.4009 -0.2154
  972MOL0     C31090   1.051   5.146  10.479  0.1507  0.8130  0.1764
  972MOL0     C31091   1.022   5.200  10.352  0.9737  0.8193 -0.2775
  972MOL0     C31092   1.115   5.269  10.279 -0.4649 -0.5952  1.1438
  972MOL0     O31093   1.112   5.343  10.162  0.7709  0.2825 -0.0832
  972MOL0     C31094   0.978   5.363  10.109  0.2206  0.3209  0.3532
  972MOL0     C31095   0.938   5.499  10.163  0.0975 -0.4120  0.1960
  972MOL0     C31096   1.019   5.618  10.110 -0.1249  0.2112 -0.1416
  972MOL0     C31097   0.966   5.663   9.965  0.9024 -0.3118 -0.4561
  972MOL0     C31098   0.811   5.700   9.972 -0.0958 -0.2344 -0.1055
  972MOL0     C31099   0.767   5.780   9.851  0.0872  0.0809  0.6814
  972MOL0     C31100   0.618   5.788   9.845  1.2198  0.6180 -0.6746
  972MOL0     C31101   0.598   5.916   9.763  0.4783 -0.0078 -0.1866
  972MOL0     N31102   0.454   5.955   9.787  0.2647  0.1645  0.2747
  972MOL0     C31103   0.414   6.012   9.905  0.5023 -0.5766 -0.0906
  972MOL0     C31104   0.289   6.047   9.862  0.1459 -0.0548  0.8759
  972MOL0     C31105   0.174   6.109   9.930  0.5440  1.1068 -0.1779
  972MOL0     C31106   0.142   6.256   9.892 -0.3328 -0.2754 -0.0522
  972MOL0     C31107   0.052   6.302  10.008  0.9668  0.4558 -0.7487
  972MOL0     C31108  -0.074   6.210  10.012  0.0489 -0.4357  0.4612
  972MOL0     O31109  -0.174   6.277  10.082  1.1405 -0.0054  0.4871
  972MOL0     C31110  -0.305   6.237  10.087  0.1646 -0.2781  0.6139
  972MOL0     C31111  -0.365   6.147   9.997  0.1205  0.9353  0.0196
  972MOL0     C31112  -0.497   6.088  10.018 -0.3118 -1.4609  0.5020
  972MOL0     C31113  -0.534   5.973   9.920  0.6031 -0.3484  1.0709
  972MOL0     C31114  -0.578   6.135  10.126  0.5307  0.5797 -0.7663
  972MOL0     C31115  -0.718   6.089  10.156  0.1621 -0.3035  1.2374
  972MOL0     O31116  -0.782   6.051  10.045  0.4850  0.1728 -0.3283
  972MOL0     C31117  -0.894   5.968  10.050  0.0273  0.2021  0.0695
  972MOL0     C31118  -1.009   6.009  10.105  1.0976 -0.4724 -0.4517
  972MOL0     C31119  -1.125   5.924  10.086  0.3217 -0.2407  0.6410
  972MOL0     C31120  -1.112   5.798  10.023 -0.4352 -0.2303 -0.1265
  972MOL0     O31121  -1.206   5.698  10.023 -0.0321 -0.0978 -0.2664
  972MOL0     C31122  -1.328   5.731   9.959 -0.2173  0.3964  0.8544
  972MOL0     C31123  -1.442   5.620   9.960  0.0633  0.1276  1.3684
  972MOL0     C31124  -1.391   5.478   9.905 -0.2619 -1.4754 -0.0038
  972MOL0     C31125  -1.510   5.383   9.883  0.0200  0.0193  0.0488
  972MOL0     C31126  -1.470   5.267   9.795  0.3263  0.1880 -0.0335
  972MOL0     C31127  -1.571   5.163   9.762  0.2627  0.1414 -0.4407
  972MOL0     C31128  -1.498   5.034   9.717  0.2203 -0.3129 -0.3639
  972MOL0     C31129  -1.393   5.048   9.603 -0.0995 -0.0745  0.3971
  972MOL0    Cl31130  -1.472   5.133   9.467  0.3539  0.1929 -0.2148
  972MOL0     C31131  -0.989   5.754   9.990  0.5365  0.0881 -0.4638
  972MOL0     C31132  -0.881   5.840   9.987  1.0543 -0.2329  0.1046
  972MOL0     O31133  -0.765   6.103  10.265  0.2537 -0.5338  0.0098
  972MOL0     C31134  -0.514   6.224  10.219 -0.3928  0.9850 -0.2603
  972MOL0     C31135  -0.384   6.277  10.197 -0.1119 -0.4119 -0.5438
  972MOL0     N31136   0.269   6.016   9.726 -0.5661 -0.2664  0.5808
  972MOL0     N31137   0.369   5.949   9.685  0.7772 -0.3242 -0.9192
  972MOL0     C31138   1.244   5.276  10.338  0.7682  0.4897  0.0884
  972MOL0     C31139   1.275   5.227  10.466  0.1189  0.8047 -0.4446
  972MOL0     C31140   1.206   5.030  10.900  0.5078 -0.3856 -0.0226
  972MOL0     C31141   1.342   5.020  10.911 -0.9402 -0.3792 -1.1744
  972MOL0     C31142   1.401   5.000  11.041 -0.6730  0.3237 -0.1222
  972MOL0     C31143   1.321   4.990  11.159 -0.2435  0.3054 -0.3996
  972MOL0     O31144   1.385   4.967  11.279  0.1813 -0.1978  0.0319
  972MOL0     C31145   1.327   4.875  11.374 -1.2034 -0.9556  0.7309
  972MOL0     C31146   1.338   4.730  11.319  0.4001 -0.3597 -0.4108
  972MOL0     C31147   1.328   4.620  11.422  0.0575  0.1985 -0.1863
  972MOL0     C31148   1.324   4.479  11.366 -0.2606 -0.2289  0.3633
  972MOL0     C31149   1.296   4.381  11.473  0.2022 -0.4178  0.9364
  972MOL0     C31150   1.276   4.308  11.571 -0.8974  0.4352  0.2657
  972MOL0     C31151   1.179   5.006  11.147  0.2596 -0.3992  1.2425
  972MOL0     C31152   1.129   5.020  11.018  0.1476 -0.5361  0.0406
  972MOL0     H31153   0.965   5.104  10.530 -0.0613  2.2738  1.0815
  972MOL0     H31154   0.919   5.189  10.320  0.8351  0.0907  0.3799
  972MOL0     H31155   1.002   5.370  10.002 -1.5653  0.0926 -0.1009
  972MOL0     H31156   0.895   5.294  10.126 -0.7821  1.5084  0.4516
  972MOL0     H31157   0.830   5.515  10.154  0.3704  1.1510 -0.6910
  972MOL0     H31158   0.953   5.512  10.271  0.9329  4.0239 -0.2422
  972MOL0     H31159   1.010   5.705  10.175  0.9610  2.3931 -2.7241
  972MOL0     H31160   1.126   5.595  10.110  0.3001  2.0243  0.3087
  972MOL0     H31161   1.023   5.749   9.926 -0.4473  0.4619 -0.7890
  972MOL0     H31162   0.970   5.580   9.894 -0.2492  0.7006 -1.7685
  972MOL0     H31163   0.749   5.611   9.982 -1.2067  0.6225  0.9165
  972MOL0     H31164   0.790   5.766  10.056  0.6673 -1.0065  0.7099
  972MOL0     H31165   0.807   5.880   9.869  2.0667 -0.8446  1.7957
  972MOL0     H31166   0.798   5.753   9.750 -0.7538  0.2231  0.3774
  972MOL0     H31167   0.580   5.698   9.796  1.2658 -1.0808  2.2207
  972MOL0     H31168   0.575   5.800   9.945 -1.7839  0.7794 -1.8654
  972MOL0     H31169   0.614   5.906   9.655 -0.2107 -2.0417 -0.1561
  972MOL0     H31170   0.657   5.997   9.806  1.9423 -1.0273 -0.2209
  972MOL0     H31171   0.474   6.030   9.993 -1.9020  1.5620  1.2683
  972MOL0     H31172   0.085   6.049   9.908 -0.1123  2.6197 -1.9478
  972MOL0     H31173   0.179   6.089  10.037 -3.7872 -2.7600 -0.3746
  972MOL0     H31174   0.081   6.267   9.802  1.5009 -1.1730 -1.4780
  972MOL0     H31175   0.233   6.313   9.870 -1.3487 -0.0920 -4.6035
  972MOL0     H31176   0.007   6.398   9.980  1.9276  2.0728  2.6809
  972MOL0     H31177   0.097   6.304  10.108 -0.9180  4.3809  0.2071
  972MOL0     H31178  -0.062   6.113  10.060  0.9565  0.1619  1.4973
  972MOL0     H31179  -0.103   6.193   9.908 -0.6308  0.1108  0.5568
  972MOL0     H31180  -0.308   6.111   9.912 -1.3609  1.5234 -1.2772
  972MOL0     H31181  -0.442   5.936   9.874  0.6440  0.3866  0.5347
  972MOL0     H31182  -0.572   5.892   9.982  0.9927 -1.2305  0.1807
  972MOL0     H31183  -0.603   6.002   9.840  0.4703 -0.7570  1.0359
  972MOL0     H31184  -1.031   6.108  10.144 -1.0719 -0.2952 -1.9463
  972MOL0     H31185  -1.223   5.957  10.117  1.0452  3.5140 -0.5869
  972MOL0     H31186  -1.364   5.820  10.012 -0.6756  0.3135  0.6868
  972MOL0     H31187  -1.301   5.749   9.855  0.4519 -3.0397  0.3415
  972MOL0     H31188  -1.462   5.614  10.068  1.8418 -2.3662  1.6391
  972MOL0     H31189  -1.520   5.657   9.892 -0.2195  0.2073  1.7328
  972MOL0     H31190  -1.320   5.438   9.978 -1.2579 -0.6293  1.4782
  972MOL0     H31191  -1.332   5.488   9.814 -0.2810 -0.5459  0.0819
  972MOL0     H31192  -1.551   5.351   9.979  0.8621  2.1241  1.1846
  972MOL0     H31193  -1.593   5.440   9.842 -0.5890 -1.0765 -0.2659
  972MOL0     H31194  -1.395   5.221   9.860 -1.6074  2.6904  4.4203
  972MOL0     H31195  -1.433   5.304   9.699 -0.0175 -1.1748 -0.7158
  972MOL0     H31196  -1.622   5.140   9.856  1.9763  1.6850  0.9489
  972MOL0     H31197  -1.651   5.202   9.698 -3.6029 -1.9192  2.6824
  972MOL0     H31198  -1.577   4.969   9.677 -1.9205  2.7595 -1.4466
  972MOL0     H31199  -1.448   5.000   9.808  0.1611  3.1320  1.0794
  972MOL0     H31200  -1.369   4.944   9.581 -0.8887  0.1045 -1.4974
  972MOL0     H31201  -1.303   5.093   9.646 -0.9784  0.0329  2.2180
  972MOL0     H31202  -0.971   5.653   9.953  1.5075 -0.0512  0.3477
  972MOL0     H31203  -0.787   5.820   9.936  2.4895  2.8815  1.2981
  972MOL0     H31204  -0.572   6.249  10.307 -1.3405 -1.7134  0.0024
  972MOL0     H31205  -0.359   6.351  10.272 -3.3824  0.1575  0.1366
  972MOL0     H31206   1.310   5.346  10.287  1.8786 -0.3814  0.3022
  972MOL0     H31207   1.371   5.246  10.513  0.4016 -0.1334 -0.6161
  972MOL0     H31208   1.407   5.024  10.824 -1.3475  1.2365 -1.4180
  972MOL0     H31209   1.506   4.972  11.046 -1.1138 -1.1672  1.7093
  972MOL0     H31210   1.376   4.895  11.471 -1.4300  1.3834  0.4378
  972MOL0     H31211   1.222   4.900  11.389 -1.1686 -1.8210  2.8216
  972MOL0     H31212   1.438   4.714  11.276  0.9710 -1.1189  1.1085
  972MOL0     H31213   1.267   4.713  11.237  0.7092 -1.1448 -0.5272
  972MOL0     H31214   1.235   4.636  11.477 -0.3335  0.4317 -0.9102
  972MOL0     H31215   1.415   4.620  11.489  0.5205  0.4077 -0.7711
  972MOL0     H31216   1.424   4.450  11.335 -1.4787 -2.8014 -1.5935
  972MOL0     H31217   1.252   4.463  11.285  0.6590  0.1154 -0.5272
  972MOL0     H31218   1.264   4.232  11.645 -0.8473 -0.5242 -0.6881
  972MOL0     H31219   1.120   5.015  11.238  0.0507  0.7032  1.0051
  972MOL0     H31220   1.021   5.022  11.010  0.1737 -1.0144 -0.5123
  973MOL0     O31221   2.080   2.829   4.511  0.7904  0.9075 -0.0796
  973MOL0     C31222   2.131   2.799   4.401  0.1726  0.0450 -0.0966
  973MOL0     O31223   2.086   2.702   4.316 -1.0897 -0.2632 -0.3224
  973MOL0     C31224   1.986   2.629   4.366  0.2713 -0.3628  0.0737
  973MOL0     C31225   2.022   2.519   4.445  0.2948  0.1722 -0.2583
  973MOL0     C31226   1.931   2.425   4.492  0.6702 -0.0629  0.6299
  973MOL0     C31227   1.792   2.450   4.481  0.2584 -0.0261 -0.1468
  973MOL0     O31228   1.699   2.370   4.543 -0.6860  0.1845 -0.4377
  973MOL0     C31229   1.728   2.233   4.572  0.5223  0.9206  0.5137
  973MOL0     C31230   1.602   2.168   4.636  0.1796  0.7910 -0.3164
  973MOL0     C31231   1.491   2.127   4.523 -0.0750 -0.3147 -0.3335
  973MOL0     C31232   1.406   1.994   4.553 -0.3209 -0.5376  0.6990
  973MOL0     C31233   1.276   1.979   4.469 -0.4814 -0.1450  0.1313
  973MOL0     C31234   1.198   1.855   4.505  0.2688 -0.2506  0.6739
  973MOL0     C31235   1.083   1.868   4.606 -0.2969  0.4481  0.2415
  973MOL0     C31236   0.999   1.737   4.630  1.1010  0.4220 -0.3283
  973MOL0     N31237   0.922   1.692   4.509 -1.7521 -0.1533 -0.4001
  973MOL0     C31238   0.815   1.757   4.459  0.2155  0.3478 -0.5795
  973MOL0     C31239   0.765   1.665   4.373  0.2262  0.2672  0.3285
  973MOL0     C31240   0.629   1.655   4.319  0.6650 -0.1972  0.2337
  973MOL0     C31241   0.625   1.707   4.186  0.4806 -1.1783  0.7218
  973MOL0     C31242   0.491   1.684   4.116 -0.9046 -0.8318 -0.0681
  973MOL0     C31243   0.371   1.747   4.175  0.0020 -1.2802 -0.2196
  973MOL0     O31244   0.242   1.703   4.109 -0.9712  0.4295  0.0167
  973MOL0     C31245   0.124   1.717   4.183 -0.0401  0.5562  0.1928
  973MOL0     C31246   0.019   1.629   4.160 -0.1867  0.3230  0.5059
  973MOL0     C31247  -0.108   1.628   4.220  0.1653 -0.8479 -0.3865
  973MOL0     C31248  -0.205   1.521   4.196  1.1289 -0.3847  0.2221
  973MOL0     C31249  -0.141   1.736   4.300 -0.2518 -0.4572 -0.0474
  973MOL0     C31250  -0.273   1.757   4.376 -0.0397 -0.3235 -0.9059
  973MOL0     O31251  -0.385   1.693   4.327  0.4780  0.0409 -0.0503
  973MOL0     C31252  -0.504   1.687   4.401 -0.8336 -0.3807  1.0328
  973MOL0     C31253  -0.530   1.713   4.530  0.4782  0.1324 -0.0449
  973MOL0     C31254  -0.661   1.680   4.585 -0.3236 -0.1681  1.4952
  973MOL0     C31255  -0.764   1.643   4.495  0.2938 -0.5876  0.1125
  973MOL0     O31256  -0.887   1.622   4.557 -0.1810  0.4418 -0.7350
  973MOL0     C31257  -0.993   1.557   4.488  0.2000  0.3572 -0.4595
  973MOL0     C31258  -1.087   1.560   4.605  0.1391  0.1709 -0.2419
  973MOL0     C31259  -1.216   1.487   4.575  0.3432 -1.0184 -0.0779
  973MOL0     C31260  -1.291   1.459   4.693  0.2679  0.5957 -0.3700
  973MOL0     C31261  -1.435   1.383   4.683  0.0421 -0.0781 -1.0620
  973MOL0     C31262  -1.427   1.243   4.618 -0.8054 -0.5155  0.8730
  973MOL0     C31263  -1.569   1.193   4.596 -0.1500 -0.8571 -0.9568
  973MOL0     C31264  -1.574   1.067   4.505 -0.2266 -0.0831  0.5400
  973MOL0    Cl31265  -1.743   1.020   4.473 -0.4689  0.0793 -0.3922
  973MOL0     C31266  -0.734   1.609   4.363  0.5708  0.7259 -0.3780
  973MOL0     C31267  -0.599   1.625   4.322  1.0597 -0.4510  0.4688
  973MOL0     O31268  -0.261   1.832   4.478  0.8040  0.2514  0.5207
  973MOL0     C31269  -0.039   1.839   4.316  0.1384  0.2455  0.0788
  973MOL0     C31270   0.084   1.831   4.254  0.0767  0.2345  0.0839
  973MOL0     N31271   0.851   1.560   4.362  0.5831  0.5587 -0.5927
  973MOL0     N31272   0.943   1.568   4.448  0.8584 -0.5180 -0.8033
  973MOL0     C31273   1.755   2.566   4.410 -0.6591 -0.8838  0.4780
  973MOL0     C31274   1.850   2.655   4.344 -0.1365 -0.8662  0.7661
  973MOL0     C31275   2.262   2.868   4.359  0.6797 -0.2250 -0.5243
  973MOL0     C31276   2.296   2.992   4.425  0.2475 -0.2139 -0.3946
  973MOL0     C31277   2.428   3.047   4.420 -0.5995 -0.2754 -0.6163
  973MOL0     C31278   2.522   2.979   4.342  0.0732 -0.2458  0.4637
  973MOL0     O31279   2.649   3.021   4.347 -0.3668  1.2176  0.5876
  973MOL0     C31280   2.725   3.002   4.467  0.8309  0.5691  0.3098
  973MOL0     C31281   2.850   3.091   4.475  0.5135 -0.3482 -0.2673
  973MOL0     C31282   2.826   3.246   4.496 -0.1633  0.1183 -0.1150
  973MOL0     C31283   2.963   3.300   4.537  0.4871 -0.4391 -0.0608
  973MOL0     C31284   3.066   3.285   4.437  0.8257 -0.7043  0.0009
  973MOL0     C31285   3.153   3.289   4.353 -0.5755  0.0195  0.3413
  973MOL0     C31286   2.476   2.888   4.258 -0.0205  0.0446  0.4167
  973MOL0     C31287   2.351   2.823   4.265 -0.6748  0.2678  0.2136
  973MOL0     H31288   2.128   2.501   4.463  0.1310 -0.4003  0.1565
  973MOL0     H31289   1.977   2.342   4.544  3.9031 -0.2360 -2.1920
  973MOL0     H31290   1.760   2.173   4.486 -0.0419  2.0754 -0.5121
  973MOL0     H31291   1.794   2.235   4.660 -0.3023 -0.5536  1.2272
  973MOL0     H31292   1.636   2.078   4.688 -1.1038  0.3914 -0.1256
  973MOL0     H31293   1.562   2.225   4.720 -0.3849  0.5218 -0.3922
  973MOL0     H31294   1.422   2.212   4.518 -1.4423 -1.2984  0.7529
  973MOL0     H31295   1.546   2.118   4.429  0.8281 -1.5286  0.2800
  973MOL0     H31296   1.462   1.901   4.547 -4.3776 -3.2219  0.3604
  973MOL0     H31297   1.372   2.003   4.657 -0.8063 -0.0580  0.5082
  973MOL0     H31298   1.206   2.062   4.476  0.0157  0.2939 -0.0583
  973MOL0     H31299   1.316   1.968   4.368  2.1524 -1.0408  1.1850
  973MOL0     H31300   1.157   1.826   4.408  2.9547 -2.8631  0.1590
  973MOL0     H31301   1.267   1.780   4.544  0.2690 -0.0871  0.9946
  973MOL0     H31302   1.128   1.900   4.700  0.2594 -0.6024  0.3454
  973MOL0     H31303   1.016   1.945   4.566 -1.2019 -0.1024  0.6532
  973MOL0     H31304   0.926   1.771   4.704  3.3663  1.4050  1.5903
  973MOL0     H31305   1.066   1.666   4.680  0.1363 -0.7096 -0.6060
  973MOL0     H31306   0.760   1.840   4.501  0.2024 -0.7720  1.8144
  973MOL0     H31307   0.590   1.553   4.320 -0.3127  0.1021 -1.6999
  973MOL0     H31308   0.563   1.711   4.386  0.2357 -2.7727  2.1018
  973MOL0     H31309   0.700   1.659   4.123  0.7039  1.2294 -1.0063
  973MOL0     H31310   0.644   1.813   4.208 -1.8169 -0.6261  0.3389
  973MOL0     H31311   0.496   1.577   4.093  0.7322 -1.0775  1.2054
  973MOL0     H31312   0.496   1.735   4.019  5.5068  4.6507  2.3270
  973MOL0     H31313   0.381   1.856   4.175  0.8638 -1.3535 -0.4331
  973MOL0     H31314   0.363   1.720   4.281  2.9215 -1.1941  0.1021
  973MOL0     H31315   0.047   1.547   4.095 -2.6502 -0.0229 -0.2415
  973MOL0     H31316  -0.155   1.436   4.149  0.6614  0.4704 -1.9357
  973MOL0     H31317  -0.260   1.487   4.284  1.0793 -2.3593 -0.5357
  973MOL0     H31318  -0.279   1.554   4.122 -0.2538 -3.4660  0.0840
  973MOL0     H31319  -0.458   1.762   4.595 -3.2017  3.2942  2.1302
  973MOL0     H31320  -0.689   1.679   4.690  3.1099 -2.2990  2.5675
  973MOL0     H31321  -1.042   1.616   4.410  0.9691  1.5286 -0.0828
  973MOL0     H31322  -0.966   1.454   4.461 -0.0795 -0.0926  0.9031
  973MOL0     H31323  -1.032   1.513   4.687 -0.6818 -0.2383  0.0916
  973MOL0     H31324  -1.104   1.665   4.633  0.4284  0.5531 -1.4417
  973MOL0     H31325  -1.197   1.393   4.522 -0.4802 -1.8648  1.0762
  973MOL0     H31326  -1.280   1.553   4.515  1.1349  0.9494  1.1781
  973MOL0     H31327  -1.231   1.387   4.750  0.1766 -0.6077 -1.7438
  973MOL0     H31328  -1.299   1.555   4.746 -0.7095 -0.2658  1.1196
  973MOL0     H31329  -1.507   1.445   4.628 -2.6396 -0.8735  1.2524
  973MOL0     H31330  -1.474   1.369   4.784 -1.2432  0.3572 -1.4731
  973MOL0     H31331  -1.360   1.239   4.532 -0.6808  4.4967  0.4575
  973MOL0     H31332  -1.398   1.180   4.702 -4.0532 -1.0023  1.7760
  973MOL0     H31333  -1.624   1.265   4.536  0.6921 -0.0442 -0.7611
  973MOL0     H31334  -1.611   1.179   4.697 -1.9241 -0.2078 -1.5609
  973MOL0     H31335  -1.522   0.985   4.556 -1.0150 -0.7131  0.3546
  973MOL0     H31336  -1.524   1.087   4.410 -0.6227 -1.5777 -0.0153
  973MOL0     H31337  -0.813   1.568   4.301  1.1414 -0.0985 -0.5643
  973MOL0     H31338  -0.570   1.583   4.226 -0.7522 -0.0299 -0.3226
  973MOL0     H31339  -0.072   1.926   4.371  0.1075 -0.0664  0.5597
  973MOL0     H31340   0.162   1.907   4.254  0.0495  0.2664  1.1668
  973MOL0     H31341   1.650   2.591   4.412 -0.1838  2.3095 -3.0106
  973MOL0     H31342   1.827   2.748   4.292  1.6753  0.0961  1.5755
  973MOL0     H31343   2.229   3.030   4.502  1.1186 -0.7922  0.6909
  973MOL0     H31344   2.454   3.135   4.477 -1.4799 -1.0442  1.0490
  973MOL0     H31345   2.659   3.032   4.549 -0.2907  2.8475 -1.3105
  973MOL0     H31346   2.747   2.895   4.473  0.8108  0.2282 -3.2860
  973MOL0     H31347   2.898   3.081   4.377  0.4838 -0.3921 -0.2769
  973MOL0     H31348   2.908   3.052   4.559 -2.6871  0.4280  2.5321
  973MOL0     H31349   2.750   3.264   4.573  2.1378 -1.5419  2.7798
  973MOL0     H31350   2.806   3.290   4.398  3.2627  3.2776  0.3690
  973MOL0     H31351   2.997   3.273   4.638  1.0786 -1.3526 -0.4880
  973MOL0     H31352   2.946   3.407   4.553  1.0156 -0.3731  0.0829
  973MOL0     H31353   3.236   3.293   4.286 -1.5329 -1.9973 -1.0763
  973MOL0     H31354   2.540   2.851   4.179  0.7436 -0.3550  1.2030
  973MOL0     H31355   2.322   2.746   4.193 -0.7664  0.0762  0.4524
  974MOL0     O31356   4.596   2.136   9.010  0.0127 -1.0978  1.0247
  974MOL0     C31357   4.545   2.234   9.060  0.1305  0.1039 -0.2510
  974MOL0     O31358   4.590   2.362   9.036  0.4924 -1.0712 -0.1127
  974MOL0     C31359   4.712   2.371   8.974 -0.2858 -0.1756 -0.7707
  974MOL0     C31360   4.834   2.334   9.042 -0.1234  0.7162  0.6156
  974MOL0     C31361   4.954   2.351   8.988 -0.7562  0.4227  0.6154
  974MOL0     C31362   4.971   2.427   8.873 -0.4041  0.9814 -0.5983
  974MOL0     O31363   5.098   2.468   8.834 -0.4358  0.8483 -0.4372
  974MOL0     C31364   5.120   2.589   8.757  0.5060 -1.1528  0.5589
  974MOL0     C31365   5.275   2.612   8.751  0.3130  0.0784 -0.6360
  974MOL0     C31366   5.360   2.513   8.667  0.4008  0.1291  0.0873
  974MOL0     C31367   5.345   2.519   8.515  0.8951 -0.4642 -0.1103
  974MOL0     C31368   5.421   2.414   8.442  0.4535 -0.1239  0.2958
  974MOL0     C31369   5.572   2.442   8.462 -0.5793  0.2004 -0.5579
  974MOL0     C31370   5.663   2.372   8.361 -0.2619 -0.1163 -0.5394
  974MOL0     C31371   5.805   2.390   8.373 -1.9115  1.5414 -0.0869
  974MOL0     N31372   5.879   2.348   8.249 -0.1890  0.2680 -0.2923
  974MOL0     C31373   5.915   2.222   8.216 -0.2092 -0.5364  0.8349
  974MOL0     C31374   5.989   2.227   8.097  0.1786  1.1562  0.5638
  974MOL0     C31375   6.068   2.110   8.042  0.7224  0.4569 -0.5120
  974MOL0     C31376   6.195   2.078   8.122 -0.2452  0.2302  0.5196
  974MOL0     C31377   6.166   2.028   8.265 -0.3807  0.2227  0.0098
  974MOL0     C31378   6.101   1.897   8.272  0.3196 -0.0812  0.3893
  974MOL0     O31379   6.089   1.860   8.412  0.5552  0.3023 -0.0050
  974MOL0     C31380   6.018   1.941   8.498 -0.2943 -0.0927 -0.1150
  974MOL0     C31381   5.878   1.934   8.497 -0.1996  0.8767 -0.1213
  974MOL0     C31382   5.795   2.010   8.584 -0.1040 -0.0502 -0.1105
  974MOL0     C31383   5.651   1.982   8.589  0.8640  0.0959 -0.4869
  974MOL0     C31384   5.854   2.107   8.669  0.0737 -0.6544  0.5068
  974MOL0     C31385   5.793   2.188   8.772 -0.0810  0.0875  0.9244
  974MOL0     O31386   5.670   2.156   8.811  0.1852 -0.1479 -0.0113
  974MOL0     C31387   5.604   2.228   8.901  0.3066  0.1954 -0.0815
  974MOL0     C31388   5.665   2.268   9.020  0.0284 -0.4929  0.9041
  974MOL0     C31389   5.595   2.345   9.105  0.4360  0.3261  0.4330
  974MOL0     C31390   5.460   2.378   9.089  0.7247 -0.0007  0.7483
  974MOL0     O31391   5.394   2.469   9.169  0.1212 -0.5548 -0.2414
  974MOL0     C31392   5.258   2.451   9.192 -0.3566  0.6855  0.0376
  974MOL0     C31393   5.222   2.528   9.317 -0.2748 -0.0157 -0.5426
  974MOL0     C31394   5.076   2.553   9.320  0.2025 -0.1148  0.5588
  974MOL0     C31395   4.995   2.439   9.370  0.5088  0.5036  0.6333
  974MOL0     C31396   4.846   2.487   9.381 -0.1459  0.7269  0.2066
  974MOL0     C31397   4.761   2.382   9.454  0.1385 -0.3532 -0.0030
  974MOL0     C31398   4.610   2.430   9.457 -0.1537  0.5038  0.1321
  974MOL0     C31399   4.537   2.330   9.554  0.3575 -0.7388  0.5815
  974MOL0    Cl31400   4.524   2.165   9.480 -0.0109 -0.1528 -0.5317
  974MOL0     C31401   5.396   2.327   8.976 -0.1221  0.6250 -1.2582
  974MOL0     C31402   5.467   2.254   8.881  0.4933  0.5039  0.3839
  974MOL0     O31403   5.855   2.292   8.798  0.3563 -0.0250  0.4470
  974MOL0     C31404   6.000   2.110   8.666 -0.2880  0.9181 -0.3316
  974MOL0     C31405   6.081   2.044   8.572 -0.1479  0.0241 -0.1395
  974MOL0     N31406   5.996   2.359   8.063 -0.7259  0.3010  0.3876
  974MOL0     N31407   5.939   2.428   8.157  0.1371 -0.4087  0.1430
  974MOL0     C31408   4.856   2.472   8.804  0.5530 -0.2945 -0.7410
  974MOL0     C31409   4.736   2.441   8.852  0.2897 -0.5783  0.6413
  974MOL0     C31410   4.425   2.225   9.155  0.6991  0.3325  0.1614
  974MOL0     C31411   4.385   2.096   9.192 -0.5018  0.7242 -0.8387
  974MOL0     C31412   4.288   2.084   9.289  0.2220  0.0204  0.2739
  974MOL0     C31413   4.222   2.200   9.340 -0.0047  0.0740 -0.1093
  974MOL0     O31414   4.118   2.189   9.432 -0.1771  0.3669 -0.0922
  974MOL0     C31415   4.101   2.088   9.528 -0.3158  0.4068 -0.9092
  974MOL0     C31416   3.975   2.087   9.617 -0.4311  0.2004 -0.3009
  974MOL0     C31417   3.862   2.022   9.538  0.7290 -0.1311 -0.0309
  974MOL0     C31418   3.746   2.031   9.633  0.0116 -0.1049 -0.8358
  974MOL0     C31419   3.623   2.006   9.556  0.1730  0.0874  0.0640
  974MOL0     C31420   3.521   1.996   9.496 -0.7864 -0.6857  0.3765
  974MOL0     C31421   4.264   2.326   9.304  0.5734  0.0695 -0.4559
  974MOL0     C31422   4.364   2.348   9.215  0.4736  0.7343  0.1959
  974MOL0     H31423   4.841   2.278   9.134 -0.6786 -1.4983 -0.5977
  974MOL0     H31424   5.048   2.314   9.028 -1.3323  0.1424  1.7524
  974MOL0     H31425   5.072   2.580   8.659  0.6700  1.5342  0.1727
  974MOL0     H31426   5.071   2.671   8.810 -0.6594 -1.9781  0.8156
  974MOL0     H31427   5.303   2.710   8.710  1.3902 -0.6314 -1.7009
  974MOL0     H31428   5.318   2.609   8.851  2.4445  0.6356 -1.4794
  974MOL0     H31429   5.466   2.536   8.673  0.1569  1.9179 -1.5132
  974MOL0     H31430   5.337   2.415   8.710 -1.1170 -0.0279 -0.9575
  974MOL0     H31431   5.238   2.513   8.494  0.5595  3.3293 -0.0688
  974MOL0     H31432   5.369   2.616   8.472 -1.1490 -0.5281 -1.5168
  974MOL0     H31433   5.391   2.313   8.472  2.0119 -0.1844  1.7913
  974MOL0     H31434   5.396   2.422   8.336 -0.2796  1.2503  0.5438
  974MOL0     H31435   5.588   2.549   8.451 -1.7975  0.5333  0.5527
  974MOL0     H31436   5.607   2.416   8.563  0.5725 -0.4603 -1.1089
  974MOL0     H31437   5.627   2.269   8.354  0.2697 -0.2296 -1.9791
  974MOL0     H31438   5.640   2.410   8.261 -1.3805 -1.1540 -0.6952
  974MOL0     H31439   5.856   2.323   8.443 -1.4739 -0.0846 -1.8766
  974MOL0     H31440   5.839   2.491   8.397 -1.9376  1.1392  1.7994
  974MOL0     H31441   5.892   2.136   8.278 -0.4192 -0.9761  0.1583
  974MOL0     H31442   6.006   2.022   8.027  0.5573  0.6405 -0.9179
  974MOL0     H31443   6.104   2.146   7.945 -2.6032 -0.5132 -2.2942
  974MOL0     H31444   6.261   2.165   8.131 -0.3716  0.2198  1.7441
  974MOL0     H31445   6.254   2.000   8.073 -0.7549  0.5922 -0.7180
  974MOL0     H31446   6.106   2.102   8.319 -1.2120 -0.5589  0.1766
  974MOL0     H31447   6.265   2.024   8.312  0.9794  3.2874 -2.2573
  974MOL0     H31448   6.159   1.823   8.215  2.0193  2.8871 -2.0367
  974MOL0     H31449   5.997   1.902   8.236 -0.8131 -0.7896  3.3038
  974MOL0     H31450   5.832   1.863   8.429 -0.3053  1.4504 -0.6537
  974MOL0     H31451   5.607   1.937   8.679 -0.3830  2.1589  0.0222
  974MOL0     H31452   5.597   2.071   8.557  0.3691  0.2672  0.7676
  974MOL0     H31453   5.626   1.910   8.511  0.8917 -1.3717  0.8040
  974MOL0     H31454   5.772   2.250   9.028 -0.1289 -1.7198  0.4099
  974MOL0     H31455   5.647   2.373   9.197  2.6894 -0.3616 -0.5559
  974MOL0     H31456   5.190   2.484   9.113  0.3589  0.8608 -0.5025
  974MOL0     H31457   5.243   2.344   9.214 -2.0680  1.0535  0.8616
  974MOL0     H31458   5.258   2.469   9.401 -1.2357 -0.1702 -0.2346
  974MOL0     H31459   5.273   2.624   9.328 -1.1099  0.1633  2.6250
  974MOL0     H31460   5.043   2.575   9.218  0.0480  1.8337  0.9906
  974MOL0     H31461   5.055   2.644   9.377  0.1412  0.9890 -1.1313
  974MOL0     H31462   4.997   2.351   9.305 -3.3272 -0.0771  1.0787
  974MOL0     H31463   5.041   2.403   9.463  3.2872 -0.6739 -1.0620
  974MOL0     H31464   4.801   2.480   9.281 -2.5177  0.0920  1.2468
  974MOL0     H31465   4.830   2.589   9.418  0.8625  0.8710  0.2804
  974MOL0     H31466   4.753   2.286   9.404 -0.7200 -0.1576 -0.2650
  974MOL0     H31467   4.808   2.362   9.551 -4.5633 -0.8476  2.5172
  974MOL0     H31468   4.569   2.425   9.356  0.1784 -1.9688  0.0450
  974MOL0     H31469   4.605   2.529   9.502  1.4869  2.1254 -2.9454
  974MOL0     H31470   4.437   2.371   9.571 -0.2844 -1.2845 -1.5364
  974MOL0     H31471   4.582   2.313   9.652 -0.3764 -1.9087  0.7339
  974MOL0     H31472   5.293   2.353   8.951 -0.0253 -0.1463 -2.5453
  974MOL0     H31473   5.427   2.227   8.784  1.5419 -1.5533  0.4710
  974MOL0     H31474   6.040   2.171   8.747 -1.3373  2.9310 -1.2449
  974MOL0     H31475   6.189   2.049   8.571 -0.0158 -1.4929  1.2142
  974MOL0     H31476   4.853   2.536   8.716 -0.9897  1.4327  0.4815
  974MOL0     H31477   4.654   2.473   8.789  0.4884  0.3439  0.8303
  974MOL0     H31478   4.436   2.011   9.147  0.2818  1.7154 -1.8640
  974MOL0     H31479   4.257   1.985   9.322 -0.9291  0.3180  0.1110
  974MOL0     H31480   4.112   1.990   9.480 -0.0202 -0.3233  0.5742
  974MOL0     H31481   4.186   2.092   9.597 -2.3002  2.4606  1.6114
  974MOL0     H31482   3.953   2.192   9.635 -3.0085 -0.1824 -0.8078
  974MOL0     H31483   3.989   2.022   9.704 -0.1051 -0.4902 -0.8549
  974MOL0     H31484   3.895   1.927   9.496  1.0651 -0.1492  0.2730
  974MOL0     H31485   3.840   2.084   9.451  1.5740  0.2809  0.0405
  974MOL0     H31486   3.754   2.122   9.693 -0.2613  1.1306 -2.5897
  974MOL0     H31487   3.760   1.954   9.709 -0.5532  0.7279  0.1330
  974MOL0     H31488   3.426   1.988   9.447 -1.3720 -1.4397  1.5937
  974MOL0     H31489   4.196   2.392   9.358  1.4212 -2.0075  3.5207
  974MOL0     H31490   4.399   2.448   9.191  1.1852  1.3265  3.2980
  975MOL0     O31491   4.286   2.720   6.109 -1.2082  0.6771  0.0991
  975MOL0     C31492   4.236   2.665   6.208 -0.4047  0.8675  0.2622
  975MOL0     O31493   4.252   2.711   6.342  0.6842  0.4283  0.3011
  975MOL0     C31494   4.334   2.826   6.358 -0.0948  0.6530  0.3842
  975MOL0     C31495   4.307   2.950   6.283 -0.4945  0.9736 -0.0271
  975MOL0     C31496   4.402   3.054   6.300 -0.2454 -0.0967 -0.5574
  975MOL0     C31497   4.496   3.063   6.402 -0.7528 -0.6785  0.1272
  975MOL0     O31498   4.561   3.182   6.424  0.0737  0.5536  0.1081
  975MOL0     C31499   4.689   3.191   6.363 -0.2128 -0.7661 -0.3879
  975MOL0     C31500   4.806   3.219   6.459  0.1951  0.7227  0.2940
  975MOL0     C31501   4.935   3.210   6.376 -0.4776  0.5711 -0.2698
  975MOL0     C31502   5.058   3.190   6.474  0.3850 -0.0396 -0.7508
  975MOL0     C31503   5.188   3.150   6.405  0.8941 -0.2839 -0.3585
  975MOL0     C31504   5.285   3.265   6.384 -0.0154 -0.0731  0.8768
  975MOL0     C31505   5.425   3.215   6.335 -0.4730  0.8869  0.5373
  975MOL0     C31506   5.524   3.330   6.330 -0.4879 -0.1377 -0.3331
  975MOL0     N31507   5.660   3.284   6.305  0.0914 -0.0740  0.6730
  975MOL0     C31508   5.766   3.370   6.275 -0.1525  0.8092  0.8016
  975MOL0     C31509   5.877   3.297   6.268  1.0347  0.2978 -0.8898
  975MOL0     C31510   6.017   3.340   6.244  0.9331 -0.1280 -0.1184
  975MOL0     C31511   6.075   3.283   6.112  0.2315  0.2110  0.5469
  975MOL0     C31512   5.979   3.291   5.990  0.0484 -0.2027  0.2778
  975MOL0     C31513   5.929   3.442   5.961 -0.8949  0.9064  0.4780
  975MOL0     O31514   6.038   3.531   5.925 -0.2614  0.3419 -0.2364
  975MOL0     C31515   6.049   3.586   5.798  0.0748  0.7104  0.0547
  975MOL0     C31516   6.132   3.702   5.778  0.4458 -0.6393  0.8267
  975MOL0     C31517   6.159   3.765   5.658 -0.2831 -0.0449  0.8303
  975MOL0     C31518   6.252   3.882   5.665  0.0827 -0.4460  0.0753
  975MOL0     C31519   6.111   3.697   5.542 -1.3788  0.3854  1.2653
  975MOL0     C31520   6.145   3.743   5.397  0.6889  0.1725 -0.2098
  975MOL0     O31521   6.106   3.658   5.297 -0.0265  0.1097 -0.1319
  975MOL0     C31522   6.138   3.701   5.172 -0.0843 -0.4365  0.3996
  975MOL0     C31523   6.262   3.661   5.118 -0.6600 -0.3118 -0.1558
  975MOL0     C31524   6.287   3.712   4.985 -0.1618  0.0908 -0.6795
  975MOL0     C31525   6.205   3.808   4.919  0.7896 -0.3978  0.2888
  975MOL0     O31526   6.229   3.837   4.780  0.4557  0.5263  0.1284
  975MOL0     C31527   6.159   3.947   4.721 -0.7537  0.5490 -0.2849
  975MOL0     C31528   6.249   4.000   4.612 -0.3781  0.8514  0.5411
  975MOL0     C31529   6.176   4.075   4.501  0.9033  0.5205 -0.8892
  975MOL0     C31530   6.119   3.973   4.391  0.2806  0.0498  0.0833
  975MOL0     C31531   6.044   4.054   4.268 -0.3262 -0.1079  0.7130
  975MOL0     C31532   5.953   3.962   4.195 -0.3205  0.0680  0.3287
  975MOL0     C31533   5.841   4.040   4.114 -0.0953 -0.0390  0.1121
  975MOL0     C31534   5.880   4.040   3.970 -0.4702 -0.1009  0.0359
  975MOL0    Cl31535   5.825   3.885   3.897  0.2015  0.1677 -0.3343
  975MOL0     C31536   6.083   3.847   4.978 -0.3643  0.0915 -0.5384
  975MOL0     C31537   6.052   3.791   5.099  0.8605  0.1374  0.2454
  975MOL0     O31538   6.214   3.841   5.386  0.2656  0.3372  0.1783
  975MOL0     C31539   6.037   3.584   5.551  0.5955 -0.4585  0.3997
  975MOL0     C31540   5.998   3.531   5.675 -0.6909 -0.4924 -0.2855
  975MOL0     N31541   5.835   3.167   6.290 -0.0086 -0.0838 -0.5430
  975MOL0     N31542   5.702   3.158   6.323  0.3446  0.1937  0.4049
  975MOL0     C31543   4.528   2.945   6.472 -0.2242 -0.4080  0.1496
  975MOL0     C31544   4.449   2.820   6.449 -0.8184 -0.2243  0.4626
  975MOL0     C31545   4.152   2.546   6.183 -0.2190  0.3093 -0.9038
  975MOL0     C31546   4.122   2.509   6.046 -0.4699 -0.5533  0.2431
  975MOL0     C31547   4.031   2.409   6.026 -0.5854 -0.7768 -0.1347
  975MOL0     C31548   3.961   2.345   6.127  0.4582 -0.3114 -0.2742
  975MOL0     O31549   3.862   2.252   6.098 -0.2439  0.9748  0.4852
  975MOL0     C31550   3.748   2.227   6.187  0.4066 -0.5682  0.1787
  975MOL0     C31551   3.633   2.174   6.101  0.1302  1.4286 -1.1474
  975MOL0     C31552   3.664   2.046   6.026 -0.7864 -0.0388 -0.3003
  975MOL0     C31553   3.706   1.930   6.117  0.2340  0.2257 -0.0556
  975MOL0     C31554   3.635   1.914   6.243  0.1849  0.8545 -0.3843
  975MOL0     C31555   3.555   1.876   6.331  0.3710 -0.3803 -0.3992
  975MOL0     C31556   3.990   2.375   6.259 -1.2266  0.2555  0.0566
  975MOL0     C31557   4.081   2.482   6.287  1.1484 -0.8257 -0.9727
  975MOL0     H31558   4.228   2.956   6.209  0.1696  2.7886 -0.6483
  975MOL0     H31559   4.376   3.136   6.234  2.1281 -1.2616 -3.1629
  975MOL0     H31560   4.720   3.102   6.309  2.0048 -0.6918  0.6700
  975MOL0     H31561   4.686   3.266   6.283  1.3874 -1.5177 -1.1816
  975MOL0     H31562   4.805   3.322   6.495  0.0587  0.6041  0.6385
  975MOL0     H31563   4.806   3.149   6.543 -1.0488 -0.0408 -0.3250
  975MOL0     H31564   4.937   3.137   6.295  1.6083  0.3123 -0.0532
  975MOL0     H31565   4.956   3.301   6.319  0.1253 -0.5361 -1.8816
  975MOL0     H31566   5.080   3.291   6.510 -5.8812  2.0794 -1.6640
  975MOL0     H31567   5.043   3.127   6.563  2.8448  1.4577  0.8471
  975MOL0     H31568   5.236   3.080   6.474 -1.6254 -2.5575 -0.7445
  975MOL0     H31569   5.179   3.098   6.310 -1.2472 -1.5480  0.4649
  975MOL0     H31570   5.235   3.337   6.319 -2.7097 -1.5549  1.1746
  975MOL0     H31571   5.310   3.304   6.484  1.4069 -0.3604  0.6480
  975MOL0     H31572   5.471   3.139   6.399  0.3019 -0.2460 -1.2845
  975MOL0     H31573   5.402   3.166   6.240 -3.6941 -0.4852  1.8925
  975MOL0     H31574   5.537   3.373   6.429 -1.6278 -3.2813  1.3267
  975MOL0     H31575   5.497   3.404   6.254 -0.5371 -0.4911 -0.6676
  975MOL0     H31576   5.755   3.474   6.246  0.5857  0.3568 -1.2391
  975MOL0     H31577   6.014   3.449   6.250  0.4082 -0.1694  0.4457
  975MOL0     H31578   6.082   3.295   6.320  2.8825 -0.2969 -1.8054
  975MOL0     H31579   6.106   3.178   6.124  0.3695  0.1090 -0.6196
  975MOL0     H31580   6.172   3.330   6.094  0.5829 -0.0529  1.6629
  975MOL0     H31581   5.892   3.225   5.995 -0.7093  0.4244 -2.8695
  975MOL0     H31582   6.036   3.266   5.900 -1.6867 -1.1720 -0.6060
  975MOL0     H31583   5.895   3.490   6.054 -1.3066  2.5373 -0.4886
  975MOL0     H31584   5.849   3.453   5.887 -1.2346  5.2331  1.1958
  975MOL0     H31585   6.174   3.748   5.867 -1.8238 -0.0684  1.6717
  975MOL0     H31586   6.295   3.902   5.764 -0.5274  3.0213 -0.2415
  975MOL0     H31587   6.332   3.868   5.593  1.0167 -1.0238  1.1864
  975MOL0     H31588   6.186   3.961   5.628 -2.0759 -1.5658  1.3446
  975MOL0     H31589   6.330   3.592   5.167  1.4772  0.0414 -2.4660
  975MOL0     H31590   6.352   3.660   4.915  0.2717 -3.5341  2.0983
  975MOL0     H31591   6.071   3.896   4.679 -2.7944  0.4042  3.7076
  975MOL0     H31592   6.126   4.020   4.795  1.4978 -0.4764  1.8785
  975MOL0     H31593   6.323   4.073   4.648  0.5064 -0.7237  2.0932
  975MOL0     H31594   6.319   3.920   4.584 -1.0142 -0.7857  3.2143
  975MOL0     H31595   6.238   4.153   4.456 -1.8727  1.4833 -3.3823
  975MOL0     H31596   6.092   4.127   4.549  1.7394  0.6306  0.5134
  975MOL0     H31597   6.192   3.900   4.356  0.9388  0.3614  0.7919
  975MOL0     H31598   6.052   3.909   4.450  0.5741  0.5321  0.9617
  975MOL0     H31599   6.116   4.096   4.198  1.0019 -2.4245  0.6113
  975MOL0     H31600   5.989   4.139   4.311  0.5285  0.8983 -0.1275
  975MOL0     H31601   6.015   3.906   4.125 -0.3932 -4.1819  3.3001
  975MOL0     H31602   5.903   3.902   4.272 -1.5049  0.7935  0.1547
  975MOL0     H31603   5.837   4.141   4.155  0.9174  0.3285 -0.6627
  975MOL0     H31604   5.744   3.991   4.121 -1.2356  2.1957  0.9171
  975MOL0     H31605   5.988   4.044   3.952 -0.1334 -1.8184  1.3777
  975MOL0     H31606   5.829   4.115   3.909 -1.8135 -0.9158  0.1113
  975MOL0     H31607   6.020   3.932   4.952  0.6083  1.1716  0.4864
  975MOL0     H31608   5.953   3.816   5.137 -0.1972 -1.1818 -1.4948
  975MOL0     H31609   6.016   3.522   5.465  1.8999 -1.3530  0.6900
  975MOL0     H31610   5.936   3.443   5.665 -1.2900 -0.3260  1.5783
  975MOL0     H31611   4.599   2.950   6.554  0.5654 -2.1061 -0.3986
  975MOL0     H31612   4.479   2.732   6.504 -0.7107  0.0918  0.9156
  975MOL0     H31613   4.167   2.568   5.966 -1.8200 -2.2399 -1.8783
  975MOL0     H31614   4.011   2.371   5.927  0.6704 -5.4227  1.1232
  975MOL0     H31615   3.772   2.155   6.267  1.1431  0.0516  0.5288
  975MOL0     H31616   3.712   2.313   6.244 -0.4282 -1.6387  1.3296
  975MOL0     H31617   3.603   2.253   6.031  0.2518  1.5123 -1.1048
  975MOL0     H31618   3.543   2.161   6.162  2.6721 -1.5232  2.4526
  975MOL0     H31619   3.735   2.084   5.951 -2.1418  4.7135  0.5249
  975MOL0     H31620   3.582   2.014   5.961  0.1999  0.4975 -1.8864
  975MOL0     H31621   3.811   1.937   6.146 -0.2613  1.2503  1.6758
  975MOL0     H31622   3.688   1.830   6.076  1.1777 -2.5763  5.3494
  975MOL0     H31623   3.472   1.857   6.396 -1.8470  5.2048 -0.9955
  975MOL0     H31624   3.960   2.314   6.344 -1.3965 -1.1270 -0.9700
  975MOL0     H31625   4.096   2.510   6.391 -1.8063 -0.8440 -0.4552
  976MOL0     O31626   8.950   5.974   9.599  0.0540 -0.2981  0.6945
  976MOL0     C31627   8.948   5.859   9.563 -0.3500 -0.6344 -0.0836
  976MOL0     O31628   9.062   5.784   9.525  0.1188  0.6877 -0.5411
  976MOL0     C31629   9.178   5.855   9.522 -0.0620 -0.0419  0.0004
  976MOL0     C31630   9.276   5.842   9.634  0.4976  1.0754  1.0696
  976MOL0     C31631   9.402   5.912   9.630 -0.0314  0.4320 -0.4879
  976MOL0     C31632   9.433   6.002   9.523  0.4505 -0.5800 -0.4284
  976MOL0     O31633   9.559   6.065   9.531 -0.2038  0.2046 -0.3750
  976MOL0     C31634   9.585   6.154   9.421  0.3762  1.0944 -0.5997
  976MOL0     C31635   9.719   6.225   9.435  0.6022  0.3356  1.1810
  976MOL0     C31636   9.760   6.291   9.297 -0.5465  1.2500  0.5030
  976MOL0     C31637   9.897   6.372   9.304  0.2571  0.0207 -0.4325
  976MOL0     C31638   9.939   6.448   9.174  0.4775 -0.9332 -0.5920
  976MOL0     C31639  10.085   6.511   9.175 -0.2018 -0.5058 -1.2018
  976MOL0     C31640  10.191   6.402   9.199  0.2149 -0.2298  0.5285
  976MOL0     C31641  10.335   6.455   9.224  0.2308  1.5983  0.3246
  976MOL0     N31642  10.429   6.345   9.225 -0.0332  0.4435 -0.3265
  976MOL0     C31643  10.434   6.244   9.135  0.1556  0.1945  0.0259
  976MOL0     C31644  10.508   6.139   9.179 -0.6862  0.0358 -1.1897
  976MOL0     C31645  10.505   6.008   9.103  0.1508 -0.4632 -0.7738
  976MOL0     C31646  10.418   5.904   9.165 -0.2231  0.2774  0.7415
  976MOL0     C31647  10.450   5.759   9.125 -0.0448  0.0681 -0.7082
  976MOL0     C31648  10.415   5.725   8.978  0.5651 -0.0909 -0.3444
  976MOL0     O31649  10.478   5.592   8.951  0.3315  0.5228 -0.5909
  976MOL0     C31650  10.566   5.591   8.839 -0.3736 -0.4910  0.2740
  976MOL0     C31651  10.512   5.581   8.712  0.0219  0.2419  0.5992
  976MOL0     C31652  10.599   5.564   8.596 -0.1369  0.4610 -0.6261
  976MOL0     C31653  10.529   5.547   8.467  0.2730 -0.9470  0.3317
  976MOL0     C31654  10.746   5.570   8.626  0.1415 -0.7511  0.1238
  976MOL0     C31655  10.854   5.575   8.522  0.1488  1.0184 -0.1597
  976MOL0     O31656  10.981   5.584   8.569  0.1348  0.2912 -0.4345
  976MOL0     C31657  11.089   5.608   8.490 -0.1315  0.3190  0.3418
  976MOL0     C31658  11.173   5.513   8.434 -0.1372 -0.1588  0.8915
  976MOL0     C31659  11.290   5.551   8.355 -0.3580  0.4048 -0.0435
  976MOL0     C31660  11.320   5.686   8.354  0.1757  0.1326  0.1068
  976MOL0     O31661  11.425   5.741   8.294 -0.6410  0.3683 -0.1588
  976MOL0     C31662  11.525   5.663   8.238 -1.0538 -1.0193 -0.0082
  976MOL0     C31663  11.633   5.756   8.177 -0.2871  0.0966 -0.9048
  976MOL0     C31664  11.603   5.816   8.044 -1.1935 -0.0613  0.1768
  976MOL0     C31665  11.723   5.869   7.974 -0.5536 -0.0974  0.3837
  976MOL0     C31666  11.756   6.011   8.006 -0.7957  0.2591  0.1224
  976MOL0     C31667  11.659   6.110   7.944  0.1973  1.2372 -0.4206
  976MOL0     C31668  11.686   6.252   7.979  0.1704 -0.7158 -0.6271
  976MOL0     C31669  11.821   6.310   7.921  0.3671  0.3834  0.4080
  976MOL0    Cl31670  11.880   6.223   7.773  0.3150 -0.0579 -0.1827
  976MOL0     C31671  11.244   5.783   8.411  0.1771  0.1383  0.7472
  976MOL0     C31672  11.134   5.745   8.485 -0.0031  0.5691 -0.1491
  976MOL0     O31673  10.831   5.557   8.402  0.7151  0.2001  0.4422
  976MOL0     C31674  10.791   5.581   8.759  0.7381 -0.5317  1.2875
  976MOL0     C31675  10.700   5.601   8.859  0.4251  0.4511 -0.8871
  976MOL0     N31676  10.552   6.183   9.307 -0.7445  0.5069  0.0630
  976MOL0     N31677  10.504   6.306   9.333 -0.5372 -0.5322  0.2620
  976MOL0     C31678   9.328   6.026   9.432 -0.4571  0.6789 -0.3157
  976MOL0     C31679   9.202   5.954   9.430  0.1753 -0.1132 -0.5954
  976MOL0     C31680   8.820   5.799   9.556  1.2311 -0.3613 -0.7870
  976MOL0     C31681   8.707   5.864   9.613  0.3071 -0.8597  0.5415
  976MOL0     C31682   8.588   5.798   9.609 -0.0903 -0.1386  0.1913
  976MOL0     C31683   8.582   5.666   9.554  0.2054  1.3871 -0.4977
  976MOL0     O31684   8.460   5.604   9.554  0.5445 -0.4792  0.0043
  976MOL0     C31685   8.416   5.485   9.478 -0.6561 -1.0788  0.1605
  976MOL0     C31686   8.290   5.443   9.558  0.1300  0.1171  0.1411
  976MOL0     C31687   8.309   5.428   9.713  0.0163 -0.4095 -0.0945
  976MOL0     C31688   8.417   5.328   9.750  0.3329  0.1353 -0.7053
  976MOL0     C31689   8.379   5.261   9.873  0.4604 -0.1531  1.1987
  976MOL0     C31690   8.339   5.217   9.978  0.0465 -0.5979 -0.2274
  976MOL0     C31691   8.689   5.604   9.489  0.9475  0.1323 -0.2079
  976MOL0     C31692   8.810   5.668   9.501 -0.7196  0.3904 -0.4828
  976MOL0     H31693   9.265   5.774   9.717  1.0369  0.1912  0.4341
  976MOL0     H31694   9.474   5.866   9.697 -0.6858 -0.9704 -0.6991
  976MOL0     H31695   9.592   6.090   9.332 -0.7010  0.3233 -0.1445
  976MOL0     H31696   9.503   6.225   9.410 -1.2431 -0.6748 -0.3278
  976MOL0     H31697   9.716   6.297   9.517 -2.0394 -0.5719  1.9671
  976MOL0     H31698   9.798   6.153   9.458  2.2032  1.6630  0.0856
  976MOL0     H31699   9.770   6.218   9.216 -1.4245  3.2235 -1.5210
  976MOL0     H31700   9.687   6.368   9.269 -0.1080  2.0669  1.5724
  976MOL0     H31701   9.898   6.438   9.391  2.1359 -0.9241  0.3267
  976MOL0     H31702   9.972   6.292   9.313 -1.0340 -1.4629 -2.0924
  976MOL0     H31703   9.936   6.374   9.093  0.6310  1.5803 -3.0210
  976MOL0     H31704   9.867   6.529   9.158  3.0565  1.2962 -1.5536
  976MOL0     H31705  10.107   6.559   9.080  1.9141 -2.1633 -1.6280
  976MOL0     H31706  10.092   6.589   9.252 -1.8052  0.6306 -2.1492
  976MOL0     H31707  10.169   6.330   9.279  2.3983 -1.2888  0.2409
  976MOL0     H31708  10.190   6.345   9.106 -0.0118  1.9712 -0.8961
  976MOL0     H31709  10.347   6.511   9.318  1.9375  0.7178  0.6808
  976MOL0     H31710  10.357   6.512   9.133  0.8360  3.4263  1.5505
  976MOL0     H31711  10.383   6.251   9.039  0.3153 -0.4685 -0.1089
  976MOL0     H31712  10.474   6.028   9.001 -1.7411 -0.2295 -0.1856
  976MOL0     H31713  10.607   5.968   9.096 -0.4526 -2.1454 -0.2805
  976MOL0     H31714  10.314   5.927   9.138 -0.7022 -1.3551  1.1173
  976MOL0     H31715  10.416   5.904   9.275  1.7413  0.3566  0.8087
  976MOL0     H31716  10.397   5.699   9.198  1.5324  1.9685  2.2059
  976MOL0     H31717  10.556   5.730   9.132 -0.7771 -2.5848  0.5527
  976MOL0     H31718  10.446   5.808   8.913  1.1334  0.1704  0.2555
  976MOL0     H31719  10.306   5.722   8.970  0.4143  2.2445  0.0219
  976MOL0     H31720  10.408   5.561   8.692  0.0252 -0.8681  1.6049
  976MOL0     H31721  10.536   5.638   8.407  0.7575  0.2619  2.1423
  976MOL0     H31722  10.578   5.464   8.416  1.6517  0.6360 -1.0329
  976MOL0     H31723  10.423   5.520   8.474  0.1282 -0.9564 -1.5561
  976MOL0     H31724  11.142   5.409   8.437 -0.7511 -0.1286 -1.7464
  976MOL0     H31725  11.362   5.480   8.315 -1.7202 -0.8554 -0.3596
  976MOL0     H31726  11.565   5.607   8.322 -3.4389  2.1061  3.5634
  976MOL0     H31727  11.497   5.607   8.148  1.9189 -0.2515 -1.5317
  976MOL0     H31728  11.678   5.832   8.241  2.0971 -0.5364 -1.7316
  976MOL0     H31729  11.722   5.695   8.157  0.6195  1.3811 -0.9487
  976MOL0     H31730  11.522   5.889   8.049 -1.4496 -0.2577 -0.8228
  976MOL0     H31731  11.572   5.727   7.987 -0.5250 -0.7703  0.8825
  976MOL0     H31732  11.806   5.805   8.004  0.6124  1.2026  0.0251
  976MOL0     H31733  11.715   5.841   7.868 -0.0776 -1.4090  0.6778
  976MOL0     H31734  11.854   6.041   7.968 -0.4097 -0.7647  0.2745
  976MOL0     H31735  11.768   6.027   8.113  0.5338 -1.0379  0.2082
  976MOL0     H31736  11.662   6.106   7.835 -1.2289  0.0573 -0.4481
  976MOL0     H31737  11.563   6.070   7.978  2.0880 -2.7443  0.9183
  976MOL0     H31738  11.671   6.272   8.086 -0.5180 -0.4241 -0.7741
  976MOL0     H31739  11.616   6.315   7.923  0.6992  1.4156  0.9810
  976MOL0     H31740  11.893   6.289   8.001  0.6646  2.5210  0.7508
  976MOL0     H31741  11.820   6.419   7.911 -1.1755  0.5861  2.1091
  976MOL0     H31742  11.269   5.889   8.409  2.4171 -0.0887  4.5968
  976MOL0     H31743  11.072   5.819   8.535  0.3309  0.7930 -0.0659
  976MOL0     H31744  10.894   5.561   8.786  0.1941 -2.2053  2.3231
  976MOL0     H31745  10.746   5.616   8.956  0.1480  1.2357 -0.8745
  976MOL0     H31746   9.344   6.113   9.368  2.0924  2.3557  2.3380
  976MOL0     H31747   9.123   5.979   9.359 -1.2358 -2.3456  0.0644
  976MOL0     H31748   8.732   5.961   9.657 -1.7512 -0.9868  2.1592
  976MOL0     H31749   8.492   5.826   9.652 -0.1998 -2.8395  1.9568
  976MOL0     H31750   8.414   5.517   9.374 -1.6500  2.4618  1.0999
  976MOL0     H31751   8.489   5.404   9.473  0.7117  0.1824 -3.1306
  976MOL0     H31752   8.268   5.343   9.521  0.2424  1.0703 -2.6730
  976MOL0     H31753   8.207   5.498   9.515  1.4786 -0.6602 -3.8333
  976MOL0     H31754   8.217   5.381   9.750  0.0475 -1.5888 -1.4446
  976MOL0     H31755   8.334   5.520   9.766 -0.0906 -0.6497  0.3780
  976MOL0     H31756   8.503   5.389   9.777 -2.1835  2.6906  2.3912
  976MOL0     H31757   8.448   5.259   9.670  0.1210  0.9120 -1.4754
  976MOL0     H31758   8.289   5.164  10.056 -3.3608  1.9127 -0.4632
  976MOL0     H31759   8.685   5.506   9.441 -1.5974  1.0402 -2.0221
  976MOL0     H31760   8.897   5.617   9.462 -0.5912 -0.7915  1.2076
  977MOL0     O31761   0.481   3.027   1.890  0.8266 -0.7159 -0.1863
  977MOL0     C31762   0.558   3.111   1.930 -0.1175 -0.0888 -0.6237
  977MOL0     O31763   0.525   3.233   1.985  0.1469 -0.4617 -0.4564
  977MOL0     C31764   0.398   3.276   1.975  0.1018  0.2097 -0.5265
  977MOL0     C31765   0.347   3.301   1.852 -0.1388 -0.7022  0.5803
  977MOL0     C31766   0.234   3.375   1.846  0.2865  0.0619 -0.2558
  977MOL0     C31767   0.163   3.414   1.964  0.6448 -0.1452  0.2681
  977MOL0     O31768   0.037   3.465   1.943 -0.1519 -0.4641 -0.4140
  977MOL0     C31769  -0.073   3.381   1.980 -0.5653 -0.3773  0.1484
  977MOL0     C31770  -0.196   3.422   1.893 -0.6055  1.1710  0.1531
  977MOL0     C31771  -0.237   3.567   1.918 -0.5397 -0.2984  0.3083
  977MOL0     C31772  -0.347   3.628   1.842  0.2638 -0.7877 -0.2673
  977MOL0     C31773  -0.365   3.582   1.696  0.2615  0.0882 -0.0460
  977MOL0     C31774  -0.444   3.451   1.677  0.5750 -1.0450  0.9605
  977MOL0     C31775  -0.477   3.447   1.519  0.3780  1.0939 -0.0198
  977MOL0     C31776  -0.593   3.343   1.496 -0.5382 -0.5337 -0.4735
  977MOL0     N31777  -0.573   3.210   1.541 -0.3670  0.0114 -0.1602
  977MOL0     C31778  -0.533   3.103   1.469 -0.5508 -0.4810 -0.1097
  977MOL0     C31779  -0.540   2.997   1.548 -0.0453  0.0244  0.5220
  977MOL0     C31780  -0.489   2.861   1.504 -0.8888 -0.1759 -0.1015
  977MOL0     C31781  -0.456   2.836   1.355  0.0050  0.5833  0.0941
  977MOL0     C31782  -0.590   2.841   1.270 -0.6097  0.5983 -0.1099
  977MOL0     C31783  -0.571   2.776   1.128 -0.6604 -0.1857 -1.5691
  977MOL0     O31784  -0.588   2.636   1.130 -1.0639  0.2004  0.1087
  977MOL0     C31785  -0.516   2.563   1.042  1.1323  0.9484  0.4239
  977MOL0     C31786  -0.388   2.521   1.070  0.3643  0.5359 -0.9654
  977MOL0     C31787  -0.303   2.454   0.976 -0.1190  0.6705  0.7340
  977MOL0     C31788  -0.169   2.400   1.015 -0.4588  0.0997  0.3804
  977MOL0     C31789  -0.354   2.422   0.845  0.1105 -0.2491  0.8466
  977MOL0     C31790  -0.282   2.372   0.726  0.0325  0.3230 -0.5010
  977MOL0     O31791  -0.147   2.360   0.741 -0.0553 -0.3300  0.3470
  977MOL0     C31792  -0.063   2.277   0.682  0.2243 -0.2801  0.1935
  977MOL0     C31793  -0.053   2.146   0.723 -0.7305  0.5545  0.0733
  977MOL0     C31794   0.011   2.049   0.642 -1.0959  0.4937 -0.2417
  977MOL0     C31795   0.083   2.089   0.526  0.5046 -0.4791 -0.5513
  977MOL0     O31796   0.118   2.004   0.432 -0.0043 -0.1846 -0.1383
  977MOL0     C31797   0.201   1.893   0.466  0.2119 -0.5563 -0.1291
  977MOL0     C31798   0.182   1.789   0.362 -0.3818  0.3703  0.9423
  977MOL0     C31799   0.049   1.744   0.329 -0.1751 -0.2504 -1.0861
  977MOL0     C31800   0.014   1.608   0.398  1.0235  1.5403  0.7075
  977MOL0     C31801  -0.133   1.558   0.367  0.8606  0.2215 -0.3240
  977MOL0     C31802  -0.191   1.458   0.470  0.0941  0.6507  0.7567
  977MOL0     C31803  -0.095   1.338   0.490  0.2526 -0.3028  0.6474
  977MOL0     C31804  -0.162   1.229   0.576  0.2437 -0.1317  0.0370
  977MOL0    Cl31805  -0.063   1.087   0.596 -0.1079  0.0691 -0.2817
  977MOL0     C31806   0.074   2.219   0.495  0.0995 -0.8592 -0.1535
  977MOL0     C31807   0.004   2.321   0.575 -0.4138 -0.1292  0.7185
  977MOL0     O31808  -0.341   2.337   0.625 -0.1537  0.0189 -0.0730
  977MOL0     C31809  -0.493   2.451   0.822 -0.2551  0.2289 -0.2913
  977MOL0     C31810  -0.573   2.522   0.920  0.4627  0.2329  0.3843
  977MOL0     N31811  -0.577   3.030   1.678  0.5698 -0.5950 -0.3429
  977MOL0     N31812  -0.591   3.161   1.676  0.9030  0.2783  1.0846
  977MOL0     C31813   0.207   3.381   2.087  0.0896 -0.0603  0.7194
  977MOL0     C31814   0.329   3.319   2.094 -0.8172 -0.4933  0.3500
  977MOL0     C31815   0.711   3.068   1.933  0.7921 -0.1176 -0.1330
  977MOL0     C31816   0.751   2.946   1.878 -0.2795  0.1168  0.2363
  977MOL0     C31817   0.885   2.916   1.871  0.2342  0.1912 -0.0273
  977MOL0     C31818   0.982   3.004   1.920 -1.0158 -0.7222  0.0705
  977MOL0     O31819   1.112   2.999   1.888 -0.4657  0.2438 -0.1726
  977MOL0     C31820   1.158   2.881   1.821  0.7933  0.1881  0.2076
  977MOL0     C31821   1.316   2.870   1.815  1.2292  0.5493  0.5127
  977MOL0     C31822   1.372   2.844   1.958  0.8654  0.4124  0.1443
  977MOL0     C31823   1.527   2.849   1.956  0.2683 -0.4338  0.7527
  977MOL0     C31824   1.580   2.728   1.892 -0.0856 -0.5905 -1.1176
  977MOL0     C31825   1.614   2.627   1.831 -0.1749  0.0009 -0.9926
  977MOL0     C31826   0.942   3.131   1.977 -0.0626 -0.5171 -0.3318
  977MOL0     C31827   0.805   3.158   1.982 -0.0896 -0.0516  0.4082
  977MOL0     H31828   0.401   3.281   1.761  0.2527  2.2506  0.0651
  977MOL0     H31829   0.199   3.411   1.750  1.6613 -1.0265 -1.2201
  977MOL0     H31830  -0.058   3.276   1.954  0.0199 -0.0938 -0.6811
  977MOL0     H31831  -0.097   3.393   2.086  0.8965  0.6404  0.4061
  977MOL0     H31832  -0.165   3.410   1.789 -1.5372  0.8876 -0.0984
  977MOL0     H31833  -0.275   3.350   1.916  0.9557 -0.1224  1.7985
  977MOL0     H31834  -0.268   3.567   2.023 -0.7014  3.0706  0.3623
  977MOL0     H31835  -0.145   3.622   1.893 -1.8327  0.3426 -3.5819
  977MOL0     H31836  -0.437   3.611   1.901  0.7689  2.1651  1.5545
  977MOL0     H31837  -0.323   3.735   1.847  0.0918 -0.6799 -1.3778
  977MOL0     H31838  -0.416   3.661   1.641 -2.5585 -1.5134  0.0627
  977MOL0     H31839  -0.267   3.561   1.653 -0.4953 -3.4874 -0.3204
  977MOL0     H31840  -0.378   3.368   1.703  2.7891 -0.4815 -2.2897
  977MOL0     H31841  -0.536   3.447   1.736  0.1496 -2.7359  0.2629
  977MOL0     H31842  -0.519   3.541   1.484  1.9876  1.6019 -0.6710
  977MOL0     H31843  -0.386   3.428   1.462  1.3371  3.2613  0.7102
  977MOL0     H31844  -0.614   3.349   1.389  1.4469  2.5245 -0.8328
  977MOL0     H31845  -0.682   3.386   1.542 -1.8569 -2.4749 -1.0866
  977MOL0     H31846  -0.487   3.097   1.371  1.9119 -0.2659  0.9559
  977MOL0     H31847  -0.392   2.857   1.554 -0.0578 -0.7110 -1.6654
  977MOL0     H31848  -0.560   2.783   1.533 -0.2016 -0.2349  1.4834
  977MOL0     H31849  -0.412   2.735   1.356  3.4016  1.8871 -1.3014
  977MOL0     H31850  -0.382   2.904   1.312  0.2980 -0.8145 -1.7477
  977MOL0     H31851  -0.638   2.939   1.267  0.5944  1.2176 -3.2072
  977MOL0     H31852  -0.660   2.779   1.326 -1.0518  0.1409 -1.1551
  977MOL0     H31853  -0.476   2.801   1.080 -0.2557 -2.2140 -1.9177
  977MOL0     H31854  -0.655   2.822   1.074 -2.5467 -1.8862 -0.2754
  977MOL0     H31855  -0.333   2.546   1.160  0.3454 -1.6335 -0.2908
  977MOL0     H31856  -0.087   2.443   0.958 -2.2082  1.7118 -1.0688
  977MOL0     H31857  -0.156   2.426   1.121  0.4359  0.6807  0.1340
  977MOL0     H31858  -0.177   2.290   1.013  0.9356 -0.0028 -0.4120
  977MOL0     H31859  -0.114   2.117   0.808  0.9718 -2.6633  0.3401
  977MOL0     H31860   0.006   1.945   0.674 -0.9921 -0.0591 -1.9097
  977MOL0     H31861   0.304   1.929   0.463  0.6311 -1.5071 -4.8840
  977MOL0     H31862   0.179   1.847   0.563 -1.9515  1.1524  0.2715
  977MOL0     H31863   0.217   1.846   0.275  0.3185 -2.5875 -0.8412
  977MOL0     H31864   0.248   1.708   0.395  0.3733 -0.6966 -2.7233
  977MOL0     H31865   0.042   1.718   0.223 -1.8264 -1.8561 -0.6373
  977MOL0     H31866  -0.023   1.824   0.348  1.2705  1.4164 -2.2369
  977MOL0     H31867   0.092   1.537   0.369 -0.2496  0.5253 -0.3500
  977MOL0     H31868   0.017   1.627   0.506 -0.3491 -0.3958  1.1388
  977MOL0     H31869  -0.139   1.540   0.259 -0.6631  1.6903 -0.5378
  977MOL0     H31870  -0.204   1.642   0.368  0.2817 -0.1718 -2.7023
  977MOL0     H31871  -0.200   1.513   0.565  0.8475 -0.5736  1.5720
  977MOL0     H31872  -0.288   1.425   0.434  0.5233  1.6129 -1.3929
  977MOL0     H31873   0.001   1.366   0.535 -0.6662  2.8313  0.9241
  977MOL0     H31874  -0.076   1.291   0.394 -1.0207  2.1948 -0.9315
  977MOL0     H31875  -0.251   1.197   0.521  0.9177 -3.5698  0.7581
  977MOL0     H31876  -0.172   1.271   0.676  4.6093  0.3583  0.4358
  977MOL0     H31877   0.125   2.255   0.405 -0.6571  2.6398  0.6455
  977MOL0     H31878   0.003   2.418   0.528 -0.8771 -1.8102 -3.1283
  977MOL0     H31879  -0.531   2.431   0.723  0.4642  2.4050 -1.0531
  977MOL0     H31880  -0.677   2.544   0.895  0.1448 -1.5031  0.0793
  977MOL0     H31881   0.150   3.412   2.174  2.6127  2.5215  1.6311
  977MOL0     H31882   0.381   3.308   2.189 -1.0994  0.1738  0.5886
  977MOL0     H31883   0.676   2.882   1.832 -0.5816  0.6294  0.0096
  977MOL0     H31884   0.914   2.824   1.821  0.3484  0.4949 -0.5287
  977MOL0     H31885   1.121   2.788   1.866 -1.8009  0.9648 -0.1502
  977MOL0     H31886   1.107   2.882   1.724  0.7142  1.1870  0.2491
  977MOL0     H31887   1.363   2.961   1.776  0.7885  1.6668  2.4643
  977MOL0     H31888   1.343   2.796   1.739 -1.3460 -3.1952  2.9224
  977MOL0     H31889   1.329   2.752   1.997  0.5528 -0.2841 -1.7029
  977MOL0     H31890   1.344   2.931   2.017  0.0832  0.8749 -0.8802
  977MOL0     H31891   1.570   2.847   2.057  0.1588 -0.8495  0.7938
  977MOL0     H31892   1.554   2.948   1.919 -0.7563  0.0466  1.2267
  977MOL0     H31893   1.650   2.538   1.783  0.6961 -0.1389 -0.1235
  977MOL0     H31894   1.011   3.203   2.018  1.4946 -1.7003 -0.7845
  977MOL0     H31895   0.780   3.255   2.025 -1.4881 -0.5406  0.7441
  978MOL0     O31896   8.702   2.328  10.855  0.6108 -0.6620 -0.2630
  978MOL0     C31897   8.626   2.238  10.892  0.0440 -0.3664  0.1164
  978MOL0     O31898   8.548   2.238  11.006  0.4211  0.4819  0.0316
  978MOL0     C31899   8.560   2.351  11.082  0.4303  0.2089 -0.9480
  978MOL0     C31900   8.446   2.433  11.081 -1.1136 -0.1146  0.7200
  978MOL0     C31901   8.465   2.550  11.150 -0.0480  0.2156  0.0085
  978MOL0     C31902   8.585   2.599  11.209  0.3419 -0.2155  1.4408
  978MOL0     O31903   8.581   2.717  11.273 -0.0483 -0.1403 -0.0422
  978MOL0     C31904   8.696   2.784  11.315 -0.4856 -0.1739  0.9520
  978MOL0     C31905   8.660   2.917  11.382  0.5291  1.1824 -0.1071
  978MOL0     C31906   8.606   2.893  11.525 -0.8330  0.0813 -0.5558
  978MOL0     C31907   8.609   3.013  11.620 -0.4219 -0.6821 -0.1074
  978MOL0     C31908   8.564   3.136  11.552  0.0624 -0.3252  0.0873
  978MOL0     C31909   8.589   3.264  11.630  0.1516  0.2109  0.6598
  978MOL0     C31910   8.529   3.271  11.769  0.4987 -0.6858 -0.2768
  978MOL0     C31911   8.561   3.411  11.827  0.3536  0.1520  1.3865
  978MOL0     N31912   8.510   3.412  11.963 -0.2750 -1.0748 -0.6815
  978MOL0     C31913   8.586   3.464  12.065  0.6446 -0.7886  0.6638
  978MOL0     C31914   8.502   3.474  12.171  0.0958  0.2950  0.2390
  978MOL0     C31915   8.568   3.498  12.301  0.3564  0.5395 -1.1071
  978MOL0     C31916   8.472   3.530  12.419 -0.6136  0.4991 -0.3089
  978MOL0     C31917   8.390   3.418  12.471  0.6105 -0.4670 -0.1699
  978MOL0     C31918   8.449   3.280  12.451  0.3581  0.3428 -0.2742
  978MOL0     O31919   8.376   3.183  12.525 -0.2198 -0.0400 -0.6586
  978MOL0     C31920   8.308   3.087  12.452  0.1340  0.3144  0.3612
  978MOL0     C31921   8.320   2.956  12.488  0.1175  0.0207 -0.0668
  978MOL0     C31922   8.256   2.858  12.417 -0.4050  0.1100 -0.7550
  978MOL0     C31923   8.273   2.717  12.470  0.2044  0.3344  1.1188
  978MOL0     C31924   8.175   2.895  12.306  0.6117 -0.2060  0.0503
  978MOL0     C31925   8.096   2.795  12.230 -0.2886  0.3635  0.3916
  978MOL0     O31926   7.983   2.849  12.164  0.3068  0.0841 -0.0998
  978MOL0     C31927   7.928   2.794  12.051  0.2926  0.2359  0.3931
  978MOL0     C31928   8.007   2.730  11.953 -0.1976  0.4098  0.5279
  978MOL0     C31929   7.944   2.671  11.839  0.8104 -0.8288 -0.5569
  978MOL0     C31930   7.810   2.679  11.828  0.5878  0.2705  0.5828
  978MOL0     O31931   7.739   2.644  11.701 -0.1000 -0.5854 -0.0277
  978MOL0     C31932   7.798   2.686  11.578  1.2697 -0.1911  0.6438
  978MOL0     C31933   7.704   2.695  11.455 -0.5553 -0.2699  0.0892
  978MOL0     C31934   7.795   2.707  11.340 -0.1909 -0.3676 -0.1106
  978MOL0     C31935   7.715   2.704  11.202 -1.1120 -0.4645 -0.1621
  978MOL0     C31936   7.824   2.695  11.089 -0.1119 -0.0869 -0.1662
  978MOL0     C31937   7.756   2.700  10.956  0.1555  0.7289  1.0375
  978MOL0     C31938   7.718   2.840  10.913 -0.1741  0.1702  0.1574
  978MOL0     C31939   7.837   2.903  10.844  0.1493  0.4061 -0.2102
  978MOL0    Cl31940   7.821   3.082  10.827 -0.5368  0.5272  0.7904
  978MOL0     C31941   7.733   2.746  11.925  0.4321  0.5080 -1.1443
  978MOL0     C31942   7.791   2.797  12.044 -0.2449 -1.0459  0.7272
  978MOL0     O31943   8.145   2.685  12.212 -0.3299  0.4651 -0.7395
  978MOL0     C31944   8.160   3.023  12.269  1.0767  0.1302  0.0588
  978MOL0     C31945   8.225   3.124  12.343 -0.0964  0.9279  0.6688
  978MOL0     N31946   8.377   3.411  12.135 -0.7289  0.3173 -1.0215
  978MOL0     N31947   8.379   3.378  12.015 -0.5242 -0.0270  0.2553
  978MOL0     C31948   8.692   2.505  11.215  0.1293  0.0075  0.4117
  978MOL0     C31949   8.680   2.382  11.156 -0.3090 -0.1151  0.0985
  978MOL0     C31950   8.622   2.111  10.818 -0.1919  0.2359  0.3479
  978MOL0     C31951   8.694   2.106  10.695  0.4273 -0.5154 -0.0430
  978MOL0     C31952   8.687   1.989  10.614  0.0741 -0.4639  1.0672
  978MOL0     C31953   8.642   1.870  10.679 -0.7256  0.1684  0.4172
  978MOL0     O31954   8.638   1.750  10.619  0.0847  0.2031 -0.6375
  978MOL0     C31955   8.669   1.733  10.485  0.6350 -0.0605 -0.7990
  978MOL0     C31956   8.816   1.745  10.449 -0.1317  1.1164 -1.2963
  978MOL0     C31957   8.824   1.714  10.297  0.1917 -0.3929 -0.8158
  978MOL0     C31958   8.860   1.840  10.221  0.2310  0.3078  0.2274
  978MOL0     C31959   8.813   1.821  10.087  0.0514  0.1017  0.3341
  978MOL0     C31960   8.765   1.781   9.985  0.3624 -0.4272 -0.1527
  978MOL0     C31961   8.573   1.866  10.798  0.0025 -0.2310  0.4000
  978MOL0     C31962   8.558   1.989  10.862  0.9101 -0.7406 -0.1472
  978MOL0     H31963   8.349   2.396  11.049  0.3094 -2.5025 -1.0350
  978MOL0     H31964   8.383   2.621  11.139 -0.1505 -0.1202 -1.8114
  978MOL0     H31965   8.745   2.714  11.383 -3.2109 -2.4592  0.7339
  978MOL0     H31966   8.768   2.808  11.236 -1.3014  1.7111  0.7147
  978MOL0     H31967   8.745   2.985  11.384  1.3440  0.2181 -0.8842
  978MOL0     H31968   8.584   2.980  11.334 -0.0139  0.8880  0.3433
  978MOL0     H31969   8.501   2.862  11.518 -0.5673 -0.5615 -2.3541
  978MOL0     H31970   8.657   2.812  11.578  2.7072  1.9819 -0.7492
  978MOL0     H31971   8.544   2.990  11.705 -3.3242  0.8182 -1.7419
  978MOL0     H31972   8.710   3.042  11.651 -1.9685  1.9276  3.1476
  978MOL0     H31973   8.626   3.161  11.465  2.4207  1.1630  2.0762
  978MOL0     H31974   8.458   3.128  11.525 -0.9150  2.0896  2.7067
  978MOL0     H31975   8.697   3.273  11.642  0.0639 -0.1721  1.8888
  978MOL0     H31976   8.553   3.347  11.568  1.2581  0.9887  1.0260
  978MOL0     H31977   8.422   3.251  11.778  0.8561 -2.1518  1.2372
  978MOL0     H31978   8.574   3.193  11.831  0.4167  1.4863  2.7323
  978MOL0     H31979   8.501   3.487  11.775 -0.7558  0.7764  3.4360
  978MOL0     H31980   8.667   3.436  11.819  0.5957 -1.4107 -1.3094
  978MOL0     H31981   8.691   3.491  12.065  0.4635 -0.0510 -0.4417
  978MOL0     H31982   8.630   3.411  12.326 -0.3027  0.2351 -0.4762
  978MOL0     H31983   8.639   3.580  12.290  2.7794 -1.3597 -0.7339
  978MOL0     H31984   8.408   3.610  12.381  0.9715  0.8307 -2.5031
  978MOL0     H31985   8.536   3.566  12.500 -0.3091  3.1034 -1.5805
  978MOL0     H31986   8.286   3.425  12.437  0.8772 -0.2748 -0.9759
  978MOL0     H31987   8.390   3.445  12.577 -2.8159 -0.1751 -0.1013
  978MOL0     H31988   8.546   3.282  12.501  0.6367 -0.7830 -0.7242
  978MOL0     H31989   8.471   3.247  12.349  0.9288  0.9536 -0.3554
  978MOL0     H31990   8.380   2.946  12.578 -0.8775 -1.3817  0.4756
  978MOL0     H31991   8.318   2.710  12.569 -1.1897 -0.5875  1.7246
  978MOL0     H31992   8.177   2.665  12.478 -0.5364  1.3882 -0.4178
  978MOL0     H31993   8.333   2.664  12.394 -2.4449 -0.3961 -0.6097
  978MOL0     H31994   8.114   2.727  11.975 -0.3900 -1.4929  1.4004
  978MOL0     H31995   8.001   2.611  11.768 -0.2290  1.9841 -4.0915
  978MOL0     H31996   7.850   2.781  11.591  0.2273  1.0612 -3.1854
  978MOL0     H31997   7.878   2.614  11.558  0.4344 -1.2277  0.9231
  978MOL0     H31998   7.639   2.607  11.458 -0.8642 -0.0240  0.7517
  978MOL0     H31999   7.630   2.773  11.474 -1.0154 -0.6485 -0.1307
  978MOL0     H32000   7.864   2.623  11.339 -0.7113 -0.8170 -1.7170
  978MOL0     H32001   7.845   2.804  11.331  0.2111 -0.6776 -1.4539
  978MOL0     H32002   7.650   2.617  11.207 -0.5475 -0.8582  0.4055
  978MOL0     H32003   7.655   2.794  11.189 -1.3153 -0.8061 -1.8230
  978MOL0     H32004   7.880   2.605  11.117 -1.6559 -0.7467  0.9947
  978MOL0     H32005   7.891   2.781  11.081 -0.3781  0.1644  0.3096
  978MOL0     H32006   7.824   2.646  10.890  1.0747  1.8396  1.0498
  978MOL0     H32007   7.659   2.649  10.958 -1.1238  3.0261  0.4036
  978MOL0     H32008   7.688   2.896  11.002 -0.5932 -1.9290  1.4006
  978MOL0     H32009   7.638   2.837  10.840  0.8842 -2.2538 -1.0219
  978MOL0     H32010   7.850   2.856  10.746  1.0649  1.5269 -0.6458
  978MOL0     H32011   7.929   2.874  10.897 -0.0550 -2.4449 -1.2545
  978MOL0     H32012   7.627   2.730  11.911 -0.2882  1.7316  2.0686
  978MOL0     H32013   7.734   2.850  12.120  2.6020  3.3922  0.1292
  978MOL0     H32014   8.094   3.046  12.186  1.6201  2.2001  0.1379
  978MOL0     H32015   8.227   3.228  12.312  0.5224  0.8092  0.2736
  978MOL0     H32016   8.783   2.536  11.266 -0.9915  0.2702  2.3757
  978MOL0     H32017   8.765   2.316  11.161 -1.2949 -1.4015  4.1910
  978MOL0     H32018   8.727   2.201  10.655 -2.1224 -0.1765 -1.6209
  978MOL0     H32019   8.706   1.984  10.507 -2.9813  0.7951  0.3686
  978MOL0     H32020   8.629   1.632  10.473  1.9926 -0.7895  0.5976
  978MOL0     H32021   8.609   1.795  10.417 -1.3284 -1.8802 -0.8294
  978MOL0     H32022   8.871   1.676  10.514 -4.7115 -1.0456  0.7142
  978MOL0     H32023   8.853   1.846  10.468 -1.5539  1.4212  0.0283
  978MOL0     H32024   8.728   1.675  10.262  0.1209  0.6865 -1.9011
  978MOL0     H32025   8.910   1.648  10.279  0.9644  0.1762  0.6074
  978MOL0     H32026   8.966   1.864  10.212 -0.1414  1.8026 -0.5683
  978MOL0     H32027   8.816   1.928  10.269  0.5834  0.2241  0.7092
  978MOL0     H32028   8.716   1.759   9.892  1.0754  1.0962 -0.9312
  978MOL0     H32029   8.531   1.771  10.830 -1.3242 -0.5030 -1.8696
  978MOL0     H32030   8.510   1.986  10.959  3.7839 -1.3558  1.3715
  979MOL0     O32031   7.520   8.340   0.920  0.0757 -0.9851  0.4235
  979MOL0     C32032   7.489   8.416   0.825  0.4513 -0.0193 -0.7054
  979MOL0     O32033   7.403   8.390   0.718  0.3238  0.6495 -0.4511
  979MOL0     C32034   7.357   8.257   0.701 -0.2587 -1.0405 -0.0619
  979MOL0     C32035   7.257   8.257   0.614  0.0265  0.4911  0.8206
  979MOL0     C32036   7.192   8.137   0.582 -1.1680 -0.0277  0.5879
  979MOL0     C32037   7.240   8.013   0.632  0.3845 -0.3369  0.3024
  979MOL0     O32038   7.164   7.901   0.613  0.1420  0.0967 -0.6212
  979MOL0     C32039   7.137   7.830   0.732  0.7660  0.1235  0.0165
  979MOL0     C32040   7.073   7.696   0.706 -0.0934  0.0656  0.1775
  979MOL0     C32041   7.153   7.615   0.616 -0.2461  0.6286  0.2201
  979MOL0     C32042   7.074   7.499   0.541 -0.3680 -0.2936 -0.1516
  979MOL0     C32043   7.024   7.406   0.652  0.2635  0.1077 -0.0382
  979MOL0     C32044   7.131   7.305   0.700  1.2003 -0.4134  0.2842
  979MOL0     C32045   7.074   7.191   0.787  1.1797  0.9478  0.0864
  979MOL0     C32046   7.017   7.226   0.938 -0.6435  0.0650  0.7635
  979MOL0     N32047   6.878   7.284   0.929 -0.5458  0.9017 -0.0731
  979MOL0     C32048   6.854   7.412   0.965  0.0264 -0.5339  0.4242
  979MOL0     C32049   6.720   7.426   0.980 -0.0602  0.6276  0.4931
  979MOL0     C32050   6.621   7.549   1.001  0.0199 -0.0014 -1.3058
  979MOL0     C32051   6.632   7.582   1.149  1.3423 -0.3440 -0.5069
  979MOL0     C32052   6.594   7.463   1.231 -0.3712 -0.5198  0.3308
  979MOL0     C32053   6.449   7.404   1.215 -0.3624  0.0394 -0.6933
  979MOL0     O32054   6.350   7.496   1.274 -0.7453  0.9075 -0.5616
  979MOL0     C32055   6.226   7.491   1.223  0.2895  0.3389  0.7034
  979MOL0     C32056   6.131   7.580   1.265  0.0937  0.7775  0.2312
  979MOL0     C32057   6.001   7.586   1.213 -0.5737 -0.4395 -1.6360
  979MOL0     C32058   5.917   7.711   1.244  0.4675 -0.2258 -0.5639
  979MOL0     C32059   5.950   7.482   1.136  0.3845  0.4581  0.6801
  979MOL0     C32060   5.813   7.465   1.081  0.0895 -0.0439 -0.8049
  979MOL0     O32061   5.714   7.544   1.125  0.0027 -0.3958 -0.3293
  979MOL0     C32062   5.605   7.550   1.038 -1.0110 -0.3817 -0.9730
  979MOL0     C32063   5.572   7.677   0.988 -0.2442  0.4853  0.4429
  979MOL0     C32064   5.464   7.686   0.906 -0.4646 -0.2159  0.7450
  979MOL0     C32065   5.392   7.576   0.859  0.1164  0.4476 -0.4603
  979MOL0     O32066   5.310   7.583   0.745  0.0644 -0.5154  0.2659
  979MOL0     C32067   5.232   7.700   0.736  1.0102  0.6443  0.1419
  979MOL0     C32068   5.116   7.666   0.645  0.8248 -0.5034  0.1140
  979MOL0     C32069   5.162   7.640   0.500 -0.0742 -0.2220 -0.7335
  979MOL0     C32070   5.054   7.568   0.402 -0.9326 -0.5403  0.4041
  979MOL0     C32071   4.915   7.632   0.402  1.4061  0.7501 -0.0706
  979MOL0     C32072   4.913   7.780   0.368  0.0513 -0.0165 -0.4848
  979MOL0     C32073   4.960   7.803   0.231  0.0633 -0.2321  0.1296
  979MOL0     C32074   4.951   7.944   0.177 -0.5449  0.1807 -0.1284
  979MOL0    Cl32075   4.807   8.020   0.230  0.4928 -0.2396  0.0887
  979MOL0     C32076   5.423   7.449   0.913  0.5423  0.0488 -0.3910
  979MOL0     C32077   5.523   7.442   1.007  0.4742  0.6596  0.9049
  979MOL0     O32078   5.811   7.393   0.981  0.1021 -0.2566  0.0126
  979MOL0     C32079   6.047   7.377   1.112 -0.1045 -0.1084  0.6064
  979MOL0     C32080   6.181   7.382   1.160  0.5260  0.6547 -0.3516
  979MOL0     N32081   6.668   7.302   0.945 -0.1320  0.2399 -0.3272
  979MOL0     N32082   6.762   7.222   0.909  0.2402 -0.0083  0.7562
  979MOL0     C32083   7.346   8.017   0.724 -1.2823 -0.6869  0.2786
  979MOL0     C32084   7.407   8.137   0.754  0.4517 -0.0349 -0.1778
  979MOL0     C32085   7.546   8.548   0.824  0.3943  0.8679 -0.2728
  979MOL0     C32086   7.641   8.573   0.924  0.1360  0.3514  0.1014
  979MOL0     C32087   7.707   8.698   0.931  0.1826 -0.2789  0.0707
  979MOL0     C32088   7.672   8.804   0.856 -0.7271  1.3431 -0.2976
  979MOL0     O32089   7.746   8.916   0.866 -0.3046  0.0058  0.5871
  979MOL0     C32090   7.725   9.014   0.750  0.0305 -0.4563 -0.0178
  979MOL0     C32091   7.847   9.097   0.749 -0.5564  0.6159  0.1327
  979MOL0     C32092   7.835   9.219   0.658  0.3827 -0.2083 -0.0791
  979MOL0     C32093   7.966   9.298   0.677  0.0615  0.8253 -1.2466
  979MOL0     C32094   7.983   9.383   0.563 -0.8954 -0.0527  0.0046
  979MOL0     C32095   8.028   9.451   0.472 -0.6024 -0.1885 -0.6539
  979MOL0     C32096   7.576   8.780   0.756 -0.4523  0.2424 -0.5945
  979MOL0     C32097   7.507   8.656   0.745 -0.5861  0.3633  0.4219
  979MOL0     H32098   7.226   8.354   0.577 -4.7995 -1.2115 -0.3625
  979MOL0     H32099   7.112   8.141   0.510 -0.6532 -1.9865 -0.1502
  979MOL0     H32100   7.230   7.804   0.784  1.0820 -1.4320 -1.2541
  979MOL0     H32101   7.067   7.883   0.797 -0.2808 -0.0078 -0.9837
  979MOL0     H32102   7.053   7.647   0.801 -1.9097  2.5223  1.1462
  979MOL0     H32103   6.974   7.698   0.660  1.1712 -4.4792 -3.6651
  979MOL0     H32104   7.198   7.674   0.535  1.3268 -1.6982 -0.6989
  979MOL0     H32105   7.242   7.576   0.667  1.3429  1.2569 -1.9240
  979MOL0     H32106   7.004   7.545   0.470  2.0462  2.7314 -0.7934
  979MOL0     H32107   7.136   7.439   0.473  0.4961 -1.1223  1.3126
  979MOL0     H32108   6.969   7.460   0.730 -2.8963 -1.3899 -1.0562
  979MOL0     H32109   6.944   7.344   0.610 -2.0757  2.6631  0.3726
  979MOL0     H32110   7.177   7.264   0.610 -0.1872  1.8230 -1.5748
  979MOL0     H32111   7.205   7.362   0.757 -0.6891  2.1513  0.3880
  979MOL0     H32112   6.996   7.136   0.734  0.6184  3.0800 -1.4530
  979MOL0     H32113   7.157   7.124   0.810  1.6387  0.7196 -1.9983
  979MOL0     H32114   7.081   7.299   0.987 -1.5246  1.0935  0.4206
  979MOL0     H32115   7.026   7.139   1.003  0.7321  1.0071  1.8746
  979MOL0     H32116   6.931   7.489   0.970 -1.0968  0.8256 -1.7462
  979MOL0     H32117   6.670   7.632   0.949  0.0174 -1.1899 -3.3360
  979MOL0     H32118   6.518   7.533   0.969 -0.5204  1.4306 -0.4006
  979MOL0     H32119   6.564   7.665   1.172 -0.1514 -2.1512  2.2119
  979MOL0     H32120   6.730   7.616   1.184  0.6903  0.2054  0.8537
  979MOL0     H32121   6.601   7.493   1.336 -2.4986 -1.0016  0.6674
  979MOL0     H32122   6.670   7.387   1.208  0.7124  0.7578 -0.4010
  979MOL0     H32123   6.456   7.324   1.289 -3.7351  0.7524  0.5670
  979MOL0     H32124   6.431   7.371   1.113 -1.0939  0.3637 -0.6766
  979MOL0     H32125   6.153   7.657   1.339  4.1449 -0.7140  0.8541
  979MOL0     H32126   5.877   7.750   1.150 -2.0482  1.2098  0.9813
  979MOL0     H32127   5.839   7.690   1.318  1.4531 -0.8982  0.3119
  979MOL0     H32128   5.980   7.786   1.294  0.6217 -0.0610 -1.0020
  979MOL0     H32129   5.634   7.765   1.004  2.1620 -0.9609 -0.3358
  979MOL0     H32130   5.443   7.783   0.862  2.9172  0.2106 -0.2563
  979MOL0     H32131   5.190   7.729   0.832 -0.2531  1.7054 -0.7033
  979MOL0     H32132   5.278   7.794   0.704 -2.8450  2.2097 -1.4504
  979MOL0     H32133   5.055   7.580   0.674  2.3376 -2.0595 -1.0809
  979MOL0     H32134   5.053   7.755   0.639 -0.1620 -1.2722 -3.5436
  979MOL0     H32135   5.242   7.566   0.505 -0.2017 -0.2998  0.1886
  979MOL0     H32136   5.194   7.736   0.460 -4.6209  1.1677 -1.5912
  979MOL0     H32137   5.084   7.586   0.299 -0.9970  1.7050  0.7408
  979MOL0     H32138   5.056   7.460   0.423  0.4710 -0.1164  3.0031
  979MOL0     H32139   4.880   7.624   0.505  0.1918 -1.8927 -0.6058
  979MOL0     H32140   4.844   7.590   0.330  2.0171  0.3856 -0.4680
  979MOL0     H32141   4.807   7.808   0.359 -0.2065 -1.4759 -2.9612
  979MOL0     H32142   4.973   7.849   0.428 -0.0113 -0.7558  0.4449
  979MOL0     H32143   4.908   7.747   0.153  0.8183  1.3147 -1.5464
  979MOL0     H32144   5.063   7.767   0.231 -0.3681 -1.6334  1.7323
  979MOL0     H32145   4.966   7.952   0.069 -0.1109 -2.2694 -0.3161
  979MOL0     H32146   5.033   8.006   0.213  0.7216  0.6572 -3.4739
  979MOL0     H32147   5.357   7.367   0.887 -0.2643  0.6054 -0.1500
  979MOL0     H32148   5.557   7.352   1.057  2.6284  0.9375  0.0551
  979MOL0     H32149   6.024   7.285   1.059 -2.5451 -1.0339  3.0091
  979MOL0     H32150   6.234   7.290   1.136  3.5528  2.0684  0.5772
  979MOL0     H32151   7.378   7.927   0.776 -0.8902 -1.5522 -1.4119
  979MOL0     H32152   7.503   8.131   0.805  1.3367 -3.1898 -1.9416
  979MOL0     H32153   7.688   8.497   0.985  1.2220  0.7164 -0.2497
  979MOL0     H32154   7.797   8.711   0.990  0.9342  0.2223 -1.1493
  979MOL0     H32155   7.710   8.961   0.656 -4.8195 -2.7274  1.7447
  979MOL0     H32156   7.637   9.078   0.761  1.5714  2.3836 -2.5043
  979MOL0     H32157   7.932   9.038   0.713 -0.8964  0.8425 -1.0764
  979MOL0     H32158   7.877   9.129   0.849  1.3706 -0.7132  0.0354
  979MOL0     H32159   7.748   9.271   0.698 -1.5116  0.3661 -4.3089
  979MOL0     H32160   7.814   9.208   0.551  4.6426 -1.4058 -0.9887
  979MOL0     H32161   8.050   9.228   0.682  0.5925  1.3190 -2.7779
  979MOL0     H32162   7.968   9.356   0.770 -1.0165  0.2945 -0.8712
  979MOL0     H32163   8.061   9.509   0.388  2.0272 -0.5530  0.0368
  979MOL0     H32164   7.529   8.862   0.703 -0.9275  0.7146  0.5228
  979MOL0     H32165   7.420   8.651   0.681  0.8164  1.1874 -1.6585
  980MOL0     O32166   8.931   7.260   2.989 -0.2082 -0.0650 -0.0634
  980MOL0     C32167   8.960   7.193   2.888 -0.1051 -0.2437  0.1828
  980MOL0     O32168   8.868   7.152   2.786 -0.6586  0.0882  0.4370
  980MOL0     C32169   8.739   7.158   2.815 -0.6786  0.3237 -0.9399
  980MOL0     C32170   8.693   7.101   2.943  0.1586 -0.3684 -0.3461
  980MOL0     C32171   8.561   7.124   2.972 -0.0846  0.7321  0.2706
  980MOL0     C32172   8.466   7.173   2.882 -1.6380  1.5481  0.3744
  980MOL0     O32173   8.340   7.197   2.923  0.4403 -0.2880  0.2234
  980MOL0     C32174   8.239   7.180   2.825  0.5881 -0.2701 -0.2312
  980MOL0     C32175   8.153   7.308   2.804 -0.2330  0.0814 -0.3441
  980MOL0     C32176   7.999   7.274   2.807 -0.0580 -0.1110  1.1616
  980MOL0     C32177   7.919   7.402   2.762 -1.1802  0.6724 -0.7588
  980MOL0     C32178   7.769   7.389   2.751 -0.2805 -0.9511 -0.0692
  980MOL0     C32179   7.701   7.326   2.877 -0.3818 -0.0102 -0.1974
  980MOL0     C32180   7.546   7.357   2.877 -0.3756 -0.6811  1.4414
  980MOL0     C32181   7.479   7.267   2.774 -0.4663  0.6137  0.7854
  980MOL0     N32182   7.489   7.124   2.801 -0.6250  0.3239 -0.9245
  980MOL0     C32183   7.399   7.053   2.882  0.7652  1.3942 -0.2923
  980MOL0     C32184   7.443   6.925   2.854  0.7386  0.3477  0.0472
  980MOL0     C32185   7.388   6.794   2.903  0.0928 -0.4425  0.2724
  980MOL0     C32186   7.232   6.768   2.913  0.1363 -1.0080 -0.2406
  980MOL0     C32187   7.170   6.700   2.790  1.0950 -0.0820 -0.3977
  980MOL0     C32188   7.137   6.802   2.685 -0.2065  1.1438  0.4707
  980MOL0     O32189   7.088   6.738   2.570  0.5251 -0.1953 -0.0054
  980MOL0     C32190   7.164   6.712   2.452  0.5844 -0.1619 -0.4601
  980MOL0     C32191   7.084   6.697   2.337 -0.4932  0.6333  0.2971
  980MOL0     C32192   7.134   6.711   2.210 -0.3519 -0.0959 -1.0064
  980MOL0     C32193   7.044   6.682   2.093 -0.3192  0.1196 -0.3722
  980MOL0     C32194   7.275   6.723   2.192  0.5536  1.2671 -0.0685
  980MOL0     C32195   7.342   6.729   2.051 -0.2487 -0.9627 -0.2993
  980MOL0     O32196   7.271   6.712   1.934 -0.4197  0.0405 -0.3129
  980MOL0     C32197   7.331   6.711   1.813  0.3653  0.1613  0.3854
  980MOL0     C32198   7.371   6.835   1.753  0.0215 -1.3992 -0.7554
  980MOL0     C32199   7.413   6.830   1.617  0.6801 -0.6061 -0.8516
  980MOL0     C32200   7.428   6.710   1.550 -0.8414 -0.2018  0.6025
  980MOL0     O32201   7.487   6.709   1.425  0.1408 -0.2986  0.5762
  980MOL0     C32202   7.484   6.582   1.351 -0.1405  0.8300 -0.4394
  980MOL0     C32203   7.505   6.613   1.200 -0.4898 -0.2271 -0.6275
  980MOL0     C32204   7.523   6.489   1.116  1.3017 -0.8702  0.3650
  980MOL0     C32205   7.405   6.387   1.129 -0.3835 -0.1195  0.3719
  980MOL0     C32206   7.448   6.243   1.077 -0.5399  0.1006 -0.4202
  980MOL0     C32207   7.316   6.167   1.055  0.3331 -0.3157 -0.2737
  980MOL0     C32208   7.252   6.134   1.195 -0.7989 -0.0361  0.6036
  980MOL0     C32209   7.096   6.155   1.211  0.2796 -0.7257 -0.2264
  980MOL0    Cl32210   7.003   6.098   1.071  0.0434  0.1252 -0.1006
  980MOL0     C32211   7.401   6.592   1.620 -0.3368  0.7620  0.7221
  980MOL0     C32212   7.354   6.584   1.749  0.2504  0.3551 -0.0819
  980MOL0     O32213   7.460   6.768   2.050  0.0666 -0.1296  0.4968
  980MOL0     C32214   7.362   6.727   2.309 -0.0759 -0.1229  0.0964
  980MOL0     C32215   7.303   6.723   2.438 -0.5081  0.4606  0.7655
  980MOL0     N32216   7.552   6.920   2.770  0.6466 -0.3619  0.0184
  980MOL0     N32217   7.582   7.044   2.747 -0.0311  0.0394 -0.0179
  980MOL0     C32218   8.507   7.214   2.755 -0.6810  0.7312  0.8253
  980MOL0     C32219   8.643   7.210   2.725 -0.7855  0.1020 -0.8147
  980MOL0     C32220   9.089   7.134   2.873  0.3672  0.4291  1.3193
  980MOL0     C32221   9.165   7.090   2.985  0.1057  0.0462  0.2266
  980MOL0     C32222   9.288   7.025   2.969 -0.9996  0.5144  0.1804
  980MOL0     C32223   9.335   6.999   2.839  0.4234 -0.4273  0.0677
  980MOL0     O32224   9.448   6.926   2.830 -0.5913  0.8593 -0.0874
  980MOL0     C32225   9.526   6.958   2.716 -0.6762  0.8459  0.2828
  980MOL0     C32226   9.557   7.116   2.707 -0.1331  0.5542  0.0498
  980MOL0     C32227   9.630   7.162   2.581 -0.1415  0.6824 -0.1334
  980MOL0     C32228   9.700   7.288   2.604 -0.0722 -0.4609 -0.3376
  980MOL0     C32229   9.754   7.341   2.475  0.5676 -0.6805 -0.4706
  980MOL0     C32230   9.801   7.382   2.374  0.7098  0.7880  0.2928
  980MOL0     C32231   9.257   7.034   2.729 -0.0232  0.2379 -0.3720
  980MOL0     C32232   9.140   7.100   2.743 -0.3973 -0.4170  1.3040
  980MOL0     H32233   8.757   7.069   3.024  1.1384  0.2385 -0.8612
  980MOL0     H32234   8.521   7.099   3.069 -0.5797  0.3140 -0.0364
  980MOL0     H32235   8.271   7.140   2.728 -0.8812  0.8879 -1.2307
  980MOL0     H32236   8.180   7.098   2.867  1.1267  0.9541  3.2318
  980MOL0     H32237   8.172   7.375   2.888 -2.9527  1.7269 -0.9176
  980MOL0     H32238   8.182   7.364   2.716  1.4423  1.5223  1.0438
  980MOL0     H32239   7.972   7.195   2.736  4.0485  0.4978 -1.4004
  980MOL0     H32240   7.969   7.239   2.906 -0.5154 -0.3284  0.9498
  980MOL0     H32241   7.943   7.464   2.848  1.1974 -2.5915  1.1286
  980MOL0     H32242   7.970   7.455   2.681  1.1281  0.3076  0.3822
  980MOL0     H32243   7.733   7.492   2.743  2.9263  0.1571 -2.8766
  980MOL0     H32244   7.748   7.331   2.661  3.5559 -1.2409 -0.9650
  980MOL0     H32245   7.707   7.217   2.877  1.0101  0.0345  1.3231
  980MOL0     H32246   7.756   7.367   2.962  2.8436 -2.7375 -0.7573
  980MOL0     H32247   7.510   7.352   2.981  3.1030  4.6821  3.3367
  980MOL0     H32248   7.527   7.463   2.854 -1.5876 -0.7971  1.8240
  980MOL0     H32249   7.511   7.282   2.670 -0.1864  2.0887  1.0625
  980MOL0     H32250   7.374   7.296   2.773 -0.4846  0.6035  1.7414
  980MOL0     H32251   7.315   7.080   2.944 -1.6957 -0.8413 -2.4164
  980MOL0     H32252   7.438   6.715   2.845  2.3132  0.5667  0.6753
  980MOL0     H32253   7.419   6.790   3.008  0.6322 -0.1802  0.1285
  980MOL0     H32254   7.168   6.853   2.940 -0.6551 -1.2936 -1.1579
  980MOL0     H32255   7.229   6.688   2.988  2.5781 -1.3745 -0.4531
  980MOL0     H32256   7.078   6.647   2.815 -0.5260  1.1736 -3.1266
  980MOL0     H32257   7.247   6.631   2.755 -1.0169 -1.8032 -1.9127
  980MOL0     H32258   7.216   6.877   2.671  0.3029  0.1752 -2.3019
  980MOL0     H32259   7.054   6.865   2.721 -0.6102 -0.1581  1.9329
  980MOL0     H32260   6.978   6.704   2.359 -0.5719  2.2556 -0.4645
  980MOL0     H32261   7.050   6.766   2.023  3.5170  0.4698  0.1621
  980MOL0     H32262   7.081   6.592   2.044  0.2721  1.8741 -3.4305
  980MOL0     H32263   6.940   6.670   2.122 -0.0404 -0.1627  0.5270
  980MOL0     H32264   7.352   6.927   1.806 -0.5109 -1.2059 -1.2668
  980MOL0     H32265   7.435   6.924   1.566  0.5234  0.9721  1.7976
  980MOL0     H32266   7.567   6.514   1.376  0.8596  0.4428 -4.1747
  980MOL0     H32267   7.391   6.529   1.374  0.4413 -0.2194 -0.4203
  980MOL0     H32268   7.410   6.660   1.174 -0.7666 -0.3220  0.1850
  980MOL0     H32269   7.588   6.683   1.190  0.7344 -0.9956  2.6024
  980MOL0     H32270   7.608   6.440   1.164  0.0427 -2.0952  1.4238
  980MOL0     H32271   7.550   6.518   1.014  1.7903 -0.3559  0.6339
  980MOL0     H32272   7.377   6.383   1.234  1.0586 -1.2834  0.7514
  980MOL0     H32273   7.330   6.418   1.056 -0.9903  1.1885  1.5115
  980MOL0     H32274   7.518   6.193   1.145 -0.0613 -0.6092 -1.4137
  980MOL0     H32275   7.503   6.251   0.983 -1.2788 -3.9887 -1.3846
  980MOL0     H32276   7.246   6.234   1.005  0.2911  0.2674  0.5393
  980MOL0     H32277   7.328   6.074   0.998  2.3591 -2.8874  3.7612
  980MOL0     H32278   7.294   6.189   1.279  2.2055 -0.0252 -0.7926
  980MOL0     H32279   7.284   6.032   1.220 -1.9104 -0.8779 -1.1740
  980MOL0     H32280   7.075   6.262   1.214 -2.0049 -1.1450  1.0414
  980MOL0     H32281   7.057   6.108   1.302 -1.0391  0.1616 -0.3166
  980MOL0     H32282   7.428   6.499   1.570  0.4480  1.8598 -1.0115
  980MOL0     H32283   7.328   6.490   1.798  3.0509 -0.8490 -0.7088
  980MOL0     H32284   7.468   6.742   2.292 -0.0873 -0.7963 -0.6254
  980MOL0     H32285   7.364   6.737   2.527  1.7759 -2.3623 -0.2190
  980MOL0     H32286   8.438   7.267   2.690 -0.7504 -0.3717 -0.0152
  980MOL0     H32287   8.692   7.258   2.641  1.5735  0.7324  0.7834
  980MOL0     H32288   9.129   7.110   3.086 -0.2716  0.7739 -0.0426
  980MOL0     H32289   9.338   6.983   3.056 -2.1246  0.4321  0.7987
  980MOL0     H32290   9.620   6.903   2.720 -1.9682 -1.5584 -0.5503
  980MOL0     H32291   9.482   6.936   2.618  0.6930  0.7037 -0.3221
  980MOL0     H32292   9.624   7.146   2.788  0.2725  2.0041 -0.7774
  980MOL0     H32293   9.466   7.174   2.729 -1.7415 -2.5975  2.4022
  980MOL0     H32294   9.553   7.177   2.505 -4.5215  0.4689  3.8242
  980MOL0     H32295   9.694   7.078   2.551 -0.9481 -0.6743  1.7692
  980MOL0     H32296   9.766   7.287   2.692 -0.2288  1.4584 -0.1519
  980MOL0     H32297   9.622   7.360   2.630 -0.5509 -0.9852 -0.3104
  980MOL0     H32298   9.845   7.407   2.279  0.5905  1.0865  0.3167
  980MOL0     H32299   9.286   7.016   2.626  1.7220 -0.0110  0.1231
  980MOL0     H32300   9.071   7.111   2.660  0.0371  2.1052  1.1819
  981MOL0     O32301   4.307   8.157   3.807 -0.1314  0.3556 -0.0483
  981MOL0     C32302   4.413   8.217   3.788 -0.0636  0.1954  0.0704
  981MOL0     O32303   4.423   8.347   3.807  0.1259  0.2951  0.7161
  981MOL0     C32304   4.309   8.416   3.830  0.9917  0.7720 -1.5100
  981MOL0     C32305   4.276   8.459   3.966 -0.5538 -0.1157  0.3476
  981MOL0     C32306   4.166   8.537   3.996  0.5046 -0.0569  0.5931
  981MOL0     C32307   4.090   8.594   3.890  0.2102  0.6399 -0.1636
  981MOL0     O32308   3.998   8.694   3.914  0.4465 -0.5265 -0.1524
  981MOL0     C32309   3.885   8.697   3.821  0.1060 -0.1034 -0.5360
  981MOL0     C32310   3.770   8.755   3.910 -0.3852  0.2455  1.3613
  981MOL0     C32311   3.657   8.821   3.821 -0.2638  0.5438  1.0324
  981MOL0     C32312   3.541   8.879   3.914 -0.6760 -0.2735  0.3781
  981MOL0     C32313   3.414   8.911   3.844 -0.3096 -0.2080  0.7322
  981MOL0     C32314   3.311   8.987   3.937  0.2843 -0.0038 -0.4820
  981MOL0     C32315   3.258   8.899   4.052 -0.9386  0.4660 -0.1272
  981MOL0     C32316   3.152   8.963   4.132  0.4580  0.3663  1.0735
  981MOL0     N32317   3.026   8.976   4.063  0.4533  0.5537 -0.2736
  981MOL0     C32318   2.915   8.895   4.070 -0.5139 -0.1763 -0.0033
  981MOL0     C32319   2.820   8.957   3.997  0.5539  0.0789  0.5008
  981MOL0     C32320   2.670   8.923   3.999 -0.4270  0.2320  0.5001
  981MOL0     C32321   2.607   8.934   3.858 -0.5204 -0.1925 -1.2560
  981MOL0     C32322   2.492   9.039   3.840  0.1141 -0.3178  0.1703
  981MOL0     C32323   2.382   9.009   3.951  0.7514  0.4248 -0.4432
  981MOL0     O32324   2.317   8.876   3.939 -0.2145  0.7035  0.3146
  981MOL0     C32325   2.215   8.875   3.844  0.0160  0.9480 -0.8828
  981MOL0     C32326   2.116   8.971   3.823 -0.8421 -0.6064  0.0565
  981MOL0     C32327   2.027   8.978   3.717  0.0456  0.9142 -0.2879
  981MOL0     C32328   1.920   9.083   3.718  0.3907 -0.3360 -0.1922
  981MOL0     C32329   2.030   8.872   3.628 -0.1150  0.2999 -0.7914
  981MOL0     C32330   1.924   8.847   3.522 -0.5595 -0.0203 -0.7948
  981MOL0     O32331   1.906   8.718   3.476  0.0084  0.0077 -0.2081
  981MOL0     C32332   1.785   8.676   3.427  0.4996 -0.4198 -0.2777
  981MOL0     C32333   1.766   8.659   3.292 -0.1858  1.7478  0.0441
  981MOL0     C32334   1.644   8.625   3.235  0.3136  0.1883  0.7351
  981MOL0     C32335   1.537   8.595   3.328  0.2724  0.3039  0.9320
  981MOL0     O32336   1.416   8.549   3.288  0.2063  0.5784 -0.2077
  981MOL0     C32337   1.408   8.456   3.185 -0.1741  0.7515 -0.2167
  981MOL0     C32338   1.443   8.314   3.229 -0.0992  0.1041  0.0050
  981MOL0     C32339   1.348   8.251   3.332  0.0623  0.1639 -0.1735
  981MOL0     C32340   1.198   8.267   3.304 -0.2760  0.4216 -0.7775
  981MOL0     C32341   1.086   8.196   3.390  0.0708  0.3434 -0.6998
  981MOL0     C32342   1.091   8.227   3.542  0.2996  0.4595 -0.2958
  981MOL0     C32343   1.070   8.377   3.577  0.7468 -0.3669 -0.7426
  981MOL0     C32344   0.932   8.421   3.538 -0.0257 -0.1939 -0.7409
  981MOL0    Cl32345   0.926   8.594   3.583  0.1279  0.1336 -0.1199
  981MOL0     C32346   1.549   8.610   3.465 -0.7121 -0.4469 -0.2650
  981MOL0     C32347   1.670   8.658   3.515  0.6178 -0.0354 -0.5571
  981MOL0     O32348   1.862   8.947   3.490  0.0916 -0.3282  0.7106
  981MOL0     C32349   2.110   8.755   3.657 -0.2929 -0.9079  0.0192
  981MOL0     C32350   2.210   8.764   3.755  0.8290  1.0006 -0.2762
  981MOL0     N32351   2.870   9.083   3.969  0.5040 -0.2639 -0.2134
  981MOL0     N32352   2.996   9.089   4.008 -0.2883 -1.3606 -0.2910
  981MOL0     C32353   4.113   8.548   3.758  0.5648 -0.1306 -0.6228
  981MOL0     C32354   4.214   8.452   3.729  0.0700 -1.0105  0.2172
  981MOL0     C32355   4.535   8.150   3.760  0.2325  0.7002 -0.3983
  981MOL0     C32356   4.661   8.211   3.766  0.4543 -0.8143 -0.7161
  981MOL0     C32357   4.783   8.153   3.747  0.2601 -0.0956  0.0392
  981MOL0     C32358   4.780   8.013   3.720  0.0610  0.4818  0.1842
  981MOL0     O32359   4.887   7.935   3.703  0.0059  0.5659 -0.4960
  981MOL0     C32360   5.020   7.994   3.716  0.7420  0.3817 -0.0806
  981MOL0     C32361   5.133   7.896   3.702 -0.0198 -0.7575 -0.5192
  981MOL0     C32362   5.133   7.840   3.560 -0.2886  0.7507 -1.0579
  981MOL0     C32363   5.225   7.713   3.552  0.5417  0.1262  0.2042
  981MOL0     C32364   5.228   7.666   3.415 -0.2681 -0.0758  0.3147
  981MOL0     C32365   5.247   7.623   3.298 -0.4453 -0.0282  0.4350
  981MOL0     C32366   4.652   7.958   3.690 -0.4404 -0.8267 -0.0288
  981MOL0     C32367   4.531   8.019   3.717  0.1798 -0.4650  0.0240
  981MOL0     H32368   4.358   8.443   4.035 -0.9607  2.2906  1.4620
  981MOL0     H32369   4.155   8.572   4.098  1.9840 -1.1821  1.1766
  981MOL0     H32370   3.901   8.765   3.736 -1.7868 -0.6720 -1.3958
  981MOL0     H32371   3.854   8.598   3.785  1.4212 -1.5802  2.1441
  981MOL0     H32372   3.723   8.671   3.964  1.2754 -1.1401  0.7347
  981MOL0     H32373   3.810   8.822   3.987 -1.4834  0.7130  1.5518
  981MOL0     H32374   3.704   8.897   3.758  3.2060 -1.1736  1.2896
  981MOL0     H32375   3.620   8.742   3.755  0.1487 -1.0366  2.6351
  981MOL0     H32376   3.522   8.801   3.989  0.4551 -1.1613 -0.2300
  981MOL0     H32377   3.579   8.970   3.962 -1.9575  0.2413  0.4534
  981MOL0     H32378   3.421   8.981   3.760 -1.4307  0.8724  1.4884
  981MOL0     H32379   3.360   8.821   3.816 -0.5007  0.9780 -3.2273
  981MOL0     H32380   3.353   9.079   3.978  0.7944  0.7228 -2.5248
  981MOL0     H32381   3.229   9.017   3.872 -0.3467  0.2558  0.4040
  981MOL0     H32382   3.220   8.802   4.018  1.1059 -1.0513  1.6277
  981MOL0     H32383   3.339   8.872   4.121  0.2607  2.3304 -0.7264
  981MOL0     H32384   3.183   9.062   4.166 -3.7556  0.7342  4.6717
  981MOL0     H32385   3.130   8.903   4.220 -3.9893 -1.0879 -0.7337
  981MOL0     H32386   2.906   8.804   4.128 -0.4639  0.7181  1.4305
  981MOL0     H32387   2.654   8.830   4.054  1.3090  0.3272  1.2283
  981MOL0     H32388   2.618   8.998   4.058 -2.0706 -2.1812  2.3050
  981MOL0     H32389   2.585   8.839   3.809 -1.2316 -0.9245  0.4108
  981MOL0     H32390   2.687   8.974   3.795 -1.1842  0.6115 -1.6119
  981MOL0     H32391   2.433   9.038   3.748 -1.6854  3.0881  1.0978
  981MOL0     H32392   2.528   9.142   3.852 -0.0692 -0.4175  1.8208
  981MOL0     H32393   2.310   9.091   3.946 -0.6419 -0.5990  1.4857
  981MOL0     H32394   2.421   9.031   4.051  1.4493 -2.4712  0.0244
  981MOL0     H32395   2.123   9.056   3.889  0.1718 -0.1363 -0.6279
  981MOL0     H32396   1.928   9.149   3.805  0.8172  2.0844 -1.9601
  981MOL0     H32397   1.934   9.154   3.636  3.3192  0.2870  0.7021
  981MOL0     H32398   1.821   9.037   3.719 -0.3043  0.6701  4.8165
  981MOL0     H32399   1.854   8.662   3.228 -0.9009  1.2079 -0.9777
  981MOL0     H32400   1.633   8.626   3.127  0.6762  0.0967  0.6959
  981MOL0     H32401   1.309   8.451   3.138 -1.9949  1.6202  3.1733
  981MOL0     H32402   1.481   8.487   3.110  1.2590  1.7693  1.5265
  981MOL0     H32403   1.441   8.251   3.140  1.9088 -2.4069  1.5680
  981MOL0     H32404   1.545   8.301   3.269  0.5531  0.3256 -1.5206
  981MOL0     H32405   1.374   8.277   3.435  1.9328  0.5296 -0.7088
  981MOL0     H32406   1.360   8.142   3.327 -2.6919 -0.2896  1.1528
  981MOL0     H32407   1.177   8.373   3.322  3.0441  0.9290  0.8960
  981MOL0     H32408   1.193   8.242   3.198  1.7435 -1.9952 -0.4152
  981MOL0     H32409   1.098   8.087   3.392  2.5385  0.4596  3.7670
  981MOL0     H32410   0.986   8.205   3.345 -1.1069 -1.7689  1.2673
  981MOL0     H32411   1.014   8.178   3.603  1.3786  2.1643  2.6820
  981MOL0     H32412   1.184   8.184   3.582 -1.3692 -2.3137  0.9278
  981MOL0     H32413   1.150   8.432   3.526 -1.6323  2.1265 -1.9639
  981MOL0     H32414   1.085   8.390   3.684  0.7806 -2.2554 -0.4762
  981MOL0     H32415   0.854   8.391   3.609  2.1216  2.3273  3.0801
  981MOL0     H32416   0.912   8.396   3.434 -0.2232 -1.6269 -0.3855
  981MOL0     H32417   1.465   8.602   3.532 -0.7209  1.8779  0.0979
  981MOL0     H32418   1.681   8.667   3.622  2.2792 -0.2494 -0.6789
  981MOL0     H32419   2.106   8.673   3.586 -0.3953 -0.2147 -0.7918
  981MOL0     H32420   2.278   8.680   3.763  1.0547  1.3366  1.8470
  981MOL0     H32421   4.054   8.580   3.673  1.3602 -3.9683 -2.8590
  981MOL0     H32422   4.229   8.408   3.631 -0.6861 -0.1628 -0.2948
  981MOL0     H32423   4.674   8.314   3.799  3.6922 -1.1915 -0.4631
  981MOL0     H32424   4.872   8.208   3.776  0.3854 -1.1161  1.7410
  981MOL0     H32425   5.024   8.074   3.641  0.0011 -0.2051 -0.7590
  981MOL0     H32426   5.036   8.038   3.815  0.7679 -1.9515  1.0195
  981MOL0     H32427   5.116   7.815   3.772 -0.0576 -0.1083  0.2379
  981MOL0     H32428   5.228   7.941   3.734 -0.9433 -1.1817  3.2368
  981MOL0     H32429   5.160   7.919   3.489  1.0897  0.5744 -0.7511
  981MOL0     H32430   5.031   7.802   3.549  0.5266 -1.4504 -1.4103
  981MOL0     H32431   5.181   7.629   3.605  0.8007  0.9204  1.7381
  981MOL0     H32432   5.328   7.724   3.586  1.7922 -3.5018 -1.8579
  981MOL0     H32433   5.260   7.606   3.193 -3.5919  0.6845 -0.1557
  981MOL0     H32434   4.640   7.864   3.637  1.1634 -1.4815  0.6974
  981MOL0     H32435   4.435   7.968   3.715  0.4076 -0.9056  0.0904
  982MOL0     O32436   4.226   3.095   9.605 -0.3014  0.7400 -0.2587
  982MOL0     C32437   4.328   3.102   9.533  0.0579  0.0063 -0.4743
  982MOL0     O32438   4.326   3.094   9.395 -0.0560  0.5434  0.4074
  982MOL0     C32439   4.209   3.092   9.329 -0.1039  0.2921 -0.3329
  982MOL0     C32440   4.176   3.215   9.272  0.1168  0.2241  1.2695
  982MOL0     C32441   4.050   3.225   9.214 -0.2921 -0.3298  0.4682
  982MOL0     C32442   3.961   3.113   9.208 -1.1245  0.2248  0.6904
  982MOL0     O32443   3.838   3.117   9.157 -0.0767  0.2165  0.7011
  982MOL0     C32444   3.804   3.217   9.067 -0.5414 -0.1941  0.7842
  982MOL0     C32445   3.683   3.188   8.997  0.2336 -0.1139 -0.0696
  982MOL0     C32446   3.551   3.180   9.087  0.2538  0.3305  0.2457
  982MOL0     C32447   3.418   3.161   9.018 -0.5896  1.2707  0.1401
  982MOL0     C32448   3.319   3.181   9.123  0.9263 -0.1539 -0.2881
  982MOL0     C32449   3.189   3.124   9.079 -0.5063  0.3689 -0.1204
  982MOL0     C32450   3.065   3.106   9.175 -0.7184  0.2440 -0.2676
  982MOL0     C32451   2.997   3.233   9.206  0.6079 -0.7613  0.7206
  982MOL0     N32452   2.879   3.216   9.293  0.0162 -0.3212  0.2801
  982MOL0     C32453   2.864   3.262   9.430  0.2792 -0.2940  0.0815
  982MOL0     C32454   2.732   3.236   9.460 -0.4726 -0.5265 -0.0181
  982MOL0     C32455   2.665   3.293   9.576  0.1183 -0.9021  0.5184
  982MOL0     C32456   2.546   3.208   9.620 -0.5237 -0.3018  1.1746
  982MOL0     C32457   2.409   3.270   9.609  1.4334 -0.1621  0.3078
  982MOL0     C32458   2.363   3.354   9.734 -0.1673  0.3325 -0.0065
  982MOL0     O32459   2.463   3.448   9.738  0.2438  0.3199 -0.4810
  982MOL0     C32460   2.458   3.541   9.838  0.5650  0.1940  0.7457
  982MOL0     C32461   2.532   3.655   9.798  0.8905  0.7050  0.3241
  982MOL0     C32462   2.535   3.766   9.868  1.1594 -1.1229 -0.2660
  982MOL0     C32463   2.626   3.869   9.814  0.0758  0.1650 -0.4873
  982MOL0     C32464   2.475   3.769   9.993 -0.9337  0.8804 -0.2682
  982MOL0     C32465   2.493   3.879  10.090  0.4619 -0.0462 -0.2560
  982MOL0     O32466   2.618   3.909  10.115 -0.0447 -0.0666  0.0120
  982MOL0     C32467   2.652   4.021  10.192  0.2978 -0.6506 -0.4445
  982MOL0     C32468   2.566   4.093  10.287 -0.0895 -0.6067  0.3988
  982MOL0     C32469   2.620   4.202  10.356 -0.3621 -0.0371 -0.2452
  982MOL0     C32470   2.750   4.248  10.335  0.1360 -1.0329 -0.7379
  982MOL0     O32471   2.798   4.339  10.421  0.3639 -0.7776  0.7945
  982MOL0     C32472   2.711   4.459  10.435  0.3299 -0.1549 -0.0432
  982MOL0     C32473   2.792   4.598  10.443  0.9947  0.2028  0.3554
  982MOL0     C32474   2.866   4.603  10.572  0.1363 -0.1754  0.7444
  982MOL0     C32475   3.011   4.668  10.547  0.5061 -1.2472  0.5013
  982MOL0     C32476   3.097   4.675  10.674  0.4582 -0.0493  0.0321
  982MOL0     C32477   3.240   4.654  10.632 -0.9552 -0.4264  0.1349
  982MOL0     C32478   3.348   4.708  10.728 -0.6266  0.0445  0.2294
  982MOL0     C32479   3.384   4.590  10.828  0.2916  0.4141  0.7696
  982MOL0    Cl32480   3.496   4.481  10.757 -0.2164  0.0495 -0.1092
  982MOL0     C32481   2.826   4.185  10.245 -0.3738  0.4002  0.3018
  982MOL0     C32482   2.779   4.073  10.172  0.7288  0.2619 -0.5069
  982MOL0     O32483   2.396   3.933  10.131  0.8565  0.0122  0.3406
  982MOL0     C32484   2.384   3.662  10.028 -0.3148  0.7800  0.1477
  982MOL0     C32485   2.372   3.541   9.951  0.2423  0.0250  0.5734
  982MOL0     N32486   2.673   3.175   9.350 -0.3781 -0.0654  0.0884
  982MOL0     N32487   2.759   3.152   9.253 -0.3873  0.0337 -0.2545
  982MOL0     C32488   3.996   2.993   9.267 -0.4092  0.1854 -1.1900
  982MOL0     C32489   4.116   2.987   9.340 -0.4372  0.3908 -0.4502
  982MOL0     C32490   4.456   3.103   9.601 -0.5455 -0.8285  0.0418
  982MOL0     C32491   4.566   3.087   9.523  0.1230  0.0357  0.5473
  982MOL0     C32492   4.695   3.085   9.574  0.4083 -0.2440  0.6480
  982MOL0     C32493   4.718   3.098   9.709 -0.7005 -0.1283 -0.4615
  982MOL0     O32494   4.847   3.081   9.753  0.2504 -0.3303  0.6450
  982MOL0     C32495   4.869   3.042   9.889  0.6920  0.5468 -0.5153
  982MOL0     C32496   5.023   3.009   9.904  0.3299  0.2799  0.5925
  982MOL0     C32497   5.040   2.985  10.053  0.0117 -0.0711  0.1439
  982MOL0     C32498   5.143   2.871  10.087 -0.2908 -0.1527 -0.2858
  982MOL0     C32499   5.187   2.877  10.231 -1.3254  0.0598  0.8163
  982MOL0     C32500   5.236   2.890  10.341 -0.6306 -0.5688 -0.4957
  982MOL0     C32501   4.594   3.104   9.789 -0.2477 -0.0142 -0.4703
  982MOL0     C32502   4.469   3.120   9.743  0.2363  0.0180  0.3478
  982MOL0     H32503   4.244   3.298   9.291  0.4148  0.6963 -1.4345
  982MOL0     H32504   4.010   3.320   9.181 -1.9237 -1.1337  0.0227
  982MOL0     H32505   3.785   3.312   9.117  0.1425  1.1600 -1.3706
  982MOL0     H32506   3.900   3.240   9.019  0.2866 -0.2975  2.3220
  982MOL0     H32507   3.663   3.274   8.933  1.5555 -1.1852 -2.0483
  982MOL0     H32508   3.694   3.106   8.926  1.2901  1.3544 -1.6826
  982MOL0     H32509   3.561   3.096   9.156 -2.1856 -0.3352 -0.1143
  982MOL0     H32510   3.551   3.268   9.151 -0.4662  0.4100  0.1510
  982MOL0     H32511   3.407   3.246   8.951  1.6785  2.5477  1.2840
  982MOL0     H32512   3.398   3.068   8.964  0.3235  1.6026 -0.8098
  982MOL0     H32513   3.336   3.136   9.221 -0.1077 -1.5661 -0.7319
  982MOL0     H32514   3.293   3.285   9.147  0.0544 -0.6820  1.1707
  982MOL0     H32515   3.166   3.183   8.989  3.8427  2.4448 -0.1074
  982MOL0     H32516   3.207   3.020   9.050 -1.8826 -0.3259  1.3799
  982MOL0     H32517   3.000   3.050   9.107  0.2138  0.9766 -1.8123
  982MOL0     H32518   3.085   3.041   9.261 -0.6434  1.0216  0.3098
  982MOL0     H32519   2.959   3.275   9.113  1.8185  0.7845  0.8827
  982MOL0     H32520   3.064   3.313   9.239 -2.2282  1.2207  2.2313
  982MOL0     H32521   2.931   3.329   9.483 -1.3501 -0.1198  2.0502
  982MOL0     H32522   2.734   3.279   9.660 -1.2428 -0.8207  1.6869
  982MOL0     H32523   2.630   3.396   9.566 -5.3406 -2.5143 -0.2845
  982MOL0     H32524   2.564   3.185   9.726 -1.3712 -1.8118  1.0252
  982MOL0     H32525   2.543   3.120   9.556  1.7428  0.6592 -0.3722
  982MOL0     H32526   2.346   3.181   9.606  1.8457 -0.4780  0.8494
  982MOL0     H32527   2.389   3.316   9.512 -2.2661  0.6283  1.2962
  982MOL0     H32528   2.375   3.287   9.820  0.7702 -2.6191 -2.2901
  982MOL0     H32529   2.262   3.395   9.722  0.0732  0.7750 -0.5178
  982MOL0     H32530   2.592   3.649   9.708  0.4104  1.3307 -0.0492
  982MOL0     H32531   2.595   3.892   9.712 -0.4611  0.1314 -0.3306
  982MOL0     H32532   2.621   3.958   9.876 -0.2223 -0.3747  0.2798
  982MOL0     H32533   2.731   3.836   9.820  0.1634  0.5308  0.0535
  982MOL0     H32534   2.467   4.056  10.311 -0.2162 -2.3534 -2.3945
  982MOL0     H32535   2.547   4.245  10.424 -0.8386  1.0372 -1.4010
  982MOL0     H32536   2.634   4.465  10.357 -0.4047 -3.0138  0.3449
  982MOL0     H32537   2.659   4.446  10.531  0.8966 -0.7614  0.1845
  982MOL0     H32538   2.855   4.609  10.354 -2.9707  0.4907 -2.6875
  982MOL0     H32539   2.724   4.682  10.431  1.0848  0.0775 -1.2750
  982MOL0     H32540   2.880   4.500  10.605  2.8334 -1.8374 -4.4574
  982MOL0     H32541   2.802   4.672  10.628 -1.9344 -1.4631  0.0460
  982MOL0     H32542   3.061   4.611  10.468  3.3557  1.8098 -0.1442
  982MOL0     H32543   2.999   4.769  10.507  0.3083 -0.6939  1.9111
  982MOL0     H32544   3.066   4.599  10.746 -4.5022  0.8350 -0.8177
  982MOL0     H32545   3.088   4.776  10.715 -2.4780  0.4489 -1.5448
  982MOL0     H32546   3.259   4.549  10.607  2.0726  1.0095 -5.1550
  982MOL0     H32547   3.256   4.703  10.536  0.1697  0.9083  0.9754
  982MOL0     H32548   3.307   4.796  10.779 -2.0392 -0.7460  0.5272
  982MOL0     H32549   3.439   4.726  10.671 -1.0611  0.3524 -0.3733
  982MOL0     H32550   3.297   4.535  10.864  1.8676 -0.7363  3.0599
  982MOL0     H32551   3.429   4.642  10.913 -1.4705  2.5109  0.5045
  982MOL0     H32552   2.928   4.212  10.223  1.1471 -2.6752  2.7942
  982MOL0     H32553   2.839   4.013  10.104  2.1838  0.4936  0.5034
  982MOL0     H32554   2.336   3.653  10.125  3.3978 -0.5392  2.0754
  982MOL0     H32555   2.300   3.462   9.972 -0.6348  1.3834  3.1161
  982MOL0     H32556   3.936   2.903   9.260 -0.1622  0.1262 -3.1110
  982MOL0     H32557   4.141   2.893   9.388  0.3252  0.3823 -0.8542
  982MOL0     H32558   4.551   3.057   9.420  0.3342 -1.9105  1.0560
  982MOL0     H32559   4.772   3.078   9.498  0.0140 -1.7412  0.3604
  982MOL0     H32560   4.829   3.115   9.960 -1.4373 -2.0886  1.1968
  982MOL0     H32561   4.814   2.950   9.907  3.0570 -0.4142  2.6557
  982MOL0     H32562   5.093   3.087   9.874  0.3667 -0.2387 -0.7310
  982MOL0     H32563   5.049   2.917   9.851  3.7066  1.2130  0.4062
  982MOL0     H32564   4.950   2.966  10.111  0.9004 -1.4922  1.1179
  982MOL0     H32565   5.077   3.085  10.080 -4.8160  2.3597 -1.1302
  982MOL0     H32566   5.235   2.900  10.034  0.4333  0.3707  1.1968
  982MOL0     H32567   5.114   2.772  10.052 -0.8980  0.5449 -1.8576
  982MOL0     H32568   5.282   2.906  10.437  0.0688 -0.5741 -0.8246
  982MOL0     H32569   4.602   3.104   9.897  1.6650  2.1780 -0.5136
  982MOL0     H32570   4.383   3.146   9.805  1.6587  1.9210  1.6394
  983MOL0     O32571  10.417   9.056   4.188  0.3512 -0.4204  0.3157
  983MOL0     C32572  10.432   9.131   4.093  1.5630 -0.0588  0.4592
  983MOL0     O32573  10.473   9.101   3.966 -0.2936 -0.9157 -0.8873
  983MOL0     C32574  10.539   8.982   3.942  0.7766  0.3688  1.0030
  983MOL0     C32575  10.472   8.856   3.926  0.4871 -0.8933 -0.3114
  983MOL0     C32576  10.555   8.745   3.917 -0.2893  0.6602  0.4941
  983MOL0     C32577  10.695   8.755   3.921  0.0761  0.6378  0.3305
  983MOL0     O32578  10.759   8.640   3.898 -0.5858  0.0675  0.3134
  983MOL0     C32579  10.735   8.582   3.770  0.6759  0.2580 -0.5603
  983MOL0     C32580  10.860   8.506   3.720 -0.8325  0.7380  1.1273
  983MOL0     C32581  10.984   8.601   3.707 -0.0809  0.0462  0.0115
  983MOL0     C32582  11.114   8.540   3.651  0.4967  0.3627 -0.1813
  983MOL0     C32583  11.202   8.636   3.569 -1.1457 -0.3586 -0.8031
  983MOL0     C32584  11.147   8.664   3.426 -0.0375 -0.4400 -0.7571
  983MOL0     C32585  11.265   8.711   3.334  0.3547  0.5851 -0.1898
  983MOL0     C32586  11.218   8.707   3.192 -0.2557  0.9733 -0.4720
  983MOL0     N32587  11.207   8.573   3.136 -0.2318  0.9193  0.7915
  983MOL0     C32588  11.310   8.512   3.065  0.1684  1.1988  0.2031
  983MOL0     C32589  11.256   8.393   3.023  0.1266  0.0695  0.0204
  983MOL0     C32590  11.335   8.280   2.961 -0.0192 -0.6379 -0.9935
  983MOL0     C32591  11.255   8.155   2.971  0.2998 -0.0750 -0.7580
  983MOL0     C32592  11.309   8.025   2.904 -1.1849 -0.3134  0.0191
  983MOL0     C32593  11.431   7.973   2.993 -0.3661 -0.2433 -0.0117
  983MOL0     O32594  11.468   7.834   2.960  0.6524 -1.6431  1.0334
  983MOL0     C32595  11.555   7.761   3.037  0.7824 -0.7885  0.5484
  983MOL0     C32596  11.664   7.816   3.103  0.9536 -0.6034 -0.2230
  983MOL0     C32597  11.756   7.750   3.178 -0.3492  0.2992 -0.0316
  983MOL0     C32598  11.860   7.825   3.263  0.0393  0.1245  0.2200
  983MOL0     C32599  11.735   7.605   3.191  0.5613 -0.1886 -0.3570
  983MOL0     C32600  11.822   7.517   3.265 -0.3509  0.2714 -0.0266
  983MOL0     O32601  11.772   7.405   3.323 -0.1615 -0.2848  0.2645
  983MOL0     C32602  11.850   7.315   3.401  0.0317  0.3736 -0.0149
  983MOL0     C32603  11.777   7.217   3.455 -0.7326 -0.6077  0.0592
  983MOL0     C32604  11.841   7.123   3.543  0.3281  0.3101 -0.3568
  983MOL0     C32605  11.980   7.122   3.566  0.0906  1.0691  0.2295
  983MOL0     O32606  12.048   7.023   3.633  0.6388  0.2032  0.3048
  983MOL0     C32607  11.984   6.937   3.724 -0.0471 -0.3566 -1.0267
  983MOL0     C32608  12.091   6.853   3.801  0.2503 -0.6048 -0.2888
  983MOL0     C32609  12.025   6.787   3.928 -0.4405  0.2199  0.2584
  983MOL0     C32610  12.100   6.661   3.972 -0.3874  0.3793 -0.4039
  983MOL0     C32611  12.023   6.558   4.071  0.1929 -0.0315  0.5424
  983MOL0     C32612  11.915   6.488   3.999  0.1952  0.0500  0.3966
  983MOL0     C32613  11.851   6.370   4.080  0.3902 -0.6333  0.2628
  983MOL0     C32614  11.718   6.323   4.019  0.5120 -0.5315 -0.8958
  983MOL0    Cl32615  11.727   6.154   4.045 -0.2251  0.2244 -0.1169
  983MOL0     C32616  12.053   7.228   3.509 -0.2769 -0.3879  0.2892
  983MOL0     C32617  11.989   7.329   3.436  0.1026 -0.2555  0.4342
  983MOL0     O32618  11.945   7.538   3.253  0.1510  0.0165 -0.3662
  983MOL0     C32619  11.625   7.546   3.122 -0.3350  0.7979 -0.0690
  983MOL0     C32620  11.539   7.620   3.039 -0.5948 -0.6764  0.4682
  983MOL0     N32621  11.126   8.392   3.072  0.1822  0.4047  0.3558
  983MOL0     N32622  11.099   8.500   3.138 -0.4264 -0.0890 -0.7243
  983MOL0     C32623  10.757   8.876   3.933  0.4075  0.1944 -0.2463
  983MOL0     C32624  10.679   8.988   3.940  0.1590  0.3140  0.7538
  983MOL0     C32625  10.368   9.264   4.100 -0.2003 -0.1297  0.0526
  983MOL0     C32626  10.402   9.359   4.008  0.5601  0.4604  0.0700
  983MOL0     C32627  10.331   9.478   4.013 -0.5173 -0.2234  0.0313
  983MOL0     C32628  10.236   9.517   4.106 -0.2848 -0.2632  0.1798
  983MOL0     O32629  10.195   9.641   4.122 -0.8849 -0.2883 -0.4656
  983MOL0     C32630  10.056   9.660   4.144 -0.1427 -0.4414  0.2754
  983MOL0     C32631  10.024   9.781   4.059  0.6767 -0.0990 -0.0700
  983MOL0     C32632   9.873   9.807   4.068  0.3961 -0.2878  0.3337
  983MOL0     C32633   9.838   9.846   4.208 -0.7532  1.0081 -0.1959
  983MOL0     C32634   9.701   9.882   4.241  0.0230  0.2786  0.3553
  983MOL0     C32635   9.589   9.929   4.264  1.1286  0.1349 -0.5051
  983MOL0     C32636  10.212   9.419   4.206  0.8101 -0.0399 -0.1476
  983MOL0     C32637  10.271   9.292   4.197 -0.0515  0.4908  0.3995
  983MOL0     H32638  10.363   8.853   3.918  0.5325 -1.6095 -0.7175
  983MOL0     H32639  10.506   8.656   3.878 -0.4585  1.3195 -0.8452
  983MOL0     H32640  10.646   8.519   3.770 -0.5092  1.5514  4.0878
  983MOL0     H32641  10.718   8.645   3.682 -0.7847  0.2841 -0.2899
  983MOL0     H32642  10.879   8.423   3.788 -1.6085  0.3656  0.9100
  983MOL0     H32643  10.839   8.455   3.625 -0.5533 -0.9832  1.9542
  983MOL0     H32644  10.962   8.689   3.646  2.6105  0.5336 -0.3818
  983MOL0     H32645  11.015   8.633   3.807  1.7707 -1.4434 -0.0231
  983MOL0     H32646  11.177   8.498   3.730  0.4796  2.0278  0.7663
  983MOL0     H32647  11.083   8.450   3.596  1.1035 -1.2730  2.0055
  983MOL0     H32648  11.223   8.733   3.614 -1.3670 -0.3153 -0.7922
  983MOL0     H32649  11.304   8.596   3.571 -0.4822  1.2898  0.1400
  983MOL0     H32650  11.107   8.571   3.385  1.1057 -1.8267  1.1519
  983MOL0     H32651  11.072   8.744   3.431  2.5413  2.1648 -1.2595
  983MOL0     H32652  11.289   8.811   3.370 -0.8018  1.2962 -1.2924
  983MOL0     H32653  11.354   8.647   3.334  0.0190  0.0689 -2.1045
  983MOL0     H32654  11.275   8.771   3.124 -1.0566  1.4733 -0.6919
  983MOL0     H32655  11.112   8.734   3.190 -0.6506 -0.5139 -2.2873
  983MOL0     H32656  11.411   8.547   3.047  0.4159 -0.6326 -2.5600
  983MOL0     H32657  11.359   8.303   2.857  0.2368  0.1542 -0.7687
  983MOL0     H32658  11.430   8.274   3.015 -0.1307  2.1329 -0.3191
  983MOL0     H32659  11.156   8.185   2.936  0.3575  2.0457  0.7303
  983MOL0     H32660  11.241   8.141   3.078 -2.7408  2.9188 -0.5801
  983MOL0     H32661  11.344   8.043   2.802  0.4500  2.0759  0.9094
  983MOL0     H32662  11.225   7.955   2.898 -1.0489 -0.4789  0.0243
  983MOL0     H32663  11.415   7.979   3.101 -0.8537 -0.6195 -0.0612
  983MOL0     H32664  11.515   8.038   2.965  2.5630 -3.3886  0.8478
  983MOL0     H32665  11.673   7.924   3.108  1.0078 -0.4789 -2.2832
  983MOL0     H32666  11.847   7.933   3.277 -1.9863 -0.1459  0.7059
  983MOL0     H32667  11.874   7.785   3.363  2.3243 -2.7550 -1.0877
  983MOL0     H32668  11.961   7.815   3.221  0.0309  1.1465 -0.0785
  983MOL0     H32669  11.674   7.198   3.425 -0.6922  1.0176 -1.2471
  983MOL0     H32670  11.777   7.041   3.574  1.2984 -0.1709  0.4001
  983MOL0     H32671  11.919   6.993   3.792  1.7697  0.1483  0.3558
  983MOL0     H32672  11.911   6.871   3.675 -2.1620  0.2892  1.0613
  983MOL0     H32673  12.124   6.778   3.728  0.8708  0.4024 -1.0795
  983MOL0     H32674  12.179   6.914   3.822  1.9300 -1.7124 -3.4871
  983MOL0     H32675  11.927   6.752   3.896  0.0397 -1.0068  0.0885
  983MOL0     H32676  12.009   6.861   4.007  0.2065  0.7316 -0.0793
  983MOL0     H32677  12.131   6.605   3.883  0.3634 -0.2380  0.2328
  983MOL0     H32678  12.187   6.699   4.026 -0.5737 -0.0289  0.1867
  983MOL0     H32679  11.981   6.612   4.156  1.0208  0.4504  0.6582
  983MOL0     H32680  12.098   6.490   4.113 -0.3660 -1.3399 -0.4899
  983MOL0     H32681  11.835   6.562   3.985  0.1903 -0.1222 -0.4975
  983MOL0     H32682  11.953   6.454   3.903  1.0234  1.7424  0.0781
  983MOL0     H32683  11.849   6.406   4.183 -4.3189 -0.9882  0.5278
  983MOL0     H32684  11.925   6.289   4.085  0.0205 -0.9441  0.9090
  983MOL0     H32685  11.715   6.339   3.911  2.1305  2.8671 -0.5714
  983MOL0     H32686  11.628   6.371   4.061  0.4477  0.7160 -2.3803
  983MOL0     H32687  12.161   7.238   3.522 -0.7704  1.5700  3.9558
  983MOL0     H32688  12.043   7.418   3.407 -2.1076  1.0981  0.2384
  983MOL0     H32689  11.610   7.440   3.138 -1.2690  1.3538  3.6084
  983MOL0     H32690  11.452   7.589   2.982  0.8020  0.7700 -2.6987
  983MOL0     H32691  10.866   8.882   3.935  0.7111 -3.1208  1.4975
  983MOL0     H32692  10.735   9.078   3.962  0.0001  0.8409 -0.8219
  983MOL0     H32693  10.468   9.329   3.928  1.2510 -2.4222  1.5729
  983MOL0     H32694  10.365   9.553   3.942  0.6606 -0.6771  0.0924
  983MOL0     H32695   9.999   9.574   4.109 -1.4769 -0.3404  2.0477
  983MOL0     H32696  10.038   9.680   4.250  0.1933 -1.9884  0.6461
  983MOL0     H32697  10.037   9.741   3.958  0.4380 -0.0643 -0.1151
  983MOL0     H32698  10.087   9.868   4.079  1.4343 -0.7232  0.3489
  983MOL0     H32699   9.810   9.720   4.053  0.0953 -0.7079  3.4832
  983MOL0     H32700   9.846   9.881   3.992  2.4809  1.0567  0.8036
  983MOL0     H32701   9.905   9.925   4.242  0.8469  1.9260 -4.7086
  983MOL0     H32702   9.849   9.752   4.262 -0.0848  0.6356 -0.9579
  983MOL0     H32703   9.491   9.963   4.290 -0.4406 -2.1583 -2.9770
  983MOL0     H32704  10.159   9.441   4.298  0.3013 -3.0623  0.3906
  983MOL0     H32705  10.257   9.220   4.277  0.3979  0.8074  0.7744
  984MOL0     O32706   1.645   4.779   1.613  0.1731 -0.3828 -0.2556
  984MOL0     C32707   1.702   4.885   1.587 -0.1309  0.5580 -0.2529
  984MOL0     O32708   1.763   4.957   1.688 -0.4386 -0.4964  0.4097
  984MOL0     C32709   1.757   4.906   1.818 -0.3326 -0.0581 -0.5019
  984MOL0     C32710   1.852   4.806   1.866  0.5975 -1.1548 -0.8100
  984MOL0     C32711   1.843   4.750   1.992  0.7651  0.6286  0.1686
  984MOL0     C32712   1.758   4.824   2.084 -1.0041 -0.2281  0.4716
  984MOL0     O32713   1.764   4.809   2.222 -0.5999  0.4902 -0.3191
  984MOL0     C32714   1.844   4.700   2.275 -0.2298  0.0219 -0.4663
  984MOL0     C32715   1.794   4.668   2.418  0.0290 -0.2083  0.5041
  984MOL0     C32716   1.653   4.605   2.407 -0.2228  0.0409  1.0018
  984MOL0     C32717   1.645   4.454   2.388 -0.5312  0.4199  0.4279
  984MOL0     C32718   1.501   4.417   2.364  0.3644 -0.7111  0.5105
  984MOL0     C32719   1.488   4.264   2.348  0.1959 -0.5665 -0.4941
  984MOL0     C32720   1.344   4.235   2.318 -0.2821  0.4388  0.6978
  984MOL0     C32721   1.282   4.178   2.450 -0.2550  0.1184  0.5500
  984MOL0     N32722   1.140   4.150   2.444  0.3484  0.0929 -0.2690
  984MOL0     C32723   1.082   4.043   2.381  0.4243  0.4345  0.7310
  984MOL0     C32724   0.959   4.038   2.431  0.2249 -0.0185 -0.0728
  984MOL0     C32725   0.876   3.923   2.404  1.1661 -0.2257  0.2502
  984MOL0     C32726   0.784   3.873   2.527  0.0876  0.0136  0.1966
  984MOL0     C32727   0.687   3.772   2.465 -0.0069 -0.8801  0.4467
  984MOL0     C32728   0.593   3.709   2.561  0.1011 -0.4686 -0.1344
  984MOL0     O32729   0.489   3.799   2.599 -0.6563 -0.2996  0.4557
  984MOL0     C32730   0.376   3.755   2.655 -0.6129  0.2175  0.7988
  984MOL0     C32731   0.374   3.646   2.738  0.0235 -0.4058  0.2534
  984MOL0     C32732   0.260   3.618   2.811  0.2140  0.1841 -0.3167
  984MOL0     C32733   0.264   3.496   2.895  0.6518 -0.0703  0.2645
  984MOL0     C32734   0.147   3.692   2.797  0.1838 -0.4060 -0.4667
  984MOL0     C32735   0.022   3.670   2.868 -0.4576  0.2005 -0.2252
  984MOL0     O32736  -0.086   3.671   2.781  0.1144  0.0198  0.1761
  984MOL0     C32737  -0.209   3.642   2.829  0.4856 -0.3528  0.6580
  984MOL0     C32738  -0.266   3.530   2.777  0.0140  0.1834  0.9031
  984MOL0     C32739  -0.402   3.506   2.799  0.2864 -0.3517 -0.3738
  984MOL0     C32740  -0.485   3.600   2.878  0.2604 -0.6408 -0.4616
  984MOL0     O32741  -0.615   3.579   2.916  0.3542 -0.9125  0.1416
  984MOL0     C32742  -0.647   3.438   2.936  0.2909 -0.0006  1.3885
  984MOL0     C32743  -0.750   3.420   3.036  0.2829 -0.1059 -1.0838
  984MOL0     C32744  -0.877   3.481   2.980 -0.0174  0.3371 -0.5991
  984MOL0     C32745  -0.986   3.484   3.086  0.4211  0.4118 -0.5342
  984MOL0     C32746  -1.108   3.577   3.046 -0.0165 -0.9717 -0.4195
  984MOL0     C32747  -1.218   3.600   3.147  0.5242  1.0775  0.1936
  984MOL0     C32748  -1.311   3.710   3.102  0.4750 -0.1228 -0.1117
  984MOL0     C32749  -1.424   3.667   2.998 -0.4019  1.0431  0.2687
  984MOL0    Cl32750  -1.520   3.531   3.058  0.3168 -0.0066  0.1548
  984MOL0     C32751  -0.427   3.712   2.915 -0.5003 -0.8880  0.4535
  984MOL0     C32752  -0.291   3.734   2.899  0.0942  0.0252  0.6772
  984MOL0     O32753   0.022   3.628   2.982  0.4945 -0.1133 -0.5840
  984MOL0     C32754   0.159   3.809   2.718  0.2211  0.1570  0.4392
  984MOL0     C32755   0.271   3.840   2.644 -0.1602 -0.2959 -1.0227
  984MOL0     N32756   0.938   4.130   2.530 -0.3928 -0.4063  0.5307
  984MOL0     N32757   1.049   4.200   2.533  1.5833  0.0539  0.3708
  984MOL0     C32758   1.665   4.916   2.035 -0.2848  0.8937 -0.9884
  984MOL0     C32759   1.663   4.966   1.904 -0.0629 -0.3893  0.7266
  984MOL0     C32760   1.702   4.946   1.451 -0.2735 -0.5332 -0.7754
  984MOL0     C32761   1.646   4.868   1.349 -0.7892  0.6381 -0.2124
  984MOL0     C32762   1.648   4.921   1.217  0.1851 -0.4875 -0.2681
  984MOL0     C32763   1.702   5.049   1.194 -0.4179 -1.0602  1.0881
  984MOL0     O32764   1.714   5.106   1.068  0.1770 -0.7613  0.1814
  984MOL0     C32765   1.646   5.047   0.959 -0.3964  0.1134 -0.0387
  984MOL0     C32766   1.640   5.145   0.836  0.2036 -0.5820  0.0312
  984MOL0     C32767   1.535   5.251   0.863  0.1557  0.4578 -0.5022
  984MOL0     C32768   1.509   5.335   0.736 -0.0242  1.1468 -0.5327
  984MOL0     C32769   1.389   5.414   0.741  0.1939  0.0878  0.3169
  984MOL0     C32770   1.314   5.508   0.735  0.7711 -0.8531 -0.4415
  984MOL0     C32771   1.762   5.119   1.300 -0.2361  0.8767 -0.5525
  984MOL0     C32772   1.763   5.067   1.429  0.8391  0.5296  0.9518
  984MOL0     H32773   1.913   4.764   1.787 -0.8740 -2.4456 -1.3275
  984MOL0     H32774   1.898   4.659   2.013 -1.5085 -1.2402 -1.4892
  984MOL0     H32775   1.835   4.616   2.205 -2.1603  2.1061 -2.8812
  984MOL0     H32776   1.951   4.722   2.281 -0.2213 -0.0491 -0.3446
  984MOL0     H32777   1.865   4.596   2.460 -2.0509 -2.6868 -0.0154
  984MOL0     H32778   1.787   4.761   2.476 -0.4507 -0.4675  0.8712
  984MOL0     H32779   1.591   4.630   2.494  1.0744  2.8664  1.2243
  984MOL0     H32780   1.588   4.653   2.333 -1.7429  0.0995  2.3124
  984MOL0     H32781   1.728   4.438   2.318 -1.6912 -0.1011 -0.8706
  984MOL0     H32782   1.687   4.422   2.483  0.4402  2.0413  0.5692
  984MOL0     H32783   1.443   4.446   2.452 -2.2054 -0.7712 -1.0646
  984MOL0     H32784   1.460   4.461   2.273 -0.4017  1.4663  1.8415
  984MOL0     H32785   1.562   4.225   2.277 -1.3646  0.2582 -2.6440
  984MOL0     H32786   1.517   4.212   2.440  0.8349  0.3846 -0.1387
  984MOL0     H32787   1.290   4.327   2.294  0.2266  1.3380  2.7078
  984MOL0     H32788   1.339   4.166   2.234  1.9106  2.4126 -1.1902
  984MOL0     H32789   1.296   4.254   2.527  0.5941  1.3732 -0.7845
  984MOL0     H32790   1.338   4.091   2.484  1.2177  1.7451  2.5387
  984MOL0     H32791   1.123   3.987   2.298 -2.8852 -1.4457  0.2245
  984MOL0     H32792   0.817   3.956   2.318  1.4276 -2.9947 -1.1115
  984MOL0     H32793   0.934   3.837   2.368  2.7171  0.8738  0.0297
  984MOL0     H32794   0.739   3.965   2.564 -0.0813  0.0669 -0.1326
  984MOL0     H32795   0.837   3.820   2.606  2.1852 -1.6515 -2.1301
  984MOL0     H32796   0.747   3.701   2.409  1.1772 -0.5548  1.2610
  984MOL0     H32797   0.633   3.822   2.384  0.4348 -2.8979 -1.1710
  984MOL0     H32798   0.655   3.674   2.645  1.7050  1.5140 -0.4478
  984MOL0     H32799   0.538   3.634   2.503  1.4773 -1.9372  0.3870
  984MOL0     H32800   0.458   3.582   2.761 -0.9128 -0.5079  4.0746
  984MOL0     H32801   0.250   3.525   3.000 -1.7578 -0.3150  0.0763
  984MOL0     H32802   0.191   3.424   2.857  2.2036 -0.4349 -2.2195
  984MOL0     H32803   0.360   3.446   2.886  2.7254  3.2475  2.0484
  984MOL0     H32804  -0.207   3.466   2.711 -1.7403  0.4619 -1.0531
  984MOL0     H32805  -0.454   3.422   2.755  1.3591 -1.3842  0.2653
  984MOL0     H32806  -0.661   3.396   2.835  3.5744 -1.4299  1.3856
  984MOL0     H32807  -0.565   3.378   2.976  1.7923  0.1563 -1.2138
  984MOL0     H32808  -0.761   3.312   3.052  0.4340 -0.0066 -0.2790
  984MOL0     H32809  -0.710   3.464   3.127 -0.0750 -0.1562 -0.8992
  984MOL0     H32810  -0.913   3.420   2.896  1.4172 -4.3702  1.8527
  984MOL0     H32811  -0.858   3.586   2.957  1.1103  0.2682 -0.0634
  984MOL0     H32812  -1.013   3.379   3.097  0.3201  0.6371  1.6456
  984MOL0     H32813  -0.942   3.511   3.182 -3.0172  2.6953  0.5843
  984MOL0     H32814  -1.151   3.543   2.951  1.3172  0.6773 -1.6838
  984MOL0     H32815  -1.060   3.668   3.008 -1.8569 -1.0924 -3.4165
  984MOL0     H32816  -1.275   3.508   3.162  0.0004  1.2765 -0.5317
  984MOL0     H32817  -1.163   3.625   3.239  3.2619  0.6727 -1.2358
  984MOL0     H32818  -1.244   3.788   3.067  0.3515 -0.4576 -1.1387
  984MOL0     H32819  -1.369   3.746   3.188 -1.7177 -2.0022 -0.6947
  984MOL0     H32820  -1.376   3.634   2.905  0.2610 -0.6695  1.1742
  984MOL0     H32821  -1.484   3.751   2.962 -1.8744  0.1682  0.5951
  984MOL0     H32822  -0.485   3.799   2.946 -1.4458 -0.5507 -2.0076
  984MOL0     H32823  -0.263   3.830   2.942  1.3435 -1.1108  2.4930
  984MOL0     H32824   0.083   3.886   2.707  1.5439  1.8396  2.5338
  984MOL0     H32825   0.278   3.925   2.577  1.2621 -1.5001 -2.5094
  984MOL0     H32826   1.596   4.966   2.101  0.4152 -0.2006  0.6374
  984MOL0     H32827   1.599   5.041   1.859  1.1895 -0.0628 -0.5603
  984MOL0     H32828   1.626   4.763   1.367 -0.8565  0.5936 -0.5393
  984MOL0     H32829   1.605   4.873   1.130  1.9644  1.1052 -2.1369
  984MOL0     H32830   1.691   4.949   0.945  1.7713  1.0577 -0.2007
  984MOL0     H32831   1.540   5.027   0.979 -0.7517  0.7889 -1.1676
  984MOL0     H32832   1.612   5.086   0.749  0.8226  1.6715 -1.7833
  984MOL0     H32833   1.741   5.177   0.812  1.0881 -3.6029 -0.7743
  984MOL0     H32834   1.571   5.328   0.932 -0.6324 -0.0702  0.5201
  984MOL0     H32835   1.446   5.203   0.905  0.8765  1.0912  1.8885
  984MOL0     H32836   1.483   5.263   0.658  0.2995 -1.3620  1.5523
  984MOL0     H32837   1.596   5.393   0.703  1.1235 -0.4632 -0.4902
  984MOL0     H32838   1.247   5.592   0.731  0.2578 -1.2292  0.0421
  984MOL0     H32839   1.804   5.219   1.292  1.0156  0.1973 -4.5601
  984MOL0     H32840   1.807   5.122   1.512 -3.4572  0.8947  3.2554
  985MOL0     O32841  10.873   4.260   3.886 -0.0179  0.0150  0.0457
  985MOL0     C32842  10.911   4.145   3.852  0.4123  0.4377  0.0690
  985MOL0     O32843  10.979   4.048   3.935  0.5877 -0.2095  0.0919
  985MOL0     C32844  11.019   4.079   4.064 -0.4592 -0.2005 -1.1059
  985MOL0     C32845  11.046   4.204   4.124  0.7699 -0.3076 -0.0488
  985MOL0     C32846  11.061   4.215   4.261 -0.3228  0.2086 -0.1364
  985MOL0     C32847  11.049   4.105   4.346 -0.4577 -0.6364  0.0374
  985MOL0     O32848  11.055   4.131   4.486  0.0184  0.1243  0.1467
  985MOL0     C32849  10.971   4.053   4.571 -0.3303 -0.0355 -0.1903
  985MOL0     C32850  10.963   4.128   4.712  0.5301  0.3037  0.4491
  985MOL0     C32851  10.830   4.077   4.784 -0.8806 -0.7114 -0.3942
  985MOL0     C32852  10.819   4.146   4.917 -0.2646  0.2591  0.5118
  985MOL0     C32853  10.677   4.135   4.962  0.6832  0.8034  0.2484
  985MOL0     C32854  10.647   4.212   5.095  0.4761  0.1024 -0.7365
  985MOL0     C32855  10.520   4.155   5.170  0.1839 -0.3235  1.2229
  985MOL0     C32856  10.484   4.228   5.304 -0.5360 -0.8479  0.0517
  985MOL0     N32857  10.582   4.200   5.414  0.7385 -0.3165  0.1976
  985MOL0     C32858  10.577   4.076   5.472 -0.2039  0.6053 -0.4398
  985MOL0     C32859  10.680   4.093   5.567 -0.8329 -0.3223 -0.2617
  985MOL0     C32860  10.712   3.979   5.656 -0.3917  1.1110 -0.3052
  985MOL0     C32861  10.619   3.952   5.781 -1.3993  0.2914 -0.0402
  985MOL0     C32862  10.632   3.816   5.863 -0.3072 -0.6652  0.2479
  985MOL0     C32863  10.677   3.679   5.804 -0.9057 -0.2001  0.0185
  985MOL0     O32864  10.659   3.567   5.884  0.4812 -0.5856  0.1794
  985MOL0     C32865  10.527   3.511   5.904  0.1972 -0.0746 -0.5380
  985MOL0     C32866  10.506   3.431   6.015  0.7414 -0.1887  0.1931
  985MOL0     C32867  10.385   3.368   6.044  0.3247 -0.2253  0.0128
  985MOL0     C32868  10.388   3.275   6.165 -0.0429  1.0304  0.7564
  985MOL0     C32869  10.274   3.395   5.961 -0.1549  1.0999  0.0485
  985MOL0     C32870  10.142   3.327   5.979 -0.4214  1.2565  0.4720
  985MOL0     O32871  10.039   3.378   5.909 -0.2016  0.3037  0.3738
  985MOL0     C32872   9.938   3.288   5.871  0.1363  0.0063 -0.4850
  985MOL0     C32873   9.937   3.212   5.750  0.3947  0.5497  0.2900
  985MOL0     C32874   9.821   3.142   5.711  0.3228  0.6467 -0.9615
  985MOL0     C32875   9.706   3.134   5.800  0.8626  0.2014  0.0841
  985MOL0     O32876   9.594   3.065   5.770  0.1303  0.6542  0.2875
  985MOL0     C32877   9.570   3.023   5.629 -0.0461 -0.2280 -0.0716
  985MOL0     C32878   9.428   2.986   5.599 -0.2930  0.4829  0.4506
  985MOL0     C32879   9.402   2.833   5.592  0.3818  0.6920  0.0869
  985MOL0     C32880   9.270   2.798   5.523 -0.3760 -0.3146 -0.0323
  985MOL0     C32881   9.237   2.643   5.522 -0.2671 -0.5555 -0.2642
  985MOL0     C32882   9.102   2.609   5.454  1.4580 -0.4419 -0.5179
  985MOL0     C32883   9.066   2.464   5.456  0.1686  0.6628 -0.3854
  985MOL0     C32884   8.964   2.425   5.358  0.3474 -1.3816  1.2052
  985MOL0    Cl32885   8.810   2.512   5.388 -0.7067  0.1867 -0.1604
  985MOL0     C32886   9.720   3.194   5.927  0.4809 -0.2362  0.1425
  985MOL0     C32887   9.826   3.274   5.960 -0.5015  0.2903 -0.0052
  985MOL0     O32888  10.143   3.215   6.037 -0.5940  0.2947 -0.3368
  985MOL0     C32889  10.288   3.487   5.852 -0.3431  0.1482 -0.5444
  985MOL0     C32890  10.407   3.550   5.827 -0.3129 -0.6818 -0.6935
  985MOL0     N32891  10.738   4.216   5.554  0.4404 -0.3744 -0.8537
  985MOL0     N32892  10.674   4.286   5.466  0.3371 -0.1497  0.2687
  985MOL0     C32893  11.037   3.985   4.293 -0.2555 -0.1832 -0.2612
  985MOL0     C32894  11.026   3.974   4.152 -0.0243  0.4015 -0.0365
  985MOL0     C32895  10.870   4.106   3.713  0.7170  0.5408 -0.8656
  985MOL0     C32896  10.822   4.190   3.616  0.8735  0.2077 -0.2869
  985MOL0     C32897  10.787   4.140   3.489  0.0722 -0.0087 -0.2040
  985MOL0     C32898  10.785   4.003   3.468  0.6967  0.8821 -0.1859
  985MOL0     O32899  10.724   3.968   3.350 -0.5975  0.1168  0.0159
  985MOL0     C32900  10.737   3.837   3.288  0.1248  0.1914 -0.3663
  985MOL0     C32901  10.628   3.739   3.334  0.3478  1.2757 -0.2728
  985MOL0     C32902  10.475   3.781   3.324 -0.4493  0.2935  0.2897
  985MOL0     C32903  10.417   3.885   3.413 -0.8994 -0.1347 -0.5674
  985MOL0     C32904  10.272   3.895   3.419 -0.4591  0.4695 -1.2520
  985MOL0     C32905  10.146   3.888   3.434  0.1673  0.0049  0.6063
  985MOL0     C32906  10.818   3.911   3.566  0.0644 -0.7684  0.1758
  985MOL0     C32907  10.864   3.968   3.688  0.3966 -0.4370 -0.1923
  985MOL0     H32908  11.056   4.295   4.065 -3.1651  0.2482 -0.1025
  985MOL0     H32909  11.082   4.306   4.316 -0.5744 -2.9540  6.0776
  985MOL0     H32910  10.871   4.063   4.530 -0.4410  2.0718  0.5002
  985MOL0     H32911  10.989   3.945   4.583 -0.7852  0.1063  2.3948
  985MOL0     H32912  11.048   4.108   4.777 -1.8102 -1.1743  3.2614
  985MOL0     H32913  10.956   4.236   4.700 -1.0602  0.1163 -0.7023
  985MOL0     H32914  10.749   4.105   4.716  0.1151  1.0466 -0.9329
  985MOL0     H32915  10.831   3.968   4.792  0.4177 -0.5594  2.6395
  985MOL0     H32916  10.880   4.094   4.991 -0.0987  1.4466  1.2320
  985MOL0     H32917  10.852   4.250   4.926  2.5523 -0.6333  1.6075
  985MOL0     H32918  10.606   4.159   4.883  0.3008 -0.4285  0.1964
  985MOL0     H32919  10.666   4.028   4.983  0.0339  0.1088 -3.1345
  985MOL0     H32920  10.728   4.173   5.158 -1.6662 -3.3981  0.1248
  985MOL0     H32921  10.656   4.321   5.083  0.2888  0.7984  3.6115
  985MOL0     H32922  10.436   4.176   5.104  0.9803  1.3206  0.6689
  985MOL0     H32923  10.521   4.047   5.184  1.7110 -0.8834 -2.1452
  985MOL0     H32924  10.382   4.203   5.336 -0.1396  1.2173  3.4014
  985MOL0     H32925  10.478   4.334   5.278 -2.4009 -0.7927  0.5437
  985MOL0     H32926  10.516   3.987   5.461  1.2367 -0.7331  1.6998
  985MOL0     H32927  10.718   3.889   5.594 -0.2199  0.9790 -0.0990
  985MOL0     H32928  10.807   3.988   5.709 -0.3179 -0.5615 -0.0878
  985MOL0     H32929  10.513   3.953   5.754 -1.0239 -2.2244 -1.9031
  985MOL0     H32930  10.630   4.035   5.851  2.3612 -1.4858  1.7683
  985MOL0     H32931  10.538   3.806   5.918  0.1239  1.1498  1.3996
  985MOL0     H32932  10.707   3.857   5.932 -1.5397  0.2402  1.0857
  985MOL0     H32933  10.782   3.688   5.775 -0.9828  1.0553  0.0614
  985MOL0     H32934  10.616   3.670   5.714 -0.2148 -2.7080 -0.2819
  985MOL0     H32935  10.591   3.431   6.082  2.3149 -1.8135 -1.6719
  985MOL0     H32936  10.469   3.296   6.235  0.6525  0.3953  0.1536
  985MOL0     H32937  10.294   3.265   6.220  0.0630  2.4647  1.2438
  985MOL0     H32938  10.405   3.170   6.141 -1.7948  1.0985 -1.1014
  985MOL0     H32939  10.019   3.221   5.679 -1.8458  1.2608 -2.4134
  985MOL0     H32940   9.825   3.073   5.628 -2.9879 -0.0733 -0.6459
  985MOL0     H32941   9.576   3.111   5.564 -0.3002 -0.9984 -1.1776
  985MOL0     H32942   9.633   2.941   5.593 -0.9426 -0.1197 -2.0256
  985MOL0     H32943   9.362   3.030   5.674 -3.0749 -1.0926 -0.8909
  985MOL0     H32944   9.398   3.024   5.501  2.1651 -1.5099 -1.1910
  985MOL0     H32945   9.393   2.801   5.696 -0.6450 -0.7523 -0.4051
  985MOL0     H32946   9.476   2.770   5.542  0.4225 -0.4931  1.5578
  985MOL0     H32947   9.190   2.851   5.575  0.0974  0.9833 -0.5874
  985MOL0     H32948   9.271   2.819   5.416  2.1249 -1.1387 -0.2367
  985MOL0     H32949   9.223   2.622   5.629 -2.9109  1.2785 -0.1669
  985MOL0     H32950   9.316   2.588   5.470 -1.2779 -0.5568 -1.8382
  985MOL0     H32951   9.028   2.667   5.511  1.0547 -2.2237  0.8510
  985MOL0     H32952   9.093   2.641   5.350 -2.1182  3.2669  0.6714
  985MOL0     H32953   9.038   2.435   5.557  1.8201  2.1060  0.5396
  985MOL0     H32954   9.157   2.405   5.440  2.1021  2.9854  1.3685
  985MOL0     H32955   8.936   2.320   5.364 -3.7407 -0.5634  0.0436
  985MOL0     H32956   8.997   2.446   5.256  2.4746 -2.2657  1.6579
  985MOL0     H32957   9.647   3.175   6.005  2.5964  1.5364  2.7414
  985MOL0     H32958   9.839   3.332   6.051  1.5391  1.5627 -1.0295
  985MOL0     H32959  10.207   3.514   5.786 -0.3003 -1.1414 -1.1529
  985MOL0     H32960  10.412   3.621   5.745  1.3032  1.5355  1.2119
  985MOL0     H32961  11.020   3.896   4.353 -0.3353 -0.2012 -0.3111
  985MOL0     H32962  11.015   3.874   4.112  1.0330 -0.0829  0.8283
  985MOL0     H32963  10.811   4.297   3.633  2.3374  0.2627  0.4122
  985MOL0     H32964  10.766   4.214   3.413 -1.6945  2.6877  2.6331
  985MOL0     H32965  10.740   3.855   3.180 -4.2712  0.1640 -0.6539
  985MOL0     H32966  10.826   3.780   3.317  0.0796 -0.4419 -1.4411
  985MOL0     H32967  10.651   3.722   3.440 -3.5833  0.3073  0.5832
  985MOL0     H32968  10.638   3.649   3.274 -1.1548  0.8897  0.0261
  985MOL0     H32969  10.416   3.690   3.342 -1.6888  1.2433  1.2121
  985MOL0     H32970  10.462   3.827   3.226 -3.2817  3.5451  1.9957
  985MOL0     H32971  10.461   3.982   3.389 -2.3196  1.6591  3.1840
  985MOL0     H32972  10.448   3.881   3.518  0.9042 -1.3426 -1.1020
  985MOL0     H32973  10.039   3.886   3.425  0.1934 -0.2851  0.3693
  985MOL0     H32974  10.818   3.806   3.541 -1.0346 -0.2553 -2.3406
  985MOL0     H32975  10.878   3.903   3.774 -1.1655 -0.3188  0.1723
  986MOL0     O32976  11.078   7.511   5.048  0.4023  0.4442 -0.4757
  986MOL0     C32977  11.126   7.560   4.950  0.0650  0.8435  0.9063
  986MOL0     O32978  11.071   7.652   4.870  1.3233 -0.0280  0.8840
  986MOL0     C32979  10.963   7.715   4.925  0.1036 -0.8943  0.5364
  986MOL0     C32980  10.831   7.658   4.945  0.2847  0.6365 -0.8287
  986MOL0     C32981  10.729   7.745   5.006  0.7553  0.2977  0.0349
  986MOL0     C32982  10.762   7.875   5.049  0.4067 -0.4677  0.6381
  986MOL0     O32983  10.667   7.969   5.104 -0.4713 -0.0259 -0.0947
  986MOL0     C32984  10.546   7.914   5.166  0.2176 -0.1054 -0.4008
  986MOL0     C32985  10.518   8.009   5.286  0.0287  0.1832  0.5463
  986MOL0     C32986  10.399   7.956   5.367 -0.1813  0.5173 -0.8657
  986MOL0     C32987  10.375   7.804   5.359 -1.0535 -0.4222  0.0591
  986MOL0     C32988  10.268   7.732   5.454 -0.0077 -0.4103  0.6979
  986MOL0     C32989  10.143   7.815   5.472  0.1684  0.0408  0.0359
  986MOL0     C32990  10.039   7.740   5.547  0.0541 -0.4816  0.3061
  986MOL0     C32991   9.913   7.819   5.576  0.3065  0.4368 -0.8147
  986MOL0     N32992   9.841   7.740   5.679 -0.7029 -0.9219 -0.6085
  986MOL0     C32993   9.754   7.641   5.652  0.1188 -0.1884 -0.0454
  986MOL0     C32994   9.689   7.620   5.766  0.9781 -0.4250 -0.5801
  986MOL0     C32995   9.579   7.518   5.760 -0.6158  0.9381 -0.1277
  986MOL0     C32996   9.454   7.552   5.834  0.7331  0.7429  0.2950
  986MOL0     C32997   9.344   7.445   5.811  0.8585 -0.0379 -0.3485
  986MOL0     C32998   9.228   7.462   5.917  1.5677 -0.8380 -0.5142
  986MOL0     O32999   9.156   7.587   5.909 -0.0594  0.2309  0.0828
  986MOL0     C33000   9.109   7.644   6.022 -0.0049 -0.0165  0.1353
  986MOL0     C33001   9.003   7.736   6.001  0.3796  0.2893 -0.1685
  986MOL0     C33002   8.946   7.796   6.118  0.2023 -0.0063  0.6584
  986MOL0     C33003   8.838   7.883   6.082  0.0053  0.1000 -0.5694
  986MOL0     C33004   8.975   7.752   6.254  0.3381  0.4398  0.6433
  986MOL0     C33005   8.907   7.796   6.381  0.7664  0.2758 -0.4212
  986MOL0     O33006   8.962   7.750   6.500  0.2086 -0.9598 -0.4142
  986MOL0     C33007   8.915   7.813   6.614  1.1825  0.0193  0.1756
  986MOL0     C33008   8.912   7.946   6.641 -0.7268  0.4925  0.7914
  986MOL0     C33009   8.890   7.992   6.772  0.4869 -0.3479  0.5086
  986MOL0     C33010   8.878   7.905   6.882 -0.9537 -0.5212 -0.5704
  986MOL0     O33011   8.870   7.950   7.011 -0.7737  0.2095 -0.4094
  986MOL0     C33012   8.807   7.871   7.111 -0.8140  0.1176  1.0029
  986MOL0     C33013   8.753   7.973   7.214 -1.5523 -0.1246 -0.4682
  986MOL0     C33014   8.851   8.028   7.330  0.3188  0.3162  0.1802
  986MOL0     C33015   8.855   7.928   7.449 -0.1832  0.2567 -0.2424
  986MOL0     C33016   8.963   7.967   7.553 -0.3882  0.1766  0.2947
  986MOL0     C33017   8.959   8.110   7.612  1.0759  1.0771  0.1300
  986MOL0     C33018   9.036   8.129   7.738 -0.4830 -0.4948  0.2067
  986MOL0     C33019   9.025   8.267   7.788  0.8334  0.6660  0.2027
  986MOL0    Cl33020   8.845   8.287   7.842 -0.5979 -0.2077 -0.1404
  986MOL0     C33021   8.858   7.766   6.857 -0.7702  0.0281 -0.3518
  986MOL0     C33022   8.876   7.727   6.719 -0.7814 -0.1561  0.1724
  986MOL0     O33023   8.801   7.866   6.369 -0.7233 -0.4329 -0.4685
  986MOL0     C33024   9.094   7.683   6.263  0.1325  0.5652 -0.2427
  986MOL0     C33025   9.159   7.629   6.155 -0.6711 -0.7432 -0.5946
  986MOL0     N33026   9.737   7.705   5.860 -0.5013 -0.6821  0.6046
  986MOL0     N33027   9.843   7.772   5.809 -0.2328  0.6632  0.2860
  986MOL0     C33028  10.892   7.921   5.038 -0.2508 -0.3332  0.6229
  986MOL0     C33029  10.991   7.842   4.970  0.0281 -0.1202 -0.2029
  986MOL0     C33030  11.265   7.528   4.915  0.0860  0.0083  0.5587
  986MOL0     C33031  11.346   7.435   4.980 -0.0336  0.1473  0.2257
  986MOL0     C33032  11.484   7.429   4.950 -0.0141  0.6355  0.8612
  986MOL0     C33033  11.547   7.514   4.860  0.2226 -0.0814  0.4200
  986MOL0     O33034  11.680   7.524   4.852  0.0068  0.1255 -0.0153
  986MOL0     C33035  11.740   7.461   4.736 -0.6356 -0.1558  0.3031
  986MOL0     C33036  11.792   7.563   4.630  0.4973  0.1445 -0.9138
  986MOL0     C33037  11.898   7.666   4.682 -0.8675 -0.7398 -0.0469
  986MOL0     C33038  12.040   7.609   4.679  0.3700 -0.5740  0.0096
  986MOL0     C33039  12.123   7.694   4.763  0.6702 -1.0244 -0.7079
  986MOL0     C33040  12.207   7.765   4.823  0.0361 -0.7382 -0.1504
  986MOL0     C33041  11.465   7.608   4.792  1.0102 -0.3938 -0.7964
  986MOL0     C33042  11.333   7.619   4.828  0.0062  0.1228 -0.3038
  986MOL0     H33043  10.808   7.556   4.914  0.4634  0.0077  0.9774
  986MOL0     H33044  10.627   7.715   5.028 -0.0089  2.1233 -0.7591
  986MOL0     H33045  10.471   7.918   5.087  2.9066 -1.2663 -3.2135
  986MOL0     H33046  10.566   7.811   5.198 -0.3552 -0.2865 -0.6275
  986MOL0     H33047  10.600   8.022   5.357  1.2789 -0.1996 -0.7855
  986MOL0     H33048  10.496   8.111   5.252  1.9681  0.0550 -1.2869
  986MOL0     H33049  10.393   7.989   5.471  0.2072 -1.5870 -0.1324
  986MOL0     H33050  10.311   7.997   5.316 -1.4038 -1.5982 -0.5518
  986MOL0     H33051  10.326   7.785   5.263 -0.4684 -1.6747 -0.0124
  986MOL0     H33052  10.472   7.755   5.371 -0.5927  0.0151 -1.6148
  986MOL0     H33053  10.249   7.631   5.415  1.4745 -1.3687  2.2813
  986MOL0     H33054  10.327   7.718   5.545  0.0604 -1.0253  0.5673
  986MOL0     H33055  10.152   7.907   5.532 -1.5296 -0.7465  1.5937
  986MOL0     H33056  10.098   7.826   5.373 -0.0069 -2.4164 -0.2098
  986MOL0     H33057  10.018   7.645   5.497 -1.4867 -0.0070 -0.0043
  986MOL0     H33058  10.075   7.717   5.647 -3.8635 -0.7869  1.8089
  986MOL0     H33059   9.841   7.837   5.496 -3.7705  1.0025  2.6304
  986MOL0     H33060   9.949   7.906   5.631  2.1907 -0.5936 -0.3268
  986MOL0     H33061   9.752   7.584   5.559 -0.8041 -1.5033  0.7459
  986MOL0     H33062   9.561   7.507   5.652  0.2554  1.3682 -0.3304
  986MOL0     H33063   9.620   7.425   5.801  2.0964  2.2225  0.2812
  986MOL0     H33064   9.419   7.643   5.784 -0.9530 -1.4875 -2.9397
  986MOL0     H33065   9.461   7.563   5.943  0.8658  2.1313  0.1660
  986MOL0     H33066   9.380   7.342   5.814  5.4131  1.2587 -1.6242
  986MOL0     H33067   9.299   7.460   5.713  1.6727 -0.7732 -0.8537
  986MOL0     H33068   9.272   7.436   6.014  2.3261 -0.2068 -0.6796
  986MOL0     H33069   9.144   7.395   5.895 -2.1661  3.7393 -1.8749
  986MOL0     H33070   8.955   7.741   5.903  0.7038  0.3088 -0.3282
  986MOL0     H33071   8.836   7.901   5.974 -1.4347 -0.7803 -0.7256
  986MOL0     H33072   8.744   7.841   6.120  0.3266 -2.1814 -2.1013
  986MOL0     H33073   8.844   7.982   6.128  0.2930 -1.2747  2.6911
  986MOL0     H33074   8.948   8.022   6.572 -2.0026 -1.7087 -2.5529
  986MOL0     H33075   8.905   8.098   6.793 -1.4171  0.0523  0.0088
  986MOL0     H33076   8.720   7.818   7.071 -0.2016 -0.7538  0.8150
  986MOL0     H33077   8.877   7.797   7.152 -2.2642 -1.8807  0.0547
  986MOL0     H33078   8.713   8.060   7.161  2.0117  1.3302 -1.0804
  986MOL0     H33079   8.677   7.915   7.268 -1.4076 -0.4693 -0.6311
  986MOL0     H33080   8.812   8.119   7.375  0.0924 -0.7265  2.2167
  986MOL0     H33081   8.949   8.049   7.287 -0.1750  1.6037 -0.3621
  986MOL0     H33082   8.763   7.921   7.508  0.5436  0.4796  0.9425
  986MOL0     H33083   8.877   7.828   7.411  1.3524  0.0453  1.0778
  986MOL0     H33084   9.062   7.948   7.510 -0.3787  1.9616 -0.5798
  986MOL0     H33085   8.949   7.906   7.643 -1.0696  0.2716  0.2592
  986MOL0     H33086   8.990   8.178   7.532 -0.6877  2.1336  0.2942
  986MOL0     H33087   8.855   8.122   7.645  0.2229 -2.8212 -0.6879
  986MOL0     H33088   9.140   8.100   7.723 -1.0319 -1.8136 -1.3821
  986MOL0     H33089   9.004   8.061   7.818 -0.1794 -0.8798  0.0037
  986MOL0     H33090   9.052   8.344   7.715  1.9893  0.3549  0.2811
  986MOL0     H33091   9.087   8.284   7.876  0.3624 -1.4986  1.0124
  986MOL0     H33092   8.848   7.686   6.930 -0.3552 -0.7574 -1.1377
  986MOL0     H33093   8.878   7.622   6.694 -3.4349 -0.0381 -0.9003
  986MOL0     H33094   9.129   7.655   6.362 -1.5416 -0.8165  0.0157
  986MOL0     H33095   9.247   7.571   6.180 -0.3292 -0.5676 -1.3760
  986MOL0     H33096  10.939   8.014   5.070  5.7010 -2.7469  0.1937
  986MOL0     H33097  11.092   7.871   4.940 -0.2993  0.5879 -0.6594
  986MOL0     H33098  11.303   7.375   5.060  1.3229 -1.1604  0.0141
  986MOL0     H33099  11.541   7.353   5.003 -2.9240 -1.9331  0.6243
  986MOL0     H33100  11.831   7.415   4.777 -2.0742 -1.0807  2.6487
  986MOL0     H33101  11.679   7.391   4.678  3.7744 -1.8228 -2.9281
  986MOL0     H33102  11.706   7.626   4.606  0.4911  1.5566  2.3117
  986MOL0     H33103  11.841   7.506   4.551  2.2776 -1.5061  1.2213
  986MOL0     H33104  11.882   7.687   4.788  2.4605 -3.3173  1.1322
  986MOL0     H33105  11.885   7.764   4.634 -2.9450 -2.3137 -3.0193
  986MOL0     H33106  12.078   7.582   4.580  1.4181 -1.9581  0.7574
  986MOL0     H33107  12.023   7.511   4.725 -0.9289 -0.4969 -0.2553
  986MOL0     H33108  12.271   7.837   4.869  1.7532  0.5090 -4.1245
  986MOL0     H33109  11.507   7.689   4.733 -2.7368  2.0464 -0.4219
  986MOL0     H33110  11.291   7.711   4.787  1.6586  1.0777  0.0367
  987MOL0     O33111   8.074  10.173   3.965 -0.2897 -0.1688 -0.3422
  987MOL0     C33112   8.167  10.213   4.036  0.6550  0.0097  0.2082
  987MOL0     O33113   8.161  10.303   4.143 -0.9208  0.0389 -0.1637
  987MOL0     C33114   8.054  10.370   4.190  0.0426 -0.1066  0.8237
  987MOL0     C33115   8.079  10.488   4.252 -0.0884  0.3306  0.2819
  987MOL0     C33116   7.965  10.566   4.307 -0.4236 -0.4780 -0.2962
  987MOL0     C33117   7.832  10.520   4.291  0.5023 -0.1638 -0.1227
  987MOL0     O33118   7.744  10.604   4.342  0.5570  0.1166 -0.9750
  987MOL0     C33119   7.611  10.574   4.313  0.8064  0.4205 -0.2477
  987MOL0     C33120   7.522  10.693   4.350 -0.1766  0.2527  0.0168
  987MOL0     C33121   7.379  10.646   4.344  0.2532  0.1445 -0.1002
  987MOL0     C33122   7.278  10.759   4.396  0.5240  0.6994 -1.0020
  987MOL0     C33123   7.131  10.707   4.388  0.0344 -0.4097 -0.6309
  987MOL0     C33124   7.037  10.801   4.462  0.4419 -0.2504  0.0588
  987MOL0     C33125   6.906  10.736   4.504  0.4751  0.6677  0.6598
  987MOL0     C33126   6.813  10.834   4.572 -0.0388  0.6586 -0.2071
  987MOL0     N33127   6.678  10.780   4.613 -0.9300  0.7313 -0.2238
  987MOL0     C33128   6.636  10.761   4.740  0.1314 -0.1183  0.2040
  987MOL0     C33129   6.510  10.740   4.721 -0.3858 -0.2778 -0.5545
  987MOL0     C33130   6.399  10.722   4.819  0.3375 -0.0144 -0.2357
  987MOL0     C33131   6.344  10.580   4.803  0.4422  0.3399 -1.0476
  987MOL0     C33132   6.257  10.559   4.677 -0.5309 -0.1989  0.5574
  987MOL0     C33133   6.153  10.449   4.701 -0.0714 -0.2523 -0.2447
  987MOL0     O33134   6.170  10.321   4.628  0.5342  0.1091 -0.8075
  987MOL0     C33135   6.254  10.239   4.691  0.3899 -0.2903 -1.0679
  987MOL0     C33136   6.357  10.183   4.622 -0.4224 -1.3568  0.5405
  987MOL0     C33137   6.452  10.107   4.683 -0.2178 -0.6085 -0.1220
  987MOL0     C33138   6.568  10.064   4.599  0.3949 -0.6138 -0.0907
  987MOL0     C33139   6.416  10.053   4.816 -0.6219  0.1579  0.3797
  987MOL0     C33140   6.504   9.961   4.893  0.4664 -0.0735 -0.3683
  987MOL0     O33141   6.482   9.971   5.032 -0.6622  0.4125  0.1406
  987MOL0     C33142   6.538   9.860   5.099 -0.1760 -1.0744  0.3653
  987MOL0     C33143   6.633   9.881   5.194  0.1847 -0.9483  0.8857
  987MOL0     C33144   6.680   9.787   5.283 -0.0232 -0.3236  0.0505
  987MOL0     C33145   6.635   9.664   5.271 -0.2211  1.0645  0.1181
  987MOL0     O33146   6.696   9.571   5.347  0.3597  0.3642  0.5180
  987MOL0     C33147   6.620   9.479   5.426  0.1620  1.1609  0.1514
  987MOL0     C33148   6.529   9.540   5.530  0.4531 -0.8183  0.2324
  987MOL0     C33149   6.415   9.451   5.572  0.2172 -0.0487 -0.4240
  987MOL0     C33150   6.467   9.330   5.647  0.3883  0.1359  0.2910
  987MOL0     C33151   6.350   9.252   5.697  0.3104 -0.6017  0.0314
  987MOL0     C33152   6.370   9.106   5.725  0.0986 -0.0959  0.6028
  987MOL0     C33153   6.229   9.037   5.746 -0.0161 -0.6956 -0.4060
  987MOL0     C33154   6.254   8.892   5.763  0.3669  0.9759 -0.2649
  987MOL0    Cl33155   6.090   8.811   5.751  0.4778  0.2817 -0.1800
  987MOL0     C33156   6.542   9.624   5.169 -0.6691  0.2863  0.0329
  987MOL0     C33157   6.489   9.726   5.089 -0.1020  0.2846 -0.4480
  987MOL0     O33158   6.594   9.905   4.837  0.7355 -0.1699  0.6957
  987MOL0     C33159   6.302  10.095   4.883  0.8047  0.0295 -0.0530
  987MOL0     C33160   6.217  10.180   4.814  0.7242 -0.3065 -1.2010
  987MOL0     N33161   6.484  10.744   4.594  0.3462  0.0543  0.4411
  987MOL0     N33162   6.580  10.774   4.527 -0.3304  0.4449  0.4902
  987MOL0     C33163   7.812  10.396   4.245  0.7299  0.4098 -0.9195
  987MOL0     C33164   7.924  10.324   4.195  0.9254  0.4735 -0.4222
  987MOL0     C33165   8.298  10.158   3.987  0.3801 -0.7823 -0.3477
  987MOL0     C33166   8.304  10.068   3.882  0.3284 -0.0483  0.6188
  987MOL0     C33167   8.425  10.028   3.822 -0.3885 -0.2380 -0.1590
  987MOL0     C33168   8.550  10.069   3.876 -0.5492 -0.1616  0.5956
  987MOL0     O33169   8.670  10.036   3.823 -0.5948  0.2276  0.5620
  987MOL0     C33170   8.679   9.915   3.752  0.0268  0.8344 -0.9437
  987MOL0     C33171   8.821   9.856   3.761  0.0120  0.2498  0.0680
  987MOL0     C33172   8.880   9.802   3.895 -0.7903 -0.8337  0.7734
  987MOL0     C33173   8.878   9.906   4.014 -0.2393 -0.3409 -0.7201
  987MOL0     C33174   8.767   9.877   4.103  0.0404  0.3611 -0.6876
  987MOL0     C33175   8.672   9.840   4.171 -0.4019  0.0244 -0.2414
  987MOL0     C33176   8.539  10.142   3.988 -0.4656 -0.6402  0.9551
  987MOL0     C33177   8.418  10.186   4.047 -0.0340 -0.4092 -0.6025
  987MOL0     H33178   8.178  10.524   4.276 -0.2401 -0.2464  1.9450
  987MOL0     H33179   7.987  10.663   4.351  0.6816 -1.4591  1.4478
  987MOL0     H33180   7.597  10.547   4.208  1.8098  0.0363 -0.2938
  987MOL0     H33181   7.565  10.497   4.375 -0.6801  1.6874  0.3158
  987MOL0     H33182   7.536  10.725   4.454 -3.9719  0.4523  0.6217
  987MOL0     H33183   7.541  10.784   4.292  1.4773  0.8291  1.3775
  987MOL0     H33184   7.356  10.622   4.240  0.3964 -1.7365  0.2740
  987MOL0     H33185   7.363  10.547   4.388  1.3867 -1.1636 -2.4507
  987MOL0     H33186   7.300  10.791   4.498  1.1139  2.2597 -1.5944
  987MOL0     H33187   7.291  10.854   4.343 -4.0813  0.6790 -2.6436
  987MOL0     H33188   7.094  10.711   4.285 -1.9663  1.3457  0.0723
  987MOL0     H33189   7.121  10.605   4.425 -1.5131 -0.1276 -0.2067
  987MOL0     H33190   7.087  10.828   4.556 -0.8717  0.4653  0.5825
  987MOL0     H33191   7.034  10.898   4.412  1.3428  0.4976  1.4007
  987MOL0     H33192   6.865  10.688   4.415 -0.6764  0.4608  1.2809
  987MOL0     H33193   6.936  10.655   4.571 -0.8177  0.7883  1.4229
  987MOL0     H33194   6.790  10.920   4.508 -1.6922  2.1257  2.2034
  987MOL0     H33195   6.870  10.882   4.652  2.3945  0.2352 -1.5650
  987MOL0     H33196   6.684  10.778   4.836 -1.7656  1.1517  1.0017
  987MOL0     H33197   6.427  10.735   4.924  0.3325 -0.5066 -0.1688
  987MOL0     H33198   6.330  10.804   4.798  3.6779  2.6654 -1.7486
  987MOL0     H33199   6.287  10.562   4.895  1.4859  0.1991 -0.3989
  987MOL0     H33200   6.430  10.513   4.791  1.5200  1.7721 -1.6839
  987MOL0     H33201   6.324  10.530   4.596  1.0042  2.0699  0.9041
  987MOL0     H33202   6.208  10.650   4.640 -2.6717 -1.0759  1.0600
  987MOL0     H33203   6.059  10.490   4.663 -0.1303  0.1892  0.3709
  987MOL0     H33204   6.141  10.419   4.805  1.2475 -1.8494 -0.5083
  987MOL0     H33205   6.365  10.228   4.523 -2.5261 -0.0035  0.9237
  987MOL0     H33206   6.564  10.121   4.505 -0.8785 -0.3225  0.1097
  987MOL0     H33207   6.656  10.082   4.661 -0.1653  0.8445  0.3201
  987MOL0     H33208   6.570   9.956   4.579  3.0830 -0.2819 -2.0930
  987MOL0     H33209   6.683   9.976   5.214 -0.4053 -0.3875 -0.2424
  987MOL0     H33210   6.751   9.808   5.363 -1.2691 -0.6477  1.2685
  987MOL0     H33211   6.566   9.413   5.358 -1.5091  2.9054 -0.2837
  987MOL0     H33212   6.684   9.419   5.491  1.2641  2.4238  0.2826
  987MOL0     H33213   6.583   9.560   5.623  1.4907  0.4637 -0.5873
  987MOL0     H33214   6.480   9.634   5.501 -0.7260 -0.7828  2.1935
  987MOL0     H33215   6.344   9.436   5.491 -0.2487  2.5090 -0.5627
  987MOL0     H33216   6.349   9.497   5.646 -1.5563 -1.9421 -0.7354
  987MOL0     H33217   6.537   9.278   5.581 -0.8657  0.2261 -1.1841
  987MOL0     H33218   6.513   9.366   5.739 -0.1633 -3.1745  2.0251
  987MOL0     H33219   6.272   9.264   5.621  0.9701  2.0533 -0.3170
  987MOL0     H33220   6.313   9.300   5.788  1.0255 -3.1323  1.7829
  987MOL0     H33221   6.422   9.058   5.642 -0.8544  0.2205 -0.2070
  987MOL0     H33222   6.427   9.088   5.817 -1.1220  0.6304  1.5439
  987MOL0     H33223   6.156   9.066   5.670  0.4418  1.2748 -0.1262
  987MOL0     H33224   6.193   9.081   5.839  3.4307  4.2540 -1.0738
  987MOL0     H33225   6.300   8.875   5.860 -1.3057  1.2621  0.6193
  987MOL0     H33226   6.310   8.842   5.683 -0.0963 -0.0365  0.0306
  987MOL0     H33227   6.505   9.524   5.152  0.0012  0.2299 -1.1681
  987MOL0     H33228   6.412   9.708   5.014 -1.2042 -0.2532  0.7882
  987MOL0     H33229   6.268  10.063   4.981 -0.0815  0.7369 -0.1136
  987MOL0     H33230   6.123  10.185   4.869  1.6052 -2.9283  0.6956
  987MOL0     H33231   7.717  10.345   4.250  1.6430 -1.2855 -0.3519
  987MOL0     H33232   7.895  10.220   4.179 -0.6933  0.8398 -0.0562
  987MOL0     H33233   8.212  10.037   3.833 -0.3388  0.2545  1.6452
  987MOL0     H33234   8.413   9.970   3.730 -5.2016  2.0248 -1.2721
  987MOL0     H33235   8.619   9.834   3.793  2.1364 -1.2883 -1.8173
  987MOL0     H33236   8.649   9.926   3.648 -0.9769  3.1759 -0.4736
  987MOL0     H33237   8.893   9.931   3.726 -0.7909  0.2821 -1.5939
  987MOL0     H33238   8.829   9.772   3.691  2.0964  2.3624 -2.4102
  987MOL0     H33239   8.985   9.774   3.883  0.7042  3.1352  2.6176
  987MOL0     H33240   8.828   9.714   3.931 -1.1750  0.1989  2.9099
  987MOL0     H33241   8.867  10.007   3.972  0.8696  0.2167  0.2485
  987MOL0     H33242   8.971   9.905   4.071 -0.8678  1.4692  0.4395
  987MOL0     H33243   8.591   9.817   4.237  3.4392 -0.9758  4.7351
  987MOL0     H33244   8.634  10.155   4.038 -0.3611  0.9267  0.4066
  987MOL0     H33245   8.424  10.261   4.125 -3.6059  0.4677 -1.0105
  988MOL0     O33246   5.292   6.340   4.463 -0.5211  0.2695  0.8833
  988MOL0     C33247   5.351   6.451   4.454 -1.2728 -0.2458 -0.4472
  988MOL0     O33248   5.445   6.486   4.358 -0.9287 -0.0320  0.6152
  988MOL0     C33249   5.489   6.382   4.279 -0.0111  0.8616  0.8622
  988MOL0     C33250   5.417   6.354   4.159 -0.0559 -0.1864 -0.4348
  988MOL0     C33251   5.469   6.267   4.059 -0.0250  0.8899  0.1887
  988MOL0     C33252   5.600   6.219   4.083 -0.6504  0.4189  0.0887
  988MOL0     O33253   5.679   6.150   4.001  0.4223 -0.2121 -1.1168
  988MOL0     C33254   5.636   6.125   3.867  0.2161  0.7405  0.6052
  988MOL0     C33255   5.731   6.173   3.758 -0.2881  0.7517 -0.3615
  988MOL0     C33256   5.699   6.111   3.623  0.1857 -0.8495 -0.1366
  988MOL0     C33257   5.734   6.206   3.503 -0.0324  0.4297 -0.4455
  988MOL0     C33258   5.725   6.142   3.367 -0.0629  0.7904 -0.1206
  988MOL0     C33259   5.766   6.253   3.266 -0.0384  0.3795 -0.7614
  988MOL0     C33260   5.803   6.185   3.128 -0.5720 -0.6806  0.6631
  988MOL0     C33261   5.933   6.103   3.134 -0.1537 -0.1913 -0.8546
  988MOL0     N33262   6.025   6.147   3.027  0.1391  0.4638  0.3684
  988MOL0     C33263   6.014   6.114   2.892 -0.3379 -0.6030  0.0122
  988MOL0     C33264   6.096   6.197   2.830  1.1054 -0.8473  0.2165
  988MOL0     C33265   6.125   6.203   2.677  0.0957  0.4869 -0.3765
  988MOL0     C33266   6.129   6.352   2.622 -1.0762  0.2656 -0.6572
  988MOL0     C33267   6.002   6.443   2.648 -0.3385 -0.3004  0.5243
  988MOL0     C33268   5.882   6.420   2.546  0.5744  0.3153 -0.2939
  988MOL0     O33269   5.843   6.284   2.537 -0.1971 -0.3160  0.0592
  988MOL0     C33270   5.751   6.248   2.637  0.1995  0.2249 -0.2868
  988MOL0     C33271   5.694   6.117   2.624 -0.4830  0.7439  0.0985
  988MOL0     C33272   5.594   6.075   2.712  0.4205  0.2165  1.5081
  988MOL0     C33273   5.560   5.925   2.695  0.3696  0.1510  0.0752
  988MOL0     C33274   5.546   6.167   2.809  0.0099 -0.4214 -0.6057
  988MOL0     C33275   5.444   6.125   2.910  0.3899 -1.6839  0.2175
  988MOL0     O33276   5.451   6.182   3.032  0.8942  0.2998 -1.0647
  988MOL0     C33277   5.368   6.163   3.141  0.3073  0.4259  0.2705
  988MOL0     C33278   5.382   6.235   3.261 -0.1175  0.5582 -0.0198
  988MOL0     C33279   5.291   6.212   3.371  0.1786 -0.5906  0.5782
  988MOL0     C33280   5.206   6.109   3.373 -0.3926  0.0049  0.0704
  988MOL0     O33281   5.124   6.074   3.478 -0.2971  0.2073  0.1567
  988MOL0     C33282   5.146   6.151   3.605  0.9371 -0.2946 -0.3889
  988MOL0     C33283   5.035   6.149   3.717  0.0810 -0.0479  0.3083
  988MOL0     C33284   4.890   6.142   3.669  0.6138  0.5684  0.5842
  988MOL0     C33285   4.850   6.009   3.617 -0.2038  0.7450  0.0061
  988MOL0     C33286   4.704   5.990   3.583 -0.1436 -0.1192 -0.3445
  988MOL0     C33287   4.653   6.103   3.502  0.0716  1.0961  0.0757
  988MOL0     C33288   4.508   6.092   3.470  0.3124  0.4858 -0.6519
  988MOL0     C33289   4.484   6.212   3.380  0.4764 -0.1870 -0.3991
  988MOL0    Cl33290   4.309   6.201   3.347  0.2913 -0.4303 -0.0166
  988MOL0     C33291   5.198   6.029   3.261  0.1583  0.0567  0.3703
  988MOL0     C33292   5.271   6.057   3.152  0.0163 -1.0131  0.2295
  988MOL0     O33293   5.361   6.044   2.873  0.5529  1.1202  0.1108
  988MOL0     C33294   5.613   6.288   2.834 -0.1045  0.0998 -0.8384
  988MOL0     C33295   5.712   6.332   2.754 -1.7125 -0.6082 -0.5049
  988MOL0     N33296   6.153   6.291   2.920  0.0512 -0.3389  0.7508
  988MOL0     N33297   6.105   6.257   3.044 -0.0070  0.7430  0.1525
  988MOL0     C33298   5.662   6.228   4.209 -0.5615 -0.3298 -0.3698
  988MOL0     C33299   5.607   6.312   4.307 -0.0651 -0.0142  0.4782
  988MOL0     C33300   5.295   6.550   4.549 -0.0112 -0.2534  0.2624
  988MOL0     C33301   5.303   6.681   4.520  0.3978 -0.7631 -0.0124
  988MOL0     C33302   5.242   6.781   4.602  0.7324 -0.1787  0.4261
  988MOL0     C33303   5.182   6.739   4.723  0.5170 -0.2904 -0.5825
  988MOL0     O33304   5.122   6.835   4.804 -0.0242  0.1853 -0.2210
  988MOL0     C33305   4.986   6.816   4.824  0.5415 -0.4783 -0.2367
  988MOL0     C33306   4.931   6.951   4.887  1.2310 -0.5425  0.1416
  988MOL0     C33307   4.783   6.956   4.897 -0.2780 -0.3614 -0.3367
  988MOL0     C33308   4.739   6.871   5.010 -0.4024  0.7495  0.0962
  988MOL0     C33309   4.604   6.918   5.020 -0.3386  0.0233  0.4596
  988MOL0     C33310   4.488   6.959   5.040  0.1226 -0.2857  0.0873
  988MOL0     C33311   5.173   6.605   4.751 -0.2439  0.8050 -0.5835
  988MOL0     C33312   5.229   6.510   4.664  0.6285 -0.1111 -0.1034
  988MOL0     H33313   5.334   6.422   4.141  0.5062  0.3800 -0.9563
  988MOL0     H33314   5.405   6.256   3.972  1.4161  0.9553 -0.9289
  988MOL0     H33315   5.625   6.017   3.858 -0.1700  0.9077 -1.0963
  988MOL0     H33316   5.541   6.169   3.836 -0.4310 -0.4550  0.8258
  988MOL0     H33317   5.736   6.281   3.747  0.8938  1.1473  3.0305
  988MOL0     H33318   5.826   6.138   3.799 -0.5978  1.6163  1.1748
  988MOL0     H33319   5.761   6.021   3.621  1.8703  0.2086  1.1408
  988MOL0     H33320   5.591   6.095   3.616 -0.2573  0.3600  2.4558
  988MOL0     H33321   5.662   6.288   3.501 -2.8737 -1.9234 -2.5053
  988MOL0     H33322   5.838   6.230   3.528 -0.8510  1.6202  2.1377
  988MOL0     H33323   5.788   6.053   3.363 -0.3979  0.5930 -1.8811
  988MOL0     H33324   5.625   6.108   3.337 -0.1215 -1.6625  2.4267
  988MOL0     H33325   5.675   6.313   3.263  1.5983  3.1237  0.8112
  988MOL0     H33326   5.851   6.313   3.300 -0.4633 -0.2383  1.5360
  988MOL0     H33327   5.716   6.127   3.095 -0.3523 -0.9182  0.4994
  988MOL0     H33328   5.826   6.273   3.068 -0.7613 -0.0226  1.5480
  988MOL0     H33329   5.909   5.997   3.117 -2.7675  0.3847 -1.1914
  988MOL0     H33330   5.990   6.114   3.227 -1.5358 -1.3829  0.1813
  988MOL0     H33331   5.949   6.038   2.850  1.9340 -2.8845  0.3256
  988MOL0     H33332   6.211   6.142   2.647 -0.6738 -0.3914 -0.8559
  988MOL0     H33333   6.038   6.155   2.631 -3.5348  2.1655  3.9474
  988MOL0     H33334   6.151   6.334   2.516 -0.5516 -1.2747 -0.3106
  988MOL0     H33335   6.211   6.399   2.677 -0.5666 -1.5589  0.2196
  988MOL0     H33336   6.043   6.541   2.623 -0.4037 -0.0479  1.3475
  988MOL0     H33337   5.966   6.443   2.752 -0.5096  1.2876  0.4834
  988MOL0     H33338   5.906   6.454   2.444  0.3104  2.1007  0.2025
  988MOL0     H33339   5.801   6.486   2.577  0.9484  0.9212 -0.5897
  988MOL0     H33340   5.722   6.052   2.542 -1.7150 -0.6402  0.7172
  988MOL0     H33341   5.494   5.913   2.608  2.9989 -1.3568 -1.8879
  988MOL0     H33342   5.653   5.869   2.684  1.1127  1.2397  0.5881
  988MOL0     H33343   5.500   5.887   2.778 -0.4702  0.7241 -0.2460
  988MOL0     H33344   5.461   6.309   3.271  2.0449 -1.7809  1.3730
  988MOL0     H33345   5.295   6.282   3.454 -1.3772 -2.3401  2.2479
  988MOL0     H33346   5.245   6.116   3.636  0.2140 -3.5392 -1.3129
  988MOL0     H33347   5.150   6.258   3.586  2.1658 -0.7806 -3.3796
  988MOL0     H33348   5.060   6.072   3.791 -0.2820  0.5500  1.0559
  988MOL0     H33349   5.045   6.249   3.758  1.0412  0.1978 -0.4848
  988MOL0     H33350   4.878   6.215   3.588 -0.0930  0.9136  0.9841
  988MOL0     H33351   4.817   6.171   3.746 -0.2676  2.8152 -0.9867
  988MOL0     H33352   4.908   5.986   3.528 -2.2044  0.8818 -1.3944
  988MOL0     H33353   4.877   5.936   3.694 -1.8198  0.8304  0.6917
  988MOL0     H33354   4.645   5.987   3.675 -2.5088  0.2958 -1.7679
  988MOL0     H33355   4.677   5.895   3.536  0.7370 -1.5377  1.8854
  988MOL0     H33356   4.669   6.195   3.560  2.4643  0.7774  0.0037
  988MOL0     H33357   4.709   6.101   3.408  1.1653 -0.5778  0.7300
  988MOL0     H33358   4.469   6.091   3.572  1.4076  2.4635 -0.1680
  988MOL0     H33359   4.496   5.999   3.413  1.9825 -0.2961  0.2059
  988MOL0     H33360   4.544   6.217   3.288 -0.5901  0.1771 -1.0971
  988MOL0     H33361   4.501   6.307   3.432  3.2523 -1.1714  0.6810
  988MOL0     H33362   5.131   5.945   3.246  1.3650 -1.1756  1.6094
  988MOL0     H33363   5.269   5.976   3.080  0.1410 -4.6075  3.8984
  988MOL0     H33364   5.585   6.345   2.922  3.4592  1.4683 -0.4320
  988MOL0     H33365   5.767   6.423   2.776 -0.3413 -1.4907 -0.1633
  988MOL0     H33366   5.757   6.183   4.237 -0.9039 -0.5530  0.4412
  988MOL0     H33367   5.670   6.337   4.392 -1.6384  0.7854  1.4689
  988MOL0     H33368   5.356   6.715   4.431 -1.2554  0.7606 -0.4642
  988MOL0     H33369   5.244   6.885   4.569 -2.0025 -0.1307  0.2048
  988MOL0     H33370   4.933   6.812   4.729 -1.7044 -2.9270  0.9535
  988MOL0     H33371   4.973   6.733   4.895  0.3248  0.0166  0.3138
  988MOL0     H33372   4.961   7.036   4.825  2.5157 -0.1666  1.2228
  988MOL0     H33373   4.979   6.966   4.984 -1.9987  0.4910  1.7435
  988MOL0     H33374   4.744   6.917   4.803  0.5103 -1.2616 -0.3076
  988MOL0     H33375   4.763   7.063   4.910 -1.7857 -0.1616 -3.3808
  988MOL0     H33376   4.788   6.890   5.106  0.5297 -1.4129  0.0986
  988MOL0     H33377   4.741   6.772   4.964 -0.3713  1.8198 -2.3954
  988MOL0     H33378   4.385   6.989   5.046  0.1691 -0.2624  0.8593
  988MOL0     H33379   5.123   6.576   4.843  0.3771  3.6323  0.7440
  988MOL0     H33380   5.215   6.406   4.693  0.0537 -0.2592 -0.8760
  989MOL0     O33381   2.303   7.813   0.170 -0.0056  0.3464 -0.9655
  989MOL0     C33382   2.332   7.902   0.252  0.3111 -1.4812  0.3819
  989MOL0     O33383   2.273   8.031   0.256 -1.0829  0.1005  0.1248
  989MOL0     C33384   2.156   8.031   0.184  0.6579  0.8299 -0.2694
  989MOL0     C33385   2.139   8.092   0.062 -0.5567  0.1871  0.0604
  989MOL0     C33386   2.026   8.091  -0.017 -0.0697 -0.6726 -0.3894
  989MOL0     C33387   1.917   8.008   0.025  0.2520  0.3195 -0.1258
  989MOL0     O33388   1.811   8.012  -0.061 -0.2171 -0.7355  0.3814
  989MOL0     C33389   1.679   8.001  -0.002  0.3086  0.2322 -0.2208
  989MOL0     C33390   1.576   8.051  -0.111 -0.6013  0.5325 -0.9280
  989MOL0     C33391   1.432   8.013  -0.071 -1.0320 -0.0245  0.2339
  989MOL0     C33392   1.377   8.123   0.015 -0.9480  0.1124 -0.4557
  989MOL0     C33393   1.232   8.088   0.069  0.4364 -0.3442  0.1014
  989MOL0     C33394   1.133   8.029  -0.031 -0.1435 -0.2269  0.5872
  989MOL0     C33395   1.011   7.969   0.039  0.0743  0.6055 -0.0717
  989MOL0     C33396   0.908   7.915  -0.058 -1.1534  0.4028 -0.4781
  989MOL0     N33397   0.853   8.020  -0.151  0.3970  0.2424 -0.1539
  989MOL0     C33398   0.885   8.029  -0.276 -0.6436 -1.1148  0.7443
  989MOL0     C33399   0.807   8.130  -0.326 -0.1382  0.3037 -0.1328
  989MOL0     C33400   0.808   8.166  -0.461  0.9808  0.6744  0.5284
  989MOL0     C33401   0.687   8.098  -0.538 -0.1839  0.4611 -0.5290
  989MOL0     C33402   0.659   8.170  -0.676  0.5986 -0.1988  0.6281
  989MOL0     C33403   0.541   8.088  -0.737  0.3557 -0.4033  0.0137
  989MOL0     O33404   0.494   8.159  -0.855 -0.0655  0.4131 -0.6003
  989MOL0     C33405   0.460   8.089  -0.967  0.3180 -0.3223 -0.9730
  989MOL0     C33406   0.481   8.151  -1.094  0.7253 -0.3994 -1.1684
  989MOL0     C33407   0.437   8.102  -1.209  0.5194  0.3152  1.0383
  989MOL0     C33408   0.437   8.196  -1.328 -0.2593  0.6820 -0.4287
  989MOL0     C33409   0.366   7.980  -1.215 -0.6508  0.3336 -0.8069
  989MOL0     C33410   0.292   7.927  -1.330  0.7164 -0.9410 -0.5634
  989MOL0     O33411   0.211   8.015  -1.402  0.1942  0.4402 -0.2215
  989MOL0     C33412   0.112   7.953  -1.481  0.5413 -1.2540 -0.0854
  989MOL0     C33413  -0.024   7.999  -1.465 -0.5345  0.5439  0.1666
  989MOL0     C33414  -0.126   7.932  -1.545  0.0230 -0.0040  0.0443
  989MOL0     C33415  -0.089   7.837  -1.639 -0.7615 -0.2530 -0.0776
  989MOL0     O33416  -0.171   7.756  -1.705 -0.5292  0.0866 -0.1630
  989MOL0     C33417  -0.311   7.764  -1.683  0.0710 -0.8002  0.2876
  989MOL0     C33418  -0.387   7.668  -1.773  0.0918 -0.0877 -0.2326
  989MOL0     C33419  -0.337   7.524  -1.761 -0.2952  0.2086  0.8474
  989MOL0     C33420  -0.411   7.422  -1.851 -0.4393  0.0268  0.1396
  989MOL0     C33421  -0.555   7.411  -1.810 -0.1918 -0.0683 -0.9129
  989MOL0     C33422  -0.643   7.319  -1.907 -0.2820  0.8294  0.8019
  989MOL0     C33423  -0.638   7.364  -2.050  0.4648 -1.0413  0.2683
  989MOL0     C33424  -0.704   7.502  -2.057  0.1529 -0.5596  0.3902
  989MOL0    Cl33425  -0.859   7.504  -1.987  0.0110  0.5216  0.0378
  989MOL0     C33426   0.047   7.810  -1.659 -0.8029  0.6375  0.9200
  989MOL0     C33427   0.154   7.868  -1.581  1.2092 -0.8011  0.4953
  989MOL0     O33428   0.286   7.806  -1.342 -0.0813  0.2859  0.0478
  989MOL0     C33429   0.341   7.912  -1.090  0.6043 -1.1854 -0.5103
  989MOL0     C33430   0.384   7.970  -0.967 -0.8771  0.3075 -0.6414
  989MOL0     N33431   0.727   8.176  -0.230  0.1439 -0.1077  0.0206
  989MOL0     N33432   0.756   8.114  -0.115  0.0729  0.5453  1.0915
  989MOL0     C33433   1.930   7.930   0.147  0.7946 -0.0592 -0.4334
  989MOL0     C33434   2.045   7.949   0.225 -0.4558 -0.3828 -0.3147
  989MOL0     C33435   2.418   7.876   0.359 -0.5617  0.4414  0.1698
  989MOL0     C33436   2.547   7.807   0.328  0.5108 -0.0623  0.5777
  989MOL0     C33437   2.632   7.777   0.426 -0.4350 -1.4014 -0.1269
  989MOL0     C33438   2.609   7.827   0.559 -0.5136  0.2399 -0.3107
  989MOL0     O33439   2.704   7.831   0.659 -0.3814  0.1452  0.0196
  989MOL0     C33440   2.847   7.817   0.653  0.2581  0.1607 -1.0500
  989MOL0     C33441   2.915   7.881   0.773  0.4824  1.0383  0.5948
  989MOL0     C33442   2.871   7.798   0.901 -0.6635  0.0041 -0.1474
  989MOL0     C33443   2.948   7.854   1.022  0.5183  1.0684 -0.9551
  989MOL0     C33444   2.888   7.795   1.145 -0.1930  0.3918 -0.1200
  989MOL0     C33445   2.837   7.772   1.255 -0.0997  0.6926 -0.2163
  989MOL0     C33446   2.491   7.889   0.590 -0.3145  0.3943 -0.0244
  989MOL0     C33447   2.397   7.917   0.486  0.4489 -0.3139 -0.2157
  989MOL0     H33448   2.225   8.141   0.018 -0.9082 -0.5493 -1.5159
  989MOL0     H33449   2.029   8.141  -0.113  1.5227 -2.0831 -1.1270
  989MOL0     H33450   1.654   7.898   0.025 -2.3749  0.8239 -0.1610
  989MOL0     H33451   1.676   8.065   0.087  1.2448 -0.6406  0.4585
  989MOL0     H33452   1.585   8.160  -0.113 -1.8363  0.6416 -1.8587
  989MOL0     H33453   1.589   8.014  -0.213  1.2584 -0.1025 -0.4976
  989MOL0     H33454   1.366   8.011  -0.158 -1.0282  1.1771  0.1842
  989MOL0     H33455   1.424   7.914  -0.026  3.1265 -0.2382  0.9135
  989MOL0     H33456   1.446   8.137   0.099  0.2479  0.2525 -1.4258
  989MOL0     H33457   1.373   8.221  -0.035 -2.7255 -0.3783 -1.3325
  989MOL0     H33458   1.243   8.003   0.137 -0.4301 -0.5388  0.0128
  989MOL0     H33459   1.194   8.182   0.110  0.2023  0.6100 -2.2002
  989MOL0     H33460   1.099   8.110  -0.096  0.0820 -0.6446 -0.0610
  989MOL0     H33461   1.175   7.948  -0.092 -2.0453  0.5823 -1.9875
  989MOL0     H33462   1.042   7.890   0.109  1.3896  1.1651  0.0105
  989MOL0     H33463   0.960   8.046   0.097  1.9694  1.7917  0.0997
  989MOL0     H33464   0.826   7.861  -0.011  0.5506 -0.3334  1.8307
  989MOL0     H33465   0.958   7.843  -0.123 -1.2566  1.2034 -1.4704
  989MOL0     H33466   0.967   7.981  -0.328  0.6444  2.2902 -0.6921
  989MOL0     H33467   0.787   8.273  -0.468 -3.9002 -0.1567 -2.0387
  989MOL0     H33468   0.904   8.141  -0.507 -0.1578 -1.7509 -0.7448
  989MOL0     H33469   0.593   8.113  -0.486 -1.9675 -2.1036 -2.7034
  989MOL0     H33470   0.708   7.993  -0.563  0.7989  0.7816 -1.1147
  989MOL0     H33471   0.746   8.162  -0.742  0.1169 -1.1222  0.0873
  989MOL0     H33472   0.639   8.276  -0.656  0.7039  0.1866 -1.1655
  989MOL0     H33473   0.455   8.085  -0.670 -0.5845 -1.7481 -1.2078
  989MOL0     H33474   0.577   7.992  -0.775  4.6810  1.5521 -1.4544
  989MOL0     H33475   0.525   8.250  -1.102 -2.2546  1.0234 -1.2632
  989MOL0     H33476   0.338   8.240  -1.339  0.1091  1.0806 -2.7453
  989MOL0     H33477   0.514   8.273  -1.317  0.3798 -0.0779  0.5776
  989MOL0     H33478   0.477   8.143  -1.415 -0.2403  1.9921 -1.2445
  989MOL0     H33479  -0.044   8.054  -1.374 -0.4785  1.4034 -0.3308
  989MOL0     H33480  -0.226   7.955  -1.512  1.1435 -0.5475  4.4465
  989MOL0     H33481  -0.337   7.735  -1.581 -1.4523  1.1002  0.4904
  989MOL0     H33482  -0.338   7.867  -1.705  0.9432 -0.1050  2.1958
  989MOL0     H33483  -0.492   7.676  -1.743 -0.0003 -0.7050 -0.3700
  989MOL0     H33484  -0.369   7.708  -1.874 -0.6899  2.4569  0.5632
  989MOL0     H33485  -0.347   7.492  -1.656  0.2736 -0.0434  0.8251
  989MOL0     H33486  -0.229   7.529  -1.775 -0.5478 -1.3447 -2.5037
  989MOL0     H33487  -0.415   7.468  -1.950 -1.3464  0.7154  0.4855
  989MOL0     H33488  -0.358   7.327  -1.865 -0.2394  0.4200 -2.2915
  989MOL0     H33489  -0.609   7.505  -1.802 -0.9624 -0.6059  0.5268
  989MOL0     H33490  -0.567   7.371  -1.709 -1.0663 -1.2672 -1.4670
  989MOL0     H33491  -0.617   7.212  -1.908  0.1191  0.8593 -2.4698
  989MOL0     H33492  -0.739   7.326  -1.855  1.5138 -0.6211  4.7975
  989MOL0     H33493  -0.693   7.298  -2.118  0.5145  0.6429 -1.4714
  989MOL0     H33494  -0.537   7.364  -2.093 -1.0461 -1.1346 -3.7526
  989MOL0     H33495  -0.709   7.527  -2.163  0.1058 -2.6863 -0.1645
  989MOL0     H33496  -0.646   7.580  -2.006 -0.5831  0.3074 -0.0757
  989MOL0     H33497   0.089   7.744  -1.734 -0.4657  1.5950  0.2486
  989MOL0     H33498   0.260   7.844  -1.590  0.8446 -1.7935 -1.6553
  989MOL0     H33499   0.277   7.824  -1.094 -0.2805 -0.7740  2.5196
  989MOL0     H33500   0.364   7.909  -0.880 -0.9626 -0.2843 -1.0715
  989MOL0     H33501   1.858   7.853   0.173  1.8500 -0.7186  0.6440
  989MOL0     H33502   2.075   7.885   0.307  0.5644  2.6824  1.9056
  989MOL0     H33503   2.576   7.794   0.225  1.8476 -0.9827  1.0342
  989MOL0     H33504   2.727   7.734   0.395 -0.3482 -1.7734  0.6302
  989MOL0     H33505   2.860   7.708   0.648 -0.5934 -0.1618  2.0191
  989MOL0     H33506   2.873   7.869   0.560  0.5343  2.7165  0.3569
  989MOL0     H33507   2.892   7.987   0.790  2.3142  1.0031  4.2171
  989MOL0     H33508   3.024   7.879   0.767  0.5575  2.2357  1.2781
  989MOL0     H33509   2.904   7.694   0.899 -0.9727 -0.0930 -0.5145
  989MOL0     H33510   2.765   7.811   0.922 -0.5613  1.0841 -0.2451
  989MOL0     H33511   2.918   7.960   1.024 -1.6175  0.5027 -1.0599
  989MOL0     H33512   3.056   7.840   1.035  0.1137 -1.8570 -0.0139
  989MOL0     H33513   2.788   7.741   1.346  1.0830  2.1817  0.9802
  989MOL0     H33514   2.467   7.919   0.691 -1.2508 -1.7648  0.4413
  989MOL0     H33515   2.309   7.969   0.523  0.2880 -1.8865  1.8233
  990MOL0     O33516   2.638   4.483   9.741  0.2338  0.3686  0.6190
  990MOL0     C33517   2.597   4.404   9.823 -0.3966 -0.0389 -0.1078
  990MOL0     O33518   2.614   4.416   9.963 -0.0145  0.0406 -0.0982
  990MOL0     C33519   2.709   4.503  10.003 -0.1651 -0.9630  0.3238
  990MOL0     C33520   2.841   4.455   9.982  0.3374  0.7224  0.1163
  990MOL0     C33521   2.944   4.543  10.015 -0.1555  1.3293  0.0670
  990MOL0     C33522   2.912   4.671  10.068 -0.9421  0.3284 -0.8578
  990MOL0     O33523   3.023   4.749  10.101 -0.2789 -0.1094 -0.1978
  990MOL0     C33524   3.005   4.877  10.164 -0.4482  0.1853  0.2165
  990MOL0     C33525   3.137   4.944  10.171 -0.6956 -0.1590 -0.1278
  990MOL0     C33526   3.239   4.872  10.257 -0.5374 -0.8451  0.0733
  990MOL0     C33527   3.359   4.969  10.288  0.0141 -0.3764  0.2057
  990MOL0     C33528   3.482   4.907  10.364 -0.2801 -0.3047 -0.4239
  990MOL0     C33529   3.602   4.996  10.371 -0.1180  0.6045  0.4837
  990MOL0     C33530   3.607   5.089  10.497  0.5853  0.8200 -0.3934
  990MOL0     C33531   3.721   5.184  10.484  0.5690 -0.7440  0.5225
  990MOL0     N33532   3.696   5.273  10.373  0.3004  0.4986  0.0090
  990MOL0     C33533   3.575   5.322  10.332 -0.6220 -0.0909 -0.4719
  990MOL0     C33534   3.604   5.424  10.249 -0.1325 -0.3652  0.3720
  990MOL0     C33535   3.510   5.510  10.166  0.0345  0.5216  0.1301
  990MOL0     C33536   3.512   5.474  10.011  0.1856  0.3861 -0.0009
  990MOL0     C33537   3.393   5.535   9.935 -0.3958  0.1484  0.7230
  990MOL0     C33538   3.286   5.431   9.907 -0.1933  0.3643 -0.3224
  990MOL0     O33539   3.197   5.422  10.011 -0.2676  0.0815  0.1501
  990MOL0     C33540   3.086   5.336   9.986  0.0234  0.4498  0.3215
  990MOL0     C33541   2.991   5.347  10.085  0.5569  0.8971  0.5497
  990MOL0     C33542   2.870   5.278  10.081 -0.1923 -0.1682 -0.5634
  990MOL0     C33543   2.778   5.315  10.196  0.3367 -0.2642  0.3067
  990MOL0     C33544   2.844   5.187   9.978  0.7332 -0.1042 -0.4845
  990MOL0     C33545   2.719   5.111   9.967 -0.1994  0.0799  0.8573
  990MOL0     O33546   2.662   5.104   9.841  0.6427  0.2122  0.8433
  990MOL0     C33547   2.543   5.033   9.831 -0.7095  0.2513 -0.3943
  990MOL0     C33548   2.422   5.100   9.842 -0.4551 -1.0079  0.5019
  990MOL0     C33549   2.309   5.028   9.835  1.3874  1.1037 -0.1701
  990MOL0     C33550   2.307   4.882   9.833 -0.6513  0.0437 -0.5882
  990MOL0     O33551   2.197   4.806   9.841 -0.0120 -0.0547 -0.3603
  990MOL0     C33552   2.174   4.702   9.944 -0.6456  0.2070 -0.2205
  990MOL0     C33553   2.083   4.603   9.877 -0.8365  0.1923  0.0035
  990MOL0     C33554   2.167   4.498   9.801  0.0934  0.4863  0.0766
  990MOL0     C33555   2.097   4.384   9.733  0.4846  0.5108 -0.0099
  990MOL0     C33556   1.994   4.440   9.629 -0.6793 -0.8535  0.1954
  990MOL0     C33557   1.857   4.388   9.638 -0.0587  0.2196 -0.1112
  990MOL0     C33558   1.775   4.408   9.768 -0.3820 -1.0625 -0.0648
  990MOL0     C33559   1.624   4.395   9.743  0.5799  0.1838  0.1922
  990MOL0    Cl33560   1.572   4.226   9.703  0.2917  0.7045  0.0242
  990MOL0     C33561   2.432   4.818   9.827 -0.6154  0.0580 -0.5674
  990MOL0     C33562   2.545   4.898   9.822 -0.4033  0.6394  0.0431
  990MOL0     O33563   2.688   5.048  10.067 -0.3409  0.3144 -0.1521
  990MOL0     C33564   2.947   5.165   9.884 -0.5782  0.8423 -0.1293
  990MOL0     C33565   3.074   5.236   9.890  0.8446  0.0262  0.6998
  990MOL0     N33566   3.740   5.443  10.246  0.0108  0.1696 -0.9211
  990MOL0     N33567   3.800   5.346  10.316  0.4310 -0.2360 -0.8797
  990MOL0     C33568   2.778   4.719  10.082 -0.4862  0.0418  0.1802
  990MOL0     C33569   2.681   4.631  10.048  0.1537 -0.5693  0.9512
  990MOL0     C33570   2.505   4.296   9.781 -0.4634  1.1380 -0.6529
  990MOL0     C33571   2.507   4.264   9.647 -0.6398 -0.5132  0.0738
  990MOL0     C33572   2.427   4.163   9.594 -1.0975  0.0700  0.2771
  990MOL0     C33573   2.353   4.081   9.681  0.2039  0.3477 -0.0291
  990MOL0     O33574   2.281   3.972   9.640  0.1712  0.5683  0.2230
  990MOL0     C33575   2.208   3.896   9.727  0.1085  0.2143  0.2368
  990MOL0     C33576   2.148   3.772   9.654 -0.2370 -0.4295  1.1730
  990MOL0     C33577   2.249   3.687   9.577 -0.3844  0.0511  0.6856
  990MOL0     C33578   2.179   3.637   9.455  0.3737 -0.6933  0.4292
  990MOL0     C33579   2.281   3.569   9.381 -0.0714  0.7222  0.7974
  990MOL0     C33580   2.364   3.518   9.313 -1.2958 -0.2395  0.1341
  990MOL0     C33581   2.363   4.104   9.821  0.6210 -0.2216 -0.7624
  990MOL0     C33582   2.442   4.211   9.869  0.8456  0.4185  0.9630
  990MOL0     H33583   2.846   4.353   9.944 -1.4339  0.8621 -0.6087
  990MOL0     H33584   3.046   4.518   9.988 -0.7410 -0.9169 -0.2424
  990MOL0     H33585   2.940   4.947  10.112 -1.5386 -1.4899 -0.7812
  990MOL0     H33586   2.955   4.856  10.259  0.3533 -0.8396  0.4337
  990MOL0     H33587   3.168   4.961  10.067 -1.2016  1.9685  0.0234
  990MOL0     H33588   3.124   5.044  10.213  0.3425  0.4109 -1.0984
  990MOL0     H33589   3.198   4.851  10.356  1.7505  3.0419  2.0793
  990MOL0     H33590   3.276   4.777  10.216  0.0242 -0.0640 -1.3236
  990MOL0     H33591   3.396   5.003  10.191  0.3381  0.9269  0.7717
  990MOL0     H33592   3.333   5.057  10.347  3.9042  1.7760 -0.9582
  990MOL0     H33593   3.452   4.891  10.468  0.7093  2.4837  0.3957
  990MOL0     H33594   3.509   4.810  10.321  3.4032  0.3289  0.0789
  990MOL0     H33595   3.681   4.921  10.383 -1.9200 -1.5474 -0.3954
  990MOL0     H33596   3.605   5.045  10.274  0.7087  1.0756  0.7342
  990MOL0     H33597   3.512   5.142  10.512  0.5329  0.5302  0.3328
  990MOL0     H33598   3.631   5.019  10.577 -0.4805  3.7368  2.7247
  990MOL0     H33599   3.810   5.121  10.472 -0.4599 -2.3838  1.1160
  990MOL0     H33600   3.734   5.229  10.583 -0.8001  2.9814 -0.8144
  990MOL0     H33601   3.475   5.287  10.355  0.1757 -2.4630 -0.3103
  990MOL0     H33602   3.408   5.502  10.205 -0.9273  1.7804 -1.9919
  990MOL0     H33603   3.538   5.615  10.179  1.5161  0.4684 -2.0608
  990MOL0     H33604   3.519   5.367   9.988 -0.1655 -0.1358  2.1364
  990MOL0     H33605   3.610   5.511   9.979 -0.6354  2.4288 -0.3265
  990MOL0     H33606   3.445   5.568   9.844  1.4224  1.0516  2.0277
  990MOL0     H33607   3.351   5.621   9.987 -1.2070  0.0204  0.2996
  990MOL0     H33608   3.334   5.334   9.890 -1.3012 -0.6873  2.1823
  990MOL0     H33609   3.235   5.454   9.813  0.9164  1.3144 -0.7147
  990MOL0     H33610   3.006   5.427  10.157 -0.0954  0.5975  1.0268
  990MOL0     H33611   2.786   5.420  10.228 -1.7411  0.6157 -1.7305
  990MOL0     H33612   2.677   5.289  10.163  1.4459 -3.0009 -1.2407
  990MOL0     H33613   2.811   5.249  10.276  1.7268  2.6117  2.2933
  990MOL0     H33614   2.410   5.207   9.851 -2.0813 -1.1178 -0.0981
  990MOL0     H33615   2.211   5.070   9.816  0.6639 -1.7871 -4.1678
  990MOL0     H33616   2.263   4.651   9.982 -0.0905  0.6647 -0.8677
  990MOL0     H33617   2.123   4.741  10.032 -1.9362  1.3528 -1.4110
  990MOL0     H33618   2.023   4.551   9.953 -1.7088 -1.0078 -1.4424
  990MOL0     H33619   2.015   4.669   9.824 -0.5326  3.7362  3.5341
  990MOL0     H33620   2.235   4.449   9.871  0.3380 -0.6178 -0.8987
  990MOL0     H33621   2.227   4.549   9.725 -2.6427  2.7620 -0.7237
  990MOL0     H33622   2.166   4.316   9.683 -1.0155  0.0697 -1.5768
  990MOL0     H33623   2.050   4.322   9.809  1.0816  0.4554  0.3264
  990MOL0     H33624   2.039   4.424   9.531  1.0785  1.2942  0.5787
  990MOL0     H33625   1.983   4.548   9.636 -1.8945 -1.0020  0.9587
  990MOL0     H33626   1.798   4.438   9.561 -1.8735  0.2287  1.2219
  990MOL0     H33627   1.862   4.279   9.624  1.0601  0.1456  0.7086
  990MOL0     H33628   1.785   4.514   9.794 -0.7659 -1.0548  0.0539
  990MOL0     H33629   1.819   4.353   9.853  0.6056  0.9932  0.8380
  990MOL0     H33630   1.601   4.461   9.660 -0.4933  0.7496  0.9097
  990MOL0     H33631   1.563   4.433   9.826  1.1618 -0.9876  1.1908
  990MOL0     H33632   2.447   4.711   9.830 -0.1080  0.1048  3.1335
  990MOL0     H33633   2.639   4.846   9.814 -0.3804 -0.2094  3.9793
  990MOL0     H33634   2.943   5.104   9.795  0.2345  1.0184 -0.2965
  990MOL0     H33635   3.151   5.220   9.816 -2.0445 -0.0088 -2.5306
  990MOL0     H33636   2.747   4.817  10.119  0.1871 -0.1461  1.3041
  990MOL0     H33637   2.578   4.665  10.060 -0.2444 -0.5922 -1.7648
  990MOL0     H33638   2.570   4.314   9.574 -1.9466  2.9445  1.0960
  990MOL0     H33639   2.414   4.160   9.487  1.0783 -0.4207 -0.0074
  990MOL0     H33640   2.267   3.853   9.809  2.5896  1.8360 -0.5665
  990MOL0     H33641   2.124   3.956   9.765  0.4835 -0.2233  1.8644
  990MOL0     H33642   2.081   3.812   9.576 -0.2226 -0.9679  0.8803
  990MOL0     H33643   2.086   3.704   9.713  2.4340 -0.9734  3.5467
  990MOL0     H33644   2.285   3.608   9.644  3.5049  1.2501  0.2900
  990MOL0     H33645   2.339   3.740   9.544 -0.4977  1.2856  2.2233
  990MOL0     H33646   2.127   3.712   9.394  1.0788  0.2798  0.9999
  990MOL0     H33647   2.114   3.554   9.483  0.5171 -2.1132 -2.9590
  990MOL0     H33648   2.436   3.461   9.256  1.5577  1.3336  1.8981
  990MOL0     H33649   2.329   4.048   9.907  0.6492  4.0394  2.3784
  990MOL0     H33650   2.444   4.212   9.978  1.5658 -0.3004  0.9678
  991MOL0     O33651   0.210   5.954   1.471  0.6736  0.2662 -0.2795
  991MOL0     C33652   0.123   5.973   1.388  0.2236 -0.1094  0.2183
  991MOL0     O33653   0.136   6.063   1.284 -0.6054 -0.0643  0.8259
  991MOL0     C33654   0.253   6.136   1.285  0.8635  0.9876  0.4050
  991MOL0     C33655   0.359   6.099   1.204  0.0808  0.6840 -1.3137
  991MOL0     C33656   0.488   6.167   1.217  0.7656 -0.3587  0.5581
  991MOL0     C33657   0.500   6.282   1.291  1.0747  0.5946 -0.0241
  991MOL0     O33658   0.615   6.358   1.305 -0.4317 -0.0256  0.3386
  991MOL0     C33659   0.718   6.345   1.200 -0.1518 -0.2237 -0.0235
  991MOL0     C33660   0.810   6.460   1.219  0.6436  0.6621 -0.6766
  991MOL0     C33661   0.765   6.589   1.149  0.9823 -0.7283  0.4420
  991MOL0     C33662   0.660   6.677   1.214  0.1107 -0.1230 -0.3870
  991MOL0     C33663   0.702   6.737   1.350  0.5408  0.3223 -0.6659
  991MOL0     C33664   0.843   6.812   1.334 -0.5093 -0.3182 -0.1162
  991MOL0     C33665   0.856   6.900   1.456 -0.3793 -1.2645 -0.5151
  991MOL0     C33666   0.966   7.009   1.424  0.0678 -0.1887  0.3740
  991MOL0     N33667   0.970   7.105   1.530 -0.5243  0.2563 -0.4214
  991MOL0     C33668   1.008   7.237   1.525  1.3162  0.8692  0.4510
  991MOL0     C33669   1.011   7.280   1.653  0.0127 -0.5185 -0.0808
  991MOL0     C33670   1.047   7.422   1.685  0.1615  0.6702  0.6631
  991MOL0     C33671   1.203   7.453   1.724  1.4618 -0.6100  0.6315
  991MOL0     C33672   1.225   7.421   1.873 -0.2599 -0.1784 -0.6699
  991MOL0     C33673   1.349   7.490   1.921 -0.8417  0.5424 -0.2821
  991MOL0     O33674   1.469   7.461   1.840  0.2314  0.5927  0.3635
  991MOL0     C33675   1.592   7.443   1.898  0.8799 -0.5182 -0.6265
  991MOL0     C33676   1.695   7.392   1.828 -0.1210  0.0767  0.6654
  991MOL0     C33677   1.822   7.374   1.887  0.2160 -1.0669  0.0449
  991MOL0     C33678   1.926   7.314   1.801 -0.2617 -0.0310 -0.0074
  991MOL0     C33679   1.846   7.431   2.014  0.2607 -0.5761  0.0358
  991MOL0     C33680   1.977   7.445   2.086  0.1504  0.0274  0.7199
  991MOL0     O33681   1.989   7.528   2.194 -0.9706  0.1130  0.3428
  991MOL0     C33682   2.112   7.551   2.248  0.3485 -0.7258  0.6284
  991MOL0     C33683   2.203   7.635   2.178 -0.0757  0.3682 -0.4026
  991MOL0     C33684   2.320   7.658   2.246 -0.8212  0.8046  0.1051
  991MOL0     C33685   2.357   7.604   2.377 -0.0092  0.2657  0.2067
  991MOL0     O33686   2.458   7.628   2.462  0.6156  0.0027  0.1001
  991MOL0     C33687   2.494   7.764   2.464 -0.2876  0.0359  0.4395
  991MOL0     C33688   2.579   7.789   2.594  0.0956  0.2308  0.6408
  991MOL0     C33689   2.486   7.799   2.708 -0.6570  0.3354  0.1800
  991MOL0     C33690   2.555   7.830   2.840  0.9271  0.3811  0.3438
  991MOL0     C33691   2.457   7.884   2.952 -0.2674  0.1546  0.6846
  991MOL0     C33692   2.361   7.776   2.994 -0.0025 -0.4773  0.1611
  991MOL0     C33693   2.298   7.797   3.130 -0.8377  0.7920  0.8934
  991MOL0     C33694   2.175   7.879   3.115  0.2903 -0.2128 -0.1554
  991MOL0    Cl33695   2.150   7.971   3.259  0.1438  0.3946 -0.1133
  991MOL0     C33696   2.263   7.504   2.423 -0.1234 -0.3555 -0.2573
  991MOL0     C33697   2.143   7.485   2.363  0.3827 -0.0122 -0.2620
  991MOL0     O33698   2.063   7.360   2.052  0.4246 -0.2107 -0.0137
  991MOL0     C33699   1.744   7.509   2.076  0.2152 -0.1223 -0.9604
  991MOL0     C33700   1.612   7.497   2.025  0.3850  0.6180  1.0586
  991MOL0     N33701   0.974   7.171   1.728 -0.5986 -0.5237 -0.6682
  991MOL0     N33702   0.945   7.070   1.660  0.5357 -0.3299 -0.3939
  991MOL0     C33703   0.391   6.328   1.356  1.1383  0.3099  0.3133
  991MOL0     C33704   0.277   6.249   1.363  0.3783 -0.4861 -0.3697
  991MOL0     C33705   0.012   5.872   1.388 -0.2847 -0.1935  0.0679
  991MOL0     C33706  -0.078   5.861   1.269 -0.3990 -1.0202 -0.5445
  991MOL0     C33707  -0.167   5.758   1.261 -0.4552 -0.3075 -0.0994
  991MOL0     C33708  -0.191   5.671   1.377  1.2060  0.7447  0.7306
  991MOL0     O33709  -0.278   5.568   1.371  0.3456  0.5869 -0.7394
  991MOL0     C33710  -0.389   5.573   1.277 -0.1326 -0.2993 -0.5118
  991MOL0     C33711  -0.361   5.515   1.148  0.3197 -0.3934  0.1067
  991MOL0     C33712  -0.329   5.365   1.150  0.1375  0.9368 -0.1685
  991MOL0     C33713  -0.455   5.280   1.158  0.1732  0.9901  0.0380
  991MOL0     C33714  -0.425   5.137   1.161 -0.2528  0.7116  0.7238
  991MOL0     C33715  -0.403   5.016   1.155  0.5058  0.3413  0.6657
  991MOL0     C33716  -0.110   5.678   1.486 -0.2892 -0.7723 -0.3801
  991MOL0     C33717  -0.011   5.782   1.495 -0.4422  0.3826  0.5712
  991MOL0     H33718   0.353   6.012   1.139  1.5954 -0.0107 -0.5527
  991MOL0     H33719   0.578   6.125   1.173 -0.2203 -1.0321 -0.8910
  991MOL0     H33720   0.780   6.256   1.218  1.0057  0.1694 -1.8148
  991MOL0     H33721   0.684   6.342   1.096 -0.8995 -0.8293  0.2328
  991MOL0     H33722   0.827   6.471   1.327  0.7815 -0.0694 -0.6145
  991MOL0     H33723   0.909   6.428   1.186  0.2731 -1.4443  0.0857
  991MOL0     H33724   0.852   6.655   1.140 -0.8707  1.8931  0.5648
  991MOL0     H33725   0.745   6.563   1.044 -4.2739 -2.0194  1.4850
  991MOL0     H33726   0.660   6.764   1.149 -0.9740 -1.0976 -1.7746
  991MOL0     H33727   0.556   6.641   1.221 -0.4206  1.0333 -1.9287
  991MOL0     H33728   0.635   6.819   1.378 -2.2240 -2.6898  2.4898
  991MOL0     H33729   0.692   6.672   1.437 -4.0180  1.8158  0.2234
  991MOL0     H33730   0.913   6.728   1.341 -1.2588 -1.2564 -2.6576
  991MOL0     H33731   0.861   6.860   1.237 -2.0457 -0.3680 -0.4479
  991MOL0     H33732   0.763   6.952   1.479  1.4259  2.8158 -1.4990
  991MOL0     H33733   0.899   6.845   1.540  4.7951 -1.8815 -3.1658
  991MOL0     H33734   0.933   7.061   1.335  0.3556  0.0982  0.4338
  991MOL0     H33735   1.059   6.960   1.393 -0.2486 -0.8303  0.4232
  991MOL0     H33736   1.046   7.296   1.442  0.6892 -0.1063 -0.5535
  991MOL0     H33737   1.025   7.482   1.596 -0.8223 -2.5489 -1.4698
  991MOL0     H33738   0.988   7.452   1.772 -1.5346  6.3995 -1.9707
  991MOL0     H33739   1.225   7.559   1.709  3.0568 -0.6087  2.5735
  991MOL0     H33740   1.271   7.397   1.659  1.2475  1.7975 -1.8518
  991MOL0     H33741   1.241   7.315   1.894  1.5167  0.9425  6.4360
  991MOL0     H33742   1.132   7.449   1.924 -3.1935 -3.5251 -3.6644
  991MOL0     H33743   1.345   7.453   2.024  0.5692 -3.4504 -1.4745
  991MOL0     H33744   1.329   7.597   1.928 -0.5584  0.5475  0.6394
  991MOL0     H33745   1.687   7.359   1.725 -2.3948  0.7889  0.5378
  991MOL0     H33746   1.896   7.287   1.699  1.2341 -1.2232 -0.1688
  991MOL0     H33747   2.011   7.382   1.802  0.2888 -0.5224 -3.1646
  991MOL0     H33748   1.948   7.218   1.849  2.6150  1.3947  1.7590
  991MOL0     H33749   2.190   7.687   2.084  0.5250 -0.5467 -0.9985
  991MOL0     H33750   2.399   7.721   2.209 -0.1258 -0.8047 -1.2689
  991MOL0     H33751   2.561   7.789   2.381  0.9479 -0.0494  1.3789
  991MOL0     H33752   2.413   7.837   2.455  0.9647  1.2075 -4.1815
  991MOL0     H33753   2.662   7.719   2.606  1.6460  2.1180  1.5379
  991MOL0     H33754   2.626   7.887   2.580 -0.7249  0.4180 -1.0542
  991MOL0     H33755   2.428   7.707   2.717 -3.4243  1.8051 -1.2561
  991MOL0     H33756   2.401   7.865   2.689 -2.5876 -1.5829  1.6313
  991MOL0     H33757   2.596   7.734   2.872  1.2577  0.5831  0.5226
  991MOL0     H33758   2.638   7.900   2.839  1.9363 -0.6913  2.2895
  991MOL0     H33759   2.414   7.975   2.909  1.6159  1.5520  1.6175
  991MOL0     H33760   2.522   7.917   3.034  1.5750 -2.0471  0.2122
  991MOL0     H33761   2.279   7.760   2.922  0.7262 -2.6473 -0.2429
  991MOL0     H33762   2.409   7.679   3.007 -1.8475 -1.6225 -0.9862
  991MOL0     H33763   2.369   7.836   3.203  0.5111 -1.2176  0.7157
  991MOL0     H33764   2.268   7.701   3.170  0.1568 -0.8689 -2.0238
  991MOL0     H33765   2.086   7.820   3.096 -0.6298  0.6566  1.2541
  991MOL0     H33766   2.184   7.957   3.038  0.9053 -1.6832 -1.6439
  991MOL0     H33767   2.284   7.460   2.520  0.2372 -0.3984 -0.3523
  991MOL0     H33768   2.070   7.414   2.399 -1.0804  1.3366 -0.4672
  991MOL0     H33769   1.769   7.571   2.161  0.4910 -0.5357 -0.7335
  991MOL0     H33770   1.534   7.560   2.067 -2.9707 -1.9490 -0.8467
  991MOL0     H33771   0.386   6.427   1.400  0.0301  1.8651 -2.9582
  991MOL0     H33772   0.204   6.293   1.431  2.1251  1.2393  0.4746
  991MOL0     H33773  -0.070   5.937   1.193  0.6566 -0.1138  0.4228
  991MOL0     H33774  -0.220   5.751   1.167 -0.6282 -1.2249  0.0585
  991MOL0     H33775  -0.483   5.535   1.319 -2.0545  1.3467 -3.0459
  991MOL0     H33776  -0.405   5.681   1.268  2.0636  0.0265 -0.8971
  991MOL0     H33777  -0.291   5.575   1.090  0.3065  0.3093  0.8000
  991MOL0     H33778  -0.462   5.527   1.106 -0.2372  0.3014  1.5536
  991MOL0     H33779  -0.280   5.331   1.242  1.2695  4.0469  0.4784
  991MOL0     H33780  -0.265   5.335   1.066 -0.8061 -1.9246  0.0148
  991MOL0     H33781  -0.531   5.310   1.086  0.5302 -1.9679 -1.7553
  991MOL0     H33782  -0.498   5.300   1.257  0.7216 -1.3236  0.8177
  991MOL0     H33783  -0.369   4.915   1.158 -1.1238 -0.3796 -1.9377
  991MOL0     H33784  -0.117   5.605   1.566 -2.2030 -2.0474 -1.5966
  991MOL0     H33785   0.061   5.779   1.576 -1.4250  2.1876  1.5857
  992MOL0     O33786   1.019   6.225   4.221  0.4311  0.2195 -0.2525
  992MOL0     C33787   0.910   6.193   4.182  0.4102 -0.2351 -0.4564
  992MOL0     O33788   0.814   6.117   4.252  0.1349  0.1346  0.0178
  992MOL0     C33789   0.859   5.999   4.319 -0.5693 -0.6462 -0.5876
  992MOL0     C33790   0.984   5.936   4.296 -0.4423 -0.4863  0.5315
  992MOL0     C33791   1.021   5.820   4.374  0.3665 -0.3658  0.9962
  992MOL0     C33792   0.941   5.774   4.470 -0.2365 -0.4114 -0.4273
  992MOL0     O33793   0.977   5.659   4.537 -0.2425 -0.3644  0.2683
  992MOL0     C33794   1.111   5.627   4.567 -0.2042 -0.5464 -0.5228
  992MOL0     C33795   1.153   5.707   4.690 -0.0720 -0.4171 -0.4753
  992MOL0     C33796   1.298   5.666   4.734 -0.5097  0.0194 -0.5160
  992MOL0     C33797   1.415   5.762   4.701  0.7760 -0.2228 -0.1919
  992MOL0     C33798   1.548   5.690   4.720  0.3261  0.1263  0.2834
  992MOL0     C33799   1.675   5.780   4.674 -0.2415  0.0141  0.6926
  992MOL0     C33800   1.798   5.700   4.653  0.6723  0.1242 -0.1057
  992MOL0     C33801   1.851   5.639   4.778  0.5666 -1.3068 -0.0582
  992MOL0     N33802   1.958   5.549   4.737  0.1858  1.3521  0.5245
  992MOL0     C33803   1.945   5.429   4.658 -0.1544  0.4895  0.7346
  992MOL0     C33804   2.062   5.364   4.664 -0.8513 -0.4528  0.2782
  992MOL0     C33805   2.111   5.222   4.619 -0.0716 -0.6439 -0.2945
  992MOL0     C33806   2.173   5.226   4.477  0.5385  0.4937 -0.3438
  992MOL0     C33807   2.323   5.257   4.491 -1.3712  0.3716 -0.4698
  992MOL0     C33808   2.392   5.259   4.357  0.5040 -0.2994 -0.2916
  992MOL0     O33809   2.527   5.317   4.372 -0.1355 -0.2144  0.3806
  992MOL0     C33810   2.621   5.263   4.287 -0.6729  0.7400  0.2540
  992MOL0     C33811   2.762   5.294   4.314 -0.0860  0.8824 -0.2056
  992MOL0     C33812   2.874   5.264   4.228 -0.3543  0.2724 -1.2002
  992MOL0     C33813   3.014   5.308   4.279  0.5998  0.8007 -0.3168
  992MOL0     C33814   2.838   5.189   4.113  0.3536 -0.4704 -0.3015
  992MOL0     C33815   2.936   5.151   4.013 -0.5803  0.3498  0.8750
  992MOL0     O33816   2.928   5.032   3.951 -0.7318 -0.0871 -0.1960
  992MOL0     C33817   3.031   4.987   3.874 -0.0293 -0.0272 -0.2071
  992MOL0     C33818   3.161   4.978   3.917 -0.5421 -0.6028  0.2176
  992MOL0     C33819   3.265   4.934   3.830  0.4941 -0.2354 -0.2345
  992MOL0     C33820   3.228   4.891   3.698 -1.2253 -0.1546 -0.3698
  992MOL0     O33821   3.327   4.861   3.611  0.4382 -0.6270  0.6600
  992MOL0     C33822   3.400   4.981   3.562 -0.2477  0.2483  0.4469
  992MOL0     C33823   3.454   4.973   3.416 -0.2734  0.1020 -0.1325
  992MOL0     C33824   3.348   4.948   3.310 -0.9478  0.5140  0.2531
  992MOL0     C33825   3.244   5.066   3.309 -0.0154  0.4988  0.6360
  992MOL0     C33826   3.155   5.064   3.174  0.5191 -0.7463 -0.7567
  992MOL0     C33827   3.049   4.953   3.190 -0.4377 -0.2441  0.6914
  992MOL0     C33828   2.923   4.988   3.116 -0.1212 -0.3200  0.0051
  992MOL0     C33829   2.928   4.956   2.963 -0.3074 -0.7058 -0.4514
  992MOL0    Cl33830   2.981   5.103   2.875  0.1578  0.2030  0.1868
  992MOL0     C33831   3.099   4.885   3.662  0.0729 -0.0865  0.7894
  992MOL0     C33832   3.002   4.939   3.749  0.1820  0.2000 -0.2783
  992MOL0     O33833   3.021   5.236   3.998 -0.2427 -0.3903 -0.5334
  992MOL0     C33834   2.706   5.130   4.098 -0.0501 -0.8599 -0.5749
  992MOL0     C33835   2.598   5.177   4.174 -0.7519  0.6235 -0.6052
  992MOL0     N33836   2.155   5.447   4.727  0.8326  0.1159  0.0160
  992MOL0     N33837   2.091   5.563   4.755  0.1215  0.8877  0.5034
  992MOL0     C33838   0.820   5.835   4.491  0.3718  0.4047 -0.6173
  992MOL0     C33839   0.770   5.941   4.413 -0.7625 -0.6689 -0.6507
  992MOL0     C33840   0.865   6.257   4.061 -0.2837  0.3519  1.2894
  992MOL0     C33841   0.931   6.366   3.996  0.7165 -0.6393  0.9195
  992MOL0     C33842   0.899   6.406   3.865 -0.0476 -0.5828 -0.1483
  992MOL0     C33843   0.780   6.348   3.810  1.1579  0.0266  1.2415
  992MOL0     O33844   0.738   6.415   3.696 -0.6989 -0.5796  0.0626
  992MOL0     C33845   0.635   6.363   3.610  0.3091 -0.6482 -0.4954
  992MOL0     C33846   0.679   6.271   3.500 -0.0200 -1.3659 -1.0804
  992MOL0     C33847   0.794   6.321   3.423  0.5126 -0.5637  0.2882
  992MOL0     C33848   0.784   6.288   3.271  0.4361 -0.3555  0.1111
  992MOL0     C33849   0.666   6.349   3.209 -0.5640  0.6341  0.0695
  992MOL0     C33850   0.574   6.406   3.162 -0.4936  0.6807  1.0640
  992MOL0     C33851   0.706   6.243   3.878 -0.3082 -0.1594  0.3995
  992MOL0     C33852   0.749   6.201   4.000  0.0862 -0.4140 -0.0009
  992MOL0     H33853   1.054   5.974   4.222  1.6392 -0.9367  2.1805
  992MOL0     H33854   1.117   5.779   4.347  0.8189  1.6007 -0.6229
  992MOL0     H33855   1.119   5.520   4.592 -0.3708 -0.6532 -0.9204
  992MOL0     H33856   1.180   5.640   4.483  1.0169 -0.0528  0.5133
  992MOL0     H33857   1.166   5.812   4.661  2.6687 -0.6068 -0.2188
  992MOL0     H33858   1.081   5.696   4.771 -0.0296  2.2212  0.0261
  992MOL0     H33859   1.299   5.634   4.839  3.2750  0.1337 -0.3766
  992MOL0     H33860   1.322   5.575   4.678 -0.3166 -0.4250  0.2664
  992MOL0     H33861   1.402   5.800   4.599 -0.5724  2.1297  0.7582
  992MOL0     H33862   1.412   5.844   4.775  1.3557 -3.1210  3.3345
  992MOL0     H33863   1.561   5.659   4.824 -3.1046  2.9494  1.7768
  992MOL0     H33864   1.546   5.602   4.655  2.4442 -1.1036  1.7533
  992MOL0     H33865   1.656   5.816   4.573 -1.0046 -3.3793 -0.5067
  992MOL0     H33866   1.678   5.861   4.747  2.3531 -0.3915  1.1294
  992MOL0     H33867   1.766   5.623   4.583 -1.6417 -0.8399  1.8521
  992MOL0     H33868   1.873   5.770   4.616 -0.1411  2.4777  2.3374
  992MOL0     H33869   1.773   5.586   4.832  0.5674 -1.3374 -0.0866
  992MOL0     H33870   1.887   5.716   4.847 -2.9595 -0.9929  1.6514
  992MOL0     H33871   1.846   5.407   4.620 -2.3479  2.7004  4.5874
  992MOL0     H33872   2.179   5.183   4.696  1.9368  1.5557 -0.8134
  992MOL0     H33873   2.027   5.154   4.623 -1.3040  0.7507 -1.3044
  992MOL0     H33874   2.113   5.289   4.411  1.5884  0.1721 -1.6763
  992MOL0     H33875   2.164   5.125   4.436 -4.5967  0.9202 -0.8224
  992MOL0     H33876   2.363   5.187   4.565 -0.1855  1.0642 -0.4287
  992MOL0     H33877   2.331   5.360   4.527 -0.7719 -0.2417  1.2622
  992MOL0     H33878   2.349   5.331   4.287 -1.0764 -1.7259 -0.8390
  992MOL0     H33879   2.377   5.164   4.306 -3.5555  1.2036 -2.3460
  992MOL0     H33880   2.770   5.335   4.414  0.0048  0.0670  0.1244
  992MOL0     H33881   3.012   5.318   4.388  3.0644  0.1646 -0.1366
  992MOL0     H33882   3.089   5.229   4.262 -2.1931 -1.9135 -0.9244
  992MOL0     H33883   3.043   5.407   4.244 -0.0025  1.8215  1.8859
  992MOL0     H33884   3.187   5.009   4.018 -0.0035 -0.4982  0.0535
  992MOL0     H33885   3.365   4.912   3.864 -0.4100 -2.9613  0.9136
  992MOL0     H33886   3.338   5.071   3.569  2.8133  2.7364 -1.5583
  992MOL0     H33887   3.487   4.994   3.627  0.6485 -0.5054 -0.5592
  992MOL0     H33888   3.505   5.069   3.402  1.2568 -0.2432  2.3537
  992MOL0     H33889   3.532   4.897   3.413  0.2559  0.6464 -0.4773
  992MOL0     H33890   3.292   4.855   3.328 -1.0182  0.5357  0.1498
  992MOL0     H33891   3.387   4.931   3.209 -0.8545 -0.6099  0.4640
  992MOL0     H33892   3.186   5.050   3.400  1.7018  1.2054  1.9067
  992MOL0     H33893   3.289   5.165   3.318  3.9335 -1.1375  1.1873
  992MOL0     H33894   3.214   5.041   3.085  0.4678 -1.4883 -0.6078
  992MOL0     H33895   3.101   5.159   3.161  0.1298 -0.9052 -0.3405
  992MOL0     H33896   3.093   4.860   3.153 -1.4975  0.1341 -1.7634
  992MOL0     H33897   3.021   4.935   3.294 -2.1889 -0.8517  0.1558
  992MOL0     H33898   2.877   5.085   3.137 -0.7638 -0.4818 -0.6356
  992MOL0     H33899   2.854   4.913   3.157  1.6282 -2.6948 -1.1234
  992MOL0     H33900   2.826   4.938   2.926  0.0164  0.2657 -1.9348
  992MOL0     H33901   2.987   4.869   2.933  1.5936 -0.4067  2.0794
  992MOL0     H33902   3.068   4.854   3.563 -0.8619 -2.2123  1.6795
  992MOL0     H33903   2.904   4.946   3.704 -0.4781  0.7997  1.1957
  992MOL0     H33904   2.682   5.071   4.010 -2.7292  0.2429 -0.6881
  992MOL0     H33905   2.502   5.143   4.135 -0.2465  0.3588 -1.6461
  992MOL0     H33906   0.753   5.781   4.558  0.0063  0.0203 -1.2891
  992MOL0     H33907   0.670   5.982   4.420  0.4796  2.5401  0.1656
  992MOL0     H33908   1.013   6.417   4.044 -0.9853  1.6870  1.5144
  992MOL0     H33909   0.941   6.487   3.806  0.3234  0.1958  1.1570
  992MOL0     H33910   0.560   6.304   3.664 -4.3623  1.2951 -4.1026
  992MOL0     H33911   0.568   6.439   3.569 -3.5130 -1.2705  3.7506
  992MOL0     H33912   0.600   6.247   3.428 -0.8047 -1.0374 -0.3579
  992MOL0     H33913   0.693   6.177   3.554  0.3470 -0.6030  0.1847
  992MOL0     H33914   0.886   6.282   3.467  2.4135  1.4634 -1.5604
  992MOL0     H33915   0.787   6.429   3.438  1.7287 -0.9503  5.0350
  992MOL0     H33916   0.783   6.181   3.248 -3.0341 -0.7345  1.4405
  992MOL0     H33917   0.870   6.328   3.216  0.4017  0.9240  0.9520
  992MOL0     H33918   0.495   6.459   3.113  0.3109  0.7949 -0.1637
  992MOL0     H33919   0.615   6.201   3.837 -0.5177  0.8203 -0.1710
  992MOL0     H33920   0.697   6.116   4.043 -0.8107  0.7947  1.4199
  993MOL0     O33921   4.957   8.111   4.043  0.0822  0.4248  0.1697
  993MOL0     C33922   4.938   8.064   4.157 -0.4575 -0.3483  0.3520
  993MOL0     O33923   5.009   7.963   4.223  0.5461 -0.8492 -0.7893
  993MOL0     C33924   5.116   7.900   4.156  1.0384 -0.1554 -0.4699
  993MOL0     C33925   5.203   7.967   4.065  0.4171  0.2623 -0.0165
  993MOL0     C33926   5.308   7.899   4.008 -0.1938  0.3165 -0.2008
  993MOL0     C33927   5.338   7.772   4.039 -0.3194  0.0535  0.2032
  993MOL0     O33928   5.447   7.712   3.985  0.6348 -0.0141 -0.1657
  993MOL0     C33929   5.445   7.570   3.957  0.3898  0.2547  0.6680
  993MOL0     C33930   5.543   7.560   3.834 -0.4198 -0.8294 -0.0787
  993MOL0     C33931   5.693   7.603   3.863  0.0196  0.0807  0.4499
  993MOL0     C33932   5.771   7.494   3.946  1.1301 -0.9394  0.0975
  993MOL0     C33933   5.903   7.521   3.997  0.2322 -0.2872 -0.0271
  993MOL0     C33934   5.903   7.621   4.112 -0.1094 -0.3451  1.1124
  993MOL0     C33935   6.036   7.664   4.168  0.0190  0.1545  0.1544
  993MOL0     C33936   6.133   7.563   4.244  0.1588  0.8348 -0.5659
  993MOL0     N33937   6.097   7.544   4.382  0.2173 -0.4793  0.9422
  993MOL0     C33938   6.005   7.450   4.434 -0.3167  0.4857  0.1092
  993MOL0     C33939   6.000   7.477   4.565  0.0316 -0.3581 -0.1211
  993MOL0     C33940   5.928   7.404   4.680 -1.3040 -0.1492  0.7699
  993MOL0     C33941   5.810   7.471   4.741  0.1015  0.5554  0.1764
  993MOL0     C33942   5.739   7.394   4.854 -0.4980 -0.8136 -0.0841
  993MOL0     C33943   5.602   7.451   4.884 -0.6131 -0.4118 -0.0364
  993MOL0     O33944   5.606   7.591   4.893  0.1709 -0.0109 -0.1907
  993MOL0     C33945   5.491   7.655   4.934  0.6452 -1.0516 -0.5838
  993MOL0     C33946   5.373   7.594   4.970 -0.3234  0.3550  0.2134
  993MOL0     C33947   5.255   7.668   5.002 -0.8981 -0.7992 -0.9162
  993MOL0     C33948   5.125   7.598   5.028 -0.2534  0.3209 -0.4419
  993MOL0     C33949   5.264   7.808   5.023 -0.1768  0.1288 -0.3816
  993MOL0     C33950   5.156   7.889   5.075 -1.1482 -0.2234  0.4312
  993MOL0     O33951   5.202   7.998   5.147 -0.6470  0.6842 -0.4165
  993MOL0     C33952   5.107   8.079   5.212 -0.6190 -0.0589  0.3607
  993MOL0     C33953   5.083   8.064   5.348  0.4413  0.1975  0.0218
  993MOL0     C33954   4.968   8.120   5.416 -0.6254  0.0173 -0.7230
  993MOL0     C33955   4.876   8.191   5.339 -0.4376 -0.0157 -1.1063
  993MOL0     O33956   4.765   8.241   5.400  0.4807 -0.3805  0.3023
  993MOL0     C33957   4.678   8.148   5.461 -0.4777 -0.6713  0.7127
  993MOL0     C33958   4.540   8.222   5.468  0.1678 -0.0665  0.3595
  993MOL0     C33959   4.429   8.116   5.500  0.2651 -0.0943  0.4336
  993MOL0     C33960   4.302   8.196   5.525  0.1487  0.0115  0.1084
  993MOL0     C33961   4.203   8.100   5.581  0.4876  0.0385  0.1460
  993MOL0     C33962   4.069   8.154   5.607 -0.1452  0.0750 -0.3141
  993MOL0     C33963   3.985   8.038   5.661  0.1266 -0.5725 -0.1568
  993MOL0     C33964   3.848   8.104   5.676 -0.1756 -0.2145 -0.4809
  993MOL0    Cl33965   3.764   8.096   5.521  0.1865  0.0593 -0.3293
  993MOL0     C33966   4.902   8.205   5.201  0.2479  0.4313 -0.0312
  993MOL0     C33967   5.017   8.166   5.145 -0.3099  0.5197  1.3572
  993MOL0     O33968   5.050   7.877   5.034 -0.1861  0.4794 -0.3837
  993MOL0     C33969   5.393   7.870   4.999  0.3137  0.7601  0.5560
  993MOL0     C33970   5.504   7.791   4.964 -0.2945 -0.4508  0.2862
  993MOL0     N33971   6.078   7.589   4.597  0.0531  0.2093  0.5119
  993MOL0     N33972   6.142   7.624   4.482 -0.3746 -0.2362  0.1344
  993MOL0     C33973   5.254   7.698   4.128  0.0713  0.5396 -0.1828
  993MOL0     C33974   5.141   7.763   4.189  0.2094  0.3060 -0.9670
  993MOL0     C33975   4.831   8.143   4.226 -0.1637 -1.0218 -0.8258
  993MOL0     C33976   4.734   8.212   4.163 -0.2460  0.4687 -0.0633
  993MOL0     C33977   4.625   8.266   4.227  0.7061  0.8998 -0.4621
  993MOL0     C33978   4.609   8.245   4.366 -0.2408  0.5923 -0.6508
  993MOL0     O33979   4.509   8.287   4.453  0.3696 -0.3205 -0.2799
  993MOL0     C33980   4.419   8.379   4.401 -0.1976  0.5005 -1.0720
  993MOL0     C33981   4.339   8.459   4.519  0.3831  0.0661  0.6975
  993MOL0     C33982   4.434   8.565   4.579  0.4059 -0.1294 -0.0256
  993MOL0     C33983   4.504   8.520   4.701  0.6886 -0.5090  0.4751
  993MOL0     C33984   4.639   8.586   4.709 -0.7832 -1.1005 -0.1258
  993MOL0     C33985   4.747   8.636   4.703  1.0587 -1.1040 -0.0908
  993MOL0     C33986   4.702   8.162   4.435 -0.8713  0.5956 -0.6984
  993MOL0     C33987   4.804   8.106   4.361  0.2264  0.1526 -0.5379
  993MOL0     H33988   5.178   8.071   4.048 -2.2149 -0.5482 -1.5877
  993MOL0     H33989   5.369   7.941   3.928 -1.6622  1.6500 -0.6993
  993MOL0     H33990   5.484   7.500   4.032  0.4261 -2.4946 -1.7548
  993MOL0     H33991   5.346   7.541   3.921  0.5624  2.4548 -1.8990
  993MOL0     H33992   5.543   7.455   3.801  0.8874 -1.2402  1.1746
  993MOL0     H33993   5.486   7.620   3.762 -0.0858 -1.4954 -0.9097
  993MOL0     H33994   5.740   7.637   3.770 -2.7383  2.9493 -0.0468
  993MOL0     H33995   5.690   7.698   3.917  1.1722  0.9104 -0.8639
  993MOL0     H33996   5.710   7.452   4.027 -0.2853  2.0162  0.7059
  993MOL0     H33997   5.785   7.419   3.868  1.1621  0.2692 -1.0936
  993MOL0     H33998   5.949   7.423   4.013 -0.6624 -0.7455 -0.1801
  993MOL0     H33999   5.950   7.579   3.916 -0.5269  2.5925  1.4544
  993MOL0     H34000   5.866   7.716   4.070  0.8029 -1.0185 -1.3572
  993MOL0     H34001   5.830   7.590   4.187 -0.9309 -0.9105  0.1170
  993MOL0     H34002   6.095   7.697   4.082  0.2313 -0.7069 -0.0442
  993MOL0     H34003   6.026   7.759   4.221 -0.0364  0.8833 -1.1272
  993MOL0     H34004   6.234   7.604   4.234  0.8284 -0.3290  0.9529
  993MOL0     H34005   6.129   7.465   4.195 -1.2697 -0.3167  1.6630
  993MOL0     H34006   5.949   7.370   4.388  0.5357 -1.5843  2.4327
  993MOL0     H34007   5.900   7.304   4.643  2.2919 -1.6710  1.7912
  993MOL0     H34008   6.001   7.388   4.759  0.3634 -1.6518 -0.9637
  993MOL0     H34009   5.739   7.490   4.660  1.7600  1.5524 -1.1175
  993MOL0     H34010   5.847   7.569   4.773  1.0292 -0.6837  3.3935
  993MOL0     H34011   5.793   7.421   4.945 -1.3932  2.1062 -0.3232
  993MOL0     H34012   5.728   7.286   4.845  0.3300 -1.1844  2.5106
  993MOL0     H34013   5.559   7.411   4.976 -0.0469  0.1996  0.5097
  993MOL0     H34014   5.529   7.424   4.807  0.1249 -0.9037 -0.5860
  993MOL0     H34015   5.361   7.486   4.966  2.1062 -0.0976  2.5888
  993MOL0     H34016   5.136   7.489   5.028 -0.6728  0.1912 -3.3643
  993MOL0     H34017   5.084   7.621   5.127  1.8095 -0.8045  0.7390
  993MOL0     H34018   5.046   7.633   4.961 -2.1892  3.9912  3.2937
  993MOL0     H34019   5.150   7.990   5.390  2.2792 -0.2251 -3.3277
  993MOL0     H34020   4.946   8.095   5.519 -1.9097 -0.8145 -1.1655
  993MOL0     H34021   4.677   8.062   5.393  0.6435  0.2351 -0.4989
  993MOL0     H34022   4.704   8.121   5.564 -2.7759 -0.6389  1.3642
  993MOL0     H34023   4.539   8.301   5.544 -2.3210 -0.5881  0.9349
  993MOL0     H34024   4.508   8.253   5.368 -1.9634 -2.7605  0.0880
  993MOL0     H34025   4.466   8.055   5.582  3.6509 -0.0807 -0.9314
  993MOL0     H34026   4.419   8.042   5.420 -1.9689  0.5272  0.0592
  993MOL0     H34027   4.326   8.276   5.596 -2.4451  0.6665  0.3423
  993MOL0     H34028   4.255   8.251   5.442 -2.9766  0.2732  1.8810
  993MOL0     H34029   4.244   8.070   5.678 -0.1161 -1.4101 -0.0139
  993MOL0     H34030   4.190   8.016   5.512  1.0107 -0.4983  0.6893
  993MOL0     H34031   4.071   8.230   5.685 -3.7855 -0.5474  0.5799
  993MOL0     H34032   4.015   8.196   5.521  1.9422  4.5604  0.2768
  993MOL0     H34033   4.017   7.997   5.758 -0.3016  0.4260  0.4202
  993MOL0     H34034   3.975   7.955   5.591 -2.0443 -0.3846 -0.1200
  993MOL0     H34035   3.849   8.207   5.713 -0.9816  0.3131 -1.8703
  993MOL0     H34036   3.787   8.043   5.744  0.5615  0.2660  0.6335
  993MOL0     H34037   4.829   8.260   5.142 -0.4727 -0.3946  0.0688
  993MOL0     H34038   5.045   8.180   5.041  1.2184 -2.4489  1.2568
  993MOL0     H34039   5.405   7.978   4.997  1.3681  0.6688  1.3465
  993MOL0     H34040   5.597   7.842   4.938  0.5822 -1.0139  2.2050
  993MOL0     H34041   5.275   7.593   4.144 -0.8496  0.4940  0.8756
  993MOL0     H34042   5.082   7.714   4.265 -2.1950 -2.1466 -4.1316
  993MOL0     H34043   4.747   8.227   4.056  0.3587  2.6594  0.2656
  993MOL0     H34044   4.562   8.344   4.185  1.4708  1.0131 -1.4256
  993MOL0     H34045   4.457   8.455   4.331 -0.8565  0.7362 -1.1810
  993MOL0     H34046   4.348   8.327   4.336 -0.4158  1.2744 -1.4649
  993MOL0     H34047   4.313   8.389   4.600  1.3848  1.0482  1.9112
  993MOL0     H34048   4.245   8.498   4.481  1.0167 -0.0135 -1.0442
  993MOL0     H34049   4.371   8.653   4.594 -2.3201 -1.3064 -3.2019
  993MOL0     H34050   4.516   8.582   4.507  0.1174 -0.2828 -0.3940
  993MOL0     H34051   4.509   8.411   4.692  1.3982 -0.3862 -1.1874
  993MOL0     H34052   4.448   8.548   4.790 -0.9373  0.7301 -0.8681
  993MOL0     H34053   4.844   8.682   4.705  0.7333 -0.3362 -0.9485
  993MOL0     H34054   4.690   8.138   4.540 -2.2573 -2.2559 -1.4204
  993MOL0     H34055   4.877   8.048   4.417  1.2371  0.8613 -1.0780
  994MOL0     O34056   0.218   6.071   5.329 -0.0167  0.2783 -0.0681
  994MOL0     C34057   0.219   6.189   5.295 -0.0023 -0.7760 -0.0496
  994MOL0     O34058   0.113   6.265   5.280 -0.1298 -0.3762 -0.0876
  994MOL0     C34059  -0.014   6.206   5.270 -0.4737 -0.1714  0.0159
  994MOL0     C34060  -0.046   6.095   5.195 -0.2854  0.0829 -1.0343
  994MOL0     C34061  -0.182   6.072   5.162  0.0944  0.9726  0.6410
  994MOL0     C34062  -0.284   6.134   5.222  1.1433 -0.3359 -0.1612
  994MOL0     O34063  -0.412   6.093   5.189  0.6023  0.0996 -0.0942
  994MOL0     C34064  -0.516   6.192   5.211 -0.2540 -0.4541 -0.1941
  994MOL0     C34065  -0.654   6.132   5.172  0.1963  0.4687  0.2232
  994MOL0     C34066  -0.785   6.217   5.218 -0.3305  0.5986 -0.8888
  994MOL0     C34067  -0.828   6.172   5.356  0.8415  0.5123  0.1855
  994MOL0     C34068  -0.963   6.226   5.390 -0.7304 -0.1382  0.6315
  994MOL0     C34069  -1.017   6.160   5.515 -0.4818  0.0696 -0.2424
  994MOL0     C34070  -0.928   6.188   5.642  0.0088 -0.2117  0.0611
  994MOL0     C34071  -0.988   6.134   5.768 -0.7737 -0.8715 -0.0632
  994MOL0     N34072  -1.034   5.994   5.752  0.5978 -0.8455  0.0313
  994MOL0     C34073  -0.954   5.884   5.721 -0.6891 -0.3481 -0.4981
  994MOL0     C34074  -1.037   5.784   5.688 -0.6853  0.2875  0.4205
  994MOL0     C34075  -0.979   5.664   5.617  0.6549  0.1157 -0.3110
  994MOL0     C34076  -0.951   5.697   5.474 -0.5990  0.3955 -0.1738
  994MOL0     C34077  -0.807   5.641   5.441  0.1580 -0.3098 -0.2497
  994MOL0     C34078  -0.799   5.493   5.407  0.4349 -0.1005 -0.1557
  994MOL0     O34079  -0.683   5.455   5.347 -0.1577  0.2361  0.4405
  994MOL0     C34080  -0.579   5.400   5.415  0.7386 -0.3882  0.5596
  994MOL0     C34081  -0.535   5.437   5.539  0.9257  0.0886 -0.0376
  994MOL0     C34082  -0.421   5.377   5.599  0.4284 -0.4248 -0.1477
  994MOL0     C34083  -0.389   5.420   5.743 -0.4968 -0.8759 -0.8251
  994MOL0     C34084  -0.353   5.276   5.526 -0.3882  0.5159 -0.8009
  994MOL0     C34085  -0.227   5.193   5.563  1.5561  0.1521  0.3563
  994MOL0     O34086  -0.160   5.225   5.679  0.4392  0.1195  0.5450
  994MOL0     C34087  -0.052   5.154   5.721 -0.1333 -0.8908  0.3502
  994MOL0     C34088  -0.055   5.010   5.706  0.3539 -0.1509 -0.4661
  994MOL0     C34089   0.054   4.931   5.741 -0.1190 -0.1483  0.1203
  994MOL0     C34090   0.165   4.991   5.790 -1.0148  0.0664 -0.5246
  994MOL0     O34091   0.268   4.915   5.832  0.1896 -0.7280 -0.0211
  994MOL0     C34092   0.404   4.967   5.818 -0.5542 -0.1113  0.2561
  994MOL0     C34093   0.456   5.005   5.961 -0.5060 -0.4472  0.5861
  994MOL0     C34094   0.597   5.069   5.947  0.4057  0.6142 -0.5179
  994MOL0     C34095   0.707   4.979   5.896  1.2570 -0.9850 -0.5483
  994MOL0     C34096   0.836   5.017   5.973  1.2425 -0.9300  0.5768
  994MOL0     C34097   0.959   4.966   5.890  0.9209  0.3261  0.0430
  994MOL0     C34098   1.083   5.048   5.927  0.3398  0.1611 -0.0155
  994MOL0     C34099   1.210   5.014   5.854 -0.2594 -0.0135 -0.0165
  994MOL0    Cl34100   1.207   5.083   5.691  0.1205 -0.0222 -0.1726
  994MOL0     C34101   0.173   5.129   5.788 -0.5241 -0.2199 -0.2014
  994MOL0     C34102   0.063   5.214   5.762 -0.0646  0.4888  0.5339
  994MOL0     O34103  -0.191   5.104   5.482  0.7979 -0.3733 -0.2273
  994MOL0     C34104  -0.397   5.255   5.394 -0.6164 -0.1777  0.0601
  994MOL0     C34105  -0.502   5.319   5.335  0.1218  0.6085  0.0012
  994MOL0     N34106  -1.167   5.824   5.710 -0.4442  0.1689  0.5824
  994MOL0     N34107  -1.164   5.948   5.745 -0.0019  0.0548 -0.1381
  994MOL0     C34108  -0.256   6.245   5.307 -0.9260 -0.2266 -0.0881
  994MOL0     C34109  -0.123   6.286   5.322  0.0818 -0.3080  0.0518
  994MOL0     C34110   0.356   6.251   5.277 -0.3517  0.2814  0.5152
  994MOL0     C34111   0.468   6.178   5.320 -0.4635  0.4257 -0.3977
  994MOL0     C34112   0.598   6.220   5.280 -0.3179 -0.2755 -0.9250
  994MOL0     C34113   0.620   6.344   5.220  0.8817 -0.8495 -0.2595
  994MOL0     O34114   0.746   6.375   5.188 -0.3013 -0.4649 -0.4085
  994MOL0     C34115   0.768   6.509   5.139 -0.5620 -0.9781  0.8470
  994MOL0     C34116   0.918   6.539   5.162 -0.3794 -0.0491 -0.0111
  994MOL0     C34117   1.025   6.432   5.100 -0.6625  0.0785 -0.3606
  994MOL0     C34118   1.158   6.509   5.081  0.1462 -0.3108  1.0542
  994MOL0     C34119   1.157   6.572   4.949 -0.4365  0.3604  0.9621
  994MOL0     C34120   1.153   6.610   4.830  0.1900 -0.3514  0.0256
  994MOL0     C34121   0.501   6.420   5.181 -0.4315  0.5241  0.6470
  994MOL0     C34122   0.369   6.374   5.212  0.2891 -0.6278 -0.4822
  994MOL0     H34123   0.029   6.026   5.157  0.0653 -1.6477  2.3927
  994MOL0     H34124  -0.188   5.995   5.086  3.6481  0.3207  0.8830
  994MOL0     H34125  -0.524   6.225   5.315  1.3763  1.4527 -0.6120
  994MOL0     H34126  -0.499   6.271   5.137  3.5093 -1.8020 -0.9789
  994MOL0     H34127  -0.659   6.122   5.063  2.5294 -3.5705  0.2908
  994MOL0     H34128  -0.665   6.030   5.211 -0.1773  0.3232 -0.2465
  994MOL0     H34129  -0.770   6.324   5.200 -3.0433  0.6500 -3.4166
  994MOL0     H34130  -0.868   6.186   5.154  1.0820 -2.5460 -1.3981
  994MOL0     H34131  -0.836   6.064   5.368 -0.3224  0.7987  2.6219
  994MOL0     H34132  -0.766   6.214   5.436 -2.1642  3.0353  1.4133
  994MOL0     H34133  -0.945   6.331   5.418  0.3661  0.4739 -2.0702
  994MOL0     H34134  -1.033   6.229   5.306 -1.3198 -1.0866  1.0658
  994MOL0     H34135  -1.108   6.216   5.539 -1.1784 -0.7704 -0.8235
  994MOL0     H34136  -1.043   6.054   5.501 -4.4669  0.6109  1.5504
  994MOL0     H34137  -0.826   6.149   5.630 -1.4194 -4.4648  0.1081
  994MOL0     H34138  -0.923   6.298   5.644 -1.0978 -0.1359 -0.5464
  994MOL0     H34139  -1.072   6.199   5.795 -0.3277 -0.8208  1.3117
  994MOL0     H34140  -0.915   6.135   5.849  2.0292 -1.4559 -2.4138
  994MOL0     H34141  -0.846   5.886   5.731 -0.6990 -2.5502  0.7180
  994MOL0     H34142  -0.892   5.629   5.672  0.7585  0.8857  0.0280
  994MOL0     H34143  -1.040   5.573   5.611  3.7073 -2.0233 -1.3747
  994MOL0     H34144  -0.966   5.803   5.456  0.2535  0.8083  1.4121
  994MOL0     H34145  -1.016   5.639   5.407  1.9962 -2.6614 -0.3368
  994MOL0     H34146  -0.750   5.657   5.533 -0.8899 -0.7863  0.5004
  994MOL0     H34147  -0.768   5.700   5.358  1.1963 -0.8537 -0.1611
  994MOL0     H34148  -0.886   5.481   5.341  0.4558  0.1639 -0.2304
  994MOL0     H34149  -0.820   5.443   5.502  0.5450  0.3095  0.0828
  994MOL0     H34150  -0.593   5.510   5.595 -0.8728 -0.2816 -1.3235
  994MOL0     H34151  -0.446   5.508   5.775 -0.4958 -1.1602 -0.0006
  994MOL0     H34152  -0.432   5.334   5.796  0.2661  0.5877  2.4380
  994MOL0     H34153  -0.281   5.430   5.758 -0.8353  0.0589  1.4360
  994MOL0     H34154  -0.134   4.964   5.648 -1.4883  2.9074 -0.5777
  994MOL0     H34155   0.053   4.823   5.746  1.0223 -0.1167  2.5737
  994MOL0     H34156   0.461   4.882   5.780 -0.3221 -0.8225  2.0992
  994MOL0     H34157   0.400   5.052   5.748 -2.6938  1.3022  1.9632
  994MOL0     H34158   0.387   5.074   6.011 -0.1619 -2.5014  4.2076
  994MOL0     H34159   0.463   4.925   6.034  0.4216 -1.0024 -0.0874
  994MOL0     H34160   0.625   5.108   6.045  1.1298 -1.5038  0.1644
  994MOL0     H34161   0.591   5.155   5.879 -3.2591 -0.6929 -2.0671
  994MOL0     H34162   0.682   4.874   5.914 -1.4949 -0.2344  0.6085
  994MOL0     H34163   0.702   4.999   5.789 -1.4840  0.5110 -0.2248
  994MOL0     H34164   0.832   4.980   6.076 -2.1085  0.8508  1.2415
  994MOL0     H34165   0.852   5.125   5.967 -0.0055 -0.7933 -1.1803
  994MOL0     H34166   0.979   4.861   5.909 -3.0870 -0.8336 -1.0709
  994MOL0     H34167   0.937   4.990   5.786  2.0584  0.5288 -0.1586
  994MOL0     H34168   1.091   5.022   6.033 -1.0345 -3.6448 -0.6802
  994MOL0     H34169   1.052   5.148   5.896 -1.1701 -0.3803 -0.3490
  994MOL0     H34170   1.225   4.907   5.841  0.2094  0.1485 -0.9053
  994MOL0     H34171   1.297   5.062   5.899 -0.0798  0.1471 -0.5284
  994MOL0     H34172   0.268   5.174   5.816 -0.6380  0.4515 -0.8558
  994MOL0     H34173   0.071   5.322   5.772 -0.3068  0.5871 -0.2521
  994MOL0     H34174  -0.347   5.190   5.323  1.4544  0.1474  1.1512
  994MOL0     H34175  -0.538   5.303   5.234  1.2748 -0.2968 -0.2899
  994MOL0     H34176  -0.336   6.286   5.367  0.3116 -0.3109  1.6718
  994MOL0     H34177  -0.084   6.372   5.376  0.8219 -0.0240 -0.9083
  994MOL0     H34178   0.460   6.077   5.360 -1.6006  0.6476 -0.0425
  994MOL0     H34179   0.683   6.155   5.301 -1.2520 -1.2779 -0.1532
  994MOL0     H34180   0.767   6.502   5.030  1.0070  2.8554  0.4054
  994MOL0     H34181   0.709   6.588   5.186 -0.3342 -0.6277  0.5535
  994MOL0     H34182   0.925   6.535   5.271  0.4639  0.8104 -0.0184
  994MOL0     H34183   0.929   6.639   5.120 -0.9751  0.2986  0.6386
  994MOL0     H34184   0.989   6.376   5.014  0.4201 -0.6618 -0.3502
  994MOL0     H34185   1.055   6.357   5.173 -2.0288 -2.8852 -2.6740
  994MOL0     H34186   1.242   6.439   5.093  0.2218  0.0868  3.3638
  994MOL0     H34187   1.170   6.595   5.147  0.9295  0.3341  0.0979
  994MOL0     H34188   1.140   6.651   4.732  0.8816 -1.1970 -0.4281
  994MOL0     H34189   0.516   6.510   5.123 -1.7236 -0.7445 -1.8138
  994MOL0     H34190   0.274   6.424   5.197  1.0585  1.1460  0.1430
  995MOL0     O34191   6.534   1.551   3.706  0.0718 -0.6226 -0.4397
  995MOL0     C34192   6.501   1.667   3.725 -0.6212  0.1565 -0.8213
  995MOL0     O34193   6.379   1.717   3.730 -0.2435  0.1722  0.1851
  995MOL0     C34194   6.267   1.635   3.725 -0.1650 -0.7866  0.6492
  995MOL0     C34195   6.257   1.525   3.808  0.5460  0.9336 -0.1188
  995MOL0     C34196   6.142   1.449   3.803 -0.3107  1.3780 -0.3712
  995MOL0     C34197   6.025   1.504   3.742  0.3471  0.1259  0.9439
  995MOL0     O34198   5.912   1.421   3.756  0.2727 -0.1872 -0.1228
  995MOL0     C34199   5.813   1.495   3.814  0.7462 -0.0362 -0.1221
  995MOL0     C34200   5.731   1.402   3.892 -0.9170 -0.4362 -0.1541
  995MOL0     C34201   5.665   1.297   3.800  0.1996  0.0562 -0.3263
  995MOL0     C34202   5.555   1.231   3.876  0.2994 -0.0843 -0.2462
  995MOL0     C34203   5.494   1.111   3.802  0.2394 -0.0453 -0.2782
  995MOL0     C34204   5.362   1.084   3.883 -0.3427  0.3896 -0.4300
  995MOL0     C34205   5.283   0.977   3.826 -0.3979 -0.4292  0.4672
  995MOL0     C34206   5.364   0.841   3.819  0.5948  0.0363  0.1338
  995MOL0     N34207   5.413   0.785   3.947 -0.1764 -0.1891  0.6851
  995MOL0     C34208   5.536   0.815   3.997 -0.5598  0.7300  0.0061
  995MOL0     C34209   5.555   0.732   4.103  0.0804 -1.1661 -0.4510
  995MOL0     C34210   5.689   0.716   4.169 -0.4860 -0.1913 -0.6231
  995MOL0     C34211   5.767   0.846   4.201  0.2651  0.8540  0.3651
  995MOL0     C34212   5.693   0.928   4.293  0.4096  0.1814 -0.0025
  995MOL0     C34213   5.761   1.055   4.337 -1.0891  0.7967 -0.4313
  995MOL0     O34214   5.808   1.125   4.217  0.6716  0.1005  0.7117
  995MOL0     C34215   5.921   1.203   4.226  0.5909  1.0590  1.3012
  995MOL0     C34216   5.942   1.300   4.322 -0.6573  0.5726 -1.1537
  995MOL0     C34217   6.058   1.372   4.342 -0.1701  0.4976  0.4062
  995MOL0     C34218   6.071   1.455   4.465  0.6284  0.3599 -0.2791
  995MOL0     C34219   6.153   1.366   4.235  0.8294  0.0075 -0.1360
  995MOL0     C34220   6.286   1.427   4.239  0.3925 -0.4164  0.1468
  995MOL0     O34221   6.338   1.474   4.361 -0.2604  0.8977  0.9837
  995MOL0     C34222   6.474   1.494   4.366 -0.1336 -0.1838 -0.0003
  995MOL0     C34223   6.527   1.606   4.440  0.5547  0.4143  0.0002
  995MOL0     C34224   6.666   1.631   4.451  0.7174 -0.9513 -0.0816
  995MOL0     C34225   6.755   1.534   4.411 -0.6466 -0.7140 -0.3497
  995MOL0     O34226   6.891   1.569   4.432 -0.3979  0.1176  0.3850
  995MOL0     C34227   6.992   1.465   4.404 -0.0438  0.6788  0.3230
  995MOL0     C34228   7.133   1.467   4.474  0.3139  0.8162  0.6902
  995MOL0     C34229   7.203   1.583   4.398 -0.1756  0.1368  0.8507
  995MOL0     C34230   7.352   1.584   4.425  0.1985 -0.9100  0.3319
  995MOL0     C34231   7.454   1.675   4.343  0.4199  0.0130  0.5307
  995MOL0     C34232   7.418   1.814   4.328  0.1019 -1.3055 -0.3967
  995MOL0     C34233   7.504   1.895   4.231 -0.1644  0.4629  1.1615
  995MOL0     C34234   7.441   2.028   4.200  1.0551 -0.6164 -0.3325
  995MOL0    Cl34235   7.557   2.140   4.124 -0.1999  0.0281 -0.4939
  995MOL0     C34236   6.708   1.430   4.334  0.5048  1.0235  0.4877
  995MOL0     C34237   6.567   1.408   4.309 -0.1716  0.0554  0.3093
  995MOL0     O34238   6.338   1.441   4.124 -0.2996 -0.2222 -0.8742
  995MOL0     C34239   6.127   1.270   4.132 -0.0899  0.5704 -0.3113
  995MOL0     C34240   6.020   1.180   4.130  0.5034 -0.5137  0.1446
  995MOL0     N34241   5.439   0.663   4.120  0.6270 -0.0685  0.4394
  995MOL0     N34242   5.358   0.689   4.019 -0.0464 -0.5903  0.4793
  995MOL0     C34243   6.030   1.624   3.680  0.1700  0.0659 -0.8078
  995MOL0     C34244   6.157   1.685   3.665 -0.3473  0.2253 -0.1926
  995MOL0     C34245   6.614   1.751   3.770  0.1511 -0.4282 -0.1273
  995MOL0     C34246   6.582   1.878   3.821 -0.2510  0.1318  0.0894
  995MOL0     C34247   6.679   1.965   3.860  0.8122  0.1835 -0.0760
  995MOL0     C34248   6.819   1.932   3.848 -0.1910 -0.5989 -0.5426
  995MOL0     O34249   6.919   2.019   3.878 -0.1784  0.1585 -0.0365
  995MOL0     C34250   6.899   2.146   3.937  0.1253 -0.3955 -0.2527
  995MOL0     C34251   7.032   2.217   3.941  0.0040  0.0166  0.8536
  995MOL0     C34252   7.028   2.352   4.013  0.5414 -1.0770 -0.3672
  995MOL0     C34253   7.155   2.432   4.004 -0.1192  0.8825 -0.7755
  995MOL0     C34254   7.246   2.391   4.115 -0.5505  0.0521  0.0507
  995MOL0     C34255   7.323   2.357   4.201  1.0785 -0.7148  0.8306
  995MOL0     C34256   6.855   1.812   3.796  0.5162  0.0287 -0.2495
  995MOL0     C34257   6.749   1.724   3.749  0.4500  0.7171 -0.3077
  995MOL0     H34258   6.343   1.502   3.869  1.3997 -1.3677 -2.0417
  995MOL0     H34259   6.125   1.357   3.858 -3.6961  2.6859  1.0708
  995MOL0     H34260   5.848   1.568   3.888 -1.8904 -1.1655  2.4543
  995MOL0     H34261   5.747   1.536   3.737 -0.5574 -0.8481  0.5287
  995MOL0     H34262   5.805   1.354   3.956 -0.7628  0.9894  0.7608
  995MOL0     H34263   5.658   1.458   3.950 -0.1123  0.7858 -0.2909
  995MOL0     H34264   5.623   1.337   3.708 -0.2176  0.2498 -0.0540
  995MOL0     H34265   5.737   1.215   3.787 -0.9911 -1.8704  3.5662
  995MOL0     H34266   5.586   1.195   3.975  0.0760  0.4886  0.0393
  995MOL0     H34267   5.487   1.314   3.897  1.2658  0.3789  1.2914
  995MOL0     H34268   5.481   1.130   3.695 -2.0582 -0.1805 -0.0681
  995MOL0     H34269   5.564   1.026   3.802  0.8767  0.4730 -0.2863
  995MOL0     H34270   5.383   1.054   3.986 -2.9666  1.9879  0.6775
  995MOL0     H34271   5.306   1.178   3.879 -0.8161  0.0901 -1.1266
  995MOL0     H34272   5.188   0.960   3.878 -1.4387 -0.9634 -1.5406
  995MOL0     H34273   5.255   1.011   3.726 -1.6636 -0.8826  0.6509
  995MOL0     H34274   5.443   0.845   3.743  0.2501  0.3247 -0.2156
  995MOL0     H34275   5.296   0.759   3.799 -0.4242 -0.4069  4.4591
  995MOL0     H34276   5.611   0.877   3.948  0.2717  0.9317  1.4633
  995MOL0     H34277   5.688   0.647   4.254  2.3110  1.0779  0.5627
  995MOL0     H34278   5.744   0.664   4.090  0.0141 -0.1907 -0.2755
  995MOL0     H34279   5.789   0.895   4.106 -1.4859  1.5418  0.2661
  995MOL0     H34280   5.864   0.822   4.245 -0.1550  1.3505  1.6209
  995MOL0     H34281   5.664   0.863   4.377 -1.3456  1.0359  0.1024
  995MOL0     H34282   5.599   0.965   4.249  0.0378 -1.4326 -0.6248
  995MOL0     H34283   5.843   1.028   4.404  1.2378  0.9935 -3.0432
  995MOL0     H34284   5.683   1.118   4.382 -1.5703  0.7481 -1.1803
  995MOL0     H34285   5.862   1.312   4.394  1.1576 -1.6609  1.4766
  995MOL0     H34286   6.075   1.396   4.557 -0.3673  1.3047  0.3959
  995MOL0     H34287   6.150   1.531   4.468 -0.5936  1.8848 -2.8655
  995MOL0     H34288   5.974   1.504   4.480 -0.7149 -2.5894  1.4189
  995MOL0     H34289   6.454   1.668   4.492  0.0713 -0.9860  1.0427
  995MOL0     H34290   6.719   1.714   4.497 -0.3898 -0.4576  0.3232
  995MOL0     H34291   6.954   1.364   4.423 -2.1181  1.3199 -0.1438
  995MOL0     H34292   7.010   1.458   4.296  1.9003 -1.9298  0.7059
  995MOL0     H34293   7.135   1.497   4.579  2.0767 -0.5962  1.0918
  995MOL0     H34294   7.198   1.381   4.455  1.1659  1.9947 -2.1539
  995MOL0     H34295   7.161   1.681   4.423 -0.9885 -0.2933  1.2034
  995MOL0     H34296   7.192   1.569   4.290 -2.2160  0.9995  0.8960
  995MOL0     H34297   7.363   1.599   4.533  0.9514  0.0272  0.1426
  995MOL0     H34298   7.391   1.482   4.411  0.9845 -0.3160 -2.2197
  995MOL0     H34299   7.466   1.641   4.240 -1.7400 -0.7380  0.4827
  995MOL0     H34300   7.554   1.670   4.387  0.7064 -1.2777 -0.2155
  995MOL0     H34301   7.313   1.837   4.308  0.3133 -1.6979 -2.1425
  995MOL0     H34302   7.441   1.844   4.430  1.7441 -0.8500 -0.8695
  995MOL0     H34303   7.515   1.845   4.134 -1.3072  0.5723  0.9602
  995MOL0     H34304   7.598   1.912   4.285 -0.2383 -0.9717  1.7976
  995MOL0     H34305   7.395   2.072   4.289 -2.7789 -2.5599 -1.1572
  995MOL0     H34306   7.354   2.022   4.134 -0.0158  1.6627  0.7617
  995MOL0     H34307   6.778   1.362   4.285 -0.3268  0.2477  0.3408
  995MOL0     H34308   6.524   1.318   4.266  1.0001 -0.4612  0.1899
  995MOL0     H34309   6.192   1.252   4.047 -0.7235 -3.3783 -0.1251
  995MOL0     H34310   6.023   1.113   4.044 -2.1980 -1.2080  0.5002
  995MOL0     H34311   5.944   1.674   3.637 -0.3574  1.0560  1.2935
  995MOL0     H34312   6.159   1.779   3.611  0.5313 -0.1702 -0.8741
  995MOL0     H34313   6.478   1.911   3.821 -0.6469 -0.8954 -2.3336
  995MOL0     H34314   6.661   2.069   3.886  0.6314  0.0508  0.3313
  995MOL0     H34315   6.835   2.206   3.872  0.6940  2.3669  1.5758
  995MOL0     H34316   6.856   2.146   4.038 -1.9741 -0.1296 -1.0843
  995MOL0     H34317   7.072   2.229   3.840  1.4711 -1.0165  1.2747
  995MOL0     H34318   7.105   2.154   3.995  1.5779  1.2636  0.2693
  995MOL0     H34319   6.996   2.347   4.117 -1.3910  1.9720 -0.7026
  995MOL0     H34320   6.957   2.420   3.965  1.5928  0.3398  0.0283
  995MOL0     H34321   7.139   2.539   4.021  0.3892  0.7107  1.0702
  995MOL0     H34322   7.204   2.423   3.907 -1.7440 -0.2040 -1.5239
  995MOL0     H34323   7.396   2.334   4.276 -0.2864 -0.7800  2.1925
  995MOL0     H34324   6.960   1.788   3.786  1.1970  2.3057  0.8404
  995MOL0     H34325   6.776   1.631   3.699  0.6293 -0.6603  2.1853
  996MOL0     O34326   7.408   8.643   3.476 -0.4052 -1.0609  0.6707
  996MOL0     C34327   7.489   8.737   3.470  0.0239  0.0241  0.6200
  996MOL0     O34328   7.463   8.867   3.428 -0.2151 -0.1639  0.0258
  996MOL0     C34329   7.337   8.898   3.392  0.6076  0.4450  0.4677
  996MOL0     C34330   7.325   9.035   3.389 -0.3715 -0.9960  1.7463
  996MOL0     C34331   7.202   9.092   3.348  0.1231  0.3198 -0.3337
  996MOL0     C34332   7.100   9.008   3.294 -0.1511 -0.1466  0.7088
  996MOL0     O34333   6.995   9.061   3.225  0.4812  0.3161 -0.1565
  996MOL0     C34334   7.017   9.183   3.148  1.1728  1.4680  0.8335
  996MOL0     C34335   6.889   9.216   3.062 -0.8356 -0.8536  0.3535
  996MOL0     C34336   6.758   9.242   3.154  0.9186 -0.0483 -0.4901
  996MOL0     C34337   6.751   9.371   3.224  0.0231  0.0309  0.0340
  996MOL0     C34338   6.619   9.381   3.301 -0.4335  0.1316 -0.1198
  996MOL0     C34339   6.607   9.514   3.379  0.2398  0.0797  0.2200
  996MOL0     C34340   6.466   9.550   3.432  0.1563  0.4037  0.1672
  996MOL0     C34341   6.468   9.683   3.479  0.0576 -0.8792 -0.3202
  996MOL0     N34342   6.336   9.729   3.512  0.3644  0.0352  0.4182
  996MOL0     C34343   6.263   9.696   3.628 -0.1374  0.2410  0.3309
  996MOL0     C34344   6.152   9.761   3.614 -0.1569 -0.8265 -0.5355
  996MOL0     C34345   6.047   9.770   3.728  1.1910 -0.1774 -0.4895
  996MOL0     C34346   5.952   9.652   3.729  0.4407  0.4173  0.0936
  996MOL0     C34347   5.817   9.686   3.800 -0.1471 -0.3945 -0.7657
  996MOL0     C34348   5.729   9.565   3.801 -0.6823  0.1833  0.2655
  996MOL0     O34349   5.640   9.586   3.901  0.0776  0.9668 -0.3321
  996MOL0     C34350   5.536   9.506   3.915  0.0508  0.2115 -0.0891
  996MOL0     C34351   5.534   9.370   3.883  0.2518  0.5405  0.1030
  996MOL0     C34352   5.425   9.294   3.894 -0.5330 -0.0833  0.0628
  996MOL0     C34353   5.449   9.147   3.845  0.5668 -0.1036  0.6419
  996MOL0     C34354   5.309   9.358   3.940  0.8041  0.2028 -0.2384
  996MOL0     C34355   5.170   9.304   3.932 -0.2806  0.4291 -0.0370
  996MOL0     O34356   5.165   9.164   3.901 -0.2091  0.1623 -0.1298
  996MOL0     C34357   5.047   9.103   3.897  0.2068  1.3154  0.3272
  996MOL0     C34358   4.927   9.150   3.837 -0.9262  0.2436  0.2811
  996MOL0     C34359   4.814   9.074   3.856  0.3521  0.8743 -0.2370
  996MOL0     C34360   4.815   8.945   3.909 -0.1488 -0.7782  0.1498
  996MOL0     O34361   4.690   8.883   3.913 -0.0834  0.1853  0.0657
  996MOL0     C34362   4.697   8.749   3.860 -0.3978 -1.3073 -0.2845
  996MOL0     C34363   4.551   8.686   3.849 -0.3139 -0.4354  0.3856
  996MOL0     C34364   4.472   8.737   3.727 -0.3960 -0.1350  0.6435
  996MOL0     C34365   4.532   8.689   3.590  0.6142  0.1029 -0.2135
  996MOL0     C34366   4.421   8.673   3.494  0.6707 -0.1670 -0.6720
  996MOL0     C34367   4.465   8.611   3.360  0.1774  1.3163  0.0333
  996MOL0     C34368   4.399   8.473   3.347 -0.3743  0.8898 -0.5066
  996MOL0     C34369   4.462   8.383   3.455 -0.2764  0.4406  0.2107
  996MOL0    Cl34370   4.417   8.218   3.429 -0.3278 -0.4414  0.1084
  996MOL0     C34371   4.933   8.892   3.950 -0.6275 -0.7322 -0.3046
  996MOL0     C34372   5.051   8.968   3.935  1.0077 -0.0543 -1.1204
  996MOL0     O34373   5.068   9.368   3.967  0.5486 -0.4757 -0.0253
  996MOL0     C34374   5.313   9.490   3.986 -0.0402 -0.2113 -0.0334
  996MOL0     C34375   5.426   9.560   3.982 -0.3315 -0.3903 -0.6454
  996MOL0     N34376   6.157   9.832   3.495  0.3653 -0.4579 -0.4136
  996MOL0     N34377   6.264   9.813   3.434  0.8640 -0.0002 -0.0450
  996MOL0     C34378   7.127   8.872   3.276  0.5183 -0.3345  0.5650
  996MOL0     C34379   7.243   8.810   3.321  0.5582 -1.2081  0.0442
  996MOL0     C34380   7.630   8.714   3.489 -0.1331  0.5331  1.0060
  996MOL0     C34381   7.688   8.586   3.498 -0.3871 -0.1981  0.4184
  996MOL0     C34382   7.829   8.568   3.500 -0.1271  0.9997  0.4886
  996MOL0     C34383   7.911   8.674   3.480  0.2895 -0.1238 -0.0412
  996MOL0     O34384   8.043   8.661   3.456  0.3819 -0.0159 -0.3752
  996MOL0     C34385   8.130   8.736   3.545 -0.3685 -0.3233  0.0383
  996MOL0     C34386   8.245   8.646   3.601  0.4552 -0.4040 -0.1901
  996MOL0     C34387   8.359   8.735   3.652 -0.1178 -0.5212  0.7908
  996MOL0     C34388   8.441   8.649   3.751 -0.1153  0.7051 -0.1902
  996MOL0     C34389   8.556   8.728   3.791  0.9988 -0.1710 -0.2697
  996MOL0     C34390   8.636   8.790   3.856 -0.7076 -0.1979  0.1291
  996MOL0     C34391   7.856   8.806   3.474  0.1369 -0.8040  0.2460
  996MOL0     C34392   7.718   8.830   3.468  0.3315 -0.1762  0.8084
  996MOL0     H34393   7.408   9.099   3.417  0.2655  0.5397 -2.8795
  996MOL0     H34394   7.180   9.198   3.349  0.3321  0.3693  1.6682
  996MOL0     H34395   7.026   9.269   3.214  1.0746  0.4867  2.1743
  996MOL0     H34396   7.100   9.168   3.078  0.2563 -0.7592  0.1331
  996MOL0     H34397   6.904   9.303   2.997  1.2176 -2.2309 -1.1508
  996MOL0     H34398   6.875   9.129   2.997  1.3726 -0.6101 -0.5506
  996MOL0     H34399   6.665   9.245   3.095 -0.2614  1.9757  1.3349
  996MOL0     H34400   6.742   9.154   3.217  3.4699 -1.5466 -1.7849
  996MOL0     H34401   6.838   9.381   3.290 -1.1197 -1.1503  1.7783
  996MOL0     H34402   6.753   9.451   3.149  0.7742  0.4182  0.4582
  996MOL0     H34403   6.537   9.381   3.228  0.1270  0.5372 -0.7723
  996MOL0     H34404   6.609   9.293   3.364 -1.0761  1.5525  1.8688
  996MOL0     H34405   6.680   9.517   3.460 -0.8585 -0.5234  1.2658
  996MOL0     H34406   6.634   9.589   3.304 -0.1785 -0.2537 -0.2726
  996MOL0     H34407   6.392   9.556   3.351 -0.6176  0.3550  0.8584
  996MOL0     H34408   6.429   9.480   3.506  0.1172  2.1129  1.8350
  996MOL0     H34409   6.511   9.763   3.417 -2.7179  0.1033 -1.1099
  996MOL0     H34410   6.525   9.679   3.573 -0.1248 -1.3214 -0.2280
  996MOL0     H34411   6.293   9.641   3.716  1.3944  3.3510  1.9283
  996MOL0     H34412   6.095   9.774   3.826 -2.3781 -1.5931  1.4886
  996MOL0     H34413   5.989   9.858   3.697  2.8581  1.0038 -0.4063
  996MOL0     H34414   6.001   9.570   3.781 -3.0831 -1.2841  1.0295
  996MOL0     H34415   5.924   9.624   3.627 -0.3385  0.9563  0.1533
  996MOL0     H34416   5.772   9.775   3.756 -1.2536  0.8522  2.6005
  996MOL0     H34417   5.846   9.719   3.901  0.5115 -2.5419 -0.2031
  996MOL0     H34418   5.777   9.468   3.809 -0.4382  0.3157  0.4232
  996MOL0     H34419   5.675   9.553   3.707 -3.0816  0.8372  1.4703
  996MOL0     H34420   5.617   9.328   3.828 -1.0009 -1.7430 -0.1740
  996MOL0     H34421   5.392   9.134   3.754 -2.8466  1.5039  2.3772
  996MOL0     H34422   5.557   9.135   3.829  0.1015 -2.4277 -1.1686
  996MOL0     H34423   5.409   9.077   3.919  0.2816 -1.1950 -0.5137
  996MOL0     H34424   4.924   9.244   3.782 -0.2603  0.5195  0.7081
  996MOL0     H34425   4.721   9.119   3.823 -1.2518 -0.9790  1.4928
  996MOL0     H34426   4.748   8.752   3.763 -2.6215  2.4889 -1.5711
  996MOL0     H34427   4.741   8.679   3.931  0.0363  0.1664  0.9619
  996MOL0     H34428   4.558   8.577   3.838 -1.8538 -0.3938 -1.4851
  996MOL0     H34429   4.494   8.699   3.941 -1.8172 -1.3388 -0.3824
  996MOL0     H34430   4.463   8.845   3.714  1.4380 -0.1499 -1.2410
  996MOL0     H34431   4.371   8.703   3.750 -0.4952  1.1426  2.2361
  996MOL0     H34432   4.590   8.772   3.549 -1.3122  1.1801 -0.8700
  996MOL0     H34433   4.595   8.600   3.601  0.9385  0.1348 -1.6912
  996MOL0     H34434   4.393   8.775   3.467  1.0675  0.4627  1.1067
  996MOL0     H34435   4.337   8.618   3.540  2.4956 -0.7120  2.3062
  996MOL0     H34436   4.422   8.671   3.280  0.9360  0.2971 -1.1821
  996MOL0     H34437   4.573   8.610   3.340 -0.0557  1.1501 -1.3176
  996MOL0     H34438   4.409   8.427   3.248 -4.4002 -0.2166 -0.5569
  996MOL0     H34439   4.293   8.494   3.358 -0.3519  0.1939  1.7535
  996MOL0     H34440   4.430   8.426   3.550  0.6078  1.2086  0.1710
  996MOL0     H34441   4.569   8.399   3.446 -0.2014 -0.3584 -0.5283
  996MOL0     H34442   4.943   8.795   3.998  0.2860 -0.3683  0.2831
  996MOL0     H34443   5.142   8.918   3.966  1.3981 -0.7974 -3.3333
  996MOL0     H34444   5.218   9.533   4.016 -0.3496  0.7204 -2.1676
  996MOL0     H34445   5.431   9.665   4.010 -0.4219 -0.4956 -0.2234
  996MOL0     H34446   7.058   8.812   3.218 -0.0488  1.4217 -0.6793
  996MOL0     H34447   7.273   8.710   3.294  2.7228 -0.1007 -1.9851
  996MOL0     H34448   7.634   8.492   3.498 -2.6943  0.7136 -5.5213
  996MOL0     H34449   7.858   8.464   3.503  0.1630  0.9174 -2.6174
  996MOL0     H34450   8.179   8.817   3.492 -3.7127 -0.6814 -4.1247
  996MOL0     H34451   8.073   8.781   3.626  1.2705  1.3613  0.3056
  996MOL0     H34452   8.290   8.600   3.512 -1.9999  2.6981 -3.2928
  996MOL0     H34453   8.213   8.569   3.672  3.2331 -1.8645 -0.3532
  996MOL0     H34454   8.313   8.820   3.703  4.6493  2.1113  1.2830
  996MOL0     H34455   8.419   8.781   3.573 -1.1621  0.2117  0.4026
  996MOL0     H34456   8.481   8.570   3.687  0.4981  0.0271  0.9976
  996MOL0     H34457   8.380   8.603   3.829  0.1174 -2.5007 -1.7570
  996MOL0     H34458   8.712   8.845   3.907 -0.5076 -0.8554  0.5617
  996MOL0     H34459   7.918   8.893   3.459 -1.8736  0.5340 -0.8058
  996MOL0     H34460   7.684   8.933   3.453 -0.6749 -0.7419 -1.0802
  997MOL0     O34461  10.407   2.129   5.233 -1.0080  0.5290 -0.5211
  997MOL0     C34462  10.301   2.187   5.238 -0.1038 -0.3211  0.9570
  997MOL0     O34463  10.215   2.201   5.132 -0.3440 -0.1035  0.1615
  997MOL0     C34464  10.256   2.149   5.012 -0.1135 -0.4158  0.0261
  997MOL0     C34465  10.285   2.009   4.998 -0.1868 -0.5697  0.1723
  997MOL0     C34466  10.302   1.955   4.878 -0.9847 -0.1124 -0.0709
  997MOL0     C34467  10.303   2.033   4.763  0.5702  0.8622 -0.1365
  997MOL0     O34468  10.339   1.963   4.644  0.0025 -0.3843 -0.2443
  997MOL0     C34469  10.393   2.041   4.541 -0.9160  0.1497  0.1493
  997MOL0     C34470  10.403   1.949   4.421  0.3424 -0.0381  0.1585
  997MOL0     C34471  10.450   2.008   4.292  0.4037  0.0345  0.2128
  997MOL0     C34472  10.460   1.885   4.196 -0.8112 -1.4787  0.4557
  997MOL0     C34473  10.456   1.930   4.048  0.5307 -0.5571  0.2190
  997MOL0     C34474  10.316   1.961   3.994 -0.9997 -0.3143 -0.1047
  997MOL0     C34475  10.312   1.992   3.849  0.1027 -0.6275 -0.1351
  997MOL0     C34476  10.178   1.966   3.787 -0.2715 -0.4518  0.2218
  997MOL0     N34477  10.162   1.820   3.774 -0.0522 -0.0707 -0.2879
  997MOL0     C34478  10.206   1.718   3.690 -0.2822 -1.3976  0.8766
  997MOL0     C34479  10.117   1.610   3.707 -0.2025  0.2638  1.2001
  997MOL0     C34480  10.104   1.492   3.609  0.0612  0.1684  0.3357
  997MOL0     C34481  10.020   1.523   3.484 -0.8682 -0.2665 -0.1333
  997MOL0     C34482   9.933   1.397   3.451  0.1818 -0.7554  0.8787
  997MOL0     C34483   9.795   1.443   3.397 -0.0786  0.3108  0.0973
  997MOL0     O34484   9.722   1.552   3.461 -0.3463 -0.3793 -0.7235
  997MOL0     C34485   9.586   1.540   3.493 -0.1398  0.9405  0.4822
  997MOL0     C34486   9.515   1.424   3.508  0.1965  0.5047  0.4959
  997MOL0     C34487   9.376   1.425   3.541 -1.2359  0.2902 -0.0881
  997MOL0     C34488   9.316   1.294   3.580 -1.0425  0.4188  0.1113
  997MOL0     C34489   9.302   1.550   3.530 -0.8144 -0.6464  0.1300
  997MOL0     C34490   9.151   1.563   3.532 -0.9706 -0.1140 -1.1566
  997MOL0     O34491   9.078   1.451   3.565  0.2792  0.7677 -0.4245
  997MOL0     C34492   8.940   1.475   3.584 -0.5829  1.2263  0.5280
  997MOL0     C34493   8.851   1.410   3.495 -0.4835  1.1761  0.1974
  997MOL0     C34494   8.714   1.415   3.501  0.0798  0.2961 -0.4264
  997MOL0     C34495   8.669   1.498   3.603  0.7783 -0.4765 -0.5061
  997MOL0     O34496   8.530   1.515   3.605  0.1557  0.1249  0.1396
  997MOL0     C34497   8.475   1.525   3.739 -0.3523 -0.4530 -1.3806
  997MOL0     C34498   8.326   1.519   3.704  0.8302  0.2160  0.2491
  997MOL0     C34499   8.230   1.596   3.799 -0.0317  0.7734 -0.0347
  997MOL0     C34500   8.242   1.523   3.934  0.1542 -0.5162  0.1072
  997MOL0     C34501   8.179   1.613   4.059  0.0091 -0.8363 -0.3407
  997MOL0     C34502   8.031   1.637   4.021  0.1825  0.4745  0.5946
  997MOL0     C34503   7.949   1.716   4.133 -0.5617  0.5454  0.9627
  997MOL0     C34504   7.909   1.624   4.250 -0.5989  1.0660  0.0878
  997MOL0    Cl34505   7.792   1.495   4.206  0.1856  0.1881  0.1588
  997MOL0     C34506   8.746   1.563   3.697 -0.1490 -1.3211  0.3510
  997MOL0     C34507   8.881   1.551   3.684 -0.0845  0.7604  0.2479
  997MOL0     O34508   9.107   1.678   3.505 -0.0093  0.5522  0.0150
  997MOL0     C34509   9.383   1.669   3.503 -0.2959  0.7569  0.5268
  997MOL0     C34510   9.518   1.660   3.477 -0.6177 -0.5492  0.7410
  997MOL0     N34511  10.027   1.650   3.806 -0.2921  1.3991 -0.0837
  997MOL0     N34512  10.057   1.769   3.841 -0.0136  0.9235 -0.1967
  997MOL0     C34513  10.282   2.172   4.776  0.7195  0.2974  0.1097
  997MOL0     C34514  10.256   2.226   4.898  0.3968 -0.0133 -0.6948
  997MOL0     C34515  10.246   2.249   5.365 -0.4503  0.1307 -0.2155
  997MOL0     C34516  10.304   2.205   5.482 -0.8331 -0.3982  0.6497
  997MOL0     C34517  10.266   2.246   5.611 -0.8747  0.0772  0.6136
  997MOL0     C34518  10.147   2.335   5.616  0.9804 -0.7323 -1.2436
  997MOL0     O34519  10.109   2.385   5.741  0.1147  0.3539 -0.5342
  997MOL0     C34520  10.148   2.318   5.862 -0.1440 -0.5189 -0.1649
  997MOL0     C34521  10.086   2.179   5.869  0.1587 -0.8575  0.1081
  997MOL0     C34522  10.111   2.118   6.005  0.4635 -0.3940  0.3672
  997MOL0     C34523  10.028   1.989   6.027  0.2450  0.0587  0.2679
  997MOL0     C34524  10.054   1.938   6.162  0.5778 -0.0432  0.6474
  997MOL0     C34525  10.078   1.902   6.273  0.4442  0.6489  0.0416
  997MOL0     C34526  10.080   2.371   5.495  0.5337  0.4004 -0.1568
  997MOL0     C34527  10.134   2.332   5.370  0.1827  1.1378  0.0081
  997MOL0     H34528  10.296   1.954   5.090  1.0013 -4.9485 -2.2999
  997MOL0     H34529  10.318   1.849   4.891 -1.1132  0.0352  1.5679
  997MOL0     H34530  10.335   2.132   4.521  0.5594  0.6128 -2.5766
  997MOL0     H34531  10.490   2.083   4.567 -0.2822  0.5646 -2.5499
  997MOL0     H34532  10.465   1.860   4.438 -1.3376 -2.3271 -4.1361
  997MOL0     H34533  10.300   1.917   4.405  1.0080 -2.9147  0.9411
  997MOL0     H34534  10.378   2.080   4.251  2.7931  1.5444 -1.6202
  997MOL0     H34535  10.540   2.071   4.287 -1.3109  2.5329 -1.5752
  997MOL0     H34536  10.554   1.829   4.203  1.7506  2.4062 -0.1757
  997MOL0     H34537  10.370   1.824   4.208 -2.9393  1.1512 -1.0749
  997MOL0     H34538  10.505   2.028   4.038 -4.0788  2.0259  0.0280
  997MOL0     H34539  10.509   1.854   3.990  3.0740  1.4700 -0.3295
  997MOL0     H34540  10.253   1.874   4.013  1.7762 -2.7919 -1.4234
  997MOL0     H34541  10.283   2.053   4.045 -0.5307  0.6142 -1.4161
  997MOL0     H34542  10.332   2.097   3.826 -0.4610 -0.4057  0.3630
  997MOL0     H34543  10.393   1.939   3.798 -1.4362  0.1646 -3.6410
  997MOL0     H34544  10.174   2.003   3.684 -2.4634 -0.7980  0.1419
  997MOL0     H34545  10.094   2.010   3.841 -0.0639  0.2561 -0.0112
  997MOL0     H34546  10.286   1.741   3.620  0.3164 -2.7575  1.0910
  997MOL0     H34547  10.203   1.461   3.573  0.0077 -0.0899  0.4174
  997MOL0     H34548  10.064   1.408   3.666  0.7978 -0.5091 -0.1153
  997MOL0     H34549  10.082   1.548   3.397  2.2590  0.5640  2.1482
  997MOL0     H34550   9.955   1.609   3.503 -0.2294 -0.0479  1.1951
  997MOL0     H34551   9.916   1.334   3.538  2.7748 -2.6570  0.1600
  997MOL0     H34552   9.987   1.329   3.384  3.4850 -0.8114  3.3374
  997MOL0     H34553   9.729   1.357   3.387 -1.7992  1.5614  0.3281
  997MOL0     H34554   9.812   1.475   3.294 -0.2448 -2.2033 -0.7728
  997MOL0     H34555   9.580   1.337   3.515 -0.7186 -0.7139 -3.3911
  997MOL0     H34556   9.239   1.270   3.506  1.6156 -3.4529 -1.7317
  997MOL0     H34557   9.395   1.221   3.563 -0.6373  0.7480  0.5504
  997MOL0     H34558   9.272   1.285   3.680 -2.7313 -1.8019 -0.7470
  997MOL0     H34559   8.902   1.345   3.425 -0.3413  1.5567 -0.0505
  997MOL0     H34560   8.636   1.375   3.436  0.1030  2.3209 -1.8087
  997MOL0     H34561   8.509   1.444   3.804  2.9740  0.9406 -1.1988
  997MOL0     H34562   8.496   1.621   3.788 -1.6169  0.6823 -2.9553
  997MOL0     H34563   8.314   1.570   3.608  3.4333  1.1396  0.3354
  997MOL0     H34564   8.292   1.415   3.698 -0.5476  0.7173 -1.6756
  997MOL0     H34565   8.128   1.600   3.760  0.2523 -0.3045 -0.9312
  997MOL0     H34566   8.262   1.701   3.808 -1.3749  1.6058 -3.5774
  997MOL0     H34567   8.206   1.421   3.919 -1.9865  0.3820 -1.2691
  997MOL0     H34568   8.347   1.525   3.966 -0.2622 -0.0815  1.4811
  997MOL0     H34569   8.234   1.706   4.072  1.9345 -2.1407  1.7335
  997MOL0     H34570   8.206   1.561   4.152 -0.3007  1.0011  0.8289
  997MOL0     H34571   8.025   1.704   3.935 -1.5834  0.2513  0.5143
  997MOL0     H34572   7.984   1.543   3.991  3.3862 -0.3299 -2.6420
  997MOL0     H34573   7.855   1.756   4.096  0.2621  0.5033 -1.2965
  997MOL0     H34574   8.022   1.789   4.168 -1.1318  1.0372  1.1391
  997MOL0     H34575   7.869   1.691   4.327 -1.2589  0.6311  0.1286
  997MOL0     H34576   7.992   1.567   4.292 -2.7659 -1.8449  0.6914
  997MOL0     H34577   8.711   1.620   3.782 -5.0669 -0.9760 -1.5604
  997MOL0     H34578   8.954   1.582   3.759  1.4147 -1.2040 -0.3169
  997MOL0     H34579   9.341   1.768   3.493 -2.4372 -0.1210  0.3541
  997MOL0     H34580   9.563   1.748   3.433 -1.9068 -1.4311 -2.6681
  997MOL0     H34581  10.279   2.238   4.690  1.1079 -1.8380 -1.6343
  997MOL0     H34582  10.241   2.333   4.908 -0.7739 -0.3684  2.6704
  997MOL0     H34583  10.387   2.136   5.476  0.2616  0.8560  0.9707
  997MOL0     H34584  10.339   2.234   5.691 -0.9289 -1.2108  0.4838
  997MOL0     H34585  10.256   2.308   5.856  0.0605  1.0110  0.4816
  997MOL0     H34586  10.110   2.375   5.947 -0.5719 -0.2604 -0.5223
  997MOL0     H34587  10.118   2.106   5.794  0.9680  0.1921 -0.5755
  997MOL0     H34588   9.978   2.197   5.862  0.2237  1.8261  3.4752
  997MOL0     H34589  10.090   2.190   6.085 -1.1285 -0.8246  0.3645
  997MOL0     H34590  10.219   2.104   6.022  0.3249 -2.9692 -0.4326
  997MOL0     H34591  10.057   1.912   5.955  1.4772  1.8418 -1.2319
  997MOL0     H34592   9.922   2.017   6.026 -0.6918 -2.9843 -1.0763
  997MOL0     H34593  10.089   1.885   6.378 -0.0463  0.1281  0.0121
  997MOL0     H34594   9.992   2.434   5.499 -1.5855 -2.3412 -0.6296
  997MOL0     H34595  10.080   2.354   5.278  1.1535 -1.3179 -1.2305
  998MOL0     O34596   3.051   5.064   0.485  0.0921  0.5504  1.2049
  998MOL0     C34597   2.977   5.000   0.556 -0.3904 -0.5442  0.3772
  998MOL0     O34598   2.993   4.868   0.593 -0.6592 -0.1963  0.1076
  998MOL0     C34599   3.113   4.817   0.606 -0.3189 -0.2862  0.6162
  998MOL0     C34600   3.238   4.877   0.631 -0.0888  0.5877  0.3361
  998MOL0     C34601   3.356   4.799   0.638  0.2683 -0.1540  0.4614
  998MOL0     C34602   3.356   4.660   0.634  0.2149 -0.2057 -0.3288
  998MOL0     O34603   3.464   4.574   0.663 -0.1836 -0.3070  0.0332
  998MOL0     C34604   3.603   4.616   0.627 -0.0811  0.3846  0.3565
  998MOL0     C34605   3.639   4.612   0.481  0.9921  0.5690 -0.3036
  998MOL0     C34606   3.780   4.658   0.468 -0.7813  0.0889  0.4219
  998MOL0     C34607   3.877   4.535   0.473 -0.2097 -0.0202  0.2091
  998MOL0     C34608   4.008   4.592   0.452 -0.4889 -0.5260 -0.2990
  998MOL0     C34609   4.110   4.480   0.446 -0.2520  0.3058  0.5856
  998MOL0     C34610   4.144   4.404   0.575  0.1693 -0.2415 -0.5489
  998MOL0     C34611   4.218   4.490   0.679 -0.0045 -0.6997  0.5509
  998MOL0     N34612   4.213   4.419   0.803  0.5803 -0.2650 -0.2045
  998MOL0     C34613   4.107   4.428   0.891  0.3454 -0.0433 -0.6331
  998MOL0     C34614   4.139   4.343   0.991 -0.3268 -1.2005 -0.4917
  998MOL0     C34615   4.051   4.315   1.111 -0.2890  0.4876 -1.6533
  998MOL0     C34616   3.903   4.299   1.075 -0.4597  1.3031  0.9624
  998MOL0     C34617   3.819   4.290   1.203  0.6523  0.6131  0.1423
  998MOL0     C34618   3.673   4.285   1.173  0.5997  0.1357 -0.1355
  998MOL0     O34619   3.631   4.385   1.081 -0.3207 -0.9143  1.0162
  998MOL0     C34620   3.517   4.462   1.097 -0.1700  0.5257  0.9375
  998MOL0     C34621   3.518   4.597   1.056  0.6454  0.7564  0.2109
  998MOL0     C34622   3.402   4.678   1.061 -0.3884 -0.2922  0.4532
  998MOL0     C34623   3.406   4.810   0.984 -0.4088 -0.3196  0.0238
  998MOL0     C34624   3.285   4.630   1.134  0.3984 -0.3967  0.0625
  998MOL0     C34625   3.164   4.713   1.161  0.8027 -0.1345 -0.1254
  998MOL0     O34626   3.055   4.644   1.197  1.3558 -0.6553  1.0238
  998MOL0     C34627   2.936   4.708   1.195 -0.0777  0.2943 -0.5548
  998MOL0     C34628   2.869   4.734   1.314  0.2650  0.1220  0.5088
  998MOL0     C34629   2.750   4.804   1.312 -0.7141  0.2326  0.8849
  998MOL0     C34630   2.683   4.830   1.189  0.5835  0.1677 -0.8042
  998MOL0     O34631   2.566   4.902   1.208 -0.9196  1.0168  0.5265
  998MOL0     C34632   2.480   4.936   1.099 -0.6789 -0.2021 -0.6065
  998MOL0     C34633   2.391   5.055   1.128  0.0969 -1.0330 -0.2557
  998MOL0     C34634   2.294   5.011   1.238 -0.5457 -0.0626 -0.3095
  998MOL0     C34635   2.212   5.133   1.282 -0.6412 -0.1692  0.5650
  998MOL0     C34636   2.131   5.105   1.405  0.0419 -0.6416 -0.4616
  998MOL0     C34637   2.213   5.080   1.534  0.0332  0.2805 -0.3741
  998MOL0     C34638   2.132   5.094   1.666  1.3377  0.1429  0.6413
  998MOL0     C34639   2.210   5.025   1.791  0.2252 -0.1897  0.4178
  998MOL0    Cl34640   2.167   4.853   1.809 -0.4236  0.4090  0.0382
  998MOL0     C34641   2.751   4.796   1.069  0.1168  0.0235 -0.6966
  998MOL0     C34642   2.883   4.738   1.072  1.2803 -0.1320  0.5332
  998MOL0     O34643   3.168   4.835   1.161 -0.0136 -0.8703 -1.5576
  998MOL0     C34644   3.282   4.492   1.180 -0.6481  0.1568  1.2530
  998MOL0     C34645   3.397   4.410   1.156  0.4173 -0.7204 -0.6377
  998MOL0     N34646   4.262   4.286   0.973 -0.7853  0.1672 -0.3368
  998MOL0     N34647   4.303   4.326   0.858  0.3675  0.3919  0.1284
  998MOL0     C34648   3.235   4.595   0.619 -0.8061 -0.4963 -0.5674
  998MOL0     C34649   3.119   4.675   0.599  0.3246  0.4657 -0.3570
  998MOL0     C34650   2.847   5.069   0.596 -0.0886  0.2856  0.4111
  998MOL0     C34651   2.733   4.995   0.635 -0.0477 -0.9668 -0.4519
  998MOL0     C34652   2.617   5.052   0.699 -0.9686  0.1278 -0.3820
  998MOL0     C34653   2.619   5.198   0.703 -0.0105 -0.6109  0.8344
  998MOL0     O34654   2.516   5.284   0.744 -0.3947 -0.4913 -0.3381
  998MOL0     C34655   2.393   5.227   0.776  0.2451  0.4347  0.8430
  998MOL0     C34656   2.290   5.305   0.698 -0.5509 -0.4474  0.2379
  998MOL0     C34657   2.151   5.297   0.768 -0.8189 -0.2992  0.5487
  998MOL0     C34658   2.077   5.167   0.748 -0.5223  0.3891 -1.2542
  998MOL0     C34659   2.086   5.114   0.615  0.4028  0.0096 -0.6354
  998MOL0     C34660   2.107   5.056   0.513 -0.5274  0.0797 -0.5297
  998MOL0     C34661   2.735   5.265   0.674 -1.1113 -0.2386 -0.5912
  998MOL0     C34662   2.852   5.206   0.622  0.3992 -0.7701  0.1289
  998MOL0     H34663   3.236   4.984   0.653 -0.9444  0.5918  0.2678
  998MOL0     H34664   3.452   4.840   0.666  1.0948 -2.3519  1.1159
  998MOL0     H34665   3.613   4.717   0.667  1.2382 -1.0796  4.2107
  998MOL0     H34666   3.686   4.569   0.681  1.5908  1.2156 -1.3802
  998MOL0     H34667   3.615   4.511   0.447  1.9885  0.5281 -0.9050
  998MOL0     H34668   3.582   4.684   0.423 -0.0121  0.7853  0.9089
  998MOL0     H34669   3.807   4.716   0.380  3.5636 -1.2881  0.6269
  998MOL0     H34670   3.806   4.720   0.554 -0.7063  0.1745  0.3370
  998MOL0     H34671   3.866   4.487   0.571 -1.1318 -0.9096 -0.3031
  998MOL0     H34672   3.852   4.460   0.397 -0.1876 -2.1903  2.2257
  998MOL0     H34673   4.002   4.641   0.354 -1.1246 -0.5911 -0.2947
  998MOL0     H34674   4.039   4.669   0.523  1.5360 -1.6519  0.1351
  998MOL0     H34675   4.072   4.404   0.378  1.1086  0.1859 -0.0748
  998MOL0     H34676   4.208   4.521   0.419  0.0594 -1.7941 -1.7712
  998MOL0     H34677   4.052   4.355   0.606 -0.0701 -0.3598 -1.4158
  998MOL0     H34678   4.212   4.320   0.555  0.0314  0.2070 -3.2988
  998MOL0     H34679   4.172   4.589   0.689  0.6442 -0.5898  2.9464
  998MOL0     H34680   4.321   4.509   0.650 -1.3661  3.8415 -2.4573
  998MOL0     H34681   4.020   4.489   0.868  0.3501  0.3448  0.3233
  998MOL0     H34682   4.084   4.228   1.169 -0.8235  1.8462  0.8594
  998MOL0     H34683   4.064   4.396   1.184  1.3254  0.7689 -2.1975
  998MOL0     H34684   3.885   4.211   1.012 -1.6350  1.6133  0.8371
  998MOL0     H34685   3.874   4.385   1.014  2.2970  0.3564 -1.9859
  998MOL0     H34686   3.833   4.382   1.260  1.8101  0.1454  0.6374
  998MOL0     H34687   3.840   4.204   1.268  1.4742  0.3234 -0.4907
  998MOL0     H34688   3.631   4.307   1.271 -2.2454  0.7958 -1.4006
  998MOL0     H34689   3.648   4.185   1.137  4.5277 -1.7883  1.7933
  998MOL0     H34690   3.602   4.640   1.001 -0.5272  0.7686 -1.6740
  998MOL0     H34691   3.483   4.792   0.908  1.0557 -2.2777  1.8523
  998MOL0     H34692   3.311   4.833   0.935 -1.3567  0.1651  2.0052
  998MOL0     H34693   3.437   4.891   1.051 -0.3371 -0.8011  0.5772
  998MOL0     H34694   2.918   4.718   1.409  0.0523  2.0183  0.9649
  998MOL0     H34695   2.713   4.841   1.407  1.4479  1.3141  1.3616
  998MOL0     H34696   2.542   4.964   1.013  1.2339  1.1162  1.1081
  998MOL0     H34697   2.410   4.857   1.070 -1.4847 -0.0660  0.8563
  998MOL0     H34698   2.455   5.141   1.148  2.2053 -2.6598  0.3550
  998MOL0     H34699   2.340   5.078   1.034  0.6848 -0.5788 -0.4700
  998MOL0     H34700   2.350   4.961   1.318 -0.5675 -4.0361 -2.4946
  998MOL0     H34701   2.220   4.933   1.216 -0.8909 -0.5871  2.3930
  998MOL0     H34702   2.273   5.223   1.289  1.1219 -1.2918  0.1575
  998MOL0     H34703   2.151   5.155   1.194 -0.1922  0.7375  0.4734
  998MOL0     H34704   2.056   5.031   1.378 -1.2537  0.4702 -0.0467
  998MOL0     H34705   2.068   5.193   1.425  2.3702  0.9523  0.2895
  998MOL0     H34706   2.255   4.980   1.523 -0.6449 -0.1254  0.5678
  998MOL0     H34707   2.295   5.153   1.536 -2.2611  3.1198 -1.6382
  998MOL0     H34708   2.037   5.040   1.668  0.6644  1.3044  0.9028
  998MOL0     H34709   2.102   5.197   1.688 -1.6658 -0.2090 -1.2647
  998MOL0     H34710   2.197   5.097   1.872  1.9387  2.0063 -1.1299
  998MOL0     H34711   2.317   5.042   1.774 -0.3500  0.8895 -2.9225
  998MOL0     H34712   2.721   4.832   0.971  0.6232  0.0777 -0.8356
  998MOL0     H34713   2.936   4.710   0.981 -0.3597 -1.5992 -0.0260
  998MOL0     H34714   3.192   4.445   1.220 -1.1787  0.4676  0.4494
  998MOL0     H34715   3.388   4.307   1.189 -0.6010 -0.0878  1.1494
  998MOL0     H34716   3.232   4.486   0.623  0.9038 -0.5834 -0.8708
  998MOL0     H34717   3.025   4.625   0.580 -0.3470  1.9734 -1.1024
  998MOL0     H34718   2.738   4.887   0.624  2.2464 -1.0167  0.5351
  998MOL0     H34719   2.539   4.994   0.747  0.3569 -0.7155  0.8371
  998MOL0     H34720   2.369   5.127   0.740 -1.0288  1.5056 -1.4751
  998MOL0     H34721   2.388   5.232   0.885  3.4590  0.6182  1.0827
  998MOL0     H34722   2.283   5.287   0.590 -0.9986 -0.1012  0.2018
  998MOL0     H34723   2.317   5.411   0.704 -0.0918 -0.5543  0.0373
  998MOL0     H34724   2.093   5.381   0.729 -0.4083 -0.5776 -0.7005
  998MOL0     H34725   2.162   5.307   0.876  2.2124  0.1640  0.2932
  998MOL0     H34726   1.975   5.189   0.782 -0.8322 -0.6263 -1.4770
  998MOL0     H34727   2.120   5.095   0.817 -1.3327  1.5367  0.5255
  998MOL0     H34728   2.132   5.028   0.412  2.0862  2.2517 -0.5871
  998MOL0     H34729   2.750   5.372   0.678  1.5770 -0.5551 -0.2919
  998MOL0     H34730   2.935   5.276   0.611 -0.8764  1.9359  4.7348
  999MOL0     O34731   0.936   1.516   6.628 -0.1110 -0.2937 -0.2874
  999MOL0     C34732   1.037   1.532   6.699  0.5534 -0.2990 -0.5801
  999MOL0     O34733   1.043   1.581   6.823 -0.2306  0.8020  0.3817
  999MOL0     C34734   0.925   1.571   6.898  0.5374 -0.3398  0.0702
  999MOL0     C34735   0.914   1.511   7.028  0.0202 -0.3026  0.3768
  999MOL0     C34736   0.799   1.511   7.107 -0.0360 -0.2158  0.5546
  999MOL0     C34737   0.685   1.579   7.050 -0.0810 -0.0604 -0.3907
  999MOL0     O34738   0.561   1.585   7.107 -0.0061  0.1024 -0.4852
  999MOL0     C34739   0.525   1.513   7.224  0.8824  0.2255 -0.1599
  999MOL0     C34740   0.386   1.451   7.207  0.5676 -0.6333  0.6263
  999MOL0     C34741   0.279   1.566   7.161  0.4612  0.8866  0.1913
  999MOL0     C34742   0.138   1.502   7.176  0.8071 -0.4159  0.0432
  999MOL0     C34743   0.031   1.583   7.093  0.5829 -0.2822  0.4656
  999MOL0     C34744  -0.116   1.552   7.151  0.2689 -0.1089 -0.0051
  999MOL0     C34745  -0.215   1.646   7.075  0.2280  0.3481 -0.1690
  999MOL0     C34746  -0.346   1.652   7.139  0.7121  0.4142  0.1324
  999MOL0     N34747  -0.405   1.518   7.117  0.3323  0.1051  0.4967
  999MOL0     C34748  -0.479   1.454   7.212 -0.8298 -0.9650  0.1527
  999MOL0     C34749  -0.542   1.356   7.137  0.1936  0.0856  0.0423
  999MOL0     C34750  -0.638   1.250   7.174 -0.1835 -0.0958  0.2415
  999MOL0     C34751  -0.776   1.304   7.198  0.1556  1.3671 -0.0116
  999MOL0     C34752  -0.870   1.189   7.255  0.7397 -0.7285 -0.0583
  999MOL0     C34753  -1.022   1.208   7.215 -0.7227  0.1318 -0.4895
  999MOL0     O34754  -1.033   1.209   7.072  0.2041  0.2718 -0.5070
  999MOL0     C34755  -1.160   1.221   7.014 -1.1392  0.1836  0.0492
  999MOL0     C34756  -1.272   1.264   7.089  0.0877  0.2940  0.3261
  999MOL0     C34757  -1.396   1.263   7.021  0.6279  0.8223  0.5246
  999MOL0     C34758  -1.508   1.289   7.114  0.2387  0.4302  0.1571
  999MOL0     C34759  -1.410   1.221   6.891 -1.0516  0.6816  0.2811
  999MOL0     C34760  -1.537   1.212   6.816 -0.3182  0.3314 -0.7787
  999MOL0     O34761  -1.649   1.193   6.887  0.1997  0.6611  0.0766
  999MOL0     C34762  -1.770   1.190   6.828 -0.3834 -0.5016  0.9631
  999MOL0     C34763  -1.880   1.225   6.906  0.5368  0.3553 -0.1266
  999MOL0     C34764  -2.017   1.207   6.863 -0.6901 -0.5435 -0.0683
  999MOL0     C34765  -2.042   1.140   6.737  0.7466 -0.0955  0.4193
  999MOL0     O34766  -2.167   1.113   6.681  0.3651  0.3905  0.4417
  999MOL0     C34767  -2.263   1.223   6.693  0.0234  0.4058 -0.3090
  999MOL0     C34768  -2.376   1.222   6.591  0.2818  0.9225 -1.3189
  999MOL0     C34769  -2.509   1.241   6.657 -0.5172 -0.2501  0.0149
  999MOL0     C34770  -2.616   1.228   6.550 -0.2966 -0.5955  0.0045
  999MOL0     C34771  -2.755   1.260   6.618 -0.3151 -0.4130 -0.9769
  999MOL0     C34772  -2.864   1.282   6.508 -0.0160  0.0327 -0.0035
  999MOL0     C34773  -2.999   1.287   6.584  1.0739  0.1822  0.3137
  999MOL0     C34774  -3.104   1.240   6.488 -0.7008  0.1876 -0.4707
  999MOL0    Cl34775  -3.080   1.053   6.469 -0.0377 -0.1765  0.2010
  999MOL0     C34776  -1.928   1.104   6.669  0.4038  0.4197 -0.2372
  999MOL0     C34777  -1.796   1.118   6.709  0.2178 -0.6458  0.0001
  999MOL0     O34778  -1.530   1.219   6.691  0.1382  0.3309  0.1482
  999MOL0     C34779  -1.290   1.211   6.818  0.2618 -0.1869 -0.4760
  999MOL0     C34780  -1.164   1.214   6.876  0.5365  0.8766  0.5018
  999MOL0     N34781  -0.507   1.368   7.004 -0.0299 -0.1221  0.1469
  999MOL0     N34782  -0.431   1.471   6.994 -0.0788  0.1208  0.4702
  999MOL0     C34783   0.699   1.642   6.925  0.5314 -0.4609  0.2671
  999MOL0     C34784   0.810   1.636   6.852 -0.3260 -0.1835 -0.4579
  999MOL0     C34785   1.161   1.523   6.625 -0.7119 -0.3139 -0.0202
  999MOL0     C34786   1.286   1.539   6.687 -0.9208  0.2030 -0.0283
  999MOL0     C34787   1.410   1.527   6.617  0.2791 -0.3342  0.4412
  999MOL0     C34788   1.405   1.519   6.480 -0.6176 -0.2308  0.0002
  999MOL0     O34789   1.527   1.523   6.407  0.1366 -0.0250  0.5686
  999MOL0     C34790   1.535   1.571   6.268  0.6453  0.0217 -0.0289
  999MOL0     C34791   1.657   1.519   6.192 -0.2959 -0.4123  0.1422
  999MOL0     C34792   1.787   1.557   6.274 -0.1653 -0.1501 -0.1237
  999MOL0     C34793   1.893   1.440   6.265 -0.0575 -0.3531 -0.1789
  999MOL0     C34794   2.004   1.467   6.355  0.0866 -0.1520 -0.7181
  999MOL0     C34795   2.095   1.479   6.428  0.5049  0.2753  0.4672
  999MOL0     C34796   1.282   1.507   6.415  0.2046  0.7943 -0.2995
  999MOL0     C34797   1.163   1.498   6.484 -0.5224 -0.2047 -0.1033
  999MOL0     H34798   1.011   1.476   7.060 -0.1478 -0.1034  1.1290
  999MOL0     H34799   0.803   1.473   7.209  1.4133  0.8767  0.9423
  999MOL0     H34800   0.600   1.436   7.242  0.6289  0.5463  2.6033
  999MOL0     H34801   0.511   1.591   7.299 -2.3322  0.9031 -1.2644
  999MOL0     H34802   0.383   1.375   7.128 -2.6604  0.2298 -0.2447
  999MOL0     H34803   0.337   1.408   7.295  0.0553  2.4861  1.9772
  999MOL0     H34804   0.293   1.663   7.209  0.5364  1.1449 -0.3446
  999MOL0     H34805   0.300   1.569   7.053 -0.2679  1.0320  0.0523
  999MOL0     H34806   0.132   1.403   7.129 -1.5584 -1.6152  2.5889
  999MOL0     H34807   0.115   1.504   7.283  0.4363 -1.0281 -0.0199
  999MOL0     H34808   0.059   1.686   7.118 -0.2840  0.1062 -0.1205
  999MOL0     H34809   0.032   1.569   6.985 -1.2871  1.1288  0.2184
  999MOL0     H34810  -0.139   1.447   7.133  0.0615  0.1054 -1.1011
  999MOL0     H34811  -0.107   1.564   7.259 -1.8270  1.6581  0.0470
  999MOL0     H34812  -0.167   1.744   7.061  2.1379 -0.1402  2.2428
  999MOL0     H34813  -0.228   1.611   6.972 -1.3244 -4.3997  1.3801
  999MOL0     H34814  -0.421   1.722   7.100 -1.1219 -1.5954 -0.0989
  999MOL0     H34815  -0.337   1.667   7.247  0.7589  0.2744  0.1475
  999MOL0     H34816  -0.499   1.461   7.319 -1.4191 -0.0994 -0.0010
  999MOL0     H34817  -0.646   1.181   7.089 -0.5251  1.0447 -0.6798
  999MOL0     H34818  -0.605   1.185   7.256 -3.2906 -1.4431  0.5698
  999MOL0     H34819  -0.819   1.354   7.111 -1.7913  0.2724  0.2836
  999MOL0     H34820  -0.774   1.367   7.287 -0.4399  0.7241  0.4634
  999MOL0     H34821  -0.867   1.185   7.364 -2.5079 -0.6106  0.1311
  999MOL0     H34822  -0.836   1.094   7.212 -1.3829 -1.1676 -0.8723
  999MOL0     H34823  -1.056   1.298   7.268 -0.4086 -2.1166  4.0412
  999MOL0     H34824  -1.071   1.122   7.261 -0.3393 -0.7306 -1.6653
  999MOL0     H34825  -1.254   1.307   7.187  4.8679 -2.9704  1.2309
  999MOL0     H34826  -1.470   1.317   7.213 -1.0678  2.9435  0.0358
  999MOL0     H34827  -1.567   1.369   7.068  1.2241  0.0896 -1.7929
  999MOL0     H34828  -1.583   1.209   7.117 -1.0054  1.3705 -2.4006
  999MOL0     H34829  -1.877   1.270   7.004  1.4258 -0.5927  0.2940
  999MOL0     H34830  -2.101   1.234   6.926  0.5208  0.9335  0.9796
  999MOL0     H34831  -2.308   1.237   6.791 -3.2467  0.9730 -1.7409
  999MOL0     H34832  -2.200   1.309   6.667 -0.5491  0.8173 -0.3393
  999MOL0     H34833  -2.357   1.311   6.531 -1.7421  1.1818 -1.6597
  999MOL0     H34834  -2.373   1.130   6.532  4.3258 -1.7212  2.3813
  999MOL0     H34835  -2.520   1.339   6.705  1.1839 -1.3794  2.9733
  999MOL0     H34836  -2.526   1.173   6.741 -2.0363 -0.1313 -0.1666
  999MOL0     H34837  -2.582   1.302   6.478  4.0393 -1.7481  0.5907
  999MOL0     H34838  -2.616   1.130   6.502 -1.4627 -0.2757 -0.6803
  999MOL0     H34839  -2.748   1.356   6.670 -1.8250 -0.1666 -1.1918
  999MOL0     H34840  -2.794   1.183   6.685  1.1437  0.4234  0.9115
  999MOL0     H34841  -2.843   1.375   6.453  2.2552  0.3667  1.3095
  999MOL0     H34842  -2.857   1.209   6.428  0.7762 -2.1697  1.9655
  999MOL0     H34843  -3.023   1.386   6.625 -1.0354 -0.5944  1.0971
  999MOL0     H34844  -2.998   1.213   6.664 -0.2369  1.8601  1.9751
  999MOL0     H34845  -3.101   1.298   6.395  0.6742  2.4431  0.8887
  999MOL0     H34846  -3.208   1.256   6.519 -1.6204  0.8993 -3.5791
  999MOL0     H34847  -1.940   1.050   6.576 -1.3225  1.2198 -0.5311
  999MOL0     H34848  -1.717   1.072   6.651  2.3428  2.9840 -0.2830
  999MOL0     H34849  -1.294   1.213   6.710 -0.0358 -1.6147 -0.5141
  999MOL0     H34850  -1.075   1.187   6.822  0.5713  2.2870 -0.1912
  999MOL0     H34851   0.619   1.704   6.886 -0.5390 -1.7676  0.3039
  999MOL0     H34852   0.799   1.676   6.752  1.3898  0.2330 -0.5160
  999MOL0     H34853   1.288   1.564   6.792 -0.3304 -0.5978  0.1644
  999MOL0     H34854   1.511   1.520   6.658  0.1800 -2.0553  0.4797
  999MOL0     H34855   1.453   1.535   6.205 -0.7372 -0.0938  1.7560
  999MOL0     H34856   1.532   1.680   6.260  0.0542 -0.0919 -1.8216
  999MOL0     H34857   1.676   1.560   6.093  0.5536 -1.2890 -0.0669
  999MOL0     H34858   1.646   1.414   6.165  2.0935 -0.1097 -2.5173
  999MOL0     H34859   1.773   1.587   6.379 -1.5710 -0.2370 -0.2565
  999MOL0     H34860   1.836   1.636   6.217 -0.2704 -0.7042 -1.0024
  999MOL0     H34861   1.939   1.446   6.166  1.5554 -1.1389  0.4742
  999MOL0     H34862   1.853   1.341   6.287 -1.7440  0.3397 -0.0206
  999MOL0     H34863   2.186   1.502   6.479  1.1296  0.5404 -0.7216
  999MOL0     H34864   1.277   1.502   6.306 -0.5777  1.5138 -0.3053
  999MOL0     H34865   1.069   1.496   6.429 -0.7625 -0.3565  0.3115
 1000MOL0     O34866   6.840  10.926   9.659  0.5915  0.0635 -0.9859
 1000MOL0     C34867   6.736  10.993   9.671 -0.0886  0.2653  0.0740
 1000MOL0     O34868   6.685  11.025   9.793  0.1948  1.1451  0.3598
 1000MOL0     C34869   6.759  10.988   9.898 -0.1741  0.3550 -0.1051
 1000MOL0     C34870   6.858  11.075   9.938 -0.2006  0.1034 -0.8023
 1000MOL0     C34871   6.930  11.054  10.053  0.7582  0.8745 -0.0591
 1000MOL0     C34872   6.888  10.951  10.147  0.0471 -0.7393  0.1894
 1000MOL0     O34873   6.954  10.911  10.257 -0.5402 -0.4479 -0.0372
 1000MOL0     C34874   7.006  11.023  10.329 -0.6970  0.2886 -0.0915
 1000MOL0     C34875   7.010  10.977  10.472 -0.6872  0.2108 -0.8034
 1000MOL0     C34876   7.032  11.093  10.575 -0.2314  1.1249  0.3456
 1000MOL0     C34877   7.170  11.152  10.561  0.4247 -1.1022  0.1688
 1000MOL0     C34878   7.180  11.273  10.652 -0.9411  0.1040 -0.0694
 1000MOL0     C34879   7.191  11.252  10.808  0.0433  0.5266  0.1707
 1000MOL0     C34880   7.198  11.373  10.895  0.0829  0.1908  1.1318
 1000MOL0     C34881   7.061  11.428  10.925 -0.2757  1.0117  0.1472
 1000MOL0     N34882   7.050  11.530  11.028  0.5159 -0.3602 -0.4297
 1000MOL0     C34883   7.133  11.542  11.135 -0.0409  0.0188 -0.1684
 1000MOL0     C34884   7.094  11.663  11.185  0.6230  0.1436 -0.6532
 1000MOL0     C34885   7.150  11.725  11.318 -0.0208 -0.3372  0.2105
 1000MOL0     C34886   7.273  11.808  11.284 -0.0043  0.5459 -0.4800
 1000MOL0     C34887   7.352  11.843  11.419  0.2888 -0.2101 -0.9144
 1000MOL0     C34888   7.499  11.881  11.407  0.7732 -0.5605 -0.2876
 1000MOL0     O34889   7.536  11.988  11.495 -0.1707 -0.0016 -0.0950
 1000MOL0     C34890   7.669  12.006  11.539  0.7467  0.1120 -0.3388
 1000MOL0     C34891   7.703  12.125  11.591  0.2104 -0.9761 -0.6841
 1000MOL0     C34892   7.829  12.143  11.652 -0.2999 -0.4166 -1.3838
 1000MOL0     C34893   7.839  12.276  11.715 -0.5024 -0.4135 -0.0175
 1000MOL0     C34894   7.923  12.045  11.653  0.3780  0.8411  0.5686
 1000MOL0     C34895   8.061  12.052  11.724 -0.4461 -0.6608 -0.4669
 1000MOL0     O34896   8.111  12.168  11.771  0.1573 -0.4571 -0.7698
 1000MOL0     C34897   8.236  12.189  11.824 -0.3556  0.2283  0.5041
 1000MOL0     C34898   8.257  12.261  11.941 -0.7706  0.0136 -0.0859
 1000MOL0     C34899   8.389  12.301  11.979 -0.6096 -0.2997  0.2739
 1000MOL0     C34900   8.503  12.275  11.898  0.2971  0.3187 -0.1623
 1000MOL0     O34901   8.618  12.338  11.933 -0.2251  0.0726 -0.0390
 1000MOL0     C34902   8.727  12.317  11.846  1.2402  0.1872  0.3309
 1000MOL0     C34903   8.854  12.364  11.912  0.1255  0.1462  0.1155
 1000MOL0     C34904   8.884  12.510  11.922 -0.0766  0.2014  0.3563
 1000MOL0     C34905   9.016  12.547  11.999 -0.3449  0.6112 -0.5437
 1000MOL0     C34906   9.025  12.699  12.049  0.3422 -0.4341 -0.1403
 1000MOL0     C34907   9.166  12.739  12.099  0.1376  0.0780  0.3640
 1000MOL0     C34908   9.170  12.877  12.166 -0.2672  0.2009  0.1410
 1000MOL0     C34909   9.081  12.902  12.288 -0.3163 -0.4210 -0.0039
 1000MOL0    Cl34910   9.089  12.760  12.402 -0.4580  0.3164 -0.0886
 1000MOL0     C34911   8.484  12.197  11.786  0.0995 -0.0914  0.1985
 1000MOL0     C34912   8.353  12.150  11.754 -0.6845  0.3784  0.1364
 1000MOL0     O34913   8.123  11.950  11.738 -0.1327  0.3098  0.4252
 1000MOL0     C34914   7.891  11.919  11.586 -0.1578  0.1832  0.7472
 1000MOL0     C34915   7.764  11.909  11.528  0.2309  0.5444 -0.1944
 1000MOL0     N34916   7.003  11.720  11.105  0.0977 -0.1098  0.2853
 1000MOL0     N34917   6.962  11.637  11.018 -0.0836  0.5289 -1.0514
 1000MOL0     C34918   6.784  10.864  10.106  0.0407 -0.0405 -0.1719
 1000MOL0     C34919   6.718  10.888   9.987 -0.6179  0.6183 -0.3283
 1000MOL0     C34920   6.654  11.021   9.555 -0.5326 -1.0502  0.6316
 1000MOL0     C34921   6.691  10.958   9.441 -0.6742  0.3594  0.1890
 1000MOL0     C34922   6.631  10.985   9.321  0.0129  0.2243  0.1360
 1000MOL0     C34923   6.529  11.081   9.317 -0.4202 -0.0979  0.5870
 1000MOL0     O34924   6.488  11.105   9.190  1.2285 -0.0803  0.4398
 1000MOL0     C34925   6.350  11.159   9.178  0.0189  0.0407  0.0614
 1000MOL0     C34926   6.359  11.276   9.086 -0.0780  0.1093 -0.2914
 1000MOL0     C34927   6.228  11.336   9.042 -0.7213 -0.3201  0.1994
 1000MOL0     C34928   6.204  11.355   8.889  0.2972 -0.0652  0.2958
 1000MOL0     C34929   6.058  11.353   8.861 -1.3402  0.1814  1.0346
 1000MOL0     C34930   5.944  11.357   8.862  0.2746 -0.2049  0.8444
 1000MOL0     C34931   6.501  11.161   9.426  0.2381  0.1652 -0.1069
 1000MOL0     C34932   6.551  11.126   9.549 -0.9081  0.6325  0.5978
 1000MOL0     H34933   6.872  11.169   9.884 -0.7507  1.3241  1.1022
 1000MOL0     H34934   7.014  11.117  10.081  1.3644  0.6069 -1.2190
 1000MOL0     H34935   7.111  11.044  10.304 -0.8422  2.7437  1.0636
 1000MOL0     H34936   6.948  11.114  10.311 -0.7834 -0.0707 -1.7750
 1000MOL0     H34937   6.917  10.927  10.499 -0.4954  1.3743  2.4663
 1000MOL0     H34938   7.093  10.906  10.481 -0.8503 -0.2346 -2.5608
 1000MOL0     H34939   6.949  11.163  10.568 -1.9372 -0.9569 -4.1726
 1000MOL0     H34940   7.010  11.050  10.673 -0.2364 -3.5745 -1.4401
 1000MOL0     H34941   7.248  11.077  10.580 -0.8268 -2.1263  1.5591
 1000MOL0     H34942   7.176  11.186  10.458 -0.2675  1.0000  0.7684
 1000MOL0     H34943   7.275  11.322  10.627 -2.1234  2.6599  0.0478
 1000MOL0     H34944   7.110  11.354  10.627 -0.3214  1.2144  1.6298
 1000MOL0     H34945   7.098  11.200  10.833 -1.4529  0.7885 -3.9915
 1000MOL0     H34946   7.279  11.190  10.827 -0.9738 -1.2258 -0.5753
 1000MOL0     H34947   7.254  11.344  10.984 -0.6339  1.6810  2.1195
 1000MOL0     H34948   7.260  11.451  10.849 -1.8808  0.8753 -0.5188
 1000MOL0     H34949   7.000  11.342  10.955  3.0770 -2.2287 -1.4439
 1000MOL0     H34950   7.021  11.481  10.838  0.9003  4.1228  1.3691
 1000MOL0     H34951   7.214  11.481  11.173 -1.0850 -0.2459  1.7499
 1000MOL0     H34952   7.083  11.776  11.388  0.5503  0.3692  0.2513
 1000MOL0     H34953   7.172  11.635  11.375 -2.8201 -0.6743  0.9345
 1000MOL0     H34954   7.241  11.893  11.222  0.7115 -0.2066 -1.9365
 1000MOL0     H34955   7.339  11.744  11.225 -0.3794 -0.0849 -0.2229
 1000MOL0     H34956   7.358  11.756  11.485 -0.9560 -1.0304 -1.8224
 1000MOL0     H34957   7.299  11.923  11.472  0.0813 -0.5236 -0.6393
 1000MOL0     H34958   7.529  11.898  11.304  0.6438  2.0027  0.0163
 1000MOL0     H34959   7.558  11.798  11.445  1.3384  0.9443  2.4180
 1000MOL0     H34960   7.628  12.203  11.587  0.1417 -0.8010  2.3107
 1000MOL0     H34961   7.902  12.329  11.643  1.1171 -4.7130 -2.0949
 1000MOL0     H34962   7.749  12.336  11.730 -1.2571 -1.3779 -0.5436
 1000MOL0     H34963   7.892  12.277  11.811 -1.0391  0.8095  0.2865
 1000MOL0     H34964   8.171  12.289  12.001 -0.5284 -0.0243  0.2880
 1000MOL0     H34965   8.393  12.358  12.071  0.7899  0.6196 -0.3238
 1000MOL0     H34966   8.738  12.209  11.832 -3.8423 -0.8661  2.3739
 1000MOL0     H34967   8.717  12.367  11.749  0.9813 -0.8167 -0.1783
 1000MOL0     H34968   8.866  12.311  12.008  0.8941 -0.0284 -0.0656
 1000MOL0     H34969   8.928  12.330  11.838 -1.4502 -0.2629 -1.3263
 1000MOL0     H34970   8.805  12.557  11.982 -1.5324 -0.1517 -1.2110
 1000MOL0     H34971   8.882  12.555  11.823  0.1127  0.1810  0.3432
 1000MOL0     H34972   9.035  12.485  12.087 -3.8009  0.4354  0.2081
 1000MOL0     H34973   9.093  12.529  11.923 -0.5304 -3.1211 -0.0221
 1000MOL0     H34974   8.954  12.699  12.132  3.6174  1.2282  2.9103
 1000MOL0     H34975   9.004  12.768  11.967 -1.5117 -0.9609 -0.1598
 1000MOL0     H34976   9.193  12.663  12.173  1.1407 -0.1380 -0.2045
 1000MOL0     H34977   9.238  12.740  12.017 -1.2445 -1.1252 -0.9206
 1000MOL0     H34978   9.160  12.944  12.080 -2.0894 -3.4415 -2.7541
 1000MOL0     H34979   9.274  12.880  12.202  0.3216  1.8311 -1.5346
 1000MOL0     H34980   8.981  12.919  12.247 -0.0065  0.8227 -0.2975
 1000MOL0     H34981   9.112  12.996  12.335 -1.0174  1.0011 -2.1988
 1000MOL0     H34982   8.564  12.167  11.720 -0.3023  0.3171 -0.4841
 1000MOL0     H34983   8.336  12.096  11.662  0.1955 -0.6600  0.5678
 1000MOL0     H34984   7.960  11.835  11.595  1.2262  1.3964  2.1619
 1000MOL0     H34985   7.748  11.808  11.491 -2.1958  1.2511 -1.3119
 1000MOL0     H34986   6.769  10.778  10.171 -3.2655  0.4791 -0.0729
 1000MOL0     H34987   6.636  10.823   9.960 -0.6249 -0.9897  3.0243
 1000MOL0     H34988   6.773  10.887   9.446 -0.3411  0.7136 -0.2331
 1000MOL0     H34989   6.661  10.937   9.228 -0.7355 -2.2100  1.0694
 1000MOL0     H34990   6.290  11.077   9.137  2.7038 -1.1280 -1.8655
 1000MOL0     H34991   6.305  11.187   9.274  1.2739 -1.2391  1.0613
 1000MOL0     H34992   6.410  11.239   8.997 -0.9170  2.4116 -1.8141
 1000MOL0     H34993   6.415  11.357   9.134  0.5297  0.8167 -2.0959
 1000MOL0     H34994   6.196  11.425   9.098 -1.0658  0.5285 -1.2962
 1000MOL0     H34995   6.154  11.262   9.073 -0.5849 -1.8945 -2.8234
 1000MOL0     H34996   6.229  11.260   8.841 -1.8887 -0.7746  0.4407
 1000MOL0     H34997   6.250  11.443   8.842  1.0643 -1.0343 -0.8268
 1000MOL0     H34998   5.842  11.328   8.848  0.4516  0.2708 -2.0148
 1000MOL0     H34999   6.421  11.234   9.424  1.5200  1.6437 -2.3267
 1000MOL0     H35000   6.543  11.188   9.638  1.5214  0.1411  1.2463
 1001MOL0     O35001   3.441   9.453   1.791  0.6893 -0.5059  0.3868
 1001MOL0     C35002   3.368   9.384   1.865 -0.3971  0.2463  0.8226
 1001MOL0     O35003   3.256   9.314   1.832 -0.0910  0.1946 -0.2727
 1001MOL0     C35004   3.215   9.296   1.700  0.8764  0.3467 -0.0003
 1001MOL0     C35005   3.204   9.409   1.618 -0.7322  0.0343 -0.0598
 1001MOL0     C35006   3.145   9.406   1.491 -1.1522 -0.8399  0.3859
 1001MOL0     C35007   3.080   9.285   1.456 -1.8042 -0.1622 -0.2667
 1001MOL0     O35008   3.007   9.279   1.342  0.1782  0.1863  0.3921
 1001MOL0     C35009   3.081   9.312   1.225  0.0896 -1.0172  0.9837
 1001MOL0     C35010   3.004   9.255   1.101  0.1475 -0.2691 -0.6095
 1001MOL0     C35011   2.878   9.339   1.065 -0.5127  0.9560  0.5522
 1001MOL0     C35012   2.917   9.469   0.990  1.1690  1.5095  0.5300
 1001MOL0     C35013   2.789   9.553   0.987  0.1882  0.1143  0.7091
 1001MOL0     C35014   2.811   9.686   0.930 -0.7860  0.4661  0.2533
 1001MOL0     C35015   2.670   9.749   0.922 -0.6939 -0.9147 -0.8122
 1001MOL0     C35016   2.616   9.793   1.062 -0.6250 -0.4582  0.2231
 1001MOL0     N35017   2.485   9.730   1.098  0.0065  0.4644 -0.0441
 1001MOL0     C35018   2.474   9.626   1.183  0.0156  0.2775 -0.5643
 1001MOL0     C35019   2.351   9.585   1.160  0.5218  0.7088 -0.1332
 1001MOL0     C35020   2.275   9.488   1.236  0.0813 -0.2452  0.3438
 1001MOL0     C35021   2.245   9.359   1.163 -0.8373  0.4362 -0.4480
 1001MOL0     C35022   2.157   9.269   1.250 -0.0172 -0.6435 -0.8598
 1001MOL0     C35023   2.024   9.338   1.274  0.4560  0.4649  0.3446
 1001MOL0     O35024   1.952   9.238   1.342  0.1704 -0.0053  0.4141
 1001MOL0     C35025   1.820   9.259   1.365 -0.4057 -0.1866 -0.3769
 1001MOL0     C35026   1.755   9.163   1.442  0.4377 -0.3736  0.2474
 1001MOL0     C35027   1.617   9.173   1.475 -0.5730  0.4472 -0.4656
 1001MOL0     C35028   1.549   9.064   1.551  0.5049  0.4474 -0.1602
 1001MOL0     C35029   1.540   9.281   1.430 -0.4689  0.3491 -0.3735
 1001MOL0     C35030   1.401   9.306   1.470  0.0028 -0.3353  0.0548
 1001MOL0     O35031   1.316   9.204   1.498  0.0263  0.9297 -0.7077
 1001MOL0     C35032   1.183   9.219   1.524  0.1709 -0.9213 -0.8992
 1001MOL0     C35033   1.126   9.142   1.629 -0.2544  0.0488 -0.1060
 1001MOL0     C35034   0.999   9.164   1.673  0.7840 -0.7228  0.1901
 1001MOL0     C35035   0.909   9.256   1.607  0.1564  0.1132 -0.7232
 1001MOL0     O35036   0.781   9.282   1.638 -0.5582  0.2329  0.9023
 1001MOL0     C35037   0.737   9.248   1.776 -0.1594  0.2754  0.6731
 1001MOL0     C35038   0.595   9.310   1.796  0.3151  0.5139 -0.6083
 1001MOL0     C35039   0.547   9.263   1.930  0.6545 -0.4239  0.3745
 1001MOL0     C35040   0.390   9.285   1.938  0.4310  0.1943  0.1330
 1001MOL0     C35041   0.318   9.212   2.048  0.8275  0.7516  0.1485
 1001MOL0     C35042   0.159   9.243   2.056 -1.0107  0.4585  0.8138
 1001MOL0     C35043   0.077   9.164   1.953 -0.9850  0.3808  0.5853
 1001MOL0     C35044  -0.052   9.231   1.922  0.3553  0.9372  0.3675
 1001MOL0    Cl35045  -0.146   9.251   2.073  0.3800  0.3329 -0.3645
 1001MOL0     C35046   0.973   9.332   1.506 -0.7536  0.1147  0.6862
 1001MOL0     C35047   1.104   9.321   1.464 -0.1570  0.4443 -0.6921
 1001MOL0     O35048   1.370   9.423   1.481 -0.0704  0.3600  0.1801
 1001MOL0     C35049   1.609   9.385   1.362 -0.3804  0.4942  0.1117
 1001MOL0     C35050   1.747   9.377   1.327  0.8296  0.7040  0.5499
 1001MOL0     N35051   2.288   9.665   1.064  0.5815 -0.3459  0.7895
 1001MOL0     N35052   2.372   9.752   1.027  0.4664  0.2277  0.3756
 1001MOL0     C35053   3.082   9.174   1.547  0.4280 -0.6746  0.1808
 1001MOL0     C35054   3.158   9.168   1.661 -0.7524  0.1643 -0.1686
 1001MOL0     C35055   3.411   9.386   2.005  1.1928  0.3310  0.1567
 1001MOL0     C35056   3.329   9.328   2.101  0.0673 -0.5220 -0.1417
 1001MOL0     C35057   3.359   9.353   2.236 -0.7357  0.7145 -0.4419
 1001MOL0     C35058   3.470   9.421   2.278  0.3846 -0.2114 -0.7475
 1001MOL0     O35059   3.483   9.435   2.411 -0.2665 -0.3335  0.2349
 1001MOL0     C35060   3.614   9.453   2.473  0.2637 -0.2797 -0.4329
 1001MOL0     C35061   3.667   9.591   2.468  1.2593 -0.4731 -0.4468
 1001MOL0     C35062   3.771   9.610   2.577 -0.4276 -0.2157  0.4357
 1001MOL0     C35063   3.864   9.727   2.540 -0.0529 -0.0975  0.0170
 1001MOL0     C35064   3.801   9.836   2.454 -0.4188  0.8053  0.2230
 1001MOL0     C35065   3.764   9.925   2.388  0.9239 -0.0234  0.5826
 1001MOL0     C35066   3.561   9.459   2.179 -1.0850 -0.0694 -0.5628
 1001MOL0     C35067   3.536   9.447   2.044  0.6244  0.2330  0.4806
 1001MOL0     H35068   3.242   9.507   1.644 -1.7629 -0.4087  3.7401
 1001MOL0     H35069   3.147   9.499   1.435  1.0071 -0.7294  0.5570
 1001MOL0     H35070   3.091   9.419   1.204  0.4622 -1.6150 -2.4758
 1001MOL0     H35071   3.177   9.260   1.232 -0.0824 -2.1383 -2.8137
 1001MOL0     H35072   3.060   9.258   1.008 -1.2883 -1.9779 -1.5890
 1001MOL0     H35073   2.971   9.154   1.126 -0.2537 -0.1558 -0.6765
 1001MOL0     H35074   2.816   9.288   0.991  1.1795  2.2570 -1.8790
 1001MOL0     H35075   2.813   9.356   1.152  0.6327 -0.6331  1.7758
 1001MOL0     H35076   2.983   9.526   1.056 -0.3773  1.7973  1.8886
 1001MOL0     H35077   2.956   9.446   0.891 -1.6729 -2.6189  0.1386
 1001MOL0     H35078   2.702   9.504   0.944  1.1896 -1.1632  0.0756
 1001MOL0     H35079   2.785   9.563   1.096 -1.5607 -1.8201  0.8684
 1001MOL0     H35080   2.889   9.738   0.988 -0.9737  1.7056 -0.5702
 1001MOL0     H35081   2.847   9.674   0.828 -1.8847  1.5605 -0.2940
 1001MOL0     H35082   2.670   9.846   0.871  0.4444 -0.3040  0.2919
 1001MOL0     H35083   2.593   9.690   0.871 -3.6692  1.8677  0.0730
 1001MOL0     H35084   2.589   9.899   1.059  3.4091  0.7671  0.8370
 1001MOL0     H35085   2.689   9.767   1.139  0.1014 -1.2118 -0.6940
 1001MOL0     H35086   2.535   9.605   1.271 -0.4623  1.8819  0.2076
 1001MOL0     H35087   2.332   9.459   1.325  3.2042 -1.0679 -1.7578
 1001MOL0     H35088   2.189   9.539   1.280 -0.6247 -0.1375 -1.0897
 1001MOL0     H35089   2.337   9.314   1.125 -0.4596 -0.0929  1.0280
 1001MOL0     H35090   2.183   9.375   1.074 -0.1094 -2.2719 -1.5569
 1001MOL0     H35091   2.211   9.236   1.340 -0.1639 -1.5055 -1.0789
 1001MOL0     H35092   2.146   9.179   1.188  0.3378 -0.7029 -0.8421
 1001MOL0     H35093   1.974   9.363   1.180  2.0585 -1.8776 -1.2510
 1001MOL0     H35094   2.031   9.424   1.340 -0.7021  1.9374 -1.3465
 1001MOL0     H35095   1.818   9.081   1.474  3.1558  1.1294 -0.8698
 1001MOL0     H35096   1.468   9.023   1.489  2.3921 -3.4474 -0.3649
 1001MOL0     H35097   1.628   8.989   1.568  1.8425  2.3504  2.8651
 1001MOL0     H35098   1.515   9.110   1.644 -1.9821 -0.0866 -0.7353
 1001MOL0     H35099   1.195   9.071   1.674 -2.5913 -0.9623  2.1133
 1001MOL0     H35100   0.943   9.100   1.740 -1.5689  3.6985  2.9541
 1001MOL0     H35101   0.735   9.139   1.788 -4.7692 -0.0268 -0.9826
 1001MOL0     H35102   0.801   9.291   1.854 -1.0559  3.2602 -0.1334
 1001MOL0     H35103   0.609   9.416   1.815  0.6454  0.4155 -0.2866
 1001MOL0     H35104   0.521   9.307   1.716 -1.1055  1.0405  0.6415
 1001MOL0     H35105   0.599   9.331   1.999  2.4213  0.9727 -2.1590
 1001MOL0     H35106   0.579   9.159   1.933 -1.4807 -1.1033  1.5078
 1001MOL0     H35107   0.373   9.393   1.941 -0.4203  0.0866 -0.4891
 1001MOL0     H35108   0.334   9.244   1.854  0.6420 -1.8193  0.8893
 1001MOL0     H35109   0.367   9.257   2.135  0.6247  0.5813  0.3518
 1001MOL0     H35110   0.338   9.106   2.066  0.8615  0.3275 -2.1394
 1001MOL0     H35111   0.138   9.215   2.160  0.5496 -2.7837  0.4043
 1001MOL0     H35112   0.138   9.350   2.053  0.5542  0.7756 -1.9123
 1001MOL0     H35113   0.046   9.066   1.989 -2.9827 -0.4462 -2.9132
 1001MOL0     H35114   0.127   9.160   1.855 -0.5074  3.6186  0.5632
 1001MOL0     H35115  -0.098   9.170   1.844  1.7758  2.1718 -1.5441
 1001MOL0     H35116  -0.032   9.329   1.878 -0.0886  1.1639  0.6564
 1001MOL0     H35117   0.917   9.420   1.475  1.6586  1.3943 -0.3095
 1001MOL0     H35118   1.165   9.369   1.388  2.5572 -0.8336  0.5130
 1001MOL0     H35119   1.553   9.475   1.338  1.6490  2.0223  0.7826
 1001MOL0     H35120   1.798   9.462   1.283  1.4635 -1.3317 -2.9890
 1001MOL0     H35121   3.024   9.083   1.532 -0.2950 -0.5283  1.8674
 1001MOL0     H35122   3.171   9.087   1.732  2.3606  1.0740  0.4204
 1001MOL0     H35123   3.240   9.272   2.075  1.9316 -2.7445 -2.1839
 1001MOL0     H35124   3.291   9.301   2.303 -1.3883 -0.0647 -1.6658
 1001MOL0     H35125   3.604   9.430   2.579 -3.4575  0.7320 -0.4462
 1001MOL0     H35126   3.680   9.380   2.424  0.6036 -0.9802  1.0307
 1001MOL0     H35127   3.591   9.664   2.500  3.6309  0.7134  3.0167
 1001MOL0     H35128   3.698   9.618   2.366 -0.8121 -0.0300 -1.0294
 1001MOL0     H35129   3.818   9.513   2.592 -0.6765 -0.7730 -2.0345
 1001MOL0     H35130   3.716   9.642   2.667 -2.6945 -3.1364  0.2353
 1001MOL0     H35131   3.947   9.684   2.484 -0.4276 -0.0749 -0.5665
 1001MOL0     H35132   3.904   9.761   2.637  1.9432 -2.4158  0.1120
 1001MOL0     H35133   3.717   9.999   2.326  2.6328  1.3638  0.8547
 1001MOL0     H35134   3.656   9.503   2.208 -1.5452  0.0206  0.8846
 1001MOL0     H35135   3.603   9.478   1.965 -2.2301  4.2288 -0.6547
 1002MOL0     O35136   4.712   1.110   1.205 -0.5571  0.0987  0.1827
 1002MOL0     C35137   4.748   1.208   1.146 -0.1980  0.3175 -0.0764
 1002MOL0     O35138   4.704   1.335   1.169 -0.2223 -0.7230 -0.2812
 1002MOL0     C35139   4.639   1.351   1.292  0.6483 -0.0759  0.3787
 1002MOL0     C35140   4.711   1.384   1.400 -0.5145  0.8913 -0.4283
 1002MOL0     C35141   4.638   1.408   1.523 -0.0502 -0.4932  0.3286
 1002MOL0     C35142   4.501   1.409   1.529 -0.0898 -0.2460  0.0406
 1002MOL0     O35143   4.439   1.437   1.645 -0.2076  0.5060 -0.5355
 1002MOL0     C35144   4.321   1.526   1.639  0.7008 -0.3142  0.1736
 1002MOL0     C35145   4.217   1.471   1.740 -0.4584 -0.3425  1.0107
 1002MOL0     C35146   4.178   1.327   1.707 -1.1772  0.4417 -1.3333
 1002MOL0     C35147   4.057   1.275   1.791  0.1232  0.1635  0.3105
 1002MOL0     C35148   4.023   1.141   1.721  0.5715  0.7791 -0.4826
 1002MOL0     C35149   3.934   1.050   1.809  0.8349 -0.3806 -0.1401
 1002MOL0     C35150   3.805   1.124   1.844 -0.1695  0.5552 -0.1577
 1002MOL0     C35151   3.708   1.020   1.902  0.2045  0.0016 -0.7434
 1002MOL0     N35152   3.767   0.942   2.013 -0.6944 -0.7032 -0.1778
 1002MOL0     C35153   3.793   0.987   2.140 -1.2490 -0.0015  0.5328
 1002MOL0     C35154   3.822   0.870   2.204 -1.1809 -0.1772 -1.4534
 1002MOL0     C35155   3.836   0.852   2.355 -0.2890  0.1274  0.6335
 1002MOL0     C35156   3.700   0.826   2.415  0.6667 -1.2510  1.3487
 1002MOL0     C35157   3.715   0.811   2.567 -0.3616 -0.3873  0.7176
 1002MOL0     C35158   3.584   0.809   2.643 -0.1799 -0.4591 -0.6026
 1002MOL0     O35159   3.535   0.678   2.616  0.3979 -0.2217 -0.2802
 1002MOL0     C35160   3.425   0.638   2.684 -0.1473 -0.2389  0.4901
 1002MOL0     C35161   3.329   0.713   2.748  0.4411 -0.1696  0.1667
 1002MOL0     C35162   3.209   0.658   2.806 -0.7734 -0.0953  0.8292
 1002MOL0     C35163   3.101   0.753   2.854 -0.0868  0.4568 -0.4754
 1002MOL0     C35164   3.197   0.517   2.821 -1.0811 -0.1651  0.6846
 1002MOL0     C35165   3.092   0.451   2.908 -0.7323 -0.3319  0.0015
 1002MOL0     O35166   3.074   0.327   2.889 -0.2145 -0.8666  0.5421
 1002MOL0     C35167   2.954   0.269   2.909 -0.4024 -0.4338 -0.4949
 1002MOL0     C35168   2.827   0.335   2.881 -0.5371  0.3250 -0.1832
 1002MOL0     C35169   2.708   0.254   2.880  1.1276  0.5966 -0.1673
 1002MOL0     C35170   2.707   0.112   2.885 -0.0952  0.7147  0.2605
 1002MOL0     O35171   2.602   0.023   2.863 -0.9186 -0.0930  0.2459
 1002MOL0     C35172   2.475   0.082   2.819  0.0644  0.0193 -0.0428
 1002MOL0     C35173   2.482   0.110   2.663 -0.3705 -0.0171 -0.0378
 1002MOL0     C35174   2.474  -0.006   2.566 -0.7935 -0.4258 -0.0027
 1002MOL0     C35175   2.454   0.049   2.417  0.6337  0.1292 -0.6121
 1002MOL0     C35176   2.573   0.138   2.369  0.1731 -0.2981 -0.6761
 1002MOL0     C35177   2.703   0.070   2.342 -0.2846 -0.0559  0.8105
 1002MOL0     C35178   2.695   0.013   2.199  0.1726  0.1418  0.2830
 1002MOL0     C35179   2.801  -0.088   2.167 -0.2306 -0.2723 -0.5772
 1002MOL0    Cl35180   2.973  -0.023   2.181 -0.1626 -0.1502 -0.1231
 1002MOL0     C35181   2.828   0.057   2.899 -0.0089  0.2666 -0.3347
 1002MOL0     C35182   2.949   0.128   2.919  0.7096  0.1537  0.4292
 1002MOL0     O35183   3.017   0.522   2.973  0.2259 -0.0673 -0.3410
 1002MOL0     C35184   3.300   0.437   2.767  0.2770  0.5150  0.7723
 1002MOL0     C35185   3.401   0.501   2.684 -0.6186  0.5944  0.4556
 1002MOL0     N35186   3.822   0.757   2.120 -0.1243 -0.4871  0.2620
 1002MOL0     N35187   3.794   0.813   2.005  0.2905  0.1278  0.6139
 1002MOL0     C35188   4.430   1.371   1.409 -0.4100 -0.0468  0.5778
 1002MOL0     C35189   4.501   1.344   1.286  0.6652 -0.2949  0.9954
 1002MOL0     C35190   4.846   1.180   1.045 -0.1285  0.1329  0.2484
 1002MOL0     C35191   4.858   1.274   0.942 -0.2070 -0.4676 -0.1943
 1002MOL0     C35192   4.974   1.273   0.859  0.6702  0.6175  0.4492
 1002MOL0     C35193   5.066   1.170   0.872 -0.4379  0.0654  0.9532
 1002MOL0     O35194   5.181   1.156   0.802  0.2865 -0.6724  0.3505
 1002MOL0     C35195   5.256   1.269   0.756 -0.7023  0.3997  0.7290
 1002MOL0     C35196   5.398   1.255   0.802  0.0667 -0.4580  0.3780
 1002MOL0     C35197   5.397   1.276   0.958 -0.3115 -0.0633 -0.2497
 1002MOL0     C35198   5.543   1.271   1.028  0.2185  1.2165  1.0193
 1002MOL0     C35199   5.617   1.390   0.975  1.0355 -0.5693  0.7625
 1002MOL0     C35200   5.629   1.497   0.918  1.0279 -0.2873  0.0855
 1002MOL0     C35201   5.044   1.074   0.971 -0.2069 -0.4438 -0.0319
 1002MOL0     C35202   4.936   1.077   1.058 -0.1674  0.1350  0.1135
 1002MOL0     H35203   4.818   1.397   1.392 -0.1923 -1.1958  0.1451
 1002MOL0     H35204   4.695   1.448   1.606 -1.1889  0.5828  0.6255
 1002MOL0     H35205   4.351   1.626   1.674 -0.5778 -0.6106  2.2890
 1002MOL0     H35206   4.282   1.544   1.539  2.4500 -3.2662 -1.1512
 1002MOL0     H35207   4.274   1.467   1.833  2.1008  1.7460 -0.3347
 1002MOL0     H35208   4.133   1.540   1.749  1.2887  2.1389 -0.5247
 1002MOL0     H35209   4.166   1.316   1.599  0.5896  3.5365 -1.9615
 1002MOL0     H35210   4.265   1.266   1.734 -1.8499  0.3501  0.9107
 1002MOL0     H35211   4.078   1.267   1.898  1.9818  1.6904  0.1096
 1002MOL0     H35212   3.980   1.351   1.779 -0.6907 -0.6557  0.2262
 1002MOL0     H35213   3.963   1.154   1.631  2.0740  1.4565 -1.4321
 1002MOL0     H35214   4.114   1.088   1.691 -0.3432 -1.1863  0.0647
 1002MOL0     H35215   3.920   0.959   1.750  3.8899 -0.1092 -1.5130
 1002MOL0     H35216   3.991   1.026   1.899 -1.0065  0.3165  1.2715
 1002MOL0     H35217   3.824   1.202   1.918 -0.8082  1.4676 -0.9270
 1002MOL0     H35218   3.766   1.179   1.757 -0.7308  1.4031  0.6097
 1002MOL0     H35219   3.689   0.941   1.828  2.5319 -0.6701 -0.7273
 1002MOL0     H35220   3.612   1.067   1.921  0.9218  1.7901 -1.3547
 1002MOL0     H35221   3.783   1.086   2.184 -2.9067  0.5902 -1.0320
 1002MOL0     H35222   3.909   0.777   2.386 -0.3104  0.2776  1.0517
 1002MOL0     H35223   3.875   0.948   2.391  0.5950  0.0539 -0.0895
 1002MOL0     H35224   3.649   0.739   2.371 -0.2496 -1.1839  2.2136
 1002MOL0     H35225   3.639   0.915   2.401  0.6545 -1.5108 -0.4228
 1002MOL0     H35226   3.773   0.897   2.604 -0.1761 -0.3518  0.3557
 1002MOL0     H35227   3.772   0.723   2.598  0.9135  0.1052 -0.1421
 1002MOL0     H35228   3.533   0.901   2.614 -0.5732  0.1212  1.7348
 1002MOL0     H35229   3.587   0.811   2.752 -1.8851  2.2551 -0.5131
 1002MOL0     H35230   3.338   0.821   2.756  1.3827 -0.2962  1.2160
 1002MOL0     H35231   3.100   0.755   2.963  1.1593 -0.4351 -0.4322
 1002MOL0     H35232   3.121   0.855   2.819  2.7263  0.5379  1.1742
 1002MOL0     H35233   3.004   0.722   2.814 -0.0508  1.6474 -1.5747
 1002MOL0     H35234   2.810   0.440   2.859  0.7882  0.8505  1.1166
 1002MOL0     H35235   2.609   0.300   2.883  1.3472  1.0266  1.2881
 1002MOL0     H35236   2.397   0.010   2.842  1.6495 -1.6861  0.2417
 1002MOL0     H35237   2.468   0.176   2.874  5.0315  0.3138  0.5717
 1002MOL0     H35238   2.403   0.183   2.645 -1.7380 -1.6606 -0.9845
 1002MOL0     H35239   2.580   0.156   2.644 -0.7760 -0.1309 -2.7947
 1002MOL0     H35240   2.391  -0.072   2.592 -1.7927  0.6971 -0.2266
 1002MOL0     H35241   2.564  -0.068   2.564 -0.0368  0.6343  0.6614
 1002MOL0     H35242   2.445  -0.032   2.345  2.1364 -1.0460  0.4679
 1002MOL0     H35243   2.365   0.113   2.424  1.5485  1.4719 -0.7721
 1002MOL0     H35244   2.602   0.202   2.453  1.9030 -2.2359  0.2807
 1002MOL0     H35245   2.550   0.203   2.284  0.3118 -0.6331 -0.9701
 1002MOL0     H35246   2.786   0.141   2.352 -1.2735  1.0845  1.1168
 1002MOL0     H35247   2.724  -0.008   2.416  0.5057  0.3720  1.0536
 1002MOL0     H35248   2.718   0.091   2.126 -0.3665  1.6371  1.6274
 1002MOL0     H35249   2.596  -0.029   2.181 -0.1237  1.3886 -1.1673
 1002MOL0     H35250   2.780  -0.126   2.066  1.5500 -2.5276 -0.1842
 1002MOL0     H35251   2.788  -0.170   2.238  3.3478  0.8262  1.6210
 1002MOL0     H35252   2.838  -0.050   2.889 -0.5257  0.3256 -1.5979
 1002MOL0     H35253   3.042   0.075   2.936  1.0925 -1.7485 -5.3793
 1002MOL0     H35254   3.297   0.329   2.768  0.1085  0.4882 -0.3849
 1002MOL0     H35255   3.465   0.439   2.622  1.3716  2.9836 -0.0556
 1002MOL0     H35256   4.324   1.350   1.409  0.2537 -4.0329  0.8397
 1002MOL0     H35257   4.462   1.318   1.188 -1.0844 -2.1227  2.0941
 1002MOL0     H35258   4.797   1.364   0.932  0.4936  0.1949  1.2069
 1002MOL0     H35259   4.978   1.337   0.771  0.1732  0.7869  0.5438
 1002MOL0     H35260   5.255   1.265   0.647  1.7222  2.2379  0.5460
 1002MOL0     H35261   5.229   1.369   0.791  2.0669  1.8451 -0.9184
 1002MOL0     H35262   5.467   1.324   0.752 -0.2802 -1.1085 -1.0278
 1002MOL0     H35263   5.426   1.155   0.769 -2.2099 -0.2412 -2.6298
 1002MOL0     H35264   5.343   1.192   1.001  0.0096 -0.5917 -0.8610
 1002MOL0     H35265   5.338   1.364   0.987  0.9511  1.5717 -2.2587
 1002MOL0     H35266   5.596   1.183   0.990 -0.9841  0.8596  0.1132
 1002MOL0     H35267   5.541   1.268   1.137  0.7263 -3.8926  1.1443
 1002MOL0     H35268   5.628   1.589   0.863  0.6886 -0.6999 -0.6164
 1002MOL0     H35269   5.113   0.991   0.986  1.3292  1.2342  3.3776
 1002MOL0     H35270   4.927   1.011   1.143 -1.2380 -2.0248 -1.5591
 1003MOL0     O35271   4.500   6.205  11.368  0.0264 -0.4385  0.1267
 1003MOL0     C35272   4.412   6.227  11.280 -0.2977  0.8936 -0.4255
 1003MOL0     O35273   4.434   6.263  11.155  0.3377  0.8197  0.0800
 1003MOL0     C35274   4.564   6.289  11.117  0.5572  0.1990  0.3885
 1003MOL0     C35275   4.630   6.216  11.017  0.6395  0.8304  0.2930
 1003MOL0     C35276   4.743   6.268  10.955 -0.3861  0.7713 -0.0179
 1003MOL0     C35277   4.799   6.391  10.994  0.4633 -0.6214 -0.3720
 1003MOL0     O35278   4.915   6.440  10.944 -0.6442 -0.3394  0.5251
 1003MOL0     C35279   5.016   6.506  11.025  0.8331 -0.3114  0.4619
 1003MOL0     C35280   5.131   6.522  10.931 -0.1696 -0.2236 -0.1146
 1003MOL0     C35281   5.264   6.543  11.005 -0.4993  0.8039  0.5861
 1003MOL0     C35282   5.310   6.688  10.979  0.1649 -0.6411  0.5061
 1003MOL0     C35283   5.441   6.721  11.062  0.5110  0.7529  0.6318
 1003MOL0     C35284   5.533   6.840  11.009 -0.0876 -0.0862  0.0167
 1003MOL0     C35285   5.679   6.838  11.059  1.7538 -1.5684 -0.8886
 1003MOL0     C35286   5.766   6.747  10.978 -1.1572 -0.5358 -0.8729
 1003MOL0     N35287   5.910   6.747  10.997 -0.3551  0.7697 -0.5515
 1003MOL0     C35288   5.974   6.673  11.091 -1.4107 -0.1238 -0.2719
 1003MOL0     C35289   6.104   6.708  11.065 -1.2536  0.7708  0.4330
 1003MOL0     C35290   6.212   6.662  11.136 -1.0126 -0.8234 -0.6870
 1003MOL0     C35291   6.227   6.751  11.264  0.3339  0.2295 -0.6636
 1003MOL0     C35292   6.367   6.750  11.336 -0.6254 -0.1592 -0.5084
 1003MOL0     C35293   6.370   6.814  11.471  0.2235  0.3383  0.1480
 1003MOL0     O35294   6.496   6.777  11.539  0.0146 -0.0472 -0.2426
 1003MOL0     C35295   6.605   6.847  11.503 -0.5010 -0.3092  0.6665
 1003MOL0     C35296   6.615   6.970  11.436 -0.7119 -0.5835 -0.8525
 1003MOL0     C35297   6.737   7.026  11.407 -1.7761  0.1604  0.5981
 1003MOL0     C35298   6.742   7.151  11.335 -0.4186 -0.1312  0.4700
 1003MOL0     C35299   6.855   6.961  11.449  0.1888  0.8361 -0.4831
 1003MOL0     C35300   6.991   7.009  11.421 -0.6949  0.0563  0.0787
 1003MOL0     O35301   7.021   7.143  11.393 -0.4069 -0.3530  0.4089
 1003MOL0     C35302   7.141   7.192  11.347  1.0404  0.2957  0.6589
 1003MOL0     C35303   7.257   7.134  11.386 -1.8887  0.7578 -0.3153
 1003MOL0     C35304   7.383   7.176  11.340 -0.8848 -0.4744 -0.7454
 1003MOL0     C35305   7.379   7.289  11.259 -0.4537  0.8159 -0.1136
 1003MOL0     O35306   7.493   7.345  11.223  0.5866 -0.4017  0.5571
 1003MOL0     C35307   7.502   7.376  11.083 -0.7472  0.2217  0.0120
 1003MOL0     C35308   7.644   7.337  11.035 -0.3234 -0.0376 -0.4755
 1003MOL0     C35309   7.671   7.367  10.888  0.0126  0.1811  0.3682
 1003MOL0     C35310   7.781   7.281  10.840 -0.7093 -0.6271 -0.0179
 1003MOL0     C35311   7.926   7.337  10.854 -0.3481  0.7688 -0.5741
 1003MOL0     C35312   7.976   7.438  10.746  0.6557  0.0840 -0.3585
 1003MOL0     C35313   8.118   7.506  10.768  0.3087 -0.6105  0.3218
 1003MOL0     C35314   8.124   7.632  10.682  0.1474  0.2771  0.0680
 1003MOL0    Cl35315   8.144   7.582  10.508  0.8129 -0.1758 -0.6432
 1003MOL0     C35316   7.264   7.352  11.231 -0.7267 -0.2543  0.0635
 1003MOL0     C35317   7.142   7.307  11.272  0.1056  0.4228 -0.0904
 1003MOL0     O35318   7.070   6.917  11.406  0.2519  0.4993  0.1835
 1003MOL0     C35319   6.841   6.844  11.529  0.3116 -0.5451 -0.0374
 1003MOL0     C35320   6.717   6.788  11.548 -0.0208  0.0198 -0.0838
 1003MOL0     N35321   6.117   6.788  10.949 -0.1485  0.1822 -0.0125
 1003MOL0     N35322   5.993   6.795  10.902 -0.1836 -0.4548 -0.1482
 1003MOL0     C35323   4.728   6.470  11.091 -0.9561  0.9867  0.1034
 1003MOL0     C35324   4.614   6.417  11.148  0.1774 -0.7255 -0.0887
 1003MOL0     C35325   4.273   6.195  11.305 -0.4811  0.6576 -0.0289
 1003MOL0     C35326   4.167   6.258  11.226 -0.8567  0.3144  1.0276
 1003MOL0     C35327   4.031   6.237  11.241 -0.7023 -0.2095  0.1534
 1003MOL0     C35328   3.996   6.140  11.340 -0.9561  0.2977 -0.0074
 1003MOL0     O35329   3.865   6.109  11.380  0.0218 -0.0297  0.3502
 1003MOL0     C35330   3.760   6.171  11.299  1.3128 -0.2026  0.6572
 1003MOL0     C35331   3.630   6.139  11.357  0.2403  0.6873  0.2881
 1003MOL0     C35332   3.515   6.186  11.271  0.1735  0.1778  0.7475
 1003MOL0     C35333   3.382   6.123  11.325 -0.2830  0.9962 -0.3426
 1003MOL0     C35334   3.269   6.213  11.291 -0.7294  0.7482 -0.5733
 1003MOL0     C35335   3.179   6.289  11.267  0.2767  1.1459 -0.2981
 1003MOL0     C35336   4.097   6.077  11.417 -0.7205  0.8711  0.8987
 1003MOL0     C35337   4.239   6.101  11.401  0.0284 -0.8307 -0.7406
 1003MOL0     H35338   4.584   6.121  10.992 -2.7864  3.3567 -4.5385
 1003MOL0     H35339   4.805   6.210  10.888 -0.0074 -1.5849  2.2403
 1003MOL0     H35340   4.987   6.607  11.056 -0.0668 -0.8531  1.4994
 1003MOL0     H35341   5.038   6.439  11.109 -0.1002 -0.0351  0.9420
 1003MOL0     H35342   5.157   6.434  10.871  1.3104 -0.9063  1.4524
 1003MOL0     H35343   5.116   6.594  10.850 -1.1759 -1.6039 -1.2039
 1003MOL0     H35344   5.258   6.515  11.111  0.9325 -0.2822  0.4103
 1003MOL0     H35345   5.348   6.484  10.968  0.2820  0.9631  2.0144
 1003MOL0     H35346   5.326   6.691  10.871  0.2375 -0.2481  0.5245
 1003MOL0     H35347   5.228   6.761  10.992 -0.0559 -1.1606  2.2583
 1003MOL0     H35348   5.402   6.731  11.164 -0.5501  0.7089  0.2457
 1003MOL0     H35349   5.512   6.638  11.062 -1.1321 -0.7142  0.0426
 1003MOL0     H35350   5.536   6.831  10.900  2.2322  1.7352 -0.1416
 1003MOL0     H35351   5.486   6.937  11.029  1.8417  0.6185  1.3666
 1003MOL0     H35352   5.717   6.940  11.043  0.3714 -0.3309  2.6490
 1003MOL0     H35353   5.677   6.821  11.167 -1.6499  0.4549 -0.4879
 1003MOL0     H35354   5.747   6.780  10.875 -0.7463  4.3829  0.3874
 1003MOL0     H35355   5.734   6.643  10.974  2.2379 -1.7637  0.4317
 1003MOL0     H35356   5.936   6.600  11.162 -0.7621 -3.4882 -3.1250
 1003MOL0     H35357   6.196   6.555  11.154  0.9572 -1.1383 -0.5614
 1003MOL0     H35358   6.309   6.675  11.086 -1.7204 -0.7595 -2.0885
 1003MOL0     H35359   6.148   6.733  11.338  1.3321  1.7976  0.8731
 1003MOL0     H35360   6.204   6.855  11.237  3.1344  0.4987 -2.3723
 1003MOL0     H35361   6.448   6.787  11.273 -0.3744  1.0759  0.4893
 1003MOL0     H35362   6.382   6.645  11.363  0.5561 -0.0498 -0.6892
 1003MOL0     H35363   6.288   6.782  11.537  0.0748  2.7508  1.2480
 1003MOL0     H35364   6.344   6.918  11.453 -0.5002 -0.1110 -1.6613
 1003MOL0     H35365   6.526   7.032  11.424 -0.7892 -0.2356  1.2116
 1003MOL0     H35366   6.789   7.131  11.238  2.1546  1.0759  1.3955
 1003MOL0     H35367   6.642   7.197  11.327  0.8772  2.8008 -0.4161
 1003MOL0     H35368   6.802   7.230  11.381 -0.8488 -0.7036  2.0511
 1003MOL0     H35369   7.264   7.049  11.453  1.0195 -0.1128 -1.5269
 1003MOL0     H35370   7.478   7.133  11.368 -0.3439  0.3362 -1.2935
 1003MOL0     H35371   7.436   7.311  11.024  0.9507 -0.6686 -0.9807
 1003MOL0     H35372   7.482   7.481  11.061  1.1234  0.4428 -0.7546
 1003MOL0     H35373   7.722   7.397  11.082  2.0467 -1.5765 -2.2200
 1003MOL0     H35374   7.674   7.236  11.064 -1.5655  0.1829  1.8812
 1003MOL0     H35375   7.685   7.471  10.859  2.0299 -0.0649  0.2629
 1003MOL0     H35376   7.589   7.329  10.826  1.0731 -0.8539 -0.4828
 1003MOL0     H35377   7.780   7.188  10.897  1.2603 -0.0971  0.9604
 1003MOL0     H35378   7.766   7.250  10.736 -0.0179  3.4044 -1.4866
 1003MOL0     H35379   7.999   7.255  10.846 -2.2982 -0.9549 -1.7967
 1003MOL0     H35380   7.935   7.386  10.951 -2.5761  1.0738 -0.4612
 1003MOL0     H35381   7.974   7.381  10.653  0.3890 -0.4789 -0.0141
 1003MOL0     H35382   7.894   7.511  10.747 -1.0620 -1.7504 -0.1438
 1003MOL0     H35383   8.200   7.442  10.735 -2.0704 -1.3677 -5.3828
 1003MOL0     H35384   8.125   7.525  10.875 -1.2294  3.2313 -0.1008
 1003MOL0     H35385   8.214   7.680  10.722 -2.3411  1.9877  4.4042
 1003MOL0     H35386   8.033   7.693  10.689 -0.7672 -0.7163 -2.2440
 1003MOL0     H35387   7.268   7.445  11.176  0.0850  0.2375  0.9300
 1003MOL0     H35388   7.043   7.352  11.266 -1.3938 -2.2423  2.2761
 1003MOL0     H35389   6.932   6.798  11.564  1.3271  1.6503  0.3780
 1003MOL0     H35390   6.712   6.691  11.596  0.7423 -1.5579 -2.9724
 1003MOL0     H35391   4.747   6.575  11.109 -0.9636  1.2974 -1.5560
 1003MOL0     H35392   4.550   6.483  11.205  0.1794  0.8646 -1.8088
 1003MOL0     H35393   4.193   6.336  11.155 -0.7378 -0.0210  0.7012
 1003MOL0     H35394   3.963   6.291  11.175  0.5745  1.9297  0.4817
 1003MOL0     H35395   3.776   6.278  11.284  3.9381 -0.8461 -1.9944
 1003MOL0     H35396   3.750   6.135  11.196  0.7664  1.3923  0.1223
 1003MOL0     H35397   3.611   6.194  11.450 -1.7585 -0.9756  0.9505
 1003MOL0     H35398   3.630   6.033  11.387 -0.7439  1.0675  1.7791
 1003MOL0     H35399   3.545   6.157  11.169  0.3302  1.2270  0.4853
 1003MOL0     H35400   3.519   6.295  11.265  4.7371  0.1267 -1.2475
 1003MOL0     H35401   3.388   6.103  11.432  0.3249  1.0394 -0.3650
 1003MOL0     H35402   3.370   6.024  11.278  0.7857  0.1545  1.1093
 1003MOL0     H35403   3.092   6.348  11.245 -2.9309 -2.7735  0.7097
 1003MOL0     H35404   4.050   6.004  11.482 -1.5580 -0.2705 -0.9139
 1003MOL0     H35405   4.310   6.054  11.468  0.0848  0.5521  0.2030
 1004MOL0     O35406   9.852   5.890   6.919  0.1697 -0.0057 -0.3957
 1004MOL0     C35407   9.918   5.946   6.830  1.1018 -0.6988 -0.0845
 1004MOL0     O35408   9.874   6.058   6.764 -0.1189  0.2292  0.2231
 1004MOL0     C35409   9.756   6.127   6.795  0.1012  1.3673  0.0106
 1004MOL0     C35410   9.630   6.071   6.811 -0.1887  0.1527 -0.0951
 1004MOL0     C35411   9.513   6.154   6.809  0.2416 -0.3199 -0.0411
 1004MOL0     C35412   9.529   6.292   6.820 -0.3708 -0.1595 -0.7783
 1004MOL0     O35413   9.424   6.370   6.842  0.1056 -0.1861 -0.8636
 1004MOL0     C35414   9.418   6.503   6.789  0.0941  0.2128 -0.8003
 1004MOL0     C35415   9.280   6.569   6.826  0.5818  0.3421 -0.3296
 1004MOL0     C35416   9.238   6.685   6.724 -0.3577  0.9295  0.4518
 1004MOL0     C35417   9.305   6.818   6.765 -0.0923 -0.0193 -0.2702
 1004MOL0     C35418   9.219   6.910   6.861 -0.1420  0.9786 -0.3560
 1004MOL0     C35419   9.308   7.027   6.921 -0.3963 -0.1959 -1.2455
 1004MOL0     C35420   9.393   6.971   7.032  0.0586  0.4949 -0.1059
 1004MOL0     C35421   9.329   6.961   7.175 -0.0217  0.4671  0.9697
 1004MOL0     N35422   9.405   6.880   7.263 -0.0112  0.5918 -0.8566
 1004MOL0     C35423   9.376   6.752   7.293  0.2715  0.5556  0.0599
 1004MOL0     C35424   9.476   6.704   7.368  0.3740  0.1963  0.0292
 1004MOL0     C35425   9.450   6.573   7.450  0.0155 -0.3267  0.0281
 1004MOL0     C35426   9.393   6.460   7.372  0.3841 -0.3037  0.0316
 1004MOL0     C35427   9.489   6.394   7.278  0.3296  0.0255 -0.1885
 1004MOL0     C35428   9.430   6.284   7.204 -0.1680  1.5404  0.1429
 1004MOL0     O35429   9.355   6.194   7.291  0.3409 -0.5649 -0.3988
 1004MOL0     C35430   9.286   6.085   7.249 -0.6883 -0.1514  0.3554
 1004MOL0     C35431   9.286   6.044   7.114  0.2464  0.4152  0.9264
 1004MOL0     C35432   9.210   5.936   7.060  0.3558  1.3425  0.1447
 1004MOL0     C35433   9.217   5.894   6.919  0.7688 -0.4988 -0.1573
 1004MOL0     C35434   9.130   5.862   7.152 -0.0654  0.0302  0.3762
 1004MOL0     C35435   9.030   5.752   7.119  0.9179 -0.7211 -0.7853
 1004MOL0     O35436   8.961   5.706   7.231 -0.3798  0.1028  0.0524
 1004MOL0     C35437   8.858   5.614   7.228  0.2998  0.0385 -0.8724
 1004MOL0     C35438   8.818   5.569   7.356 -0.2846 -1.1183 -0.7398
 1004MOL0     C35439   8.714   5.479   7.381 -0.1999 -0.8187  0.0282
 1004MOL0     C35440   8.637   5.435   7.270 -0.6044  0.4045 -0.0945
 1004MOL0     O35441   8.527   5.353   7.270 -0.7891 -0.2384 -0.1311
 1004MOL0     C35442   8.487   5.264   7.377  0.0072  0.6636  0.0364
 1004MOL0     C35443   8.349   5.213   7.331 -0.2845  1.4879  0.9397
 1004MOL0     C35444   8.291   5.123   7.446 -0.5567 -0.1031 -0.6487
 1004MOL0     C35445   8.147   5.083   7.424 -0.0922 -0.5872  0.3580
 1004MOL0     C35446   8.082   5.030   7.556 -0.2177 -0.0726 -0.8623
 1004MOL0     C35447   7.938   4.997   7.540  0.0831 -0.5230  0.9741
 1004MOL0     C35448   7.852   4.987   7.660 -0.2745  1.1546 -0.1210
 1004MOL0     C35449   7.729   4.884   7.637  1.0921  0.0353 -0.0964
 1004MOL0    Cl35450   7.628   4.854   7.780 -0.0556 -0.4354 -0.3252
 1004MOL0     C35451   8.661   5.486   7.140  0.7505 -0.1316 -0.8448
 1004MOL0     C35452   8.775   5.568   7.118 -0.0118  0.2791  0.4207
 1004MOL0     O35453   9.040   5.698   7.010  0.3607  0.2856  0.7709
 1004MOL0     C35454   9.138   5.903   7.286 -0.2682  0.5465  0.3059
 1004MOL0     C35455   9.211   6.011   7.330 -0.0010 -0.0787  0.7331
 1004MOL0     N35456   9.563   6.807   7.386  0.2261 -0.6687 -0.0878
 1004MOL0     N35457   9.516   6.912   7.326 -0.0735  0.3664 -0.0933
 1004MOL0     C35458   9.653   6.347   6.795  0.0925 -0.6203 -0.5311
 1004MOL0     C35459   9.758   6.266   6.769 -1.1016 -0.0755  0.2969
 1004MOL0     C35460  10.046   5.887   6.790  0.4047  0.4658 -0.0562
 1004MOL0     C35461  10.105   5.907   6.662 -0.1713  0.0930  0.0936
 1004MOL0     C35462  10.235   5.856   6.625 -0.4906 -0.2564  0.1670
 1004MOL0     C35463  10.296   5.766   6.717 -0.0088  0.1705 -0.4595
 1004MOL0     O35464  10.413   5.706   6.690 -0.2833  0.1915 -0.7319
 1004MOL0     C35465  10.413   5.609   6.589  0.3751  0.1878 -0.3042
 1004MOL0     C35466  10.563   5.591   6.555 -0.8661  0.1391 -0.8687
 1004MOL0     C35467  10.582   5.498   6.434  0.0576 -0.1407 -0.4924
 1004MOL0     C35468  10.725   5.469   6.391  0.2365 -0.3203  0.2035
 1004MOL0     C35469  10.792   5.598   6.349 -0.7045 -0.8603 -0.7038
 1004MOL0     C35470  10.825   5.710   6.305  0.4649  0.0849 -0.3423
 1004MOL0     C35471  10.236   5.741   6.843  1.1140  0.4246 -0.0398
 1004MOL0     C35472  10.114   5.796   6.880 -0.4963 -0.1144 -0.5771
 1004MOL0     H35473   9.608   5.965   6.798  0.3573  0.0428 -0.1577
 1004MOL0     H35474   9.410   6.122   6.814 -1.4679  4.1136 -2.0882
 1004MOL0     H35475   9.496   6.558   6.842  0.9437 -0.2351 -1.5585
 1004MOL0     H35476   9.443   6.504   6.682  3.6990 -2.3498 -0.1397
 1004MOL0     H35477   9.201   6.493   6.817  1.2773 -0.4125 -0.1421
 1004MOL0     H35478   9.273   6.611   6.927 -4.3271  3.1997 -1.5298
 1004MOL0     H35479   9.263   6.647   6.624  2.6983 -2.0637  2.1477
 1004MOL0     H35480   9.129   6.692   6.733 -0.6121 -2.4562  1.3527
 1004MOL0     H35481   9.398   6.788   6.815  1.1736  1.8172 -1.4131
 1004MOL0     H35482   9.330   6.882   6.680 -1.6582  1.1322  0.0953
 1004MOL0     H35483   9.143   6.956   6.797  0.8206  3.1985 -0.0054
 1004MOL0     H35484   9.164   6.862   6.943  0.2084  5.6713  3.0460
 1004MOL0     H35485   9.380   7.077   6.856  0.4641  0.1822 -0.0392
 1004MOL0     H35486   9.239   7.104   6.958  0.3500 -0.3220  0.5274
 1004MOL0     H35487   9.418   6.867   7.012 -1.5258 -0.0290  0.4805
 1004MOL0     H35488   9.482   7.033   7.048 -0.2110  0.9597 -0.3914
 1004MOL0     H35489   9.237   6.904   7.156  0.1418  0.0519  1.4129
 1004MOL0     H35490   9.317   7.059   7.222  3.1835  1.0089  0.8898
 1004MOL0     H35491   9.276   6.712   7.282  0.7276 -0.1809 -1.7890
 1004MOL0     H35492   9.544   6.551   7.503 -0.8429 -0.4361  1.5651
 1004MOL0     H35493   9.382   6.604   7.530  1.5889  0.2490  1.1971
 1004MOL0     H35494   9.306   6.480   7.308 -0.3647 -4.1478 -0.4225
 1004MOL0     H35495   9.343   6.388   7.438 -2.5877  0.0478 -1.6565
 1004MOL0     H35496   9.569   6.355   7.342  0.6762 -0.0422 -0.6556
 1004MOL0     H35497   9.517   6.468   7.202  0.8154  0.9463  0.8575
 1004MOL0     H35498   9.507   6.232   7.148  0.4246  0.5601  1.7947
 1004MOL0     H35499   9.368   6.329   7.126  0.2895 -0.6891 -1.5761
 1004MOL0     H35500   9.363   6.083   7.047 -0.3550  0.3560  0.1940
 1004MOL0     H35501   9.250   5.790   6.910  1.1658 -0.5401  1.5194
 1004MOL0     H35502   9.121   5.902   6.866  1.2850  2.0796 -0.8045
 1004MOL0     H35503   9.297   5.948   6.868 -0.6274  1.9597  0.1213
 1004MOL0     H35504   8.875   5.593   7.445 -0.3553 -1.2517 -0.6576
 1004MOL0     H35505   8.714   5.453   7.487  2.1946  3.0807  1.1839
 1004MOL0     H35506   8.554   5.180   7.391 -1.2138 -0.1848  1.0555
 1004MOL0     H35507   8.485   5.324   7.469  1.3037 -0.0913  0.5812
 1004MOL0     H35508   8.281   5.296   7.308 -0.3341  1.4584  0.9785
 1004MOL0     H35509   8.355   5.153   7.240 -1.0260  1.7676  0.6977
 1004MOL0     H35510   8.296   5.190   7.533 -1.8224 -0.3916 -0.3302
 1004MOL0     H35511   8.356   5.037   7.461 -1.0302 -0.5457 -1.1167
 1004MOL0     H35512   8.097   5.171   7.382  0.3358  0.6955  2.4223
 1004MOL0     H35513   8.128   5.003   7.352 -0.7941 -0.1735  0.0707
 1004MOL0     H35514   8.086   5.104   7.636 -2.4945 -2.7302  1.9434
 1004MOL0     H35515   8.133   4.946   7.605 -0.7437 -1.5764 -2.7795
 1004MOL0     H35516   7.898   5.065   7.465  2.1990 -0.5186 -0.2414
 1004MOL0     H35517   7.940   4.899   7.491 -1.8538  1.1390 -2.8336
 1004MOL0     H35518   7.826   5.087   7.698  2.0647  0.6526  3.2413
 1004MOL0     H35519   7.912   4.934   7.734  0.2494 -2.4733 -2.9107
 1004MOL0     H35520   7.761   4.787   7.599  0.2014  0.1455 -1.1892
 1004MOL0     H35521   7.667   4.931   7.560  0.6426  1.7024  1.2069
 1004MOL0     H35522   8.602   5.448   7.057  0.9783 -3.1233  0.2514
 1004MOL0     H35523   8.799   5.598   7.017 -0.1414 -1.1994 -0.0790
 1004MOL0     H35524   9.078   5.851   7.360 -0.2696 -2.2876 -1.5238
 1004MOL0     H35525   9.193   6.045   7.431 -3.4736 -2.0233  0.9372
 1004MOL0     H35526   9.664   6.455   6.788 -2.6317 -0.0472  1.9735
 1004MOL0     H35527   9.853   6.300   6.730 -0.6756 -0.7646  0.7161
 1004MOL0     H35528  10.056   5.962   6.582  1.6778 -2.8650 -3.3606
 1004MOL0     H35529  10.286   5.871   6.530 -2.4336 -0.8160 -1.0422
 1004MOL0     H35530  10.382   5.509   6.622  3.7487 -1.4156 -1.4249
 1004MOL0     H35531  10.364   5.645   6.498  1.8338  0.8085 -0.8751
 1004MOL0     H35532  10.613   5.550   6.644 -0.0366  2.6173 -0.1041
 1004MOL0     H35533  10.597   5.692   6.529 -0.1816 -0.9762 -5.0632
 1004MOL0     H35534  10.520   5.541   6.355 -0.4031  0.9578  0.4332
 1004MOL0     H35535  10.534   5.404   6.465 -0.0141  0.7495  2.3838
 1004MOL0     H35536  10.729   5.394   6.312  2.0086 -0.7586  0.6778
 1004MOL0     H35537  10.775   5.426   6.478 -1.4729 -0.2864  1.2550
 1004MOL0     H35538  10.859   5.801   6.258  1.0579  0.2993  0.4816
 1004MOL0     H35539  10.275   5.677   6.922  0.0215  0.0383  0.1993
 1004MOL0     H35540  10.075   5.774   6.979  0.1009 -3.0220 -0.8834
 1005MOL0     O35541   7.093   0.052   3.938 -0.6223 -0.1036  0.1080
 1005MOL0     C35542   7.186   0.042   3.857  0.1479 -0.2283  0.1146
 1005MOL0     O35543   7.203  -0.062   3.764  1.3668  0.4597  0.0856
 1005MOL0     C35544   7.105  -0.160   3.769  0.5795 -0.0295  0.1382
 1005MOL0     C35545   6.975  -0.144   3.716 -0.4505 -0.1678  0.0783
 1005MOL0     C35546   6.892  -0.254   3.704 -0.3013  0.9349 -0.4120
 1005MOL0     C35547   6.938  -0.377   3.754  0.4626  0.4423 -0.4283
 1005MOL0     O35548   6.852  -0.492   3.753  0.4827 -0.3876  0.4916
 1005MOL0     C35549   6.718  -0.490   3.699 -0.9541 -0.2485 -0.2191
 1005MOL0     C35550   6.653  -0.626   3.725 -0.6256  0.4330  0.0625
 1005MOL0     C35551   6.500  -0.620   3.726  0.1501 -0.5904 -0.9145
 1005MOL0     C35552   6.430  -0.736   3.799  0.6103 -1.0479  0.3353
 1005MOL0     C35553   6.279  -0.706   3.801  0.3315  0.1491  0.4661
 1005MOL0     C35554   6.204  -0.833   3.858 -0.4596  0.7419  0.1944
 1005MOL0     C35555   6.065  -0.804   3.905  0.1193 -0.2774  0.5161
 1005MOL0     C35556   5.975  -0.791   3.785 -0.3897 -0.8707  0.0963
 1005MOL0     N35557   5.836  -0.747   3.812 -0.8742 -0.9448  0.4754
 1005MOL0     C35558   5.792  -0.631   3.758 -1.2287 -0.1802  0.4374
 1005MOL0     C35559   5.662  -0.643   3.762 -0.6745  0.1185 -0.1152
 1005MOL0     C35560   5.567  -0.535   3.722  1.2724 -0.6459  0.5189
 1005MOL0     C35561   5.581  -0.511   3.568 -0.0512 -0.5429 -1.2622
 1005MOL0     C35562   5.500  -0.393   3.518  0.0964  0.6597 -0.2407
 1005MOL0     C35563   5.516  -0.365   3.359  0.2825  0.3069  0.6107
 1005MOL0     O35564   5.640  -0.298   3.331  0.0919  0.0370 -0.8951
 1005MOL0     C35565   5.673  -0.257   3.204 -0.1509 -0.3492 -0.9494
 1005MOL0     C35566   5.771  -0.163   3.202  0.0501 -0.4753  0.3415
 1005MOL0     C35567   5.801  -0.095   3.082 -1.1048 -0.0092  1.3083
 1005MOL0     C35568   5.875   0.038   3.087  0.0117  0.2687 -0.5857
 1005MOL0     C35569   5.747  -0.148   2.958  0.4926 -0.6120  0.5705
 1005MOL0     C35570   5.760  -0.083   2.825 -0.5891 -0.8458 -0.5612
 1005MOL0     O35571   5.846  -0.133   2.735 -0.0331 -0.3608  0.8507
 1005MOL0     C35572   5.893  -0.051   2.629 -0.6286 -0.0257  0.6397
 1005MOL0     C35573   5.930   0.081   2.661 -0.5299  0.4764 -0.3043
 1005MOL0     C35574   5.995   0.164   2.568 -0.0961 -0.3136 -0.0220
 1005MOL0     C35575   6.021   0.112   2.440 -1.1725 -0.5215  0.5336
 1005MOL0     O35576   6.084   0.168   2.337  0.0496  0.4991  0.5085
 1005MOL0     C35577   6.149   0.296   2.348 -0.1882 -0.1479 -0.5617
 1005MOL0     C35578   6.251   0.306   2.236  1.1882  0.1268  0.3785
 1005MOL0     C35579   6.372   0.207   2.246 -0.8506 -0.6694 -0.6731
 1005MOL0     C35580   6.362   0.106   2.139  0.0063  0.1387  0.8155
 1005MOL0     C35581   6.475   0.003   2.140  0.4596 -0.1892 -0.0163
 1005MOL0     C35582   6.461  -0.092   2.018  0.0506  0.7050  1.3175
 1005MOL0     C35583   6.336  -0.165   2.015  0.7210  0.0144  0.1607
 1005MOL0     C35584   6.323  -0.258   1.901 -0.0048  0.0514 -0.4375
 1005MOL0    Cl35585   6.294  -0.156   1.760 -0.5273  0.0383 -0.1463
 1005MOL0     C35586   5.970  -0.011   2.402 -0.2448  0.0768 -0.8786
 1005MOL0     C35587   5.900  -0.096   2.500 -0.2610  0.4264  1.0437
 1005MOL0     O35588   5.679   0.008   2.809  0.5473 -0.3687  0.0349
 1005MOL0     C35589   5.655  -0.259   2.964 -0.4035  0.3681  0.1407
 1005MOL0     C35590   5.612  -0.304   3.089  0.1043  0.3368  0.6448
 1005MOL0     N35591   5.625  -0.759   3.837 -0.3635 -0.3490 -0.1890
 1005MOL0     N35592   5.738  -0.819   3.871 -0.2682 -0.2494  0.6618
 1005MOL0     C35593   7.068  -0.385   3.795  0.0893  0.1579 -0.2722
 1005MOL0     C35594   7.159  -0.283   3.798  0.2924 -0.9415 -0.5577
 1005MOL0     C35595   7.302   0.132   3.866  0.2995  0.0758  0.6819
 1005MOL0     C35596   7.407   0.114   3.771 -0.7766 -0.0294  0.8431
 1005MOL0     C35597   7.530   0.182   3.779  0.2810  0.0748 -0.6683
 1005MOL0     C35598   7.540   0.275   3.889 -0.1640 -0.0029  0.8524
 1005MOL0     O35599   7.644   0.357   3.900 -0.5547  0.3067  0.7736
 1005MOL0     C35600   7.752   0.358   3.809  1.1243 -0.1843 -0.0415
 1005MOL0     C35601   7.732   0.442   3.676 -0.1087  0.2588  0.1424
 1005MOL0     C35602   7.829   0.418   3.562  0.2012  0.4234  0.0515
 1005MOL0     C35603   7.873   0.273   3.531  0.5041 -0.8440 -0.4676
 1005MOL0     C35604   7.750   0.193   3.498 -0.5241  0.0020  0.6364
 1005MOL0     C35605   7.648   0.134   3.454 -0.5513 -0.1395 -0.0491
 1005MOL0     C35606   7.443   0.283   3.986  0.0240  0.3681 -0.1055
 1005MOL0     C35607   7.319   0.218   3.974  0.4989 -1.1580  0.3583
 1005MOL0     H35608   6.946  -0.049   3.672  1.6664  1.6514  2.2981
 1005MOL0     H35609   6.798  -0.260   3.651 -0.8256  2.3629  0.3113
 1005MOL0     H35610   6.672  -0.404   3.749  3.4227  1.3720  1.5086
 1005MOL0     H35611   6.718  -0.472   3.591  1.6751  0.1189 -0.2067
 1005MOL0     H35612   6.692  -0.699   3.653 -0.6838  0.3506  0.1143
 1005MOL0     H35613   6.688  -0.671   3.818  0.8279  2.4448  0.5604
 1005MOL0     H35614   6.475  -0.532   3.786 -0.8049 -0.0324 -2.0787
 1005MOL0     H35615   6.467  -0.603   3.623 -1.3009 -1.3865 -0.6038
 1005MOL0     H35616   6.460  -0.833   3.757 -0.1893 -1.5887  0.9899
 1005MOL0     H35617   6.456  -0.727   3.905 -1.4363  1.0807  0.7402
 1005MOL0     H35618   6.278  -0.616   3.864  2.3582 -1.0593  2.3717
 1005MOL0     H35619   6.243  -0.682   3.700  0.2867  0.5454  0.5739
 1005MOL0     H35620   6.208  -0.919   3.791  2.0299 -0.1788  1.3826
 1005MOL0     H35621   6.266  -0.869   3.940  2.0176  4.2918  0.1307
 1005MOL0     H35622   6.031  -0.886   3.968 -1.5537 -1.2534 -1.5120
 1005MOL0     H35623   6.053  -0.709   3.958 -2.5264 -0.6963  0.8054
 1005MOL0     H35624   5.970  -0.889   3.737 -0.4906 -1.0864  0.5363
 1005MOL0     H35625   6.006  -0.717   3.712 -1.5885 -0.3715  0.0834
 1005MOL0     H35626   5.853  -0.548   3.723 -0.1538 -0.5822  1.2892
 1005MOL0     H35627   5.467  -0.559   3.759 -0.1981  3.2679 -0.4025
 1005MOL0     H35628   5.603  -0.451   3.782  2.9189 -1.3927  0.6353
 1005MOL0     H35629   5.564  -0.604   3.513  1.6614 -0.5642 -1.8060
 1005MOL0     H35630   5.685  -0.484   3.549  0.1857  0.2416  0.8367
 1005MOL0     H35631   5.510  -0.303   3.581 -4.7081  0.0361  1.8997
 1005MOL0     H35632   5.391  -0.407   3.524 -0.1770  2.4372 -0.5144
 1005MOL0     H35633   5.434  -0.303   3.322 -0.5675 -1.6937 -1.0075
 1005MOL0     H35634   5.515  -0.462   3.310  3.4202  0.9141 -0.9409
 1005MOL0     H35635   5.805  -0.114   3.292  1.2562  2.2745 -1.4743
 1005MOL0     H35636   5.924   0.047   3.184 -0.6723 -1.8418 -0.0114
 1005MOL0     H35637   5.948   0.043   3.005  0.1403 -2.9345 -0.7710
 1005MOL0     H35638   5.814   0.126   3.061  0.7320  0.2313 -2.6412
 1005MOL0     H35639   5.920   0.112   2.765  2.3539 -0.1612  0.2621
 1005MOL0     H35640   6.025   0.267   2.585  1.6432 -0.4440 -1.8532
 1005MOL0     H35641   6.080   0.377   2.327  1.8512  2.2120  1.2085
 1005MOL0     H35642   6.200   0.321   2.442 -0.9310  1.9621 -0.6649
 1005MOL0     H35643   6.197   0.288   2.142  0.4211 -1.0196  1.0204
 1005MOL0     H35644   6.280   0.411   2.224  2.6648 -0.1441  1.4536
 1005MOL0     H35645   6.366   0.142   2.334 -0.1373 -2.0116 -1.5818
 1005MOL0     H35646   6.470   0.255   2.249  0.2922 -2.9139  0.2038
 1005MOL0     H35647   6.263   0.060   2.142  0.2908 -0.6831 -0.8861
 1005MOL0     H35648   6.372   0.156   2.042  0.2789 -1.0813  0.1924
 1005MOL0     H35649   6.456  -0.053   2.231 -1.1604 -1.9408 -1.3608
 1005MOL0     H35650   6.576   0.046   2.142  0.2500  0.4514  3.5322
 1005MOL0     H35651   6.479  -0.045   1.921  0.6981 -2.7965 -0.4218
 1005MOL0     H35652   6.545  -0.162   2.015  0.1555  0.8582 -0.1898
 1005MOL0     H35653   6.252  -0.096   2.001  0.5152 -0.5566 -1.6606
 1005MOL0     H35654   6.330  -0.220   2.110 -0.0534  0.8310  0.5932
 1005MOL0     H35655   6.237  -0.323   1.917 -0.3847  1.0067  1.8278
 1005MOL0     H35656   6.412  -0.315   1.874  1.1285  1.3751  0.3223
 1005MOL0     H35657   5.969  -0.047   2.300 -2.1543 -1.2528 -0.4486
 1005MOL0     H35658   5.857  -0.189   2.466 -1.7193  1.8849 -1.4167
 1005MOL0     H35659   5.594  -0.293   2.881  1.5489  2.1212 -2.1619
 1005MOL0     H35660   5.531  -0.377   3.090  0.1591  0.2768  0.7130
 1005MOL0     H35661   7.103  -0.481   3.832  1.9502 -0.9000 -4.2455
 1005MOL0     H35662   7.265  -0.290   3.819  0.1577 -0.3845  0.3438
 1005MOL0     H35663   7.381   0.062   3.679 -2.6693 -1.6398  2.2035
 1005MOL0     H35664   7.611   0.167   3.709  1.3959  0.1562  0.5770
 1005MOL0     H35665   7.831   0.410   3.864 -0.3199  2.1461 -0.0269
 1005MOL0     H35666   7.788   0.255   3.801 -1.4278 -1.1885  0.5460
 1005MOL0     H35667   7.727   0.544   3.717 -0.6282  0.2875  0.0190
 1005MOL0     H35668   7.633   0.412   3.639 -0.1641  0.6544 -0.0338
 1005MOL0     H35669   7.924   0.470   3.576  0.6509  1.5916 -5.0899
 1005MOL0     H35670   7.782   0.457   3.471 -1.3788 -0.2856  0.5283
 1005MOL0     H35671   7.926   0.220   3.610  1.9956 -0.4452 -1.1734
 1005MOL0     H35672   7.943   0.278   3.447  0.8974 -0.0862 -0.0951
 1005MOL0     H35673   7.556   0.087   3.426 -3.8927  1.8723  5.7056
 1005MOL0     H35674   7.471   0.338   4.075  2.3336 -0.8388 -0.0231
 1005MOL0     H35675   7.251   0.226   4.058  1.1660  1.4357  0.7296
 1006MOL0     O35676   5.595   5.301   4.699 -0.8213 -0.1878  0.2894
 1006MOL0     C35677   5.557   5.393   4.768  0.3890 -0.4453  0.2752
 1006MOL0     O35678   5.441   5.457   4.745 -0.3779 -0.2393 -0.4364
 1006MOL0     C35679   5.371   5.463   4.619 -0.9091  0.3726 -0.9163
 1006MOL0     C35680   5.421   5.428   4.493 -1.0075 -0.4027 -0.2717
 1006MOL0     C35681   5.337   5.431   4.382  0.0084  0.4326  0.0712
 1006MOL0     C35682   5.203   5.470   4.387  0.5057 -0.4235  0.4261
 1006MOL0     O35683   5.118   5.473   4.282 -0.3457 -0.4844  0.5816
 1006MOL0     C35684   5.152   5.406   4.154  0.1352 -0.3914 -0.5281
 1006MOL0     C35685   5.026   5.416   4.066 -0.4056 -0.9431  0.3976
 1006MOL0     C35686   4.998   5.556   4.017 -0.7817  0.9192  0.3931
 1006MOL0     C35687   4.864   5.573   3.938 -0.1318  0.5409  0.2752
 1006MOL0     C35688   4.748   5.644   4.000 -0.8776 -0.2724  0.2452
 1006MOL0     C35689   4.778   5.799   4.019 -0.1868  0.3236 -0.0842
 1006MOL0     C35690   4.647   5.874   4.005  0.0480 -0.3266  0.0437
 1006MOL0     C35691   4.634   5.994   4.100 -0.2914  0.3858  0.5973
 1006MOL0     N35692   4.511   6.072   4.078  0.4598  0.7168 -0.1848
 1006MOL0     C35693   4.507   6.189   3.998 -0.8388  0.2934 -0.8866
 1006MOL0     C35694   4.380   6.225   3.992  0.3943 -0.6717  0.0477
 1006MOL0     C35695   4.319   6.344   3.929 -0.2975  0.1277 -0.1676
 1006MOL0     C35696   4.340   6.346   3.776 -0.5685  0.0292  0.2983
 1006MOL0     C35697   4.225   6.413   3.686 -0.5178 -0.1102  0.5949
 1006MOL0     C35698   4.168   6.554   3.743  0.3292  0.3737  0.0576
 1006MOL0     O35699   4.061   6.607   3.654 -0.2120 -0.0558 -0.2759
 1006MOL0     C35700   4.041   6.744   3.646  0.6993 -0.0553 -0.0821
 1006MOL0     C35701   4.075   6.837   3.755  0.0741 -0.6855  0.0868
 1006MOL0     C35702   4.043   6.970   3.746  0.3053 -1.0773 -0.2097
 1006MOL0     C35703   4.100   7.064   3.859 -0.8756 -1.1622 -0.1974
 1006MOL0     C35704   3.961   7.016   3.637 -0.7800  0.5901  0.2649
 1006MOL0     C35705   3.910   7.154   3.627  0.0798  0.2254 -0.0017
 1006MOL0     O35706   3.807   7.175   3.537 -0.3511 -0.0460 -0.4225
 1006MOL0     C35707   3.757   7.299   3.518  0.0341 -0.1777 -0.1882
 1006MOL0     C35708   3.704   7.382   3.623 -0.2974  0.6663  0.2251
 1006MOL0     C35709   3.651   7.504   3.598 -0.4571 -0.1725  0.6461
 1006MOL0     C35710   3.628   7.546   3.460  0.2847  0.0857 -0.1120
 1006MOL0     O35711   3.580   7.675   3.440  0.0394  0.4302  0.4263
 1006MOL0     C35712   3.547   7.705   3.309  0.5631  0.4750  0.2105
 1006MOL0     C35713   3.468   7.832   3.318 -0.2803 -0.1058 -0.0944
 1006MOL0     C35714   3.464   7.899   3.182  0.6908  0.0785  1.0787
 1006MOL0     C35715   3.339   7.840   3.104 -0.9251 -0.8504  0.1254
 1006MOL0     C35716   3.313   7.933   2.986  0.1624 -0.4480  0.3568
 1006MOL0     C35717   3.175   7.906   2.933  0.0831 -0.5025  0.6942
 1006MOL0     C35718   3.154   7.960   2.789  0.1510  0.3919  0.4533
 1006MOL0     C35719   3.015   7.960   2.726  0.2662 -0.4820  0.0937
 1006MOL0    Cl35720   2.930   7.807   2.720  0.2281 -0.2326  0.0244
 1006MOL0     C35721   3.681   7.462   3.363  0.1593  0.6365 -0.5340
 1006MOL0     C35722   3.737   7.332   3.389 -0.2758 -0.3764  0.0293
 1006MOL0     O35723   3.971   7.240   3.690 -1.0049  0.1240  0.1738
 1006MOL0     C35724   3.932   6.925   3.535  0.3507  0.2883  0.1254
 1006MOL0     C35725   3.965   6.794   3.541  1.0560  0.1310 -0.0254
 1006MOL0     N35726   4.311   6.131   4.072 -0.7068  0.1265  1.0470
 1006MOL0     N35727   4.388   6.037   4.120 -0.1444 -0.2881 -0.0382
 1006MOL0     C35728   5.160   5.516   4.510  1.0216  1.0228 -0.4723
 1006MOL0     C35729   5.241   5.518   4.620 -0.8009  0.6364  0.1358
 1006MOL0     C35730   5.628   5.427   4.887 -0.1394 -0.3949 -0.2062
 1006MOL0     C35731   5.576   5.510   4.991 -0.3420  0.2850  0.0582
 1006MOL0     C35732   5.656   5.532   5.102  0.2866 -0.6794 -0.4832
 1006MOL0     C35733   5.776   5.470   5.128 -0.5446 -0.1491  0.1539
 1006MOL0     O35734   5.856   5.500   5.233 -0.1479  0.6134  0.3057
 1006MOL0     C35735   5.857   5.626   5.291 -0.0175 -0.1606  0.2500
 1006MOL0     C35736   6.009   5.669   5.307  0.1703 -0.2611 -0.0632
 1006MOL0     C35737   6.070   5.691   5.170  0.0415  0.2619 -1.3398
 1006MOL0     C35738   6.219   5.748   5.162  0.2202  0.6031  0.5044
 1006MOL0     C35739   6.241   5.869   5.246  0.6388  0.2261 -0.6066
 1006MOL0     C35740   6.260   5.962   5.319 -0.0578  0.4352 -0.2080
 1006MOL0     C35741   5.821   5.387   5.030 -0.1553 -1.3855  0.3812
 1006MOL0     C35742   5.752   5.364   4.914  1.0611 -0.1512  0.8634
 1006MOL0     H35743   5.518   5.381   4.480 -0.6267  0.9976 -3.5040
 1006MOL0     H35744   5.367   5.391   4.286 -2.0834  0.1358 -0.5090
 1006MOL0     H35745   5.242   5.447   4.106  1.2108 -0.9476  0.9114
 1006MOL0     H35746   5.161   5.299   4.178 -3.1811 -0.5853  0.2389
 1006MOL0     H35747   5.038   5.356   3.975 -1.0760 -0.7846  0.1978
 1006MOL0     H35748   4.934   5.379   4.111 -1.1590  1.0265  0.5681
 1006MOL0     H35749   4.995   5.626   4.101  1.9751  2.8140 -0.9467
 1006MOL0     H35750   5.085   5.577   3.955 -0.3863 -3.3889 -0.8604
 1006MOL0     H35751   4.882   5.627   3.844  1.0717 -1.1410 -0.5167
 1006MOL0     H35752   4.848   5.472   3.900  1.8850 -0.4902  1.9775
 1006MOL0     H35753   4.666   5.635   3.928  1.0076 -0.9497 -1.9500
 1006MOL0     H35754   4.725   5.597   4.096 -3.8529  1.7528  0.6487
 1006MOL0     H35755   4.817   5.811   4.121 -3.6988 -4.0672  2.1279
 1006MOL0     H35756   4.848   5.843   3.947 -0.9485 -0.0289 -1.0479
 1006MOL0     H35757   4.631   5.907   3.902  2.8226 -1.3548 -0.7972
 1006MOL0     H35758   4.562   5.810   4.033 -1.6106  2.3945  1.7213
 1006MOL0     H35759   4.723   6.054   4.082 -0.4126  0.3637 -0.0927
 1006MOL0     H35760   4.625   5.957   4.203 -0.3788 -0.5166  0.2775
 1006MOL0     H35761   4.594   6.232   3.951 -0.6638  1.9580  0.8296
 1006MOL0     H35762   4.212   6.341   3.952 -1.3230 -1.4878 -4.2419
 1006MOL0     H35763   4.372   6.427   3.977 -1.4437  0.2950  0.8452
 1006MOL0     H35764   4.341   6.246   3.733 -4.1778 -0.0211  0.0532
 1006MOL0     H35765   4.433   6.401   3.758 -1.7481  2.1034  0.2249
 1006MOL0     H35766   4.145   6.339   3.682  0.2787 -1.0345  1.1466
 1006MOL0     H35767   4.260   6.426   3.583  0.6800 -0.5851  0.9186
 1006MOL0     H35768   4.255   6.621   3.748  1.9213 -1.1786 -3.5432
 1006MOL0     H35769   4.127   6.544   3.844  2.0085  0.8013  0.8280
 1006MOL0     H35770   4.133   6.804   3.840  0.0608 -1.7226 -0.2981
 1006MOL0     H35771   4.015   7.114   3.907 -0.0822  1.3315 -1.2359
 1006MOL0     H35772   4.173   7.014   3.923  0.4072  1.7380  0.7848
 1006MOL0     H35773   4.158   7.140   3.807  0.5114 -2.2321 -0.2612
 1006MOL0     H35774   3.702   7.337   3.722 -0.4669  1.0706  0.4070
 1006MOL0     H35775   3.624   7.566   3.683  3.1717  0.9924  1.1375
 1006MOL0     H35776   3.635   7.733   3.251  0.0435  2.7710  0.4551
 1006MOL0     H35777   3.482   7.628   3.266 -1.6673  0.8677  2.6485
 1006MOL0     H35778   3.367   7.820   3.357 -0.6165 -0.9534 -1.1610
 1006MOL0     H35779   3.528   7.902   3.376  0.0879  2.9995 -3.8072
 1006MOL0     H35780   3.547   7.885   3.113  0.1522 -0.5724  0.5460
 1006MOL0     H35781   3.455   8.007   3.197 -1.9169  0.2731 -1.1499
 1006MOL0     H35782   3.362   7.744   3.057  1.8522 -0.8038  1.1385
 1006MOL0     H35783   3.251   7.821   3.165  0.5673 -4.1082  1.5161
 1006MOL0     H35784   3.393   7.919   2.912 -1.1962 -0.6697 -1.1269
 1006MOL0     H35785   3.322   8.037   3.016 -1.1703  0.1188 -1.0802
 1006MOL0     H35786   3.165   7.798   2.918  1.5073 -0.3286 -2.3156
 1006MOL0     H35787   3.099   7.950   2.998 -0.4143  0.0327 -0.2357
 1006MOL0     H35788   3.228   7.908   2.727  0.8158  3.1328 -1.2293
 1006MOL0     H35789   3.188   8.064   2.791 -0.6240  0.6378  1.9563
 1006MOL0     H35790   3.025   8.002   2.626  1.2766 -1.7505 -0.3726
 1006MOL0     H35791   2.958   8.031   2.786  1.2050 -0.1477  0.6230
 1006MOL0     H35792   3.683   7.485   3.257  0.8933  1.5020 -0.3425
 1006MOL0     H35793   3.771   7.264   3.311  0.2550  1.2430 -1.1876
 1006MOL0     H35794   3.880   6.959   3.446 -1.0960 -0.7211  0.5497
 1006MOL0     H35795   3.926   6.743   3.453  0.4180  2.2226 -1.0197
 1006MOL0     H35796   5.054   5.537   4.511  1.1036  1.4201  0.3175
 1006MOL0     H35797   5.209   5.557   4.716 -0.6139  2.0333 -0.3429
 1006MOL0     H35798   5.482   5.561   4.978 -1.4090 -1.5486  0.2357
 1006MOL0     H35799   5.622   5.610   5.170 -0.0318  0.5120 -1.9772
 1006MOL0     H35800   5.805   5.707   5.238 -0.3912  0.4211  1.4511
 1006MOL0     H35801   5.814   5.622   5.392  1.0425 -1.7941  0.6644
 1006MOL0     H35802   6.059   5.589   5.362 -1.2743  0.4003  2.3652
 1006MOL0     H35803   6.027   5.754   5.373  2.5567  0.2832 -1.3385
 1006MOL0     H35804   6.001   5.765   5.129 -1.7865 -1.1025 -0.8680
 1006MOL0     H35805   6.067   5.595   5.116  0.3148 -0.2739 -0.4356
 1006MOL0     H35806   6.234   5.774   5.057 -0.3074  0.2180  0.3287
 1006MOL0     H35807   6.281   5.660   5.179 -1.0500 -0.1514  1.4282
 1006MOL0     H35808   6.259   6.042   5.390  0.7561  0.0483  0.2445
 1006MOL0     H35809   5.917   5.339   5.044  0.5386  0.0786  0.8477
 1006MOL0     H35810   5.799   5.304   4.837  0.4406  1.3360 -0.7416
 1007MOL0     O35811   1.290   6.568   1.913 -0.7184 -0.3009  1.0960
 1007MOL0     C35812   1.306   6.669   1.982 -0.4944 -0.1526  0.1726
 1007MOL0     O35813   1.372   6.789   1.940  0.8614 -0.0391  0.6020
 1007MOL0     C35814   1.500   6.762   1.906 -0.0104  0.2125  0.7054
 1007MOL0     C35815   1.596   6.765   2.005 -0.2393  0.0054  0.1722
 1007MOL0     C35816   1.731   6.748   1.990 -0.0239  0.5960 -0.7275
 1007MOL0     C35817   1.778   6.710   1.856  0.0445  0.2850 -0.6072
 1007MOL0     O35818   1.909   6.684   1.834 -0.0642  0.4151 -0.1817
 1007MOL0     C35819   2.010   6.750   1.919  0.1873 -0.2429 -0.1056
 1007MOL0     C35820   2.146   6.688   1.883  0.0003 -0.0473 -0.1968
 1007MOL0     C35821   2.261   6.752   1.971 -0.0546  0.8188 -0.0149
 1007MOL0     C35822   2.265   6.905   1.957  0.2052  0.4124 -0.5944
 1007MOL0     C35823   2.393   6.970   2.027 -0.0862  0.7683 -0.5734
 1007MOL0     C35824   2.473   7.070   1.934 -0.0583 -0.2525  0.5279
 1007MOL0     C35825   2.386   7.187   1.898  0.1357  0.2923  0.2583
 1007MOL0     C35826   2.375   7.290   2.007  0.7642  0.6562  0.4591
 1007MOL0     N35827   2.495   7.383   2.003  1.0581  0.4060  0.1776
 1007MOL0     C35828   2.548   7.440   2.119 -0.2300  0.1375  0.5784
 1007MOL0     C35829   2.637   7.527   2.070  0.3301  0.4707  0.2412
 1007MOL0     C35830   2.728   7.609   2.158  0.8119 -1.7087 -0.3070
 1007MOL0     C35831   2.783   7.542   2.278  0.4137 -0.0842 -0.0551
 1007MOL0     C35832   2.881   7.618   2.355 -0.2774  0.0424 -0.8409
 1007MOL0     C35833   2.941   7.531   2.470 -1.1819 -0.2463 -0.3986
 1007MOL0     O35834   3.040   7.450   2.415 -0.9183  0.8311 -0.5014
 1007MOL0     C35835   3.167   7.496   2.418  0.5330  0.1619 -0.3563
 1007MOL0     C35836   3.259   7.397   2.399 -1.5968 -0.1691 -1.7467
 1007MOL0     C35837   3.399   7.429   2.400 -0.0924 -0.4090  1.0667
 1007MOL0     C35838   3.486   7.311   2.368  0.2782 -0.7881 -0.6235
 1007MOL0     C35839   3.442   7.557   2.452 -0.1170 -0.3161 -0.0053
 1007MOL0     C35840   3.591   7.611   2.467 -0.2176  0.0156 -0.4523
 1007MOL0     O35841   3.692   7.536   2.420 -0.6532 -0.0488 -0.8737
 1007MOL0     C35842   3.811   7.552   2.469 -0.6703  0.6263  0.1897
 1007MOL0     C35843   3.886   7.438   2.490 -0.8984 -0.5075 -0.4185
 1007MOL0     C35844   4.019   7.453   2.530 -0.0865  0.0409 -0.2207
 1007MOL0     C35845   4.079   7.574   2.558 -0.0631 -1.5132 -0.8059
 1007MOL0     O35846   4.199   7.575   2.625 -0.6699 -0.1495  0.4268
 1007MOL0     C35847   4.282   7.693   2.618  0.3019  0.6683 -0.6729
 1007MOL0     C35848   4.387   7.701   2.732  1.1183 -0.2838  0.7208
 1007MOL0     C35849   4.506   7.616   2.691 -0.0887  0.0549  0.0832
 1007MOL0     C35850   4.607   7.617   2.815 -0.5138 -0.7666 -0.6595
 1007MOL0     C35851   4.733   7.559   2.753  0.2940  0.6162 -0.7412
 1007MOL0     C35852   4.843   7.537   2.863 -0.5082 -0.5667 -0.3894
 1007MOL0     C35853   4.969   7.504   2.788  0.9543 -0.0733 -0.4968
 1007MOL0     C35854   5.067   7.445   2.886  0.2569  0.8909 -0.8706
 1007MOL0    Cl35855   5.202   7.387   2.784  0.0546  0.6412 -0.2575
 1007MOL0     C35856   4.002   7.690   2.533 -0.2828  0.2347 -0.0156
 1007MOL0     C35857   3.871   7.677   2.484 -0.4550 -0.2060 -0.1664
 1007MOL0     O35858   3.603   7.707   2.544 -0.1974 -0.0001  0.0096
 1007MOL0     C35859   3.343   7.657   2.472 -1.1273  0.0222  0.5719
 1007MOL0     C35860   3.208   7.626   2.445  0.2979  0.0211 -1.2911
 1007MOL0     N35861   2.632   7.519   1.930 -0.0349  0.0696  0.0997
 1007MOL0     N35862   2.552   7.427   1.897 -0.5524 -0.8867 -0.3307
 1007MOL0     C35863   1.686   6.700   1.757  0.5674 -0.3103  0.2587
 1007MOL0     C35864   1.547   6.719   1.782 -1.0484 -0.4405 -0.3838
 1007MOL0     C35865   1.245   6.655   2.117 -0.2153  0.4162  0.3309
 1007MOL0     C35866   1.130   6.573   2.132 -0.3048 -0.5490  0.1528
 1007MOL0     C35867   1.061   6.576   2.248 -0.4371 -0.8315 -0.5775
 1007MOL0     C35868   1.115   6.656   2.354 -1.1262 -0.3486  0.2015
 1007MOL0     O35869   1.071   6.659   2.484 -0.2667 -0.1569 -1.0105
 1007MOL0     C35870   1.027   6.528   2.535 -0.8937 -1.0040 -0.4335
 1007MOL0     C35871   1.008   6.555   2.685 -0.2944 -0.5880  0.6658
 1007MOL0     C35872   0.957   6.430   2.757 -0.1536 -0.2107 -0.8280
 1007MOL0     C35873   0.973   6.442   2.909 -0.3747  0.6402  0.7391
 1007MOL0     C35874   0.937   6.573   2.960 -0.0304  0.5806 -0.5022
 1007MOL0     C35875   0.908   6.686   2.991 -0.1615  0.5103 -0.4683
 1007MOL0     C35876   1.230   6.728   2.345 -0.3146  0.8458 -0.0732
 1007MOL0     C35877   1.300   6.728   2.229 -0.5991  0.6914 -0.4588
 1007MOL0     H35878   1.565   6.790   2.106  0.2895  0.3033  0.2626
 1007MOL0     H35879   1.797   6.749   2.076  0.0298 -4.8629 -0.3582
 1007MOL0     H35880   2.008   6.859   1.906 -1.5900 -0.3040 -0.5535
 1007MOL0     H35881   1.989   6.732   2.025 -0.6388  0.3091 -0.1662
 1007MOL0     H35882   2.146   6.582   1.910  1.4308  0.3809  1.6099
 1007MOL0     H35883   2.165   6.718   1.779 -2.0247  3.8160  0.3599
 1007MOL0     H35884   2.247   6.725   2.076  0.9717  0.1005 -0.0453
 1007MOL0     H35885   2.353   6.701   1.940 -0.4625  0.8154 -1.2943
 1007MOL0     H35886   2.279   6.917   1.849 -0.8605 -0.7674 -0.8878
 1007MOL0     H35887   2.168   6.938   1.996 -0.4295 -1.3114 -0.6367
 1007MOL0     H35888   2.358   7.018   2.119  0.7289  0.4415 -0.0790
 1007MOL0     H35889   2.454   6.888   2.066  1.9651  1.6287 -1.8621
 1007MOL0     H35890   2.572   7.094   1.976  0.0483  1.0004 -0.3607
 1007MOL0     H35891   2.493   7.016   1.841 -2.7385  2.7766 -2.0562
 1007MOL0     H35892   2.423   7.238   1.808  0.5178 -0.5750 -0.0861
 1007MOL0     H35893   2.287   7.143   1.879  0.5746  0.9748 -5.4418
 1007MOL0     H35894   2.359   7.250   2.107 -0.2627  1.1123  0.4921
 1007MOL0     H35895   2.289   7.350   1.974 -0.0252 -1.1478 -0.9398
 1007MOL0     H35896   2.534   7.422   2.225 -1.9007  0.4565  0.4367
 1007MOL0     H35897   2.807   7.658   2.099 -1.7569  4.0530  0.3765
 1007MOL0     H35898   2.667   7.693   2.192  1.2431 -1.4019 -0.2704
 1007MOL0     H35899   2.809   7.444   2.237 -1.3366 -0.4013 -0.5010
 1007MOL0     H35900   2.702   7.521   2.348  0.4954 -1.1581 -0.2638
 1007MOL0     H35901   2.843   7.716   2.386  2.6429  0.9718  0.1788
 1007MOL0     H35902   2.967   7.630   2.288  1.0841  0.1027  0.8268
 1007MOL0     H35903   2.872   7.471   2.531 -0.0476  0.2419  1.4695
 1007MOL0     H35904   2.981   7.596   2.549  1.0996 -1.4518 -0.4853
 1007MOL0     H35905   3.231   7.292   2.393  1.5405 -1.2620  0.2607
 1007MOL0     H35906   3.432   7.216   2.367 -0.9851 -0.3897  4.4134
 1007MOL0     H35907   3.553   7.324   2.282 -1.1267  2.8607 -1.3722
 1007MOL0     H35908   3.549   7.310   2.457  1.0733 -1.3675 -1.1836
 1007MOL0     H35909   3.844   7.339   2.489 -0.4435 -0.7421  1.0294
 1007MOL0     H35910   4.078   7.367   2.562  1.7506  1.9553  1.9070
 1007MOL0     H35911   4.327   7.696   2.519  2.5479  1.7227  0.3035
 1007MOL0     H35912   4.221   7.781   2.639  1.8726  1.4397  0.8824
 1007MOL0     H35913   4.403   7.808   2.747  1.6910 -0.3966  0.9281
 1007MOL0     H35914   4.341   7.666   2.826 -1.0187  0.0561 -0.1295
 1007MOL0     H35915   4.540   7.657   2.596 -1.1033 -1.4942 -0.9814
 1007MOL0     H35916   4.487   7.511   2.667  1.4694  0.1045 -1.5690
 1007MOL0     H35917   4.627   7.717   2.854  1.0700 -1.6871  1.0042
 1007MOL0     H35918   4.567   7.545   2.886  0.1249 -0.6246 -0.1502
 1007MOL0     H35919   4.769   7.628   2.677 -2.1086  2.3916 -0.3750
 1007MOL0     H35920   4.713   7.461   2.707  2.3718 -1.6204  2.6025
 1007MOL0     H35921   4.865   7.626   2.923  3.1097 -0.9693 -0.8960
 1007MOL0     H35922   4.814   7.449   2.922  2.1960 -1.5180 -0.3225
 1007MOL0     H35923   5.006   7.587   2.726 -0.9664  1.2243  0.0018
 1007MOL0     H35924   4.937   7.423   2.722 -1.9251  0.8742 -0.4307
 1007MOL0     H35925   5.016   7.366   2.943  1.5969 -0.6085 -1.6476
 1007MOL0     H35926   5.119   7.515   2.952  0.4347 -0.0018 -0.0322
 1007MOL0     H35927   4.041   7.787   2.562 -0.1340  1.0585 -2.6848
 1007MOL0     H35928   3.815   7.767   2.462 -2.8339 -0.8193  2.7351
 1007MOL0     H35929   3.380   7.756   2.495  2.2856 -0.5699 -1.5879
 1007MOL0     H35930   3.143   7.713   2.445  0.2788  0.0338  0.4195
 1007MOL0     H35931   1.721   6.671   1.659  2.5071 -0.2644  0.8929
 1007MOL0     H35932   1.474   6.706   1.702 -2.9249  2.4444  0.7023
 1007MOL0     H35933   1.084   6.511   2.056 -1.6699 -0.7066  1.0639
 1007MOL0     H35934   0.968   6.525   2.268 -1.1558 -0.0349 -1.7686
 1007MOL0     H35935   0.934   6.492   2.490 -0.7767 -0.2178 -1.3187
 1007MOL0     H35936   1.103   6.452   2.513 -2.0197 -2.7420  1.3269
 1007MOL0     H35937   0.951   6.646   2.702  1.7648  1.5355 -2.6119
 1007MOL0     H35938   1.105   6.594   2.716  0.5114 -1.6609 -0.3974
 1007MOL0     H35939   1.022   6.353   2.714  1.5443  1.2364 -0.9446
 1007MOL0     H35940   0.856   6.413   2.718 -0.9004  3.2282 -0.7066
 1007MOL0     H35941   1.077   6.419   2.936 -1.4321 -1.7709  3.1985
 1007MOL0     H35942   0.906   6.368   2.953  1.4791 -1.4458  0.1888
 1007MOL0     H35943   0.899   6.790   3.014  0.4741  0.2193  1.2172
 1007MOL0     H35944   1.279   6.771   2.432  1.1338 -1.8550  0.5911
 1007MOL0     H35945   1.380   6.801   2.216 -0.6082  0.5462 -1.4439
 1008MOL0     O35946   9.072   3.722  10.946 -0.1454  0.0689 -0.7110
 1008MOL0     C35947   9.081   3.778  10.833  0.4194 -0.9649 -0.0045
 1008MOL0     O35948   9.011   3.883  10.790 -0.7843  0.2164 -0.1745
 1008MOL0     C35949   8.935   3.965  10.860  1.0654 -0.4787  0.0221
 1008MOL0     C35950   8.907   3.965  11.001  0.3136 -0.1724 -0.1379
 1008MOL0     C35951   8.819   4.062  11.050 -0.8476 -0.4435  0.0211
 1008MOL0     C35952   8.753   4.147  10.969 -0.0719  0.8787  0.0238
 1008MOL0     O35953   8.647   4.228  11.020 -0.3031  0.3826 -0.5996
 1008MOL0     C35954   8.637   4.237  11.160  0.8412  0.0985 -0.2704
 1008MOL0     C35955   8.539   4.360  11.214 -0.8490  0.4033 -0.0031
 1008MOL0     C35956   8.399   4.308  11.256 -0.1129 -0.1364  0.7038
 1008MOL0     C35957   8.284   4.413  11.268 -0.6378  0.4256  0.0906
 1008MOL0     C35958   8.155   4.356  11.334 -0.2058 -0.8752 -0.1618
 1008MOL0     C35959   8.056   4.472  11.356  0.0064  0.6385  0.1317
 1008MOL0     C35960   8.085   4.539  11.496  0.7890  0.7098  0.9890
 1008MOL0     C35961   8.006   4.677  11.502  1.5277  0.8966  0.2208
 1008MOL0     N35962   7.864   4.658  11.542  0.4851 -0.7082 -0.8881
 1008MOL0     C35963   7.739   4.690  11.481  0.4108 -0.7886  0.4221
 1008MOL0     C35964   7.649   4.642  11.574  0.1317  0.7905  0.7287
 1008MOL0     C35965   7.500   4.607  11.554  0.3841 -0.7512 -0.2056
 1008MOL0     C35966   7.414   4.730  11.591  0.3917 -0.0620 -0.6313
 1008MOL0     C35967   7.415   4.765  11.743  0.0029  0.0689  0.6305
 1008MOL0     C35968   7.329   4.877  11.789  0.6849  0.4175  0.3246
 1008MOL0     O35969   7.193   4.824  11.778  0.1046 -0.1066 -0.1599
 1008MOL0     C35970   7.092   4.904  11.820 -0.3857 -0.8926  0.0528
 1008MOL0     C35971   7.113   5.042  11.841  0.1463 -0.4887  0.5044
 1008MOL0     C35972   7.005   5.124  11.886 -0.4878 -0.0415  1.0734
 1008MOL0     C35973   7.034   5.272  11.908 -0.7946 -0.0716  0.2391
 1008MOL0     C35974   6.867   5.079  11.889  0.1356  0.3383  1.2504
 1008MOL0     C35975   6.740   5.158  11.919 -1.1066  0.0598 -0.1503
 1008MOL0     O35976   6.756   5.284  11.960  1.4891 -0.3397  0.6601
 1008MOL0     C35977   6.636   5.362  11.962 -0.5201 -0.9260 -0.3547
 1008MOL0     C35978   6.598   5.411  12.089  0.0954 -0.1277  0.6907
 1008MOL0     C35979   6.476   5.482  12.104 -0.3424  0.4973 -0.5839
 1008MOL0     C35980   6.392   5.500  11.992 -0.3217  0.1841 -0.1855
 1008MOL0     O35981   6.265   5.548  11.996 -0.2637 -0.3706  0.1146
 1008MOL0     C35982   6.247   5.647  12.099  0.3402 -0.7021 -0.0934
 1008MOL0     C35983   6.113   5.722  12.079 -1.2001  0.5364 -0.1187
 1008MOL0     C35984   6.111   5.861  12.135 -0.2979  0.1766  0.3617
 1008MOL0     C35985   6.205   5.969  12.071  0.4481  0.6840 -0.1893
 1008MOL0     C35986   6.149   6.112  12.061  0.3087  1.1568  0.1732
 1008MOL0     C35987   6.142   6.184  12.200  0.1567  0.6212  0.1101
 1008MOL0     C35988   6.130   6.343  12.187 -0.5654 -0.4670  1.0500
 1008MOL0     C35989   5.996   6.406  12.210 -0.2886 -0.5265  0.4093
 1008MOL0    Cl35990   5.864   6.326  12.111  0.2815 -0.0267  0.2432
 1008MOL0     C35991   6.437   5.448  11.870 -0.0794  0.9026 -0.0104
 1008MOL0     C35992   6.565   5.386  11.849  0.8212  1.3564 -0.7591
 1008MOL0     O35993   6.639   5.096  11.900  0.4452  0.1959  0.2469
 1008MOL0     C35994   6.851   4.944  11.855 -0.2612 -0.5220  0.2162
 1008MOL0     C35995   6.960   4.862  11.816 -0.4964  1.2581 -0.2373
 1008MOL0     N35996   7.720   4.587  11.678 -0.3745  0.6353  0.4488
 1008MOL0     N35997   7.844   4.602  11.665 -0.5321  0.1164 -0.5628
 1008MOL0     C35998   8.773   4.133  10.834 -0.7629 -0.3375  0.4039
 1008MOL0     C35999   8.869   4.057  10.779 -0.5657  0.4967 -0.1381
 1008MOL0     C36000   9.151   3.706  10.729 -0.4425  0.2906 -0.8276
 1008MOL0     C36001   9.191   3.571  10.749 -0.4027  0.1930  0.6976
 1008MOL0     C36002   9.254   3.505  10.645 -0.4663 -0.1387 -1.2663
 1008MOL0     C36003   9.270   3.568  10.517 -0.2931  0.4599 -0.1000
 1008MOL0     O36004   9.321   3.504  10.405 -0.1123 -0.7042  0.3924
 1008MOL0     C36005   9.394   3.384  10.434 -0.3425  0.0485  0.7133
 1008MOL0     C36006   9.305   3.266  10.409  0.1278  1.0638  0.0691
 1008MOL0     C36007   9.343   3.210  10.270 -0.0333  0.2352  0.5093
 1008MOL0     C36008   9.223   3.155  10.203  0.0229 -0.3579  0.0884
 1008MOL0     C36009   9.196   3.021  10.261 -0.2352 -0.0765  0.1117
 1008MOL0     C36010   9.161   2.929  10.323  0.3150 -0.1907 -0.8605
 1008MOL0     C36011   9.257   3.709  10.504  0.4074  0.9603 -1.0785
 1008MOL0     C36012   9.185   3.772  10.606  0.5150 -0.3853  0.3616
 1008MOL0     H36013   8.949   3.899  11.077 -2.0208 -0.2148  1.2052
 1008MOL0     H36014   8.794   4.042  11.153  0.6676 -4.0041 -0.1308
 1008MOL0     H36015   8.605   4.143  11.205  1.6494 -0.4269 -0.7597
 1008MOL0     H36016   8.735   4.265  11.202  1.0300  0.3416 -0.8541
 1008MOL0     H36017   8.585   4.395  11.307 -0.5301  1.4048 -0.5117
 1008MOL0     H36018   8.537   4.442  11.142  0.3594 -1.9306 -2.9046
 1008MOL0     H36019   8.356   4.226  11.198 -1.0718 -1.2165  2.8233
 1008MOL0     H36020   8.415   4.267  11.356  2.8518  1.7617  1.1319
 1008MOL0     H36021   8.316   4.503  11.321 -0.4512  0.1491  0.4492
 1008MOL0     H36022   8.263   4.442  11.164 -2.3612 -0.3210  0.1991
 1008MOL0     H36023   8.105   4.285  11.267 -1.9658  1.6812 -1.7316
 1008MOL0     H36024   8.189   4.310  11.427  1.0922  0.9134  0.3065
 1008MOL0     H36025   8.064   4.549  11.280 -3.9032  2.4139  1.2624
 1008MOL0     H36026   7.950   4.443  11.356 -0.1344  1.1521 -0.3165
 1008MOL0     H36027   8.053   4.466  11.571 -2.8186 -2.3550 -3.0330
 1008MOL0     H36028   8.193   4.554  11.507  1.2745  1.2256 -2.8560
 1008MOL0     H36029   8.011   4.720  11.401 -1.8453 -4.6184 -2.8073
 1008MOL0     H36030   8.050   4.740  11.579 -0.9600  0.1044  2.4636
 1008MOL0     H36031   7.722   4.725  11.380  3.6731  0.5850  0.2362
 1008MOL0     H36032   7.489   4.589  11.447 -0.8356 -2.4040  0.1622
 1008MOL0     H36033   7.460   4.518  11.604  0.3521 -0.2312  0.7346
 1008MOL0     H36034   7.314   4.704  11.555  0.1906  0.5805 -0.5447
 1008MOL0     H36035   7.443   4.821  11.538  2.1264  0.3297  0.8928
 1008MOL0     H36036   7.522   4.782  11.758 -0.1618  2.0279 -0.1347
 1008MOL0     H36037   7.391   4.680  11.808 -1.3281  0.6828  0.9841
 1008MOL0     H36038   7.346   4.968  11.730 -2.4626  0.9607  0.0962
 1008MOL0     H36039   7.360   4.899  11.891  0.1103 -0.2656  0.6560
 1008MOL0     H36040   7.213   5.086  11.842  0.1497 -0.5008  0.7185
 1008MOL0     H36041   7.032   5.296  12.015  0.8006 -0.7266  0.4407
 1008MOL0     H36042   7.133   5.286  11.865 -1.3421 -1.8056 -1.7475
 1008MOL0     H36043   6.958   5.329  11.855 -0.6914  0.7277  0.9394
 1008MOL0     H36044   6.664   5.412  12.175  0.3501 -0.0255  0.4978
 1008MOL0     H36045   6.459   5.520  12.204  1.2793  1.4433 -0.6392
 1008MOL0     H36046   6.238   5.585  12.188  0.5130 -1.4975 -0.6140
 1008MOL0     H36047   6.337   5.703  12.124  1.4177 -1.8346 -1.2852
 1008MOL0     H36048   6.111   5.715  11.970  2.6401 -3.4809 -0.1790
 1008MOL0     H36049   6.019   5.680  12.117 -1.2819  1.6750  1.0428
 1008MOL0     H36050   6.136   5.840  12.239  3.9493 -1.6748 -0.7696
 1008MOL0     H36051   6.006   5.891  12.126  0.1122  1.1277 -2.2452
 1008MOL0     H36052   6.300   5.969  12.125  0.5967 -0.3257 -0.4443
 1008MOL0     H36053   6.207   5.917  11.975  0.2804 -2.8708  1.5647
 1008MOL0     H36054   6.055   6.113  12.005  2.0676  1.4702 -3.0636
 1008MOL0     H36055   6.229   6.169  12.012  0.7147  0.6310  0.2285
 1008MOL0     H36056   6.058   6.131  12.245  0.4826  0.8489  1.0079
 1008MOL0     H36057   6.227   6.159  12.263 -0.6864 -1.0512  0.6442
 1008MOL0     H36058   6.164   6.378  12.090  0.0163  0.9290  1.7340
 1008MOL0     H36059   6.192   6.395  12.261  1.3295  2.1733 -2.1566
 1008MOL0     H36060   5.994   6.514  12.195  0.7771 -0.2898  1.7261
 1008MOL0     H36061   5.981   6.383  12.316  0.6953  1.2301  0.9686
 1008MOL0     H36062   6.378   5.475  11.783 -0.6461  0.6121  0.2797
 1008MOL0     H36063   6.594   5.352  11.750  0.6052  4.0641 -1.8280
 1008MOL0     H36064   6.754   4.901  11.879 -0.6047  0.9259  1.6406
 1008MOL0     H36065   6.939   4.756  11.800 -0.9365  0.6983  3.1091
 1008MOL0     H36066   8.721   4.204  10.771  0.4137 -0.4000 -0.6926
 1008MOL0     H36067   8.895   4.044  10.675  2.4906 -0.8469  0.6635
 1008MOL0     H36068   9.188   3.514  10.841 -1.6229  0.1292  0.6339
 1008MOL0     H36069   9.290   3.404  10.662  2.5809  1.1127  0.5364
 1008MOL0     H36070   9.490   3.388  10.382 -0.9678  2.0469 -0.3721
 1008MOL0     H36071   9.437   3.386  10.534  1.3932 -1.2097  0.0453
 1008MOL0     H36072   9.201   3.295  10.425 -0.3498 -0.7752  0.5670
 1008MOL0     H36073   9.336   3.192  10.484 -3.4208  0.3493  1.0135
 1008MOL0     H36074   9.427   3.142  10.285 -0.2725 -0.5055 -1.2072
 1008MOL0     H36075   9.385   3.283  10.200 -1.7171  1.0911  0.3356
 1008MOL0     H36076   9.240   3.151  10.095  0.2994 -1.5666  0.1592
 1008MOL0     H36077   9.143   3.227  10.222 -0.7456 -1.1140 -0.1816
 1008MOL0     H36078   9.124   2.853  10.390  2.3660 -1.3327 -0.9344
 1008MOL0     H36079   9.282   3.763  10.414 -0.7136  0.8699 -1.4501
 1008MOL0     H36080   9.159   3.877  10.599 -2.2468 -0.9149  1.1723
 1009MOL0     O36081  10.773  11.096   8.699 -0.0879 -0.5059 -0.4795
 1009MOL0     C36082  10.729  10.995   8.639 -0.1650 -0.4600 -1.0867
 1009MOL0     O36083  10.604  10.964   8.613  0.0977  0.0391  0.4317
 1009MOL0     C36084  10.512  11.060   8.624  0.0537  1.5131  0.7458
 1009MOL0     C36085  10.482  11.151   8.516  0.1242 -0.1453 -0.7203
 1009MOL0     C36086  10.373  11.236   8.519 -0.2489 -0.1099 -0.3119
 1009MOL0     C36087  10.290  11.234   8.632  0.2941 -0.3375  0.9864
 1009MOL0     O36088  10.185  11.322   8.649  0.7863 -0.1923  0.1728
 1009MOL0     C36089  10.124  11.373   8.529  0.0848  0.5775 -0.0144
 1009MOL0     C36090   9.984  11.395   8.582  0.5832  0.3075  0.2293
 1009MOL0     C36091   9.972  11.533   8.661 -0.1777  0.4050 -0.8884
 1009MOL0     C36092   9.842  11.521   8.741 -0.3579 -0.0242 -0.3555
 1009MOL0     C36093   9.786  11.665   8.763  0.6376  0.2889 -0.2580
 1009MOL0     C36094   9.667  11.666   8.858 -0.7135  0.5218 -0.4423
 1009MOL0     C36095   9.584  11.790   8.857  0.3799 -0.3416 -0.3082
 1009MOL0     C36096   9.471  11.781   8.962 -0.2512  0.2695  0.3646
 1009MOL0     N36097   9.371  11.684   8.919  0.2930 -0.8618  0.1844
 1009MOL0     C36098   9.264  11.711   8.833 -0.9204  0.6905 -0.0102
 1009MOL0     C36099   9.202  11.593   8.839  0.2466  0.6746 -0.1881
 1009MOL0     C36100   9.062  11.577   8.779 -0.5452  0.2460  0.9208
 1009MOL0     C36101   9.053  11.596   8.630  0.4590 -1.1037  0.3062
 1009MOL0     C36102   8.904  11.588   8.583 -0.8073  0.5561 -0.1606
 1009MOL0     C36103   8.830  11.454   8.606  0.4252  1.2423 -0.9943
 1009MOL0     O36104   8.713  11.456   8.520  0.5086 -0.4293 -0.7235
 1009MOL0     C36105   8.593  11.397   8.563  0.2754  0.5452  0.2083
 1009MOL0     C36106   8.586  11.306   8.668 -0.9152  0.3863 -0.2999
 1009MOL0     C36107   8.462  11.251   8.699 -0.6735 -0.0879  0.6424
 1009MOL0     C36108   8.459  11.153   8.816  0.5709 -1.2740 -0.0170
 1009MOL0     C36109   8.345  11.288   8.628 -0.1950  1.1698  0.0400
 1009MOL0     C36110   8.220  11.223   8.656  0.2853 -1.1651 -0.1391
 1009MOL0     O36111   8.098  11.293   8.662 -0.6540  0.7069  0.3929
 1009MOL0     C36112   7.981  11.224   8.659  0.8144  0.7143 -0.1790
 1009MOL0     C36113   7.899  11.219   8.774  0.2365 -0.3409 -0.0733
 1009MOL0     C36114   7.768  11.171   8.764 -0.2032  0.0646  0.0282
 1009MOL0     C36115   7.704  11.128   8.647 -0.1083  0.4120 -0.2798
 1009MOL0     O36116   7.576  11.086   8.628  0.0294 -0.2521 -0.1302
 1009MOL0     C36117   7.490  11.073   8.742 -0.6251  0.3257  0.6363
 1009MOL0     C36118   7.405  11.197   8.754  0.2888  0.4473 -1.1064
 1009MOL0     C36119   7.260  11.156   8.756  0.4302 -0.2302 -0.6237
 1009MOL0     C36120   7.202  11.159   8.608  0.3107 -0.2667  0.8002
 1009MOL0     C36121   7.055  11.120   8.617  1.6648  0.8927  0.0065
 1009MOL0     C36122   6.981  11.133   8.484 -0.5102  0.1314  0.2661
 1009MOL0     C36123   6.843  11.088   8.500  0.9912 -0.2125  0.0955
 1009MOL0     C36124   6.749  11.088   8.374 -0.1498 -0.7302 -0.3175
 1009MOL0    Cl36125   6.752  11.241   8.280  0.2247 -0.1477  0.0790
 1009MOL0     C36126   7.798  11.126   8.536  0.3097 -0.3655  0.4542
 1009MOL0     C36127   7.938  11.163   8.537 -0.0207 -0.1195 -0.2926
 1009MOL0     O36128   8.228  11.102   8.652  0.1338 -0.7340 -0.1542
 1009MOL0     C36129   8.351  11.367   8.521 -0.8228 -0.7545  0.9439
 1009MOL0     C36130   8.476  11.427   8.485 -0.3211 -0.5550 -0.0181
 1009MOL0     N36131   9.270  11.504   8.917 -0.4477 -0.0618  0.9574
 1009MOL0     N36132   9.367  11.564   8.965 -0.3537  0.0254  0.9399
 1009MOL0     C36133  10.315  11.137   8.730  0.8366  1.2393  0.2390
 1009MOL0     C36134  10.421  11.056   8.730 -0.2747 -0.2265 -0.6026
 1009MOL0     C36135  10.829  10.916   8.566  0.4754 -0.3966  0.2928
 1009MOL0     C36136  10.964  10.951   8.574  1.4865 -0.6611  1.1683
 1009MOL0     C36137  11.068  10.883   8.508  0.2342 -0.5269  0.2679
 1009MOL0     C36138  11.031  10.782   8.421  0.3921 -0.2262 -0.2004
 1009MOL0     O36139  11.127  10.711   8.341  0.6488 -0.6377 -0.2673
 1009MOL0     C36140  11.096  10.614   8.244 -0.0951  1.0321 -0.1065
 1009MOL0     C36141  11.225  10.549   8.189 -0.5659 -0.0130 -0.3292
 1009MOL0     C36142  11.304  10.647   8.110  0.8714 -0.1826  0.5980
 1009MOL0     C36143  11.446  10.596   8.094 -0.7199 -0.4679 -0.3870
 1009MOL0     C36144  11.471  10.485   7.993  0.1519  0.0592 -0.2693
 1009MOL0     C36145  11.504  10.398   7.917  0.3375 -0.2860 -0.3353
 1009MOL0     C36146  10.894  10.747   8.409 -0.4407  0.0612  0.8455
 1009MOL0     C36147  10.797  10.816   8.484  0.0666 -0.5293  0.2203
 1009MOL0     H36148  10.555  11.156   8.435  1.3652 -2.7871  0.1124
 1009MOL0     H36149  10.362  11.317   8.447 -1.8017  3.7251  3.7854
 1009MOL0     H36150  10.167  11.468   8.494  0.7227 -0.4729 -2.2789
 1009MOL0     H36151  10.135  11.297   8.452  1.4495 -0.3105  1.0087
 1009MOL0     H36152   9.909  11.389   8.502  1.1148 -0.1514 -0.2459
 1009MOL0     H36153   9.961  11.310   8.646  0.9364  1.7482  2.3813
 1009MOL0     H36154  10.058  11.536   8.729 -1.4174 -0.1638  0.7761
 1009MOL0     H36155   9.977  11.619   8.593  2.3517  1.8354  0.9252
 1009MOL0     H36156   9.764  11.463   8.692 -1.0116 -0.5722  1.2600
 1009MOL0     H36157   9.854  11.470   8.838 -0.2499  1.1680  0.2713
 1009MOL0     H36158   9.865  11.720   8.815  0.4105 -1.3697  2.0118
 1009MOL0     H36159   9.757  11.708   8.667  1.6262  0.8623 -0.3137
 1009MOL0     H36160   9.595  11.588   8.830 -0.6775 -0.2947  1.5228
 1009MOL0     H36161   9.702  11.651   8.961 -1.0462  0.9125 -0.2689
 1009MOL0     H36162   9.657  11.864   8.890  0.7695 -0.5567 -0.6744
 1009MOL0     H36163   9.541  11.811   8.758 -2.2013  2.0830  1.1814
 1009MOL0     H36164   9.413  11.873   8.969 -1.0086  0.0278 -1.7881
 1009MOL0     H36165   9.503  11.760   9.064 -1.3739  0.4797  0.7804
 1009MOL0     H36166   9.252  11.799   8.772 -2.2030 -0.6255 -1.7787
 1009MOL0     H36167   9.023  11.483   8.821  2.1073 -0.8269  1.1445
 1009MOL0     H36168   9.001  11.651   8.831  2.1522  1.8394  2.0166
 1009MOL0     H36169   9.116  11.530   8.570  0.7200 -0.7370  0.1690
 1009MOL0     H36170   9.093  11.692   8.596  1.6132 -1.5249  0.4277
 1009MOL0     H36171   8.890  11.624   8.480 -3.3081  2.7729  0.8397
 1009MOL0     H36172   8.839  11.649   8.645 -0.2633 -2.4302  3.7044
 1009MOL0     H36173   8.809  11.457   8.713 -1.8306 -3.0891 -1.0651
 1009MOL0     H36174   8.900  11.371   8.590  0.5204  0.8996  0.9043
 1009MOL0     H36175   8.670  11.272   8.728 -2.6808  0.0327  2.0978
 1009MOL0     H36176   8.478  11.049   8.789  0.5993 -1.9544  2.4010
 1009MOL0     H36177   8.529  11.188   8.893  1.3256 -0.7572 -0.9104
 1009MOL0     H36178   8.362  11.144   8.865 -1.2880  3.2043 -2.2557
 1009MOL0     H36179   7.933  11.272   8.862  0.1494  3.7515 -2.2593
 1009MOL0     H36180   7.697  11.192   8.844 -1.7596  0.1909 -1.3305
 1009MOL0     H36181   7.428  10.983   8.742 -0.1896  0.0179 -0.5614
 1009MOL0     H36182   7.541  11.056   8.837 -0.5293  3.3485  1.2296
 1009MOL0     H36183   7.426  11.237   8.853  1.2137 -0.6140 -0.8527
 1009MOL0     H36184   7.425  11.277   8.683  0.0523  2.4727  1.0050
 1009MOL0     H36185   7.201  11.219   8.824 -1.8294 -2.7816 -0.0430
 1009MOL0     H36186   7.232  11.060   8.801 -3.5804  1.6646  1.5768
 1009MOL0     H36187   7.214  11.256   8.558 -3.1605  0.5945  1.3910
 1009MOL0     H36188   7.248  11.084   8.544 -0.3410  0.1016 -0.1235
 1009MOL0     H36189   7.000  11.186   8.684  0.1364 -1.1226  0.8378
 1009MOL0     H36190   7.054  11.018   8.657 -2.9370  1.8711  3.1910
 1009MOL0     H36191   6.975  11.240   8.461 -3.1865 -0.0096  0.0704
 1009MOL0     H36192   7.018  11.076   8.398 -1.5405  1.1096 -0.8732
 1009MOL0     H36193   6.799  11.167   8.561 -0.4492 -0.1167 -1.0105
 1009MOL0     H36194   6.846  10.989   8.546 -3.3899 -0.1669  0.9185
 1009MOL0     H36195   6.651  11.069   8.418 -0.8076  1.1101 -0.8834
 1009MOL0     H36196   6.767  11.000   8.312  1.3120 -0.6814  0.0033
 1009MOL0     H36197   7.758  11.088   8.442 -1.8394  0.6377  0.8938
 1009MOL0     H36198   8.002  11.167   8.450  0.2617 -1.2486 -0.1436
 1009MOL0     H36199   8.259  11.388   8.467 -0.6271 -0.3564  0.7589
 1009MOL0     H36200   8.491  11.494   8.401  2.4644  1.8441  2.1940
 1009MOL0     H36201  10.240  11.133   8.808  2.6231 -0.1682  1.9447
 1009MOL0     H36202  10.446  10.981   8.804  2.5950  1.4640  0.3043
 1009MOL0     H36203  10.993  11.039   8.630 -0.9378  2.5266 -2.1739
 1009MOL0     H36204  11.166  10.929   8.516  1.4670 -3.1600  2.0387
 1009MOL0     H36205  11.016  10.542   8.266  2.1759 -1.3472  0.9356
 1009MOL0     H36206  11.057  10.666   8.156 -0.8584  1.7438  0.6366
 1009MOL0     H36207  11.199  10.457   8.136  0.0965 -0.2773 -0.2183
 1009MOL0     H36208  11.284  10.518   8.276  1.7336 -0.6723 -2.0275
 1009MOL0     H36209  11.311  10.742   8.163 -2.0903  0.4382  0.0298
 1009MOL0     H36210  11.246  10.667   8.019 -0.6530 -2.6824  0.9115
 1009MOL0     H36211  11.484  10.551   8.186 -0.5199  2.2354  0.9595
 1009MOL0     H36212  11.508  10.683   8.069 -1.9890  0.0993 -1.6815
 1009MOL0     H36213  11.544  10.320   7.856  1.2405  1.0910 -1.5792
 1009MOL0     H36214  10.858  10.680   8.331 -1.3561  0.8774  0.5587
 1009MOL0     H36215  10.693  10.792   8.469  0.4336 -0.9352 -2.1716
 1010MOL0     O36216   6.624   3.200   1.569 -0.3250  0.1319 -0.1838
 1010MOL0     C36217   6.651   3.305   1.627 -1.0601 -0.0071 -0.1396
 1010MOL0     O36218   6.565   3.376   1.693  0.5424  0.4415  0.6452
 1010MOL0     C36219   6.432   3.334   1.703 -0.4304  1.0406  0.9510
 1010MOL0     C36220   6.375   3.295   1.821  0.6398  0.3880 -0.0852
 1010MOL0     C36221   6.238   3.262   1.825  0.6601 -0.2082  0.0443
 1010MOL0     C36222   6.170   3.260   1.698 -0.3971  0.4528 -0.2508
 1010MOL0     O36223   6.045   3.208   1.673 -0.4254  0.5267 -0.1926
 1010MOL0     C36224   5.967   3.196   1.796 -0.7056 -0.5772  0.4896
 1010MOL0     C36225   5.833   3.139   1.762  0.2911  0.0370  0.2471
 1010MOL0     C36226   5.742   3.205   1.651 -0.2538 -0.8135  0.3261
 1010MOL0     C36227   5.697   3.356   1.688  0.2108  0.9361  0.1753
 1010MOL0     C36228   5.597   3.402   1.578  0.3996  0.6120 -0.6767
 1010MOL0     C36229   5.548   3.550   1.608 -0.3796 -0.2407 -0.7438
 1010MOL0     C36230   5.423   3.550   1.703  0.1417  1.0462 -0.1811
 1010MOL0     C36231   5.350   3.684   1.686 -0.0925  0.6249 -0.6096
 1010MOL0     N36232   5.224   3.684   1.745  1.0886  0.0566  0.6303
 1010MOL0     C36233   5.117   3.597   1.725  0.4518 -0.9925 -0.1456
 1010MOL0     C36234   5.022   3.633   1.814 -0.0910  0.1354  0.2559
 1010MOL0     C36235   4.880   3.581   1.829 -0.6594  1.0924 -0.0059
 1010MOL0     C36236   4.790   3.689   1.765 -0.7610  0.0101 -0.3186
 1010MOL0     C36237   4.643   3.680   1.797 -0.4032 -0.1780 -0.0414
 1010MOL0     C36238   4.566   3.807   1.800 -0.2757  0.2168  0.0281
 1010MOL0     O36239   4.553   3.857   1.660  0.7549  0.0021  0.4980
 1010MOL0     C36240   4.434   3.836   1.593  0.1274 -0.2814  0.6897
 1010MOL0     C36241   4.378   3.944   1.520 -0.9260  0.2052 -0.5887
 1010MOL0     C36242   4.253   3.946   1.458  1.1022 -1.0232  0.5687
 1010MOL0     C36243   4.212   4.069   1.377  0.9108  0.0585 -0.1956
 1010MOL0     C36244   4.172   3.834   1.475 -0.6064  0.3604  0.3043
 1010MOL0     C36245   4.041   3.819   1.407 -0.0082  0.5096 -0.4955
 1010MOL0     O36246   3.961   3.922   1.401 -0.4849  0.4450 -0.0644
 1010MOL0     C36247   3.837   3.907   1.351 -0.7521 -1.0433 -0.0319
 1010MOL0     C36248   3.818   3.858   1.219 -0.5613 -0.9840 -0.2482
 1010MOL0     C36249   3.697   3.839   1.167  0.4597 -0.0125  0.6073
 1010MOL0     C36250   3.582   3.914   1.219 -0.4874  0.0892  0.2615
 1010MOL0     O36251   3.459   3.907   1.163  0.2504  0.3263 -0.4393
 1010MOL0     C36252   3.453   3.937   1.026  0.1560 -0.0402  0.0561
 1010MOL0     C36253   3.311   3.994   1.004 -0.1514  0.4916  0.2895
 1010MOL0     C36254   3.304   4.021   0.857  0.1543  0.1580  0.6740
 1010MOL0     C36255   3.170   4.086   0.818  0.1108  0.8061 -0.4626
 1010MOL0     C36256   3.172   4.103   0.664  0.5214  0.2807  0.7538
 1010MOL0     C36257   3.089   4.211   0.605 -0.1519  0.5019 -0.2123
 1010MOL0     C36258   3.141   4.242   0.461 -0.2262  0.5547  0.0836
 1010MOL0     C36259   3.052   4.336   0.374  0.1638  0.3932 -0.1347
 1010MOL0    Cl36260   2.912   4.254   0.309 -0.6198  0.0160 -0.1850
 1010MOL0     C36261   3.603   3.976   1.341 -0.3316 -1.2816  0.6371
 1010MOL0     C36262   3.730   3.971   1.409  0.0689  0.1430  0.4847
 1010MOL0     O36263   4.016   3.700   1.380 -0.4503 -0.5663 -0.5427
 1010MOL0     C36264   4.229   3.725   1.556  0.2969 -0.1666  0.1828
 1010MOL0     C36265   4.352   3.726   1.610 -0.4525 -0.1461 -0.7377
 1010MOL0     N36266   5.071   3.738   1.892 -0.0019  0.1091  0.8020
 1010MOL0     N36267   5.192   3.759   1.850 -0.3889  0.4203 -0.7723
 1010MOL0     C36268   6.234   3.286   1.578  1.0653 -0.4132 -0.0041
 1010MOL0     C36269   6.366   3.326   1.584 -0.4248 -0.2317  0.1446
 1010MOL0     C36270   6.795   3.355   1.616 -0.0154  0.1128  0.3578
 1010MOL0     C36271   6.836   3.464   1.706  0.4450  0.1257  0.2853
 1010MOL0     C36272   6.957   3.520   1.702  0.0386  0.5129  0.1674
 1010MOL0     C36273   7.061   3.464   1.616 -0.1108  0.2797 -0.4117
 1010MOL0     O36274   7.187   3.520   1.631 -0.9724 -0.4700 -0.1699
 1010MOL0     C36275   7.306   3.456   1.570 -0.9056  0.0630  0.3265
 1010MOL0     C36276   7.367   3.338   1.649  0.2496  0.6047 -0.7545
 1010MOL0     C36277   7.452   3.391   1.765 -0.0297  0.0189  0.8077
 1010MOL0     C36278   7.593   3.430   1.717  0.3993  1.1141 -0.3659
 1010MOL0     C36279   7.660   3.532   1.798 -0.6812  0.4615 -0.9267
 1010MOL0     C36280   7.708   3.606   1.882 -0.4839 -0.9524 -0.9147
 1010MOL0     C36281   7.024   3.349   1.533 -0.2666  0.0873  0.1920
 1010MOL0     C36282   6.893   3.306   1.530 -0.2135 -0.2002  0.1457
 1010MOL0     H36283   6.446   3.306   1.902 -0.9367  2.0338  1.1640
 1010MOL0     H36284   6.209   3.235   1.926  0.7947 -1.4081 -0.2157
 1010MOL0     H36285   6.014   3.135   1.873  0.4850  0.7452  0.8379
 1010MOL0     H36286   5.947   3.296   1.836  0.0408  0.3919 -1.4526
 1010MOL0     H36287   5.839   3.032   1.742 -1.1041  0.3244 -2.0843
 1010MOL0     H36288   5.775   3.156   1.854  0.3431  2.5082 -0.0984
 1010MOL0     H36289   5.777   3.211   1.548 -1.5494  2.9703 -0.0599
 1010MOL0     H36290   5.647   3.150   1.647 -1.2420  0.6851  1.6110
 1010MOL0     H36291   5.651   3.358   1.787  1.2212 -0.4040  0.6992
 1010MOL0     H36292   5.782   3.425   1.692  1.8178 -0.9429  0.0081
 1010MOL0     H36293   5.648   3.398   1.481  1.9227  0.2778  0.1133
 1010MOL0     H36294   5.520   3.326   1.590  0.6632  0.8661  5.7059
 1010MOL0     H36295   5.627   3.604   1.661  0.7024 -2.4464  0.0533
 1010MOL0     H36296   5.522   3.609   1.520  0.7456  2.7084  0.7908
 1010MOL0     H36297   5.362   3.462   1.679  1.9288  0.1979 -1.9546
 1010MOL0     H36298   5.469   3.554   1.802  0.6353  3.7245 -0.4314
 1010MOL0     H36299   5.340   3.699   1.578 -0.9721 -1.1292 -0.7927
 1010MOL0     H36300   5.402   3.769   1.731 -0.7400 -0.0039  1.4434
 1010MOL0     H36301   5.103   3.516   1.653  1.7070 -1.2923 -0.0890
 1010MOL0     H36302   4.862   3.481   1.787  0.0222  0.4963  1.0801
 1010MOL0     H36303   4.847   3.568   1.932  0.9353 -0.5881  0.3445
 1010MOL0     H36304   4.807   3.698   1.657  1.0183 -0.4851 -0.1218
 1010MOL0     H36305   4.825   3.786   1.804 -1.4804  0.2894 -0.3545
 1010MOL0     H36306   4.627   3.646   1.900  1.5209 -0.1680  0.3108
 1010MOL0     H36307   4.594   3.611   1.729 -1.5699  2.7153 -2.3267
 1010MOL0     H36308   4.613   3.880   1.867  0.3856  0.2195 -0.4362
 1010MOL0     H36309   4.466   3.782   1.837  0.8858 -4.7027  0.5507
 1010MOL0     H36310   4.429   4.039   1.515  0.7765 -0.5628  1.0344
 1010MOL0     H36311   4.180   4.057   1.273  1.6385  2.7110 -0.7921
 1010MOL0     H36312   4.121   4.107   1.425  1.1979 -0.3048  0.6541
 1010MOL0     H36313   4.289   4.145   1.376  1.4833 -0.5043 -1.5321
 1010MOL0     H36314   3.903   3.821   1.164 -0.2452 -0.4814 -0.1052
 1010MOL0     H36315   3.672   3.775   1.083  0.0096 -1.3414  1.7192
 1010MOL0     H36316   3.524   4.016   1.002 -2.6309  2.9991  1.1895
 1010MOL0     H36317   3.470   3.846   0.966  0.2332 -0.2909  0.4545
 1010MOL0     H36318   3.237   3.918   1.032 -0.0138 -0.4021 -1.6007
 1010MOL0     H36319   3.294   4.081   1.068  0.1532  1.6923 -1.2012
 1010MOL0     H36320   3.305   3.924   0.807  2.8410  0.4475 -0.0135
 1010MOL0     H36321   3.390   4.082   0.827  0.2447 -0.4412 -0.3146
 1010MOL0     H36322   3.090   4.017   0.845  0.6616  0.0836 -0.6718
 1010MOL0     H36323   3.168   4.182   0.872 -2.1301 -0.5496  2.1405
 1010MOL0     H36324   3.126   4.013   0.623 -1.5167  1.3227  0.6217
 1010MOL0     H36325   3.270   4.115   0.617 -0.6432 -0.2373 -1.9826
 1010MOL0     H36326   2.981   4.198   0.601 -0.2322  1.3784 -2.0884
 1010MOL0     H36327   3.107   4.298   0.668  1.8787 -1.5025  2.2212
 1010MOL0     H36328   3.170   4.150   0.408  0.1019  1.6764 -1.7791
 1010MOL0     H36329   3.237   4.294   0.466  2.0958 -2.2203 -5.7110
 1010MOL0     H36330   3.102   4.400   0.300 -0.5971  1.5868  0.3425
 1010MOL0     H36331   3.004   4.397   0.451  2.3796 -2.0022  3.4258
 1010MOL0     H36332   3.522   4.032   1.386 -0.6866 -1.0428 -0.2614
 1010MOL0     H36333   3.737   4.027   1.502  1.7716 -1.3940  1.3445
 1010MOL0     H36334   4.162   3.640   1.562 -0.9951  0.7166 -0.9860
 1010MOL0     H36335   4.380   3.639   1.668  0.8308  1.3171  0.9407
 1010MOL0     H36336   6.175   3.261   1.490  0.5690  0.9653 -0.0965
 1010MOL0     H36337   6.413   3.363   1.493  0.3717 -1.4771  0.0219
 1010MOL0     H36338   6.760   3.498   1.776 -1.0222 -2.0139 -0.1729
 1010MOL0     H36339   6.985   3.599   1.771  0.7102  0.8431 -0.4715
 1010MOL0     H36340   7.278   3.417   1.471  1.1894 -0.7318 -0.0052
 1010MOL0     H36341   7.379   3.537   1.558 -0.6596 -0.1741  0.2304
 1010MOL0     H36342   7.420   3.263   1.590  1.6241  0.4432  0.5882
 1010MOL0     H36343   7.283   3.288   1.697  2.8153 -1.6727  1.7617
 1010MOL0     H36344   7.463   3.316   1.844 -1.8116 -2.1808 -0.8715
 1010MOL0     H36345   7.402   3.480   1.804  1.2400  0.5339  1.3037
 1010MOL0     H36346   7.584   3.456   1.611  3.5416  0.6773 -0.8420
 1010MOL0     H36347   7.651   3.339   1.698 -1.5579 -0.1226 -0.7554
 1010MOL0     H36348   7.732   3.686   1.949 -2.1016 -0.3008 -1.0627
 1010MOL0     H36349   7.094   3.297   1.468  0.7550  0.0768  1.2619
 1010MOL0     H36350   6.867   3.222   1.466 -2.3410  2.0206 -2.1594
 1011MOL0     O36351   9.348   7.294   0.296 -0.1317 -0.3034  0.3917
 1011MOL0     C36352   9.262   7.290   0.378 -0.6279 -0.7589  0.2607
 1011MOL0     O36353   9.127   7.291   0.360  0.7978  0.2010  0.3952
 1011MOL0     C36354   9.063   7.303   0.238  0.0006 -0.2638 -1.2238
 1011MOL0     C36355   8.928   7.342   0.256 -0.3556 -0.2768 -0.0924
 1011MOL0     C36356   8.846   7.376   0.145 -0.1367  0.6295  0.0920
 1011MOL0     C36357   8.892   7.372   0.008 -0.0528  0.0218 -0.3445
 1011MOL0     O36358   8.815   7.408  -0.102 -0.3462  0.5891 -0.3579
 1011MOL0     C36359   8.678   7.365  -0.094  0.1933 -0.2176 -0.4044
 1011MOL0     C36360   8.612   7.358  -0.232 -0.5872 -0.4990 -0.1073
 1011MOL0     C36361   8.451   7.355  -0.206 -0.7963  0.0688 -0.2388
 1011MOL0     C36362   8.375   7.351  -0.340 -0.5132  0.8532 -0.0225
 1011MOL0     C36363   8.229   7.322  -0.331  0.4170 -0.7846 -0.8173
 1011MOL0     C36364   8.194   7.186  -0.276  0.7986  1.1539 -0.1232
 1011MOL0     C36365   8.058   7.130  -0.303  0.2724  0.0610  0.4122
 1011MOL0     C36366   8.037   7.001  -0.214 -0.6721 -0.6511  0.4763
 1011MOL0     N36367   7.894   6.964  -0.208 -1.5335  0.4512 -0.4501
 1011MOL0     C36368   7.818   6.872  -0.272 -0.2034  0.6016 -0.5686
 1011MOL0     C36369   7.698   6.875  -0.209  0.1610  0.3357  0.4402
 1011MOL0     C36370   7.574   6.793  -0.234 -0.4066 -0.2407  0.0411
 1011MOL0     C36371   7.459   6.873  -0.304 -0.4222  0.2025  0.9200
 1011MOL0     C36372   7.473   6.915  -0.449  0.2901 -0.4434 -0.7942
 1011MOL0     C36373   7.432   6.816  -0.553 -1.1452 -0.2557 -0.0855
 1011MOL0     O36374   7.472   6.682  -0.523 -0.3114 -0.1937  0.4638
 1011MOL0     C36375   7.382   6.589  -0.558 -0.0944 -0.0674  0.0346
 1011MOL0     C36376   7.397   6.502  -0.669 -0.3977  0.4831  0.1677
 1011MOL0     C36377   7.300   6.396  -0.695 -0.0251 -0.1537 -0.8312
 1011MOL0     C36378   7.346   6.298  -0.791  0.3357  0.1981  0.5737
 1011MOL0     C36379   7.184   6.389  -0.614  0.8299 -0.3738  0.6727
 1011MOL0     C36380   7.074   6.298  -0.647 -0.9373  0.7055  0.2343
 1011MOL0     O36381   6.952   6.348  -0.636  0.3372  0.1190 -0.3379
 1011MOL0     C36382   6.856   6.285  -0.697  0.3328  0.2974  0.5432
 1011MOL0     C36383   6.778   6.183  -0.643 -0.5804 -0.2719 -0.6584
 1011MOL0     C36384   6.671   6.122  -0.716  0.2377  0.8583 -0.3579
 1011MOL0     C36385   6.631   6.192  -0.831  0.2419  0.5204 -0.3742
 1011MOL0     O36386   6.513   6.139  -0.890  0.3672  0.8865 -0.7203
 1011MOL0     C36387   6.430   6.236  -0.959  0.5219  0.5963 -0.7499
 1011MOL0     C36388   6.317   6.171  -1.016  0.2856  0.3070 -0.7876
 1011MOL0     C36389   6.220   6.264  -1.085  0.2449 -0.8193  0.0917
 1011MOL0     C36390   6.085   6.194  -1.100 -0.7253 -0.8078 -0.0622
 1011MOL0     C36391   6.001   6.271  -1.202 -0.3819 -0.7547 -0.5215
 1011MOL0     C36392   5.863   6.212  -1.234  0.3102  0.8826 -0.4353
 1011MOL0     C36393   5.791   6.195  -1.092  0.7454  0.6068  0.1662
 1011MOL0     C36394   5.648   6.129  -1.122 -0.3494  0.1453 -0.1283
 1011MOL0    Cl36395   5.532   6.232  -1.223 -0.5014  0.1243  0.0311
 1011MOL0     C36396   6.704   6.296  -0.886 -0.3787 -0.2328 -0.0914
 1011MOL0     C36397   6.821   6.332  -0.823 -0.0119 -0.7615 -0.5061
 1011MOL0     O36398   7.101   6.180  -0.692  0.4892 -0.1034 -0.5142
 1011MOL0     C36399   7.176   6.476  -0.503 -0.0587 -0.7623 -0.9572
 1011MOL0     C36400   7.274   6.572  -0.470  0.1199 -0.5794  0.2475
 1011MOL0     N36401   7.704   6.992  -0.136 -0.4940 -0.9838  0.1276
 1011MOL0     N36402   7.823   7.045  -0.131 -0.5875  0.3610 -1.2623
 1011MOL0     C36403   9.028   7.334  -0.006  0.4045  0.8308 -0.1053
 1011MOL0     C36404   9.111   7.303   0.106 -0.6922 -0.7341  0.8154
 1011MOL0     C36405   9.309   7.281   0.513 -0.5578  0.1282 -1.1422
 1011MOL0     C36406   9.445   7.294   0.555 -0.2988 -0.8973 -0.1218
 1011MOL0     C36407   9.490   7.265   0.686 -0.3066 -0.2816 -0.6779
 1011MOL0     C36408   9.402   7.207   0.773  0.2992 -0.4335  1.1554
 1011MOL0     O36409   9.460   7.176   0.888 -0.2007  0.2828  0.0774
 1011MOL0     C36410   9.380   7.116   0.991  0.0913 -0.2250 -0.4983
 1011MOL0     C36411   9.336   7.225   1.085 -0.2551  0.6056 -0.3152
 1011MOL0     C36412   9.453   7.293   1.174  0.0833 -0.0939 -0.4493
 1011MOL0     C36413   9.389   7.369   1.297 -0.3427 -0.2928  1.0257
 1011MOL0     C36414   9.320   7.268   1.382 -0.1061 -0.2185  0.0613
 1011MOL0     C36415   9.269   7.188   1.454  0.6552  0.3036  0.1775
 1011MOL0     C36416   9.271   7.188   0.734  0.1253  0.7076 -0.5818
 1011MOL0     C36417   9.225   7.229   0.610  0.9482  0.4582 -0.4686
 1011MOL0     H36418   8.894   7.349   0.359 -0.6537  1.8954 -0.2987
 1011MOL0     H36419   8.749   7.420   0.163 -0.2066  0.2200  0.7327
 1011MOL0     H36420   8.676   7.263  -0.054  1.2056 -0.3025 -0.5496
 1011MOL0     H36421   8.630   7.443  -0.034  1.9779 -0.4269  1.3922
 1011MOL0     H36422   8.653   7.427  -0.307 -0.6830  0.2296  0.4918
 1011MOL0     H36423   8.643   7.258  -0.263 -2.3952 -0.9834 -0.4874
 1011MOL0     H36424   8.434   7.270  -0.139  0.1220  0.5585  0.6352
 1011MOL0     H36425   8.410   7.442  -0.154 -1.4487 -0.3162 -0.0939
 1011MOL0     H36426   8.397   7.443  -0.395 -1.2022 -1.1721 -4.0846
 1011MOL0     H36427   8.417   7.262  -0.389  0.6773  0.5028  1.5298
 1011MOL0     H36428   8.181   7.396  -0.266  1.4184  1.1768 -2.2056
 1011MOL0     H36429   8.183   7.332  -0.429  1.7664 -0.7440 -1.4574
 1011MOL0     H36430   8.273   7.119  -0.311  1.2122  1.6440 -0.1461
 1011MOL0     H36431   8.213   7.189  -0.168  3.4238  2.5049 -0.5387
 1011MOL0     H36432   7.993   7.213  -0.273  1.7692  0.5750  2.4317
 1011MOL0     H36433   8.048   7.104  -0.409 -1.9532 -1.0034  0.8263
 1011MOL0     H36434   8.062   7.031  -0.111 -3.8933  1.0027  0.9023
 1011MOL0     H36435   8.100   6.921  -0.252 -3.0294 -1.7967 -1.2553
 1011MOL0     H36436   7.844   6.789  -0.336 -2.7601  2.4380 -4.3649
 1011MOL0     H36437   7.602   6.708  -0.297 -2.1023 -0.7041 -0.1311
 1011MOL0     H36438   7.537   6.761  -0.137  0.4831  1.0016  0.8131
 1011MOL0     H36439   7.444   6.968  -0.252 -1.6030  1.3949 -1.4039
 1011MOL0     H36440   7.360   6.827  -0.292 -0.3082 -0.1354  0.5835
 1011MOL0     H36441   7.574   6.951  -0.470  0.6467  0.1206  1.5955
 1011MOL0     H36442   7.414   7.005  -0.471  0.0699 -0.5028 -0.4475
 1011MOL0     H36443   7.479   6.831  -0.651 -1.3794  0.5617 -0.0813
 1011MOL0     H36444   7.324   6.817  -0.569 -1.0002 -1.4194 -1.3238
 1011MOL0     H36445   7.490   6.505  -0.724 -1.4507  1.2943 -1.6630
 1011MOL0     H36446   7.287   6.208  -0.809  0.0494  0.4382  0.3106
 1011MOL0     H36447   7.347   6.361  -0.881  0.1018  0.0509  0.4664
 1011MOL0     H36448   7.449   6.268  -0.766  0.2052  1.0174  2.2416
 1011MOL0     H36449   6.800   6.166  -0.539 -1.5085  2.6147  0.1045
 1011MOL0     H36450   6.613   6.044  -0.668  1.2736  2.3419  3.6817
 1011MOL0     H36451   6.382   6.294  -0.880 -0.9336 -0.7736 -0.5811
 1011MOL0     H36452   6.493   6.288  -1.032  4.6657  1.8258  3.2467
 1011MOL0     H36453   6.351   6.093  -1.085 -1.0145 -1.6811  0.7237
 1011MOL0     H36454   6.268   6.114  -0.937  1.2815  0.3420 -0.1207
 1011MOL0     H36455   6.256   6.294  -1.184 -0.3120  1.6486  0.5798
 1011MOL0     H36456   6.217   6.354  -1.023  2.2400 -1.2383  0.8868
 1011MOL0     H36457   6.097   6.090  -1.131  0.9554 -0.3438 -1.0976
 1011MOL0     H36458   6.038   6.203  -1.002  1.0353  0.9475  0.6820
 1011MOL0     H36459   6.066   6.267  -1.291  0.0841 -0.4016 -0.2018
 1011MOL0     H36460   5.989   6.376  -1.172  1.0614 -0.1566 -1.8850
 1011MOL0     H36461   5.811   6.279  -1.304 -0.3032  0.7850 -0.0785
 1011MOL0     H36462   5.860   6.117  -1.287 -1.6978  1.1974 -0.9620
 1011MOL0     H36463   5.780   6.288  -1.035  0.6298  0.9050 -0.3403
 1011MOL0     H36464   5.856   6.137  -1.026  0.3664 -1.6491 -1.3228
 1011MOL0     H36465   5.606   6.096  -1.027  2.5847 -4.1839 -0.0664
 1011MOL0     H36466   5.662   6.034  -1.173  0.7923  1.3054 -2.1049
 1011MOL0     H36467   6.669   6.354  -0.972 -0.3953  0.4084  0.3439
 1011MOL0     H36468   6.861   6.423  -0.866 -0.2843  0.0560  0.9072
 1011MOL0     H36469   7.087   6.476  -0.441  0.6803 -1.1347  0.1381
 1011MOL0     H36470   7.261   6.637  -0.384  2.1139  0.9559 -0.5190
 1011MOL0     H36471   9.076   7.350  -0.102  0.2569 -0.8481 -0.4754
 1011MOL0     H36472   9.217   7.288   0.092  0.0880  1.1780  3.7347
 1011MOL0     H36473   9.523   7.336   0.492 -1.6583 -3.3956 -3.7746
 1011MOL0     H36474   9.588   7.278   0.730 -0.0013 -2.0417 -0.7806
 1011MOL0     H36475   9.290   7.060   0.963 -0.4818  1.2111 -1.6977
 1011MOL0     H36476   9.447   7.043   1.036 -1.2583  0.2995  2.6040
 1011MOL0     H36477   9.271   7.172   1.155  0.5132  1.2230  0.8989
 1011MOL0     H36478   9.275   7.301   1.035  0.3027  1.3121  0.0502
 1011MOL0     H36479   9.514   7.363   1.118 -1.1916  1.8855  0.5335
 1011MOL0     H36480   9.515   7.209   1.207  3.1851  1.6462 -1.5175
 1011MOL0     H36481   9.316   7.438   1.253 -1.2722 -2.6914 -1.5045
 1011MOL0     H36482   9.473   7.417   1.349  2.0185  0.2369 -2.7889
 1011MOL0     H36483   9.224   7.138   1.537 -1.2870  2.4982  0.5623
 1011MOL0     H36484   9.193   7.149   0.799 -1.2020  1.8627 -1.4065
 1011MOL0     H36485   9.122   7.199   0.595  1.9503 -1.9789 -3.6338
 1012MOL0     O36486   3.733   0.875   1.491 -0.7082 -0.0071  0.7824
 1012MOL0     C36487   3.651   0.908   1.402  0.1542 -0.9067  0.0684
 1012MOL0     O36488   3.515   0.929   1.426  0.9783 -0.8744  0.3686
 1012MOL0     C36489   3.471   0.911   1.558  0.2864 -0.8178  0.1740
 1012MOL0     C36490   3.370   1.004   1.609 -0.4212  0.4129 -0.0372
 1012MOL0     C36491   3.329   0.985   1.743 -0.0573  0.0001 -0.2223
 1012MOL0     C36492   3.391   0.895   1.829  0.4734  0.4601 -0.1560
 1012MOL0     O36493   3.355   0.893   1.962  0.3797 -0.2231  0.4427
 1012MOL0     C36494   3.367   0.773   2.035 -0.3770 -0.0315 -0.1054
 1012MOL0     C36495   3.287   0.782   2.168  0.8649  0.2356  0.8357
 1012MOL0     C36496   3.349   0.882   2.257 -0.7487 -0.3951  0.4574
 1012MOL0     C36497   3.265   0.941   2.360  0.3893 -0.1929 -0.5874
 1012MOL0     C36498   3.334   1.059   2.417 -0.1664 -0.7238 -0.0549
 1012MOL0     C36499   3.278   1.096   2.552 -0.1836  0.0523  0.3260
 1012MOL0     C36500   3.349   1.229   2.597 -0.1087 -0.7443 -0.4012
 1012MOL0     C36501   3.364   1.243   2.754 -0.0901 -0.0369 -0.5190
 1012MOL0     N36502   3.451   1.150   2.820  0.6073 -0.0523 -0.1033
 1012MOL0     C36503   3.589   1.169   2.815 -0.2789  0.0514 -0.4249
 1012MOL0     C36504   3.633   1.080   2.905 -0.4089  1.3600 -0.2520
 1012MOL0     C36505   3.782   1.042   2.918  0.0619 -0.1988  0.7462
 1012MOL0     C36506   3.880   1.118   2.826  0.2819 -0.5636 -0.4328
 1012MOL0     C36507   4.022   1.047   2.839  0.2514  0.3552  0.1664
 1012MOL0     C36508   4.119   1.106   2.737  0.1344 -0.6278 -0.7866
 1012MOL0     O36509   4.150   1.250   2.773 -0.0061 -0.6745 -0.2394
 1012MOL0     C36510   4.276   1.300   2.726 -0.4604  0.8761  0.2595
 1012MOL0     C36511   4.330   1.264   2.601  0.2783 -0.1357  0.4425
 1012MOL0     C36512   4.448   1.304   2.550 -0.3762 -0.4661 -0.7693
 1012MOL0     C36513   4.492   1.268   2.412 -0.4932 -0.0831  0.5285
 1012MOL0     C36514   4.530   1.386   2.634  0.5884  0.1671  0.3122
 1012MOL0     C36515   4.675   1.428   2.605  0.0517 -1.0502  0.7388
 1012MOL0     O36516   4.719   1.535   2.682  0.6773  0.2598  0.5478
 1012MOL0     C36517   4.840   1.591   2.657 -0.0169  0.9581 -0.6054
 1012MOL0     C36518   4.860   1.730   2.688  0.3798  0.5364  0.4664
 1012MOL0     C36519   4.984   1.782   2.669 -0.9433  0.1209  0.0532
 1012MOL0     C36520   5.100   1.711   2.647  0.5294  0.2488 -0.5543
 1012MOL0     O36521   5.223   1.783   2.652  0.3011  1.0735  0.4209
 1012MOL0     C36522   5.343   1.712   2.633  0.0982 -0.2815  0.0305
 1012MOL0     C36523   5.459   1.811   2.647  0.8790  0.5161  0.3248
 1012MOL0     C36524   5.458   1.894   2.518  0.4746  0.2929  0.5497
 1012MOL0     C36525   5.575   1.997   2.513 -0.9921 -0.3490 -0.5601
 1012MOL0     C36526   5.562   2.100   2.622  0.0740 -0.0747  0.1286
 1012MOL0     C36527   5.681   2.198   2.614 -0.3856 -0.1065  0.0425
 1012MOL0     C36528   5.660   2.331   2.686 -0.1287  0.4217 -0.1598
 1012MOL0     C36529   5.773   2.420   2.671  0.5820 -0.6591  0.1066
 1012MOL0    Cl36530   5.778   2.565   2.759 -0.1896 -0.1784 -0.1781
 1012MOL0     C36531   5.086   1.572   2.625 -0.4129 -0.6017  0.2302
 1012MOL0     C36532   4.958   1.514   2.635 -0.8621  0.0261  0.8977
 1012MOL0     O36533   4.735   1.372   2.518 -0.2727  0.9246  0.0648
 1012MOL0     C36534   4.472   1.425   2.759  1.0734  0.7527 -0.2021
 1012MOL0     C36535   4.336   1.391   2.797 -0.0076  0.2218 -0.2835
 1012MOL0     N36536   3.527   1.007   2.949  0.4604  0.1765  0.0305
 1012MOL0     N36537   3.418   1.052   2.900 -0.2743 -0.7030  0.1434
 1012MOL0     C36538   3.465   0.791   1.769  0.6098  0.3251  0.7271
 1012MOL0     C36539   3.502   0.801   1.636  0.2865  0.1994 -0.6101
 1012MOL0     C36540   3.704   0.940   1.267 -0.1294  0.3910  0.0814
 1012MOL0     C36541   3.627   0.900   1.160  0.0409  0.1635  0.3984
 1012MOL0     C36542   3.681   0.914   1.029 -0.4395  0.4136 -0.0779
 1012MOL0     C36543   3.813   0.960   1.009 -0.2857 -0.2900 -1.0652
 1012MOL0     O36544   3.871   0.983   0.886  0.2892 -0.5679 -0.0615
 1012MOL0     C36545   3.809   0.951   0.763 -0.5608  0.1397  0.2230
 1012MOL0     C36546   3.868   0.822   0.698 -0.3281  0.0245 -0.5799
 1012MOL0     C36547   3.808   0.788   0.558  0.1387 -0.0792 -0.3461
 1012MOL0     C36548   3.869   0.658   0.511  0.0251  0.2591 -0.6708
 1012MOL0     C36549   4.012   0.661   0.483 -0.5049 -0.0160 -1.2988
 1012MOL0     C36550   4.128   0.658   0.449  0.9914  0.5162 -0.1212
 1012MOL0     C36551   3.888   0.997   1.121  0.9470 -0.6413  0.2435
 1012MOL0     C36552   3.839   0.988   1.252 -0.2578  0.3937  0.5885
 1012MOL0     H36553   3.330   1.091   1.557 -1.4887  2.1651  3.4067
 1012MOL0     H36554   3.257   1.059   1.777 -1.4074 -0.9560 -0.8770
 1012MOL0     H36555   3.326   0.685   1.986 -0.0564  0.4354 -1.2473
 1012MOL0     H36556   3.475   0.765   2.054 -0.6752  0.9774  2.4819
 1012MOL0     H36557   3.181   0.797   2.149  1.0262 -0.4147 -0.7976
 1012MOL0     H36558   3.294   0.680   2.207  1.4152 -0.5924 -1.2911
 1012MOL0     H36559   3.437   0.848   2.313 -0.1286  2.2241  1.1913
 1012MOL0     H36560   3.389   0.961   2.192 -0.2854 -0.3223  0.8277
 1012MOL0     H36561   3.162   0.966   2.335  0.4116  0.9374  0.3360
 1012MOL0     H36562   3.256   0.864   2.438  0.2747  0.0400 -0.3663
 1012MOL0     H36563   3.441   1.041   2.432 -0.1471 -1.3769 -0.9210
 1012MOL0     H36564   3.331   1.149   2.355 -1.9758  0.5126  1.7014
 1012MOL0     H36565   3.170   1.111   2.543  0.2178  2.4688 -1.6373
 1012MOL0     H36566   3.293   1.013   2.621  0.9395 -2.0844 -2.3057
 1012MOL0     H36567   3.446   1.235   2.547 -0.6952 -0.1581 -1.5011
 1012MOL0     H36568   3.286   1.310   2.560  0.6728  0.3269  0.5661
 1012MOL0     H36569   3.263   1.230   2.794  0.1297 -0.3458 -0.0525
 1012MOL0     H36570   3.401   1.344   2.773  1.1620 -0.3111 -1.3578
 1012MOL0     H36571   3.648   1.239   2.758 -1.4282  1.5442  0.1490
 1012MOL0     H36572   3.817   1.049   3.021  2.8094  0.9699 -0.1901
 1012MOL0     H36573   3.800   0.937   2.892  0.0243  0.4903 -2.3988
 1012MOL0     H36574   3.891   1.225   2.845  1.1090 -0.7397  0.1483
 1012MOL0     H36575   3.857   1.108   2.719 -3.9472  1.4432  0.1333
 1012MOL0     H36576   4.009   0.939   2.827 -0.3553  0.3833  0.5313
 1012MOL0     H36577   4.062   1.047   2.941  0.6473 -5.4402  0.3407
 1012MOL0     H36578   4.089   1.103   2.632  1.1246  0.9960 -1.1541
 1012MOL0     H36579   4.202   1.036   2.750 -0.2673 -0.5855  3.6295
 1012MOL0     H36580   4.277   1.200   2.531  0.3289  0.5320 -0.2137
 1012MOL0     H36581   4.504   1.360   2.354  3.8240 -0.9445 -0.2869
 1012MOL0     H36582   4.590   1.221   2.414 -0.3204  0.2835  1.2404
 1012MOL0     H36583   4.429   1.204   2.350  0.5419  0.7689 -1.4721
 1012MOL0     H36584   4.780   1.793   2.727  0.1346  1.7548 -1.8795
 1012MOL0     H36585   4.999   1.882   2.710  2.1357 -0.9786  1.9852
 1012MOL0     H36586   5.349   1.645   2.719  1.3120 -0.4943 -0.2044
 1012MOL0     H36587   5.335   1.654   2.540  0.4734  0.1647 -0.2801
 1012MOL0     H36588   5.438   1.859   2.743 -1.4458 -1.3728  0.8495
 1012MOL0     H36589   5.551   1.751   2.651 -0.5442 -1.7229  1.3417
 1012MOL0     H36590   5.361   1.943   2.507  1.5991  2.6565  0.5412
 1012MOL0     H36591   5.490   1.831   2.434  1.7608 -1.2970  2.1551
 1012MOL0     H36592   5.670   1.943   2.526 -1.9160 -1.6578  1.1523
 1012MOL0     H36593   5.580   2.046   2.416  1.4053  0.4907 -0.0748
 1012MOL0     H36594   5.574   2.048   2.718  1.8585 -0.8628 -0.4925
 1012MOL0     H36595   5.470   2.160   2.618  0.0674  0.0865  1.8535
 1012MOL0     H36596   5.764   2.138   2.651  1.2227  2.2015  0.3748
 1012MOL0     H36597   5.698   2.215   2.507 -2.1861  1.2573 -0.0842
 1012MOL0     H36598   5.657   2.310   2.793  1.0119 -0.1239 -0.2112
 1012MOL0     H36599   5.566   2.378   2.655 -0.6879  0.1780  1.1232
 1012MOL0     H36600   5.773   2.443   2.564 -5.6035 -2.9900 -0.8690
 1012MOL0     H36601   5.862   2.366   2.703 -0.7547 -1.9516  1.9132
 1012MOL0     H36602   5.168   1.501   2.614 -1.5299 -2.3297  2.3117
 1012MOL0     H36603   4.948   1.406   2.629  0.7319 -0.0618 -0.9594
 1012MOL0     H36604   4.539   1.477   2.826  1.2014  2.7761 -1.8110
 1012MOL0     H36605   4.290   1.428   2.888  1.5036  1.2465  0.1052
 1012MOL0     H36606   3.512   0.716   1.832 -0.5584  1.6168  3.2770
 1012MOL0     H36607   3.571   0.724   1.605 -1.7320 -2.5994  1.3092
 1012MOL0     H36608   3.525   0.864   1.171 -1.4837  3.1871 -2.0890
 1012MOL0     H36609   3.624   0.885   0.941 -1.6903 -0.4277  0.9564
 1012MOL0     H36610   3.699   0.946   0.757 -0.5497 -1.4462  0.8970
 1012MOL0     H36611   3.831   1.039   0.701  0.5440  0.8992  1.6355
 1012MOL0     H36612   3.855   0.738   0.767  4.4588 -0.5568 -0.0416
 1012MOL0     H36613   3.976   0.832   0.684 -0.3446 -0.1594 -0.8527
 1012MOL0     H36614   3.814   0.875   0.493 -2.2305 -0.5080 -1.2368
 1012MOL0     H36615   3.702   0.769   0.575  0.5204 -0.6497  1.7050
 1012MOL0     H36616   3.807   0.612   0.433 -1.6952 -1.4346  1.5765
 1012MOL0     H36617   3.853   0.578   0.584 -0.9336  0.8056 -0.2617
 1012MOL0     H36618   4.223   0.628   0.408  0.4897 -1.0322 -0.2303
 1012MOL0     H36619   3.990   1.033   1.114  1.0158  0.4347  4.3228
 1012MOL0     H36620   3.888   1.020   1.343 -3.4969  0.8118  2.3466
 1013MOL0     O36621   6.963   3.797   4.703 -0.4479  0.1541  0.1643
 1013MOL0     C36622   6.954   3.917   4.723 -0.6538  0.2403  0.6319
 1013MOL0     O36623   7.056   4.008   4.697  0.0452  0.1186  0.4987
 1013MOL0     C36624   7.155   3.967   4.611 -0.3806  1.1103  0.5764
 1013MOL0     C36625   7.245   3.872   4.661  0.0688  0.0779  0.0189
 1013MOL0     C36626   7.342   3.816   4.572 -0.3302  0.4565  0.1149
 1013MOL0     C36627   7.359   3.870   4.445 -0.2314 -0.3190  0.0764
 1013MOL0     O36628   7.461   3.846   4.356 -0.0023 -0.5692 -0.1821
 1013MOL0     C36629   7.470   3.710   4.310  1.5269  0.3258  0.1336
 1013MOL0     C36630   7.537   3.697   4.177  1.0496  0.2877  0.0107
 1013MOL0     C36631   7.539   3.549   4.146  0.1085  0.7267  0.2169
 1013MOL0     C36632   7.565   3.512   3.997 -0.0035  1.1725 -0.1281
 1013MOL0     C36633   7.600   3.363   3.968 -0.8400  0.8365  0.1334
 1013MOL0     C36634   7.547   3.251   4.062 -0.2653 -0.0203  0.2847
 1013MOL0     C36635   7.594   3.116   4.004  0.1576 -0.0700  0.4660
 1013MOL0     C36636   7.535   2.992   4.077  0.4906 -0.2725  0.2622
 1013MOL0     N36637   7.611   2.863   4.060  0.2383 -0.2833  1.0522
 1013MOL0     C36638   7.574   2.765   3.965 -0.6548 -0.3621  0.2080
 1013MOL0     C36639   7.660   2.662   4.005 -0.3715 -1.0106  0.3346
 1013MOL0     C36640   7.666   2.529   3.959  1.5456  0.7984  0.3022
 1013MOL0     C36641   7.532   2.481   3.883 -0.5997  0.6409  0.4698
 1013MOL0     C36642   7.539   2.529   3.738 -0.1701 -0.6089 -0.6678
 1013MOL0     C36643   7.411   2.527   3.662  0.3332  0.5694 -0.9540
 1013MOL0     O36644   7.312   2.623   3.699 -0.0207 -0.0661  0.1681
 1013MOL0     C36645   7.323   2.754   3.691  0.2976 -0.0256 -0.8654
 1013MOL0     C36646   7.405   2.821   3.600 -0.4620  0.1102 -0.0658
 1013MOL0     C36647   7.421   2.965   3.601  0.2390  0.0835 -0.1229
 1013MOL0     C36648   7.527   3.025   3.499  0.2410 -0.1548 -0.3444
 1013MOL0     C36649   7.342   3.040   3.686 -0.3552  0.0061  0.2495
 1013MOL0     C36650   7.326   3.185   3.701 -1.0154 -0.1608  0.2442
 1013MOL0     O36651   7.312   3.262   3.583 -0.6416  0.0731 -0.5347
 1013MOL0     C36652   7.262   3.390   3.585  0.0788  0.6058 -1.1508
 1013MOL0     C36653   7.148   3.418   3.506  0.4421  0.0639 -1.1052
 1013MOL0     C36654   7.098   3.548   3.511 -0.1765 -0.0744  0.0828
 1013MOL0     C36655   7.155   3.646   3.586 -0.8867 -0.2341 -0.3305
 1013MOL0     O36656   7.103   3.766   3.616 -0.6279 -0.7343  0.4376
 1013MOL0     C36657   6.967   3.756   3.645  0.5353  0.3704  0.7033
 1013MOL0     C36658   6.919   3.866   3.736 -1.4095  1.3063 -0.3261
 1013MOL0     C36659   6.915   4.006   3.668 -0.5855  1.0964  1.2800
 1013MOL0     C36660   6.862   4.097   3.778 -0.4093 -0.2675  0.9583
 1013MOL0     C36661   6.871   4.247   3.742 -0.7228 -0.3002 -0.1992
 1013MOL0     C36662   6.796   4.301   3.613  0.1239 -0.3816 -0.1843
 1013MOL0     C36663   6.641   4.273   3.608  0.5799  0.2103  0.0373
 1013MOL0     C36664   6.578   4.375   3.697 -0.5279 -0.5076 -0.3614
 1013MOL0    Cl36665   6.408   4.376   3.671  0.1800 -0.2387  0.2012
 1013MOL0     C36666   7.269   3.619   3.658 -0.2695  0.0747  0.2029
 1013MOL0     C36667   7.328   3.489   3.651  0.6827 -0.7856 -0.2516
 1013MOL0     O36668   7.308   3.232   3.814 -0.5217 -0.2900  0.0965
 1013MOL0     C36669   7.242   2.977   3.765  0.0826 -0.2023  0.3722
 1013MOL0     C36670   7.244   2.838   3.780  0.1208  0.4086 -0.1640
 1013MOL0     N36671   7.737   2.704   4.106 -0.3851 -0.5268  0.8296
 1013MOL0     N36672   7.702   2.822   4.144  0.7083 -0.2307  0.2377
 1013MOL0     C36673   7.270   3.963   4.394  0.3970 -1.0759 -1.2218
 1013MOL0     C36674   7.169   4.012   4.479  0.6766  1.0149  0.5662
 1013MOL0     C36675   6.829   3.967   4.788  0.4727 -0.2646 -0.7903
 1013MOL0     C36676   6.822   4.100   4.838  0.7943  0.0603 -0.5198
 1013MOL0     C36677   6.709   4.149   4.906  0.9763  0.3292 -0.2765
 1013MOL0     C36678   6.604   4.062   4.944 -0.7804 -0.7566  0.5144
 1013MOL0     O36679   6.512   4.114   5.037 -0.1991  0.8989 -0.6881
 1013MOL0     C36680   6.449   4.014   5.124 -0.6751  0.1767  0.3925
 1013MOL0     C36681   6.552   3.929   5.201 -0.3728  0.4046  0.3861
 1013MOL0     C36682   6.672   4.002   5.245  0.9321 -0.2289 -0.1379
 1013MOL0     C36683   6.649   4.151   5.298 -1.0900  0.1880 -0.0899
 1013MOL0     C36684   6.774   4.213   5.361  0.8635  0.0593  0.2930
 1013MOL0     C36685   6.872   4.269   5.392  0.5959 -1.2654  0.3347
 1013MOL0     C36686   6.608   3.931   4.885 -0.0704 -0.4662  0.3448
 1013MOL0     C36687   6.717   3.882   4.811 -0.7092 -0.2497 -0.7109
 1013MOL0     H36688   7.233   3.833   4.761 -1.7818 -2.5326 -1.1096
 1013MOL0     H36689   7.422   3.748   4.599  0.7004  1.2123 -0.9352
 1013MOL0     H36690   7.509   3.652   4.394 -0.1536 -1.3198 -0.1739
 1013MOL0     H36691   7.369   3.685   4.279  0.3391  0.9800  3.1328
 1013MOL0     H36692   7.483   3.751   4.099 -0.3505  0.7872  1.2722
 1013MOL0     H36693   7.641   3.731   4.181  1.5354 -1.0609 -0.8495
 1013MOL0     H36694   7.610   3.496   4.210  1.1192  2.1864  0.3350
 1013MOL0     H36695   7.447   3.501   4.181  0.0425 -0.5846 -1.6256
 1013MOL0     H36696   7.471   3.535   3.946 -1.2295 -2.9514 -0.1028
 1013MOL0     H36697   7.651   3.576   3.975 -0.0204  1.0467 -0.5787
 1013MOL0     H36698   7.572   3.353   3.863  0.6153 -1.4727 -0.1190
 1013MOL0     H36699   7.708   3.347   3.977 -1.2368 -1.0307  3.1954
 1013MOL0     H36700   7.591   3.262   4.162  0.4389  0.0973 -0.0387
 1013MOL0     H36701   7.438   3.264   4.061 -0.2331  0.2249 -1.0015
 1013MOL0     H36702   7.561   3.115   3.900 -1.5552  0.9434  0.9631
 1013MOL0     H36703   7.702   3.125   4.016  0.1333  1.9984 -0.4403
 1013MOL0     H36704   7.435   2.986   4.032  1.2095 -0.0840 -1.4366
 1013MOL0     H36705   7.520   2.997   4.185 -0.8278  3.4702  0.0280
 1013MOL0     H36706   7.490   2.770   3.897 -0.5128  1.8459  0.1308
 1013MOL0     H36707   7.748   2.526   3.887  1.2897  0.5203  0.0217
 1013MOL0     H36708   7.689   2.460   4.040  2.4013  1.1484  0.3649
 1013MOL0     H36709   7.452   2.526   3.943 -0.3362  1.9004 -0.0790
 1013MOL0     H36710   7.507   2.375   3.885  0.4362  0.3916  0.7798
 1013MOL0     H36711   7.619   2.477   3.685 -1.4261 -1.4473 -1.7807
 1013MOL0     H36712   7.566   2.635   3.746  2.5716 -1.0720 -2.4752
 1013MOL0     H36713   7.353   2.435   3.654  0.0268  0.4650  1.5765
 1013MOL0     H36714   7.432   2.540   3.555  2.5002 -2.4477 -1.0296
 1013MOL0     H36715   7.479   2.771   3.539  1.3106  2.4227  0.0290
 1013MOL0     H36716   7.507   2.982   3.400  1.4692 -0.6255 -0.4008
 1013MOL0     H36717   7.525   3.133   3.485  0.3245 -0.3122 -1.7879
 1013MOL0     H36718   7.628   2.997   3.529 -0.0257  0.9886  1.8416
 1013MOL0     H36719   7.091   3.343   3.452 -1.6800  0.1138  0.8860
 1013MOL0     H36720   7.020   3.583   3.443  0.7764  2.1690  0.0512
 1013MOL0     H36721   6.919   3.758   3.546 -3.0137  2.2931  2.2777
 1013MOL0     H36722   6.947   3.658   3.688  0.3803 -0.0941 -0.3745
 1013MOL0     H36723   6.824   3.837   3.781 -0.4339  0.4650  1.2747
 1013MOL0     H36724   7.002   3.867   3.807 -1.0834  1.7792 -0.7024
 1013MOL0     H36725   6.841   4.007   3.587 -0.4006 -1.0473  1.0288
 1013MOL0     H36726   7.011   4.042   3.632 -0.1033 -1.2046  0.0272
 1013MOL0     H36727   6.759   4.068   3.801  0.0517 -1.2818  1.8576
 1013MOL0     H36728   6.914   4.071   3.871 -3.0697 -0.1377  2.5812
 1013MOL0     H36729   6.971   4.291   3.736 -1.6833  2.0996  0.2401
 1013MOL0     H36730   6.832   4.302   3.828 -1.9044 -1.2929 -0.0827
 1013MOL0     H36731   6.823   4.407   3.608 -2.5260  0.3763  0.0572
 1013MOL0     H36732   6.840   4.257   3.523 -1.8646  0.1432 -1.4914
 1013MOL0     H36733   6.622   4.172   3.646  1.1930 -0.3970 -1.2086
 1013MOL0     H36734   6.592   4.274   3.511 -3.7348 -1.1074  1.9690
 1013MOL0     H36735   6.615   4.477   3.679 -0.2585 -0.4114  0.6495
 1013MOL0     H36736   6.599   4.354   3.802  2.0261  0.0573 -0.7044
 1013MOL0     H36737   7.303   3.704   3.716 -1.0910  0.7877 -0.3392
 1013MOL0     H36738   7.416   3.457   3.706  2.3616  2.6138 -0.6847
 1013MOL0     H36739   7.169   3.013   3.836  0.2186 -3.7821  2.5674
 1013MOL0     H36740   7.178   2.775   3.840 -1.4089  4.7839  3.3067
 1013MOL0     H36741   7.286   4.007   4.296  0.8849 -1.4492 -1.3137
 1013MOL0     H36742   7.098   4.083   4.439  2.4543  2.1647 -0.7172
 1013MOL0     H36743   6.897   4.174   4.814 -0.0239  1.0160 -0.1933
 1013MOL0     H36744   6.713   4.250   4.945  1.8555 -0.4974  1.9329
 1013MOL0     H36745   6.394   4.061   5.206 -2.2374  1.2245 -1.2135
 1013MOL0     H36746   6.378   3.954   5.067 -1.4267  0.2775  1.2028
 1013MOL0     H36747   6.587   3.837   5.153  1.9359  2.3091 -1.8416
 1013MOL0     H36748   6.500   3.881   5.285 -0.8658  1.1876  0.5432
 1013MOL0     H36749   6.745   4.020   5.165  1.2961  3.3198  0.8224
 1013MOL0     H36750   6.721   3.951   5.328 -2.0530  0.6528  2.3490
 1013MOL0     H36751   6.565   4.155   5.368 -1.4437 -2.2303 -0.2661
 1013MOL0     H36752   6.621   4.223   5.221 -1.0072  2.0244  1.5203
 1013MOL0     H36753   6.967   4.305   5.428  1.1292 -0.6357 -1.6124
 1013MOL0     H36754   6.522   3.866   4.893 -0.8874  0.6837  1.3262
 1013MOL0     H36755   6.728   3.776   4.793  4.3957  0.1124 -0.9542
 1014MOL0     O36756   8.706   2.419   0.472  0.2735 -0.2040  0.7397
 1014MOL0     C36757   8.673   2.404   0.587  0.1667 -0.8938 -0.6080
 1014MOL0     O36758   8.548   2.391   0.633  0.4466  0.3335 -0.2343
 1014MOL0     C36759   8.429   2.381   0.567  0.3485  0.7428  0.3982
 1014MOL0     C36760   8.421   2.330   0.431  0.0058  0.6637 -0.5433
 1014MOL0     C36761   8.297   2.312   0.377 -0.5850  1.0079  0.3193
 1014MOL0     C36762   8.176   2.355   0.450  0.0221 -0.3815 -0.8996
 1014MOL0     O36763   8.054   2.334   0.392 -0.1555 -0.5284  0.3326
 1014MOL0     C36764   7.969   2.234   0.463 -0.9279  0.8986  0.1424
 1014MOL0     C36765   7.864   2.170   0.379  0.3801 -0.1501 -0.9724
 1014MOL0     C36766   7.920   2.075   0.283 -0.1547 -0.3057 -0.1420
 1014MOL0     C36767   7.816   2.046   0.181 -0.4990  0.5265 -0.2776
 1014MOL0     C36768   7.873   1.940   0.089  0.8388 -0.4570  0.3618
 1014MOL0     C36769   7.877   1.795   0.130  0.5401  0.2444  0.2020
 1014MOL0     C36770   7.870   1.700   0.003  0.0993 -0.6148 -1.1471
 1014MOL0     C36771   7.959   1.737  -0.107 -0.4148  1.1147  0.0296
 1014MOL0     N36772   7.945   1.633  -0.210  0.0820  0.8353 -0.3712
 1014MOL0     C36773   7.818   1.575  -0.254  0.4289  1.3575  0.2929
 1014MOL0     C36774   7.861   1.475  -0.340  0.5729 -0.5896  0.7740
 1014MOL0     C36775   7.781   1.371  -0.417 -0.3165 -0.1018 -0.4269
 1014MOL0     C36776   7.761   1.262  -0.304  0.1330  0.1377 -0.0093
 1014MOL0     C36777   7.730   1.125  -0.363  0.2937 -0.1024  0.8593
 1014MOL0     C36778   7.701   1.016  -0.247  0.2228  0.1042  0.4504
 1014MOL0     O36779   7.609   1.041  -0.137  0.1737  0.3717  0.0410
 1014MOL0     C36780   7.481   0.997  -0.159  0.5830 -0.1300 -0.9041
 1014MOL0     C36781   7.388   1.082  -0.217 -0.3500 -0.1159  0.2644
 1014MOL0     C36782   7.253   1.040  -0.219 -0.7946 -0.3557  0.1748
 1014MOL0     C36783   7.155   1.133  -0.284  0.1369 -0.5420 -0.5783
 1014MOL0     C36784   7.217   0.908  -0.176  0.0713 -0.6518 -0.8744
 1014MOL0     C36785   7.083   0.843  -0.194 -0.7334 -0.5255 -0.0144
 1014MOL0     O36786   7.059   0.746  -0.107 -0.4157 -0.3810  0.0365
 1014MOL0     C36787   6.931   0.708  -0.086  0.2435 -0.0745  0.4019
 1014MOL0     C36788   6.848   0.786  -0.003  1.3532 -0.3251  0.8903
 1014MOL0     C36789   6.723   0.742   0.046  0.1968  0.0227  0.2554
 1014MOL0     C36790   6.682   0.612   0.005  0.1726  0.4743 -0.1979
 1014MOL0     O36791   6.552   0.587   0.046  0.1811 -0.7191 -0.4933
 1014MOL0     C36792   6.523   0.449   0.078 -0.1254  0.1691  0.5285
 1014MOL0     C36793   6.499   0.431   0.225 -0.2913 -0.3790 -0.1468
 1014MOL0     C36794   6.436   0.303   0.282 -0.2144 -0.9389 -0.0431
 1014MOL0     C36795   6.421   0.289   0.430 -0.1583  0.2608 -0.1090
 1014MOL0     C36796   6.393   0.143   0.476  0.4801 -0.5418  0.3936
 1014MOL0     C36797   6.333   0.133   0.611  0.3113 -0.7292 -0.0130
 1014MOL0     C36798   6.313  -0.016   0.639 -0.4737 -1.0898 -1.0262
 1014MOL0     C36799   6.190  -0.039   0.743  0.4312 -0.3446 -0.8400
 1014MOL0    Cl36800   6.228   0.004   0.915  0.3351 -0.2749  0.2608
 1014MOL0     C36801   6.764   0.540  -0.089  0.2105  0.7990  0.7659
 1014MOL0     C36802   6.891   0.577  -0.120 -0.4308 -0.4532 -0.5725
 1014MOL0     O36803   7.013   0.869  -0.292 -0.6958 -0.2042 -0.3986
 1014MOL0     C36804   7.315   0.827  -0.112 -0.3762 -0.1737  0.2057
 1014MOL0     C36805   7.445   0.874  -0.103 -0.0388 -0.4890 -1.0194
 1014MOL0     N36806   8.000   1.480  -0.352 -0.1837  0.3873 -0.6802
 1014MOL0     N36807   8.045   1.568  -0.260 -0.1101  0.3830 -0.7373
 1014MOL0     C36808   8.183   2.417   0.574  0.1537  1.0382  0.8199
 1014MOL0     C36809   8.310   2.424   0.632  0.1313  0.3204 -0.0928
 1014MOL0     C36810   8.770   2.439   0.692  0.0636  0.3209  1.0282
 1014MOL0     C36811   8.907   2.448   0.661 -0.5025  0.5983  0.2765
 1014MOL0     C36812   8.999   2.472   0.759 -0.1220 -0.3494 -0.2694
 1014MOL0     C36813   8.953   2.491   0.887 -0.2039 -0.3619 -0.5460
 1014MOL0     O36814   9.036   2.519   0.994  0.0536 -0.5124 -0.0837
 1014MOL0     C36815   9.170   2.554   0.963 -0.4249  0.0213  0.1691
 1014MOL0     C36816   9.238   2.621   1.080 -0.6108  0.5253 -0.1705
 1014MOL0     C36817   9.300   2.524   1.183 -0.1557  0.3685  0.0823
 1014MOL0     C36818   9.435   2.466   1.132 -0.0785 -0.6764  0.6787
 1014MOL0     C36819   9.490   2.346   1.196 -0.9284 -0.0505 -1.0960
 1014MOL0     C36820   9.537   2.245   1.244 -0.3507  0.3224  0.2021
 1014MOL0     C36821   8.817   2.491   0.915  0.4849  0.0872 -0.2634
 1014MOL0     C36822   8.724   2.458   0.820  0.0836 -0.5311  0.2670
 1014MOL0     H36823   8.510   2.291   0.384  1.9791 -0.4877  3.6147
 1014MOL0     H36824   8.288   2.286   0.273  3.0679  3.2239 -0.7575
 1014MOL0     H36825   8.041   2.161   0.502 -2.0283 -1.7410 -2.3595
 1014MOL0     H36826   7.922   2.292   0.543 -1.7420  0.2716  0.1336
 1014MOL0     H36827   7.798   2.126   0.454  0.8288 -1.2853 -1.2099
 1014MOL0     H36828   7.808   2.249   0.329 -0.4030 -2.1381 -3.4518
 1014MOL0     H36829   8.004   2.130   0.239 -0.7805 -0.7503 -1.9405
 1014MOL0     H36830   7.970   1.993   0.336  2.7118  1.4925  0.1899
 1014MOL0     H36831   7.734   2.004   0.240  1.3097 -1.2706  1.0987
 1014MOL0     H36832   7.784   2.138   0.132 -2.1413 -0.4938 -1.2205
 1014MOL0     H36833   7.799   1.942   0.009 -1.1990  1.4312  2.1621
 1014MOL0     H36834   7.970   1.960   0.042 -0.0225  0.3363 -1.1322
 1014MOL0     H36835   7.971   1.787   0.186  0.5376  1.6204  0.4147
 1014MOL0     H36836   7.793   1.780   0.199  0.6022 -0.9631  0.0445
 1014MOL0     H36837   7.899   1.600   0.037  1.7973  0.3785  0.5672
 1014MOL0     H36838   7.766   1.685  -0.026  0.1749 -1.1352 -1.1519
 1014MOL0     H36839   8.061   1.745  -0.067 -1.0441  0.9065  1.7767
 1014MOL0     H36840   7.945   1.833  -0.158  0.9589  0.8123 -0.9766
 1014MOL0     H36841   7.716   1.580  -0.217 -0.5206 -1.6807 -1.5919
 1014MOL0     H36842   7.692   1.407  -0.469  2.1442  2.9551 -2.9192
 1014MOL0     H36843   7.854   1.339  -0.492  1.8263  0.4042  1.3554
 1014MOL0     H36844   7.683   1.292  -0.233  0.1179 -2.5696  1.2505
 1014MOL0     H36845   7.849   1.240  -0.244 -0.4406 -1.4726  0.2785
 1014MOL0     H36846   7.806   1.084  -0.431 -0.3968 -0.5369  0.3270
 1014MOL0     H36847   7.637   1.127  -0.422  0.3273  0.7759  0.8153
 1014MOL0     H36848   7.796   1.003  -0.195  1.3953  0.1020 -1.5754
 1014MOL0     H36849   7.675   0.919  -0.290  3.2701  0.6896 -3.2151
 1014MOL0     H36850   7.421   1.171  -0.270  0.2599 -0.8776 -0.6760
 1014MOL0     H36851   7.082   1.163  -0.208 -1.3902  2.3095 -2.9585
 1014MOL0     H36852   7.203   1.227  -0.315 -1.6687  1.3016  1.8358
 1014MOL0     H36853   7.092   1.092  -0.364 -0.4600 -0.6645 -0.0543
 1014MOL0     H36854   6.871   0.885   0.035 -1.1944  0.3713  0.8129
 1014MOL0     H36855   6.664   0.810   0.106 -1.0482 -3.2008  3.0168
 1014MOL0     H36856   6.439   0.418   0.015  0.9369  0.8208 -1.2906
 1014MOL0     H36857   6.603   0.379   0.054 -0.8964 -0.0965 -1.4787
 1014MOL0     H36858   6.588   0.462   0.281 -0.6000  0.1875  0.0410
 1014MOL0     H36859   6.421   0.504   0.248 -1.2717 -1.8256  1.3236
 1014MOL0     H36860   6.480   0.210   0.244 -0.4961 -1.1472  0.1365
 1014MOL0     H36861   6.337   0.310   0.236 -0.4621 -1.1001  0.4553
 1014MOL0     H36862   6.519   0.308   0.473 -0.1121 -1.0415  0.3954
 1014MOL0     H36863   6.350   0.360   0.474  0.4044 -1.5984  4.2519
 1014MOL0     H36864   6.483   0.082   0.471  1.4329  0.7638  1.0043
 1014MOL0     H36865   6.315   0.105   0.410  0.5081 -1.2252  0.7467
 1014MOL0     H36866   6.392   0.178   0.691  0.9867 -0.9523 -0.3709
 1014MOL0     H36867   6.234   0.178   0.606 -0.2010 -1.8713 -0.4724
 1014MOL0     H36868   6.406  -0.052   0.685  0.2190 -0.4875 -1.9270
 1014MOL0     H36869   6.292  -0.074   0.549 -3.4573  2.0790 -2.6345
 1014MOL0     H36870   6.161  -0.144   0.741 -0.7928 -0.0033 -1.9569
 1014MOL0     H36871   6.099   0.008   0.707  0.1192  0.7325  1.1760
 1014MOL0     H36872   6.731   0.440  -0.113 -2.1567  1.8582 -0.7199
 1014MOL0     H36873   6.967   0.526  -0.178 -0.1194 -2.3829  1.4201
 1014MOL0     H36874   7.284   0.730  -0.074 -2.4256 -0.0384 -0.9579
 1014MOL0     H36875   7.520   0.808  -0.060 -1.1992 -1.5429 -0.5562
 1014MOL0     H36876   8.093   2.453   0.624  0.6589  2.5551  0.7016
 1014MOL0     H36877   8.310   2.457   0.735  0.0400  0.1135 -0.0262
 1014MOL0     H36878   8.947   2.441   0.560 -2.0182  2.5939 -0.5211
 1014MOL0     H36879   9.099   2.471   0.717 -0.2264 -1.6276 -0.5326
 1014MOL0     H36880   9.227   2.464   0.937 -1.0712 -0.1726 -0.6355
 1014MOL0     H36881   9.180   2.626   0.882 -1.1161  0.8512  0.8093
 1014MOL0     H36882   9.153   2.677   1.121 -2.7203 -1.2242 -1.9445
 1014MOL0     H36883   9.321   2.683   1.043 -0.8227  0.4815 -0.7254
 1014MOL0     H36884   9.229   2.443   1.202  0.6763 -0.0239  1.7503
 1014MOL0     H36885   9.318   2.579   1.275  2.3876 -0.5974  0.2662
 1014MOL0     H36886   9.510   2.546   1.139 -1.8418  1.0280  0.8532
 1014MOL0     H36887   9.426   2.420   1.034  3.5696 -2.0460  0.8241
 1014MOL0     H36888   9.584   2.149   1.250 -0.6907  0.1815  0.7751
 1014MOL0     H36889   8.781   2.515   1.015 -0.2221  1.0518 -0.7287
 1014MOL0     H36890   8.623   2.471   0.857 -0.1041 -0.5985 -0.2144
 1015MOL0     O36891   8.863   0.325   7.984 -0.2219 -0.2916 -0.2981
 1015MOL0     C36892   8.826   0.218   7.942 -0.2879  0.4552  0.0127
 1015MOL0     O36893   8.908   0.123   7.889 -0.1272 -0.6496  0.0192
 1015MOL0     C36894   9.042   0.144   7.893 -0.7421 -0.4363 -0.4483
 1015MOL0     C36895   9.106   0.179   7.776 -0.2859  0.1323 -0.0158
 1015MOL0     C36896   9.243   0.201   7.768 -0.0755 -0.5113 -0.5380
 1015MOL0     C36897   9.320   0.190   7.891  0.6468 -0.4134 -0.0865
 1015MOL0     O36898   9.458   0.203   7.893  0.2925  0.3390 -0.1876
 1015MOL0     C36899   9.530   0.098   7.821  0.6598  0.9541 -0.1175
 1015MOL0     C36900   9.673   0.132   7.814 -0.5721  0.8753 -0.0502
 1015MOL0     C36901   9.763   0.019   7.753  0.5917 -0.2031 -0.4732
 1015MOL0     C36902   9.787  -0.095   7.850  0.2574 -0.4805 -0.5236
 1015MOL0     C36903   9.916  -0.170   7.835  0.0696 -0.9848  0.0909
 1015MOL0     C36904   9.917  -0.276   7.713  0.3638  0.2519 -0.6260
 1015MOL0     C36905  10.049  -0.331   7.664  0.1182 -0.5192  0.2843
 1015MOL0     C36906  10.122  -0.406   7.778  0.2591 -0.1623 -0.2547
 1015MOL0     N36907  10.239  -0.487   7.732  0.0337  0.0882 -0.4359
 1015MOL0     C36908  10.364  -0.430   7.716  0.5366 -0.0212  0.8268
 1015MOL0     C36909  10.451  -0.546   7.696  0.2397  1.4295 -0.6370
 1015MOL0     C36910  10.604  -0.546   7.682 -0.5177  0.3929  0.4756
 1015MOL0     C36911  10.670  -0.612   7.802  0.4054 -0.1026  0.2535
 1015MOL0     C36912  10.818  -0.574   7.811  0.4613  0.5208 -0.6390
 1015MOL0     C36913  10.873  -0.658   7.935  0.3519  0.6741  0.3776
 1015MOL0     O36914  10.893  -0.800   7.896 -0.0986 -1.4682 -0.3177
 1015MOL0     C36915  11.000  -0.841   7.818 -0.9316  0.1529 -0.3341
 1015MOL0     C36916  11.033  -0.971   7.809  0.2146 -0.3074  0.2720
 1015MOL0     C36917  11.155  -1.013   7.753 -0.2984 -0.0402 -0.2619
 1015MOL0     C36918  11.185  -1.159   7.771  0.5845 -0.7427 -0.3570
 1015MOL0     C36919  11.246  -0.924   7.701  0.1804  0.1193  0.6943
 1015MOL0     C36920  11.377  -0.953   7.636  0.1632 -0.1499 -0.7736
 1015MOL0     O36921  11.446  -0.847   7.573  0.3997  0.9135 -0.5663
 1015MOL0     C36922  11.568  -0.878   7.526 -0.4331  0.9602 -1.1712
 1015MOL0     C36923  11.676  -0.920   7.606 -0.4184  0.1694  0.2859
 1015MOL0     C36924  11.800  -0.953   7.552  0.4002  0.7858  0.0653
 1015MOL0     C36925  11.822  -0.936   7.413 -0.3313  0.0677  0.2325
 1015MOL0     O36926  11.941  -0.956   7.343 -0.1225 -0.7093  0.0595
 1015MOL0     C36927  12.056  -1.009   7.412 -0.4761  0.5092  0.4833
 1015MOL0     C36928  12.117  -1.125   7.333  0.0595 -0.0951  0.1122
 1015MOL0     C36929  12.032  -1.252   7.318  0.6959 -0.5012  0.5081
 1015MOL0     C36930  12.129  -1.372   7.275  0.4054 -0.2497 -0.3352
 1015MOL0     C36931  12.075  -1.494   7.209  0.6629 -0.2615 -0.2965
 1015MOL0     C36932  11.994  -1.574   7.313  0.1403 -0.4632 -0.2759
 1015MOL0     C36933  11.879  -1.664   7.263 -1.1615  0.1376  0.5121
 1015MOL0     C36934  11.787  -1.709   7.375  1.0558  0.1659 -0.4478
 1015MOL0    Cl36935  11.888  -1.779   7.509  0.1422 -0.2388 -0.1385
 1015MOL0     C36936  11.711  -0.895   7.331 -0.3392  0.2035  0.0398
 1015MOL0     C36937  11.587  -0.862   7.390  0.6853  0.2217  0.4551
 1015MOL0     O36938  11.410  -1.071   7.631  0.2872 -0.2265  0.6852
 1015MOL0     C36939  11.215  -0.789   7.710 -0.0400  0.0693  0.5993
 1015MOL0     C36940  11.092  -0.753   7.761 -0.0581 -0.9261  0.2964
 1015MOL0     N36941  10.379  -0.664   7.716  0.1498 -0.4659 -0.0533
 1015MOL0     N36942  10.256  -0.625   7.741 -0.5135 -0.2252  0.9622
 1015MOL0     C36943   9.247   0.156   8.009 -1.0474  0.3378  0.3126
 1015MOL0     C36944   9.111   0.130   8.011  0.7722 -0.1537  0.3232
 1015MOL0     C36945   8.691   0.168   7.975  0.0670 -1.2101 -1.0137
 1015MOL0     C36946   8.650   0.038   7.949  0.3923 -0.0824  0.7496
 1015MOL0     C36947   8.532  -0.009   8.001 -0.0867  0.1401 -0.2067
 1015MOL0     C36948   8.445   0.065   8.086 -0.5192 -0.2886  1.0521
 1015MOL0     O36949   8.343   0.022   8.166  0.0801 -0.4908 -0.1249
 1015MOL0     C36950   8.310  -0.116   8.160  0.4973  1.0308  0.3861
 1015MOL0     C36951   8.223  -0.150   8.037  0.0245  0.1303 -0.0527
 1015MOL0     C36952   8.144  -0.277   8.062 -0.4176 -0.1127  0.3231
 1015MOL0     C36953   8.004  -0.245   8.131 -1.2809 -0.4387 -0.8977
 1015MOL0     C36954   7.935  -0.372   8.153 -0.5905 -0.5542 -0.3042
 1015MOL0     C36955   7.903  -0.488   8.172 -0.1971 -0.6609  0.3303
 1015MOL0     C36956   8.478   0.202   8.105  0.5476 -0.0252  0.3038
 1015MOL0     C36957   8.602   0.246   8.050  0.1682 -0.4975 -0.0615
 1015MOL0     H36958   9.041   0.196   7.690 -0.0544  1.0626 -0.0217
 1015MOL0     H36959   9.287   0.218   7.670  1.9797 -1.8357  0.0821
 1015MOL0     H36960   9.519   0.008   7.882  2.0522 -0.0245 -1.2577
 1015MOL0     H36961   9.491   0.087   7.720  0.1440  1.3879  0.0319
 1015MOL0     H36962   9.675   0.226   7.759  0.6879  0.7988 -0.1611
 1015MOL0     H36963   9.711   0.151   7.915  1.4576 -1.4053 -0.2943
 1015MOL0     H36964   9.725  -0.018   7.657 -0.1728  1.3699 -0.8071
 1015MOL0     H36965   9.860   0.065   7.730  0.2043  0.1031 -1.5474
 1015MOL0     H36966   9.787  -0.053   7.951  1.1951 -0.1581 -0.6417
 1015MOL0     H36967   9.701  -0.162   7.852 -1.8820  2.0291 -2.3930
 1015MOL0     H36968   9.998  -0.097   7.828 -0.3234 -0.2689  2.2021
 1015MOL0     H36969   9.936  -0.222   7.929 -2.2950 -0.8160  0.7337
 1015MOL0     H36970   9.848  -0.359   7.731  1.3277 -0.1965  1.1287
 1015MOL0     H36971   9.872  -0.213   7.635  0.0613  1.7930  0.7388
 1015MOL0     H36972  10.038  -0.398   7.578 -1.4039 -1.1138  0.9059
 1015MOL0     H36973  10.115  -0.250   7.631 -0.6641  0.2802  0.6382
 1015MOL0     H36974  10.053  -0.471   7.832  0.0564 -1.4019 -1.9222
 1015MOL0     H36975  10.162  -0.332   7.848 -2.8719 -0.1164  1.6638
 1015MOL0     H36976  10.400  -0.328   7.719  1.9996 -0.5184  0.8406
 1015MOL0     H36977  10.622  -0.602   7.590 -0.1330 -0.8901  1.3114
 1015MOL0     H36978  10.639  -0.443   7.668 -0.7588  0.3564 -0.5279
 1015MOL0     H36979  10.662  -0.721   7.799  0.0763 -0.0760  0.2065
 1015MOL0     H36980  10.624  -0.576   7.895 -0.1669  2.4235 -0.9249
 1015MOL0     H36981  10.830  -0.469   7.838  0.5821  0.2673  0.2972
 1015MOL0     H36982  10.863  -0.600   7.715 -0.0263 -0.2894 -0.6595
 1015MOL0     H36983  10.797  -0.659   8.014 -0.6997 -0.7871 -0.5907
 1015MOL0     H36984  10.962  -0.625   7.989 -0.0993  2.7358 -0.0405
 1015MOL0     H36985  10.970  -1.039   7.866  1.2553  2.2541  4.9623
 1015MOL0     H36986  11.154  -1.212   7.681 -0.2167 -1.2091  0.1837
 1015MOL0     H36987  11.288  -1.191   7.791  1.2544 -0.2102 -2.6700
 1015MOL0     H36988  11.129  -1.183   7.862 -1.4638 -0.2813 -1.4498
 1015MOL0     H36989  11.663  -0.918   7.714 -2.2285 -1.0170  0.1305
 1015MOL0     H36990  11.869  -0.971   7.634 -1.4475  0.4010  1.5984
 1015MOL0     H36991  12.132  -0.934   7.435  3.1695 -2.8516  0.3294
 1015MOL0     H36992  12.037  -1.045   7.514 -1.1647  1.8398  0.8492
 1015MOL0     H36993  12.148  -1.097   7.232  3.3538 -1.8995  0.4906
 1015MOL0     H36994  12.204  -1.160   7.389 -1.1933 -0.7583  1.7296
 1015MOL0     H36995  11.963  -1.250   7.233  1.5995 -2.2269 -0.3180
 1015MOL0     H36996  11.975  -1.272   7.410 -0.0369  0.4056  0.2681
 1015MOL0     H36997  12.188  -1.325   7.196 -1.7781  2.2485 -0.6275
 1015MOL0     H36998  12.185  -1.399   7.365 -2.2263 -0.9293  1.2029
 1015MOL0     H36999  12.162  -1.552   7.179  1.6111  1.5527 -1.1647
 1015MOL0     H37000  12.013  -1.459   7.126 -3.5709 -1.3803  2.0490
 1015MOL0     H37001  12.062  -1.636   7.373 -0.8976 -3.4745 -2.0053
 1015MOL0     H37002  11.938  -1.513   7.385 -1.7820  0.3461 -2.3629
 1015MOL0     H37003  11.911  -1.758   7.218 -0.0918  1.5017 -1.7874
 1015MOL0     H37004  11.820  -1.611   7.188  3.1063  1.9961 -1.9203
 1015MOL0     H37005  11.707  -1.778   7.347 -1.2376  1.7574  1.6655
 1015MOL0     H37006  11.741  -1.618   7.413  2.0603  0.0070  1.2613
 1015MOL0     H37007  11.725  -0.873   7.225  1.1661  2.0183  0.5520
 1015MOL0     H37008  11.500  -0.823   7.339 -1.2891 -1.9521  1.9773
 1015MOL0     H37009  11.290  -0.714   7.684 -0.2380  0.2829  0.6474
 1015MOL0     H37010  11.090  -0.645   7.761  0.6615 -0.9011  0.0355
 1015MOL0     H37011   9.309   0.135   8.095  0.1478 -1.6421 -0.9746
 1015MOL0     H37012   9.044   0.097   8.090 -2.8943 -0.8479 -2.7595
 1015MOL0     H37013   8.704  -0.032   7.886 -0.1336  1.9075 -2.1061
 1015MOL0     H37014   8.500  -0.112   8.000  1.7939 -0.6099  3.1691
 1015MOL0     H37015   8.404  -0.173   8.160 -0.4849 -0.6613  1.3049
 1015MOL0     H37016   8.258  -0.154   8.249  1.6873  1.7972  1.4415
 1015MOL0     H37017   8.290  -0.167   7.952  1.6416 -2.6350  1.6106
 1015MOL0     H37018   8.156  -0.065   8.021 -2.4765 -1.1831  2.5807
 1015MOL0     H37019   8.200  -0.353   8.117  1.2232 -0.6317 -1.9457
 1015MOL0     H37020   8.124  -0.315   7.961  0.5432  1.4165 -0.4823
 1015MOL0     H37021   7.952  -0.177   8.063 -0.5592  0.9580 -0.0903
 1015MOL0     H37022   8.018  -0.195   8.227 -0.8602 -0.2155 -1.0746
 1015MOL0     H37023   7.891  -0.592   8.192  0.4412 -1.4376 -2.7268
 1015MOL0     H37024   8.405   0.263   8.156 -0.3563 -1.3362  0.6273
 1015MOL0     H37025   8.623   0.352   8.064 -0.4008  0.0774 -2.9403
 1016MOL0     O37026   8.876  11.231   7.760 -0.2188 -0.1593  0.2282
 1016MOL0     C37027   8.921  11.127   7.713  0.2675  1.1372 -0.1570
 1016MOL0     O37028   8.850  11.034   7.638  1.0478  0.0403  0.2952
 1016MOL0     C37029   8.747  11.085   7.558 -0.4015 -0.6768  0.0784
 1016MOL0     C37030   8.610  11.073   7.604 -0.0462 -0.6221 -0.7588
 1016MOL0     C37031   8.511  11.107   7.521  0.0430 -0.0361 -0.5172
 1016MOL0     C37032   8.541  11.174   7.401 -0.1152 -0.2585 -0.1329
 1016MOL0     O37033   8.439  11.194   7.309 -0.8026  0.2390  0.2712
 1016MOL0     C37034   8.312  11.253   7.336 -0.2171  1.0825 -0.8413
 1016MOL0     C37035   8.227  11.235   7.199 -0.4299  0.2812 -0.5612
 1016MOL0     C37036   8.161  11.095   7.202 -0.3062 -0.5999 -0.7699
 1016MOL0     C37037   8.053  11.064   7.103  0.7267  0.5420  0.3590
 1016MOL0     C37038   7.925  11.122   7.143 -0.4029 -0.0568  1.0007
 1016MOL0     C37039   7.822  11.086   7.036  0.1390 -0.0975  0.5061
 1016MOL0     C37040   7.676  11.107   7.076  0.2394  1.4346  0.1392
 1016MOL0     C37041   7.593  11.099   6.943 -0.1448 -0.2565 -0.1446
 1016MOL0     N37042   7.455  11.134   6.968 -0.4250 -0.6149 -1.0047
 1016MOL0     C37043   7.397  11.251   6.930  0.1247  0.1660 -0.0610
 1016MOL0     C37044   7.266  11.242   6.955  0.1750 -0.1700 -0.3985
 1016MOL0     C37045   7.166  11.350   6.930  0.4798 -0.0936  1.9267
 1016MOL0     C37046   7.142  11.433   7.056 -0.2135  0.4599 -0.4833
 1016MOL0     C37047   7.051  11.557   7.034  0.7583  0.0335  0.2141
 1016MOL0     C37048   7.001  11.635   7.161 -1.0080  0.0064 -0.0721
 1016MOL0     O37049   6.901  11.553   7.219 -0.3317 -0.3426 -0.7433
 1016MOL0     C37050   6.837  11.622   7.316  0.1897  0.6224  1.6980
 1016MOL0     C37051   6.701  11.582   7.328  0.1696 -0.2484 -0.6780
 1016MOL0     C37052   6.609  11.636   7.416 -0.8480  0.2644 -0.2116
 1016MOL0     C37053   6.479  11.572   7.435 -0.5484 -0.2244  0.2342
 1016MOL0     C37054   6.659  11.738   7.499 -0.3790 -0.2589 -0.2057
 1016MOL0     C37055   6.568  11.803   7.600  0.6687 -0.9706  0.6751
 1016MOL0     O37056   6.622  11.847   7.716 -1.3681 -0.8760  0.4336
 1016MOL0     C37057   6.607  11.982   7.758  0.0098  0.4040 -0.4256
 1016MOL0     C37058   6.679  12.019   7.868 -1.0211 -0.7128 -0.0111
 1016MOL0     C37059   6.668  12.143   7.929  0.9198 -0.1564  0.2532
 1016MOL0     C37060   6.588  12.241   7.864  0.9421 -0.5106  0.6437
 1016MOL0     O37061   6.573  12.364   7.928  0.5918  0.3925  0.5955
 1016MOL0     C37062   6.475  12.460   7.889  0.0795  0.9482  1.0532
 1016MOL0     C37063   6.443  12.561   7.998 -0.0184  0.0238 -0.0761
 1016MOL0     C37064   6.362  12.499   8.116  0.2637  0.9917 -0.4385
 1016MOL0     C37065   6.323  12.607   8.233 -0.0413  1.2791  0.1973
 1016MOL0     C37066   6.227  12.535   8.330  0.3852 -0.6518 -0.0647
 1016MOL0     C37067   6.305  12.456   8.432  0.1991  0.4594 -0.0271
 1016MOL0     C37068   6.214  12.353   8.496 -0.4498 -0.0242 -0.6621
 1016MOL0     C37069   6.275  12.308   8.630  0.7093  0.2290  0.2597
 1016MOL0    Cl37070   6.171  12.178   8.704  0.4235  0.2053 -0.0822
 1016MOL0     C37071   6.513  12.205   7.748 -0.1407  0.5338  0.2127
 1016MOL0     C37072   6.522  12.077   7.702 -0.1472  0.0666  1.4253
 1016MOL0     O37073   6.446  11.809   7.580 -0.0719 -0.0392  0.1823
 1016MOL0     C37074   6.790  11.780   7.490  0.2356 -0.8000  1.2228
 1016MOL0     C37075   6.880  11.729   7.387 -0.2991 -0.1108  0.4556
 1016MOL0     N37076   7.239  11.117   7.007  0.2847 -0.3360  0.8632
 1016MOL0     N37077   7.359  11.056   7.005  0.0185  0.0598 -0.8826
 1016MOL0     C37078   8.675  11.198   7.346 -0.2000 -0.5889 -0.3839
 1016MOL0     C37079   8.775  11.150   7.435  0.6373  0.2370  0.3852
 1016MOL0     C37080   9.044  11.088   7.781 -0.2050 -0.3370 -0.4043
 1016MOL0     C37081   9.103  11.149   7.899  0.4155 -0.3188  0.6001
 1016MOL0     C37082   9.220  11.106   7.952 -0.8681  0.0001  0.6687
 1016MOL0     C37083   9.296  11.001   7.888 -0.2547  1.1098  0.5719
 1016MOL0     O37084   9.424  10.956   7.927 -0.7112 -0.8942 -0.2730
 1016MOL0     C37085   9.460  10.977   8.069 -0.1485 -0.6302 -0.3904
 1016MOL0     C37086   9.558  10.868   8.125 -0.2010 -1.1622  0.3956
 1016MOL0     C37087   9.704  10.895   8.081 -0.1787 -0.5261  0.8097
 1016MOL0     C37088   9.735  10.817   7.952 -0.0260 -0.3915 -0.0809
 1016MOL0     C37089   9.881  10.804   7.965  0.1249 -0.3481  0.0165
 1016MOL0     C37090   9.997  10.772   7.974  0.5578 -0.0519  0.2428
 1016MOL0     C37091   9.243  10.935   7.772  0.0171  0.0453 -1.0998
 1016MOL0     C37092   9.114  10.974   7.722  1.1391  0.3778 -0.2568
 1016MOL0     H37093   8.588  11.033   7.703  1.8309  1.4999  0.6216
 1016MOL0     H37094   8.407  11.085   7.543 -1.2556  4.4821 -1.2065
 1016MOL0     H37095   8.264  11.199   7.418  1.8742 -2.1839 -1.5657
 1016MOL0     H37096   8.323  11.360   7.358 -0.1886  1.6276 -3.2474
 1016MOL0     H37097   8.152  11.315   7.191 -1.7978 -0.4684  2.7721
 1016MOL0     H37098   8.289  11.238   7.109 -0.2265 -1.4780 -0.5032
 1016MOL0     H37099   8.244  11.029   7.175  1.0239 -0.3806  2.3948
 1016MOL0     H37100   8.136  11.066   7.305 -1.9088 -1.2645 -1.2994
 1016MOL0     H37101   8.084  11.092   7.001 -0.1612 -0.1464 -0.1117
 1016MOL0     H37102   8.038  10.956   7.105 -2.1265  0.8743  1.2206
 1016MOL0     H37103   7.892  11.081   7.239  2.8089 -1.8168  1.5042
 1016MOL0     H37104   7.936  11.229   7.163 -2.5861  0.0146  2.1143
 1016MOL0     H37105   7.850  11.140   6.945 -1.0622 -0.8241 -0.3169
 1016MOL0     H37106   7.831  10.981   7.006  3.1782  0.9795 -3.1434
 1016MOL0     H37107   7.650  11.029   7.147  5.8687 -0.0241  1.1374
 1016MOL0     H37108   7.669  11.207   7.118  0.9498  1.1274  1.0174
 1016MOL0     H37109   7.609  11.008   6.884 -0.3598 -0.0532 -0.5249
 1016MOL0     H37110   7.642  11.182   6.890  2.4187 -0.4530  1.7362
 1016MOL0     H37111   7.454  11.329   6.880  2.5789 -0.6248  1.3575
 1016MOL0     H37112   7.194  11.409   6.842 -3.1321 -1.1823 -0.1700
 1016MOL0     H37113   7.069  11.302   6.916  1.3100 -1.8483  1.8881
 1016MOL0     H37114   7.238  11.468   7.096 -0.8279  0.3046  1.1963
 1016MOL0     H37115   7.103  11.367   7.134  1.0909  0.2408  0.0157
 1016MOL0     H37116   6.975  11.526   6.961 -0.6319  1.1337  1.1400
 1016MOL0     H37117   7.101  11.638   6.979  2.9234 -1.4686 -0.1336
 1016MOL0     H37118   6.957  11.732   7.136 -3.3952 -1.3712 -1.6727
 1016MOL0     H37119   7.082  11.648   7.232  2.0202  1.1133 -3.4247
 1016MOL0     H37120   6.679  11.499   7.261 -1.8197 -0.2884 -0.0371
 1016MOL0     H37121   6.482  11.473   7.389 -0.8973 -0.0956 -0.0667
 1016MOL0     H37122   6.462  11.556   7.542 -1.5270 -0.4644  0.0569
 1016MOL0     H37123   6.399  11.635   7.394 -0.9612 -1.7759 -1.4555
 1016MOL0     H37124   6.757  11.957   7.911 -0.0809  1.7596  2.1119
 1016MOL0     H37125   6.726  12.172   8.016  0.3743  0.9602  0.2670
 1016MOL0     H37126   6.499  12.507   7.793 -2.3772 -0.7641 -0.5135
 1016MOL0     H37127   6.391  12.398   7.859  1.2890  0.3290 -1.3059
 1016MOL0     H37128   6.527  12.606   8.051 -0.3123 -1.4198  1.7027
 1016MOL0     H37129   6.394  12.647   7.951 -0.0066  0.7260  1.1436
 1016MOL0     H37130   6.423  12.418   8.156 -2.0595 -1.4037 -1.4390
 1016MOL0     H37131   6.281  12.434   8.081  2.9306 -2.0271 -1.4323
 1016MOL0     H37132   6.411  12.638   8.290  1.0557  1.2198 -1.3896
 1016MOL0     H37133   6.270  12.689   8.185 -1.0530  1.0758  0.9369
 1016MOL0     H37134   6.152  12.485   8.269 -2.3906  3.0559 -0.0148
 1016MOL0     H37135   6.167  12.599   8.394  3.7029  1.6097  1.0366
 1016MOL0     H37136   6.391  12.404   8.389  0.9159 -1.7973  3.6484
 1016MOL0     H37137   6.339  12.525   8.510  3.0010 -1.7221  0.8519
 1016MOL0     H37138   6.175  12.287   8.417 -2.0840  0.0622  0.0192
 1016MOL0     H37139   6.123  12.404   8.528  1.1814  2.3354  0.4285
 1016MOL0     H37140   6.257  12.392   8.698  0.5719 -0.5832  1.2515
 1016MOL0     H37141   6.380  12.277   8.624  0.8767  0.9709 -1.1980
 1016MOL0     H37142   6.440  12.275   7.708  0.3843  0.8711 -0.1574
 1016MOL0     H37143   6.475  12.054   7.606  0.5113  1.1028  0.8440
 1016MOL0     H37144   6.832  11.860   7.551  5.2960  1.5512 -4.3018
 1016MOL0     H37145   6.974  11.782   7.371  1.4375 -2.6931  1.4197
 1016MOL0     H37146   8.714  11.241   7.254  1.3914  0.4723  0.7373
 1016MOL0     H37147   8.877  11.147   7.399  0.7724  1.2856  0.6458
 1016MOL0     H37148   9.060  11.233   7.951 -2.0333 -0.0980 -1.5489
 1016MOL0     H37149   9.250  11.157   8.043  0.4374  0.3430  0.0736
 1016MOL0     H37150   9.497  11.079   8.081 -0.8566  0.0052 -2.9649
 1016MOL0     H37151   9.374  10.982   8.136  1.2055  2.6531  1.3445
 1016MOL0     H37152   9.531  10.764   8.101 -2.5866 -0.1254 -1.9839
 1016MOL0     H37153   9.554  10.887   8.232  0.1645  1.4320  0.0202
 1016MOL0     H37154   9.757  10.857   8.169 -0.1451  0.9709  1.4687
 1016MOL0     H37155   9.719  11.003   8.071 -0.7098 -0.3992  1.3382
 1016MOL0     H37156   9.713  10.881   7.867 -1.5482 -0.8859 -0.0894
 1016MOL0     H37157   9.696  10.715   7.953 -0.4683 -0.2252  0.3972
 1016MOL0     H37158  10.100  10.744   7.984  0.2817 -0.6433  1.6363
 1016MOL0     H37159   9.294  10.858   7.715  1.0846 -0.2873  0.2464
 1016MOL0     H37160   9.073  10.914   7.641  1.2904 -0.0979  0.0120
 1017MOL0     O37161   1.856   8.696   9.251 -0.6756 -0.0183 -0.7914
 1017MOL0     C37162   1.847   8.577   9.276 -0.3919 -0.1705  0.3259
 1017MOL0     O37163   1.733   8.501   9.276 -0.0821  0.5657 -0.8374
 1017MOL0     C37164   1.606   8.557   9.244  0.0097  0.4761  0.3057
 1017MOL0     C37165   1.499   8.495   9.307 -0.1187 -0.0975 -1.1422
 1017MOL0     C37166   1.373   8.532   9.286 -0.4508 -0.2045  0.1665
 1017MOL0     C37167   1.343   8.632   9.192 -0.5103  0.3770  0.2601
 1017MOL0     O37168   1.218   8.670   9.185 -0.0608 -0.4959  0.6554
 1017MOL0     C37169   1.199   8.809   9.164  0.7396 -0.1265  0.3565
 1017MOL0     C37170   1.044   8.817   9.177  0.7518 -0.4407 -0.4460
 1017MOL0     C37171   1.000   8.785   9.335  0.0382 -0.4267  0.5454
 1017MOL0     C37172   1.054   8.879   9.440  0.3326 -0.6017 -0.2761
 1017MOL0     C37173   0.978   8.869   9.573  0.2426  1.0665 -0.1530
 1017MOL0     C37174   1.028   8.933   9.698  0.5037 -0.5719  0.3514
 1017MOL0     C37175   1.017   9.081   9.697  1.2134 -0.0676 -0.7951
 1017MOL0     C37176   1.086   9.148   9.824 -0.1510 -0.0929  0.2046
 1017MOL0     N37177   1.080   9.295   9.812 -0.6448  1.2635  0.0052
 1017MOL0     C37178   1.188   9.365   9.869  0.7069 -0.0956 -0.1096
 1017MOL0     C37179   1.184   9.484   9.799  0.0847  0.2857 -0.0106
 1017MOL0     C37180   1.287   9.592   9.801 -0.4459  0.2821 -0.6405
 1017MOL0     C37181   1.234   9.726   9.837  0.2692  0.5800 -0.5125
 1017MOL0     C37182   1.180   9.728   9.977  0.4419  0.5521 -0.3879
 1017MOL0     C37183   1.131   9.866  10.007  0.5114 -0.4295 -0.0227
 1017MOL0     O37184   1.009   9.906   9.937  0.0731  0.0298 -0.1796
 1017MOL0     C37185   0.993  10.041   9.936 -0.3722  0.1347  0.1104
 1017MOL0     C37186   1.050  10.133  10.023 -0.7505 -0.3132  0.0904
 1017MOL0     C37187   1.031  10.273  10.020  0.2156 -0.3941  0.8602
 1017MOL0     C37188   1.105  10.353  10.116  0.1413  0.5562  0.2416
 1017MOL0     C37189   0.941  10.323   9.925  0.3533 -0.7426 -0.5647
 1017MOL0     C37190   0.896  10.460   9.918 -0.2805  0.0188  0.8433
 1017MOL0     O37191   0.812  10.489   9.807  0.1188 -0.6890 -0.3921
 1017MOL0     C37192   0.742  10.608   9.795 -0.4599 -0.1797  0.6048
 1017MOL0     C37193   0.729  10.703   9.896  0.3130 -0.6271 -0.6778
 1017MOL0     C37194   0.654  10.821   9.879 -0.1729 -0.4659 -0.4001
 1017MOL0     C37195   0.576  10.832   9.760 -0.2498  0.0775  0.3311
 1017MOL0     O37196   0.495  10.938   9.725  0.8393  0.4320  0.2669
 1017MOL0     C37197   0.540  11.073   9.757  0.2690 -0.3020  0.7663
 1017MOL0     C37198   0.447  11.171   9.688 -0.1465  0.1772 -0.0552
 1017MOL0     C37199   0.431  11.141   9.536 -0.4710  1.2060 -1.2192
 1017MOL0     C37200   0.450  11.257   9.446  0.0290 -0.3542  0.2239
 1017MOL0     C37201   0.452  11.233   9.295  0.2933 -0.3037 -0.2488
 1017MOL0     C37202   0.437  11.366   9.224 -0.0950 -0.4405  0.1331
 1017MOL0     C37203   0.429  11.358   9.080 -0.8108 -0.2130  0.9865
 1017MOL0     C37204   0.334  11.478   9.024 -1.0045  1.4419 -0.2195
 1017MOL0    Cl37205   0.154  11.456   9.045  0.6094 -0.0831 -0.5267
 1017MOL0     C37206   0.578  10.724   9.673 -0.0727  0.2823 -0.0158
 1017MOL0     C37207   0.652  10.612   9.687  0.0995 -0.3546 -0.8551
 1017MOL0     O37208   0.936  10.542  10.001  0.5123 -0.0097 -0.4197
 1017MOL0     C37209   0.888  10.234   9.829 -0.6785  0.3735  0.4469
 1017MOL0     C37210   0.917  10.096   9.840  0.7505 -0.2844  0.1108
 1017MOL0     N37211   1.070   9.480   9.717 -0.4028  0.7758 -0.6186
 1017MOL0     N37212   1.009   9.368   9.728  1.2221 -0.1361  0.1328
 1017MOL0     C37213   1.446   8.680   9.108 -0.6605  0.2270 -0.3732
 1017MOL0     C37214   1.575   8.646   9.144  1.1025  0.1645 -0.8353
 1017MOL0     C37215   1.976   8.509   9.298 -0.0789 -0.1251  0.3132
 1017MOL0     C37216   2.095   8.584   9.290 -0.2285 -0.0525 -0.3540
 1017MOL0     C37217   2.212   8.530   9.335 -0.0523  0.2088 -0.1351
 1017MOL0     C37218   2.216   8.398   9.383  0.2668  0.2258  0.3781
 1017MOL0     O37219   2.336   8.349   9.427 -0.0675  0.1303  0.1693
 1017MOL0     C37220   2.387   8.417   9.540  0.5119  1.3495 -0.1624
 1017MOL0     C37221   2.511   8.334   9.608  0.6082 -0.2995  0.5788
 1017MOL0     C37222   2.575   8.414   9.721 -1.1158  0.6148  0.2068
 1017MOL0     C37223   2.484   8.433   9.847 -1.0506 -0.0142 -0.1181
 1017MOL0     C37224   2.549   8.519   9.954  0.3357 -0.5085 -1.4143
 1017MOL0     C37225   2.603   8.583  10.045 -1.2306 -0.5092  0.5082
 1017MOL0     C37226   2.100   8.321   9.384 -0.4134  0.4675  0.9958
 1017MOL0     C37227   1.980   8.374   9.348  0.1955 -1.0729 -0.2701
 1017MOL0     H37228   1.512   8.432   9.395 -2.7449 -2.0430 -2.0275
 1017MOL0     H37229   1.304   8.470   9.342  1.8086 -3.1291 -0.0263
 1017MOL0     H37230   1.243   8.880   9.235 -0.1174 -1.2216  2.0451
 1017MOL0     H37231   1.230   8.829   9.061  0.3254 -0.8646  0.0779
 1017MOL0     H37232   1.009   8.917   9.149  0.5862 -0.3280  0.1499
 1017MOL0     H37233   0.984   8.757   9.108 -2.0933  0.6687  0.9006
 1017MOL0     H37234   0.891   8.788   9.342 -0.7396 -5.2256 -3.8030
 1017MOL0     H37235   1.007   8.679   9.361 -0.2175 -0.2145  1.5194
 1017MOL0     H37236   1.160   8.860   9.460 -0.0026 -1.7423  0.5174
 1017MOL0     H37237   1.026   8.981   9.411 -0.2121 -1.2736 -2.3013
 1017MOL0     H37238   0.870   8.882   9.574  0.2684  1.4077  1.3967
 1017MOL0     H37239   0.962   8.763   9.594 -2.6048  1.5076  0.2167
 1017MOL0     H37240   0.968   8.890   9.778 -0.4889  0.6801  0.3094
 1017MOL0     H37241   1.131   8.904   9.721  1.4024  2.1312  0.1195
 1017MOL0     H37242   1.040   9.130   9.602  0.2357 -0.7496 -1.4125
 1017MOL0     H37243   0.911   9.105   9.708  0.9333 -2.1549  2.3052
 1017MOL0     H37244   1.190   9.119   9.844  0.5305  2.7858  1.3239
 1017MOL0     H37245   1.025   9.128   9.912 -2.2026  1.8488 -0.6870
 1017MOL0     H37246   1.262   9.338   9.943 -0.5398 -5.4575 -0.3798
 1017MOL0     H37247   1.369   9.572   9.870 -2.3052  1.9515  2.2581
 1017MOL0     H37248   1.328   9.599   9.700  0.4484  1.5169 -0.2187
 1017MOL0     H37249   1.154   9.751   9.767  1.4293  2.3937 -1.2510
 1017MOL0     H37250   1.316   9.797   9.824 -1.5772  2.7894 -0.7340
 1017MOL0     H37251   1.257   9.699  10.049 -0.1840 -1.3242 -0.4444
 1017MOL0     H37252   1.096   9.659   9.973 -0.3629  1.5623 -3.2509
 1017MOL0     H37253   1.199   9.946   9.977 -0.0256 -1.3039 -4.2036
 1017MOL0     H37254   1.114   9.861  10.115 -0.7983 -0.4347 -0.2118
 1017MOL0     H37255   1.105  10.093  10.108 -0.7919  2.1906  1.3807
 1017MOL0     H37256   1.181  10.293  10.167 -0.9582 -1.5900 -0.5318
 1017MOL0     H37257   1.149  10.440  10.067  0.7299 -0.5629 -1.3069
 1017MOL0     H37258   1.034  10.384  10.194  1.5021  1.7341  1.0549
 1017MOL0     H37259   0.788  10.705   9.987  2.4307  3.7391 -1.8756
 1017MOL0     H37260   0.662  10.895   9.958 -0.6355 -0.8640  0.0256
 1017MOL0     H37261   0.530  11.092   9.864  1.0516  1.4431  0.5660
 1017MOL0     H37262   0.642  11.090   9.721  0.0012 -1.2566 -0.5200
 1017MOL0     H37263   0.351  11.160   9.739 -0.2100 -0.5796 -0.3159
 1017MOL0     H37264   0.486  11.270   9.712  2.2873 -0.7091 -0.0303
 1017MOL0     H37265   0.330  11.100   9.525 -0.7592  0.3108  3.1949
 1017MOL0     H37266   0.502  11.065   9.501 -2.2928 -0.7865 -0.8288
 1017MOL0     H37267   0.374  11.328   9.480  2.2379  3.6270 -2.3709
 1017MOL0     H37268   0.540  11.314   9.473  0.4207 -1.1330  0.6104
 1017MOL0     H37269   0.373  11.165   9.262  1.3216 -0.8087 -1.7618
 1017MOL0     H37270   0.544  11.187   9.260 -0.1034  0.3055 -2.2370
 1017MOL0     H37271   0.347  11.422   9.255  0.0242 -0.4926  0.5831
 1017MOL0     H37272   0.527  11.418   9.260 -0.8548 -0.1303  1.7070
 1017MOL0     H37273   0.407  11.252   9.059 -1.0845  0.0996 -0.3748
 1017MOL0     H37274   0.524  11.380   9.032  0.4521  0.9462  3.8140
 1017MOL0     H37275   0.360  11.484   8.918 -1.2799  1.8213 -0.2669
 1017MOL0     H37276   0.365  11.566   9.080 -1.5727  1.3098  0.3177
 1017MOL0     H37277   0.520  10.712   9.582  1.7000 -1.8797 -0.9519
 1017MOL0     H37278   0.655  10.534   9.611 -2.5406 -1.7895  0.3795
 1017MOL0     H37279   0.829  10.268   9.744  1.5507  0.4209 -1.1911
 1017MOL0     H37280   0.880  10.024   9.767 -0.3589  0.6102 -0.2335
 1017MOL0     H37281   1.412   8.735   9.021 -1.8240  0.4322  0.1971
 1017MOL0     H37282   1.661   8.686   9.091  0.3771  0.2926 -1.9592
 1017MOL0     H37283   2.079   8.688   9.266 -1.9250 -0.7051 -2.3564
 1017MOL0     H37284   2.302   8.590   9.346 -0.0229 -0.2947  3.0596
 1017MOL0     H37285   2.424   8.509   9.494 -1.1503  1.5357 -1.2066
 1017MOL0     H37286   2.304   8.433   9.611 -0.8462  0.0224 -1.3675
 1017MOL0     H37287   2.580   8.307   9.527  1.5927 -2.9875  2.1574
 1017MOL0     H37288   2.497   8.235   9.652  1.4039 -1.3340 -1.3560
 1017MOL0     H37289   2.614   8.509   9.684 -1.3346 -0.1539 -2.1336
 1017MOL0     H37290   2.661   8.356   9.757 -0.3712  0.6498 -1.4550
 1017MOL0     H37291   2.453   8.334   9.884 -4.8332  0.9336 -0.2799
 1017MOL0     H37292   2.387   8.477   9.820 -0.5381  0.2850 -1.5173
 1017MOL0     H37293   2.667   8.627  10.118  1.0970 -0.7674 -1.2647
 1017MOL0     H37294   2.103   8.221   9.425 -3.7676  0.4795  1.5481
 1017MOL0     H37295   1.886   8.326   9.372 -0.6900  1.6036  2.2459
 1018MOL0     O37296   9.165   0.415   5.936  0.5775  0.9188 -0.7157
 1018MOL0     C37297   9.187   0.397   5.818  0.9940  0.1707  0.1797
 1018MOL0     O37298   9.085   0.385   5.717 -0.2222  0.0551  0.0517
 1018MOL0     C37299   8.949   0.399   5.740 -0.3219  0.4540  0.7089
 1018MOL0     C37300   8.872   0.417   5.623  0.7590 -0.7944  0.0613
 1018MOL0     C37301   8.730   0.418   5.629  0.2736  1.5447  0.5402
 1018MOL0     C37302   8.661   0.412   5.743  0.6492 -0.0434 -0.0838
 1018MOL0     O37303   8.519   0.400   5.745 -0.2050  0.1740 -0.5321
 1018MOL0     C37304   8.464   0.492   5.833  0.2199 -0.2857  0.5801
 1018MOL0     C37305   8.331   0.518   5.770 -0.8183 -0.1762 -0.5085
 1018MOL0     C37306   8.253   0.390   5.745  0.5343 -0.4032 -0.0637
 1018MOL0     C37307   8.109   0.408   5.734 -0.0224 -0.3679  0.4460
 1018MOL0     C37308   8.052   0.267   5.717  0.4298 -0.6238  0.5668
 1018MOL0     C37309   7.898   0.273   5.732 -0.3230  0.5851  0.5079
 1018MOL0     C37310   7.824   0.150   5.666 -0.4488 -0.1152  0.6698
 1018MOL0     C37311   7.676   0.148   5.697  0.2277 -1.6263 -0.3086
 1018MOL0     N37312   7.611   0.020   5.677  0.2598 -0.3855 -0.5363
 1018MOL0     C37313   7.582  -0.034   5.555 -0.1837 -0.6702 -0.3220
 1018MOL0     C37314   7.524  -0.152   5.591 -1.5419 -0.3236  0.0931
 1018MOL0     C37315   7.477  -0.250   5.486  0.1423 -0.8579 -0.1703
 1018MOL0     C37316   7.344  -0.326   5.504 -1.1242 -0.4473  0.5005
 1018MOL0     C37317   7.343  -0.468   5.440 -1.1033  0.0760  0.0134
 1018MOL0     C37318   7.351  -0.479   5.286  0.0208  0.1393  0.1004
 1018MOL0     O37319   7.240  -0.399   5.247 -1.0161 -0.5294  0.0981
 1018MOL0     C37320   7.112  -0.441   5.222  0.2161 -0.0699 -1.4234
 1018MOL0     C37321   7.026  -0.346   5.175 -1.2878 -0.2176  0.2708
 1018MOL0     C37322   6.893  -0.359   5.173  0.7228 -0.1907 -0.0514
 1018MOL0     C37323   6.804  -0.245   5.140  0.6599  0.7043 -0.3760
 1018MOL0     C37324   6.835  -0.485   5.199 -0.3220 -0.6162  0.3320
 1018MOL0     C37325   6.690  -0.500   5.185 -0.8843 -0.5754  0.7050
 1018MOL0     O37326   6.623  -0.513   5.297  0.4314 -0.0489 -0.6418
 1018MOL0     C37327   6.496  -0.542   5.303  0.7739 -0.4924  0.3071
 1018MOL0     C37328   6.443  -0.649   5.386 -0.5431 -0.1751 -0.3237
 1018MOL0     C37329   6.310  -0.688   5.390 -0.4687 -0.3814  0.2661
 1018MOL0     C37330   6.215  -0.613   5.302  0.2472  0.0241  0.4570
 1018MOL0     O37331   6.077  -0.645   5.285 -0.3984 -0.0313 -0.5971
 1018MOL0     C37332   6.026  -0.762   5.336 -0.0162  0.3579 -0.4098
 1018MOL0     C37333   5.876  -0.751   5.363 -0.5624  0.0507  0.7299
 1018MOL0     C37334   5.796  -0.762   5.228  0.3410 -0.2594 -0.1182
 1018MOL0     C37335   5.660  -0.677   5.241  0.0334 -0.3104  0.1718
 1018MOL0     C37336   5.579  -0.696   5.114 -0.5323 -0.1690 -0.0519
 1018MOL0     C37337   5.484  -0.814   5.118 -0.7398  0.4397  0.0556
 1018MOL0     C37338   5.422  -0.842   4.982 -0.3812 -0.1053  0.0201
 1018MOL0     C37339   5.318  -0.953   4.973  1.1996 -0.4215  0.4771
 1018MOL0    Cl37340   5.199  -0.919   4.834  0.0350 -0.0028  0.0461
 1018MOL0     C37341   6.264  -0.505   5.226 -0.0405  1.1743 -0.4808
 1018MOL0     C37342   6.400  -0.470   5.230 -0.9967  0.4330  1.0238
 1018MOL0     O37343   6.639  -0.498   5.073 -0.9988  0.9140  0.0036
 1018MOL0     C37344   6.925  -0.593   5.228 -0.4351  0.8284  1.9244
 1018MOL0     C37345   7.062  -0.570   5.248  0.2607  1.0680 -0.4811
 1018MOL0     N37346   7.522  -0.168   5.731  0.2110 -0.1064  0.4081
 1018MOL0     N37347   7.577  -0.062   5.780  0.9359  0.3021 -0.3903
 1018MOL0     C37348   8.731   0.419   5.861 -1.1212 -0.1998 -0.0165
 1018MOL0     C37349   8.875   0.394   5.857 -0.1551  0.2302 -0.2370
 1018MOL0     C37350   9.327   0.386   5.772  0.2998  0.6858 -0.2331
 1018MOL0     C37351   9.352   0.348   5.639  0.9082  0.1994 -0.2703
 1018MOL0     C37352   9.481   0.334   5.594 -0.4547  0.1519 -0.8107
 1018MOL0     C37353   9.590   0.356   5.687 -0.8476 -0.5999  0.0801
 1018MOL0     O37354   9.714   0.325   5.633  0.4411  0.0197  0.1212
 1018MOL0     C37355   9.820   0.276   5.712  0.9614  0.9528  0.5776
 1018MOL0     C37356   9.924   0.189   5.629  0.8657 -0.7209 -0.7463
 1018MOL0     C37357   9.974   0.257   5.508  0.7555  0.3394 -0.2218
 1018MOL0     C37358  10.073   0.165   5.426 -0.3251 -0.2611 -0.2178
 1018MOL0     C37359  10.193   0.137   5.495  0.2755  1.3240 -0.5786
 1018MOL0     C37360  10.282   0.107   5.571 -0.9513  0.5187  0.3436
 1018MOL0     C37361   9.570   0.404   5.819  0.0016 -1.5334  1.1403
 1018MOL0     C37362   9.438   0.414   5.864  0.1000 -1.2839 -0.0744
 1018MOL0     H37363   8.932   0.440   5.536 -0.1886  0.0334 -0.3891
 1018MOL0     H37364   8.679   0.404   5.535  2.7573 -2.3710 -0.4708
 1018MOL0     H37365   8.464   0.470   5.940  2.6191  0.5426  0.8179
 1018MOL0     H37366   8.511   0.590   5.824 -0.1562 -0.1260  0.3359
 1018MOL0     H37367   8.277   0.576   5.845 -1.1861 -0.3573 -0.6311
 1018MOL0     H37368   8.351   0.576   5.680  2.1379 -0.5508 -0.1945
 1018MOL0     H37369   8.289   0.353   5.649  0.9946 -0.2743  0.0545
 1018MOL0     H37370   8.273   0.334   5.838 -0.1150  1.6048  1.3610
 1018MOL0     H37371   8.057   0.447   5.822 -2.0070 -1.0074 -0.3739
 1018MOL0     H37372   8.076   0.465   5.648  0.7267 -0.7129 -0.0845
 1018MOL0     H37373   8.086   0.221   5.624  0.8328  1.0313 -0.1462
 1018MOL0     H37374   8.093   0.204   5.796  4.9463  1.6877  0.3773
 1018MOL0     H37375   7.867   0.284   5.836 -2.0451  2.2727 -0.1273
 1018MOL0     H37376   7.862   0.360   5.676 -1.0215  1.3999  2.1574
 1018MOL0     H37377   7.843   0.141   5.559  0.2673 -1.9614  0.9051
 1018MOL0     H37378   7.864   0.058   5.710 -1.0950 -2.6215 -3.4701
 1018MOL0     H37379   7.636   0.221   5.625  2.0039 -0.5738 -0.2873
 1018MOL0     H37380   7.656   0.196   5.793  2.9788  3.2739 -1.8525
 1018MOL0     H37381   7.607   0.016   5.462 -0.9706 -2.7784 -1.7477
 1018MOL0     H37382   7.476  -0.188   5.395  0.9009  1.5941  1.3948
 1018MOL0     H37383   7.561  -0.320   5.485  1.5668  0.7880  0.0571
 1018MOL0     H37384   7.261  -0.260   5.479 -0.5719  0.4377  0.9443
 1018MOL0     H37385   7.347  -0.346   5.612 -0.7570 -0.5197  0.4801
 1018MOL0     H37386   7.260  -0.533   5.469 -0.2661 -0.8240  0.4214
 1018MOL0     H37387   7.434  -0.522   5.467  0.6510  1.2424 -3.0734
 1018MOL0     H37388   7.339  -0.578   5.241 -3.1566  0.6665 -0.4803
 1018MOL0     H37389   7.443  -0.430   5.253  1.4023 -4.4175 -3.9961
 1018MOL0     H37390   7.068  -0.247   5.162  0.7665 -0.4931  3.6076
 1018MOL0     H37391   6.759  -0.269   5.043 -0.0273  0.3955  0.0076
 1018MOL0     H37392   6.727  -0.248   5.217  0.8189 -2.8274 -0.1680
 1018MOL0     H37393   6.856  -0.149   5.149  0.0445  0.9031  1.3353
 1018MOL0     H37394   6.516  -0.704   5.445  1.7948  3.5533  0.6024
 1018MOL0     H37395   6.278  -0.770   5.453 -2.7540  1.1400  1.2411
 1018MOL0     H37396   6.034  -0.846   5.267  2.2233 -1.1069  1.4847
 1018MOL0     H37397   6.071  -0.790   5.432  1.2120  1.7469 -0.5490
 1018MOL0     H37398   5.840  -0.836   5.421 -0.7603 -0.5120 -0.1940
 1018MOL0     H37399   5.852  -0.663   5.424 -3.4387 -1.2627  1.6902
 1018MOL0     H37400   5.782  -0.865   5.194 -1.5870  0.4317 -1.5632
 1018MOL0     H37401   5.862  -0.718   5.153  0.0206 -0.1692 -0.3495
 1018MOL0     H37402   5.601  -0.726   5.318 -0.2280 -2.6529 -1.4033
 1018MOL0     H37403   5.679  -0.571   5.258 -1.8068  0.7589 -3.4262
 1018MOL0     H37404   5.649  -0.719   5.032  0.6224  2.1328  0.1990
 1018MOL0     H37405   5.522  -0.606   5.092  1.2225  0.6928 -1.3459
 1018MOL0     H37406   5.530  -0.904   5.160  0.6283  1.1622  0.1735
 1018MOL0     H37407   5.401  -0.779   5.179  0.9667  3.6416  0.7877
 1018MOL0     H37408   5.504  -0.864   4.913 -0.6106  1.1707 -0.6886
 1018MOL0     H37409   5.374  -0.748   4.954  1.7866  0.2041 -3.1012
 1018MOL0     H37410   5.276  -0.958   5.074  1.8595  0.9006  0.8275
 1018MOL0     H37411   5.362  -1.051   4.952  0.7770 -0.4017 -0.6004
 1018MOL0     H37412   6.197  -0.440   5.171  1.8034  4.1292  0.5596
 1018MOL0     H37413   6.436  -0.384   5.174 -0.8544 -0.8513 -0.9469
 1018MOL0     H37414   6.892  -0.695   5.243  2.9445 -0.9051 -1.0815
 1018MOL0     H37415   7.129  -0.646   5.288  2.1539  0.4887 -4.3276
 1018MOL0     H37416   8.679   0.412   5.956  0.4659 -0.4237  0.8663
 1018MOL0     H37417   8.931   0.382   5.949 -2.0755  3.7841  1.6142
 1018MOL0     H37418   9.279   0.320   5.564  0.3620 -0.2677  0.4206
 1018MOL0     H37419   9.502   0.305   5.491  3.1346 -2.8170  0.5220
 1018MOL0     H37420   9.872   0.359   5.760  1.2928  1.2828 -0.3262
 1018MOL0     H37421   9.786   0.214   5.795  2.8034  0.5775  1.1097
 1018MOL0     H37422   9.874   0.097   5.597  0.2167 -0.2567 -1.0946
 1018MOL0     H37423  10.008   0.160   5.692  0.2562  0.1839  0.5261
 1018MOL0     H37424  10.010   0.360   5.518  0.7870  0.5025 -1.7264
 1018MOL0     H37425   9.894   0.282   5.437 -0.3486  2.1795  1.5519
 1018MOL0     H37426  10.088   0.202   5.325 -0.6228  0.5818  0.0432
 1018MOL0     H37427  10.028   0.069   5.399 -0.2904 -0.7158  1.2360
 1018MOL0     H37428  10.358   0.080   5.640  0.3411  2.7995 -0.0792
 1018MOL0     H37429   9.646   0.419   5.894  0.5039 -0.0221  0.3546
 1018MOL0     H37430   9.414   0.433   5.968  3.6117 -2.5557  1.1441
 1019MOL0     O37431   1.699   4.523   4.829 -0.6023 -0.6555  0.0282
 1019MOL0     C37432   1.769   4.446   4.893 -0.9004 -0.2232 -0.2845
 1019MOL0     O37433   1.908   4.444   4.889 -0.2149  0.0535  0.8232
 1019MOL0     C37434   1.959   4.490   4.767 -0.1061 -0.2000  0.7306
 1019MOL0     C37435   1.975   4.403   4.659  0.4897  0.3948  0.3838
 1019MOL0     C37436   2.023   4.454   4.539  0.2677  0.9529  0.5448
 1019MOL0     C37437   2.065   4.589   4.527 -0.7505 -0.1332  0.0539
 1019MOL0     O37438   2.138   4.611   4.413 -0.4197 -1.2008 -0.4835
 1019MOL0     C37439   2.108   4.732   4.340 -0.1554  0.4800  0.2174
 1019MOL0     C37440   2.217   4.766   4.228 -0.3182  1.0625 -0.4540
 1019MOL0     C37441   2.354   4.814   4.284 -0.8215 -0.1439 -0.2444
 1019MOL0     C37442   2.375   4.852   4.429 -0.4374  0.0025  0.9875
 1019MOL0     C37443   2.520   4.883   4.452  0.0916 -0.7238 -0.7209
 1019MOL0     C37444   2.559   4.908   4.590  0.2417 -1.3283  0.1273
 1019MOL0     C37445   2.710   4.929   4.615 -0.5345  0.1083  0.2582
 1019MOL0     C37446   2.774   5.027   4.521  0.1618 -0.2787 -0.4915
 1019MOL0     N37447   2.901   5.081   4.575 -0.4990  1.0676  0.7754
 1019MOL0     C37448   3.015   5.000   4.578  0.0373 -0.5147  0.4431
 1019MOL0     C37449   3.114   5.088   4.610 -0.3993 -0.0337 -0.2518
 1019MOL0     C37450   3.261   5.058   4.617 -0.7032 -0.4051 -0.2165
 1019MOL0     C37451   3.288   4.970   4.736 -0.1950  0.5935  0.1588
 1019MOL0     C37452   3.434   4.912   4.741 -0.4867  0.2271 -0.6361
 1019MOL0     C37453   3.460   4.813   4.850 -0.0415  0.6269 -0.6725
 1019MOL0     O37454   3.418   4.859   4.979  0.1497 -0.2169  0.1228
 1019MOL0     C37455   3.429   4.789   5.096  1.6290  0.3638  0.7522
 1019MOL0     C37456   3.357   4.838   5.205  0.4996  0.4594  0.5612
 1019MOL0     C37457   3.369   4.782   5.329 -0.0783 -0.5729 -0.1466
 1019MOL0     C37458   3.285   4.854   5.434  0.3514  0.2343 -0.2462
 1019MOL0     C37459   3.471   4.692   5.347  0.1676  0.1622  0.1353
 1019MOL0     C37460   3.506   4.635   5.480 -0.0721  0.1781 -0.1153
 1019MOL0     O37461   3.566   4.514   5.475  0.0313  0.3314 -0.5001
 1019MOL0     C37462   3.587   4.456   5.599 -0.4093 -0.0264 -0.1531
 1019MOL0     C37463   3.709   4.480   5.662 -0.4845 -0.4946 -0.4373
 1019MOL0     C37464   3.724   4.436   5.802  0.2294  1.3303  0.0701
 1019MOL0     C37465   3.637   4.355   5.868  1.1176 -0.2235  0.3472
 1019MOL0     O37466   3.644   4.280   5.987  0.0738 -0.2366 -0.2842
 1019MOL0     C37467   3.772   4.228   6.014  0.0707  0.6296 -1.1282
 1019MOL0     C37468   3.765   4.121   6.132 -0.3766  0.0500  0.1368
 1019MOL0     C37469   3.905   4.070   6.197  0.8208  0.5303 -0.2853
 1019MOL0     C37470   3.904   3.990   6.331  0.0232  0.2901  0.0774
 1019MOL0     C37471   4.047   3.996   6.408  0.1638  0.3264  0.7993
 1019MOL0     C37472   4.030   3.912   6.537  0.1440 -0.2859 -0.0094
 1019MOL0     C37473   4.163   3.898   6.622  0.0471 -0.4326  0.3007
 1019MOL0     C37474   4.211   4.033   6.687 -0.1206  0.7359 -0.1884
 1019MOL0    Cl37475   4.279   4.129   6.558  0.2006 -0.9609 -0.4012
 1019MOL0     C37476   3.518   4.329   5.792  0.1596  1.2077 -1.0195
 1019MOL0     C37477   3.496   4.373   5.663 -1.1857 -0.9464 -0.4336
 1019MOL0     O37478   3.484   4.694   5.581  0.4016 -0.6250  0.5183
 1019MOL0     C37479   3.542   4.645   5.241  0.4565  0.5410 -0.2625
 1019MOL0     C37480   3.522   4.688   5.112  0.1089 -1.0477  0.1932
 1019MOL0     N37481   3.061   5.211   4.630  0.1397  0.0652 -0.6724
 1019MOL0     N37482   2.931   5.201   4.617 -0.2454 -0.2559  0.8496
 1019MOL0     C37483   2.052   4.678   4.629  0.0723 -0.3099  0.3647
 1019MOL0     C37484   2.000   4.629   4.751 -0.5906  0.0973  1.1387
 1019MOL0     C37485   1.707   4.353   4.979 -0.7297 -0.4029  0.0142
 1019MOL0     C37486   1.570   4.321   4.979 -0.6311 -0.4271 -0.2433
 1019MOL0     C37487   1.506   4.240   5.078  0.5791  0.0240 -0.5846
 1019MOL0     C37488   1.578   4.191   5.188  0.6137  0.4890 -0.5150
 1019MOL0     O37489   1.511   4.128   5.287 -0.3088  0.7382  0.2849
 1019MOL0     C37490   1.575   4.127   5.416  0.3043  1.5585  0.0167
 1019MOL0     C37491   1.483   4.059   5.521 -0.6380 -0.3689  0.2486
 1019MOL0     C37492   1.448   3.913   5.483 -0.4649  0.0064 -0.7177
 1019MOL0     C37493   1.396   3.845   5.614  0.4895  0.2618  0.1110
 1019MOL0     C37494   1.249   3.863   5.625  0.6201 -0.3240  0.7797
 1019MOL0     C37495   1.127   3.869   5.625  0.3102  0.4248 -0.3042
 1019MOL0     C37496   1.719   4.229   5.193  0.8283  0.0742 -0.0240
 1019MOL0     C37497   1.781   4.297   5.090 -0.6315 -0.2242  1.5646
 1019MOL0     H37498   1.922   4.308   4.656  1.8524 -0.5710  3.4852
 1019MOL0     H37499   2.033   4.389   4.453 -0.9032  2.3351 -0.6783
 1019MOL0     H37500   2.020   4.717   4.276 -0.1597  0.2180  0.2827
 1019MOL0     H37501   2.100   4.822   4.401 -1.8068 -0.9228  2.1923
 1019MOL0     H37502   2.250   4.680   4.170  4.2254  0.4412  2.5869
 1019MOL0     H37503   2.187   4.854   4.170 -0.0786  1.5550  0.1578
 1019MOL0     H37504   2.426   4.736   4.256 -1.6417 -1.3490  0.8667
 1019MOL0     H37505   2.383   4.901   4.224 -1.1876 -0.6007 -1.1085
 1019MOL0     H37506   2.308   4.936   4.451 -2.9395 -1.0031 -2.0969
 1019MOL0     H37507   2.352   4.769   4.495  0.0516 -0.1412  0.9790
 1019MOL0     H37508   2.595   4.814   4.411  2.8524  2.0392 -0.7014
 1019MOL0     H37509   2.539   4.972   4.392  1.6046  0.6109  1.5875
 1019MOL0     H37510   2.505   4.984   4.648  0.4951 -2.9280  2.5920
 1019MOL0     H37511   2.535   4.820   4.651  0.5921 -0.6986  1.2053
 1019MOL0     H37512   2.722   4.978   4.712  0.0495  1.1490 -0.3188
 1019MOL0     H37513   2.770   4.839   4.607 -0.8118  0.1188 -3.0022
 1019MOL0     H37514   2.703   5.109   4.510  1.2877  0.7205 -0.4128
 1019MOL0     H37515   2.795   4.993   4.419 -2.1350  3.9196 -2.6321
 1019MOL0     H37516   3.027   4.893   4.572 -1.9603 -0.7546 -0.0971
 1019MOL0     H37517   3.280   5.001   4.525 -0.2448 -0.0864 -0.3213
 1019MOL0     H37518   3.323   5.148   4.615 -0.1513 -0.7868 -0.7840
 1019MOL0     H37519   3.222   4.884   4.726  0.6210  0.0071 -0.2426
 1019MOL0     H37520   3.278   5.014   4.836  0.2878  0.9409  0.0602
 1019MOL0     H37521   3.497   5.001   4.744  1.1500 -0.8578  3.4091
 1019MOL0     H37522   3.450   4.859   4.646  2.5847 -2.2837  1.0779
 1019MOL0     H37523   3.569   4.802   4.857 -0.1931 -0.2978  0.5264
 1019MOL0     H37524   3.403   4.721   4.837  1.9711 -2.1829  5.9511
 1019MOL0     H37525   3.289   4.920   5.184  0.6741  0.4741  0.0338
 1019MOL0     H37526   3.197   4.900   5.388 -1.5815 -0.6934  2.2941
 1019MOL0     H37527   3.247   4.781   5.506  2.7327  0.9774  1.8976
 1019MOL0     H37528   3.345   4.927   5.488 -0.8051 -0.6040  2.3610
 1019MOL0     H37529   3.799   4.525   5.622 -0.8092 -0.2225 -0.8692
 1019MOL0     H37530   3.817   4.459   5.853 -0.7849  1.0103  2.1572
 1019MOL0     H37531   3.811   4.178   5.925 -0.8085 -1.3262 -0.4713
 1019MOL0     H37532   3.844   4.304   6.043  4.5806 -3.8926  1.1408
 1019MOL0     H37533   3.703   4.160   6.213  0.4802  1.9062 -0.0439
 1019MOL0     H37534   3.703   4.038   6.097  1.3450 -0.3669 -2.1462
 1019MOL0     H37535   3.970   4.155   6.220 -1.0264  1.4310  2.1638
 1019MOL0     H37536   3.946   4.007   6.118 -0.2375  0.2526 -0.6374
 1019MOL0     H37537   3.830   4.028   6.402 -3.0221  0.1647 -2.7799
 1019MOL0     H37538   3.873   3.889   6.302 -0.5530  1.0098 -2.0505
 1019MOL0     H37539   4.062   4.102   6.428  0.8874  0.2183  0.8485
 1019MOL0     H37540   4.132   3.968   6.345 -0.1272  1.2150 -0.0224
 1019MOL0     H37541   3.950   3.954   6.600  2.1791  1.8200  1.3567
 1019MOL0     H37542   3.997   3.815   6.500  1.7175 -0.2143 -1.7174
 1019MOL0     H37543   4.251   3.874   6.562 -0.7227 -0.4807 -0.8440
 1019MOL0     H37544   4.151   3.813   6.689 -0.1227  0.2032  1.0956
 1019MOL0     H37545   4.287   4.001   6.759  0.9706  2.4550 -0.5265
 1019MOL0     H37546   4.126   4.074   6.743  0.3191  2.9289 -1.0379
 1019MOL0     H37547   3.452   4.253   5.834  2.2935 -0.2818 -0.2034
 1019MOL0     H37548   3.402   4.354   5.611 -2.1088  0.4189  0.6401
 1019MOL0     H37549   3.622   4.575   5.261 -0.0483  0.2432  0.7485
 1019MOL0     H37550   3.571   4.639   5.028 -0.2327 -0.5999 -0.2714
 1019MOL0     H37551   2.079   4.782   4.615  0.3636 -0.4907 -0.4486
 1019MOL0     H37552   1.983   4.694   4.836 -1.3765  0.0853  1.0010
 1019MOL0     H37553   1.499   4.350   4.902 -1.4195  3.4748  1.6990
 1019MOL0     H37554   1.400   4.218   5.082  0.9237 -1.5610  1.8490
 1019MOL0     H37555   1.662   4.061   5.414 -0.6685  0.2588 -0.2730
 1019MOL0     H37556   1.599   4.230   5.445 -0.7334  1.6319  0.6715
 1019MOL0     H37557   1.388   4.113   5.519 -0.8070 -0.6679 -1.4433
 1019MOL0     H37558   1.523   4.059   5.623 -3.6394 -0.1744  1.5363
 1019MOL0     H37559   1.538   3.856   5.459 -0.2948  0.7497 -1.9921
 1019MOL0     H37560   1.378   3.913   5.399  0.1348  0.3918 -1.2288
 1019MOL0     H37561   1.440   3.885   5.706 -2.8998  2.3321  1.0408
 1019MOL0     H37562   1.407   3.736   5.609 -3.4468 -0.2552 -0.5024
 1019MOL0     H37563   1.020   3.878   5.628  0.2577  0.2918 -1.3197
 1019MOL0     H37564   1.767   4.198   5.285 -2.3683 -2.2641  1.0164
 1019MOL0     H37565   1.884   4.329   5.103 -1.0805  0.6511  3.2273
 1020MOL0     O37566  11.173  10.248   1.897  0.1809 -0.8743  0.5208
 1020MOL0     C37567  11.177  10.308   1.788  0.4721 -0.7831  0.7185
 1020MOL0     O37568  11.070  10.388   1.748 -0.5730 -0.5359 -0.2150
 1020MOL0     C37569  10.960  10.390   1.830 -0.0542  0.2428  0.4175
 1020MOL0     C37570  10.912  10.516   1.882 -1.5574  0.6175 -0.2755
 1020MOL0     C37571  10.775  10.521   1.925 -0.6640 -0.3780  0.4016
 1020MOL0     C37572  10.698  10.409   1.928  0.8611 -1.1955 -0.3832
 1020MOL0     O37573  10.566  10.412   1.974  0.0398  0.2525  0.8854
 1020MOL0     C37574  10.509  10.524   2.042 -0.2239 -0.5753 -0.6099
 1020MOL0     C37575  10.402  10.463   2.133  0.4081 -0.3092 -0.3597
 1020MOL0     C37576  10.324  10.568   2.217 -0.1329 -0.0355 -0.0710
 1020MOL0     C37577  10.191  10.618   2.164  0.0807 -0.0755  0.5155
 1020MOL0     C37578  10.144  10.749   2.237  0.4459  1.4487 -0.2588
 1020MOL0     C37579   9.995  10.772   2.213  0.2437 -0.2697  0.3390
 1020MOL0     C37580   9.943  10.896   2.287  0.3977  0.5905 -0.9060
 1020MOL0     C37581   9.789  10.938   2.283 -0.0311 -0.4325  0.2718
 1020MOL0     N37582   9.710  10.829   2.343 -0.0616  0.2134  0.4620
 1020MOL0     C37583   9.631  10.736   2.269 -0.0973  0.7297 -0.6213
 1020MOL0     C37584   9.569  10.663   2.364  0.3651  0.2205  0.6737
 1020MOL0     C37585   9.456  10.566   2.346 -0.1797  0.2180 -0.1585
 1020MOL0     C37586   9.490  10.449   2.261 -0.0048 -0.4102 -0.1139
 1020MOL0     C37587   9.376  10.368   2.222 -0.6185  0.0001 -0.1690
 1020MOL0     C37588   9.406  10.272   2.110 -0.2609  0.3012  1.0179
 1020MOL0     O37589   9.307  10.167   2.081  0.9632 -0.8133 -0.0155
 1020MOL0     C37590   9.323  10.040   2.128 -0.1929  0.6248 -0.7884
 1020MOL0     C37591   9.413  10.000   2.230  0.8225  0.5370 -0.6270
 1020MOL0     C37592   9.411   9.874   2.286 -0.7060 -0.2156  0.6783
 1020MOL0     C37593   9.488   9.859   2.415 -0.4271 -0.2236 -0.5449
 1020MOL0     C37594   9.335   9.776   2.222 -0.2980 -0.0488  0.7927
 1020MOL0     C37595   9.340   9.622   2.259 -0.2651  0.6209  0.1938
 1020MOL0     O37596   9.447   9.573   2.313 -0.3549 -0.2467  0.0571
 1020MOL0     C37597   9.458   9.441   2.352  0.3990 -0.0678 -0.4460
 1020MOL0     C37598   9.357   9.354   2.394  0.7612 -0.7411 -0.4740
 1020MOL0     C37599   9.382   9.235   2.464 -0.0950 -0.1658 -0.2737
 1020MOL0     C37600   9.506   9.190   2.467 -0.6750  0.8334 -0.3226
 1020MOL0     O37601   9.508   9.061   2.529  0.0171 -0.2212 -0.9035
 1020MOL0     C37602   9.627   8.992   2.567  0.5518  0.4007  0.8418
 1020MOL0     C37603   9.621   8.858   2.645 -0.0886 -0.2056  0.5650
 1020MOL0     C37604   9.762   8.804   2.646 -0.1607  0.3239  0.7759
 1020MOL0     C37605   9.793   8.704   2.757  0.2991 -0.2495 -0.0311
 1020MOL0     C37606   9.725   8.570   2.739 -0.1901  0.7116 -0.6861
 1020MOL0     C37607   9.779   8.460   2.831  0.5709 -1.0025  0.0961
 1020MOL0     C37608   9.790   8.519   2.971  0.6136  0.7130 -0.0710
 1020MOL0     C37609   9.781   8.424   3.085  0.1902 -0.0533 -0.4303
 1020MOL0    Cl37610   9.745   8.495   3.242 -0.6128 -0.2656 -0.5326
 1020MOL0     C37611   9.612   9.271   2.444 -0.3277 -0.1510 -0.3152
 1020MOL0     C37612   9.586   9.396   2.379 -0.6691 -0.0525  0.0794
 1020MOL0     O37613   9.243   9.560   2.222  0.2298 -0.2409 -0.0524
 1020MOL0     C37614   9.251   9.807   2.114  0.3611  0.2064 -0.4300
 1020MOL0     C37615   9.249   9.937   2.066 -0.3802  0.1945  0.1594
 1020MOL0     N37616   9.616  10.700   2.487 -0.3312 -0.3995  0.5903
 1020MOL0     N37617   9.698  10.802   2.472 -0.5224 -0.1719  0.7636
 1020MOL0     C37618  10.743  10.284   1.890  0.1058 -0.7996 -0.8039
 1020MOL0     C37619  10.878  10.270   1.837  0.4187  0.0615  0.0383
 1020MOL0     C37620  11.287  10.274   1.692  0.7447 -0.2253 -0.3015
 1020MOL0     C37621  11.274  10.317   1.553 -0.1387  0.4089  0.5133
 1020MOL0     C37622  11.370  10.281   1.461  0.1900 -0.4751 -0.3594
 1020MOL0     C37623  11.479  10.207   1.505  0.6176 -0.3318 -0.3078
 1020MOL0     O37624  11.576  10.186   1.410  0.3036 -0.7821  0.9220
 1020MOL0     C37625  11.705  10.135   1.438  0.2984 -0.1098  0.2230
 1020MOL0     C37626  11.807  10.177   1.329 -0.5787 -0.0661  0.4772
 1020MOL0     C37627  11.763  10.127   1.186 -0.9657 -0.1316  0.1895
 1020MOL0     C37628  11.710   9.991   1.172 -0.1077 -0.1993 -0.2255
 1020MOL0     C37629  11.817   9.901   1.191 -1.2993  0.1989  0.5433
 1020MOL0     C37630  11.905   9.822   1.209 -0.0385  0.5098 -0.6122
 1020MOL0     C37631  11.486  10.162   1.639 -0.9008  0.9737 -0.8271
 1020MOL0     C37632  11.389  10.190   1.730 -0.0484  0.5101  0.1598
 1020MOL0     H37633  10.967  10.609   1.876 -1.4120  0.4568 -3.9679
 1020MOL0     H37634  10.733  10.616   1.956  0.6664  0.7178 -0.9527
 1020MOL0     H37635  10.585  10.584   2.094  2.2865 -1.5201 -2.9721
 1020MOL0     H37636  10.457  10.599   1.982  1.2200  1.8193  0.9059
 1020MOL0     H37637  10.326  10.417   2.068 -2.7921  1.9307  1.5190
 1020MOL0     H37638  10.447  10.387   2.197  0.4963 -0.5104 -0.6602
 1020MOL0     H37639  10.303  10.522   2.315  4.0544  0.6324  1.3635
 1020MOL0     H37640  10.397  10.643   2.249 -1.9290  1.4989  0.6010
 1020MOL0     H37641  10.209  10.647   2.060 -1.7739  1.5454  0.5860
 1020MOL0     H37642  10.119  10.537   2.180 -0.8249  0.7838  0.9056
 1020MOL0     H37643  10.165  10.739   2.344 -1.3331  1.5166  0.1313
 1020MOL0     H37644  10.200  10.831   2.192 -2.7953  3.2206 -1.4690
 1020MOL0     H37645   9.970  10.780   2.107 -1.9228 -0.1224  0.8239
 1020MOL0     H37646   9.932  10.689   2.246 -0.9157  1.1723  1.8508
 1020MOL0     H37647   9.980  10.896   2.390 -0.3981  5.5736 -0.3719
 1020MOL0     H37648   9.986  10.985   2.240 -1.3879  1.8041 -0.3492
 1020MOL0     H37649   9.756  10.962   2.182  1.3980 -4.5831 -1.3975
 1020MOL0     H37650   9.776  11.022   2.352  0.1283  0.8292 -1.1850
 1020MOL0     H37651   9.615  10.717   2.163  1.1895  0.8029 -0.8407
 1020MOL0     H37652   9.429  10.532   2.446  1.5074 -3.3490 -0.7678
 1020MOL0     H37653   9.360  10.606   2.314 -1.6003 -0.4615  2.8497
 1020MOL0     H37654   9.565  10.387   2.312 -0.4053  0.4917  1.6645
 1020MOL0     H37655   9.531  10.498   2.173  0.6997  0.5980  0.7577
 1020MOL0     H37656   9.283  10.420   2.201 -0.5909 -0.0557 -0.4224
 1020MOL0     H37657   9.352  10.299   2.304  1.4258 -2.1126 -1.2257
 1020MOL0     H37658   9.509  10.239   2.124  0.2673  2.4749  2.9457
 1020MOL0     H37659   9.411  10.323   2.013 -0.5431 -4.3629 -1.7366
 1020MOL0     H37660   9.472  10.076   2.278 -0.0546  1.6902 -1.3217
 1020MOL0     H37661   9.524   9.949   2.465  3.0425 -1.8071  0.1720
 1020MOL0     H37662   9.422   9.806   2.485  2.7549 -1.9426  1.4041
 1020MOL0     H37663   9.580   9.801   2.402  0.0588  0.0875  1.2955
 1020MOL0     H37664   9.254   9.390   2.395  0.8681 -0.3861 -1.2826
 1020MOL0     H37665   9.305   9.171   2.503 -0.4974 -0.1192 -0.9644
 1020MOL0     H37666   9.695   8.970   2.485  0.4368  1.9968  0.2861
 1020MOL0     H37667   9.675   9.068   2.630 -0.2584  1.7030 -0.0381
 1020MOL0     H37668   9.596   8.887   2.747  0.7779  0.5905  0.5589
 1020MOL0     H37669   9.551   8.787   2.599 -2.3231  1.9550  0.4698
 1020MOL0     H37670   9.833   8.887   2.654 -0.8525  1.2710 -1.8328
 1020MOL0     H37671   9.783   8.751   2.552 -3.7163  1.3214 -0.7334
 1020MOL0     H37672   9.901   8.689   2.763  0.6565  1.6166 -1.0667
 1020MOL0     H37673   9.767   8.746   2.855  4.5250 -1.7395  1.9590
 1020MOL0     H37674   9.737   8.538   2.635 -1.3675 -3.2765  0.2363
 1020MOL0     H37675   9.616   8.573   2.738 -0.2118  2.5261  0.7419
 1020MOL0     H37676   9.711   8.374   2.833 -1.0537  0.2464  1.1679
 1020MOL0     H37677   9.878   8.429   2.797  1.9715  1.7636  1.3838
 1020MOL0     H37678   9.701   8.583   2.972 -0.7994 -1.0439 -2.2720
 1020MOL0     H37679   9.883   8.576   2.979  1.7670 -1.3824  4.0609
 1020MOL0     H37680   9.874   8.367   3.097 -1.3698 -2.2423  2.7222
 1020MOL0     H37681   9.704   8.350   3.060 -0.3643 -0.1127  1.3490
 1020MOL0     H37682   9.713   9.238   2.467 -0.7053  0.3107  2.2873
 1020MOL0     H37683   9.667   9.464   2.354 -1.4661  1.1653  0.6434
 1020MOL0     H37684   9.190   9.730   2.068 -2.2594  0.2480  2.6436
 1020MOL0     H37685   9.173   9.972   1.996  0.1411  2.2227  0.5434
 1020MOL0     H37686  10.665  10.209   1.900 -1.6081  1.0763  0.6856
 1020MOL0     H37687  10.927  10.183   1.796  1.0601  0.9389 -1.1118
 1020MOL0     H37688  11.194  10.376   1.509 -2.0693 -2.7542 -0.6200
 1020MOL0     H37689  11.359  10.331   1.365 -0.5062  3.0560  1.3909
 1020MOL0     H37690  11.745  10.169   1.534 -0.1553  0.6630  0.1476
 1020MOL0     H37691  11.702  10.026   1.442  0.2647 -0.0867  0.9653
 1020MOL0     H37692  11.909  10.151   1.360 -0.6301 -1.4450 -0.4076
 1020MOL0     H37693  11.819  10.286   1.327  0.8485 -0.1750  1.2560
 1020MOL0     H37694  11.838  10.147   1.109 -1.8614  2.8229 -0.0463
 1020MOL0     H37695  11.684  10.193   1.149  1.2985  1.9312 -1.2555
 1020MOL0     H37696  11.664   9.981   1.074  1.5785 -1.4623 -0.9249
 1020MOL0     H37697  11.629   9.975   1.244  1.1084  2.5293  1.9508
 1020MOL0     H37698  11.984   9.751   1.223  1.7218  2.6513  1.2599
 1020MOL0     H37699  11.565  10.092   1.666 -1.4384  0.6451 -0.0686
 1020MOL0     H37700  11.398  10.141   1.827 -1.5083  1.2918  0.7124
 1021MOL0     O37701   0.773  10.890   6.132 -0.6088  0.0156 -0.2620
 1021MOL0     C37702   0.688  10.824   6.069  0.2951  0.6540 -0.1341
 1021MOL0     O37703   0.706  10.703   6.002 -0.0687  0.3927 -0.3889
 1021MOL0     C37704   0.838  10.673   5.961  0.5068  0.2571 -0.3641
 1021MOL0     C37705   0.930  10.593   6.036  0.9857  0.5231  0.6387
 1021MOL0     C37706   1.041  10.533   5.976  0.1030  0.2639  0.8265
 1021MOL0     C37707   1.072  10.556   5.838 -0.5860 -0.1977  0.1140
 1021MOL0     O37708   1.196  10.506   5.797 -0.0757 -0.0722  0.5213
 1021MOL0     C37709   1.246  10.523   5.662  0.5027 -0.3221  0.7808
 1021MOL0     C37710   1.325  10.655   5.645 -0.0081 -0.0471  0.9425
 1021MOL0     C37711   1.469  10.632   5.676  0.8910 -0.0953 -1.3511
 1021MOL0     C37712   1.541  10.530   5.594 -0.2365 -0.3246  0.4140
 1021MOL0     C37713   1.697  10.546   5.623 -0.0119  0.7984 -1.0267
 1021MOL0     C37714   1.747  10.483   5.756  1.2691  0.6895 -0.3327
 1021MOL0     C37715   1.906  10.467   5.751 -0.1787 -1.7069 -0.4375
 1021MOL0     C37716   1.970  10.374   5.647 -0.4308  0.0218 -0.3498
 1021MOL0     N37717   1.951  10.231   5.695 -1.0107  0.1545 -0.6139
 1021MOL0     C37718   1.838  10.154   5.676  0.4216  1.1964  0.3296
 1021MOL0     C37719   1.871  10.036   5.739  0.7863  1.0376 -0.0794
 1021MOL0     C37720   1.764   9.925   5.746  0.3123 -0.4622 -0.1312
 1021MOL0     C37721   1.647   9.957   5.836 -0.5002 -0.6792  0.5860
 1021MOL0     C37722   1.576   9.825   5.847  0.3620  0.5173 -0.3121
 1021MOL0     C37723   1.474   9.840   5.964 -0.5318 -0.0663  0.1867
 1021MOL0     O37724   1.353   9.903   5.921  0.4297 -0.2245  0.1169
 1021MOL0     C37725   1.253   9.930   6.010 -0.3908  0.2245 -0.3512
 1021MOL0     C37726   1.161  10.013   5.949  0.9345  0.3161 -0.5680
 1021MOL0     C37727   1.055  10.065   6.020 -1.2051 -0.0185 -0.5696
 1021MOL0     C37728   0.962  10.160   5.949  0.3173 -0.0715  0.2294
 1021MOL0     C37729   1.030  10.021   6.151  0.1786 -0.8535  0.4316
 1021MOL0     C37730   0.906  10.067   6.225  0.8521  0.0622  0.4959
 1021MOL0     O37731   0.842  10.180   6.198  0.4599 -0.1229  0.8961
 1021MOL0     C37732   0.700  10.175   6.203 -0.0338 -0.5560 -0.2271
 1021MOL0     C37733   0.635  10.057   6.177 -0.0585 -0.1621  0.1295
 1021MOL0     C37734   0.498  10.049   6.158  0.3673 -0.5729 -0.0320
 1021MOL0     C37735   0.419  10.158   6.186 -1.4199  1.1385  0.0768
 1021MOL0     O37736   0.283  10.135   6.170  0.0078 -0.2772  0.3130
 1021MOL0     C37737   0.184  10.240   6.201 -0.4588  0.2923 -0.0802
 1021MOL0     C37738   0.142  10.212   6.351 -0.2694 -0.5146  0.4173
 1021MOL0     C37739   0.028  10.296   6.414 -0.4037 -0.5427  0.1751
 1021MOL0     C37740  -0.112  10.274   6.345 -0.3906 -0.4255  0.0440
 1021MOL0     C37741  -0.214  10.379   6.381 -0.8040 -0.7068 -0.4095
 1021MOL0     C37742  -0.356  10.352   6.321 -0.2685  0.2236  0.6215
 1021MOL0     C37743  -0.458  10.456   6.353 -0.3521  0.2448 -0.1220
 1021MOL0     C37744  -0.582  10.405   6.416 -0.0565  0.4520  0.5088
 1021MOL0    Cl37745  -0.547  10.347   6.584 -0.2651 -0.5983 -0.1438
 1021MOL0     C37746   0.481  10.277   6.220 -0.3602 -0.3495  1.1972
 1021MOL0     C37747   0.619  10.286   6.210  0.5749 -0.6822  0.8163
 1021MOL0     O37748   0.882   9.991   6.322  0.9228 -0.2016 -0.1287
 1021MOL0     C37749   1.121   9.936   6.213 -0.0807  0.0539 -0.0350
 1021MOL0     C37750   1.238   9.892   6.147 -0.1178  0.4406 -0.4134
 1021MOL0     N37751   1.993  10.047   5.790 -0.2990  0.7966 -0.3042
 1021MOL0     N37752   2.042  10.158   5.770  0.4177 -0.2482 -0.4378
 1021MOL0     C37753   0.978  10.634   5.771 -0.5225 -0.0078  0.8183
 1021MOL0     C37754   0.863  10.687   5.832  0.2293  0.4230 -0.6427
 1021MOL0     C37755   0.560  10.887   6.035  0.3440 -0.2941  0.7363
 1021MOL0     C37756   0.477  10.848   5.930 -0.4598  0.9389  0.1336
 1021MOL0     C37757   0.356  10.917   5.906 -0.1068  0.2513  0.3733
 1021MOL0     C37758   0.314  11.012   5.994  0.4747 -0.4260 -0.5040
 1021MOL0     O37759   0.177  11.046   5.976 -0.5568 -0.1820  0.3965
 1021MOL0     C37760   0.115  11.146   6.054 -0.3017  0.0492 -0.9359
 1021MOL0     C37761  -0.020  11.194   6.000 -0.2752  0.0695  0.6678
 1021MOL0     C37762  -0.102  11.266   6.109 -0.5730 -0.4604  0.1569
 1021MOL0     C37763  -0.232  11.333   6.054  0.9911 -0.1305 -0.8403
 1021MOL0     C37764  -0.310  11.224   5.983  0.4669 -0.1341  0.7023
 1021MOL0     C37765  -0.380  11.144   5.920  0.0366 -0.2819 -0.6469
 1021MOL0     C37766   0.391  11.053   6.100  0.1928 -0.0818 -0.1084
 1021MOL0     C37767   0.515  10.995   6.123  0.4847  0.2476  0.1472
 1021MOL0     H37768   0.918  10.573   6.142  1.8221 -2.3778  0.2762
 1021MOL0     H37769   1.102  10.462   6.031  1.9282  1.3384  0.2503
 1021MOL0     H37770   1.299  10.432   5.632  1.2836 -0.1160  1.5102
 1021MOL0     H37771   1.164  10.529   5.589 -0.8840  1.8021  2.4032
 1021MOL0     H37772   1.318  10.696   5.543 -0.2407  0.3864  1.1303
 1021MOL0     H37773   1.284  10.732   5.711 -1.7793  0.3886 -0.5530
 1021MOL0     H37774   1.513  10.732   5.676  1.1204 -0.1780 -0.2891
 1021MOL0     H37775   1.465  10.579   5.772 -2.4528  0.4735 -1.0218
 1021MOL0     H37776   1.521  10.431   5.637  1.0977 -0.3183  1.1159
 1021MOL0     H37777   1.517  10.538   5.488 -0.9449 -1.4147  0.4770
 1021MOL0     H37778   1.751  10.491   5.545  0.0968  1.3877 -1.3725
 1021MOL0     H37779   1.733  10.649   5.620  0.3215  0.8008  1.4459
 1021MOL0     H37780   1.719  10.550   5.838 -1.3229 -3.3721  2.4839
 1021MOL0     H37781   1.687  10.395   5.782  1.1364  0.0259 -2.6700
 1021MOL0     H37782   1.947  10.567   5.740 -1.5247 -1.2935 -2.2704
 1021MOL0     H37783   1.934  10.439   5.853  1.6886  1.0578 -0.0897
 1021MOL0     H37784   2.072  10.414   5.642 -0.5277  0.0975 -2.8345
 1021MOL0     H37785   1.930  10.383   5.546 -1.9977 -2.1209  0.0061
 1021MOL0     H37786   1.758  10.159   5.603  0.1509  2.8808  0.7035
 1021MOL0     H37787   1.720   9.922   5.647 -0.4637  0.9269  0.1519
 1021MOL0     H37788   1.820   9.834   5.769  0.1438 -0.5319  0.0093
 1021MOL0     H37789   1.579  10.026   5.787  3.9962  5.3156  1.6692
 1021MOL0     H37790   1.687   9.991   5.932  1.0623 -1.3659  0.2262
 1021MOL0     H37791   1.643   9.745   5.879 -0.1586  0.8987  1.8942
 1021MOL0     H37792   1.528   9.794   5.754 -0.6156  0.3310  0.2448
 1021MOL0     H37793   1.517   9.889   6.052 -0.2536 -1.0564  0.6258
 1021MOL0     H37794   1.444   9.740   5.996 -0.8817 -0.8270 -2.3162
 1021MOL0     H37795   1.184  10.043   5.847  0.0841 -0.9392 -1.1444
 1021MOL0     H37796   0.960  10.252   6.008  0.3572  0.4408 -0.5592
 1021MOL0     H37797   0.996  10.186   5.848 -0.2040 -0.5638 -0.0802
 1021MOL0     H37798   0.860  10.122   5.949 -0.0272  0.7970 -1.0338
 1021MOL0     H37799   0.683   9.963   6.153 -1.2004 -0.6701 -0.2671
 1021MOL0     H37800   0.448   9.964   6.115  2.3886 -0.5091 -2.7702
 1021MOL0     H37801   0.219  10.342   6.183 -4.2423  2.3022  2.5412
 1021MOL0     H37802   0.090  10.234   6.144 -0.6765 -1.8899  0.3877
 1021MOL0     H37803   0.120  10.106   6.341 -0.5612 -0.4896  0.7964
 1021MOL0     H37804   0.230  10.238   6.410  0.1023  0.4585 -0.5208
 1021MOL0     H37805   0.052  10.400   6.393 -2.6426  0.1983  0.8948
 1021MOL0     H37806   0.023  10.275   6.522  0.9090 -1.1194  0.1477
 1021MOL0     H37807  -0.107  10.278   6.235 -0.8196  0.7847  0.0572
 1021MOL0     H37808  -0.151  10.178   6.381 -0.4374 -1.1095 -1.7082
 1021MOL0     H37809  -0.177  10.473   6.338  2.3908 -2.8057 -2.6888
 1021MOL0     H37810  -0.211  10.410   6.487  0.3177  1.5207 -1.0218
 1021MOL0     H37811  -0.349  10.354   6.212 -0.6667  3.8393  0.5393
 1021MOL0     H37812  -0.388  10.254   6.359 -0.7129  0.9224  2.1631
 1021MOL0     H37813  -0.481  10.516   6.264 -3.8191 -1.6278 -0.6468
 1021MOL0     H37814  -0.419  10.534   6.419  2.6638  0.1851 -1.6418
 1021MOL0     H37815  -0.633  10.329   6.356  2.4154 -2.0103  1.3293
 1021MOL0     H37816  -0.653  10.488   6.413  0.2948  0.7263 -2.0898
 1021MOL0     H37817   0.417  10.364   6.235 -2.0466 -1.4320  0.5882
 1021MOL0     H37818   0.654  10.388   6.223  0.5714 -0.4513 -0.7472
 1021MOL0     H37819   1.110   9.897   6.314 -0.5784 -3.0570 -1.1816
 1021MOL0     H37820   1.303   9.822   6.199 -1.2499 -0.9773 -0.8171
 1021MOL0     H37821   1.009  10.639   5.668 -0.0976 -4.6188  0.4979
 1021MOL0     H37822   0.801  10.750   5.769 -1.7348 -1.6752 -0.9622
 1021MOL0     H37823   0.494  10.762   5.866  2.1852  0.8140  0.9038
 1021MOL0     H37824   0.299  10.898   5.815  0.7081  0.0275 -0.1022
 1021MOL0     H37825   0.112  11.115   6.159  0.7528  3.1376  0.1201
 1021MOL0     H37826   0.183  11.230   6.071  0.9401 -1.4644  2.3005
 1021MOL0     H37827  -0.073  11.106   5.963  2.6009 -1.0648 -1.1149
 1021MOL0     H37828  -0.004  11.254   5.910 -0.3350 -1.0254 -0.1063
 1021MOL0     H37829  -0.038  11.342   6.154  1.3956 -2.1923  0.4728
 1021MOL0     H37830  -0.139  11.202   6.189 -0.4633 -2.1466 -1.0765
 1021MOL0     H37831  -0.206  11.425   6.000  0.9538  0.1585 -0.3751
 1021MOL0     H37832  -0.289  11.365   6.142  0.2369 -3.5326  0.0354
 1021MOL0     H37833  -0.447  11.082   5.863 -1.2492  1.7973 -1.5012
 1021MOL0     H37834   0.353  11.115   6.181 -1.6032  0.4682 -1.3176
 1021MOL0     H37835   0.574  11.022   6.210  0.5744  1.2049 -0.2031
 1022MOL0     O37836   9.641   3.315  10.104  0.1555 -0.5181  0.2402
 1022MOL0     C37837   9.731   3.277  10.031  0.7323 -0.3130  0.5191
 1022MOL0     O37838   9.725   3.190   9.925 -0.3331  0.2897  0.6730
 1022MOL0     C37839   9.599   3.150   9.887 -0.4485  0.2941 -0.5835
 1022MOL0     C37840   9.541   3.044   9.954  0.0169 -0.4124 -0.1191
 1022MOL0     C37841   9.410   3.002   9.911  0.0202 -0.1035 -0.5445
 1022MOL0     C37842   9.335   3.060   9.803 -0.6471  0.5213  0.6660
 1022MOL0     O37843   9.212   3.020   9.759 -0.4163  0.5962  0.0652
 1022MOL0     C37844   9.157   2.886   9.789 -0.0577  0.6178 -0.0136
 1022MOL0     C37845   9.084   2.870   9.922 -0.3512  0.2177 -0.1618
 1022MOL0     C37846   8.967   2.965   9.942 -0.9448 -0.9944  0.0235
 1022MOL0     C37847   8.834   2.918   9.887 -0.3820  0.0262 -0.3213
 1022MOL0     C37848   8.723   3.027   9.879  1.2986  0.4669 -0.3723
 1022MOL0     C37849   8.574   2.977   9.867 -0.2800  0.4253 -0.1307
 1022MOL0     C37850   8.486   3.103   9.900 -0.2730 -0.7005  0.2179
 1022MOL0     C37851   8.338   3.068   9.874  0.0301 -0.3571  0.3962
 1022MOL0     N37852   8.298   3.000   9.992 -0.7496 -0.3227  0.5264
 1022MOL0     C37853   8.262   3.055  10.112 -0.6923  0.3953  0.5755
 1022MOL0     C37854   8.248   2.953  10.195  0.3107 -0.4449 -1.2668
 1022MOL0     C37855   8.224   2.964  10.343  0.3848 -0.3297 -0.4434
 1022MOL0     C37856   8.075   2.958  10.375 -0.1594  0.5319 -0.5440
 1022MOL0     C37857   8.014   3.103  10.360  0.8226  0.7231  0.0017
 1022MOL0     C37858   7.887   3.098  10.457 -0.6523 -0.3093  0.8047
 1022MOL0     O37859   7.800   2.985  10.431 -0.4811 -0.2875  0.5231
 1022MOL0     C37860   7.662   3.004  10.440 -0.3596  0.1051  0.2774
 1022MOL0     C37861   7.580   2.942  10.335 -0.4519  0.1434 -0.6820
 1022MOL0     C37862   7.441   2.961  10.328 -0.2802  0.4633 -0.5396
 1022MOL0     C37863   7.374   2.898  10.208  0.6789  1.0535  0.0870
 1022MOL0     C37864   7.379   3.032  10.435 -0.4063  1.0921 -0.1282
 1022MOL0     C37865   7.232   3.044  10.449  1.1935  0.2497  0.4571
 1022MOL0     O37866   7.154   2.942  10.407  0.2104  0.9745  0.0015
 1022MOL0     C37867   7.024   2.947  10.439  0.0348  0.6028  0.0757
 1022MOL0     C37868   6.963   2.941  10.566  0.2162 -0.1900  1.0590
 1022MOL0     C37869   6.821   2.961  10.582  0.0628  0.7832  0.9234
 1022MOL0     C37870   6.743   2.998  10.474  0.3576  0.5651 -0.1740
 1022MOL0     O37871   6.613   3.021  10.504  0.2178 -0.4585 -0.0973
 1022MOL0     C37872   6.515   3.037  10.395  0.5899 -0.6022 -0.3790
 1022MOL0     C37873   6.520   3.172  10.345 -0.2027 -0.2961 -0.2780
 1022MOL0     C37874   6.432   3.184  10.215  0.6976  0.2144 -0.6003
 1022MOL0     C37875   6.444   3.311  10.134  0.3185 -0.8740  0.1533
 1022MOL0     C37876   6.343   3.409  10.208 -0.2050 -0.1348  0.6427
 1022MOL0     C37877   6.365   3.554  10.168 -0.1581 -0.3512  0.2979
 1022MOL0     C37878   6.267   3.641  10.255 -0.4517 -0.2606  0.1409
 1022MOL0     C37879   6.254   3.772  10.174  0.2555  0.4483  0.4838
 1022MOL0    Cl37880   6.127   3.746  10.057  0.4120  0.6655 -0.1917
 1022MOL0     C37881   6.805   3.000  10.350  0.5360 -0.2073 -0.7733
 1022MOL0     C37882   6.937   2.979  10.329 -0.1478  0.5489 -0.1063
 1022MOL0     O37883   7.191   3.147  10.502  0.1388  0.5160  0.6217
 1022MOL0     C37884   7.466   3.082  10.544 -0.4800  0.4970 -0.6465
 1022MOL0     C37885   7.612   3.077  10.542 -0.0779  0.2022  0.0126
 1022MOL0     N37886   8.262   2.838  10.126 -0.9198  0.3976  0.7155
 1022MOL0     N37887   8.296   2.864   9.998 -0.0026 -0.5497 -0.4355
 1022MOL0     C37888   9.399   3.174   9.756  0.2608 -1.2291 -0.5873
 1022MOL0     C37889   9.527   3.219   9.792  0.3484 -0.2680 -0.2091
 1022MOL0     C37890   9.856   3.337  10.057  0.7303 -0.1777 -0.3279
 1022MOL0     C37891   9.953   3.339   9.955  0.4451 -0.5086 -0.0783
 1022MOL0     C37892  10.071   3.418   9.975  0.9490  0.0800  0.7924
 1022MOL0     C37893  10.103   3.490  10.087 -0.3665 -0.4161  0.1651
 1022MOL0     O37894  10.218   3.575  10.076  0.0003 -1.3128  0.7897
 1022MOL0     C37895  10.261   3.663  10.184 -0.3197  0.5216 -0.9945
 1022MOL0     C37896  10.383   3.735  10.145  0.5481  0.3407  0.2540
 1022MOL0     C37897  10.425   3.844  10.239 -0.3708 -0.4505 -0.2815
 1022MOL0     C37898  10.369   3.842  10.383 -0.1506  0.2352  0.2770
 1022MOL0     C37899  10.419   3.950  10.462 -0.0704 -0.1636 -0.0982
 1022MOL0     C37900  10.465   4.025  10.550 -0.2736 -0.3174  0.4570
 1022MOL0     C37901  10.010   3.479  10.191  0.2302  0.4565 -0.6699
 1022MOL0     C37902   9.893   3.406  10.182  0.1602  0.3134  0.1275
 1022MOL0     H37903   9.595   2.994  10.034  2.3329  4.3770  1.7204
 1022MOL0     H37904   9.367   2.913   9.955  1.9369 -0.5390  0.5437
 1022MOL0     H37905   9.081   2.859   9.714  2.4396 -0.7399 -2.2155
 1022MOL0     H37906   9.238   2.813   9.780  0.1535  0.6397  1.5239
 1022MOL0     H37907   9.046   2.770   9.946  2.6645 -0.2533  3.7693
 1022MOL0     H37908   9.161   2.878   9.999  0.2686  2.4860 -0.9218
 1022MOL0     H37909   8.968   2.989  10.049  1.6964 -0.2517 -0.1079
 1022MOL0     H37910   8.981   3.052   9.877  1.9248 -2.3655 -1.3913
 1022MOL0     H37911   8.863   2.887   9.786 -4.2426 -2.1068 -0.9462
 1022MOL0     H37912   8.802   2.825   9.933  0.0492 -0.2602 -0.5979
 1022MOL0     H37913   8.725   3.088   9.970 -0.4863  2.3209 -1.4824
 1022MOL0     H37914   8.740   3.095   9.796  0.0467  1.6422  0.2895
 1022MOL0     H37915   8.559   2.946   9.763 -0.4101 -1.0562  0.3067
 1022MOL0     H37916   8.549   2.892   9.931 -0.2747 -0.1704 -0.8982
 1022MOL0     H37917   8.505   3.133  10.004  0.8357 -0.4460 -0.0427
 1022MOL0     H37918   8.510   3.188   9.835 -0.5694 -0.8912 -0.1392
 1022MOL0     H37919   8.335   3.000   9.788  3.4186 -1.2454  0.8716
 1022MOL0     H37920   8.276   3.155   9.849 -0.7067 -0.5061  1.6205
 1022MOL0     H37921   8.245   3.160  10.136 -3.3701  0.3954 -0.8972
 1022MOL0     H37922   8.273   2.884  10.399  2.9230  0.6010 -1.2062
 1022MOL0     H37923   8.274   3.056  10.372  0.9582 -0.9446  0.5712
 1022MOL0     H37924   8.060   2.912  10.473 -0.3339  1.0720 -0.3151
 1022MOL0     H37925   8.032   2.885  10.305  1.2074 -1.6656  0.8001
 1022MOL0     H37926   7.980   3.114  10.257  0.8395  0.7812  0.0028
 1022MOL0     H37927   8.086   3.182  10.383  2.6941 -0.8781 -0.0910
 1022MOL0     H37928   7.834   3.191  10.436  2.2260  0.9543 -1.6516
 1022MOL0     H37929   7.925   3.094  10.560  0.0612  2.6770  0.7617
 1022MOL0     H37930   7.641   2.888  10.263 -0.7856 -2.2809  0.7360
 1022MOL0     H37931   7.293   2.828  10.232  0.5462  1.1817  0.0133
 1022MOL0     H37932   7.331   2.974  10.144 -2.7084  0.3990  1.3925
 1022MOL0     H37933   7.444   2.844  10.143  1.6411  1.6789  0.5756
 1022MOL0     H37934   7.021   2.912  10.654 -2.4546 -0.6231  2.8118
 1022MOL0     H37935   6.790   2.952  10.686  0.8095 -3.6213  0.9221
 1022MOL0     H37936   6.541   2.962  10.319  1.8740 -1.4599  0.8487
 1022MOL0     H37937   6.412   3.015  10.426  0.1670  1.6707 -0.0318
 1022MOL0     H37938   6.494   3.241  10.425 -0.8963 -1.8735  0.9194
 1022MOL0     H37939   6.624   3.191  10.317  1.5473 -0.6052  5.0355
 1022MOL0     H37940   6.325   3.162  10.229 -0.2353  3.2435 -2.0040
 1022MOL0     H37941   6.465   3.106  10.146  2.5518  3.0347 -3.1590
 1022MOL0     H37942   6.549   3.339  10.125 -0.0101 -0.3834 -2.9475
 1022MOL0     H37943   6.392   3.289  10.040 -2.2796 -1.7098  1.6616
 1022MOL0     H37944   6.345   3.401  10.318  0.8866 -2.0014  0.5350
 1022MOL0     H37945   6.244   3.375  10.178  0.3198  0.4578 -1.9316
 1022MOL0     H37946   6.467   3.593  10.171 -0.1604 -0.2416 -0.6649
 1022MOL0     H37947   6.341   3.561  10.062 -1.3298 -0.6000  0.5305
 1022MOL0     H37948   6.310   3.642  10.356  1.6444 -3.5111 -0.5574
 1022MOL0     H37949   6.165   3.601  10.251  0.0597 -1.5878 -0.1495
 1022MOL0     H37950   6.342   3.806  10.119 -0.2301 -0.3667 -0.8416
 1022MOL0     H37951   6.233   3.856  10.241 -0.8702  1.4630 -1.0690
 1022MOL0     H37952   6.756   3.028  10.257 -0.7707 -3.5434 -1.2437
 1022MOL0     H37953   6.986   2.984  10.232 -0.7474 -1.6524 -0.5984
 1022MOL0     H37954   7.426   3.126  10.635 -0.6268 -0.1894 -0.3752
 1022MOL0     H37955   7.663   3.124  10.626  0.6222  0.8457 -0.7586
 1022MOL0     H37956   9.340   3.238   9.691  0.0417 -1.2950 -0.4568
 1022MOL0     H37957   9.575   3.307   9.751 -0.4802  1.0495  1.5390
 1022MOL0     H37958   9.938   3.292   9.859 -1.8926  0.9469 -0.5217
 1022MOL0     H37959  10.140   3.421   9.891 -1.4726  1.7240 -1.2870
 1022MOL0     H37960  10.175   3.729  10.200  0.8240  1.5313  1.3946
 1022MOL0     H37961  10.275   3.607  10.276  1.7228  3.1052  0.3906
 1022MOL0     H37962  10.369   3.774  10.043  5.5756 -2.2598 -1.7758
 1022MOL0     H37963  10.461   3.659  10.133 -1.5333 -2.0069  0.7071
 1022MOL0     H37964  10.392   3.940  10.196 -0.9547  0.2871  1.7117
 1022MOL0     H37965  10.534   3.840  10.246 -0.1634  0.9962 -1.8787
 1022MOL0     H37966  10.396   3.747  10.430 -1.3696 -0.2763 -0.0201
 1022MOL0     H37967  10.262   3.866  10.377  0.1728  1.5248 -0.6941
 1022MOL0     H37968  10.497   4.080  10.636  1.3320 -0.1547 -0.2145
 1022MOL0     H37969  10.040   3.508  10.291 -1.9835  0.7378 -0.0320
 1022MOL0     H37970   9.823   3.386  10.263 -1.4002  2.1519 -0.6955
 1023MOL0     O37971   2.265   3.854   6.690 -0.9274  0.9407 -0.2112
 1023MOL0     C37972   2.314   3.928   6.612 -0.1129  0.4193 -0.1696
 1023MOL0     O37973   2.270   4.055   6.591  0.3396  0.2968  0.2615
 1023MOL0     C37974   2.171   4.105   6.673  0.4004  0.2883 -0.7407
 1023MOL0     C37975   2.106   4.211   6.614  0.9768  0.9232 -0.0113
 1023MOL0     C37976   2.021   4.296   6.674  0.1004 -0.6345  0.3230
 1023MOL0     C37977   2.003   4.277   6.804 -0.0974  0.3969 -0.7021
 1023MOL0     O37978   1.939   4.371   6.880  0.0484 -0.2382  0.3770
 1023MOL0     C37979   1.809   4.408   6.835  0.6842  0.5824 -0.2089
 1023MOL0     C37980   1.729   4.477   6.947 -0.3163 -0.3612 -0.0028
 1023MOL0     C37981   1.590   4.526   6.897  0.0948 -0.7788 -0.2292
 1023MOL0     C37982   1.514   4.558   7.024  0.2963 -0.4383  0.0991
 1023MOL0     C37983   1.366   4.602   6.999  0.0544  0.8718 -0.5223
 1023MOL0     C37984   1.312   4.690   7.115  0.6547  0.5912 -0.4406
 1023MOL0     C37985   1.180   4.751   7.095 -0.2248  0.5630  0.9973
 1023MOL0     C37986   1.163   4.878   7.186 -1.1668  0.3761  0.7700
 1023MOL0     N37987   1.030   4.935   7.180  0.1842  0.4035  0.4005
 1023MOL0     C37988   0.915   4.872   7.139  0.2463  1.0186  0.7524
 1023MOL0     C37989   0.809   4.945   7.190 -0.0006  0.4237 -1.2534
 1023MOL0     C37990   0.653   4.911   7.203 -0.4252  0.6677 -0.1035
 1023MOL0     C37991   0.574   5.003   7.102 -0.7208 -0.8978 -0.2923
 1023MOL0     C37992   0.519   5.127   7.174 -0.3314 -0.2965  0.8131
 1023MOL0     C37993   0.392   5.172   7.104 -0.5802 -0.2186 -0.4163
 1023MOL0     O37994   0.280   5.092   7.147  0.2323 -1.0768 -0.1638
 1023MOL0     C37995   0.154   5.118   7.091 -0.3229  0.5211 -0.7931
 1023MOL0     C37996   0.053   5.017   7.099 -1.0990 -0.8855 -0.4385
 1023MOL0     C37997  -0.065   5.039   7.025  0.8746 -0.0229  1.3915
 1023MOL0     C37998  -0.156   4.914   7.018 -0.6584 -0.5315  0.3285
 1023MOL0     C37999  -0.098   5.161   6.972 -0.4706  0.3203  0.7739
 1023MOL0     C38000  -0.225   5.209   6.908  0.1524  0.0687  0.2249
 1023MOL0     O38001  -0.225   5.318   6.840  0.1222 -0.6194 -1.1738
 1023MOL0     C38002  -0.340   5.398   6.855  1.2107 -0.2524  0.3157
 1023MOL0     C38003  -0.385   5.472   6.741 -0.7169  1.2915  0.3107
 1023MOL0     C38004  -0.495   5.543   6.736 -0.0751  0.5340  1.1392
 1023MOL0     C38005  -0.562   5.573   6.849 -0.5973  0.0852 -0.6333
 1023MOL0     O38006  -0.647   5.675   6.827  0.4755 -0.4766 -0.4831
 1023MOL0     C38007  -0.682   5.755   6.941 -0.0796  0.4155  0.3075
 1023MOL0     C38008  -0.803   5.836   6.897 -0.0553  0.8726 -0.4183
 1023MOL0     C38009  -0.827   5.940   6.991  1.4099  0.0756  0.0235
 1023MOL0     C38010  -0.938   6.025   6.934 -0.3415  0.4485 -0.1322
 1023MOL0     C38011  -0.970   6.132   7.033 -0.2857  0.0909  1.0649
 1023MOL0     C38012  -1.069   6.233   6.974  0.5824  0.2401  0.2905
 1023MOL0     C38013  -1.216   6.185   6.935 -0.2126  0.7250 -0.0523
 1023MOL0     C38014  -1.294   6.281   6.850  0.3594 -0.0063 -0.1402
 1023MOL0    Cl38015  -1.207   6.323   6.687 -0.3657 -0.1541  0.1102
 1023MOL0     C38016  -0.517   5.513   6.970  0.1858  0.2818 -0.1149
 1023MOL0     C38017  -0.409   5.423   6.968 -0.6621 -0.3749  0.1014
 1023MOL0     O38018  -0.325   5.150   6.947  0.0710  0.0136  0.1683
 1023MOL0     C38019   0.002   5.265   6.983  0.2795  0.7697  0.9548
 1023MOL0     C38020   0.127   5.244   7.035 -0.5086 -0.3598 -0.0932
 1023MOL0     N38021   0.870   5.061   7.239 -0.1899  0.4215  0.1465
 1023MOL0     N38022   0.998   5.046   7.240 -0.3235 -0.1950  0.3704
 1023MOL0     C38023   2.047   4.159   6.870 -1.2643 -0.7892 -0.3944
 1023MOL0     C38024   2.136   4.075   6.803  0.9879  0.0375 -1.3196
 1023MOL0     C38025   2.421   3.878   6.524  0.4184  0.0906  0.1527
 1023MOL0     C38026   2.480   3.964   6.434 -0.8420 -0.2860 -0.2107
 1023MOL0     C38027   2.582   3.928   6.346  0.1189 -0.7611 -0.3212
 1023MOL0     C38028   2.619   3.791   6.337  0.1157  0.3465 -0.0611
 1023MOL0     O38029   2.710   3.740   6.254  0.7659  0.5277  0.1227
 1023MOL0     C38030   2.819   3.816   6.198 -0.4781  0.4470  0.1843
 1023MOL0     C38031   2.934   3.815   6.294  0.3532 -0.2625 -0.4836
 1023MOL0     C38032   2.969   3.664   6.340 -0.1501  0.0861  0.8499
 1023MOL0     C38033   3.054   3.656   6.469  0.0850 -0.8056  0.5269
 1023MOL0     C38034   3.198   3.685   6.436 -0.2231  0.2411 -0.7762
 1023MOL0     C38035   3.319   3.719   6.444 -0.5606  0.1198 -0.7232
 1023MOL0     C38036   2.550   3.704   6.423 -0.6870  0.4961 -0.6721
 1023MOL0     C38037   2.455   3.744   6.516 -0.1820 -0.4226  0.1977
 1023MOL0     H38038   2.113   4.236   6.509 -2.5805 -0.4311 -0.7184
 1023MOL0     H38039   1.986   4.387   6.625  1.4830  0.5777  1.4935
 1023MOL0     H38040   1.815   4.490   6.762 -2.0661  2.3694  1.4032
 1023MOL0     H38041   1.758   4.317   6.804 -0.3963  1.0286  0.2138
 1023MOL0     H38042   1.716   4.411   7.034  3.6481 -0.1311  0.9729
 1023MOL0     H38043   1.789   4.562   6.982  1.6812 -1.5696 -0.3155
 1023MOL0     H38044   1.591   4.614   6.833 -0.3237 -1.1743 -0.7911
 1023MOL0     H38045   1.532   4.446   6.850 -2.5213 -1.5178  3.7838
 1023MOL0     H38046   1.517   4.476   7.097 -3.1420  1.3275  2.4821
 1023MOL0     H38047   1.562   4.646   7.069 -1.2564  0.9536 -0.8670
 1023MOL0     H38048   1.368   4.663   6.909 -0.1925 -0.7584 -1.6816
 1023MOL0     H38049   1.316   4.505   6.986  4.2247 -1.5197 -0.4997
 1023MOL0     H38050   1.320   4.636   7.210  0.8967  0.4834 -0.5232
 1023MOL0     H38051   1.387   4.769   7.120  0.3541  0.9191 -0.9880
 1023MOL0     H38052   1.166   4.791   6.995 -2.2102  0.5955  1.2444
 1023MOL0     H38053   1.109   4.671   7.118  2.3186 -0.9119  4.8074
 1023MOL0     H38054   1.231   4.957   7.154  0.2044  0.5232  3.7719
 1023MOL0     H38055   1.187   4.860   7.291  0.9617 -0.6229  0.1681
 1023MOL0     H38056   0.902   4.771   7.101 -1.8945  0.1802  3.4434
 1023MOL0     H38057   0.637   4.809   7.167 -0.2578  1.1203 -1.5368
 1023MOL0     H38058   0.617   4.919   7.306  0.9108  0.7160  0.3806
 1023MOL0     H38059   0.488   4.942   7.073  0.2811 -1.9415 -1.1776
 1023MOL0     H38060   0.632   5.038   7.016  1.3614  1.4302  1.8985
 1023MOL0     H38061   0.594   5.205   7.158  1.2972 -1.1553  3.5551
 1023MOL0     H38062   0.498   5.116   7.281 -0.8641  0.3878  0.7837
 1023MOL0     H38063   0.401   5.171   6.995  0.2553  1.3528 -0.3903
 1023MOL0     H38064   0.376   5.273   7.141  0.5751 -0.5221  0.9642
 1023MOL0     H38065   0.073   4.927   7.156  2.0127 -0.0049  0.0543
 1023MOL0     H38066  -0.179   4.874   7.117  2.2565  2.5903  2.5002
 1023MOL0     H38067  -0.249   4.935   6.965  0.7394  1.9356 -1.3256
 1023MOL0     H38068  -0.107   4.835   6.961 -0.9403 -0.4599 -0.0140
 1023MOL0     H38069  -0.322   5.457   6.654 -0.0499  3.4103  0.3478
 1023MOL0     H38070  -0.521   5.586   6.640  1.7647 -0.8522 -0.0353
 1023MOL0     H38071  -0.716   5.688   7.020 -0.2344 -0.6832 -0.6789
 1023MOL0     H38072  -0.593   5.807   6.978  3.0248 -3.1360 -1.5457
 1023MOL0     H38073  -0.792   5.869   6.793 -2.9356 -3.4107 -2.3928
 1023MOL0     H38074  -0.891   5.771   6.899  0.8630 -0.3873  0.8437
 1023MOL0     H38075  -0.741   6.007   6.999 -0.1285  2.2823 -0.9434
 1023MOL0     H38076  -0.847   5.894   7.088 -0.0452 -0.9986 -0.7594
 1023MOL0     H38077  -0.901   6.065   6.839  0.2228 -3.7415 -1.8975
 1023MOL0     H38078  -1.026   5.964   6.908  1.9472 -2.9732 -0.5531
 1023MOL0     H38079  -0.884   6.178   7.082 -0.2609 -0.9123  2.0076
 1023MOL0     H38080  -1.019   6.088   7.121 -1.7064 -0.3349  0.1000
 1023MOL0     H38081  -1.087   6.317   7.042  1.2323  0.0055  0.7632
 1023MOL0     H38082  -1.019   6.291   6.896  2.1708  0.3370  1.3337
 1023MOL0     H38083  -1.271   6.166   7.027  1.5743  0.2229  0.9634
 1023MOL0     H38084  -1.204   6.086   6.888  2.6124 -0.0806  2.0638
 1023MOL0     H38085  -1.310   6.375   6.905 -1.6227 -0.1816 -0.3725
 1023MOL0     H38086  -1.392   6.237   6.831  0.1459 -0.1494  1.1933
 1023MOL0     H38087  -0.577   5.533   7.058 -0.9011  3.3747 -1.4083
 1023MOL0     H38088  -0.386   5.367   7.058  0.8323 -2.1619 -1.3402
 1023MOL0     H38089  -0.016   5.364   6.944 -1.5857  0.0980 -0.0322
 1023MOL0     H38090   0.193   5.330   7.025  1.1827 -1.8350 -2.4451
 1023MOL0     H38091   2.030   4.152   6.977  1.3946  1.5559  0.3034
 1023MOL0     H38092   2.194   4.001   6.858  2.0463  1.9119  0.1805
 1023MOL0     H38093   2.441   4.065   6.423  0.2055  0.7322  3.7022
 1023MOL0     H38094   2.634   4.007   6.293 -0.9246  1.8342  2.1930
 1023MOL0     H38095   2.843   3.764   6.105 -3.8256  2.4745 -2.0425
 1023MOL0     H38096   2.786   3.917   6.172  1.1334  1.2316  1.0307
 1023MOL0     H38097   2.906   3.877   6.379  2.9643 -0.0110  0.2587
 1023MOL0     H38098   3.020   3.865   6.248  2.3152 -1.4173  1.7329
 1023MOL0     H38099   3.022   3.609   6.261 -1.5304 -2.5185  1.6147
 1023MOL0     H38100   2.880   3.600   6.349 -0.6641  0.5183 -0.9229
 1023MOL0     H38101   3.056   3.556   6.514  1.8422 -2.7445 -3.3137
 1023MOL0     H38102   3.025   3.741   6.530 -0.1729 -0.5784  0.0959
 1023MOL0     H38103   3.422   3.741   6.429 -0.5161  0.1829 -0.3436
 1023MOL0     H38104   2.559   3.597   6.406 -2.1079 -0.0101  1.3488
 1023MOL0     H38105   2.407   3.659   6.565  1.3584 -1.7627 -0.5298
 1024MOL0     O38106   0.055   8.934   1.416  0.4945 -0.4106  0.6679
 1024MOL0     C38107   0.127   8.901   1.322  0.1499 -0.3690  0.1612
 1024MOL0     O38108   0.204   8.793   1.313 -0.8980 -0.4870  0.0578
 1024MOL0     C38109   0.190   8.684   1.395 -0.9522 -0.0944 -0.6644
 1024MOL0     C38110   0.076   8.657   1.468  0.5599 -0.0979 -0.1473
 1024MOL0     C38111   0.072   8.548   1.559 -0.2402 -0.8815  0.2681
 1024MOL0     C38112   0.179   8.462   1.570 -0.9712  0.4174  0.0863
 1024MOL0     O38113   0.167   8.353   1.642 -0.5343  0.4663  0.0515
 1024MOL0     C38114   0.278   8.273   1.687  0.7567 -0.5805  0.0687
 1024MOL0     C38115   0.219   8.148   1.747 -0.0839 -0.0287 -0.0389
 1024MOL0     C38116   0.129   8.196   1.860 -0.0086  0.6427  0.7136
 1024MOL0     C38117   0.082   8.081   1.963  0.4717 -0.2570 -0.1821
 1024MOL0     C38118   0.190   7.987   2.010 -0.8295  0.3473 -0.0482
 1024MOL0     C38119   0.312   8.052   2.079  0.7320  0.0283  0.0342
 1024MOL0     C38120   0.444   7.964   2.060  0.4164  0.4182 -0.2851
 1024MOL0     C38121   0.511   7.917   2.191  0.4466  0.2822 -0.0599
 1024MOL0     N38122   0.649   7.898   2.184  0.1183 -0.0650  0.5112
 1024MOL0     C38123   0.735   7.997   2.181 -0.7631 -1.2347 -0.5843
 1024MOL0     C38124   0.857   7.937   2.176  0.4245  0.1087 -0.4466
 1024MOL0     C38125   0.995   8.012   2.154 -0.3058  0.4670 -0.1288
 1024MOL0     C38126   0.997   8.018   1.997  0.3613  0.4127 -0.2453
 1024MOL0     C38127   1.021   7.885   1.920 -0.3190  0.4620  0.5854
 1024MOL0     C38128   1.173   7.862   1.864 -0.3749  0.7585 -0.3642
 1024MOL0     O38129   1.272   7.868   1.962 -0.0198 -0.2359  0.5226
 1024MOL0     C38130   1.404   7.851   1.928  0.2838 -0.8061 -0.0421
 1024MOL0     C38131   1.446   7.795   1.813  0.2080 -0.1266  0.7052
 1024MOL0     C38132   1.584   7.768   1.790  0.2320 -0.1915  0.7357
 1024MOL0     C38133   1.633   7.702   1.657  0.3825 -0.2249  0.4134
 1024MOL0     C38134   1.686   7.801   1.886  0.3691 -0.5518 -0.6364
 1024MOL0     C38135   1.825   7.769   1.882 -0.5750 -1.1953 -0.8274
 1024MOL0     O38136   1.882   7.713   1.768  0.0002  0.5682 -0.2854
 1024MOL0     C38137   2.017   7.742   1.749  0.2530  0.4399  0.1364
 1024MOL0     C38138   2.115   7.662   1.808 -0.0255  0.7947  0.0552
 1024MOL0     C38139   2.254   7.694   1.780 -0.0165  0.6503 -1.0550
 1024MOL0     C38140   2.290   7.806   1.704 -0.5247 -0.6320 -0.4014
 1024MOL0     O38141   2.419   7.828   1.674 -1.0917  0.0064  0.3164
 1024MOL0     C38142   2.516   7.724   1.668 -0.9317 -0.4920  0.0288
 1024MOL0     C38143   2.629   7.763   1.578  0.2031  0.0713  0.8195
 1024MOL0     C38144   2.730   7.850   1.654  0.5025  0.7271 -0.2420
 1024MOL0     C38145   2.770   7.984   1.586  0.1401 -0.4424 -0.0060
 1024MOL0     C38146   2.921   8.021   1.631 -0.4256  0.6204  0.2549
 1024MOL0     C38147   2.937   8.052   1.773  0.2714  0.2492 -0.4821
 1024MOL0     C38148   3.094   8.064   1.800  1.1244 -0.1940 -0.5209
 1024MOL0     C38149   3.186   7.943   1.789  0.2875 -0.2448 -0.0054
 1024MOL0    Cl38150   3.354   7.992   1.833  0.0157  0.3433  0.2623
 1024MOL0     C38151   2.190   7.883   1.652 -0.0530 -0.2345  0.0404
 1024MOL0     C38152   2.054   7.854   1.684  0.8092  0.0761 -0.0182
 1024MOL0     O38153   1.893   7.793   1.980  0.1395  0.1631 -0.6388
 1024MOL0     C38154   1.635   7.847   2.009  0.1637  0.7524  0.0620
 1024MOL0     C38155   1.502   7.873   2.029  0.0897  0.7734  0.4169
 1024MOL0     N38156   0.841   7.807   2.202  0.1226 -0.0798 -0.0489
 1024MOL0     N38157   0.719   7.780   2.203  1.0918  0.1090 -0.4144
 1024MOL0     C38158   0.288   8.484   1.481  0.2959 -0.3074  0.3149
 1024MOL0     C38159   0.294   8.593   1.391  0.3989 -0.0056  0.3298
 1024MOL0     C38160   0.162   9.002   1.219  0.2406 -0.7137  0.7198
 1024MOL0     C38161   0.276   8.995   1.134  0.7286  0.6137  0.1017
 1024MOL0     C38162   0.301   9.088   1.032  0.6843 -0.4051 -0.6298
 1024MOL0     C38163   0.206   9.187   1.007  0.5922  0.6015 -0.6962
 1024MOL0     O38164   0.218   9.278   0.906  0.3617 -0.1304  0.0245
 1024MOL0     C38165   0.339   9.279   0.831 -1.1015 -0.3991 -0.3588
 1024MOL0     C38166   0.337   9.393   0.731 -0.4792 -0.0629  0.2157
 1024MOL0     C38167   0.233   9.382   0.622  0.1776 -1.0237 -0.2369
 1024MOL0     C38168   0.258   9.476   0.504  0.4578 -0.1599 -0.1587
 1024MOL0     C38169   0.383   9.479   0.431  0.5336  0.1374  0.3119
 1024MOL0     C38170   0.489   9.493   0.375  0.1786  0.2550  0.5883
 1024MOL0     C38171   0.091   9.195   1.086 -0.1836  0.4032 -0.6451
 1024MOL0     C38172   0.074   9.111   1.200 -0.1371  0.2035 -0.1056
 1024MOL0     H38173  -0.021   8.704   1.460  0.3657  0.2295  2.8319
 1024MOL0     H38174  -0.021   8.508   1.598 -1.4439 -1.3516 -2.8575
 1024MOL0     H38175   0.356   8.257   1.612  1.5585 -0.0628  0.7766
 1024MOL0     H38176   0.339   8.327   1.759  0.1852 -1.9062  1.6182
 1024MOL0     H38177   0.169   8.086   1.672 -1.2284  0.0160  0.6551
 1024MOL0     H38178   0.308   8.102   1.789  0.0183  0.1016 -0.1103
 1024MOL0     H38179   0.179   8.280   1.909  1.4122  2.5621 -3.5350
 1024MOL0     H38180   0.036   8.228   1.812 -0.2935 -1.6075 -0.3679
 1024MOL0     H38181   0.047   8.124   2.058 -0.9521  0.9927 -1.2193
 1024MOL0     H38182   0.000   8.026   1.915  1.6180  0.9885 -3.9164
 1024MOL0     H38183   0.139   7.922   2.083 -3.0630 -1.4421 -2.9587
 1024MOL0     H38184   0.221   7.934   1.919 -2.8130  2.9184 -2.3953
 1024MOL0     H38185   0.333   8.149   2.033 -1.5129  1.0503  0.9830
 1024MOL0     H38186   0.288   8.073   2.184  0.8065 -0.0170  0.0607
 1024MOL0     H38187   0.422   7.884   1.990 -3.9808 -0.5610  1.8725
 1024MOL0     H38188   0.510   8.030   2.003 -1.3673 -0.4716 -3.5990
 1024MOL0     H38189   0.462   7.824   2.223 -1.5504 -0.0897 -3.7354
 1024MOL0     H38190   0.496   7.990   2.271 -3.3499 -2.0661  1.6637
 1024MOL0     H38191   0.723   8.105   2.181  3.0874 -0.6841  0.7391
 1024MOL0     H38192   0.999   8.112   2.198  2.9101 -0.2516  1.4651
 1024MOL0     H38193   1.082   7.952   2.182 -1.1606 -0.4088  0.7366
 1024MOL0     H38194   1.084   8.079   1.972 -0.7758  1.9472 -0.5968
 1024MOL0     H38195   0.909   8.068   1.957  0.4232  0.7180 -0.0081
 1024MOL0     H38196   0.960   7.897   1.830  0.6231 -0.3095 -0.1713
 1024MOL0     H38197   0.991   7.793   1.971  0.1153 -0.3708 -0.6353
 1024MOL0     H38198   1.200   7.941   1.794 -0.9067  0.6461 -0.7032
 1024MOL0     H38199   1.177   7.763   1.817  2.9063 -0.0600  1.3758
 1024MOL0     H38200   1.373   7.776   1.735  0.8706 -1.5171  0.3910
 1024MOL0     H38201   1.696   7.612   1.667  1.6408  0.1511 -2.6765
 1024MOL0     H38202   1.549   7.688   1.589  0.8841 -0.1323 -0.2394
 1024MOL0     H38203   1.692   7.776   1.602  0.0399 -1.5856 -1.9281
 1024MOL0     H38204   2.080   7.580   1.871  1.9777  2.6003  3.8831
 1024MOL0     H38205   2.331   7.631   1.824  2.3256  4.1120  0.3141
 1024MOL0     H38206   2.544   7.697   1.770  0.7037 -0.0224 -0.2634
 1024MOL0     H38207   2.460   7.641   1.624  0.3915 -0.9186 -0.9193
 1024MOL0     H38208   2.677   7.677   1.531  1.2843 -0.0429  2.0634
 1024MOL0     H38209   2.590   7.821   1.494  0.5681  0.4073  0.8753
 1024MOL0     H38210   2.814   7.779   1.659 -1.5668 -1.8726 -0.2215
 1024MOL0     H38211   2.688   7.866   1.753  3.8450  0.2807  1.4114
 1024MOL0     H38212   2.760   7.975   1.478  3.1754  1.9219 -0.6079
 1024MOL0     H38213   2.706   8.071   1.603 -1.4898 -1.9278  1.9881
 1024MOL0     H38214   2.941   8.111   1.573  2.3867 -0.4707 -0.6037
 1024MOL0     H38215   2.989   7.941   1.601 -1.0234  0.3297 -0.3620
 1024MOL0     H38216   2.882   8.143   1.796  0.3457 -0.0163  0.8111
 1024MOL0     H38217   2.896   7.969   1.831  0.2249 -0.6179 -1.6987
 1024MOL0     H38218   3.113   8.118   1.893  1.4507 -1.2154  0.0253
 1024MOL0     H38219   3.125   8.140   1.728 -2.9011  1.8127 -0.3813
 1024MOL0     H38220   3.187   7.908   1.686  1.2347  1.1401 -0.4950
 1024MOL0     H38221   3.140   7.875   1.862  1.0272  0.9718  1.6458
 1024MOL0     H38222   2.222   7.960   1.583  0.8248  0.8236  1.5785
 1024MOL0     H38223   1.969   7.910   1.646  0.6296 -0.1914 -0.0197
 1024MOL0     H38224   1.697   7.863   2.096  0.3643  0.0168  0.0569
 1024MOL0     H38225   1.463   7.907   2.125  1.8336 -0.5411  1.6423
 1024MOL0     H38226   0.371   8.416   1.467  2.8505  2.6970 -0.3651
 1024MOL0     H38227   0.380   8.607   1.326  0.1006 -1.4431 -0.4316
 1024MOL0     H38228   0.344   8.912   1.152 -0.1815 -0.4644 -1.2233
 1024MOL0     H38229   0.394   9.076   0.977  0.3702  0.8846 -1.4819
 1024MOL0     H38230   0.423   9.304   0.896 -4.0852  1.8325  3.0719
 1024MOL0     H38231   0.361   9.179   0.792  2.6854 -0.0189  0.4765
 1024MOL0     H38232   0.436   9.415   0.689  0.2464 -3.9167 -0.4329
 1024MOL0     H38233   0.311   9.485   0.784 -1.1985 -0.4300  0.5018
 1024MOL0     H38234   0.135   9.404   0.665 -0.9007 -3.6548 -1.1331
 1024MOL0     H38235   0.230   9.276   0.596 -0.8247 -1.6992  2.2700
 1024MOL0     H38236   0.229   9.575   0.541  2.0195  0.7125 -1.1451
 1024MOL0     H38237   0.178   9.462   0.430  0.0000 -0.7176  0.4298
 1024MOL0     H38238   0.584   9.513   0.330 -0.2209 -0.3944 -0.5872
 1024MOL0     H38239   0.029   9.284   1.077 -2.3561 -0.5895  2.8034
 1024MOL0     H38240  -0.010   9.129   1.266  0.2327  0.0618  0.4058
  11.42861  11.42861  11.42861
